Title
81404
    1CHL1    C3    1   3.636   3.717   9.292  0.1204 -0.4117  0.4347
    1CHL1    H3    2   3.657   3.825   9.278  2.5004 -0.8107  0.5408
    1CHL1    O3    3   3.683   3.681   9.422  0.2569  0.4394  0.0181
    1CHL1   H3'    4   3.778   3.682   9.410  0.3921  0.0221  1.0241
    1CHL1    C4    5   3.487   3.693   9.271  0.0217  0.0791  0.8976
    1CHL1   H4A    6   3.448   3.590   9.277  1.4215 -0.5102  0.3687
    1CHL1   H4B    7   3.422   3.754   9.337 -1.0579  4.1812 -3.3375
    1CHL1    C5    8   3.448   3.735   9.128  0.1731 -0.2514  0.5423
    1CHL1    C6    9   3.350   3.826   9.109 -0.0171  0.1996  0.1205
    1CHL1    H6   10   3.302   3.876   9.195  1.1159  0.5258  0.5862
    1CHL1    C7   11   3.292   3.866   8.973  0.0722 -0.5088 -1.2669
    1CHL1   H7A   12   3.182   3.873   8.985  0.3000  1.2001  0.2532
    1CHL1   H7B   13   3.312   3.973   8.950  0.4374  0.1183  1.5904
    1CHL1    C8   14   3.330   3.758   8.863 -0.2641 -0.2690  0.1478
    1CHL1    H8   15   3.276   3.665   8.890 -0.5169  0.5079  2.5748
    1CHL1   C14   16   3.300   3.822   8.738 -0.2681 -0.3275 -0.4748
    1CHL1   H14   17   3.353   3.919   8.733 -0.6643 -0.1455 -1.2877
    1CHL1   C15   18   3.160   3.867   8.721 -0.1629 -0.2084  0.4026
    1CHL1  H15A   19   3.095   3.785   8.759 -1.2517  1.0511  1.3494
    1CHL1  H15B   20   3.123   3.956   8.776  0.5077  0.6163 -0.4595
    1CHL1   C16   21   3.142   3.899   8.572  0.6680  0.1496 -0.1727
    1CHL1  H16A   22   3.042   3.872   8.532  0.5669  1.1143 -0.5945
    1CHL1  H16B   23   3.149   4.009   8.556  0.9386  0.1935  0.2078
    1CHL1   C17   24   3.270   3.833   8.508  0.3091  0.0532  0.2564
    1CHL1   H17   25   3.343   3.915   8.492  1.7458 -1.1117  0.6731
    1CHL1   C13   26   3.331   3.741   8.615 -0.0380  0.0960 -0.1043
    1CHL1   C18   27   3.258   3.607   8.617  0.4650 -0.1811  0.0355
    1CHL1  H18A   28   3.287   3.533   8.540  0.1310  0.7616 -1.0306
    1CHL1  H18B   29   3.275   3.557   8.715 -0.2824  1.3935  1.0179
    1CHL1  H18C   30   3.148   3.617   8.615  0.4784  1.2024  2.2398
    1CHL1   C12   31   3.483   3.711   8.612 -0.2725 -0.6109 -0.0671
    1CHL1  H12A   32   3.518   3.650   8.526  0.5023 -0.5625  0.2077
    1CHL1  H12B   33   3.528   3.811   8.595 -1.1285 -0.5656 -2.3965
    1CHL1   C11   34   3.535   3.658   8.745  0.3614 -0.3621  1.0889
    1CHL1  H11A   35   3.500   3.553   8.758  4.0456 -2.0748 -1.2669
    1CHL1  H11B   36   3.646   3.649   8.739  0.3877 -0.4662  1.6231
    1CHL1    C9   37   3.482   3.737   8.874  0.0260 -0.2699 -0.0203
    1CHL1    H9   38   3.538   3.833   8.870 -1.9482  0.9735  0.4716
    1CHL1   C10   39   3.530   3.673   9.008  0.6442  0.5223  0.1830
    1CHL1   C19   40   3.493   3.523   9.011  0.0662 -0.6261  0.7230
    1CHL1  H19A   41   3.548   3.471   8.929 -0.4166  1.6975 -1.2118
    1CHL1  H19B   42   3.517   3.481   9.110 -0.2443  0.4844  1.2869
    1CHL1  H19C   43   3.389   3.500   8.980  0.5558 -1.6371 -0.2615
    1CHL1    C1   44   3.679   3.694   9.045 -0.3686  0.3588  0.4617
    1CHL1   H1A   45   3.739   3.634   8.972  2.0945  0.3260  2.3731
    1CHL1   H1B   46   3.705   3.800   9.022  2.5878 -0.3666  0.0453
    1CHL1    C2   47   3.716   3.646   9.183 -0.4713 -0.0353 -0.0719
    1CHL1   H2A   48   3.823   3.670   9.202 -0.6457  2.9730 -2.2897
    1CHL1   H2B   49   3.689   3.538   9.190 -2.6579  0.3337 -1.6774
    1CHL1   C20   50   3.248   3.770   8.372 -0.3185 -0.3796  0.0963
    1CHL1   H20   51   3.180   3.683   8.380 -1.5556  0.6216  1.0730
    1CHL1   C21   52   3.386   3.728   8.309 -0.0328 -0.2557  0.4783
    1CHL1  H21A   53   3.461   3.808   8.326 -0.2268 -0.0483  0.3670
    1CHL1  H21B   54   3.377   3.717   8.199  0.6452  0.8316  0.3067
    1CHL1  H21C   55   3.413   3.631   8.356 -1.8257  0.1859  2.5829
    1CHL1   C22   56   3.176   3.867   8.274  0.0129  0.2908  0.2248
    1CHL1  H22A   57   3.087   3.903   8.329 -0.2464 -0.3740  0.2497
    1CHL1  H22B   58   3.241   3.952   8.242  0.5473 -0.4830 -0.7786
    1CHL1   C23   59   3.120   3.790   8.148 -0.5337 -0.3245  0.4101
    1CHL1  H23A   60   3.207   3.763   8.084 -0.5263 -1.0318  0.7014
    1CHL1  H23B   61   3.076   3.693   8.181 -0.9742  0.2435  1.5445
    1CHL1   C24   62   3.014   3.876   8.082 -0.2970 -0.3117  0.1779
    1CHL1  H24A   63   2.938   3.896   8.161  1.0813  3.6592  0.7041
    1CHL1  H24B   64   3.050   3.979   8.064  0.9214 -0.6615  0.5667
    1CHL1   C25   65   2.945   3.821   7.954  0.1762 -0.0557 -0.4566
    1CHL1   H25   66   2.869   3.886   7.905  0.0693 -0.3635 -0.7006
    1CHL1   C26   67   3.047   3.787   7.843  0.3061 -0.1550  0.3445
    1CHL1  H26A   68   3.127   3.724   7.889  1.4333 -0.1709 -1.5572
    1CHL1  H26B   69   3.000   3.725   7.764  0.8523 -1.1143  0.7565
    1CHL1  H26C   70   3.093   3.875   7.795  0.5338 -0.0532  0.7467
    1CHL1   C27   71   2.857   3.699   7.978 -0.3235 -0.1622 -0.8390
    1CHL1  H27A   72   2.764   3.712   8.037 -1.7454 -0.3202 -2.9272
    1CHL1  H27B   73   2.816   3.659   7.882 -1.3789 -0.8418 -0.1281
    1CHL1  H27C   74   2.908   3.614   8.028 -1.4017 -0.9204 -0.9703
    2CHL1    C3   75   3.296   2.643   9.370 -0.7786 -0.5516 -0.2673
    2CHL1    H3   76   3.197   2.598   9.349 -0.8121 -0.4855 -0.2507
    2CHL1    O3   77   3.312   2.652   9.512  0.4007 -0.7982 -0.0164
    2CHL1   H3'   78   3.285   2.741   9.535 -0.1118 -0.4246 -1.9468
    2CHL1    C4   79   3.419   2.570   9.315  0.4808  0.0561  0.0482
    2CHL1   H4A   80   3.516   2.615   9.342  0.8033 -0.2983 -0.4934
    2CHL1   H4B   81   3.408   2.470   9.361 -1.6276 -0.2255 -0.9222
    2CHL1    C5   82   3.403   2.556   9.162 -0.1047 -1.0436  0.0979
    2CHL1    C6   83   3.392   2.444   9.094 -0.1346 -0.5285 -0.2853
    2CHL1    H6   84   3.386   2.346   9.142 -1.5491 -2.0905 -3.3815
    2CHL1    C7   85   3.393   2.435   8.947  0.1056 -0.5235  0.5311
    2CHL1   H7A   86   3.453   2.342   8.933  0.9397  0.0304  0.3151
    2CHL1   H7B   87   3.290   2.407   8.916  0.8447 -1.6834 -1.0183
    2CHL1    C8   88   3.444   2.559   8.878 -0.1805  0.0667 -0.3929
    2CHL1    H8   89   3.553   2.565   8.900 -0.4948  0.2496  1.2430
    2CHL1   C14   90   3.410   2.554   8.724  0.1268 -0.5710 -1.3124
    2CHL1   H14   91   3.299   2.549   8.720  0.1594 -1.5509 -1.1700
    2CHL1   C15   92   3.469   2.431   8.642  0.0605 -0.4857 -1.2646
    2CHL1  H15A   93   3.570   2.401   8.676 -0.3071  0.8937  1.3352
    2CHL1  H15B   94   3.414   2.336   8.660  2.3961 -1.8333 -0.8977
    2CHL1   C16   95   3.471   2.490   8.504  0.2638  0.7442  0.0658
    2CHL1  H16A   96   3.576   2.486   8.468  0.3081 -0.7499  0.3136
    2CHL1  H16B   97   3.402   2.437   8.435  1.1633 -1.2354  0.6165
    2CHL1   C17   98   3.426   2.637   8.512  0.0594  0.1002 -0.2448
    2CHL1   H17   99   3.315   2.643   8.516  0.0086 -0.9161  0.1735
    2CHL1   C13  100   3.460   2.676   8.651  0.2910  0.0927  0.0628
    2CHL1   C18  101   3.611   2.691   8.667 -0.0649  0.2699  0.2084
    2CHL1  H18A  102   3.642   2.718   8.770 -0.2804  1.1222  0.0589
    2CHL1  H18B  103   3.681   2.620   8.618 -0.4326 -0.2830  0.4819
    2CHL1  H18C  104   3.629   2.781   8.605  1.3184  0.3645  0.7224
    2CHL1   C12  105   3.388   2.803   8.709 -0.1112  0.5896 -0.3946
    2CHL1  H12A  106   3.410   2.896   8.652  0.4103  0.6798 -0.0603
    2CHL1  H12B  107   3.278   2.793   8.702 -0.4845  3.4715  0.2025
    2CHL1   C11  108   3.418   2.820   8.863  0.5784 -0.2150  0.1778
    2CHL1  H11A  109   3.526   2.844   8.873  0.3078  0.7019  1.0630
    2CHL1  H11B  110   3.352   2.904   8.895 -3.5181 -2.7746 -0.7774
    2CHL1    C9  111   3.381   2.694   8.946  0.2406  0.4440  0.1720
    2CHL1    H9  112   3.272   2.677   8.930  0.5394 -1.3474 -0.1521
    2CHL1   C10  113   3.415   2.696   9.098  1.1769 -0.5785  0.4542
    2CHL1   C19  114   3.565   2.745   9.122  0.2356  0.1085 -0.1671
    2CHL1  H19A  115   3.625   2.659   9.084  0.0337  0.9465 -2.6028
    2CHL1  H19B  116   3.586   2.833   9.057  0.0549  0.6683  0.5192
    2CHL1  H19C  117   3.584   2.766   9.229  1.8996 -0.2039 -0.3767
    2CHL1    C1  118   3.313   2.793   9.159  0.8332  0.1378 -0.0552
    2CHL1   H1A  119   3.334   2.897   9.127 -0.9781  0.7784  0.7520
    2CHL1   H1B  120   3.216   2.753   9.123  0.4803 -0.8600  1.8560
    2CHL1    C2  121   3.308   2.788   9.315 -0.9902  0.0150 -0.5556
    2CHL1   H2A  122   3.229   2.856   9.352 -0.9046 -0.7902  1.2365
    2CHL1   H2B  123   3.407   2.822   9.351  0.0240 -0.1201 -2.9974
    2CHL1   C20  124   3.466   2.718   8.389  0.0846 -0.8085 -0.5200
    2CHL1   H20  125   3.577   2.717   8.392  0.0642 -1.3416  1.9027
    2CHL1   C21  126   3.433   2.876   8.394 -0.1421 -0.2394 -0.0125
    2CHL1  H21A  127   3.325   2.884   8.415  0.4942  1.7898  3.2798
    2CHL1  H21B  128   3.460   2.929   8.300  1.4936 -0.2293  0.4251
    2CHL1  H21C  129   3.490   2.926   8.476 -0.6634 -0.6693  0.6212
    2CHL1   C22  130   3.413   2.636   8.263 -0.6579  0.2865 -0.3160
    2CHL1  H22A  131   3.461   2.536   8.262  0.2050  0.6964 -0.5593
    2CHL1  H22B  132   3.304   2.631   8.284 -0.8750  4.0900  0.1116
    2CHL1   C23  133   3.433   2.701   8.128  0.3885  0.4022 -0.1999
    2CHL1  H23A  134   3.375   2.649   8.048 -0.9118  1.4089  0.0421
    2CHL1  H23B  135   3.392   2.805   8.134  0.6458  0.5555 -0.9900
    2CHL1   C24  136   3.573   2.711   8.086  0.5101  0.0430  0.6512
    2CHL1  H24A  137   3.639   2.754   8.165  1.2147  0.4237 -0.1293
    2CHL1  H24B  138   3.611   2.612   8.054 -0.2844 -0.0772  0.0483
    2CHL1   C25  139   3.597   2.800   7.960 -0.8102 -0.3389 -0.7951
    2CHL1   H25  140   3.551   2.900   7.975 -1.2101 -0.6125 -0.1251
    2CHL1   C26  141   3.749   2.795   7.945  0.6234 -0.4741  0.3323
    2CHL1  H26A  142   3.776   2.840   8.043 -1.9818 -0.6881  1.2222
    2CHL1  H26B  143   3.796   2.694   7.945 -0.5951 -1.0565  0.5692
    2CHL1  H26C  144   3.794   2.852   7.861 -2.4488 -1.3266 -2.0820
    2CHL1   C27  145   3.536   2.744   7.837  0.4100 -0.3277  0.0016
    2CHL1  H27A  146   3.426   2.735   7.844  0.4288 -0.2581  0.3742
    2CHL1  H27B  147   3.576   2.798   7.748  1.0196 -0.0334  0.4459
    2CHL1  H27C  148   3.583   2.644   7.830 -0.2292 -0.5962 -0.6554
    3CHL1    C3  149   5.533   2.770   9.326 -0.4901 -0.2427 -0.2500
    3CHL1    H3  150   5.501   2.663   9.329 -1.9432  0.1612 -0.4582
    3CHL1    O3  151   5.601   2.802   9.448  0.0107  0.8356  0.0267
    3CHL1   H3'  152   5.686   2.758   9.441  1.2712  3.3100 -1.9481
    3CHL1    C4  153   5.615   2.803   9.203  0.4173  0.0126  0.0374
    3CHL1   H4A  154   5.642   2.911   9.201  1.1369 -0.1376  1.0392
    3CHL1   H4B  155   5.712   2.749   9.202  2.0737  2.6621  2.5212
    3CHL1    C5  156   5.536   2.774   9.078 -0.5502 -0.3482 -0.4415
    3CHL1    C6  157   5.578   2.676   9.000 -0.4543  0.3631  0.1453
    3CHL1    H6  158   5.671   2.621   9.017  0.0496  1.1489 -0.0260
    3CHL1    C7  159   5.505   2.630   8.879 -0.1131 -0.8281 -0.5700
    3CHL1   H7A  160   5.573   2.607   8.794 -1.8666  0.0237 -2.3057
    3CHL1   H7B  161   5.438   2.546   8.907  0.9548 -1.2670  0.7195
    3CHL1    C8  162   5.394   2.738   8.838 -0.4675  0.8721  0.2440
    3CHL1    H8  163   5.440   2.832   8.800  3.0562 -0.4996  0.7082
    3CHL1   C14  164   5.309   2.666   8.733 -0.3522 -0.3199  0.2230
    3CHL1   H14  165   5.268   2.573   8.779 -1.8547  0.3867  0.3810
    3CHL1   C15  166   5.386   2.625   8.606  0.7427  0.0738  0.3124
    3CHL1  H15A  167   5.467   2.700   8.594  0.1624  0.4099 -1.9951
    3CHL1  H15B  168   5.437   2.527   8.622  1.1626  0.5031  1.6927
    3CHL1   C16  169   5.284   2.610   8.490  0.4551  0.9163  0.4050
    3CHL1  H16A  170   5.320   2.669   8.404  1.4072 -1.8554 -1.2454
    3CHL1  H16B  171   5.257   2.507   8.458 -2.2351  1.9911 -1.1444
    3CHL1   C17  172   5.150   2.659   8.555 -0.2966 -0.2888 -0.2016
    3CHL1   H17  173   5.101   2.568   8.596 -0.4583  0.7671  2.1553
    3CHL1   C13  174   5.186   2.743   8.685  0.0803  0.2306  0.2278
    3CHL1   C18  175   5.222   2.875   8.629 -0.3210 -0.8838  0.6939
    3CHL1  H18A  176   5.296   2.875   8.545 -0.9364 -0.2228  0.1411
    3CHL1  H18B  177   5.135   2.925   8.582  0.8958 -0.9384 -1.7847
    3CHL1  H18C  178   5.267   2.945   8.702  0.1190  0.1246 -0.4965
    3CHL1   C12  179   5.097   2.761   8.808 -1.3218  0.4080  0.5304
    3CHL1  H12A  180   5.012   2.825   8.776 -0.9780  0.4298 -0.3839
    3CHL1  H12B  181   5.062   2.659   8.834  2.7642 -1.5396 -0.7844
    3CHL1   C11  182   5.176   2.833   8.929  0.2192 -0.4926 -0.3472
    3CHL1  H11A  183   5.182   2.940   8.900  3.0016 -0.6042 -0.4569
    3CHL1  H11B  184   5.122   2.834   9.026  0.4170  0.7795 -0.2373
    3CHL1    C9  185   5.315   2.777   8.963  0.0775  0.3692  0.2497
    3CHL1    H9  186   5.285   2.679   9.007 -1.9331 -0.0263 -1.8381
    3CHL1   C10  187   5.400   2.843   9.068  0.1617 -0.3370 -0.1114
    3CHL1   C19  188   5.435   2.988   9.030  0.1518  0.0777 -0.0266
    3CHL1  H19A  189   5.508   3.039   9.098 -0.7121  0.9193  0.2910
    3CHL1  H19B  190   5.485   2.999   8.931  1.7033  1.1235  0.8249
    3CHL1  H19C  191   5.343   3.050   9.026 -0.8135 -1.3365 -0.5089
    3CHL1    C1  192   5.318   2.842   9.202 -0.4096 -0.3263  0.0898
    3CHL1   H1A  193   5.232   2.913   9.196  0.0891  0.3490  0.7941
    3CHL1   H1B  194   5.270   2.742   9.205 -1.9146  0.3597  0.0478
    3CHL1    C2  195   5.408   2.855   9.329 -0.0684  0.1615  0.2259
    3CHL1   H2A  196   5.345   2.832   9.418 -1.4615  0.0077 -0.7624
    3CHL1   H2B  197   5.432   2.963   9.342  2.5349 -0.2140 -0.8952
    3CHL1   C20  198   5.056   2.715   8.444 -0.3147 -0.1119  0.1547
    3CHL1   H20  199   5.104   2.806   8.402 -1.2484  0.7409  0.8751
    3CHL1   C21  200   4.923   2.745   8.518  0.0565 -0.1910 -0.7368
    3CHL1  H21A  201   4.892   2.667   8.592 -0.9426  0.9932  0.1342
    3CHL1  H21B  202   4.843   2.754   8.442  0.8694 -0.5948 -1.6622
    3CHL1  H21C  203   4.922   2.839   8.577  2.2635  0.1586 -1.1847
    3CHL1   C22  204   5.039   2.614   8.327 -0.3077 -0.2471 -0.1981
    3CHL1  H22A  205   5.133   2.602   8.270 -0.3723 -2.3900  0.0827
    3CHL1  H22B  206   5.017   2.516   8.374 -0.6451 -0.1182 -0.0806
    3CHL1   C23  207   4.928   2.644   8.225  0.3352 -0.5462 -0.1642
    3CHL1  H23A  208   4.830   2.620   8.273  1.3850 -1.7522  1.4615
    3CHL1  H23B  209   4.930   2.753   8.202 -0.9887 -0.6740 -1.0195
    3CHL1   C24  210   4.931   2.554   8.105  0.4779 -1.0083  0.5847
    3CHL1  H24A  211   5.025   2.580   8.052 -0.1032  3.7851  1.4788
    3CHL1  H24B  212   4.932   2.452   8.149 -0.6096 -1.1081  0.3843
    3CHL1   C25  213   4.802   2.564   8.015  0.9123 -0.3269 -0.6507
    3CHL1   H25  214   4.712   2.535   8.074 -0.0237 -2.6190 -3.0205
    3CHL1   C26  215   4.787   2.705   7.966 -0.1673  0.2941 -0.8480
    3CHL1  H26A  216   4.688   2.719   7.916 -1.7828 -2.7232  1.2264
    3CHL1  H26B  217   4.787   2.765   8.059 -0.7334  0.1183 -0.7312
    3CHL1  H26C  218   4.866   2.737   7.895 -0.2146  0.1364 -0.9717
    3CHL1   C27  219   4.810   2.464   7.892  1.0199  0.0474 -0.3803
    3CHL1  H27A  220   4.910   2.463   7.844  1.9261 -0.9194  1.4053
    3CHL1  H27B  221   4.782   2.364   7.930  0.3286  0.1488 -0.6177
    3CHL1  H27C  222   4.742   2.499   7.812  1.2724 -2.8723 -1.9827
    4CHL1    C3  223   5.179   3.252   9.108 -0.0412 -0.3609  0.9579
    4CHL1    H3  224   5.152   3.153   9.065  0.6708 -1.0620  2.0663
    4CHL1    O3  225   5.236   3.233   9.236  0.2132 -0.1617 -0.0038
    4CHL1   H3'  226   5.168   3.237   9.304  0.5713 -0.3839  0.3778
    4CHL1    C4  227   5.273   3.329   9.014  0.5602  0.6431  0.0042
    4CHL1   H4A  228   5.291   3.427   9.063 -0.2866  1.1744 -0.7050
    4CHL1   H4B  229   5.371   3.278   9.017  1.2989  1.8792 -1.4564
    4CHL1    C5  230   5.208   3.339   8.874 -0.4580 -0.1485 -0.3992
    4CHL1    C6  231   5.268   3.297   8.764 -0.2168 -0.0861  1.0624
    4CHL1    H6  232   5.365   3.245   8.776 -0.9229 -1.2636  1.8517
    4CHL1    C7  233   5.224   3.322   8.625  0.2870  0.1574 -0.0202
    4CHL1   H7A  234   5.303   3.341   8.549 -0.9998 -2.0377 -2.0321
    4CHL1   H7B  235   5.185   3.224   8.589  2.6514 -0.7587 -0.2975
    4CHL1    C8  236   5.112   3.429   8.622  0.3400  0.0239  0.3046
    4CHL1    H8  237   5.153   3.533   8.625 -0.9999  0.5765  0.3544
    4CHL1   C14  238   5.040   3.431   8.485 -0.8310 -0.0131 -0.7944
    4CHL1   H14  239   4.988   3.333   8.476 -0.8124 -0.0879 -0.1266
    4CHL1   C15  240   5.132   3.434   8.357 -0.2379  0.9127  0.3620
    4CHL1  H15A  241   5.220   3.502   8.367 -0.5236  1.6330 -1.6680
    4CHL1  H15B  242   5.172   3.330   8.350 -0.8212  0.5506  1.9980
    4CHL1   C16  243   5.031   3.477   8.250 -1.1792 -0.7101 -0.5942
    4CHL1  H16A  244   5.071   3.568   8.201 -1.3002  0.2000  0.9457
    4CHL1  H16B  245   5.018   3.399   8.171  1.8116 -1.2509 -0.6681
    4CHL1   C17  246   4.896   3.507   8.313  0.6665 -0.7169  0.1752
    4CHL1   H17  247   4.834   3.415   8.301  1.7176 -1.6180  1.2991
    4CHL1   C13  248   4.926   3.534   8.467 -0.5713  0.1020  0.0902
    4CHL1   C18  249   4.984   3.674   8.473  0.8055 -0.9137 -0.3362
    4CHL1  H18A  250   4.898   3.740   8.444  0.6931 -1.1325 -0.5020
    4CHL1  H18B  251   5.016   3.703   8.575 -0.5424 -0.2197 -0.0787
    4CHL1  H18C  252   5.073   3.694   8.410 -1.5961  0.8307 -3.5257
    4CHL1   C12  253   4.824   3.503   8.579 -0.0164  0.1971  0.0524
    4CHL1  H12A  254   4.748   3.583   8.577  0.7430  0.9339 -1.5863
    4CHL1  H12B  255   4.781   3.403   8.555  0.3702  0.2570 -0.9364
    4CHL1   C11  256   4.883   3.498   8.724  0.1121 -0.0448 -0.2465
    4CHL1  H11A  257   4.904   3.603   8.753  1.0279 -0.5807  1.1287
    4CHL1  H11B  258   4.799   3.469   8.790  0.7383 -0.5269  0.3443
    4CHL1    C9  259   5.007   3.409   8.740 -0.6756 -0.0542  0.3438
    4CHL1    H9  260   4.964   3.307   8.726 -0.4579  0.2032 -3.2247
    4CHL1   C10  261   5.079   3.421   8.873 -0.9899  0.0497 -1.0450
    4CHL1   C19  262   5.102   3.570   8.921 -0.0643  0.0640  1.3594
    4CHL1  H19A  263   5.010   3.630   8.933 -1.4630 -2.0020  1.4534
    4CHL1  H19B  264   5.138   3.568   9.026 -0.4940 -1.0567  1.4985
    4CHL1  H19C  265   5.178   3.619   8.856 -0.4486 -0.6160  0.3664
    4CHL1    C1  266   4.982   3.351   8.976  0.7459 -0.0547  0.3685
    4CHL1   H1A  267   4.890   3.413   8.983 -0.6731 -1.7532 -1.9316
    4CHL1   H1B  268   4.957   3.248   8.944  0.5793  0.3340 -0.7888
    4CHL1    C2  269   5.041   3.332   9.118  1.2443  0.0575 -0.7254
    4CHL1   H2A  270   4.974   3.265   9.176 -1.4692  1.5842 -1.9011
    4CHL1   H2B  271   5.069   3.431   9.160  0.9350 -0.3391  0.4538
    4CHL1   C20  272   4.820   3.616   8.241  0.1312 -0.2924 -0.1881
    4CHL1   H20  273   4.876   3.712   8.249  2.4005 -1.6969  3.3438
    4CHL1   C21  274   4.685   3.636   8.311 -0.3156  0.2931 -0.6616
    4CHL1  H21A  275   4.626   3.712   8.255 -0.5766  0.5413 -0.0673
    4CHL1  H21B  276   4.703   3.680   8.412  1.4300 -1.1507 -0.3036
    4CHL1  H21C  277   4.624   3.543   8.321 -1.6551  1.4006  3.3289
    4CHL1   C22  278   4.805   3.584   8.083  0.1963  0.0505  0.5140
    4CHL1  H22A  279   4.900   3.614   8.034 -0.2903 -0.5612 -0.8769
    4CHL1  H22B  280   4.786   3.474   8.073  0.6713 -0.1327  1.4896
    4CHL1   C23  281   4.693   3.658   8.002 -0.4324  0.2346 -0.2596
    4CHL1  H23A  282   4.688   3.610   7.902  0.2576  1.2778 -0.8225
    4CHL1  H23B  283   4.593   3.652   8.050 -0.4067  2.4723  0.2035
    4CHL1   C24  284   4.729   3.802   7.972  0.4946  0.2866  0.8710
    4CHL1  H24A  285   4.773   3.856   8.058  1.2764  2.0703 -0.5772
    4CHL1  H24B  286   4.810   3.798   7.895  0.1280 -1.3303  0.5437
    4CHL1   C25  287   4.608   3.887   7.930  0.1891  0.2295  0.2569
    4CHL1   H25  288   4.533   3.886   8.012 -0.9735 -0.6858 -0.7910
    4CHL1   C26  289   4.650   4.031   7.892  0.1259  0.0038  0.3608
    4CHL1  H26A  290   4.731   4.076   7.954  0.3136 -0.7261  0.6517
    4CHL1  H26B  291   4.685   4.022   7.787  1.3945 -2.6286  0.9404
    4CHL1  H26C  292   4.561   4.098   7.888  0.3104  0.2284 -0.1986
    4CHL1   C27  293   4.528   3.825   7.810  0.2083  0.4487 -0.2072
    4CHL1  H27A  294   4.510   3.715   7.818 -0.1315  0.4114 -1.3800
    4CHL1  H27B  295   4.428   3.872   7.805 -0.6573 -0.9946  1.8863
    4CHL1  H27C  296   4.579   3.847   7.714 -0.8176  1.4418 -0.5519
    5CHL1    C3  297   4.913   2.402   9.397 -0.0673  0.3541  0.0204
    5CHL1    H3  298   4.838   2.323   9.418  1.7545 -1.3068  0.6671
    5CHL1    O3  299   4.901   2.483   9.513  0.5163 -0.5885  0.1247
    5CHL1   H3'  300   4.918   2.415   9.579 -0.3356 -1.9408 -0.9808
    5CHL1    C4  301   5.056   2.354   9.382 -0.3419 -0.2141 -0.1897
    5CHL1   H4A  302   5.131   2.436   9.377  1.1106 -1.2528  2.4033
    5CHL1   H4B  303   5.079   2.298   9.475 -0.1449  2.2883  1.3430
    5CHL1    C5  304   5.069   2.275   9.261  0.0679 -0.6879  0.6543
    5CHL1    C6  305   5.108   2.151   9.264  0.0390  0.1027 -0.8866
    5CHL1    H6  306   5.147   2.109   9.358  1.3783 -0.3358 -1.6175
    5CHL1    C7  307   5.135   2.069   9.141  0.0262 -0.0034  0.3769
    5CHL1   H7A  308   5.229   2.016   9.167  1.1783  1.1227 -1.2942
    5CHL1   H7B  309   5.050   1.999   9.130 -0.2974  0.5363 -0.6493
    5CHL1    C8  310   5.140   2.156   9.009 -0.5401 -0.4237 -0.4386
    5CHL1    H8  311   5.242   2.200   9.002 -0.1561 -1.5098 -2.9911
    5CHL1   C14  312   5.126   2.069   8.883  0.6245 -0.1495  0.3239
    5CHL1   H14  313   5.021   2.036   8.900 -0.1063  3.3501  3.9659
    5CHL1   C15  314   5.212   1.947   8.864 -0.0258 -0.4540  0.4852
    5CHL1  H15A  315   5.318   1.978   8.878  0.5723 -0.9395 -2.3802
    5CHL1  H15B  316   5.192   1.869   8.941 -3.6344  0.7879  0.9713
    5CHL1   C16  317   5.197   1.909   8.718 -0.4919  0.0603 -0.8403
    5CHL1  H16A  318   5.296   1.908   8.666 -1.0164  1.4445 -1.9203
    5CHL1  H16B  319   5.149   1.811   8.701 -2.3266  1.1998 -2.6901
    5CHL1   C17  320   5.123   2.021   8.654 -0.3673 -0.9076  0.3333
    5CHL1   H17  321   5.016   1.991   8.658 -1.0988  1.1166 -1.7105
    5CHL1   C13  322   5.129   2.140   8.750  0.1947  0.1098  0.7400
    5CHL1   C18  323   5.269   2.199   8.730 -0.4524  0.1826  0.2207
    5CHL1  H18A  324   5.351   2.124   8.732  2.2232  2.8745 -0.5501
    5CHL1  H18B  325   5.277   2.252   8.633 -1.5786  0.7325  0.4095
    5CHL1  H18C  326   5.292   2.271   8.812 -0.5793 -0.1638  0.5645
    5CHL1   C12  327   5.022   2.252   8.746 -0.3390 -0.2094  0.6117
    5CHL1  H12A  328   5.043   2.317   8.658  1.2588 -0.9172  0.4406
    5CHL1  H12B  329   4.927   2.196   8.737  0.6703 -1.7966 -0.8074
    5CHL1   C11  330   5.013   2.342   8.875 -0.4924  0.4589  1.0815
    5CHL1  H11A  331   5.106   2.402   8.867 -0.6166  0.3893 -1.6529
    5CHL1  H11B  332   4.917   2.399   8.874 -1.0443 -0.4676 -0.3038
    5CHL1    C9  333   5.030   2.263   9.006 -1.0008 -0.3713 -0.2104
    5CHL1    H9  334   4.934   2.210   9.017 -1.1801  0.0895  0.4632
    5CHL1   C10  335   5.038   2.358   9.130  0.4834 -0.0466  0.2015
    5CHL1   C19  336   5.134   2.474   9.111  0.0685  0.8477 -1.4418
    5CHL1  H19A  337   5.122   2.556   9.185  0.9822 -0.0176 -0.2875
    5CHL1  H19B  338   5.239   2.439   9.122 -0.4206 -0.7396 -1.5821
    5CHL1  H19C  339   5.129   2.524   9.012 -1.5970  1.1167 -1.2376
    5CHL1    C1  340   4.894   2.419   9.143 -0.7471 -0.9473  0.5005
    5CHL1   H1A  341   4.878   2.489   9.059 -1.1561 -1.6988 -0.0621
    5CHL1   H1B  342   4.813   2.343   9.131 -1.3551  0.1464 -4.4235
    5CHL1    C2  343   4.874   2.492   9.276 -0.5613  0.2369 -0.0887
    5CHL1   H2A  344   4.765   2.509   9.291 -0.0813  1.1812  2.9016
    5CHL1   H2B  345   4.921   2.592   9.264  0.7754 -0.3128  0.4797
    5CHL1   C20  346   5.151   2.044   8.504  0.4377  0.2759 -0.3535
    5CHL1   H20  347   5.257   2.074   8.491  0.7675 -0.7569 -0.1411
    5CHL1   C21  348   5.062   2.152   8.456 -0.0862 -0.0567 -0.2015
    5CHL1  H21A  349   5.093   2.255   8.483 -1.6058  1.0340 -2.3969
    5CHL1  H21B  350   4.958   2.144   8.493  0.5633  0.4873  1.9180
    5CHL1  H21C  351   5.069   2.147   8.345 -0.9929  0.0975 -0.2685
    5CHL1   C22  352   5.127   1.910   8.422  0.9873 -0.4735 -0.0044
    5CHL1  H22A  353   5.183   1.830   8.474  2.4744  0.2277 -0.4640
    5CHL1  H22B  354   5.019   1.889   8.413  0.8849  0.3361 -0.7802
    5CHL1   C23  355   5.192   1.924   8.281 -0.1302  0.1299  0.3142
    5CHL1  H23A  356   5.195   2.028   8.242  0.5656  1.3667  3.3811
    5CHL1  H23B  357   5.296   1.894   8.301 -0.7552 -3.7901 -1.4590
    5CHL1   C24  358   5.125   1.833   8.168 -0.9738 -0.6300 -0.2787
    5CHL1  H24A  359   5.145   1.730   8.204 -1.2252 -0.5567  0.0840
    5CHL1  H24B  360   5.016   1.854   8.174 -0.4129  2.7626  0.1162
    5CHL1   C25  361   5.174   1.849   8.019 -0.4192  0.1268 -0.3864
    5CHL1   H25  362   5.104   1.790   7.956 -1.0200 -0.0691  0.4423
    5CHL1   C26  363   5.159   1.994   7.980 -0.3605 -0.5425  0.5462
    5CHL1  H26A  364   5.063   2.028   8.025 -0.5001  1.4101 -1.0693
    5CHL1  H26B  365   5.243   2.059   8.012  1.3453 -1.8155 -1.1521
    5CHL1  H26C  366   5.161   1.999   7.869 -1.1241  1.3113  0.5805
    5CHL1   C27  367   5.315   1.797   7.995  0.4026 -0.7076  0.5911
    5CHL1  H27A  368   5.328   1.796   7.885 -1.7902  3.6414  0.0847
    5CHL1  H27B  369   5.390   1.867   8.036  0.0190  0.7408 -1.0888
    5CHL1  H27C  370   5.325   1.695   8.039  4.0365 -0.4101  0.7276
    6CHL1    C3  371   2.647   6.105   9.141 -0.2412 -0.1513  0.3405
    6CHL1    H3  372   2.648   5.995   9.129 -1.6518 -0.2552  1.0000
    6CHL1    O3  373   2.601   6.127   9.279 -0.9228 -0.5298  0.2178
    6CHL1   H3'  374   2.682   6.147   9.326 -1.2975 -1.8784  1.5218
    6CHL1    C4  375   2.793   6.155   9.126  0.5161  0.1474 -0.7230
    6CHL1   H4A  376   2.815   6.257   9.164  3.7546 -1.5712  2.7469
    6CHL1   H4B  377   2.865   6.090   9.181  0.0335  0.2248  0.0198
    6CHL1    C5  378   2.840   6.158   8.977 -0.1410  0.2685  0.4065
    6CHL1    C6  379   2.958   6.105   8.935  0.1964 -0.4032 -0.6538
    6CHL1    H6  380   3.016   6.047   9.009 -0.8977  0.1004  0.6500
    6CHL1    C7  381   3.009   6.104   8.795  0.0111  0.0462  0.1370
    6CHL1   H7A  382   3.116   6.133   8.796 -0.2490  1.1088  1.8983
    6CHL1   H7B  383   2.991   6.003   8.753  0.1160  0.4077 -0.8045
    6CHL1    C8  384   2.937   6.197   8.697 -0.2108  0.2426  0.4426
    6CHL1    H8  385   2.961   6.303   8.716 -1.5304  0.7323 -0.4691
    6CHL1   C14  386   2.972   6.169   8.550  0.0415  0.2821  0.3644
    6CHL1   H14  387   2.940   6.063   8.536  0.6920  0.2030 -0.5910
    6CHL1   C15  388   3.112   6.165   8.497  0.0944  0.4777 -0.2534
    6CHL1  H15A  389   3.184   6.237   8.542  1.7363 -0.8825 -0.5808
    6CHL1  H15B  390   3.157   6.067   8.526 -2.5949 -0.1782  2.1927
    6CHL1   C16  391   3.097   6.184   8.348 -0.4523  0.0922 -0.4810
    6CHL1  H16A  392   3.144   6.280   8.320  1.3590 -1.2196 -2.1808
    6CHL1  H16B  393   3.146   6.103   8.291 -0.4436  1.2364 -2.1521
    6CHL1   C17  394   2.942   6.189   8.322 -0.1117  0.0520 -0.0754
    6CHL1   H17  395   2.904   6.084   8.327 -0.0283  0.0209 -0.0923
    6CHL1   C13  396   2.895   6.253   8.449  0.3646 -0.3519  0.3244
    6CHL1   C18  397   2.933   6.408   8.456  0.0451  0.2328 -0.5497
    6CHL1  H18A  398   3.042   6.419   8.434  0.1723 -0.3007 -0.2333
    6CHL1  H18B  399   2.878   6.474   8.386 -0.9337  1.7150  1.4867
    6CHL1  H18C  400   2.910   6.441   8.560  1.5979  1.7120 -0.6264
    6CHL1   C12  401   2.742   6.227   8.478  0.0979  0.1499  0.3488
    6CHL1  H12A  402   2.676   6.288   8.412  0.8662  2.2069  1.3804
    6CHL1  H12B  403   2.721   6.119   8.468 -1.7956  0.6467 -2.0630
    6CHL1   C11  404   2.702   6.272   8.623  0.2929 -0.6114 -0.4253
    6CHL1  H11A  405   2.727   6.379   8.636  0.7941 -0.8370  0.5605
    6CHL1  H11B  406   2.596   6.249   8.646  0.6152 -3.0086 -0.9942
    6CHL1    C9  407   2.783   6.185   8.719 -0.0110  0.0332 -0.0529
    6CHL1    H9  408   2.750   6.081   8.698 -1.0681  0.1299  0.9909
    6CHL1   C10  409   2.747   6.217   8.868 -0.8868 -0.3563 -0.2239
    6CHL1   C19  410   2.743   6.372   8.892  0.4688  0.4731  0.7932
    6CHL1  H19A  411   2.682   6.433   8.822 -0.2931 -2.7544 -1.6096
    6CHL1  H19B  412   2.707   6.399   8.993 -0.3740  1.6649  0.1943
    6CHL1  H19C  413   2.851   6.395   8.880  1.1865 -2.9195 -0.6432
    6CHL1    C1  414   2.605   6.159   8.895  0.3203 -0.1203 -0.0808
    6CHL1   H1A  415   2.536   6.214   8.828  3.4960  0.1251 -3.4845
    6CHL1   H1B  416   2.598   6.050   8.873  1.2129 -0.0756 -0.6580
    6CHL1    C2  417   2.555   6.181   9.044 -0.1376  0.5125  0.0254
    6CHL1   H2A  418   2.455   6.133   9.046 -0.0695  0.3281  2.7459
    6CHL1   H2B  419   2.555   6.288   9.072 -0.1049  0.3321  0.7378
    6CHL1   C20  420   2.899   6.262   8.193  0.9392  0.5665 -0.0874
    6CHL1   H20  421   2.881   6.369   8.216  0.0861 -0.0494  2.4965
    6CHL1   C21  422   2.766   6.201   8.144 -0.3833 -0.5160  0.7893
    6CHL1  H21A  423   2.782   6.113   8.078 -1.6376 -1.7358  2.0632
    6CHL1  H21B  424   2.698   6.274   8.096  0.2386  1.8366  3.2510
    6CHL1  H21C  425   2.716   6.147   8.227  0.6240 -0.2722  1.5802
    6CHL1   C22  426   3.000   6.263   8.078 -0.4940  0.4687  0.4147
    6CHL1  H22A  427   3.089   6.319   8.113 -0.6002  0.3037  0.9720
    6CHL1  H22B  428   3.034   6.159   8.057 -2.5980 -0.2307  0.1672
    6CHL1   C23  429   2.949   6.312   7.935  0.3409  0.8010 -0.1129
    6CHL1  H23A  430   2.868   6.386   7.952 -1.4436 -1.2371  0.7659
    6CHL1  H23B  431   3.033   6.371   7.893 -1.6217  2.9545 -1.2837
    6CHL1   C24  432   2.909   6.207   7.833 -0.1904  0.0978 -0.5167
    6CHL1  H24A  433   2.988   6.132   7.852 -0.3226  0.1241  0.1706
    6CHL1  H24B  434   2.814   6.160   7.866 -0.8949  2.7592  1.6237
    6CHL1   C25  435   2.908   6.236   7.686 -0.1982  0.2189  0.3648
    6CHL1   H25  436   3.008   6.281   7.666 -0.5920  0.8545 -0.1733
    6CHL1   C26  437   2.883   6.109   7.599  0.3552 -0.5511 -0.6265
    6CHL1  H26A  438   2.773   6.100   7.587  0.0308  1.7923  0.1109
    6CHL1  H26B  439   2.931   6.120   7.500 -0.4701 -0.1851 -0.9954
    6CHL1  H26C  440   2.931   6.017   7.641 -0.6797 -1.1036 -0.6184
    6CHL1   C27  441   2.801   6.347   7.657  0.7824  0.4851 -0.3260
    6CHL1  H27A  442   2.700   6.309   7.683  0.8413  1.1176  0.9130
    6CHL1  H27B  443   2.821   6.443   7.708  1.4267  0.5763 -0.7353
    6CHL1  H27C  444   2.801   6.372   7.549  0.3728  0.9454 -0.2207
    7CHL1    C3  445   4.688   1.507   9.468 -0.4407 -0.4973 -0.0135
    7CHL1    H3  446   4.771   1.438   9.443  0.2082  0.3524 -0.2502
    7CHL1    O3  447   4.676   1.513   9.608  0.4300 -0.0779 -0.1460
    7CHL1   H3'  448   4.635   1.428   9.630  1.8476 -0.1364  2.8116
    7CHL1    C4  449   4.741   1.637   9.405 -0.3475  0.1474  0.1185
    7CHL1   H4A  450   4.680   1.727   9.429  0.5045  0.1410  2.5832
    7CHL1   H4B  451   4.843   1.656   9.445 -1.4650 -0.3415  3.4588
    7CHL1    C5  452   4.748   1.632   9.255 -0.2664  0.2706  0.2098
    7CHL1    C6  453   4.861   1.673   9.194  1.1083 -0.5680  0.1964
    7CHL1    H6  454   4.943   1.713   9.255  0.7538  0.0199  0.2978
    7CHL1    C7  455   4.878   1.687   9.046  0.5075  0.2641 -0.1263
    7CHL1   H7A  456   4.926   1.783   9.016 -0.9897  1.3448  0.7570
    7CHL1   H7B  457   4.954   1.610   9.024  0.1859  0.3820 -1.8031
    7CHL1    C8  458   4.758   1.646   8.954  0.5434 -0.1396  0.3074
    7CHL1    H8  459   4.706   1.743   8.943 -0.3418 -0.6564 -0.2153
    7CHL1   C14  460   4.793   1.594   8.816  0.0029 -0.2855  0.0329
    7CHL1   H14  461   4.854   1.503   8.832 -0.3378 -0.7867 -1.3918
    7CHL1   C15  462   4.883   1.680   8.725 -0.6609  0.3489 -0.5174
    7CHL1  H15A  463   4.839   1.781   8.709 -1.7617 -0.1965 -1.0410
    7CHL1  H15B  464   4.989   1.676   8.758 -0.7360  0.2923 -0.2889
    7CHL1   C16  465   4.875   1.610   8.585 -0.2170 -0.1865  0.0243
    7CHL1  H16A  466   4.836   1.690   8.519  0.4368  1.7582  1.9008
    7CHL1  H16B  467   4.968   1.568   8.543 -1.1217 -0.3687 -1.8995
    7CHL1   C17  468   4.763   1.500   8.604 -0.5762 -0.1355 -0.2577
    7CHL1   H17  469   4.820   1.411   8.640 -1.6440 -1.3919 -1.5597
    7CHL1   C13  470   4.685   1.542   8.728 -0.0495 -0.3265  0.0892
    7CHL1   C18  471   4.594   1.666   8.696 -0.1939  0.2895 -0.0421
    7CHL1  H18A  472   4.506   1.625   8.641  0.1047  0.8567 -0.9633
    7CHL1  H18B  473   4.557   1.722   8.784 -0.2903  1.4172 -0.7786
    7CHL1  H18C  474   4.644   1.741   8.631 -0.4751  0.4905 -0.0280
    7CHL1   C12  475   4.605   1.428   8.799  0.3109 -0.4035  0.3995
    7CHL1  H12A  476   4.521   1.391   8.737 -0.9295 -0.3278  1.9693
    7CHL1  H12B  477   4.677   1.344   8.813 -1.0023 -1.6197  0.0988
    7CHL1   C11  478   4.552   1.480   8.937  0.0942 -0.0457 -0.6788
    7CHL1  H11A  479   4.470   1.555   8.933  1.4455  1.5712  0.4397
    7CHL1  H11B  480   4.511   1.389   8.986  0.4181  0.7688  1.1771
    7CHL1    C9  481   4.671   1.539   9.027  1.3349  0.2826 -0.2179
    7CHL1    H9  482   4.741   1.452   9.030 -0.0284 -0.8303  1.7198
    7CHL1   C10  483   4.625   1.578   9.175 -0.4507  0.0167 -0.1970
    7CHL1   C19  484   4.520   1.692   9.163  0.5511 -0.5238  0.5227
    7CHL1  H19A  485   4.561   1.770   9.097  0.9353 -1.6043 -0.5501
    7CHL1  H19B  486   4.426   1.656   9.115  0.0768  1.1548  0.1138
    7CHL1  H19C  487   4.492   1.736   9.261  1.5135  1.8550 -0.2013
    7CHL1    C1  488   4.571   1.447   9.247 -0.5183 -0.8464 -0.4419
    7CHL1   H1A  489   4.473   1.432   9.197 -0.4702 -2.4283 -0.1269
    7CHL1   H1B  490   4.627   1.354   9.227 -1.1257 -1.4484  0.5567
    7CHL1    C2  491   4.551   1.469   9.400  0.1163  0.7416  0.1074
    7CHL1   H2A  492   4.518   1.375   9.449 -0.1299  0.4789 -0.5561
    7CHL1   H2B  493   4.471   1.543   9.419 -1.1748 -0.6900  0.4464
    7CHL1   C20  494   4.676   1.452   8.482 -0.2857  0.0443 -0.4041
    7CHL1   H20  495   4.568   1.433   8.501 -0.9335 -2.1480 -4.9041
    7CHL1   C21  496   4.721   1.312   8.462 -0.4598  0.0573  0.2731
    7CHL1  H21A  497   4.676   1.263   8.373  1.8477 -0.6551 -0.5757
    7CHL1  H21B  498   4.681   1.247   8.543 -0.6834 -0.2705 -0.0949
    7CHL1  H21C  499   4.831   1.300   8.451  0.0017 -0.7903  4.2131
    7CHL1   C22  500   4.709   1.541   8.360 -0.0282  0.3421 -0.4531
    7CHL1  H22A  501   4.659   1.639   8.372  0.0334  0.5905 -1.9775
    7CHL1  H22B  502   4.818   1.558   8.346 -0.4807  1.0633 -4.2356
    7CHL1   C23  503   4.650   1.480   8.227  0.1409 -0.0664  0.0429
    7CHL1  H23A  504   4.690   1.534   8.138 -2.0253 -0.1925 -1.0642
    7CHL1  H23B  505   4.685   1.379   8.197 -1.3602  0.1038 -2.5346
    7CHL1   C24  506   4.497   1.503   8.227  0.4106  0.3644 -0.2435
    7CHL1  H24A  507   4.461   1.462   8.324  0.3109  0.8893 -0.0542
    7CHL1  H24B  508   4.473   1.611   8.238 -0.9931 -0.0764  1.3197
    7CHL1   C25  509   4.423   1.442   8.109 -0.1467  0.4706 -0.2460
    7CHL1   H25  510   4.470   1.342   8.099 -0.9974 -0.0413  0.6809
    7CHL1   C26  511   4.274   1.410   8.159 -0.7821 -0.2323 -0.2685
    7CHL1  H26A  512   4.220   1.507   8.168 -1.5958 -0.4168 -2.4657
    7CHL1  H26B  513   4.220   1.357   8.078 -1.3550  0.9840 -0.7130
    7CHL1  H26C  514   4.260   1.351   8.252  0.7041 -1.4746 -0.7824
    7CHL1   C27  515   4.435   1.524   7.979  1.2784  0.4857 -0.5184
    7CHL1  H27A  516   4.542   1.551   7.965  1.3847  0.6905  0.5825
    7CHL1  H27B  517   4.392   1.469   7.894 -1.4001 -0.3204  1.2427
    7CHL1  H27C  518   4.368   1.611   7.993  1.1593 -0.0007  2.6976
    8CHL1    C3  519   5.602   3.785   8.920  0.0810 -0.0831  0.1565
    8CHL1    H3  520   5.708   3.753   8.919 -0.4033 -1.7155 -0.3407
    8CHL1    O3  521   5.577   3.822   9.049  0.6583  0.3075 -0.2331
    8CHL1   H3'  522   5.602   3.748   9.105  2.3796  1.5437  0.7310
    8CHL1    C4  523   5.586   3.906   8.823 -0.5609 -0.3664 -0.3807
    8CHL1   H4A  524   5.497   3.971   8.839 -0.9080 -1.2563  1.6387
    8CHL1   H4B  525   5.661   3.979   8.860 -1.5141  1.2004 -1.4207
    8CHL1    C5  526   5.609   3.868   8.678  0.3814 -0.0182  0.4511
    8CHL1    C6  527   5.705   3.923   8.597  0.1203  0.6270 -0.7244
    8CHL1    H6  528   5.776   3.992   8.646  0.0776 -1.3732  2.4647
    8CHL1    C7  529   5.733   3.885   8.453  0.1342  0.4354 -0.5155
    8CHL1   H7A  530   5.763   3.974   8.394  0.3163  0.4385 -0.4166
    8CHL1   H7B  531   5.814   3.810   8.445 -0.0209  0.3701 -1.6482
    8CHL1    C8  532   5.609   3.813   8.393  0.3216  0.6795 -0.0007
    8CHL1    H8  533   5.525   3.884   8.376  0.7402  0.9551 -0.9430
    8CHL1   C14  534   5.648   3.746   8.256 -0.2011  0.4697  0.6518
    8CHL1   H14  535   5.723   3.667   8.274 -1.6135 -1.4071 -1.2559
    8CHL1   C15  536   5.714   3.836   8.145  0.1134  0.3717  0.2614
    8CHL1  H15A  537   5.656   3.931   8.144 -0.3813  0.0829  0.7787
    8CHL1  H15B  538   5.821   3.855   8.168  0.4230  0.0926 -0.8813
    8CHL1   C16  539   5.705   3.749   8.015  0.3342  0.3113  0.2605
    8CHL1  H16A  540   5.661   3.809   7.933  0.7661 -1.2280 -1.1722
    8CHL1  H16B  541   5.810   3.720   7.994 -0.1607 -1.1801 -0.3448
    8CHL1   C17  542   5.612   3.625   8.052 -0.3396  0.0405  0.2565
    8CHL1   H17  543   5.688   3.550   8.081 -0.5812 -0.7322 -1.0101
    8CHL1   C13  544   5.535   3.673   8.188  0.0628 -0.0174 -0.3637
    8CHL1   C18  545   5.417   3.761   8.145  0.2244  0.0176  0.0181
    8CHL1  H18A  546   5.324   3.701   8.153 -0.4294  0.5953 -2.4851
    8CHL1  H18B  547   5.407   3.842   8.221 -1.2454 -0.6253  0.5592
    8CHL1  H18C  548   5.432   3.810   8.046  0.5410  0.3528  0.2296
    8CHL1   C12  549   5.487   3.562   8.286  0.7586 -0.0757 -0.0142
    8CHL1  H12A  550   5.395   3.511   8.251  0.4570  0.5794 -0.2003
    8CHL1  H12B  551   5.564   3.483   8.295  0.3519 -0.7173 -1.7754
    8CHL1   C11  552   5.448   3.620   8.418 -0.0046 -0.0684 -0.0341
    8CHL1  H11A  553   5.358   3.683   8.400 -0.0108 -0.1851 -0.4256
    8CHL1  H11B  554   5.415   3.537   8.485 -0.7857 -0.7260 -1.1988
    8CHL1    C9  555   5.562   3.696   8.492  0.1176 -0.0828  0.2854
    8CHL1    H9  556   5.656   3.637   8.497  3.3677  4.3023 -1.5436
    8CHL1   C10  557   5.523   3.750   8.631  0.9314  0.4603  0.1122
    8CHL1   C19  558   5.377   3.808   8.618  0.3659 -0.5009 -0.1183
    8CHL1  H19A  559   5.344   3.833   8.721 -1.5725 -1.9448 -0.3359
    8CHL1  H19B  560   5.368   3.891   8.545 -0.3212 -0.2938  0.2002
    8CHL1  H19C  561   5.296   3.737   8.591 -2.7765  2.0732  1.9293
    8CHL1    C1  562   5.531   3.632   8.732  0.5541  0.3227  0.3798
    8CHL1   H1A  563   5.459   3.549   8.720  1.3269 -0.3361  0.2031
    8CHL1   H1B  564   5.633   3.588   8.736  0.4554  0.1096  0.5880
    8CHL1    C2  565   5.507   3.674   8.883 -0.4816  0.3696 -0.5732
    8CHL1   H2A  566   5.523   3.584   8.945  0.5232  2.2952  2.1783
    8CHL1   H2B  567   5.398   3.697   8.879 -1.2408 -2.6948  0.1660
    8CHL1   C20  568   5.532   3.563   7.929  0.0006 -0.5540 -0.3812
    8CHL1   H20  569   5.462   3.645   7.901  1.6954  0.8316 -0.7743
    8CHL1   C21  570   5.472   3.437   7.974 -0.4248 -0.3650 -0.5298
    8CHL1  H21A  571   5.389   3.445   8.048  2.7900 -2.0345  3.6672
    8CHL1  H21B  572   5.549   3.372   8.020  1.2344  3.1983  2.2699
    8CHL1  H21C  573   5.446   3.381   7.882 -4.5451 -0.7728  0.6675
    8CHL1   C22  574   5.632   3.532   7.810 -0.0460 -0.1640 -0.0427
    8CHL1  H22A  575   5.694   3.623   7.797 -1.6825  1.1336  0.7646
    8CHL1  H22B  576   5.710   3.457   7.835 -0.3214 -0.3475  0.2849
    8CHL1   C23  577   5.564   3.505   7.672  0.0395  0.3472 -0.0433
    8CHL1  H23A  578   5.521   3.402   7.670 -0.9964  0.7642  0.0462
    8CHL1  H23B  579   5.483   3.580   7.656 -0.4669 -0.6125 -2.3758
    8CHL1   C24  580   5.651   3.524   7.548  0.0847  0.0531  0.5868
    8CHL1  H24A  581   5.685   3.630   7.541 -0.3789  0.1353 -0.5132
    8CHL1  H24B  582   5.741   3.459   7.552  0.7601  0.9382  0.0212
    8CHL1   C25  583   5.559   3.491   7.422  0.5721  0.1383 -0.8993
    8CHL1   H25  584   5.469   3.554   7.412  0.3236 -0.0213  0.1936
    8CHL1   C26  585   5.641   3.513   7.302  0.0293 -0.4399  0.6615
    8CHL1  H26A  586   5.689   3.610   7.276 -1.6184 -0.5179 -3.2368
    8CHL1  H26B  587   5.714   3.431   7.287  1.5140  1.2009 -1.7717
    8CHL1  H26C  588   5.566   3.508   7.221 -1.2480 -1.2274  1.8476
    8CHL1   C27  589   5.499   3.343   7.413  0.1131 -0.1802  0.0230
    8CHL1  H27A  590   5.421   3.331   7.491  1.2599 -0.1316  1.2078
    8CHL1  H27B  591   5.454   3.332   7.312 -0.7420  1.3314  0.2144
    8CHL1  H27C  592   5.576   3.263   7.423  2.3001  1.6372 -1.3832
    9CHL1    C3  593   2.851   6.534   9.256 -0.3444  0.8367 -0.0418
    9CHL1    H3  594   2.783   6.464   9.205  0.6581 -0.2924  0.1189
    9CHL1    O3  595   2.835   6.519   9.397 -0.1213  0.0300  0.6055
    9CHL1   H3'  596   2.901   6.575   9.439  0.1783  0.6799 -0.6663
    9CHL1    C4  597   3.004   6.508   9.227  0.1914 -0.4023 -0.8925
    9CHL1   H4A  598   3.060   6.581   9.289  0.6206 -0.4646 -1.2017
    9CHL1   H4B  599   3.017   6.398   9.241 -0.6815 -0.5480 -1.1910
    9CHL1    C5  600   3.057   6.527   9.082  0.0448 -0.2242  0.2460
    9CHL1    C6  601   3.127   6.443   9.010 -0.6531 -0.0993  0.3365
    9CHL1    H6  602   3.142   6.341   9.049  0.3309 -0.4779 -0.9401
    9CHL1    C7  603   3.179   6.462   8.872 -0.0712 -0.2417  0.3911
    9CHL1   H7A  604   3.283   6.426   8.860 -0.8279 -2.1570 -1.1642
    9CHL1   H7B  605   3.127   6.398   8.797  2.3082  0.7658 -2.2963
    9CHL1    C8  606   3.177   6.612   8.824 -0.4431 -0.2990  0.0460
    9CHL1    H8  607   3.266   6.659   8.871  0.0438 -2.5269  1.5300
    9CHL1   C14  608   3.172   6.617   8.669  0.5502  0.8188 -1.1191
    9CHL1   H14  609   3.088   6.555   8.630  0.4648  0.7223 -0.7837
    9CHL1   C15  610   3.295   6.549   8.611  0.4437  0.5590  0.0828
    9CHL1  H15A  611   3.378   6.589   8.673  1.0639  1.2945 -1.1744
    9CHL1  H15B  612   3.297   6.438   8.608  1.1814  0.5645 -3.0947
    9CHL1   C16  613   3.290   6.598   8.469 -0.3478  0.3252 -0.0873
    9CHL1  H16A  614   3.396   6.624   8.446 -0.0126  0.9793  1.9639
    9CHL1  H16B  615   3.267   6.511   8.405 -2.3106  0.6398  0.1374
    9CHL1   C17  616   3.194   6.721   8.459 -0.1061 -0.3010 -0.0337
    9CHL1   H17  617   3.097   6.687   8.416 -0.1921  0.4277 -0.4383
    9CHL1   C13  618   3.160   6.750   8.606  0.8125 -1.1437 -0.2973
    9CHL1   C18  619   3.268   6.842   8.667  0.0206 -0.2258  0.4914
    9CHL1  H18A  620   3.270   6.848   8.778  0.9237 -0.1266  0.4746
    9CHL1  H18B  621   3.370   6.809   8.637  0.0850  1.2525 -1.1181
    9CHL1  H18C  622   3.256   6.943   8.621  0.2734 -1.3137 -2.1653
    9CHL1   C12  623   3.014   6.800   8.651 -0.4475 -0.7329 -0.4158
    9CHL1  H12A  624   2.994   6.902   8.613  1.4062  0.1142  0.7569
    9CHL1  H12B  625   2.942   6.726   8.610 -1.2268  0.2188 -0.8177
    9CHL1   C11  626   2.994   6.800   8.801  0.0633 -0.8173 -0.0677
    9CHL1  H11A  627   3.067   6.876   8.834  0.2741 -1.3927  0.8288
    9CHL1  H11B  628   2.894   6.835   8.833  0.0110 -0.2934 -0.7775
    9CHL1    C9  629   3.036   6.672   8.869 -0.1340 -0.2568 -0.7474
    9CHL1    H9  630   2.965   6.592   8.839 -0.1977  0.2642 -2.0462
    9CHL1   C10  631   3.009   6.667   9.025  0.1712  0.6503 -0.3585
    9CHL1   C19  632   3.090   6.785   9.093 -0.3046 -0.2624 -0.1846
    9CHL1  H19A  633   3.194   6.788   9.055  0.5478 -0.9574  1.9584
    9CHL1  H19B  634   3.040   6.881   9.067 -2.6002 -1.4229 -0.3109
    9CHL1  H19C  635   3.105   6.789   9.203  1.8200 -2.3408 -0.3201
    9CHL1    C1  636   2.857   6.689   9.059 -0.8022 -0.3887  0.1803
    9CHL1   H1A  637   2.824   6.791   9.030  0.3817  0.0107  0.2128
    9CHL1   H1B  638   2.800   6.611   9.002  1.1101 -1.2557 -0.6511
    9CHL1    C2  639   2.814   6.674   9.206  0.0047 -0.3886 -0.7511
    9CHL1   H2A  640   2.709   6.708   9.218  1.6091  5.0642  0.5724
    9CHL1   H2B  641   2.869   6.749   9.266  0.4035 -0.5309 -0.9387
    9CHL1   C20  642   3.241   6.837   8.373 -0.1789  0.4012 -0.1300
    9CHL1   H20  643   3.327   6.890   8.420  0.3228 -0.6995  0.2214
    9CHL1   C21  644   3.126   6.944   8.359  0.0785  0.3118 -0.0333
    9CHL1  H21A  645   3.096   6.985   8.457  0.3757 -0.5177  0.4227
    9CHL1  H21B  646   3.037   6.905   8.305 -0.5130  0.5353  0.7691
    9CHL1  H21C  647   3.169   7.034   8.310  0.9163  0.0405  0.1734
    9CHL1   C22  648   3.279   6.798   8.231 -0.1110 -0.0712 -0.3752
    9CHL1  H22A  649   3.375   6.742   8.232  0.8203  1.4242 -1.3892
    9CHL1  H22B  650   3.200   6.730   8.192 -0.7111  0.8873 -0.8660
    9CHL1   C23  651   3.296   6.911   8.129 -0.1016 -0.5216  0.4177
    9CHL1  H23A  652   3.192   6.943   8.107 -0.7974 -2.6817  0.3460
    9CHL1  H23B  653   3.361   6.991   8.168  1.3241 -0.5181 -1.7905
    9CHL1   C24  654   3.366   6.859   8.000 -0.4319  0.2078  0.2751
    9CHL1  H24A  655   3.465   6.816   8.023 -0.0146  0.3038 -1.2369
    9CHL1  H24B  656   3.301   6.784   7.949 -0.2668  1.0154 -1.1654
    9CHL1   C25  657   3.386   6.966   7.894 -1.4749 -0.0738  0.6910
    9CHL1   H25  658   3.469   7.033   7.927  0.3089 -1.9694  0.2263
    9CHL1   C26  659   3.437   6.903   7.762  0.5412 -0.2752  0.6769
    9CHL1  H26A  660   3.522   6.834   7.779 -0.8096 -1.8466  1.3726
    9CHL1  H26B  661   3.350   6.844   7.726  1.5746 -1.7855  0.6063
    9CHL1  H26C  662   3.458   6.979   7.684  0.3954  0.1256  1.0176
    9CHL1   C27  663   3.268   7.055   7.868  0.6865 -0.9071  0.4361
    9CHL1  H27A  664   3.178   6.996   7.840 -0.3736  1.3681 -1.2418
    9CHL1  H27B  665   3.242   7.106   7.963 -1.8537 -1.1123 -0.1019
    9CHL1  H27C  666   3.288   7.136   7.795 -2.2865  0.4681  1.0225
   10CHL1    C3  667   0.863   4.195   9.163 -0.0831 -0.4982 -0.3836
   10CHL1    H3  668   0.792   4.216   9.081  0.4134 -0.0961 -0.7179
   10CHL1    O3  669   0.784   4.183   9.284 -0.3230 -0.1560  0.2328
   10CHL1   H3'  670   0.852   4.167   9.350 -0.4493 -0.6436  0.2498
   10CHL1    C4  671   0.948   4.062   9.140 -0.9953  0.2179  0.3858
   10CHL1   H4A  672   1.023   4.034   9.217  0.5739  0.7157 -0.9007
   10CHL1   H4B  673   0.880   3.975   9.133  0.8543 -1.1797 -1.8214
   10CHL1    C5  674   1.012   4.088   9.008  0.2671 -1.1641 -0.8639
   10CHL1    C6  675   0.981   4.012   8.901  0.2411 -0.2404  0.3008
   10CHL1    H6  676   0.916   3.925   8.918 -0.2518 -0.2657 -1.4787
   10CHL1    C7  677   1.040   4.028   8.766 -0.4343  0.2015  0.9399
   10CHL1   H7A  678   1.057   3.937   8.705  0.1324  0.9944 -0.1309
   10CHL1   H7B  679   0.975   4.098   8.709 -0.6319  0.3458  1.3399
   10CHL1    C8  680   1.177   4.102   8.768 -0.3228  0.3951 -0.3138
   10CHL1    H8  681   1.259   4.043   8.813 -0.7348 -0.3649 -0.5407
   10CHL1   C14  682   1.212   4.147   8.626  0.3657 -0.7945  0.4217
   10CHL1   H14  683   1.136   4.217   8.586  1.3655 -1.3066 -2.6126
   10CHL1   C15  684   1.232   4.046   8.510  0.4862 -0.0519 -0.3100
   10CHL1  H15A  685   1.292   3.961   8.549 -1.0141 -0.6133  0.8843
   10CHL1  H15B  686   1.133   4.002   8.483 -1.0618  2.5751  0.6671
   10CHL1   C16  687   1.308   4.115   8.392 -0.4735  0.0424  0.0905
   10CHL1  H16A  688   1.404   4.069   8.363 -1.5436 -1.3676 -1.4103
   10CHL1  H16B  689   1.241   4.136   8.305  1.0336  0.1633 -1.0761
   10CHL1   C17  690   1.347   4.251   8.456 -0.2408 -0.6114 -0.5972
   10CHL1   H17  691   1.275   4.333   8.438  2.3830  1.9019 -0.4195
   10CHL1   C13  692   1.341   4.234   8.613 -0.4660 -0.7762  0.5089
   10CHL1   C18  693   1.464   4.166   8.666 -0.7809  0.8556  0.7884
   10CHL1  H18A  694   1.481   4.069   8.613 -2.5151  0.0855  1.5442
   10CHL1  H18B  695   1.558   4.223   8.680 -0.8002  0.6630  1.7165
   10CHL1  H18C  696   1.436   4.138   8.769  0.4711  1.2263  1.2395
   10CHL1   C12  697   1.313   4.368   8.693 -0.1979  0.6675  0.0165
   10CHL1  H12A  698   1.393   4.443   8.679  0.2553 -0.1314 -2.1414
   10CHL1  H12B  699   1.227   4.409   8.636  1.4091  1.8741 -1.6628
   10CHL1   C11  700   1.271   4.335   8.833  0.5074  0.8547 -0.7751
   10CHL1  H11A  701   1.357   4.322   8.902  0.9838  0.8584 -1.3526
   10CHL1  H11B  702   1.221   4.425   8.873 -0.6904 -0.2398  0.2877
   10CHL1    C9  703   1.158   4.230   8.855 -0.4989  0.1865  0.3990
   10CHL1    H9  704   1.068   4.277   8.809  0.1988  1.6840  0.5135
   10CHL1   C10  705   1.110   4.208   9.001 -0.3624  0.5936  0.2334
   10CHL1   C19  706   1.234   4.185   9.088 -0.2390  0.4673 -0.2801
   10CHL1  H19A  707   1.291   4.096   9.054  1.2190 -0.1150  3.2120
   10CHL1  H19B  708   1.305   4.269   9.104  0.5160 -0.5838  2.4492
   10CHL1  H19C  709   1.199   4.162   9.191 -1.5318  0.7788 -0.6413
   10CHL1    C1  710   1.033   4.336   9.055  0.6870 -0.5045  0.1799
   10CHL1   H1A  711   1.101   4.421   9.076  0.6079 -0.0025 -1.4373
   10CHL1   H1B  712   0.963   4.361   8.973  0.1058  0.5880  0.9949
   10CHL1    C2  713   0.953   4.314   9.181 -0.0429 -0.3002 -0.5996
   10CHL1   H2A  714   0.896   4.408   9.191 -2.1376 -1.2656 -2.4795
   10CHL1   H2B  715   1.031   4.297   9.259 -1.2284 -0.9055  0.4861
   10CHL1   C20  716   1.484   4.304   8.401  0.5825 -0.0339  0.3378
   10CHL1   H20  717   1.559   4.228   8.434 -1.3549 -2.0245  0.4069
   10CHL1   C21  718   1.511   4.442   8.469  0.2066 -0.2317 -0.0779
   10CHL1  H21A  719   1.591   4.493   8.410  0.7582 -0.8642  0.1137
   10CHL1  H21B  720   1.542   4.430   8.575 -1.4934 -0.0516  0.4707
   10CHL1  H21C  721   1.419   4.504   8.460 -1.2406 -2.1183  1.0794
   10CHL1   C22  722   1.490   4.319   8.247  0.0562  0.1526  0.1875
   10CHL1  H22A  723   1.592   4.359   8.230  1.1355 -0.8287  3.6354
   10CHL1  H22B  724   1.492   4.216   8.204  0.8393  0.7528 -1.2864
   10CHL1   C23  725   1.390   4.399   8.171 -0.1459 -0.5334 -0.7350
   10CHL1  H23A  726   1.290   4.370   8.208 -0.1902  1.1222  0.5480
   10CHL1  H23B  727   1.413   4.506   8.194  0.2243 -1.0878  1.6301
   10CHL1   C24  728   1.401   4.367   8.015  0.7731  0.0553 -0.2111
   10CHL1  H24A  729   1.505   4.391   7.984 -0.1722  2.5548 -1.7297
   10CHL1  H24B  730   1.384   4.258   8.001  1.5478 -0.0609 -0.2996
   10CHL1   C25  731   1.296   4.444   7.929 -0.0939 -0.5931 -0.1379
   10CHL1   H25  732   1.309   4.553   7.938  1.7064 -0.7990  0.1281
   10CHL1   C26  733   1.329   4.410   7.784 -0.0153  0.3483  0.0774
   10CHL1  H26A  734   1.255   4.449   7.711 -0.3143 -0.3852 -0.0196
   10CHL1  H26B  735   1.426   4.456   7.757 -0.2788  0.5123 -0.6191
   10CHL1  H26C  736   1.340   4.299   7.773 -3.1777 -0.0635  0.2758
   10CHL1   C27  737   1.152   4.429   7.956 -0.7746 -0.1707  0.1026
   10CHL1  H27A  738   1.100   4.503   7.892  0.0196  1.1968  0.9981
   10CHL1  H27B  739   1.107   4.331   7.927 -1.5547 -0.0674  0.9183
   10CHL1  H27C  740   1.122   4.456   8.059  1.4595  1.6797  0.3374
   11CHL1    C3  741   2.742   0.938   9.295  0.9382 -0.2748 -0.4115
   11CHL1    H3  742   2.729   1.047   9.280  1.8326  0.2060  1.8670
   11CHL1    O3  743   2.770   0.922   9.434 -0.0612 -0.7752 -0.7341
   11CHL1   H3'  744   2.691   0.960   9.474 -1.7794 -3.6719 -1.1690
   11CHL1    C4  745   2.616   0.857   9.267  0.3958 -0.0624 -0.0721
   11CHL1   H4A  746   2.621   0.758   9.317 -0.0451 -1.4860 -2.6463
   11CHL1   H4B  747   2.533   0.916   9.311  1.0044  1.6168 -1.0692
   11CHL1    C5  748   2.591   0.839   9.116 -0.5577  0.2550 -0.4583
   11CHL1    C6  749   2.471   0.869   9.059  0.3920 -0.6145  0.0315
   11CHL1    H6  750   2.393   0.914   9.122 -0.3917  1.4625 -2.2521
   11CHL1    C7  751   2.447   0.871   8.909 -0.0918  0.4474  0.6523
   11CHL1   H7A  752   2.350   0.826   8.879  0.5919 -0.8067  0.2624
   11CHL1   H7B  753   2.446   0.979   8.883  0.5576  0.2761 -0.1423
   11CHL1    C8  754   2.550   0.797   8.824 -1.0820  0.3308 -0.3243
   11CHL1    H8  755   2.534   0.687   8.836  1.6415  0.0271  1.5209
   11CHL1   C14  756   2.537   0.847   8.681 -0.5234 -0.6379 -0.2932
   11CHL1   H14  757   2.557   0.956   8.679 -3.5616  0.0019 -0.1095
   11CHL1   C15  758   2.400   0.834   8.615 -0.2045  0.3349 -0.4685
   11CHL1  H15A  759   2.368   0.732   8.644  0.5540  0.6668  1.6830
   11CHL1  H15B  760   2.329   0.912   8.651  0.7967  1.3231 -0.5820
   11CHL1   C16  761   2.428   0.838   8.466  0.3787  0.5918 -0.4564
   11CHL1  H16A  762   2.384   0.746   8.421 -1.3411  0.5688  1.1551
   11CHL1  H16B  763   2.379   0.924   8.416  0.2595  0.0533 -1.2980
   11CHL1   C17  764   2.579   0.845   8.452  0.2915 -0.3194  0.6833
   11CHL1   H17  765   2.600   0.954   8.455 -1.2312 -0.0173  2.0977
   11CHL1   C13  766   2.635   0.790   8.580  0.5672 -0.3262  0.3335
   11CHL1   C18  767   2.608   0.631   8.580 -0.3058  0.1302  0.9016
   11CHL1  H18A  768   2.510   0.607   8.534 -0.1313 -0.7716  0.9798
   11CHL1  H18B  769   2.690   0.576   8.528  0.2583  2.3742 -0.7663
   11CHL1  H18C  770   2.613   0.591   8.683 -0.6994  0.6587  1.1329
   11CHL1   C12  771   2.776   0.827   8.626 -0.6540 -0.0951  0.0190
   11CHL1  H12A  772   2.856   0.784   8.563 -0.3031  1.3122 -0.5170
   11CHL1  H12B  773   2.789   0.937   8.619  2.2657 -0.4837 -3.0686
   11CHL1   C11  774   2.802   0.779   8.775  0.0351 -0.9772  0.0108
   11CHL1  H11A  775   2.809   0.668   8.772  1.7192 -0.8685 -1.3398
   11CHL1  H11B  776   2.904   0.816   8.800 -0.2945 -0.6896  0.9979
   11CHL1    C9  777   2.697   0.833   8.874 -0.0481  0.2125  0.5299
   11CHL1    H9  778   2.699   0.944   8.867 -1.1990  0.1261 -3.3659
   11CHL1   C10  779   2.720   0.805   9.027  0.6383 -0.8298  0.4227
   11CHL1   C19  780   2.765   0.662   9.053 -0.3645 -0.2738 -0.4079
   11CHL1  H19A  781   2.754   0.634   9.160 -1.5470 -0.0982 -0.4718
   11CHL1  H19B  782   2.695   0.595   8.997 -1.4794  0.7548 -0.2871
   11CHL1  H19C  783   2.863   0.647   9.003 -1.9062 -0.8366 -3.5360
   11CHL1    C1  784   2.833   0.903   9.068 -0.2008  0.8121  0.1622
   11CHL1   H1A  785   2.928   0.888   9.013  1.1316 -0.0440  2.5299
   11CHL1   H1B  786   2.801   1.006   9.040  0.5657  0.7856 -0.8673
   11CHL1    C2  787   2.861   0.897   9.216 -0.2763 -0.3997  0.1907
   11CHL1   H2A  788   2.945   0.967   9.238  0.6080 -1.2809 -0.2800
   11CHL1   H2B  789   2.890   0.796   9.250  0.1492  0.4205  2.4230
   11CHL1   C20  790   2.633   0.794   8.321  0.0067  0.3922 -0.1115
   11CHL1   H20  791   2.641   0.683   8.321  3.5353  0.5312  0.4653
   11CHL1   C21  792   2.778   0.840   8.296 -0.4401 -0.6766 -0.1675
   11CHL1  H21A  793   2.810   0.838   8.190 -0.5967  0.4975 -0.2463
   11CHL1  H21B  794   2.854   0.780   8.350  1.9635  2.1021 -0.2219
   11CHL1  H21C  795   2.786   0.946   8.327 -1.4736 -0.6439  0.0217
   11CHL1   C22  796   2.545   0.829   8.200  0.1756 -0.2706 -0.1262
   11CHL1  H22A  797   2.441   0.851   8.230 -0.8766 -2.9304 -1.4523
   11CHL1  H22B  798   2.590   0.924   8.165  1.7982  0.1134  2.6857
   11CHL1   C23  799   2.536   0.716   8.100 -0.5709 -0.5352  0.0940
   11CHL1  H23A  800   2.638   0.705   8.058 -1.0195 -0.3752 -1.0998
   11CHL1  H23B  801   2.499   0.627   8.155  0.3461 -0.1399  1.4031
   11CHL1   C24  802   2.452   0.751   7.964 -0.5139 -0.1255 -0.7942
   11CHL1  H24A  803   2.359   0.797   8.004  1.4232  2.8726  0.7381
   11CHL1  H24B  804   2.508   0.829   7.908  2.2312 -1.2973  0.1395
   11CHL1   C25  805   2.422   0.636   7.875  0.0042  0.3404  0.2952
   11CHL1   H25  806   2.514   0.594   7.829 -0.7553 -1.2382  0.1746
   11CHL1   C26  807   2.364   0.512   7.959 -0.3729  0.7613 -0.8060
   11CHL1  H26A  808   2.302   0.437   7.906 -0.7711  0.9425 -0.6019
   11CHL1  H26B  809   2.449   0.465   8.011 -0.7878  0.7093 -0.1626
   11CHL1  H26C  810   2.294   0.557   8.034 -2.2327 -0.9385 -1.4295
   11CHL1   C27  811   2.330   0.669   7.759  0.4025 -0.4748  0.0262
   11CHL1  H27A  812   2.381   0.725   7.678  0.1517 -0.3524 -0.0476
   11CHL1  H27B  813   2.283   0.576   7.720 -0.1636  0.1922 -0.9297
   11CHL1  H27C  814   2.253   0.740   7.797  1.3849  1.1843 -0.9781
   12CHL1    C3  815   0.475   2.852   9.145 -0.4135 -0.2640  0.3913
   12CHL1    H3  816   0.501   2.948   9.094 -0.1259 -0.9263 -0.7475
   12CHL1    O3  817   0.495   2.869   9.287 -0.1020  0.3116  0.4611
   12CHL1   H3'  818   0.436   2.802   9.323  0.7414 -0.5526  0.2799
   12CHL1    C4  819   0.333   2.811   9.105  0.0873 -0.0588 -0.2472
   12CHL1   H4A  820   0.316   2.709   9.145  0.9237  0.0527  0.4272
   12CHL1   H4B  821   0.274   2.891   9.155  3.0521  3.0762 -1.3207
   12CHL1    C5  822   0.307   2.796   8.962 -0.7830  0.6068  0.3319
   12CHL1    C6  823   0.208   2.861   8.896  0.1824  0.1802  0.1052
   12CHL1    H6  824   0.143   2.926   8.957  1.6182  0.1060  1.7816
   12CHL1    C7  825   0.191   2.861   8.751  0.2804  0.4052 -0.2138
   12CHL1   H7A  826   0.083   2.848   8.726  0.1702 -1.4175  0.9779
   12CHL1   H7B  827   0.222   2.954   8.699 -1.4850  0.8571 -0.5188
   12CHL1    C8  828   0.282   2.757   8.671 -0.3469 -0.3909  0.6426
   12CHL1    H8  829   0.241   2.656   8.691 -0.5194 -0.4536  0.0097
   12CHL1   C14  830   0.275   2.779   8.521  0.5006  0.0328 -0.2998
   12CHL1   H14  831   0.332   2.875   8.518  3.0543 -1.2318  2.2967
   12CHL1   C15  832   0.142   2.791   8.454  0.3244 -0.3804  1.1646
   12CHL1  H15A  833   0.075   2.709   8.488 -1.3301 -2.4007 -5.5169
   12CHL1  H15B  834   0.102   2.891   8.481  1.2095  0.9824 -2.0673
   12CHL1   C16  835   0.182   2.765   8.303 -0.5713  0.3319 -0.0897
   12CHL1  H16A  836   0.106   2.690   8.272  0.3077 -0.0080 -1.5139
   12CHL1  H16B  837   0.163   2.859   8.247 -3.3886  0.3143  0.6861
   12CHL1   C17  838   0.331   2.716   8.298  0.3649  0.0131 -0.1854
   12CHL1   H17  839   0.375   2.816   8.280 -0.8856  1.3682  3.4537
   12CHL1   C13  840   0.369   2.679   8.445 -0.1091  0.0164 -0.5785
   12CHL1   C18  841   0.324   2.534   8.469 -0.5260 -0.5077  0.5033
   12CHL1  H18A  842   0.395   2.472   8.410  1.1375  1.7639 -0.0534
   12CHL1  H18B  843   0.353   2.506   8.573 -0.0962  1.0947  0.8476
   12CHL1  H18C  844   0.217   2.511   8.453 -0.6856  0.7219 -0.3528
   12CHL1   C12  845   0.517   2.702   8.494 -0.1327  0.3125  0.4585
   12CHL1  H12A  846   0.587   2.634   8.441 -2.1232 -0.1975 -1.6689
   12CHL1  H12B  847   0.566   2.801   8.480  0.4006  0.0845  0.6753
   12CHL1   C11  848   0.533   2.690   8.640 -0.3497 -0.2851 -0.0142
   12CHL1  H11A  849   0.531   2.583   8.667 -1.8536 -0.2470  0.1206
   12CHL1  H11B  850   0.630   2.729   8.678  0.5133 -1.3252 -1.0685
   12CHL1    C9  851   0.426   2.761   8.728  0.7266  0.4240 -0.2417
   12CHL1    H9  852   0.462   2.866   8.736  3.4220 -0.4408 -0.0483
   12CHL1   C10  853   0.415   2.714   8.875  0.5791 -0.3647 -0.0204
   12CHL1   C19  854   0.382   2.560   8.899 -0.0309 -0.3530 -0.3571
   12CHL1  H19A  855   0.284   2.533   8.855 -0.1709 -3.7494  1.7198
   12CHL1  H19B  856   0.448   2.490   8.843  0.7061 -0.4220  0.5735
   12CHL1  H19C  857   0.390   2.528   9.005 -1.0950  0.4336 -0.0264
   12CHL1    C1  858   0.557   2.740   8.936  0.2717  0.1043  0.4070
   12CHL1   H1A  859   0.613   2.649   8.904  0.3751 -0.9552  3.3179
   12CHL1   H1B  860   0.616   2.823   8.891 -0.1090  1.1893  1.8474
   12CHL1    C2  861   0.572   2.749   9.083  0.4654 -0.2188  0.0653
   12CHL1   H2A  862   0.675   2.785   9.104  1.4198 -1.5503 -2.0006
   12CHL1   H2B  863   0.553   2.654   9.137 -0.5671  0.3951  0.8265
   12CHL1   C20  864   0.366   2.628   8.171  0.4705 -0.6050  0.0614
   12CHL1   H20  865   0.304   2.537   8.184  2.2118 -1.5350  2.8733
   12CHL1   C21  866   0.513   2.597   8.173  0.2988 -0.6358 -0.2057
   12CHL1  H21A  867   0.552   2.541   8.086 -1.5657  0.5115 -1.8520
   12CHL1  H21B  868   0.533   2.543   8.269  2.4071  0.8666  0.2924
   12CHL1  H21C  869   0.574   2.690   8.179 -0.0811 -0.4207  0.4571
   12CHL1   C22  870   0.318   2.703   8.040  0.2227  0.2744 -0.1424
   12CHL1  H22A  871   0.208   2.714   8.041  0.1238 -0.5923  0.7568
   12CHL1  H22B  872   0.371   2.797   8.015  0.0073  0.7179  0.9980
   12CHL1   C23  873   0.339   2.618   7.917 -0.1472  0.5756 -0.1993
   12CHL1  H23A  874   0.448   2.607   7.895 -0.4984 -2.1328 -0.8648
   12CHL1  H23B  875   0.311   2.515   7.947  2.1149 -0.3513 -0.9988
   12CHL1   C24  876   0.266   2.681   7.798 -0.0563  0.3807 -0.0897
   12CHL1  H24A  877   0.160   2.701   7.824  0.2706  0.3955  1.3106
   12CHL1  H24B  878   0.310   2.780   7.773 -1.5074  1.1922  0.4459
   12CHL1   C25  879   0.282   2.600   7.674 -0.0866 -1.2376 -0.4344
   12CHL1   H25  880   0.386   2.562   7.664  0.2775  0.2930 -3.5801
   12CHL1   C26  881   0.186   2.472   7.682  0.0473  0.2801  0.5329
   12CHL1  H26A  882   0.210   2.415   7.775 -0.6352  0.7474  1.0052
   12CHL1  H26B  883   0.082   2.508   7.700  0.0659  0.1882  0.8284
   12CHL1  H26C  884   0.190   2.408   7.592 -1.7811  0.7336  0.0815
   12CHL1   C27  885   0.255   2.673   7.544 -0.2526 -0.2870  0.0063
   12CHL1  H27A  886   0.282   2.610   7.457  0.7777  1.7002 -1.1974
   12CHL1  H27B  887   0.144   2.669   7.533 -0.3382  1.4252  0.0072
   12CHL1  H27C  888   0.298   2.776   7.543 -2.1196  0.5648  1.2811
   13CHL1    C3  889   5.979   4.329   9.065  0.2436 -0.2411  0.1511
   13CHL1    H3  890   6.002   4.434   9.092 -1.9942  0.9206 -2.0312
   13CHL1    O3  891   5.996   4.244   9.175  0.4049  0.5121  0.3286
   13CHL1   H3'  892   5.984   4.160   9.129 -1.2604  1.2333 -0.6281
   13CHL1    C4  893   5.836   4.324   9.004 -0.6009  0.1472  0.0472
   13CHL1   H4A  894   5.795   4.224   8.978 -1.9072  0.5086  0.5939
   13CHL1   H4B  895   5.763   4.362   9.079 -1.1223 -0.6638 -0.0332
   13CHL1    C5  896   5.839   4.408   8.878 -0.3498 -0.0420  0.8263
   13CHL1    C6  897   5.756   4.508   8.849 -0.5484 -0.6057 -0.0489
   13CHL1    H6  898   5.680   4.535   8.923 -0.2105  0.0798  0.0532
   13CHL1    C7  899   5.738   4.580   8.718 -0.0877 -0.1883  0.3416
   13CHL1   H7A  900   5.634   4.584   8.680  0.4137 -2.6099 -1.5182
   13CHL1   H7B  901   5.772   4.685   8.734 -0.0338 -0.3651  1.4431
   13CHL1    C8  902   5.819   4.510   8.610 -0.3944  0.1898  0.5008
   13CHL1    H8  903   5.766   4.417   8.578 -1.0255  1.2200 -1.6111
   13CHL1   C14  904   5.832   4.602   8.491  0.1394  0.3481 -1.0305
   13CHL1   H14  905   5.888   4.691   8.528  0.2924  0.0792 -0.5997
   13CHL1   C15  906   5.708   4.662   8.424  0.6409 -0.1901 -0.3807
   13CHL1  H15A  907   5.626   4.591   8.401 -0.3831  1.8548 -3.9138
   13CHL1  H15B  908   5.663   4.748   8.477  1.2503 -0.4356  0.5462
   13CHL1   C16  909   5.754   4.715   8.286 -1.2302  0.1241  0.3055
   13CHL1  H16A  910   5.677   4.675   8.217 -0.6008  1.9183 -1.5169
   13CHL1  H16B  911   5.757   4.826   8.277 -0.6958  0.1217  0.3786
   13CHL1   C17  912   5.902   4.662   8.265 -0.1860 -0.5159 -0.7557
   13CHL1   H17  913   5.966   4.743   8.306  0.3961 -1.7655  0.9144
   13CHL1   C13  914   5.914   4.548   8.373 -0.5102 -0.0003 -0.0334
   13CHL1   C18  915   5.847   4.423   8.313 -0.0276  0.2884 -0.1360
   13CHL1  H18A  916   5.749   4.453   8.269 -0.0639 -0.0566 -0.2960
   13CHL1  H18B  917   5.893   4.384   8.220 -0.9489  3.4159 -2.0383
   13CHL1  H18C  918   5.817   4.343   8.385 -1.4915 -1.5194 -2.6025
   13CHL1   C12  919   6.055   4.512   8.425  0.1356 -0.1031  0.2465
   13CHL1  H12A  920   6.119   4.467   8.346 -0.5282 -0.8336  0.1100
   13CHL1  H12B  921   6.106   4.605   8.458  0.8063 -1.4546  3.4174
   13CHL1   C11  922   6.051   4.406   8.540  0.7228  0.3807  0.4528
   13CHL1  H11A  923   6.000   4.313   8.507  2.3242 -0.1626 -0.5868
   13CHL1  H11B  924   6.151   4.392   8.585 -0.3200  1.4996  3.3471
   13CHL1    C9  925   5.959   4.460   8.661  0.3354 -0.3307 -0.3636
   13CHL1    H9  926   6.023   4.547   8.686  0.9204 -0.4970 -1.2147
   13CHL1   C10  927   5.947   4.360   8.775 -0.4041 -0.6100 -0.0788
   13CHL1   C19  928   5.913   4.222   8.738 -0.2177  1.0145 -0.2847
   13CHL1  H19A  929   5.981   4.169   8.669 -1.4307 -2.6100  1.0741
   13CHL1  H19B  930   5.904   4.151   8.823  0.9536  0.9177 -0.2298
   13CHL1  H19C  931   5.822   4.233   8.676 -0.5011  1.1629  0.1560
   13CHL1    C1  932   6.082   4.363   8.842 -0.2184  0.0885 -0.0874
   13CHL1   H1A  933   6.156   4.309   8.779 -0.8269 -0.3123 -0.4651
   13CHL1   H1B  934   6.127   4.464   8.851 -0.5794  0.1151  1.9395
   13CHL1    C2  935   6.088   4.286   8.973  0.1075  0.0703  0.1396
   13CHL1   H2A  936   6.183   4.305   9.028  0.9883 -0.2542 -1.2122
   13CHL1   H2B  937   6.087   4.178   8.947  0.8621  0.7170 -3.0126
   13CHL1   C20  938   5.938   4.628   8.120  0.4349 -0.1666  0.1186
   13CHL1   H20  939   5.870   4.547   8.087 -1.4944  1.3189  0.2751
   13CHL1   C21  940   6.090   4.590   8.116  0.1438 -0.0892 -0.3938
   13CHL1  H21A  941   6.108   4.485   8.145 -1.0930 -0.3161 -0.3611
   13CHL1  H21B  942   6.158   4.652   8.178  0.5596 -1.6176  0.7266
   13CHL1  H21C  943   6.119   4.600   8.009 -0.8597 -3.1524 -1.0600
   13CHL1   C22  944   5.905   4.747   8.017 -0.1570  0.2887 -0.7257
   13CHL1  H22A  945   5.811   4.791   8.056 -0.6234 -2.4500  1.6123
   13CHL1  H22B  946   5.980   4.822   8.050  0.5460 -1.2942  1.5640
   13CHL1   C23  947   5.903   4.718   7.869  0.3186  0.2000 -0.0367
   13CHL1  H23A  948   6.001   4.677   7.838  0.5527  0.1178  0.7984
   13CHL1  H23B  949   5.829   4.639   7.842 -0.3918  1.0092 -0.5106
   13CHL1   C24  950   5.873   4.844   7.793 -0.5807 -0.0449  0.0249
   13CHL1  H24A  951   5.788   4.897   7.842 -0.9639 -1.1989  0.6563
   13CHL1  H24B  952   5.964   4.906   7.778 -0.5850 -0.6105 -3.0769
   13CHL1   C25  953   5.816   4.828   7.649  0.0667  0.4072  0.0981
   13CHL1   H25  954   5.722   4.768   7.653 -0.6126  1.5114  1.0462
   13CHL1   C26  955   5.788   4.962   7.587  0.1224 -0.4149  0.2630
   13CHL1  H26A  956   5.876   5.030   7.583 -0.1359 -0.0953 -0.0753
   13CHL1  H26B  957   5.752   4.953   7.483  0.5484 -2.0008  0.2382
   13CHL1  H26C  958   5.721   5.035   7.638  1.2360 -0.1530  1.4005
   13CHL1   C27  959   5.896   4.733   7.560 -0.3553 -0.0698 -0.6359
   13CHL1  H27A  960   6.006   4.750   7.560 -0.2186 -0.4204  2.1951
   13CHL1  H27B  961   5.888   4.631   7.605  1.8821 -0.1238 -0.2135
   13CHL1  H27C  962   5.856   4.731   7.457 -1.7744  1.7905 -0.1852
   14CHL1    C3  963   4.370   0.851   9.725 -0.1626  0.1499  0.0815
   14CHL1    H3  964   4.462   0.913   9.726 -0.9958  1.4697 -0.8193
   14CHL1    O3  965   4.314   0.833   9.856  0.2419  0.4182  0.0023
   14CHL1   H3'  966   4.296   0.921   9.888 -1.1360  0.0997  0.1867
   14CHL1    C4  967   4.270   0.925   9.640  0.7117 -0.0859 -0.3933
   14CHL1   H4A  968   4.166   0.886   9.640  0.6786 -0.0028 -0.7168
   14CHL1   H4B  969   4.257   1.020   9.696 -0.3207 -1.1703  1.2966
   14CHL1    C5  970   4.320   0.941   9.498 -0.5782  0.3120 -0.6458
   14CHL1    C6  971   4.350   1.066   9.446  0.3061 -0.3351 -0.5713
   14CHL1    H6  972   4.329   1.154   9.508 -3.3077 -1.2577 -0.2518
   14CHL1    C7  973   4.369   1.091   9.303 -0.4995  1.0158  0.1144
   14CHL1   H7A  974   4.304   1.175   9.272 -1.3833  0.5350  0.6323
   14CHL1   H7B  975   4.476   1.115   9.284 -0.5988  1.3867  0.0126
   14CHL1    C8  976   4.335   0.965   9.215  0.0502 -0.5012 -0.2661
   14CHL1    H8  977   4.224   0.961   9.208  0.1804 -1.7661 -3.6236
   14CHL1   C14  978   4.390   0.981   9.076  0.0378 -0.2904  0.3749
   14CHL1   H14  979   4.498   0.981   9.102 -0.2382  2.1610  1.8239
   14CHL1   C15  980   4.368   1.116   9.012  0.0232  0.0368 -0.3945
   14CHL1  H15A  981   4.262   1.148   9.024  0.7608  2.2644  0.7683
   14CHL1  H15B  982   4.433   1.187   9.069 -1.0064  1.5249 -0.9916
   14CHL1   C16  983   4.396   1.091   8.868  0.1959 -0.6179  0.4478
   14CHL1  H16A  984   4.311   1.120   8.804  0.8856  1.8734  0.5652
   14CHL1  H16B  985   4.481   1.147   8.824 -1.4977  0.2931 -1.8938
   14CHL1   C17  986   4.433   0.933   8.863  0.2765 -0.2601  1.2431
   14CHL1   H17  987   4.541   0.933   8.888  0.7002 -2.1523 -0.4022
   14CHL1   C13  988   4.363   0.868   8.974  0.0821 -0.9624 -0.7694
   14CHL1   C18  989   4.208   0.857   8.950 -0.3082  0.2828 -0.7465
   14CHL1  H18A  990   4.174   0.960   8.924  2.6146  2.0311  1.5781
   14CHL1  H18B  991   4.196   0.779   8.873 -1.5945 -1.4003  1.0541
   14CHL1  H18C  992   4.159   0.819   9.042  3.2049 -1.0319  0.7672
   14CHL1   C12  993   4.423   0.742   9.044  0.1017  0.2943  0.4278
   14CHL1  H12A  994   4.400   0.668   8.965  0.0773 -2.5468  2.8909
   14CHL1  H12B  995   4.532   0.761   9.051  0.0526  2.3019 -2.6194
   14CHL1   C11  996   4.373   0.712   9.185  0.3926  0.0741 -0.8881
   14CHL1  H11A  997   4.263   0.702   9.172 -0.1904  2.7043  1.0672
   14CHL1  H11B  998   4.419   0.616   9.217 -1.3237 -0.1940  0.9491
   14CHL1    C9  999   4.382   0.834   9.283 -0.5097 -0.3349 -0.6501
   14CHL1    H9 1000   4.490   0.858   9.291 -1.1240  2.7727 -0.5513
   14CHL1   C10 1001   4.326   0.805   9.422 -0.4954 -1.0364 -0.4969
   14CHL1   C19 1002   4.186   0.738   9.406 -0.0641  0.0271  0.0102
   14CHL1  H19A 1003   4.144   0.708   9.505 -0.5530 -1.3684 -0.5860
   14CHL1  H19B 1004   4.114   0.792   9.342  0.8905 -0.4591 -1.5319
   14CHL1  H19C 1005   4.203   0.638   9.361 -0.6553 -0.5597  1.0391
   14CHL1    C1 1006   4.423   0.718   9.503 -0.8935 -0.6219  0.2135
   14CHL1   H1A 1007   4.427   0.618   9.457  1.8963  0.1025 -1.3887
   14CHL1   H1B 1008   4.525   0.760   9.487 -1.0033 -0.1431  0.7020
   14CHL1    C2 1009   4.400   0.716   9.659  0.4070  0.4091  0.0970
   14CHL1   H2A 1010   4.485   0.668   9.710  0.9114  2.0612  0.8755
   14CHL1   H2B 1011   4.315   0.645   9.668 -0.3204  1.0986 -0.9765
   14CHL1   C20 1012   4.417   0.868   8.726 -0.2508  0.1391 -0.3341
   14CHL1   H20 1013   4.311   0.845   8.706 -0.6389 -0.2914  1.9690
   14CHL1   C21 1014   4.505   0.741   8.716  0.3157  0.0969 -0.0810
   14CHL1  H21A 1015   4.500   0.705   8.611  1.4835  0.0389 -0.1311
   14CHL1  H21B 1016   4.469   0.654   8.774 -0.7423  1.1811  0.9563
   14CHL1  H21C 1017   4.613   0.767   8.727  0.0726  1.8575 -1.4814
   14CHL1   C22 1018   4.458   0.962   8.607 -0.2383  0.0347 -0.4541
   14CHL1  H22A 1019   4.428   1.066   8.631 -0.0513  0.5192 -2.2109
   14CHL1  H22B 1020   4.568   0.959   8.593  0.0897 -0.7931  1.8953
   14CHL1   C23 1021   4.386   0.924   8.480  0.1287  0.0824 -0.7487
   14CHL1  H23A 1022   4.411   0.818   8.459  2.5435  0.6983 -1.2498
   14CHL1  H23B 1023   4.277   0.940   8.497  0.3792  0.2525  0.9028
   14CHL1   C24 1024   4.438   1.005   8.361  0.3078  1.0750  0.1550
   14CHL1  H24A 1025   4.412   1.113   8.375  1.8941  1.2812  1.9027
   14CHL1  H24B 1026   4.547   0.985   8.354  0.1309 -0.5745  1.6444
   14CHL1   C25 1027   4.374   0.965   8.230  0.0019  0.9955 -0.3073
   14CHL1   H25 1028   4.409   0.861   8.218  0.7888  1.2130  0.0392
   14CHL1   C26 1029   4.221   0.975   8.242  0.5957 -0.7930  0.2231
   14CHL1  H26A 1030   4.213   1.082   8.273  2.2412 -1.0025  1.5279
   14CHL1  H26B 1031   4.188   0.954   8.138  2.4120  0.3465 -0.6420
   14CHL1  H26C 1032   4.182   0.904   8.318  2.1500 -1.6194  0.2924
   14CHL1   C27 1033   4.432   1.049   8.105  0.0668  0.5059  0.1371
   14CHL1  H27A 1034   4.539   1.033   8.082 -0.0944  1.2869 -1.2959
   14CHL1  H27B 1035   4.381   1.004   8.017  1.5914  1.0779 -1.0834
   14CHL1  H27C 1036   4.424   1.159   8.120 -0.7740  0.6233 -1.0510
   15CHL1    C3 1037   3.778   0.492   9.286  0.3109  0.4402  0.5219
   15CHL1    H3 1038   3.786   0.602   9.296 -0.1215  0.4753  0.5098
   15CHL1    O3 1039   3.735   0.462   9.418 -0.8777  0.1370  0.5420
   15CHL1   H3' 1040   3.691   0.376   9.419 -1.2623  0.2687  3.3413
   15CHL1    C4 1041   3.684   0.457   9.177  0.3796  0.0249  0.6180
   15CHL1   H4A 1042   3.648   0.354   9.196  0.2537 -0.0605 -0.0765
   15CHL1   H4B 1043   3.597   0.526   9.187 -0.2585 -0.5581 -0.7221
   15CHL1    C5 1044   3.734   0.477   9.031 -0.2653 -0.4162 -0.3527
   15CHL1    C6 1045   3.664   0.541   8.936  0.1621 -0.9227  0.5107
   15CHL1    H6 1046   3.572   0.594   8.965 -0.8357 -2.6386  0.5872
   15CHL1    C7 1047   3.708   0.559   8.792 -0.4558 -0.4679 -0.5873
   15CHL1   H7A 1048   3.626   0.536   8.721 -0.9132  0.1325 -0.2663
   15CHL1   H7B 1049   3.729   0.668   8.785  2.8650 -1.1225 -2.6914
   15CHL1    C8 1050   3.832   0.474   8.760  1.2865 -0.4183 -0.0570
   15CHL1    H8 1051   3.794   0.371   8.742  0.9615 -0.0534 -1.5520
   15CHL1   C14 1052   3.894   0.524   8.630 -0.0462 -0.5653 -0.1376
   15CHL1   H14 1053   3.917   0.630   8.651 -2.8471 -0.0277  0.6735
   15CHL1   C15 1054   3.802   0.525   8.501 -0.2684 -0.1601 -0.5523
   15CHL1  H15A 1055   3.755   0.427   8.478 -0.4988  0.2334 -1.8409
   15CHL1  H15B 1056   3.730   0.609   8.501  1.4731  1.4594  1.7866
   15CHL1   C16 1057   3.913   0.549   8.388  0.3193  0.3669  0.4414
   15CHL1  H16A 1058   3.901   0.464   8.317  2.2726 -0.8760  1.5067
   15CHL1  H16B 1059   3.884   0.635   8.325 -1.6981  0.7959  1.8506
   15CHL1   C17 1060   4.051   0.548   8.458 -0.2512 -0.7143 -0.6477
   15CHL1   H17 1061   4.079   0.651   8.491  0.4492 -0.9571 -0.4489
   15CHL1   C13 1062   4.032   0.468   8.587 -0.1894 -0.6741  0.0722
   15CHL1   C18 1063   4.027   0.316   8.555 -0.6726 -0.0679 -0.2450
   15CHL1  H18A 1064   3.977   0.261   8.638  0.1394 -0.5758 -0.0797
   15CHL1  H18B 1065   3.966   0.309   8.463 -0.7123 -2.3575 -0.0950
   15CHL1  H18C 1066   4.125   0.263   8.556 -0.6664 -0.0616 -0.5412
   15CHL1   C12 1067   4.132   0.493   8.703 -0.1130 -0.2575 -0.4525
   15CHL1  H12A 1068   4.235   0.459   8.678 -0.1579 -0.3179 -0.5552
   15CHL1  H12B 1069   4.144   0.602   8.722 -1.7217 -0.2947  1.0833
   15CHL1   C11 1070   4.085   0.433   8.834  0.5703 -0.0181 -0.2763
   15CHL1  H11A 1071   4.079   0.323   8.819 -1.5937  0.0483 -0.2342
   15CHL1  H11B 1072   4.152   0.457   8.920  0.9555 -1.4732 -0.1378
   15CHL1    C9 1073   3.939   0.477   8.876  0.6202 -0.0651 -0.4494
   15CHL1    H9 1074   3.949   0.586   8.893 -1.7798 -0.0490  1.4604
   15CHL1   C10 1075   3.877   0.430   9.007 -0.4338 -0.6652  0.1477
   15CHL1   C19 1076   3.870   0.276   8.999  0.1660  0.1016 -0.1113
   15CHL1  H19A 1077   3.976   0.243   9.004  0.8782  1.7263 -2.6577
   15CHL1  H19B 1078   3.822   0.232   9.089 -0.3631  0.6724 -0.1097
   15CHL1  H19C 1079   3.820   0.238   8.907  0.2530  3.5167 -1.7076
   15CHL1    C1 1080   3.969   0.462   9.127  0.3089 -0.2554 -0.0386
   15CHL1   H1A 1081   4.063   0.407   9.104 -0.0688 -0.9355  0.0303
   15CHL1   H1B 1082   3.982   0.572   9.112 -0.9683 -0.2292 -1.1544
   15CHL1    C2 1083   3.911   0.427   9.267 -0.7006 -0.2246  0.3020
   15CHL1   H2A 1084   3.989   0.456   9.340  0.4161  0.2820 -1.0395
   15CHL1   H2B 1085   3.898   0.317   9.269 -3.0745 -0.0292 -0.5059
   15CHL1   C20 1086   4.153   0.512   8.350 -0.0220 -0.9390 -0.4438
   15CHL1   H20 1087   4.121   0.415   8.307 -2.9406  0.0532 -0.7392
   15CHL1   C21 1088   4.298   0.497   8.408 -0.1133 -0.5248 -0.0666
   15CHL1  H21A 1089   4.303   0.423   8.491  3.2160  1.7596  2.0343
   15CHL1  H21B 1090   4.338   0.592   8.450 -0.0942 -0.6228  0.1375
   15CHL1  H21C 1091   4.365   0.452   8.331  3.4176  0.8056  2.0271
   15CHL1   C22 1092   4.157   0.602   8.227 -0.8687  0.0889 -0.0131
   15CHL1  H22A 1093   4.060   0.637   8.188 -1.5530  2.1478  3.0951
   15CHL1  H22B 1094   4.205   0.692   8.273  0.9503 -1.7779  2.0072
   15CHL1   C23 1095   4.244   0.558   8.105 -0.0344 -0.5680  0.2676
   15CHL1  H23A 1096   4.345   0.536   8.145  0.7288  0.5810 -0.8989
   15CHL1  H23B 1097   4.200   0.466   8.063 -0.0716 -0.5929  0.3638
   15CHL1   C24 1098   4.250   0.668   8.003  1.1910 -0.3425  0.4248
   15CHL1  H24A 1099   4.144   0.679   7.971  1.5702  0.2797 -0.6839
   15CHL1  H24B 1100   4.283   0.769   8.036 -0.5647  0.3940  0.0682
   15CHL1   C25 1101   4.337   0.636   7.881 -0.3521 -0.5563 -0.2638
   15CHL1   H25 1102   4.421   0.581   7.929 -1.6477 -2.9810 -0.5859
   15CHL1   C26 1103   4.262   0.542   7.788  0.4087  0.1563 -0.0473
   15CHL1  H26A 1104   4.334   0.480   7.729  0.0792  1.2259 -1.6576
   15CHL1  H26B 1105   4.180   0.493   7.844 -1.1030  2.0044 -0.5528
   15CHL1  H26C 1106   4.209   0.609   7.716  0.5002 -0.9324 -1.1711
   15CHL1   C27 1107   4.380   0.765   7.817  0.1271  0.5084 -0.1717
   15CHL1  H27A 1108   4.441   0.831   7.882  0.7166 -1.0371  0.9363
   15CHL1  H27B 1109   4.433   0.737   7.724 -0.9131  1.0968 -0.9538
   15CHL1  H27C 1110   4.286   0.818   7.790 -0.3577 -1.7133 -3.4095
   16CHL1    C3 1111   4.737   0.948   9.613  0.0947 -0.4022 -0.0419
   16CHL1    H3 1112   4.633   0.968   9.581  0.3485 -0.4443 -0.9526
   16CHL1    O3 1113   4.739   0.890   9.741 -0.3870 -0.3427  0.0845
   16CHL1   H3' 1114   4.830   0.866   9.760 -0.3253  0.2507  0.5868
   16CHL1    C4 1115   4.805   0.846   9.531 -0.0709 -0.3432  0.3948
   16CHL1   H4A 1116   4.901   0.826   9.583  0.3232  0.4606 -0.0021
   16CHL1   H4B 1117   4.757   0.748   9.513 -1.3915  0.3343  0.1304
   16CHL1    C5 1118   4.840   0.897   9.387  0.0868  0.9603 -0.3978
   16CHL1    C6 1119   4.786   0.843   9.274 -1.1313  0.5667 -0.1699
   16CHL1    H6 1120   4.716   0.760   9.288 -0.4561  0.1984  1.2137
   16CHL1    C7 1121   4.809   0.895   9.134 -0.7148  0.7120 -0.5748
   16CHL1   H7A 1122   4.849   0.815   9.069  0.2999  1.4532 -0.8856
   16CHL1   H7B 1123   4.714   0.941   9.097 -2.0687 -1.6927 -0.3101
   16CHL1    C8 1124   4.928   0.993   9.137  0.7791  0.3500 -0.3909
   16CHL1    H8 1125   5.022   0.935   9.150  1.7558  1.9894  0.1622
   16CHL1   C14 1126   4.928   1.056   8.996  0.0268 -0.2859  0.2879
   16CHL1   H14 1127   4.836   1.116   8.979  1.1102  1.0091 -1.3307
   16CHL1   C15 1128   4.956   0.961   8.878  0.4046 -0.2441  1.0229
   16CHL1  H15A 1129   5.022   0.873   8.892 -1.6788 -1.8084  1.5360
   16CHL1  H15B 1130   4.853   0.931   8.847  0.3295  0.5892  0.4127
   16CHL1   C16 1131   5.006   1.048   8.764  0.3458  0.0134 -0.6975
   16CHL1  H16A 1132   5.099   0.998   8.730  1.2585  1.4743 -0.4514
   16CHL1  H16B 1133   4.940   1.054   8.675  0.9415  0.7169 -1.1021
   16CHL1   C17 1134   5.023   1.193   8.820  0.5483  0.1107  0.7803
   16CHL1   H17 1135   4.932   1.253   8.800 -0.6240 -0.6345  3.3755
   16CHL1   C13 1136   5.034   1.161   8.973 -0.2646 -0.3646 -0.3812
   16CHL1   C18 1137   5.182   1.098   8.995 -0.1983  0.1527  0.3095
   16CHL1  H18A 1138   5.265   1.163   8.959  0.4629  0.9820  3.1017
   16CHL1  H18B 1139   5.196   1.079   9.104  0.8988 -0.7000  0.0424
   16CHL1  H18C 1140   5.194   0.999   8.946 -2.0113 -0.4644  1.0576
   16CHL1   C12 1141   5.010   1.273   9.068  0.0697 -0.3326  0.4938
   16CHL1  H12A 1142   5.095   1.344   9.058  1.7794 -1.6880  3.9028
   16CHL1  H12B 1143   4.912   1.316   9.036  0.3614  0.1594  0.2456
   16CHL1   C11 1144   5.004   1.227   9.218 -0.5032 -0.1632 -0.2171
   16CHL1  H11A 1145   5.105   1.216   9.264 -0.1034 -0.8340 -1.2210
   16CHL1  H11B 1146   4.953   1.311   9.269 -0.9710 -0.4656 -0.1786
   16CHL1    C9 1147   4.909   1.098   9.242  0.1871 -0.0683  0.1225
   16CHL1    H9 1148   4.805   1.134   9.229  0.7144  1.3251 -0.5408
   16CHL1   C10 1149   4.912   1.036   9.386  0.3093  0.7408  0.1068
   16CHL1   C19 1150   5.059   1.003   9.426  0.3672 -0.3990 -0.2116
   16CHL1  H19A 1151   5.061   0.969   9.532 -0.5588 -1.3016 -0.4611
   16CHL1  H19B 1152   5.108   0.931   9.357  1.9645 -1.7634  2.2121
   16CHL1  H19C 1153   5.119   1.096   9.417  2.0418 -1.2979  1.1339
   16CHL1    C1 1154   4.849   1.143   9.485 -0.3641 -0.3728 -0.6307
   16CHL1   H1A 1155   4.921   1.227   9.496  1.5915 -2.1183  0.7566
   16CHL1   H1B 1156   4.753   1.185   9.448 -0.4957 -1.0868 -1.1199
   16CHL1    C2 1157   4.814   1.081   9.619 -0.1792  0.7224  0.3871
   16CHL1   H2A 1158   4.759   1.156   9.680  0.8569  0.2284  1.9738
   16CHL1   H2B 1159   4.906   1.057   9.677 -2.1764  0.4273  3.7194
   16CHL1   C20 1160   5.136   1.266   8.747 -0.3053 -0.3558  0.0018
   16CHL1   H20 1161   5.232   1.217   8.777  0.0830 -0.2192 -0.9831
   16CHL1   C21 1162   5.145   1.411   8.783  0.1515  0.2678  0.8028
   16CHL1  H21A 1163   5.170   1.420   8.891  2.2077  0.9311  0.3061
   16CHL1  H21B 1164   5.045   1.459   8.770  0.7445  1.1977 -0.5698
   16CHL1  H21C 1165   5.225   1.470   8.735 -0.6701  0.6805 -0.0876
   16CHL1   C22 1166   5.130   1.246   8.586  0.1276 -0.7312 -0.0030
   16CHL1  H22A 1167   5.172   1.146   8.563 -0.5722 -1.4066  1.4639
   16CHL1  H22B 1168   5.021   1.245   8.568  0.3786  0.2609 -1.7484
   16CHL1   C23 1169   5.200   1.346   8.489  0.5976  0.2279 -0.1491
   16CHL1  H23A 1170   5.193   1.449   8.529 -0.0678 -0.4185  1.4774
   16CHL1  H23B 1171   5.308   1.324   8.474  0.5670  0.2507 -0.3994
   16CHL1   C24 1172   5.125   1.342   8.357 -0.3057  0.6508  0.3132
   16CHL1  H24A 1173   5.116   1.236   8.326  0.4347  0.2964  1.2869
   16CHL1  H24B 1174   5.021   1.381   8.358 -0.3123  0.6907 -0.5850
   16CHL1   C25 1175   5.192   1.427   8.242 -0.3463  0.7717 -0.0181
   16CHL1   H25 1176   5.222   1.523   8.289 -1.6378  0.1541  2.2084
   16CHL1   C26 1177   5.312   1.359   8.177 -0.0239 -0.3485 -0.1211
   16CHL1  H26A 1178   5.388   1.332   8.254  1.4804 -1.1710 -1.8216
   16CHL1  H26B 1179   5.280   1.275   8.112 -0.0843  2.6936 -4.4431
   16CHL1  H26C 1180   5.359   1.436   8.112 -0.2147  0.4319  0.6421
   16CHL1   C27 1181   5.081   1.459   8.141  0.0259  0.0034  0.0768
   16CHL1  H27A 1182   5.124   1.504   8.049 -3.6587  2.1488 -0.8229
   16CHL1  H27B 1183   5.029   1.366   8.111 -1.8501  1.2236 -0.6782
   16CHL1  H27C 1184   5.015   1.540   8.179  0.6427  1.1481 -1.2199
   17CHL1    C3 1185   1.266   5.570   9.369 -0.2078 -0.7836 -0.1131
   17CHL1    H3 1186   1.318   5.474   9.348  3.2771  1.1569 -1.2012
   17CHL1    O3 1187   1.277   5.600   9.507  0.6961  0.0581  0.3890
   17CHL1   H3' 1188   1.228   5.525   9.543  0.6179  0.8865  2.1469
   17CHL1    C4 1189   1.336   5.681   9.289  0.0872  0.0604  0.6944
   17CHL1   H4A 1190   1.297   5.779   9.322 -1.0651 -0.0817 -0.1830
   17CHL1   H4B 1191   1.442   5.683   9.323  0.3302 -1.8997  0.1792
   17CHL1    C5 1192   1.305   5.670   9.134  0.1344 -0.5729  0.0201
   17CHL1    C6 1193   1.406   5.669   9.040 -0.2821  0.1859 -0.4848
   17CHL1    H6 1194   1.509   5.669   9.077  0.3176  1.1403 -2.0552
   17CHL1    C7 1195   1.387   5.680   8.890  0.1224  0.6406 -0.3667
   17CHL1   H7A 1196   1.449   5.760   8.843  1.5066 -0.8521 -1.1782
   17CHL1   H7B 1197   1.420   5.581   8.851 -2.1856 -1.2747  2.1652
   17CHL1    C8 1198   1.235   5.689   8.852  0.4616  0.1208  0.4192
   17CHL1    H8 1199   1.213   5.798   8.852 -1.6133 -0.2441 -0.4983
   17CHL1   C14 1200   1.207   5.637   8.708  0.9480  0.0626 -0.3070
   17CHL1   H14 1201   1.217   5.526   8.714  2.1149  0.2105  1.1471
   17CHL1   C15 1202   1.303   5.691   8.597 -0.4378  0.4640 -0.2251
   17CHL1  H15A 1203   1.306   5.801   8.605  1.9145  0.3318  3.6872
   17CHL1  H15B 1204   1.406   5.653   8.617 -1.3029 -2.2585 -0.5271
   17CHL1   C16 1205   1.243   5.636   8.470 -0.7408 -0.6497 -0.7490
   17CHL1  H16A 1206   1.241   5.710   8.387  0.1649  1.1245  0.7496
   17CHL1  H16B 1207   1.297   5.551   8.423  2.2043  0.3449  0.6220
   17CHL1   C17 1208   1.098   5.593   8.509  0.1790 -0.3420 -0.2165
   17CHL1   H17 1209   1.095   5.482   8.514 -0.7311 -0.3172 -0.0818
   17CHL1   C13 1210   1.059   5.642   8.652 -0.7727  0.0288 -0.0543
   17CHL1   C18 1211   1.008   5.788   8.641 -0.2084  0.2095 -0.1035
   17CHL1  H18A 1212   1.009   5.833   8.742 -0.4240 -0.3333  0.1434
   17CHL1  H18B 1213   1.070   5.854   8.577  0.7645  1.3788  1.9509
   17CHL1  H18C 1214   0.903   5.790   8.605 -0.2281  1.1037 -0.0287
   17CHL1   C12 1215   0.972   5.561   8.750 -0.2023 -0.7989 -0.8264
   17CHL1  H12A 1216   0.865   5.580   8.727 -0.6894 -0.8945  1.1060
   17CHL1  H12B 1217   0.972   5.451   8.733 -0.6365 -0.8969 -0.2432
   17CHL1   C11 1218   0.999   5.614   8.893 -0.0493 -0.7470  0.0425
   17CHL1  H11A 1219   0.957   5.717   8.896 -0.5087 -0.9195 -0.3691
   17CHL1  H11B 1220   0.932   5.562   8.965 -2.9094  1.6909 -0.6340
   17CHL1    C9 1221   1.142   5.609   8.944  0.2229  0.3407 -0.0964
   17CHL1    H9 1222   1.175   5.503   8.937 -0.8609  0.0086 -0.3018
   17CHL1   C10 1223   1.161   5.650   9.088  1.3528 -0.2335 -0.7903
   17CHL1   C19 1224   1.100   5.796   9.123  0.4660  0.3765 -0.0965
   17CHL1  H19A 1225   1.167   5.871   9.078  1.5990 -1.3989 -1.5001
   17CHL1  H19B 1226   0.994   5.808   9.090  0.1365  0.8322  1.0794
   17CHL1  H19C 1227   1.102   5.808   9.233  1.9519  1.6312 -0.2347
   17CHL1    C1 1228   1.101   5.541   9.186  0.5485 -0.1185 -0.2800
   17CHL1   H1A 1229   0.993   5.524   9.168  0.8126 -2.2343 -0.1092
   17CHL1   H1B 1230   1.146   5.447   9.148 -0.0857  0.1528 -1.7858
   17CHL1    C2 1231   1.119   5.566   9.339  0.7435  0.0155  0.3569
   17CHL1   H2A 1232   1.074   5.481   9.395 -1.2084  0.7302 -0.0674
   17CHL1   H2B 1233   1.067   5.660   9.366  0.3970 -0.2607  0.6605
   17CHL1   C20 1234   0.997   5.624   8.399 -0.0974  0.1218  0.5062
   17CHL1   H20 1235   0.980   5.734   8.398 -1.7142 -0.0978  0.2431
   17CHL1   C21 1236   0.863   5.561   8.442 -0.7383  0.9169 -0.3672
   17CHL1  H21A 1237   0.879   5.452   8.457 -0.3318  1.0110 -0.1190
   17CHL1  H21B 1238   0.786   5.578   8.364 -1.6211  0.5743  0.4070
   17CHL1  H21C 1239   0.816   5.593   8.538  1.7886 -0.2475  1.3624
   17CHL1   C22 1240   1.033   5.578   8.254 -0.3634 -0.4257  0.3535
   17CHL1  H22A 1241   0.969   5.627   8.178  1.9663  0.8005 -0.9057
   17CHL1  H22B 1242   1.134   5.613   8.226 -1.4509  0.8387 -2.3453
   17CHL1   C23 1243   1.018   5.423   8.226  0.1396  0.1677 -0.4112
   17CHL1  H23A 1244   1.094   5.381   8.297  0.5922  0.1391 -0.9032
   17CHL1  H23B 1245   0.919   5.390   8.263 -1.0333  2.6532 -1.1268
   17CHL1   C24 1246   1.055   5.396   8.082  0.3635  0.2260 -0.3439
   17CHL1  H24A 1247   1.148   5.446   8.049  0.5637  0.5126  0.6371
   17CHL1  H24B 1248   1.083   5.291   8.059 -0.0824  0.3575 -1.6082
   17CHL1   C25 1249   0.945   5.435   7.976 -0.6261  0.7698  0.7089
   17CHL1   H25 1250   0.933   5.544   7.989  2.8339  1.6100 -1.7011
   17CHL1   C26 1251   0.994   5.411   7.837  0.1399 -0.2724 -0.3655
   17CHL1  H26A 1252   1.078   5.483   7.833  0.4405 -0.5701  0.3980
   17CHL1  H26B 1253   1.031   5.307   7.825  1.2512  0.0146  0.4114
   17CHL1  H26C 1254   0.928   5.434   7.750  1.3838  1.7141 -0.8453
   17CHL1   C27 1255   0.810   5.361   8.002  0.5018  0.0226 -0.0962
   17CHL1  H27A 1256   0.832   5.253   8.019 -1.4557 -0.4857 -0.5585
   17CHL1  H27B 1257   0.774   5.409   8.096  0.5873  2.3876 -1.2124
   17CHL1  H27C 1258   0.742   5.370   7.915  2.6252  1.1759 -1.7411
   18CHL1    C3 1259   0.390   3.856   9.386  0.0230  1.0669 -0.4941
   18CHL1    H3 1260   0.332   3.932   9.329 -2.4520 -0.1136  0.3380
   18CHL1    O3 1261   0.351   3.874   9.522  0.5232 -0.1582 -0.2418
   18CHL1   H3' 1262   0.435   3.869   9.567  0.7382 -0.6623 -0.6889
   18CHL1    C4 1263   0.360   3.711   9.329 -1.1169 -0.0225  1.0028
   18CHL1   H4A 1264   0.427   3.638   9.381 -1.9373 -0.5879  1.2932
   18CHL1   H4B 1265   0.254   3.687   9.352 -0.4176 -0.8584  3.7939
   18CHL1    C5 1266   0.379   3.713   9.180 -0.4849  0.0338  0.1742
   18CHL1    C6 1267   0.280   3.671   9.095 -0.5488  0.2770  0.1383
   18CHL1    H6 1268   0.191   3.638   9.151 -0.2172 -0.5471  0.2082
   18CHL1    C7 1269   0.296   3.668   8.941 -0.6411  0.1189  0.4272
   18CHL1   H7A 1270   0.248   3.581   8.891 -0.5809  0.4220 -0.1582
   18CHL1   H7B 1271   0.248   3.754   8.890  1.9776 -0.3688 -3.2223
   18CHL1    C8 1272   0.449   3.672   8.898 -0.2792 -0.6192 -0.1286
   18CHL1    H8 1273   0.480   3.569   8.924 -3.1570 -0.8255  3.0780
   18CHL1   C14 1274   0.467   3.701   8.743 -0.4970 -0.0337 -0.4445
   18CHL1   H14 1275   0.413   3.798   8.738  0.2759  0.4245 -0.1150
   18CHL1   C15 1276   0.403   3.601   8.647 -0.1738  0.1622  1.0635
   18CHL1  H15A 1277   0.447   3.503   8.674  1.3829 -0.1879 -2.2548
   18CHL1  H15B 1278   0.292   3.607   8.651 -0.4124 -2.5818  0.4217
   18CHL1   C16 1279   0.457   3.655   8.507 -0.1688  0.0251  0.1048
   18CHL1  H16A 1280   0.487   3.571   8.441 -0.8803  0.2698 -0.5345
   18CHL1  H16B 1281   0.387   3.720   8.450  1.9017  1.6271 -0.7680
   18CHL1   C17 1282   0.578   3.745   8.540  0.4262 -0.3443 -0.4996
   18CHL1   H17 1283   0.544   3.849   8.524  0.6743  0.4268  3.1398
   18CHL1   C13 1284   0.605   3.722   8.694 -0.3861 -0.0453 -0.1528
   18CHL1   C18 1285   0.688   3.591   8.703  0.0406  0.6738 -0.0830
   18CHL1  H18A 1286   0.662   3.507   8.635  2.7081 -0.8138  0.6124
   18CHL1  H18B 1287   0.797   3.610   8.692 -0.3888  2.6488 -1.4202
   18CHL1  H18C 1288   0.674   3.535   8.798 -0.7120 -2.2903 -1.8198
   18CHL1   C12 1289   0.667   3.833   8.772  0.2909 -0.4918  0.0280
   18CHL1  H12A 1290   0.776   3.837   8.753  0.6670  0.3619  2.0839
   18CHL1  H12B 1291   0.627   3.931   8.740  0.3402 -1.0455 -1.8816
   18CHL1   C11 1292   0.660   3.809   8.927  0.6110 -0.4354  0.6468
   18CHL1  H11A 1293   0.718   3.715   8.936 -0.4598 -1.1142  0.5326
   18CHL1  H11B 1294   0.716   3.890   8.980  1.5342  0.9592 -2.2173
   18CHL1    C9 1295   0.518   3.792   8.979 -0.1949  0.2720  0.4544
   18CHL1    H9 1296   0.466   3.883   8.944  0.0632  0.0477 -0.5614
   18CHL1   C10 1297   0.516   3.774   9.133 -0.2389 -0.6060  0.0866
   18CHL1   C19 1298   0.617   3.660   9.173 -0.4519  0.3861  0.9665
   18CHL1  H19A 1299   0.607   3.640   9.282 -0.0897  0.3470  0.9929
   18CHL1  H19B 1300   0.602   3.569   9.111  0.9320  1.0370 -0.3880
   18CHL1  H19C 1301   0.725   3.685   9.164 -0.6369  0.5319 -1.3460
   18CHL1    C1 1302   0.548   3.904   9.209  0.6272  0.9407  0.4934
   18CHL1   H1A 1303   0.653   3.936   9.188  0.9594 -0.8384 -0.7910
   18CHL1   H1B 1304   0.474   3.975   9.169  0.3553 -0.6397 -2.0102
   18CHL1    C2 1305   0.533   3.892   9.363  0.1117 -0.7259  0.6218
   18CHL1   H2A 1306   0.547   3.998   9.394 -0.5198 -0.0999 -1.1098
   18CHL1   H2B 1307   0.613   3.828   9.405  0.5906  1.0422  2.5730
   18CHL1   C20 1308   0.695   3.729   8.446 -0.1733  0.5102 -0.1751
   18CHL1   H20 1309   0.742   3.629   8.460 -0.0872  0.4491 -0.8738
   18CHL1   C21 1310   0.806   3.832   8.482 -0.0047 -0.4678 -0.5932
   18CHL1  H21A 1311   0.849   3.788   8.574 -0.2741  0.4369 -0.0203
   18CHL1  H21B 1312   0.775   3.936   8.507 -0.3065 -0.4155 -1.1446
   18CHL1  H21C 1313   0.882   3.839   8.401  1.2185 -0.5721  0.5315
   18CHL1   C22 1314   0.662   3.732   8.290 -0.3754  0.0256 -0.2116
   18CHL1  H22A 1315   0.559   3.704   8.259 -0.7482  0.1264  0.8778
   18CHL1  H22B 1316   0.671   3.841   8.273 -0.4643  0.3250  1.4240
   18CHL1   C23 1317   0.763   3.648   8.210  0.8245 -0.2828 -0.4224
   18CHL1  H23A 1318   0.866   3.688   8.222  0.8634  0.5920 -3.1738
   18CHL1  H23B 1319   0.752   3.543   8.246  1.9474  0.0339  0.9657
   18CHL1   C24 1320   0.740   3.671   8.056 -0.2902 -0.1132 -0.6335
   18CHL1  H24A 1321   0.739   3.780   8.034  0.8160  0.1025  0.2829
   18CHL1  H24B 1322   0.833   3.630   8.010  0.1641 -1.6068  1.4457
   18CHL1   C25 1323   0.620   3.611   7.983  0.3057  0.1101  0.5013
   18CHL1   H25 1324   0.533   3.674   8.011  1.3981  1.8745  0.0040
   18CHL1   C26 1325   0.635   3.624   7.824 -0.3160  0.8476 -0.7859
   18CHL1  H26A 1326   0.539   3.598   7.775 -1.2856 -2.0660  2.2483
   18CHL1  H26B 1327   0.663   3.728   7.798 -0.4828  1.0043 -0.3607
   18CHL1  H26C 1328   0.720   3.561   7.789 -1.7992 -2.9077  1.7100
   18CHL1   C27 1329   0.579   3.469   8.009  0.1035 -0.1714 -0.1187
   18CHL1  H27A 1330   0.648   3.391   7.971  0.2953  0.1401 -0.4270
   18CHL1  H27B 1331   0.580   3.456   8.119 -2.6496 -0.0249 -0.0081
   18CHL1  H27C 1332   0.481   3.455   7.959  0.7449 -0.0485 -1.4507
   19CHL1    C3 1333   4.118   6.571   9.474 -0.3611  0.0921  0.3057
   19CHL1    H3 1334   4.101   6.677   9.442 -0.1375 -0.1406 -0.6121
   19CHL1    O3 1335   4.055   6.566   9.601  0.0161  0.0946  0.0557
   19CHL1   H3' 1336   4.073   6.476   9.629 -1.9362 -0.5494 -0.6347
   19CHL1    C4 1337   4.051   6.469   9.380  0.2113 -0.5714  0.3882
   19CHL1   H4A 1338   4.058   6.368   9.427 -2.1056 -0.5748  0.8364
   19CHL1   H4B 1339   3.942   6.490   9.369  0.4474  0.7468  0.4762
   19CHL1    C5 1340   4.112   6.467   9.242 -0.1759  0.3519  0.0748
   19CHL1    C6 1341   4.041   6.492   9.127 -0.4362 -0.1260 -0.8162
   19CHL1    H6 1342   3.934   6.515   9.133 -0.2107  1.1760 -1.4285
   19CHL1    C7 1343   4.100   6.480   8.993 -0.0083 -0.4721  0.0424
   19CHL1   H7A 1344   4.030   6.414   8.937 -0.3467  0.1799 -0.3183
   19CHL1   H7B 1345   4.091   6.585   8.956 -3.5031 -0.6430  0.1069
   19CHL1    C8 1346   4.248   6.433   8.975 -0.1425  0.4993 -0.3302
   19CHL1    H8 1347   4.234   6.323   8.978 -1.5490  0.6647  1.4758
   19CHL1   C14 1348   4.321   6.479   8.855  0.9581  0.2769 -0.0950
   19CHL1   H14 1349   4.327   6.589   8.869 -2.7087  0.4318  1.5009
   19CHL1   C15 1350   4.249   6.469   8.720 -0.2037 -0.6269 -0.1090
   19CHL1  H15A 1351   4.188   6.377   8.709 -2.1298  0.5852 -0.0395
   19CHL1  H15B 1352   4.180   6.555   8.703  0.3984  0.3128  1.9059
   19CHL1   C16 1353   4.366   6.470   8.618 -0.2758  0.5122  0.0903
   19CHL1  H16A 1354   4.357   6.379   8.555  0.4080  2.2107 -2.5944
   19CHL1  H16B 1355   4.355   6.545   8.537 -1.7861 -1.3133 -1.4967
   19CHL1   C17 1356   4.498   6.478   8.704 -0.3115 -0.2614  0.2268
   19CHL1   H17 1357   4.520   6.586   8.716 -2.2004  0.0883  0.7460
   19CHL1   C13 1358   4.463   6.421   8.838 -0.9809 -0.0301 -0.1625
   19CHL1   C18 1359   4.448   6.268   8.827  0.2498  0.2508 -0.5422
   19CHL1  H18A 1360   4.545   6.217   8.806 -0.2723 -0.3126 -1.7361
   19CHL1  H18B 1361   4.400   6.225   8.917 -1.5660 -0.5485 -1.8060
   19CHL1  H18C 1362   4.381   6.250   8.740  0.8746  1.7294 -1.3578
   19CHL1   C12 1363   4.542   6.479   8.953  0.3241  0.2016 -0.3743
   19CHL1  H12A 1364   4.646   6.440   8.953  0.2600  0.0280 -0.5951
   19CHL1  H12B 1365   4.555   6.589   8.957  0.8132  0.1894 -1.3746
   19CHL1   C11 1366   4.482   6.444   9.090 -0.2969  0.3533  0.4782
   19CHL1  H11A 1367   4.493   6.333   9.096  1.2739  0.4445 -0.2161
   19CHL1  H11B 1368   4.532   6.487   9.179 -0.1767 -0.8269  1.0002
   19CHL1    C9 1369   4.329   6.477   9.098 -0.4634  0.4559  0.6844
   19CHL1    H9 1370   4.326   6.588   9.100  2.7549  0.6671 -0.1316
   19CHL1   C10 1371   4.269   6.437   9.238  0.7081 -0.1194 -0.5720
   19CHL1   C19 1372   4.301   6.289   9.268  0.2558 -0.4345 -0.5953
   19CHL1  H19A 1373   4.247   6.226   9.194 -0.1215 -0.0918 -0.6106
   19CHL1  H19B 1374   4.410   6.270   9.271  0.4927  0.9182  0.4975
   19CHL1  H19C 1375   4.253   6.258   9.364  1.9929 -0.7533  0.2103
   19CHL1    C1 1376   4.333   6.533   9.349  0.2766 -0.4029 -0.1538
   19CHL1   H1A 1377   4.439   6.502   9.358  1.4287  3.1338 -0.1782
   19CHL1   H1B 1378   4.337   6.636   9.308 -0.3707 -0.3131 -0.0150
   19CHL1    C2 1379   4.266   6.536   9.489  0.1180 -0.7874 -0.1099
   19CHL1   H2A 1380   4.324   6.608   9.551 -1.0027  0.7504 -0.7866
   19CHL1   H2B 1381   4.278   6.447   9.554  3.2711 -0.1706  0.3194
   19CHL1   C20 1382   4.609   6.403   8.632  0.0201 -0.6071  0.2470
   19CHL1   H20 1383   4.590   6.297   8.607  2.6714 -1.3488  0.9826
   19CHL1   C21 1384   4.746   6.417   8.713 -0.2769 -0.7149  0.4362
   19CHL1  H21A 1385   4.746   6.346   8.799 -1.1399 -2.9774 -1.3270
   19CHL1  H21B 1386   4.748   6.522   8.750  2.0117 -0.3395 -0.6175
   19CHL1  H21C 1387   4.831   6.404   8.643 -0.3859 -0.6542  0.2915
   19CHL1   C22 1388   4.654   6.454   8.493 -0.4730 -0.5686 -0.1904
   19CHL1  H22A 1389   4.565   6.496   8.440 -0.6668 -2.0908 -1.1280
   19CHL1  H22B 1390   4.728   6.536   8.501 -1.7246  0.6908 -0.9010
   19CHL1   C23 1391   4.714   6.353   8.397  0.5075 -0.3983  0.0582
   19CHL1  H23A 1392   4.798   6.309   8.454  1.5293  0.9934 -0.3232
   19CHL1  H23B 1393   4.640   6.274   8.372  1.4502 -2.0546  2.1958
   19CHL1   C24 1394   4.771   6.419   8.266  0.4165 -0.1331  0.2483
   19CHL1  H24A 1395   4.700   6.492   8.221  1.6220  0.6257 -0.4911
   19CHL1  H24B 1396   4.855   6.485   8.295  0.2980  0.2351 -0.2316
   19CHL1   C25 1397   4.818   6.339   8.150  0.0514  0.1740  0.3544
   19CHL1   H25 1398   4.875   6.409   8.086  0.8846 -1.5179 -0.8287
   19CHL1   C26 1399   4.917   6.224   8.182 -0.2516 -0.1340  0.2007
   19CHL1  H26A 1400   5.011   6.262   8.226 -1.4342  1.8026  1.2126
   19CHL1  H26B 1401   4.860   6.147   8.239 -1.7186 -1.2528 -2.5567
   19CHL1  H26C 1402   4.948   6.164   8.094 -3.6085 -1.1773 -0.4398
   19CHL1   C27 1403   4.701   6.289   8.060  0.1940 -0.4663  0.1182
   19CHL1  H27A 1404   4.736   6.227   7.975  1.3728  1.3782 -0.8088
   19CHL1  H27B 1405   4.634   6.224   8.120  0.8396 -1.1444  0.1134
   19CHL1  H27C 1406   4.632   6.369   8.023  1.6653  2.2514  2.7481
   20CHL1    C3 1407   0.894   1.319   9.428  0.6533 -0.5815  0.0199
   20CHL1    H3 1408   0.820   1.237   9.416 -1.0516  0.7949  0.7906
   20CHL1    O3 1409   0.907   1.352   9.566 -0.0376 -0.2889 -0.0109
   20CHL1   H3' 1410   0.839   1.413   9.593  0.4357  0.1909  0.1054
   20CHL1    C4 1411   1.036   1.273   9.376  0.2750  0.3356  0.6345
   20CHL1   H4A 1412   1.111   1.347   9.412  0.1996  0.2123  1.0553
   20CHL1   H4B 1413   1.069   1.183   9.431  2.9381  2.6160  3.1068
   20CHL1    C5 1414   1.034   1.247   9.220  0.1061  0.3508 -0.4844
   20CHL1    C6 1415   1.069   1.136   9.162 -0.7459 -0.2192 -0.2130
   20CHL1    H6 1416   1.111   1.054   9.223 -0.3970  0.1275  0.0133
   20CHL1    C7 1417   1.077   1.111   9.011 -0.4566 -0.5084  0.9290
   20CHL1   H7A 1418   1.161   1.046   8.979  0.1838  0.1565  1.2278
   20CHL1   H7B 1419   0.990   1.057   8.968  0.0386 -0.2542 -0.4599
   20CHL1    C8 1420   1.088   1.246   8.928  0.4437  0.0891  0.8033
   20CHL1    H8 1421   1.186   1.295   8.945 -0.6150  1.8497  2.2998
   20CHL1   C14 1422   1.059   1.214   8.781  0.3158  0.0013  0.3371
   20CHL1   H14 1423   0.965   1.155   8.783  0.0576  0.1004 -2.9338
   20CHL1   C15 1424   1.149   1.112   8.710 -0.3041  0.0046  0.6291
   20CHL1  H15A 1425   1.256   1.130   8.733  0.2738  0.6809 -2.1638
   20CHL1  H15B 1426   1.114   1.010   8.736  0.1488  0.1331  1.7868
   20CHL1   C16 1427   1.130   1.141   8.558 -0.2313 -0.0710 -0.2004
   20CHL1  H16A 1428   1.226   1.175   8.514 -1.3685  1.2866 -1.7661
   20CHL1  H16B 1429   1.086   1.057   8.499 -0.4675  0.4360 -0.7611
   20CHL1   C17 1430   1.027   1.253   8.552 -0.1617 -0.1272  0.6027
   20CHL1   H17 1431   0.928   1.206   8.566 -0.8475  0.9319 -0.5514
   20CHL1   C13 1432   1.040   1.332   8.686  0.2000 -0.2826  0.1180
   20CHL1   C18 1433   1.167   1.416   8.684 -0.1617 -0.1621 -0.1822
   20CHL1  H18A 1434   1.184   1.463   8.783  1.6188 -2.4818  0.7103
   20CHL1  H18B 1435   1.260   1.356   8.673  1.1203  1.7906 -0.6855
   20CHL1  H18C 1436   1.161   1.494   8.605  2.9042 -0.3027 -0.6987
   20CHL1   C12 1437   0.925   1.411   8.740  1.0450 -0.0605 -0.4778
   20CHL1  H12A 1438   0.905   1.498   8.674  0.5152  0.1240 -0.0759
   20CHL1  H12B 1439   0.838   1.342   8.739  1.9765 -1.2803 -0.2602
   20CHL1   C11 1440   0.940   1.452   8.886 -0.2418 -0.3808 -0.9314
   20CHL1  H11A 1441   1.017   1.531   8.902 -0.2088 -0.3600 -1.1917
   20CHL1  H11B 1442   0.837   1.492   8.896 -0.3115 -1.0396  1.7120
   20CHL1    C9 1443   0.967   1.334   8.984 -0.5628 -0.4106  0.4804
   20CHL1    H9 1444   0.888   1.256   8.983  0.1946 -1.1954 -0.4043
   20CHL1   C10 1445   0.992   1.374   9.134  0.9206 -0.2707  0.2265
   20CHL1   C19 1446   1.106   1.476   9.139  0.7264 -0.5044 -0.2324
   20CHL1  H19A 1447   1.206   1.451   9.097  0.7867  1.4096 -1.3779
   20CHL1  H19B 1448   1.071   1.572   9.095  0.1009 -1.1554 -1.1833
   20CHL1  H19C 1449   1.119   1.505   9.246 -1.2248  4.2796 -1.0268
   20CHL1    C1 1450   0.858   1.431   9.193 -0.2698 -0.3999 -0.4654
   20CHL1   H1A 1451   0.852   1.529   9.140  0.5128 -1.0365 -1.7793
   20CHL1   H1B 1452   0.776   1.359   9.173  1.2515 -2.1708 -0.6340
   20CHL1    C2 1453   0.851   1.449   9.347  0.3766  0.1470  0.8194
   20CHL1   H2A 1454   0.755   1.496   9.377  0.3226  0.6703 -0.1270
   20CHL1   H2B 1455   0.932   1.523   9.365  2.5651 -1.9222  0.0179
   20CHL1   C20 1456   1.025   1.335   8.420  0.1203  0.5818  0.1648
   20CHL1   H20 1457   0.954   1.419   8.436  0.0766  0.3887  1.1081
   20CHL1   C21 1458   0.944   1.241   8.324  0.0763  0.0860 -0.2192
   20CHL1  H21A 1459   0.861   1.201   8.385  0.3706  0.5922  0.5302
   20CHL1  H21B 1460   1.007   1.152   8.300  0.1434 -0.1523  0.8123
   20CHL1  H21C 1461   0.904   1.293   8.235 -0.8464  0.8118  0.6048
   20CHL1   C22 1462   1.163   1.370   8.359 -0.1083  0.7160  0.1315
   20CHL1  H22A 1463   1.233   1.412   8.434  1.4825  0.9337 -1.4381
   20CHL1  H22B 1464   1.208   1.273   8.328  1.5706  1.1519  1.1145
   20CHL1   C23 1465   1.159   1.470   8.241  0.5461 -0.2097 -0.1517
   20CHL1  H23A 1466   1.094   1.426   8.162 -2.4573 -0.3056  2.1790
   20CHL1  H23B 1467   1.115   1.567   8.272  0.2305 -0.4800  0.2693
   20CHL1   C24 1468   1.303   1.522   8.195  0.4989 -0.2622 -0.4378
   20CHL1  H24A 1469   1.358   1.571   8.278 -2.4274  1.6514  0.5172
   20CHL1  H24B 1470   1.347   1.433   8.146  0.4005 -1.0778  0.9189
   20CHL1   C25 1471   1.292   1.622   8.073 -0.1702 -0.0285 -0.6015
   20CHL1   H25 1472   1.251   1.710   8.127  1.5629 -0.8767  2.3037
   20CHL1   C26 1473   1.420   1.662   8.008 -0.4962  0.2726  0.1939
   20CHL1  H26A 1474   1.406   1.724   7.917 -1.8793  2.4326  1.7996
   20CHL1  H26B 1475   1.487   1.718   8.077  0.5256  0.5966 -1.0276
   20CHL1  H26C 1476   1.469   1.565   7.982  0.2282 -0.0058  2.3478
   20CHL1   C27 1477   1.203   1.562   7.963  0.0354 -0.7569  0.3306
   20CHL1  H27A 1478   1.093   1.555   7.979 -0.5264  0.4827 -2.4434
   20CHL1  H27B 1479   1.223   1.622   7.872  0.2692 -3.5627 -1.5597
   20CHL1  H27C 1480   1.240   1.462   7.933  1.3145 -0.6933  1.5756
   21CHL1    C3 1481   6.830   3.567   9.494 -0.0677  0.8810 -0.0279
   21CHL1    H3 1482   6.940   3.551   9.502  0.4927  3.8850 -0.4579
   21CHL1    O3 1483   6.777   3.550   9.628  0.0273  0.4303 -0.5157
   21CHL1   H3' 1484   6.687   3.583   9.622 -0.0056  0.6258  0.6891
   21CHL1    C4 1485   6.809   3.709   9.447 -0.5847  0.1783 -0.6978
   21CHL1   H4A 1486   6.703   3.741   9.448 -0.8011 -0.4613  1.1587
   21CHL1   H4B 1487   6.857   3.778   9.520  0.4724  0.9717 -2.0715
   21CHL1    C5 1488   6.869   3.716   9.309 -0.0814  0.4277  0.4192
   21CHL1    C6 1489   6.976   3.790   9.285 -0.0604 -0.2855 -0.2264
   21CHL1    H6 1490   7.024   3.844   9.367  1.5915  0.6653 -1.7435
   21CHL1    C7 1491   7.041   3.799   9.153 -0.5065 -0.5813 -0.0313
   21CHL1   H7A 1492   7.085   3.901   9.147 -0.6018 -0.4533  1.1617
   21CHL1   H7B 1493   7.131   3.735   9.165  0.4306  0.4499 -1.2923
   21CHL1    C8 1494   6.953   3.759   9.032  0.5729 -0.0115  0.4076
   21CHL1    H8 1495   6.882   3.844   9.021  1.8407  1.0743  0.3033
   21CHL1   C14 1496   7.037   3.752   8.900  0.8571 -0.4189  0.1522
   21CHL1   H14 1497   7.108   3.671   8.927  1.6779  0.8919  2.1399
   21CHL1   C15 1498   7.116   3.877   8.854 -0.4633 -0.6951 -0.0020
   21CHL1  H15A 1499   7.044   3.962   8.853 -0.7591 -0.9461 -0.1605
   21CHL1  H15B 1500   7.204   3.905   8.916 -1.1500 -0.0634  0.7011
   21CHL1   C16 1501   7.155   3.836   8.717  0.0423  0.0976 -0.0585
   21CHL1  H16A 1502   7.137   3.920   8.647 -0.1495 -0.7067 -0.9935
   21CHL1  H16B 1503   7.264   3.815   8.721 -0.4552 -2.8419 -0.0577
   21CHL1   C17 1504   7.080   3.706   8.674 -0.1030  0.1167  0.3863
   21CHL1   H17 1505   7.151   3.623   8.696  0.1335  0.6586  1.7663
   21CHL1   C13 1506   6.965   3.695   8.779  0.3593 -0.1965 -0.5689
   21CHL1   C18 1507   6.853   3.788   8.741  0.5090  0.1441 -0.0093
   21CHL1  H18A 1508   6.891   3.881   8.694  1.1368 -0.1205 -0.0355
   21CHL1  H18B 1509   6.785   3.744   8.665  0.9458  0.6380 -0.6952
   21CHL1  H18C 1510   6.787   3.816   8.825 -2.8095 -0.6170 -2.1580
   21CHL1   C12 1511   6.915   3.555   8.813  0.3110  0.2669 -0.1556
   21CHL1  H12A 1512   6.856   3.498   8.739 -1.2052 -0.2663  1.4048
   21CHL1  H12B 1513   7.002   3.494   8.845  1.0214  1.2621 -0.1428
   21CHL1   C11 1514   6.818   3.558   8.941 -0.1540 -0.1875  0.7788
   21CHL1  H11A 1515   6.725   3.608   8.908 -0.2147  0.6768  2.1995
   21CHL1  H11B 1516   6.786   3.455   8.967  1.2827 -0.6731  0.7475
   21CHL1    C9 1517   6.885   3.623   9.060 -0.4386 -0.8327 -0.2954
   21CHL1    H9 1518   6.972   3.556   9.079 -2.0120 -2.2492  2.7031
   21CHL1   C10 1519   6.805   3.621   9.203 -0.9562 -0.5730  0.0417
   21CHL1   C19 1520   6.663   3.673   9.174  0.0047  0.2557 -0.3772
   21CHL1  H19A 1521   6.617   3.609   9.095  2.3729 -1.6839 -0.3282
   21CHL1  H19B 1522   6.598   3.663   9.264  1.0774 -3.6422  0.1910
   21CHL1  H19C 1523   6.664   3.777   9.136  1.8903  0.6276  0.5379
   21CHL1    C1 1524   6.812   3.477   9.263  0.3160 -0.0417  0.9242
   21CHL1   H1A 1525   6.768   3.400   9.196 -0.0996 -1.5169  2.7903
   21CHL1   H1B 1526   6.915   3.437   9.269 -0.1666 -1.3681  0.8505
   21CHL1    C2 1527   6.756   3.471   9.405  0.0604 -0.6425  0.0069
   21CHL1   H2A 1528   6.772   3.367   9.441 -0.3402 -0.9345 -0.6380
   21CHL1   H2B 1529   6.647   3.494   9.406  0.6980  3.0157  1.7026
   21CHL1   C20 1530   7.036   3.704   8.525 -0.5738  0.3846  0.0653
   21CHL1   H20 1531   6.954   3.779   8.514  0.8261  2.0324  0.3599
   21CHL1   C21 1532   6.977   3.562   8.491  0.6162  0.0373  0.3978
   21CHL1  H21A 1533   6.951   3.540   8.385  3.0228  1.4908 -0.5975
   21CHL1  H21B 1534   6.879   3.548   8.540  0.9247  0.4749  1.1520
   21CHL1  H21C 1535   7.049   3.483   8.522  2.5363  1.7144  0.4960
   21CHL1   C22 1536   7.150   3.729   8.424 -0.1452 -0.2699  0.2470
   21CHL1  H22A 1537   7.173   3.837   8.422 -1.4574  0.0173 -0.0943
   21CHL1  H22B 1538   7.243   3.669   8.425  1.6658  2.3639 -0.3468
   21CHL1   C23 1539   7.126   3.696   8.269  0.7846 -0.1524  0.1109
   21CHL1  H23A 1540   7.114   3.586   8.253  0.4967 -0.0281 -0.5670
   21CHL1  H23B 1541   7.028   3.741   8.242  1.4370  2.1811  1.3922
   21CHL1   C24 1542   7.237   3.764   8.187 -0.4041 -0.0115  0.0231
   21CHL1  H24A 1543   7.236   3.871   8.214  1.1131 -0.3296  1.5241
   21CHL1  H24B 1544   7.329   3.713   8.224  0.5482  0.0794 -2.0542
   21CHL1   C25 1545   7.210   3.751   8.035  0.0157 -0.4770 -1.0111
   21CHL1   H25 1546   7.166   3.649   8.023 -0.6217 -0.4725  0.9878
   21CHL1   C26 1547   7.112   3.858   7.999 -0.2030  0.0330  1.2474
   21CHL1  H26A 1548   7.154   3.958   8.020  2.2778 -0.8989  1.0475
   21CHL1  H26B 1549   7.094   3.851   7.890  1.4275  2.2634  0.7655
   21CHL1  H26C 1550   7.015   3.847   8.052 -1.2868  0.9967 -0.4492
   21CHL1   C27 1551   7.337   3.759   7.954  0.5299 -0.5631 -0.4922
   21CHL1  H27A 1552   7.417   3.691   7.990  1.4393 -0.4876 -2.2570
   21CHL1  H27B 1553   7.336   3.740   7.845  0.4305  0.4349 -0.6782
   21CHL1  H27C 1554   7.376   3.862   7.972  0.1624 -0.2415 -1.4630
   22CHL1    C3 1555   6.772   4.290   9.111 -0.1895 -0.7774  0.1313
   22CHL1    H3 1556   6.762   4.396   9.141 -0.6355  0.1342 -2.8758
   22CHL1    O3 1557   6.793   4.221   9.232  0.6225 -0.0506 -0.2602
   22CHL1   H3' 1558   6.725   4.155   9.247  0.5552  0.1780  0.4955
   22CHL1    C4 1559   6.645   4.243   9.039 -0.1007  0.3585 -0.2420
   22CHL1   H4A 1560   6.663   4.134   9.024  1.7411  0.5519  0.3218
   22CHL1   H4B 1561   6.565   4.259   9.114  2.1922 -0.2203  2.5301
   22CHL1    C5 1562   6.614   4.310   8.908  0.1811  0.6639 -0.2445
   22CHL1    C6 1563   6.492   4.364   8.881 -0.3515  0.1757  0.2415
   22CHL1    H6 1564   6.412   4.377   8.956  1.6563  0.6281  2.4425
   22CHL1    C7 1565   6.471   4.410   8.743 -0.0172 -0.2141  0.1737
   22CHL1   H7A 1566   6.368   4.381   8.713  0.1184 -2.1411  1.3777
   22CHL1   H7B 1567   6.469   4.521   8.746  0.6207 -0.1974  0.0299
   22CHL1    C8 1568   6.568   4.361   8.628 -0.3058  0.1071  0.0822
   22CHL1    H8 1569   6.538   4.260   8.592  2.7671 -0.9175  0.1149
   22CHL1   C14 1570   6.553   4.435   8.498 -0.3674 -0.1149 -0.2400
   22CHL1   H14 1571   6.563   4.538   8.540  0.6749 -0.4289  0.3255
   22CHL1   C15 1572   6.411   4.436   8.435 -0.2523 -0.1762  0.1937
   22CHL1  H15A 1573   6.371   4.333   8.427  0.5421 -0.3497 -1.9477
   22CHL1  H15B 1574   6.333   4.506   8.471 -0.1300  1.1600 -1.9769
   22CHL1   C16 1575   6.436   4.475   8.286 -0.1145 -0.0789  0.2992
   22CHL1  H16A 1576   6.401   4.400   8.212  0.9177  0.5417 -0.8353
   22CHL1  H16B 1577   6.375   4.567   8.275 -0.4605 -0.4411 -0.8862
   22CHL1   C17 1578   6.589   4.491   8.271  0.9619  0.1516  0.4090
   22CHL1   H17 1579   6.608   4.591   8.315  0.6348  1.1078 -1.5178
   22CHL1   C13 1580   6.653   4.402   8.376  0.7211 -0.8162 -0.3775
   22CHL1   C18 1581   6.632   4.259   8.327 -0.3203  0.3928  0.3448
   22CHL1  H18A 1582   6.535   4.245   8.275  0.3467 -1.0152 -0.5709
   22CHL1  H18B 1583   6.703   4.222   8.250 -0.3610 -0.3956  0.6780
   22CHL1  H18C 1584   6.642   4.186   8.410  1.0749  0.3827  0.1974
   22CHL1   C12 1585   6.793   4.424   8.430 -0.2675 -0.0143 -0.0903
   22CHL1  H12A 1586   6.871   4.402   8.354 -1.5991 -0.4380 -1.3673
   22CHL1  H12B 1587   6.808   4.532   8.455  1.5977 -0.5530  1.3236
   22CHL1   C11 1588   6.803   4.350   8.565 -0.5538  0.0394  0.1323
   22CHL1  H11A 1589   6.801   4.244   8.532 -1.6640  0.1266 -0.1030
   22CHL1  H11B 1590   6.905   4.371   8.605 -1.5009  2.2257  1.5626
   22CHL1    C9 1591   6.709   4.375   8.678  0.2955 -0.7213  0.1380
   22CHL1    H9 1592   6.714   4.482   8.706  1.2850 -0.8021  0.3002
   22CHL1   C10 1593   6.730   4.293   8.812 -0.9637 -0.6262 -0.2000
   22CHL1   C19 1594   6.741   4.149   8.768  0.1205 -0.5618 -0.4236
   22CHL1  H19A 1595   6.756   4.078   8.852 -0.5332  1.4865  1.5292
   22CHL1  H19B 1596   6.651   4.128   8.706 -0.6861  2.6824 -0.5238
   22CHL1  H19C 1597   6.830   4.129   8.703  1.4998 -0.4011  1.3356
   22CHL1    C1 1598   6.863   4.348   8.879 -0.2674 -0.0561 -0.5410
   22CHL1   H1A 1599   6.955   4.323   8.822  0.7631  0.4221  0.8564
   22CHL1   H1B 1600   6.864   4.459   8.882  2.7219  0.0161 -1.3556
   22CHL1    C2 1601   6.897   4.280   9.020  0.1192 -1.2225 -0.2432
   22CHL1   H2A 1602   6.977   4.341   9.067 -0.6937  0.9790 -1.6068
   22CHL1   H2B 1603   6.926   4.173   9.011  1.5928 -0.7258 -1.9957
   22CHL1   C20 1604   6.637   4.478   8.129 -0.4952 -0.5743 -0.0221
   22CHL1   H20 1605   6.639   4.375   8.089  0.8565  0.3937 -2.6814
   22CHL1   C21 1606   6.777   4.534   8.117  0.6146 -0.2952 -0.0779
   22CHL1  H21A 1607   6.810   4.534   8.011 -0.5792  3.2079 -0.5710
   22CHL1  H21B 1608   6.862   4.493   8.176  0.5837 -1.2840 -0.7017
   22CHL1  H21C 1609   6.777   4.644   8.130 -4.9709  0.1779 -1.5031
   22CHL1   C22 1610   6.545   4.560   8.028  0.7540 -0.3361  0.7447
   22CHL1  H22A 1611   6.444   4.514   8.027  0.2470  0.6650 -1.7489
   22CHL1  H22B 1612   6.531   4.667   8.056  0.0281  0.1814 -1.4419
   22CHL1   C23 1613   6.596   4.563   7.880  0.5133 -0.5219 -0.0741
   22CHL1  H23A 1614   6.690   4.621   7.867  1.2452 -1.9901 -1.8260
   22CHL1  H23B 1615   6.608   4.457   7.849 -2.5709 -1.3303  1.0600
   22CHL1   C24 1616   6.500   4.625   7.785 -0.6766 -0.4050  0.1859
   22CHL1  H24A 1617   6.487   4.728   7.827  0.7362 -0.4035  0.7000
   22CHL1  H24B 1618   6.551   4.630   7.687 -3.7619 -0.0533 -1.5105
   22CHL1   C25 1619   6.360   4.573   7.765 -0.7310  0.7133 -0.5353
   22CHL1   H25 1620   6.315   4.561   7.866 -0.6305 -0.4361 -0.6191
   22CHL1   C26 1621   6.265   4.662   7.686  0.1178 -0.0710  0.6707
   22CHL1  H26A 1622   6.241   4.751   7.747  0.2469 -0.6068  1.5228
   22CHL1  H26B 1623   6.314   4.683   7.589 -0.4596 -0.1998  0.3410
   22CHL1  H26C 1624   6.170   4.610   7.659  0.2272 -1.1183  2.1334
   22CHL1   C27 1625   6.380   4.433   7.708  0.7871 -0.0404  0.5430
   22CHL1  H27A 1626   6.284   4.379   7.694  0.5641  0.4232  0.2291
   22CHL1  H27B 1627   6.437   4.433   7.612  1.9750  2.0139  1.1876
   22CHL1  H27C 1628   6.432   4.378   7.788  0.0418  1.5122  2.1636
   23CHL1    C3 1629   3.331   7.077   9.211  0.2129  0.1619 -0.4729
   23CHL1    H3 1630   3.330   6.968   9.191  1.0258  0.4418 -2.1965
   23CHL1    O3 1631   3.318   7.091   9.354 -0.0355 -1.0424 -0.2251
   23CHL1   H3' 1632   3.370   7.022   9.396 -0.2804 -0.1873  1.5477
   23CHL1    C4 1633   3.465   7.150   9.175  0.1278  0.1016 -0.3091
   23CHL1   H4A 1634   3.464   7.251   9.220 -2.8411  0.9129 -1.8739
   23CHL1   H4B 1635   3.545   7.090   9.222  1.1203  0.5274 -1.4147
   23CHL1    C5 1636   3.490   7.171   9.023  0.5310  0.5297  1.0378
   23CHL1    C6 1637   3.604   7.138   8.959 -0.1358 -0.2218  0.0054
   23CHL1    H6 1638   3.684   7.104   9.025  0.2573 -0.7558 -0.7224
   23CHL1    C7 1639   3.641   7.149   8.814 -0.2595 -0.3221 -0.7795
   23CHL1   H7A 1640   3.747   7.183   8.810  0.0098 -1.2527 -2.8267
   23CHL1   H7B 1641   3.649   7.051   8.762  3.0159  0.4611 -2.0100
   23CHL1    C8 1642   3.539   7.243   8.738 -0.0745 -0.4985  0.1937
   23CHL1    H8 1643   3.565   7.349   8.759 -1.0350 -0.3863  0.8858
   23CHL1   C14 1644   3.553   7.224   8.589 -0.7401 -0.3051  0.7880
   23CHL1   H14 1645   3.536   7.117   8.566 -1.8106 -0.2387  1.2033
   23CHL1   C15 1646   3.692   7.253   8.527  0.3572  1.1168  0.5655
   23CHL1  H15A 1647   3.727   7.353   8.561 -0.3738  1.3544  0.6419
   23CHL1  H15B 1648   3.773   7.178   8.537  0.0631  0.6479 -0.4469
   23CHL1   C16 1649   3.659   7.256   8.375  0.8908 -0.2587 -0.2849
   23CHL1  H16A 1650   3.723   7.332   8.325  1.2152  0.3462  1.0137
   23CHL1  H16B 1651   3.683   7.155   8.333  0.9345 -0.3870  0.0491
   23CHL1   C17 1652   3.507   7.283   8.365 -0.3416 -0.1369 -0.1694
   23CHL1   H17 1653   3.455   7.187   8.342 -1.6436 -0.1997  2.5023
   23CHL1   C13 1654   3.454   7.304   8.512 -0.2704  0.2788 -0.2372
   23CHL1   C18 1655   3.469   7.452   8.548  0.1173 -0.2468  0.3399
   23CHL1  H18A 1656   3.400   7.510   8.483 -0.7096  0.6832  1.9669
   23CHL1  H18B 1657   3.439   7.476   8.652 -0.3536  0.1734  0.1160
   23CHL1  H18C 1658   3.573   7.488   8.534  0.9836 -2.2092  1.3599
   23CHL1   C12 1659   3.318   7.240   8.539  0.2293  0.2295  0.0273
   23CHL1  H12A 1660   3.241   7.288   8.475  0.4154  0.4301 -0.0503
   23CHL1  H12B 1661   3.312   7.138   8.495 -0.8039  1.4783 -2.9963
   23CHL1   C11 1662   3.279   7.261   8.689 -0.3668 -0.8119 -0.3127
   23CHL1  H11A 1663   3.265   7.371   8.698 -1.8284 -0.8226 -2.0104
   23CHL1  H11B 1664   3.186   7.205   8.712  0.0272 -1.2306  0.3099
   23CHL1    C9 1665   3.397   7.209   8.781  0.5476 -0.7692  0.1949
   23CHL1    H9 1666   3.395   7.099   8.771 -1.8313 -0.6938 -0.8678
   23CHL1   C10 1667   3.372   7.229   8.938  0.2076  0.4195  0.1709
   23CHL1   C19 1668   3.380   7.384   8.965  0.0128 -0.0140  0.0470
   23CHL1  H19A 1669   3.354   7.406   9.071  0.8461 -0.7718  0.4222
   23CHL1  H19B 1670   3.488   7.409   8.969  0.2469 -1.0797  0.8508
   23CHL1  H19C 1671   3.333   7.446   8.887 -2.3195 -0.3931  1.0717
   23CHL1    C1 1672   3.230   7.164   8.993 -0.6795  0.0093 -0.1359
   23CHL1   H1A 1673   3.157   7.242   8.961 -0.8015 -0.0386  0.0201
   23CHL1   H1B 1674   3.206   7.061   8.960 -3.2458 -0.3139  2.2684
   23CHL1    C2 1675   3.216   7.149   9.149 -0.0743  0.0412  0.5426
   23CHL1   H2A 1676   3.114   7.107   9.168  0.2305 -1.2215 -0.4816
   23CHL1   H2B 1677   3.206   7.256   9.180  1.3940  1.0332 -2.1188
   23CHL1   C20 1678   3.475   7.384   8.244  0.4651  0.4810 -0.2443
   23CHL1   H20 1679   3.525   7.477   8.278  0.3396  0.7987 -0.9116
   23CHL1   C21 1680   3.325   7.400   8.231  0.7027  0.1049 -0.4720
   23CHL1  H21A 1681   3.296   7.480   8.304  0.4416 -1.8910  1.7538
   23CHL1  H21B 1682   3.268   7.311   8.265  0.4826  0.4467  0.0840
   23CHL1  H21C 1683   3.291   7.449   8.138  2.1308  1.7509 -0.1866
   23CHL1   C22 1684   3.536   7.354   8.105 -0.5340  0.0345 -0.1245
   23CHL1  H22A 1685   3.631   7.298   8.121 -0.5011  0.5360  1.6562
   23CHL1  H22B 1686   3.473   7.295   8.035  0.4718 -2.0230  0.5998
   23CHL1   C23 1687   3.557   7.486   8.038  0.1039 -0.7984  0.0744
   23CHL1  H23A 1688   3.572   7.462   7.930 -1.1298  2.0982 -0.8374
   23CHL1  H23B 1689   3.462   7.541   8.048 -0.1958 -1.1711 -0.5922
   23CHL1   C24 1690   3.693   7.557   8.078  0.4533 -0.6143 -0.5659
   23CHL1  H24A 1691   3.685   7.594   8.183  0.2865 -1.4177 -0.2845
   23CHL1  H24B 1692   3.787   7.498   8.078  0.2437 -1.0356  1.5921
   23CHL1   C25 1693   3.716   7.674   7.987 -0.0279  0.3564  0.1325
   23CHL1   H25 1694   3.712   7.622   7.889  1.4745 -1.0541  0.7694
   23CHL1   C26 1695   3.598   7.781   7.984 -0.4242  0.2611 -0.0564
   23CHL1  H26A 1696   3.498   7.737   7.963 -1.0677  1.8482 -0.4687
   23CHL1  H26B 1697   3.600   7.835   8.081 -0.6479 -0.4472  0.3489
   23CHL1  H26C 1698   3.623   7.853   7.903  1.1208  0.7322  0.7969
   23CHL1   C27 1699   3.844   7.746   8.016 -0.4255 -0.7135  0.3107
   23CHL1  H27A 1700   3.934   7.681   8.025  0.3304 -0.5810 -4.0589
   23CHL1  H27B 1701   3.865   7.824   7.939  0.7187 -0.4277  0.8901
   23CHL1  H27C 1702   3.826   7.790   8.116  1.4506 -2.7137  1.6380
   24CHL1    C3 1703   3.950   6.932   9.557 -0.7389  0.6333  1.0083
   24CHL1    H3 1704   3.954   6.821   9.548 -1.6623  0.6763 -0.1315
   24CHL1    O3 1705   3.915   6.956   9.691 -0.4570  0.3519 -0.0594
   24CHL1   H3' 1706   3.886   7.048   9.694 -0.1329  0.4621 -0.1299
   24CHL1    C4 1707   4.083   7.000   9.528  0.9933  0.7958  0.3505
   24CHL1   H4A 1708   4.078   7.110   9.543 -0.2261  0.9212 -0.7634
   24CHL1   H4B 1709   4.150   6.965   9.609  0.0285 -0.4315  0.6408
   24CHL1    C5 1710   4.121   6.980   9.379 -0.7010 -0.0613  0.0145
   24CHL1    C6 1711   4.241   6.931   9.341 -0.6722  0.4374 -0.4133
   24CHL1    H6 1712   4.323   6.900   9.408  0.6249 -2.9261 -3.2465
   24CHL1    C7 1713   4.283   6.911   9.190  0.0303 -0.1888 -0.7153
   24CHL1   H7A 1714   4.393   6.924   9.183  0.1015 -0.2001  0.2669
   24CHL1   H7B 1715   4.273   6.802   9.166 -0.2485 -0.4175  0.3860
   24CHL1    C8 1716   4.187   6.973   9.084 -0.1704 -0.2148 -1.0637
   24CHL1    H8 1717   4.214   7.080   9.075 -0.6318 -0.0183 -0.1766
   24CHL1   C14 1718   4.217   6.923   8.946  0.4289 -0.7664  0.1182
   24CHL1   H14 1719   4.175   6.821   8.950  0.0989 -0.7657 -2.1230
   24CHL1   C15 1720   4.366   6.901   8.904  0.1337 -0.1166 -0.1595
   24CHL1  H15A 1721   4.428   6.992   8.924  1.8453 -1.5386  1.3834
   24CHL1  H15B 1722   4.407   6.810   8.954 -1.1287  0.5491  2.2561
   24CHL1   C16 1723   4.341   6.869   8.750 -0.1404 -0.3408 -0.5534
   24CHL1  H16A 1724   4.416   6.933   8.699 -0.6493  0.1440 -0.6918
   24CHL1  H16B 1725   4.365   6.765   8.717  2.4806 -0.5530  1.6563
   24CHL1   C17 1726   4.187   6.894   8.723  0.1823 -0.4568 -0.8262
   24CHL1   H17 1727   4.130   6.802   8.748  2.2429 -1.4841  0.3247
   24CHL1   C13 1728   4.140   6.988   8.830  0.0079 -0.0503 -0.6090
   24CHL1   C18 1729   4.182   7.135   8.810  0.4843  0.2772 -0.5325
   24CHL1  H18A 1730   4.166   7.183   8.909 -0.3867 -4.6438  2.0031
   24CHL1  H18B 1731   4.289   7.153   8.786  0.8172 -0.2372  0.5310
   24CHL1  H18C 1732   4.115   7.188   8.738 -1.1683  0.4596  1.0689
   24CHL1   C12 1733   3.988   6.975   8.868 -0.2027 -0.1470  0.3486
   24CHL1  H12A 1734   3.930   7.041   8.800 -1.3561  0.8707  2.2229
   24CHL1  H12B 1735   3.948   6.872   8.864 -3.7548  1.1399 -2.6440
   24CHL1   C11 1736   3.952   7.023   9.008  0.3761 -0.0516 -0.0322
   24CHL1  H11A 1737   3.962   7.133   9.015 -0.2142 -0.0989  2.4421
   24CHL1  H11B 1738   3.847   6.999   9.035  1.0349 -1.0813  1.7709
   24CHL1    C9 1739   4.047   6.959   9.120  0.2537 -0.5113 -0.1050
   24CHL1    H9 1740   4.019   6.851   9.119 -0.5674 -0.4130 -4.4024
   24CHL1   C10 1741   4.014   7.014   9.277 -0.0206  0.5184 -0.0744
   24CHL1   C19 1742   3.996   7.163   9.272 -0.4506 -0.5239  0.7032
   24CHL1  H19A 1743   3.897   7.188   9.229 -0.2063  2.1888  1.5511
   24CHL1  H19B 1744   3.984   7.213   9.371  0.2516  2.1985 -0.4866
   24CHL1  H19C 1745   4.078   7.208   9.212 -2.2736 -0.7247 -2.1430
   24CHL1    C1 1746   3.883   6.949   9.323 -0.2174 -0.1650 -0.8483
   24CHL1   H1A 1747   3.799   6.966   9.252 -2.7507 -3.5870  0.9711
   24CHL1   H1B 1748   3.897   6.839   9.311  2.2803  0.1051 -0.8803
   24CHL1    C2 1749   3.840   6.986   9.463 -0.2654 -0.2536  0.7872
   24CHL1   H2A 1750   3.742   6.937   9.481 -1.8230  0.6133 -3.9071
   24CHL1   H2B 1751   3.815   7.094   9.461 -1.1706 -0.4271  1.8103
   24CHL1   C20 1752   4.144   6.941   8.580 -0.2025  0.2818 -0.3209
   24CHL1   H20 1753   4.042   6.986   8.585 -0.2145  0.6071 -2.4752
   24CHL1   C21 1754   4.136   6.805   8.501  0.4319 -0.5820 -0.8147
   24CHL1  H21A 1755   4.237   6.759   8.499 -0.0970 -2.0535  1.7883
   24CHL1  H21B 1756   4.097   6.827   8.399 -0.3888  1.3400 -0.1389
   24CHL1  H21C 1757   4.056   6.749   8.553  0.3724  0.6111  0.4385
   24CHL1   C22 1758   4.245   7.030   8.505  0.5027 -0.7650 -0.2381
   24CHL1  H22A 1759   4.259   7.126   8.560 -0.1199 -0.4932 -0.5502
   24CHL1  H22B 1760   4.346   6.989   8.481  1.6255  0.6901  1.6440
   24CHL1   C23 1761   4.194   7.084   8.368  0.5608 -0.5402 -0.3592
   24CHL1  H23A 1762   4.187   7.001   8.295  2.9458 -3.0707  2.0567
   24CHL1  H23B 1763   4.089   7.112   8.392  0.5873 -0.3170 -0.5074
   24CHL1   C24 1764   4.274   7.187   8.297  0.0477 -0.2736  0.2432
   24CHL1  H24A 1765   4.263   7.289   8.339  0.3147 -0.0653 -0.1767
   24CHL1  H24B 1766   4.382   7.162   8.302  0.5172  1.2185 -1.2232
   24CHL1   C25 1767   4.244   7.194   8.142  0.9587 -0.0391  0.3639
   24CHL1   H25 1768   4.261   7.101   8.084 -0.3487  0.5324 -1.0333
   24CHL1   C26 1769   4.086   7.210   8.107  0.4437 -0.7120 -0.5728
   24CHL1  H26A 1770   4.020   7.160   8.181 -0.0113  0.0512 -0.4532
   24CHL1  H26B 1771   4.057   7.313   8.135 -0.4521 -0.7804 -1.1973
   24CHL1  H26C 1772   4.045   7.190   8.005 -3.3436 -1.4132  0.8934
   24CHL1   C27 1773   4.331   7.293   8.068 -1.0069  0.5772 -0.6488
   24CHL1  H27A 1774   4.307   7.397   8.101 -1.7590  0.8215 -1.9139
   24CHL1  H27B 1775   4.441   7.285   8.087 -1.0486 -1.1652 -1.0697
   24CHL1  H27C 1776   4.316   7.296   7.958  0.9254 -0.3481 -0.9889
   25CHL1    C3 1777   4.463   0.221   9.651  0.3313 -0.1076  0.0058
   25CHL1    H3 1778   4.564   0.178   9.663 -0.0326 -1.6599 -2.0231
   25CHL1    O3 1779   4.392   0.238   9.775  0.1136 -0.3620  0.5563
   25CHL1   H3' 1780   4.326   0.307   9.762 -1.2016 -1.5258  0.8085
   25CHL1    C4 1781   4.471   0.363   9.588 -0.1972  0.2344  0.5242
   25CHL1   H4A 1782   4.366   0.399   9.588 -0.6339 -0.9835  1.1421
   25CHL1   H4B 1783   4.532   0.431   9.651  0.9431 -0.3402  0.0698
   25CHL1    C5 1784   4.512   0.355   9.441  0.3493 -0.0112 -0.0639
   25CHL1    C6 1785   4.612   0.440   9.398  0.8346 -0.0042  0.7004
   25CHL1    H6 1786   4.651   0.522   9.458 -2.8752  2.2975  0.2811
   25CHL1    C7 1787   4.659   0.447   9.256  0.1776 -0.4636  0.4753
   25CHL1   H7A 1788   4.674   0.553   9.227  3.2388 -0.1635  2.6337
   25CHL1   H7B 1789   4.762   0.406   9.253  0.7497  0.7845  1.6465
   25CHL1    C8 1790   4.581   0.362   9.156  0.0832 -0.1544  0.4266
   25CHL1    H8 1791   4.487   0.417   9.135 -0.5509 -0.9728  1.0314
   25CHL1   C14 1792   4.659   0.338   9.027 -0.5869  0.0980 -0.4496
   25CHL1   H14 1793   4.756   0.286   9.044 -1.6175 -1.8489 -0.2571
   25CHL1   C15 1794   4.696   0.471   8.962 -0.3247 -0.2330 -0.2027
   25CHL1  H15A 1795   4.616   0.549   8.968 -2.6833 -2.6558  2.2618
   25CHL1  H15B 1796   4.789   0.511   9.007 -1.3779  1.3357  0.7072
   25CHL1   C16 1797   4.724   0.434   8.816 -0.5067 -0.4224  0.1887
   25CHL1  H16A 1798   4.664   0.501   8.751  0.0207 -0.5707 -0.4622
   25CHL1  H16B 1799   4.834   0.444   8.801 -0.2257  1.4098  2.9029
   25CHL1   C17 1800   4.681   0.284   8.807  0.0952 -0.3217  0.0487
   25CHL1   H17 1801   4.771   0.219   8.814 -0.6078 -1.2216  1.1990
   25CHL1   C13 1802   4.586   0.261   8.925  0.3473  0.5083 -0.1191
   25CHL1   C18 1803   4.447   0.327   8.890 -0.2699  0.1809 -0.1576
   25CHL1  H18A 1804   4.460   0.426   8.840  1.6470 -0.1918 -0.4665
   25CHL1  H18B 1805   4.405   0.263   8.811  0.1011 -0.9617  0.5448
   25CHL1  H18C 1806   4.385   0.341   8.981  1.6360 -1.4973  1.4961
   25CHL1   C12 1807   4.567   0.117   8.988  0.6259  0.1421 -0.3559
   25CHL1  H12A 1808   4.515   0.051   8.916 -0.2466 -0.9476  1.1954
   25CHL1  H12B 1809   4.662   0.061   9.005 -0.1426 -0.3461  3.0524
   25CHL1   C11 1810   4.484   0.124   9.121  0.4836  0.2563 -0.2383
   25CHL1  H11A 1811   4.381   0.149   9.086  0.5995 -0.7505 -1.3775
   25CHL1  H11B 1812   4.496   0.025   9.170  2.9495  1.4358  1.7905
   25CHL1    C9 1813   4.541   0.228   9.224  0.6445 -0.4178 -0.1669
   25CHL1    H9 1814   4.635   0.176   9.251  0.7383 -1.9974 -3.0959
   25CHL1   C10 1815   4.455   0.242   9.350 -0.3528  0.0446  0.4395
   25CHL1   C19 1816   4.317   0.294   9.299 -0.2869  0.0398 -0.1359
   25CHL1  H19A 1817   4.243   0.311   9.380  0.1830 -0.6382  0.4494
   25CHL1  H19B 1818   4.316   0.387   9.238 -0.5583 -1.0286 -1.8409
   25CHL1  H19C 1819   4.272   0.215   9.235  0.2328 -1.0848  0.8448
   25CHL1    C1 1820   4.440   0.109   9.426  0.0270 -0.1605 -0.6932
   25CHL1   H1A 1821   4.374   0.040   9.369 -0.6640 -0.4542  0.4186
   25CHL1   H1B 1822   4.539   0.058   9.424  1.2292  2.0706 -0.6514
   25CHL1    C2 1823   4.381   0.130   9.568 -0.5465  0.3955  0.1341
   25CHL1   H2A 1824   4.386   0.033   9.622  1.0590 -0.1716 -0.9462
   25CHL1   H2B 1825   4.271   0.149   9.563 -1.4290 -2.9495  2.6413
   25CHL1   C20 1826   4.635   0.237   8.660 -0.2823  0.7432  0.2702
   25CHL1   H20 1827   4.531   0.260   8.630  0.1570  0.1166 -1.9144
   25CHL1   C21 1828   4.636   0.080   8.653  0.2783 -0.1260  0.8831
   25CHL1  H21A 1829   4.716   0.036   8.716  1.4304 -0.9386 -1.0614
   25CHL1  H21B 1830   4.649   0.045   8.549 -0.6042  3.0389 -0.3981
   25CHL1  H21C 1831   4.537   0.049   8.692  0.1639 -0.8627  0.0338
   25CHL1   C22 1832   4.729   0.308   8.556  0.0393  0.3854  0.5886
   25CHL1  H22A 1833   4.702   0.416   8.555 -0.1331  0.3423  0.6683
   25CHL1  H22B 1834   4.835   0.298   8.588  0.9772  1.3185 -1.9027
   25CHL1   C23 1835   4.709   0.260   8.410 -0.1259  0.4170  0.4463
   25CHL1  H23A 1836   4.750   0.157   8.405 -1.7491 -0.2433  0.0029
   25CHL1  H23B 1837   4.603   0.269   8.378  0.1821 -0.7242 -1.0188
   25CHL1   C24 1838   4.791   0.367   8.325  0.0153  0.7662  0.4962
   25CHL1  H24A 1839   4.754   0.467   8.354 -1.3531  0.4621 -0.1260
   25CHL1  H24B 1840   4.897   0.364   8.357 -0.5829  0.1783  2.5516
   25CHL1   C25 1841   4.768   0.374   8.171  0.4745 -0.8197  0.5032
   25CHL1   H25 1842   4.789   0.270   8.139 -2.3027 -0.3570 -3.4723
   25CHL1   C26 1843   4.624   0.420   8.129 -0.2385 -0.2252  0.7517
   25CHL1  H26A 1844   4.603   0.526   8.156 -0.0443  0.0663 -0.1975
   25CHL1  H26B 1845   4.619   0.401   8.020  3.5716 -2.1660  0.7385
   25CHL1  H26C 1846   4.557   0.347   8.179 -1.5176  0.9052  0.7266
   25CHL1   C27 1847   4.867   0.484   8.118 -0.0523  0.2660  0.4009
   25CHL1  H27A 1848   4.831   0.581   8.159 -0.8817 -0.0778  0.5135
   25CHL1  H27B 1849   4.967   0.463   8.163  0.0328  0.0309  0.1017
   25CHL1  H27C 1850   4.871   0.490   8.007  0.8945 -0.3975  0.3876
   26CHL1    C3 1851   0.182   4.188   9.416 -1.4927 -0.0925  0.6247
   26CHL1    H3 1852   0.215   4.083   9.406 -0.8959  0.1813 -0.4988
   26CHL1    O3 1853   0.130   4.226   9.538 -0.3860  0.6099 -0.1960
   26CHL1   H3' 1854   0.050   4.175   9.556 -1.1180  1.6787 -0.3093
   26CHL1    C4 1855   0.294   4.293   9.380 -0.4763 -0.1104 -0.6636
   26CHL1   H4A 1856   0.247   4.390   9.407  0.5270 -0.0530  1.0710
   26CHL1   H4B 1857   0.377   4.266   9.448 -1.0790  2.2031  1.1130
   26CHL1    C5 1858   0.333   4.290   9.235  0.4758  0.8620  0.5751
   26CHL1    C6 1859   0.460   4.285   9.199 -0.3030  0.3168  0.5562
   26CHL1    H6 1860   0.537   4.267   9.276 -1.5802  0.8607  2.0153
   26CHL1    C7 1861   0.508   4.264   9.058 -0.1600 -0.6732 -0.3154
   26CHL1   H7A 1862   0.587   4.336   9.029  0.8237 -1.4777  0.3137
   26CHL1   H7B 1863   0.557   4.165   9.046 -0.3070 -0.5915 -1.7857
   26CHL1    C8 1864   0.392   4.280   8.951 -0.2069 -0.0174  0.2355
   26CHL1    H8 1865   0.375   4.386   8.925 -1.0029 -0.7784 -2.6563
   26CHL1   C14 1866   0.436   4.213   8.821 -1.0435 -0.0183  0.4396
   26CHL1   H14 1867   0.448   4.106   8.848  1.8731  0.1185 -0.0221
   26CHL1   C15 1868   0.575   4.242   8.764 -0.3993 -0.1983  0.6409
   26CHL1  H15A 1869   0.595   4.351   8.770 -0.4643 -0.1633  0.2572
   26CHL1  H15B 1870   0.655   4.185   8.815 -0.6554 -0.9167  0.2604
   26CHL1   C16 1871   0.561   4.192   8.618 -0.2258 -0.2637  0.6922
   26CHL1  H16A 1872   0.580   4.277   8.549 -1.2610 -1.0577 -0.6264
   26CHL1  H16B 1873   0.612   4.098   8.585 -2.9408 -0.8701 -2.3667
   26CHL1   C17 1874   0.419   4.129   8.606 -0.1559  0.8556 -0.1977
   26CHL1   H17 1875   0.426   4.025   8.643  0.7650  0.7938 -0.5185
   26CHL1   C13 1876   0.338   4.211   8.705 -0.0705  0.3837  0.5328
   26CHL1   C18 1877   0.322   4.347   8.643  0.5193 -0.1793 -0.5302
   26CHL1  H18A 1878   0.415   4.396   8.609 -0.3814  1.3722 -0.8438
   26CHL1  H18B 1879   0.254   4.351   8.555  1.4004  2.7459 -1.1864
   26CHL1  H18C 1880   0.274   4.415   8.716 -0.2083 -1.1543 -0.0823
   26CHL1   C12 1881   0.201   4.156   8.761 -0.1016 -0.0111  0.2834
   26CHL1  H12A 1882   0.119   4.149   8.687 -0.5459 -0.1035  0.7761
   26CHL1  H12B 1883   0.229   4.051   8.786  0.8954  0.2161  0.1875
   26CHL1   C11 1884   0.148   4.230   8.888  0.1277  0.5286  0.4619
   26CHL1  H11A 1885   0.116   4.333   8.862  1.7896  0.5219 -1.9556
   26CHL1  H11B 1886   0.063   4.163   8.913  1.7123 -2.3449 -1.3289
   26CHL1    C9 1887   0.259   4.225   8.993  0.7712  0.5513 -0.7308
   26CHL1    H9 1888   0.280   4.118   9.016 -1.2083  0.2689 -0.0847
   26CHL1   C10 1889   0.207   4.278   9.130  0.3268  0.0519 -0.0860
   26CHL1   C19 1890   0.138   4.418   9.117  0.2185 -0.7255  0.2357
   26CHL1  H19A 1891   0.131   4.466   9.217  0.4964 -0.9430  0.3606
   26CHL1  H19B 1892   0.206   4.472   9.049  0.0633  0.2834  0.8549
   26CHL1  H19C 1893   0.038   4.417   9.069  0.0173 -0.0266  0.6092
   26CHL1    C1 1894   0.102   4.168   9.184 -0.1369 -0.2541  0.0025
   26CHL1   H1A 1895   0.011   4.163   9.121  1.2659  2.1966 -2.4324
   26CHL1   H1B 1896   0.154   4.070   9.186  0.6310  0.1447  1.9560
   26CHL1    C2 1897   0.059   4.190   9.322 -0.7598 -0.0215 -1.4577
   26CHL1   H2A 1898  -0.017   4.120   9.363  1.4540 -1.4264  0.4797
   26CHL1   H2B 1899   0.014   4.291   9.336 -1.0656 -0.2912 -0.3298
   26CHL1   C20 1900   0.363   4.120   8.462  0.1120 -0.5125 -0.9071
   26CHL1   H20 1901   0.314   4.213   8.427  0.3983  0.1123  0.2728
   26CHL1   C21 1902   0.258   4.012   8.461 -0.2313 -0.1914  0.8419
   26CHL1  H21A 1903   0.270   3.924   8.529 -0.8368  1.7755  3.6936
   26CHL1  H21B 1904   0.224   3.982   8.360  0.4998  0.3373  0.4305
   26CHL1  H21C 1905   0.163   4.059   8.495 -2.0893 -2.3584 -1.0154
   26CHL1   C22 1906   0.475   4.082   8.358 -0.3002  0.0969  0.3569
   26CHL1  H22A 1907   0.576   4.123   8.380  0.2887 -0.9986 -0.2436
   26CHL1  H22B 1908   0.493   3.973   8.353 -0.0619  0.1135  0.7875
   26CHL1   C23 1909   0.427   4.134   8.221 -0.5103 -0.3043  0.4979
   26CHL1  H23A 1910   0.332   4.085   8.192 -0.9958  0.6659  0.3796
   26CHL1  H23B 1911   0.395   4.241   8.224  0.6506  0.0483  0.6734
   26CHL1   C24 1912   0.526   4.114   8.107 -0.4680 -0.2748  0.6762
   26CHL1  H24A 1913   0.624   4.155   8.141 -0.1318 -0.7335  0.2749
   26CHL1  H24B 1914   0.532   4.006   8.082  0.2926  0.5954 -3.6593
   26CHL1   C25 1915   0.493   4.189   7.979  0.1883 -0.0455 -0.2873
   26CHL1   H25 1916   0.487   4.298   8.002 -0.2991 -0.0312 -0.4718
   26CHL1   C26 1917   0.607   4.180   7.868  0.4926  0.0306 -0.4363
   26CHL1  H26A 1918   0.584   4.248   7.784 -0.6074  0.1623 -0.0460
   26CHL1  H26B 1919   0.705   4.210   7.910  0.2442  1.4544 -0.8369
   26CHL1  H26C 1920   0.614   4.077   7.827 -2.6737 -0.9946  1.2662
   26CHL1   C27 1921   0.359   4.156   7.918  0.4215 -0.0898  0.4482
   26CHL1  H27A 1922   0.366   4.056   7.871  1.1878 -0.7737  1.9391
   26CHL1  H27B 1923   0.281   4.134   7.994  1.6016  1.5825  2.2510
   26CHL1  H27C 1924   0.300   4.228   7.857 -0.6880 -1.7310 -0.4748
   27CHL1    C3 1925   0.153   1.598   9.088 -1.0923  0.2191  0.5508
   27CHL1    H3 1926   0.076   1.661   9.038  1.4462  1.6825 -1.7901
   27CHL1    O3 1927   0.116   1.590   9.228  0.2617  0.2073 -0.2933
   27CHL1   H3' 1928   0.190   1.547   9.272  0.1780  1.8683  1.6403
   27CHL1    C4 1929   0.167   1.457   9.026  0.5863 -0.2400  0.6647
   27CHL1   H4A 1930   0.217   1.389   9.098  0.5143  1.6521  2.5939
   27CHL1   H4B 1931   0.061   1.421   9.027  1.0957 -1.8383  0.1686
   27CHL1    C5 1932   0.223   1.458   8.889  0.0063  0.0589  0.4329
   27CHL1    C6 1933   0.156   1.394   8.788 -0.3773 -0.8066  0.6353
   27CHL1    H6 1934   0.059   1.343   8.804 -0.1122 -2.1935 -1.7289
   27CHL1    C7 1935   0.208   1.377   8.642 -0.5004 -0.4169 -0.6257
   27CHL1   H7A 1936   0.205   1.271   8.608  2.3318 -0.7179 -0.1692
   27CHL1   H7B 1937   0.154   1.442   8.569 -0.7816  2.7330  2.1656
   27CHL1    C8 1938   0.355   1.418   8.636 -0.9347 -0.5531  0.1493
   27CHL1    H8 1939   0.420   1.338   8.677  1.5809  0.2945 -1.8697
   27CHL1   C14 1940   0.386   1.450   8.489  0.2012  0.4231 -0.0341
   27CHL1   H14 1941   0.326   1.537   8.456 -0.0748 -0.3714 -1.7594
   27CHL1   C15 1942   0.353   1.335   8.381  0.3356  0.5255  0.2716
   27CHL1  H15A 1943   0.371   1.235   8.425 -3.4687 -0.6167 -0.4038
   27CHL1  H15B 1944   0.244   1.344   8.363  0.8350  1.6221 -2.7312
   27CHL1   C16 1945   0.436   1.375   8.255  0.4716  0.3596  0.8361
   27CHL1  H16A 1946   0.491   1.280   8.235  0.3071  1.0093 -4.2585
   27CHL1  H16B 1947   0.372   1.407   8.170  1.6928 -0.1058 -0.3031
   27CHL1   C17 1948   0.533   1.491   8.297  0.4338  0.0510  0.4748
   27CHL1   H17 1949   0.485   1.589   8.275 -0.7948 -1.0563 -2.1960
   27CHL1   C13 1950   0.535   1.482   8.457 -0.7521  0.1772 -0.2887
   27CHL1   C18 1951   0.634   1.369   8.495  0.9175  0.2186 -0.6453
   27CHL1  H18A 1952   0.610   1.326   8.594  0.3571  0.5114 -0.6449
   27CHL1  H18B 1953   0.622   1.286   8.422 -1.0742  0.8410 -1.1031
   27CHL1  H18C 1954   0.741   1.395   8.498  1.0846 -0.2971 -1.6465
   27CHL1   C12 1955   0.561   1.612   8.539  0.0413 -0.0929  0.5544
   27CHL1  H12A 1956   0.669   1.636   8.536  0.1799 -0.7155  0.1688
   27CHL1  H12B 1957   0.517   1.696   8.482 -0.1448 -1.1769 -0.9592
   27CHL1   C11 1958   0.530   1.603   8.689 -0.4290 -0.1802 -0.1000
   27CHL1  H11A 1959   0.615   1.542   8.727 -1.0083 -2.1134 -1.7494
   27CHL1  H11B 1960   0.538   1.700   8.742 -0.3168 -0.9043  1.2527
   27CHL1    C9 1961   0.390   1.542   8.725  0.1904  0.1379  0.6710
   27CHL1    H9 1962   0.321   1.628   8.707  0.0494  0.4566  2.4901
   27CHL1   C10 1963   0.361   1.520   8.876 -0.7007 -0.2928  0.1618
   27CHL1   C19 1964   0.469   1.429   8.945 -0.4457 -0.8003 -0.2681
   27CHL1  H19A 1965   0.481   1.335   8.886  2.1473 -0.7325  0.0614
   27CHL1  H19B 1966   0.569   1.477   8.942 -0.3559 -1.0205 -1.7954
   27CHL1  H19C 1967   0.443   1.409   9.051 -1.0128  1.6016  0.1008
   27CHL1    C1 1968   0.360   1.657   8.951 -0.2100  0.1622 -0.8101
   27CHL1   H1A 1969   0.463   1.699   8.951  0.4252 -1.3359 -1.0332
   27CHL1   H1B 1970   0.315   1.735   8.887  0.4574  2.0771  0.9416
   27CHL1    C2 1971   0.294   1.664   9.092  0.3693 -0.8737  0.0629
   27CHL1   H2A 1972   0.288   1.774   9.106  3.8598 -0.5986  0.4385
   27CHL1   H2B 1973   0.356   1.615   9.170 -2.0304 -3.1800  0.6624
   27CHL1   C20 1974   0.673   1.487   8.228 -0.2052 -0.3347 -0.0670
   27CHL1   H20 1975   0.729   1.394   8.253  0.4112  0.0049 -0.1831
   27CHL1   C21 1976   0.759   1.601   8.278 -0.5692  0.9300  1.2421
   27CHL1  H21A 1977   0.715   1.702   8.276  0.0556  1.2410  2.2669
   27CHL1  H21B 1978   0.846   1.604   8.210 -1.9503 -0.4262 -0.7060
   27CHL1  H21C 1979   0.801   1.575   8.378 -0.2262  1.0441  1.1285
   27CHL1   C22 1980   0.654   1.489   8.073 -0.6586 -0.1890  0.8035
   27CHL1  H22A 1981   0.583   1.407   8.051  1.0253 -1.5824  0.3035
   27CHL1  H22B 1982   0.617   1.593   8.062 -2.0690 -0.7983 -0.5837
   27CHL1   C23 1983   0.767   1.473   7.977  0.1881  0.5151 -0.1792
   27CHL1  H23A 1984   0.830   1.562   7.997  0.4752  0.3345 -0.2674
   27CHL1  H23B 1985   0.826   1.380   7.995 -1.9067 -1.2244 -1.7512
   27CHL1   C24 1986   0.703   1.470   7.835 -0.3012  0.1841 -0.5872
   27CHL1  H24A 1987   0.634   1.383   7.826  0.0696  0.0123 -1.8927
   27CHL1  H24B 1988   0.657   1.570   7.816  1.2708  1.0082 -0.1716
   27CHL1   C25 1989   0.812   1.461   7.722 -0.7304 -0.6108  0.3652
   27CHL1   H25 1990   0.876   1.371   7.738 -1.5271 -1.5321 -1.3166
   27CHL1   C26 1991   0.745   1.435   7.584  0.2431 -0.2981  0.2186
   27CHL1  H26A 1992   0.823   1.388   7.519 -0.0240 -2.4220  1.3626
   27CHL1  H26B 1993   0.655   1.375   7.610 -1.6292  2.7542  1.3154
   27CHL1  H26C 1994   0.707   1.532   7.544 -1.4876 -0.4331  1.4296
   27CHL1   C27 1995   0.904   1.590   7.719  0.3462 -0.2111 -0.4970
   27CHL1  H27A 1996   0.996   1.575   7.659 -0.2448 -1.7976 -1.0597
   27CHL1  H27B 1997   0.838   1.673   7.684 -1.1662 -1.5980 -1.0890
   27CHL1  H27C 1998   0.933   1.612   7.824 -0.7417 -3.3406  0.5694
   28CHL1    C3 1999   5.719   6.366   9.323  0.0591 -0.1410  0.0345
   28CHL1    H3 2000   5.751   6.263   9.296 -1.1115  0.0524 -2.4160
   28CHL1    O3 2001   5.699   6.370   9.464 -0.2616  0.4609 -0.4554
   28CHL1   H3' 2002   5.649   6.289   9.478 -0.7350  0.2019 -3.1893
   28CHL1    C4 2003   5.825   6.471   9.284  0.0018  0.2282  0.4734
   28CHL1   H4A 2004   5.793   6.567   9.330  1.4518  1.8770 -1.7559
   28CHL1   H4B 2005   5.921   6.435   9.328  0.6032 -0.7016 -1.4828
   28CHL1    C5 2006   5.840   6.465   9.134 -0.5306 -0.6966  0.4558
   28CHL1    C6 2007   5.958   6.440   9.072  0.0071  0.1855  0.2649
   28CHL1    H6 2008   6.048   6.425   9.134  1.7667 -1.9919 -2.5622
   28CHL1    C7 2009   5.978   6.440   8.921 -0.1126  0.7497  0.6873
   28CHL1   H7A 2010   6.078   6.475   8.889 -0.5285  0.6480 -0.7829
   28CHL1   H7B 2011   5.975   6.334   8.888 -1.3294  0.3804  1.8715
   28CHL1    C8 2012   5.861   6.505   8.842 -0.6986 -0.2452  0.2830
   28CHL1    H8 2013   5.879   6.613   8.864  0.1096  0.0393 -1.6242
   28CHL1   C14 2014   5.872   6.462   8.693  0.4095 -0.3326 -0.4301
   28CHL1   H14 2015   5.843   6.355   8.697  1.2486 -0.5499  0.1009
   28CHL1   C15 2016   6.008   6.483   8.620  0.8495  0.6902  0.6258
   28CHL1  H15A 2017   6.062   6.576   8.649  1.2379  1.1454 -1.3935
   28CHL1  H15B 2018   6.059   6.390   8.652 -2.1846 -0.9763  0.9560
   28CHL1   C16 2019   5.970   6.476   8.468 -0.0031 -0.0177  0.5616
   28CHL1  H16A 2020   5.995   6.571   8.417 -2.2061 -0.5032 -1.6517
   28CHL1  H16B 2021   6.023   6.395   8.414  0.4356  0.9405 -0.4646
   28CHL1   C17 2022   5.815   6.466   8.464  0.5277 -0.2903  0.1440
   28CHL1   H17 2023   5.790   6.358   8.453  1.2971 -0.4730  0.1145
   28CHL1   C13 2024   5.769   6.527   8.603 -1.0877  0.4373  0.3393
   28CHL1   C18 2025   5.789   6.683   8.599  0.0228 -0.1461 -0.3341
   28CHL1  H18A 2026   5.794   6.731   8.699  2.2972 -0.8031 -0.0601
   28CHL1  H18B 2027   5.890   6.705   8.558  0.2049  2.2074  1.2024
   28CHL1  H18C 2028   5.723   6.740   8.530 -0.5680 -1.8965 -1.2728
   28CHL1   C12 2029   5.634   6.484   8.651  0.3638 -0.0127 -0.4652
   28CHL1  H12A 2030   5.552   6.535   8.596 -0.0000  0.1399  0.1944
   28CHL1  H12B 2031   5.624   6.375   8.634 -0.6570  0.2604 -1.7213
   28CHL1   C11 2032   5.611   6.521   8.803 -0.3056  0.3482 -0.0070
   28CHL1  H11A 2033   5.612   6.631   8.815  1.5016  0.0739  3.7176
   28CHL1  H11B 2034   5.512   6.487   8.841 -0.2792 -0.4447 -0.6153
   28CHL1    C9 2035   5.730   6.459   8.899  0.4274 -0.6864  0.4064
   28CHL1    H9 2036   5.725   6.349   8.886 -2.0976 -0.6073  0.1460
   28CHL1   C10 2037   5.708   6.490   9.050 -0.2550  0.4609 -0.8273
   28CHL1   C19 2038   5.666   6.640   9.064  0.8513 -0.2516  0.6724
   28CHL1  H19A 2039   5.562   6.646   9.025  1.2225 -3.2372 -1.0410
   28CHL1  H19B 2040   5.668   6.672   9.170  0.8198  1.6359  0.1369
   28CHL1  H19C 2041   5.728   6.703   8.997 -2.3978  1.7734 -0.7217
   28CHL1    C1 2042   5.603   6.390   9.107  0.2919 -0.0052 -0.9468
   28CHL1   H1A 2043   5.504   6.392   9.057 -0.7258  2.5089  0.9247
   28CHL1   H1B 2044   5.642   6.288   9.091 -1.1640 -1.0435  1.6127
   28CHL1    C2 2045   5.587   6.390   9.262 -0.3161  0.2298  0.7273
   28CHL1   H2A 2046   5.521   6.304   9.285 -0.3804  0.4955  1.5813
   28CHL1   H2B 2047   5.534   6.479   9.300  0.9865  1.4588 -0.2154
   28CHL1   C20 2048   5.749   6.520   8.335 -0.3024 -0.3835 -0.2877
   28CHL1   H20 2049   5.747   6.630   8.351  0.0404 -0.8021  3.2638
   28CHL1   C21 2050   5.606   6.473   8.314  0.3829 -0.3887  0.3342
   28CHL1  H21A 2051   5.538   6.497   8.398 -0.8191 -3.4455  0.3421
   28CHL1  H21B 2052   5.598   6.363   8.304  0.3966 -0.5351  1.7392
   28CHL1  H21C 2053   5.570   6.530   8.225  0.6623  1.2154  1.2084
   28CHL1   C22 2054   5.831   6.501   8.203 -0.0961  0.0931 -0.1324
   28CHL1  H22A 2055   5.773   6.548   8.121 -0.8881 -1.1963 -0.3488
   28CHL1  H22B 2056   5.926   6.559   8.212 -0.0943  0.0433  0.1740
   28CHL1   C23 2057   5.827   6.349   8.167 -1.0938 -0.5309  0.2418
   28CHL1  H23A 2058   5.862   6.280   8.246  1.1080 -0.9886 -1.0276
   28CHL1  H23B 2059   5.723   6.316   8.149 -0.0232 -2.8576 -2.4565
   28CHL1   C24 2060   5.912   6.324   8.038  0.0390 -0.2719  0.0287
   28CHL1  H24A 2061   5.860   6.378   7.956 -1.7928  0.3306  1.5109
   28CHL1  H24B 2062   6.010   6.377   8.043 -0.5131  1.0166 -1.6176
   28CHL1   C25 2063   5.939   6.174   8.021  0.8641  0.0283  0.0194
   28CHL1   H25 2064   5.981   6.142   8.119 -0.4021 -0.4305  0.4261
   28CHL1   C26 2065   5.804   6.097   7.993 -0.2011 -0.7241 -0.6395
   28CHL1  H26A 2066   5.751   6.136   7.903 -0.5827 -0.5617 -0.3457
   28CHL1  H26B 2067   5.838   5.993   7.973 -2.6369 -1.8231  0.5429
   28CHL1  H26C 2068   5.740   6.090   8.083 -0.6495 -0.9738 -0.9739
   28CHL1   C27 2069   6.049   6.151   7.913 -0.2115  0.4322  0.1141
   28CHL1  H27A 2070   6.003   6.189   7.818 -1.8466  0.4360  0.8663
   28CHL1  H27B 2071   6.144   6.189   7.955  0.2740  1.1067 -1.5060
   28CHL1  H27C 2072   6.056   6.043   7.891 -0.8132  0.0343  1.7432
   29CHL1    C3 2073   4.131   5.310   6.155 -0.3545  0.1617  0.4956
   29CHL1    H3 2074   4.045   5.317   6.085 -0.0522  1.0773  0.2104
   29CHL1    O3 2075   4.251   5.312   6.073 -0.0847 -0.3384 -0.4089
   29CHL1   H3' 2076   4.243   5.397   6.030  1.6581 -0.2254 -0.6097
   29CHL1    C4 2077   4.110   5.423   6.264 -0.0255  0.4032  0.0118
   29CHL1   H4A 2078   4.198   5.432   6.331 -0.4008  1.0647  0.4388
   29CHL1   H4B 2079   4.105   5.521   6.212 -1.2867  1.2160  1.5576
   29CHL1    C5 2080   3.995   5.413   6.355 -0.1120  0.0501 -0.1150
   29CHL1    C6 2081   3.898   5.505   6.384 -0.0713 -0.5808 -0.5971
   29CHL1    H6 2082   3.902   5.604   6.336 -2.6903 -0.9321 -1.6926
   29CHL1    C7 2083   3.788   5.485   6.487  0.1453 -0.3693 -0.1378
   29CHL1   H7A 2084   3.784   5.574   6.554  0.8012 -1.9528  2.1538
   29CHL1   H7B 2085   3.693   5.468   6.432 -0.3218  0.7869  0.2833
   29CHL1    C8 2086   3.814   5.364   6.580  0.1830  0.0943 -0.5891
   29CHL1    H8 2087   3.894   5.403   6.646 -0.4228  0.2435  0.0667
   29CHL1   C14 2088   3.688   5.337   6.665 -0.6352 -0.4429  0.5368
   29CHL1   H14 2089   3.601   5.319   6.599 -0.0851 -0.5139 -0.1764
   29CHL1   C15 2090   3.641   5.457   6.755 -0.0542 -0.4207  0.6470
   29CHL1  H15A 2091   3.724   5.500   6.814 -0.6957 -0.5897  1.7126
   29CHL1  H15B 2092   3.573   5.530   6.707  1.7084  0.9976  0.2201
   29CHL1   C16 2093   3.558   5.381   6.864  0.8123 -0.2791  0.3112
   29CHL1  H16A 2094   3.605   5.418   6.958  0.0627  0.2204  0.4973
   29CHL1  H16B 2095   3.451   5.409   6.859  0.5146 -1.5328 -1.1985
   29CHL1   C17 2096   3.570   5.227   6.840 -0.3016 -1.0439  0.8907
   29CHL1   H17 2097   3.490   5.200   6.768 -1.6495  0.8918  1.5592
   29CHL1   C13 2098   3.700   5.220   6.758 -0.2656  0.1795 -0.5777
   29CHL1   C18 2099   3.819   5.232   6.856 -0.4386  0.2659 -0.3208
   29CHL1  H18A 2100   3.811   5.326   6.914  0.7652  0.0749  0.1849
   29CHL1  H18B 2101   3.828   5.139   6.917  0.4629 -0.4972 -1.5620
   29CHL1  H18C 2102   3.913   5.255   6.801 -0.4132  0.2724 -0.2756
   29CHL1   C12 2103   3.721   5.092   6.680  0.1692  0.2203  0.5331
   29CHL1  H12A 2104   3.737   5.007   6.749  0.6920  1.2172  1.6847
   29CHL1  H12B 2105   3.628   5.077   6.622  0.6252  0.6380 -0.3276
   29CHL1   C11 2106   3.843   5.107   6.577 -0.6271  0.0831 -0.7284
   29CHL1  H11A 2107   3.933   5.097   6.641 -1.7540 -2.0377  0.6565
   29CHL1  H11B 2108   3.857   5.022   6.507  0.5183 -1.1806  0.9527
   29CHL1    C9 2109   3.852   5.239   6.500  0.1637 -0.6658  0.0311
   29CHL1    H9 2110   3.770   5.231   6.425 -0.1371 -0.4041  0.3255
   29CHL1   C10 2111   3.983   5.267   6.413 -0.1535  0.7223 -0.6163
   29CHL1   C19 2112   4.105   5.247   6.513 -0.6479  0.3742  0.3194
   29CHL1  H19A 2113   4.132   5.139   6.508 -0.8693  0.2945  0.7983
   29CHL1  H19B 2114   4.201   5.281   6.467  0.7995 -1.8886  1.4779
   29CHL1  H19C 2115   4.102   5.271   6.621  1.9919  2.0220  0.1102
   29CHL1    C1 2116   3.993   5.164   6.298 -0.9062 -0.6173 -0.5223
   29CHL1   H1A 2117   3.980   5.063   6.344 -0.1110 -0.8566 -0.7964
   29CHL1   H1B 2118   3.911   5.177   6.225 -1.4725 -0.6689  0.0948
   29CHL1    C2 2119   4.127   5.175   6.225 -0.5762 -0.4993 -0.3284
   29CHL1   H2A 2120   4.135   5.099   6.144 -0.3138 -0.2500 -0.5395
   29CHL1   H2B 2121   4.219   5.168   6.286 -0.5645 -0.2859 -0.3201
   29CHL1   C20 2122   3.555   5.137   6.957  0.1406 -0.2978 -0.9456
   29CHL1   H20 2123   3.620   5.048   6.943  1.0796  0.7232 -3.6885
   29CHL1   C21 2124   3.415   5.082   6.961  0.0453 -0.1309 -0.4876
   29CHL1  H21A 2125   3.392   5.003   7.037 -0.1648  0.2092 -0.1968
   29CHL1  H21B 2126   3.382   5.049   6.860 -0.2366 -1.2573 -0.0475
   29CHL1  H21C 2127   3.348   5.168   6.981 -0.4813 -0.7038  0.3004
   29CHL1   C22 2128   3.591   5.194   7.098 -0.2475  0.2145  0.0578
   29CHL1  H22A 2129   3.682   5.257   7.096 -0.4607  0.5330  0.2830
   29CHL1  H22B 2130   3.519   5.271   7.134  1.4149  0.6067  2.9144
   29CHL1   C23 2131   3.616   5.089   7.210 -0.2074  0.1717 -0.2123
   29CHL1  H23A 2132   3.521   5.033   7.224  1.2863 -2.4698  0.0697
   29CHL1  H23B 2133   3.685   5.015   7.164 -0.3147  0.3110 -0.6030
   29CHL1   C24 2134   3.697   5.142   7.328 -0.2836  0.4486 -0.5639
   29CHL1  H24A 2135   3.788   5.198   7.297 -0.1341  1.0372  0.8480
   29CHL1  H24B 2136   3.635   5.216   7.383  0.4659  0.4095  0.3546
   29CHL1   C25 2137   3.737   5.039   7.430 -0.9297 -0.0672  0.4273
   29CHL1   H25 2138   3.819   4.980   7.382  0.4104  0.7442  1.6311
   29CHL1   C26 2139   3.788   5.115   7.552 -0.3380  0.0064 -0.4693
   29CHL1  H26A 2140   3.864   5.190   7.524  0.5275 -0.9993 -0.8697
   29CHL1  H26B 2141   3.704   5.178   7.588  1.3233  2.2643 -0.3534
   29CHL1  H26C 2142   3.830   5.045   7.628  3.4125  1.0570 -1.4047
   29CHL1   C27 2143   3.624   4.940   7.476 -0.2967  0.0479  1.0238
   29CHL1  H27A 2144   3.593   4.895   7.379  1.8330  2.6335 -1.0128
   29CHL1  H27B 2145   3.653   4.859   7.545 -1.4255 -0.6627  0.6918
   29CHL1  H27C 2146   3.535   4.994   7.515 -1.5373 -1.1915  0.0129
   30CHL1    C3 2147   2.706   2.151   6.165  0.0234 -0.8065  0.0899
   30CHL1    H3 2148   2.795   2.210   6.193  2.0192 -2.8116 -1.6537
   30CHL1    O3 2149   2.707   2.142   6.024 -0.0449  1.1144 -0.8182
   30CHL1   H3' 2150   2.628   2.091   6.004  1.4001 -1.2073 -0.9126
   30CHL1    C4 2151   2.729   2.006   6.224  0.9526 -0.2422 -0.2884
   30CHL1   H4A 2152   2.649   1.935   6.193  1.9192 -2.0300  1.0815
   30CHL1   H4B 2153   2.823   1.971   6.176  1.3166  1.3237 -0.7586
   30CHL1    C5 2154   2.740   2.019   6.372 -0.4372 -0.6135 -0.0038
   30CHL1    C6 2155   2.856   1.989   6.432 -0.4880 -0.4518 -0.0944
   30CHL1    H6 2156   2.931   1.943   6.367 -2.6282 -2.5820 -1.2276
   30CHL1    C7 2157   2.864   1.985   6.581  0.2112  0.0327 -0.2364
   30CHL1   H7A 2158   2.925   1.896   6.608 -2.1290 -1.0023  2.1034
   30CHL1   H7B 2159   2.924   2.067   6.625 -0.9812  0.1521  1.2484
   30CHL1    C8 2160   2.726   1.984   6.650 -0.4750 -0.0621  0.5970
   30CHL1    H8 2161   2.682   1.883   6.636 -2.2202  0.6442  0.6914
   30CHL1   C14 2162   2.742   2.015   6.798  0.0552  0.4477 -0.8032
   30CHL1   H14 2163   2.790   2.115   6.797 -0.7818  0.8909  0.8221
   30CHL1   C15 2164   2.838   1.930   6.889 -0.2773 -1.1452  0.1687
   30CHL1  H15A 2165   2.823   1.821   6.873 -1.0879 -1.0583  0.2472
   30CHL1  H15B 2166   2.938   1.963   6.855 -1.0371  0.9824 -0.1647
   30CHL1   C16 2167   2.789   1.962   7.033  0.2748  0.2349 -0.4136
   30CHL1  H16A 2168   2.754   1.869   7.084  1.0351  0.2960  0.2539
   30CHL1  H16B 2169   2.865   2.000   7.106 -0.7364  0.3050  0.6404
   30CHL1   C17 2170   2.667   2.064   7.019 -0.0864 -0.2032 -0.2249
   30CHL1   H17 2171   2.701   2.170   7.017  1.0349 -0.5276  0.6031
   30CHL1   C13 2172   2.616   2.033   6.874 -0.5991  0.8787 -1.0171
   30CHL1   C18 2173   2.550   1.896   6.870 -0.0278  0.0992 -0.1942
   30CHL1  H18A 2174   2.464   1.908   6.939  1.0762 -0.8218  1.3968
   30CHL1  H18B 2175   2.511   1.870   6.769  0.3857  0.7528 -0.5264
   30CHL1  H18C 2176   2.617   1.813   6.900  0.3331  0.8428  1.0996
   30CHL1   C12 2177   2.525   2.142   6.817 -0.2713  0.2999 -0.3414
   30CHL1  H12A 2178   2.420   2.151   6.854 -0.7969  2.0707 -2.0727
   30CHL1  H12B 2179   2.573   2.240   6.837  0.2304  0.1917 -0.9629
   30CHL1   C11 2180   2.509   2.136   6.669 -0.1455 -0.4716  0.3017
   30CHL1  H11A 2181   2.434   2.056   6.651 -2.4846  1.8128 -0.7646
   30CHL1  H11B 2182   2.473   2.230   6.622  0.8287 -0.3343 -0.2129
   30CHL1    C9 2183   2.632   2.095   6.587  0.3628  0.3059  0.0255
   30CHL1    H9 2184   2.692   2.188   6.596 -0.8970  1.0854  0.6692
   30CHL1   C10 2185   2.612   2.074   6.435  0.4751 -0.9151 -0.2506
   30CHL1   C19 2186   2.507   1.962   6.418 -0.4293  0.6446  0.4064
   30CHL1  H19A 2187   2.404   1.996   6.443 -1.0624  0.3391 -1.5462
   30CHL1  H19B 2188   2.496   1.913   6.318  0.7501 -1.0774  1.0749
   30CHL1  H19C 2189   2.529   1.875   6.484  0.1290 -0.3751 -1.0604
   30CHL1    C1 2190   2.573   2.211   6.369 -0.2907  0.0165  0.7129
   30CHL1   H1A 2191   2.478   2.253   6.408 -0.4219  1.0970 -0.6668
   30CHL1   H1B 2192   2.654   2.282   6.395 -0.4614 -0.3003  2.2245
   30CHL1    C2 2193   2.571   2.201   6.220  0.5286 -0.2150 -0.6433
   30CHL1   H2A 2194   2.533   2.296   6.175 -1.1115  0.0911  1.2587
   30CHL1   H2B 2195   2.496   2.125   6.190 -1.4445  0.6492  1.7313
   30CHL1   C20 2196   2.558   2.055   7.128 -0.9108  0.2126  0.1586
   30CHL1   H20 2197   2.495   1.965   7.114 -0.9401 -0.5447  3.9643
   30CHL1   C21 2198   2.455   2.175   7.135 -0.4198 -0.0004  0.0516
   30CHL1  H21A 2199   2.399   2.182   7.040 -0.1822  1.0210 -0.0190
   30CHL1  H21B 2200   2.514   2.269   7.140 -0.4333 -0.0294  0.8986
   30CHL1  H21C 2201   2.378   2.157   7.213 -1.9072 -2.7808 -1.8884
   30CHL1   C22 2202   2.616   2.041   7.271  0.3239 -0.0887  0.0517
   30CHL1  H22A 2203   2.714   1.989   7.279  0.8338  1.0581  1.9874
   30CHL1  H22B 2204   2.624   2.146   7.305 -0.8399 -0.1506  0.5662
   30CHL1   C23 2205   2.521   1.980   7.370 -0.1755 -0.1856 -0.2238
   30CHL1  H23A 2206   2.429   2.042   7.381  0.2265  0.2041  1.1155
   30CHL1  H23B 2207   2.492   1.878   7.340  0.4976 -0.6621  0.7104
   30CHL1   C24 2208   2.573   1.969   7.516 -0.1006 -0.5981 -0.0831
   30CHL1  H24A 2209   2.667   1.913   7.504  0.9352  0.9689  0.4213
   30CHL1  H24B 2210   2.597   2.073   7.546  1.8204 -0.4141 -2.0548
   30CHL1   C25 2211   2.479   1.893   7.609  0.6289  0.2106 -0.4365
   30CHL1   H25 2212   2.458   1.791   7.568  5.2469 -0.4561 -1.7498
   30CHL1   C26 2213   2.536   1.864   7.746 -0.4765 -0.1763 -0.0631
   30CHL1  H26A 2214   2.577   1.959   7.788 -0.6186 -0.2777  0.3110
   30CHL1  H26B 2215   2.454   1.847   7.819  0.9043  1.1859  1.9235
   30CHL1  H26C 2216   2.617   1.788   7.743 -1.3352 -1.0958 -3.0873
   30CHL1   C27 2217   2.348   1.973   7.629 -0.0648 -0.1475 -0.9060
   30CHL1  H27A 2218   2.312   2.024   7.538  3.2875 -1.4703 -3.1496
   30CHL1  H27B 2219   2.270   1.907   7.674  0.4412  1.0335  1.9742
   30CHL1  H27C 2220   2.365   2.061   7.695  0.4368 -0.5569 -0.4799
   31CHL1    C3 2221   2.701   4.585   6.466 -0.2290 -0.3454 -0.6597
   31CHL1    H3 2222   2.778   4.505   6.465  0.8957  0.7031 -2.3271
   31CHL1    O3 2223   2.685   4.628   6.334 -0.3240  0.1502 -0.3493
   31CHL1   H3' 2224   2.770   4.661   6.304 -1.1874 -0.5791 -4.0194
   31CHL1    C4 2225   2.571   4.513   6.520 -0.1254 -0.3570 -0.2329
   31CHL1   H4A 2226   2.486   4.583   6.509  0.3487  0.4403  0.8861
   31CHL1   H4B 2227   2.557   4.427   6.452  0.5611  0.1249 -0.9978
   31CHL1    C5 2228   2.593   4.475   6.665  0.5969  0.2899 -0.0157
   31CHL1    C6 2229   2.578   4.351   6.711  0.3463  0.5743  0.3134
   31CHL1    H6 2230   2.545   4.268   6.646  0.1520  0.5015  0.5052
   31CHL1    C7 2231   2.591   4.313   6.852  0.5460 -0.4095 -0.2828
   31CHL1   H7A 2232   2.515   4.238   6.883 -0.2789  0.7978  0.7192
   31CHL1   H7B 2233   2.685   4.258   6.876  0.0515 -1.6009 -1.0451
   31CHL1    C8 2234   2.575   4.439   6.946 -0.5466 -0.6673 -0.5876
   31CHL1    H8 2235   2.466   4.460   6.951 -0.3855  1.1369 -2.8420
   31CHL1   C14 2236   2.628   4.390   7.083 -0.3819  0.3386 -0.5035
   31CHL1   H14 2237   2.736   4.363   7.078 -0.1993  1.1073 -0.8431
   31CHL1   C15 2238   2.564   4.270   7.143 -0.0135 -0.4134 -0.5395
   31CHL1  H15A 2239   2.454   4.281   7.132  0.0599 -0.3834 -1.2878
   31CHL1  H15B 2240   2.591   4.177   7.088 -1.8592 -0.7300 -1.0035
   31CHL1   C16 2241   2.606   4.278   7.294  0.4884 -0.6729 -0.0925
   31CHL1  H16A 2242   2.522   4.262   7.365  0.8916 -1.6056  0.1784
   31CHL1  H16B 2243   2.684   4.202   7.314  2.0040  1.3474  2.0762
   31CHL1   C17 2244   2.674   4.420   7.317 -0.2835  0.2136  0.2461
   31CHL1   H17 2245   2.781   4.392   7.307 -1.2282 -3.2451 -2.1028
   31CHL1   C13 2246   2.629   4.503   7.196  0.3349  0.1178  0.2058
   31CHL1   C18 2247   2.486   4.561   7.216 -0.2727 -0.4067 -0.2434
   31CHL1  H18A 2248   2.415   4.478   7.239 -2.2188  1.1213 -0.5624
   31CHL1  H18B 2249   2.486   4.632   7.301  4.1785 -1.4367  0.8816
   31CHL1  H18C 2250   2.451   4.603   7.120 -0.7464 -3.0402 -1.3224
   31CHL1   C12 2251   2.732   4.606   7.141  0.1920 -0.7928  0.1893
   31CHL1  H12A 2252   2.738   4.692   7.211  1.3149 -0.6092 -0.1118
   31CHL1  H12B 2253   2.834   4.562   7.128  1.1584  1.5155 -0.6454
   31CHL1   C11 2254   2.692   4.662   6.999 -0.7924 -0.1604 -0.4319
   31CHL1  H11A 2255   2.607   4.733   7.009 -2.1415 -1.9888  2.1536
   31CHL1  H11B 2256   2.778   4.722   6.962 -1.5717  0.5029 -1.2251
   31CHL1    C9 2257   2.665   4.554   6.901 -0.4977  0.1805  0.4893
   31CHL1    H9 2258   2.761   4.501   6.884 -0.8167 -0.0149 -0.8261
   31CHL1   C10 2259   2.637   4.598   6.757 -0.4547 -0.5430  0.4534
   31CHL1   C19 2260   2.515   4.692   6.775 -0.0095 -1.1519 -0.3180
   31CHL1  H19A 2261   2.536   4.784   6.833 -4.7640  0.3149 -0.5508
   31CHL1  H19B 2262   2.476   4.741   6.684  0.4877  3.8456  1.8494
   31CHL1  H19C 2263   2.431   4.639   6.824 -0.1417 -0.0467  0.7028
   31CHL1    C1 2264   2.757   4.666   6.699  1.0031  0.4612 -0.5372
   31CHL1   H1A 2265   2.777   4.762   6.751  2.5581  1.0692 -2.1950
   31CHL1   H1B 2266   2.851   4.613   6.723  1.0561  0.5357 -0.5815
   31CHL1    C2 2267   2.744   4.704   6.549 -0.6965  0.2371  0.0785
   31CHL1   H2A 2268   2.844   4.737   6.512 -1.1079 -0.6085 -1.9118
   31CHL1   H2B 2269   2.670   4.786   6.536  0.2960  0.8551 -2.1165
   31CHL1   C20 2270   2.645   4.470   7.456  0.8684 -0.2033 -0.0965
   31CHL1   H20 2271   2.537   4.466   7.480  1.0068  1.2425  0.8511
   31CHL1   C21 2272   2.697   4.610   7.473  0.1578  0.3949  0.0036
   31CHL1  H21A 2273   2.801   4.627   7.440 -0.3361 -0.5189 -2.1416
   31CHL1  H21B 2274   2.684   4.634   7.581 -4.5054  0.8807 -0.4617
   31CHL1  H21C 2275   2.628   4.682   7.423  0.5963  1.3199  0.6995
   31CHL1   C22 2276   2.715   4.377   7.566  0.1873 -0.6269  0.7926
   31CHL1  H22A 2277   2.708   4.270   7.534  2.0535 -0.7534  0.6727
   31CHL1  H22B 2278   2.821   4.410   7.573  0.4274 -1.1499 -0.1145
   31CHL1   C23 2279   2.645   4.382   7.704 -0.6883  0.0145  0.3766
   31CHL1  H23A 2280   2.644   4.488   7.739  0.3357 -0.4657  1.9873
   31CHL1  H23B 2281   2.542   4.343   7.692 -1.1717  1.5526 -0.9010
   31CHL1   C24 2282   2.712   4.293   7.809 -0.5678  0.2764 -0.1010
   31CHL1  H24A 2283   2.734   4.196   7.758 -1.1197  0.8555 -1.4908
   31CHL1  H24B 2284   2.809   4.342   7.834 -1.1092  1.8052 -0.8845
   31CHL1   C25 2285   2.625   4.274   7.938 -0.7966  0.3095 -0.5806
   31CHL1   H25 2286   2.528   4.230   7.908  0.8291 -3.9032 -0.3952
   31CHL1   C26 2287   2.683   4.161   8.028 -0.6997  0.2716  0.0753
   31CHL1  H26A 2288   2.684   4.068   7.967  0.6702  0.4210 -0.1703
   31CHL1  H26B 2289   2.780   4.192   8.071  0.9273 -0.6258 -2.6799
   31CHL1  H26C 2290   2.613   4.145   8.112 -2.0710  1.7901 -0.7320
   31CHL1   C27 2291   2.599   4.396   8.025 -0.2285 -0.2965  0.8670
   31CHL1  H27A 2292   2.690   4.430   8.079  0.4091 -0.8448  0.1745
   31CHL1  H27B 2293   2.514   4.381   8.094 -1.4776 -1.9128 -0.9007
   31CHL1  H27C 2294   2.581   4.474   7.948  6.1342  1.2812  0.3637
   32CHL1    C3 2295   2.506   3.098   6.334 -0.2661 -0.5441  0.5671
   32CHL1    H3 2296   2.584   3.177   6.323  0.3992 -1.3769 -0.9919
   32CHL1    O3 2297   2.469   3.060   6.196 -0.0238  0.1660 -0.6290
   32CHL1   H3' 2298   2.494   2.967   6.190  1.1450  0.3552  0.8886
   32CHL1    C4 2299   2.555   2.977   6.418  0.1643  0.4045 -0.0465
   32CHL1   H4A 2300   2.472   2.904   6.422  0.6885 -0.1589  1.6380
   32CHL1   H4B 2301   2.646   2.938   6.367 -0.7592 -0.6141 -0.9696
   32CHL1    C5 2302   2.582   3.021   6.560 -0.7496 -1.2490 -0.3183
   32CHL1    C6 2303   2.704   2.993   6.611  0.3667  0.5518 -0.3356
   32CHL1    H6 2304   2.786   2.951   6.550  1.6993  2.5681 -0.0378
   32CHL1    C7 2305   2.745   3.036   6.748  0.1671 -0.5372  0.0400
   32CHL1   H7A 2306   2.803   2.957   6.801  0.3960 -0.8680 -0.7040
   32CHL1   H7B 2307   2.813   3.124   6.745  1.9121 -1.8387 -0.6018
   32CHL1    C8 2308   2.619   3.076   6.840 -0.8580 -0.6393  0.4885
   32CHL1    H8 2309   2.571   2.976   6.847 -1.0891 -0.5850 -0.2317
   32CHL1   C14 2310   2.666   3.136   6.969  0.4239  0.4517  0.1388
   32CHL1   H14 2311   2.740   3.216   6.949  0.3081  0.6544  0.5070
   32CHL1   C15 2312   2.736   3.043   7.063 -0.2871  0.3860 -0.2972
   32CHL1  H15A 2313   2.691   2.942   7.052 -1.2528  0.9391 -1.7809
   32CHL1  H15B 2314   2.844   3.023   7.048 -0.5671 -1.2199 -0.2857
   32CHL1   C16 2315   2.720   3.115   7.203  0.7292  0.8497  0.1322
   32CHL1  H16A 2316   2.680   3.033   7.267  0.9017  0.2538 -0.5128
   32CHL1  H16B 2317   2.809   3.164   7.247  0.3739  2.4095 -0.8217
   32CHL1   C17 2318   2.615   3.230   7.183  0.6014 -0.3862  0.2058
   32CHL1   H17 2319   2.676   3.317   7.150  1.8871 -1.8468 -1.4740
   32CHL1   C13 2320   2.550   3.195   7.044  0.5238  0.0495 -0.1035
   32CHL1   C18 2321   2.446   3.082   7.079 -0.1129  0.2825 -0.1300
   32CHL1  H18A 2322   2.488   3.005   7.147  1.0065  1.3756  0.4499
   32CHL1  H18B 2323   2.356   3.121   7.132 -1.3724  0.3580 -2.2259
   32CHL1  H18C 2324   2.419   3.033   6.983 -1.1902  1.3539 -0.4013
   32CHL1   C12 2325   2.484   3.318   6.974 -0.7296  0.1091 -0.3908
   32CHL1  H12A 2326   2.409   3.359   7.045  0.4331  0.4721  0.6574
   32CHL1  H12B 2327   2.570   3.388   6.968 -1.2364  0.6124 -2.2050
   32CHL1   C11 2328   2.431   3.265   6.841 -0.1301  0.2084 -0.6022
   32CHL1  H11A 2329   2.345   3.199   6.866 -0.7358  1.1790 -0.0574
   32CHL1  H11B 2330   2.408   3.349   6.772  2.7704 -0.0185 -2.0069
   32CHL1    C9 2331   2.532   3.176   6.757  0.3780 -0.3513 -0.2508
   32CHL1    H9 2332   2.600   3.254   6.718  0.6531 -0.8698 -0.8292
   32CHL1   C10 2333   2.476   3.110   6.632 -0.8023 -1.0637 -0.5294
   32CHL1   C19 2334   2.359   3.024   6.665 -1.1068 -0.2596  0.4334
   32CHL1  H19A 2335   2.402   2.946   6.732  1.4810 -0.2813 -1.1051
   32CHL1  H19B 2336   2.273   3.076   6.712 -0.4480  0.7975  0.5122
   32CHL1  H19C 2337   2.314   2.976   6.576 -1.3557  0.0945  0.3618
   32CHL1    C1 2338   2.421   3.227   6.542  0.4355  0.2288  0.4900
   32CHL1   H1A 2339   2.333   3.273   6.592  0.6537  1.9128 -0.5746
   32CHL1   H1B 2340   2.495   3.310   6.542 -0.7674  1.3641  2.3228
   32CHL1    C2 2341   2.385   3.169   6.401  0.3990  0.4010  0.2394
   32CHL1   H2A 2342   2.353   3.254   6.337 -0.9211  0.1638  0.5350
   32CHL1   H2B 2343   2.301   3.097   6.390  1.8319 -0.9128 -3.4457
   32CHL1   C20 2344   2.515   3.273   7.297 -0.3821  0.5404 -0.0408
   32CHL1   H20 2345   2.414   3.278   7.252 -1.3598  1.1802  2.0647
   32CHL1   C21 2346   2.555   3.416   7.343  0.3615 -0.0583  0.4687
   32CHL1  H21A 2347   2.560   3.484   7.255  1.1375 -0.4265  0.2104
   32CHL1  H21B 2348   2.646   3.434   7.404  0.6230  0.6323 -0.1166
   32CHL1  H21C 2349   2.477   3.453   7.412  1.2832  1.2361  0.8348
   32CHL1   C22 2350   2.510   3.173   7.413 -0.3661  0.8028 -0.5114
   32CHL1  H22A 2351   2.467   3.079   7.372  2.6231  0.8893 -4.4020
   32CHL1  H22B 2352   2.604   3.161   7.470 -0.5107 -0.3719 -0.4962
   32CHL1   C23 2353   2.405   3.204   7.518 -0.9015 -0.1949 -0.4711
   32CHL1  H23A 2354   2.428   3.137   7.604  2.0194  2.2070  0.8014
   32CHL1  H23B 2355   2.417   3.302   7.568  0.4792 -1.4482  1.8583
   32CHL1   C24 2356   2.251   3.179   7.480 -0.4867  0.0849  1.1157
   32CHL1  H24A 2357   2.224   3.227   7.384 -1.2332 -1.9330  0.2853
   32CHL1  H24B 2358   2.233   3.071   7.467  3.1743 -0.5037 -0.0183
   32CHL1   C25 2359   2.147   3.224   7.587  0.5733  0.2848 -0.2760
   32CHL1   H25 2360   2.148   3.160   7.678  0.4155 -3.0165 -2.4134
   32CHL1   C26 2361   2.158   3.370   7.630 -0.0162 -0.1170 -0.0387
   32CHL1  H26A 2362   2.075   3.389   7.702  1.5122  0.6626  1.5796
   32CHL1  H26B 2363   2.252   3.388   7.686 -0.1047 -0.5887  0.2636
   32CHL1  H26C 2364   2.153   3.434   7.539  0.8300  0.3383  0.2257
   32CHL1   C27 2365   2.006   3.199   7.521 -0.2563 -0.2198  0.0991
   32CHL1  H27A 2366   2.005   3.272   7.438  0.3233  0.9724  1.1044
   32CHL1  H27B 2367   1.983   3.098   7.481 -1.2642 -1.5584  3.6163
   32CHL1  H27C 2368   1.939   3.225   7.606  1.6720 -1.8225  2.2208
   33CHL1    C3 2369   5.062   3.330   6.230  0.5414 -0.0988  0.5891
   33CHL1    H3 2370   4.986   3.250   6.220  0.0068  0.0733  2.7440
   33CHL1    O3 2371   5.056   3.420   6.124 -0.5680 -0.3450  0.2797
   33CHL1   H3' 2372   5.094   3.503   6.155 -2.3291  0.3144  0.8014
   33CHL1    C4 2373   5.038   3.406   6.358  0.4405  0.4467  0.2399
   33CHL1   H4A 2374   5.110   3.491   6.361 -1.3089  2.1650 -2.3355
   33CHL1   H4B 2375   4.940   3.455   6.343  0.1455 -0.2919 -0.2778
   33CHL1    C5 2376   5.045   3.313   6.477  0.1187  0.1626 -0.6585
   33CHL1    C6 2377   4.942   3.302   6.564  0.6701 -0.5038  0.2421
   33CHL1    H6 2378   4.852   3.362   6.546  1.0160 -0.3923 -1.2371
   33CHL1    C7 2379   4.957   3.225   6.694 -0.4701 -0.6208 -0.4334
   33CHL1   H7A 2380   4.919   3.296   6.770  2.6657  0.1016  0.6229
   33CHL1   H7B 2381   4.899   3.130   6.700 -1.5430  0.0392 -0.0977
   33CHL1    C8 2382   5.099   3.193   6.737 -0.0188 -0.2973  0.8840
   33CHL1    H8 2383   5.145   3.289   6.767 -1.3324  1.4027 -2.0861
   33CHL1   C14 2384   5.104   3.095   6.855 -0.1232  0.3295 -0.5949
   33CHL1   H14 2385   5.048   3.002   6.830  0.0697  0.4908 -1.7008
   33CHL1   C15 2386   5.038   3.142   6.989  0.0938  0.5805 -0.2538
   33CHL1  H15A 2387   5.078   3.245   7.000 -0.4851  1.4001 -4.2095
   33CHL1  H15B 2388   4.927   3.131   6.984  0.2331 -1.6577  0.6127
   33CHL1   C16 2389   5.089   3.043   7.091  0.0630  0.0636  0.4118
   33CHL1  H16A 2390   5.107   3.101   7.184 -5.2765  0.7210  1.3396
   33CHL1  H16B 2391   5.012   2.970   7.125 -0.7058 -0.2188 -1.7910
   33CHL1   C17 2392   5.208   2.972   7.023  0.2625  0.7239 -0.2324
   33CHL1   H17 2393   5.176   2.868   7.002  1.8073 -0.4218  2.5575
   33CHL1   C13 2394   5.243   3.047   6.888  0.0942  0.2166  0.0406
   33CHL1   C18 2395   5.323   3.169   6.923 -0.6608 -0.4988 -0.1247
   33CHL1  H18A 2396   5.336   3.236   6.835 -0.5544 -1.2116 -0.6676
   33CHL1  H18B 2397   5.282   3.236   7.001 -0.7152  1.3082 -1.6147
   33CHL1  H18C 2398   5.429   3.151   6.951 -0.8983 -1.0741  0.4325
   33CHL1   C12 2399   5.290   2.959   6.770  0.4206  0.4368 -0.8370
   33CHL1  H12A 2400   5.393   2.923   6.790  0.2714  0.2617 -0.3532
   33CHL1  H12B 2401   5.213   2.881   6.756  0.7452 -0.0433 -0.0184
   33CHL1   C11 2402   5.302   3.040   6.643 -0.6275  0.2798  0.5752
   33CHL1  H11A 2403   5.394   3.102   6.647 -0.0104 -0.6444  1.2460
   33CHL1  H11B 2404   5.305   2.963   6.562  1.9662 -0.3102  1.1571
   33CHL1    C9 2405   5.171   3.127   6.613  0.2389  0.0542 -0.5365
   33CHL1    H9 2406   5.097   3.051   6.581 -0.6934 -0.2516  2.0477
   33CHL1   C10 2407   5.183   3.230   6.492  0.3979  0.2694 -0.1743
   33CHL1   C19 2408   5.295   3.333   6.522 -0.2802  0.1926 -0.1313
   33CHL1  H19A 2409   5.277   3.401   6.608  2.5602  0.8936  0.0150
   33CHL1  H19B 2410   5.395   3.286   6.536 -0.1436 -0.0617 -1.7786
   33CHL1  H19C 2411   5.308   3.401   6.435 -1.1294  1.7473  0.9128
   33CHL1    C1 2412   5.220   3.158   6.354 -0.8582 -0.8734 -0.2402
   33CHL1   H1A 2413   5.325   3.122   6.354  0.1707  1.7148  2.5275
   33CHL1   H1B 2414   5.153   3.070   6.352 -2.9847  0.5561  1.9787
   33CHL1    C2 2415   5.192   3.242   6.230 -0.0438  0.6095 -0.1015
   33CHL1   H2A 2416   5.200   3.176   6.140 -2.8913 -0.1088  0.0824
   33CHL1   H2B 2417   5.272   3.319   6.225  3.8509 -2.6584  3.8467
   33CHL1   C20 2418   5.322   2.959   7.126  0.2787  0.0342 -0.0328
   33CHL1   H20 2419   5.350   3.063   7.155  0.4783 -0.1679  0.5212
   33CHL1   C21 2420   5.444   2.896   7.063  0.1908  0.1506  0.8321
   33CHL1  H21A 2421   5.501   2.968   7.001 -1.8923  0.6362 -0.6314
   33CHL1  H21B 2422   5.421   2.807   7.001  1.4796 -0.1465  0.7666
   33CHL1  H21C 2423   5.524   2.865   7.133  0.2029  1.0827  1.2465
   33CHL1   C22 2424   5.276   2.884   7.252  0.4853 -0.3144  0.4167
   33CHL1  H22A 2425   5.185   2.933   7.294  1.6680  0.5690  2.0523
   33CHL1  H22B 2426   5.262   2.781   7.213  1.7423 -0.0153 -0.8976
   33CHL1   C23 2427   5.376   2.872   7.369  0.0991 -0.1990 -0.0083
   33CHL1  H23A 2428   5.346   2.798   7.445  2.7880  0.1474  1.4878
   33CHL1  H23B 2429   5.473   2.834   7.330 -0.6813 -1.6873 -0.5680
   33CHL1   C24 2430   5.397   3.001   7.451  0.2632 -0.0080  0.0146
   33CHL1  H24A 2431   5.469   3.065   7.395 -0.3142 -0.0245 -0.7626
   33CHL1  H24B 2432   5.306   3.064   7.449 -0.6109 -1.2487 -0.8628
   33CHL1   C25 2433   5.436   2.971   7.588 -0.0496  0.2180 -0.3166
   33CHL1   H25 2434   5.354   2.909   7.631 -1.3655  2.3073  0.3306
   33CHL1   C26 2435   5.570   2.898   7.606 -0.2713 -0.2058 -0.6312
   33CHL1  H26A 2436   5.562   2.809   7.541  0.4822  0.5631 -1.8233
   33CHL1  H26B 2437   5.653   2.960   7.566 -1.4927  2.1364  0.2195
   33CHL1  H26C 2438   5.582   2.864   7.711 -0.3241 -0.0365 -0.5691
   33CHL1   C27 2439   5.429   3.103   7.669 -0.2990  0.6191  0.0818
   33CHL1  H27A 2440   5.437   3.095   7.780  1.1926  3.4063  0.2542
   33CHL1  H27B 2441   5.519   3.165   7.650  2.2039 -2.8256 -0.1677
   33CHL1  H27C 2442   5.340   3.164   7.642 -0.9640 -0.1396  0.5184
   34CHL1    C3 2443   5.008   2.532   6.268  0.0004  0.7051  0.4928
   34CHL1    H3 2444   4.919   2.558   6.330  1.1844 -0.1486  2.6768
   34CHL1    O3 2445   4.985   2.582   6.135 -0.6211  1.1858  0.0397
   34CHL1   H3' 2446   5.047   2.654   6.120  1.4385 -0.6975 -1.0025
   34CHL1    C4 2447   5.137   2.596   6.320  0.1756 -0.0124 -0.2910
   34CHL1   H4A 2448   5.209   2.555   6.245  0.5633  2.4771 -1.3885
   34CHL1   H4B 2449   5.135   2.704   6.296 -0.7458 -0.3725 -2.0293
   34CHL1    C5 2450   5.163   2.549   6.463 -0.7462  0.4687  0.8262
   34CHL1    C6 2451   5.179   2.642   6.562  0.4042  0.4493 -0.7150
   34CHL1    H6 2452   5.166   2.748   6.535 -1.1498  0.7464  0.9904
   34CHL1    C7 2453   5.214   2.608   6.707  0.0083 -0.2155 -0.4809
   34CHL1   H7A 2454   5.287   2.682   6.746  0.1982 -0.1677 -0.9212
   34CHL1   H7B 2455   5.122   2.620   6.769  2.3470 -2.5072  3.9532
   34CHL1    C8 2456   5.262   2.461   6.720  0.4574  0.7816  0.0513
   34CHL1    H8 2457   5.368   2.458   6.687  0.6534  0.1378  0.7230
   34CHL1   C14 2458   5.248   2.421   6.870  0.0488  0.3265  0.8325
   34CHL1   H14 2459   5.140   2.442   6.890 -0.4513 -1.6690  0.3974
   34CHL1   C15 2460   5.313   2.509   6.981 -0.3286  0.2327  0.0186
   34CHL1  H15A 2461   5.418   2.532   6.952 -0.9857  0.0724 -2.7806
   34CHL1  H15B 2462   5.250   2.599   6.997  1.3205  1.6021 -0.8167
   34CHL1   C16 2463   5.292   2.416   7.106 -0.5358  0.0993  0.1771
   34CHL1  H16A 2464   5.386   2.411   7.165 -0.5774 -1.0304  0.1659
   34CHL1  H16B 2465   5.217   2.459   7.176 -0.1489 -0.1709  0.7711
   34CHL1   C17 2466   5.230   2.276   7.056  0.0463 -0.4653 -0.0480
   34CHL1   H17 2467   5.121   2.295   7.056  0.2744  1.0091  0.8250
   34CHL1   C13 2468   5.271   2.276   6.907  0.0433  0.4652  0.3862
   34CHL1   C18 2469   5.424   2.250   6.896 -0.7710  0.6138  0.5405
   34CHL1  H18A 2470   5.459   2.146   6.913  0.2261  0.8774  0.1781
   34CHL1  H18B 2471   5.462   2.291   6.801  0.9211  1.8051  1.6760
   34CHL1  H18C 2472   5.489   2.294   6.975  0.2101 -0.1657  0.1952
   34CHL1   C12 2473   5.190   2.187   6.809 -1.2957 -0.4866 -0.1083
   34CHL1  H12A 2474   5.220   2.082   6.830 -0.2522 -0.3673 -0.8997
   34CHL1  H12B 2475   5.082   2.206   6.823 -0.9916  1.3445 -0.0259
   34CHL1   C11 2476   5.218   2.219   6.664 -0.1842 -0.7428  0.3957
   34CHL1  H11A 2477   5.327   2.203   6.647 -0.2249 -1.7612  0.9569
   34CHL1  H11B 2478   5.152   2.157   6.600 -0.7059 -0.1938  0.3937
   34CHL1    C9 2479   5.182   2.364   6.632 -0.3788 -0.0299  0.2255
   34CHL1    H9 2480   5.075   2.366   6.662 -1.0163 -3.9793 -1.1638
   34CHL1   C10 2481   5.171   2.399   6.479  0.3764  0.8315  0.1704
   34CHL1   C19 2482   5.286   2.340   6.395 -0.2059  0.0315 -0.0965
   34CHL1  H19A 2483   5.284   2.356   6.285  3.9614 -4.1894 -1.1238
   34CHL1  H19B 2484   5.386   2.375   6.431 -0.0857  0.5674 -0.9253
   34CHL1  H19C 2485   5.285   2.229   6.401 -1.7168  0.0376  0.0405
   34CHL1    C1 2486   5.034   2.345   6.428 -0.5255 -0.0771 -0.0862
   34CHL1   H1A 2487   5.028   2.238   6.457 -0.1280 -0.4532 -1.3561
   34CHL1   H1B 2488   4.947   2.392   6.479  0.0749  1.9506 -0.8578
   34CHL1    C2 2489   5.003   2.378   6.279  0.4835 -0.3024  0.4111
   34CHL1   H2A 2490   4.907   2.338   6.241  0.1491 -0.5634  1.4930
   34CHL1   H2B 2491   5.082   2.340   6.211 -1.6786 -0.4221 -2.1924
   34CHL1   C20 2492   5.260   2.156   7.145 -0.4857  0.7210 -0.1948
   34CHL1   H20 2493   5.268   2.070   7.074 -0.0039 -1.8386  2.7454
   34CHL1   C21 2494   5.133   2.119   7.229  0.5019  0.2882  0.6072
   34CHL1  H21A 2495   5.125   2.014   7.265 -0.6886 -0.9301 -2.8196
   34CHL1  H21B 2496   5.048   2.113   7.157  1.5404 -1.7054 -0.5416
   34CHL1  H21C 2497   5.109   2.195   7.306 -0.3744 -0.1178  0.7477
   34CHL1   C22 2498   5.390   2.162   7.224  0.7681  0.0096 -0.2611
   34CHL1  H22A 2499   5.466   2.202   7.153  0.5380  0.1614 -0.4259
   34CHL1  H22B 2500   5.384   2.242   7.301 -2.9716  0.3139 -0.6569
   34CHL1   C23 2501   5.427   2.020   7.287  0.1339  0.6269  1.1036
   34CHL1  H23A 2502   5.363   2.002   7.376 -0.7375 -1.6851  0.0858
   34CHL1  H23B 2503   5.413   1.944   7.208  0.8524  1.9423 -0.3563
   34CHL1   C24 2504   5.576   2.005   7.331 -0.0450 -0.4473 -0.0144
   34CHL1  H24A 2505   5.649   2.037   7.254 -1.3714  0.2109 -1.0450
   34CHL1  H24B 2506   5.601   2.057   7.426  0.3551  1.0066 -0.8943
   34CHL1   C25 2507   5.606   1.868   7.391 -0.6158  0.5794  0.5564
   34CHL1   H25 2508   5.712   1.858   7.424 -0.1536 -0.1217 -1.0431
   34CHL1   C26 2509   5.521   1.838   7.514  0.4776  0.2538  0.1558
   34CHL1  H26A 2510   5.545   1.904   7.600  0.1525 -1.1509  1.3667
   34CHL1  H26B 2511   5.413   1.841   7.487  0.8767  0.1600 -1.6011
   34CHL1  H26C 2512   5.535   1.731   7.541  0.7012  0.1619 -0.3154
   34CHL1   C27 2513   5.586   1.748   7.282  0.2379 -0.6326  0.0076
   34CHL1  H27A 2514   5.606   1.649   7.331  0.0086 -1.0502 -0.7328
   34CHL1  H27B 2515   5.477   1.755   7.263  0.1095 -0.2162  0.8450
   34CHL1  H27C 2516   5.644   1.775   7.192  2.0670  0.2827  1.3860
   35CHL1    C3 2517   2.133   4.559   6.242 -0.3853  0.0679  0.8823
   35CHL1    H3 2518   2.243   4.574   6.246 -0.4689  0.9937  0.1212
   35CHL1    O3 2519   2.099   4.576   6.105  0.0451 -0.0609 -0.1767
   35CHL1   H3' 2520   2.038   4.504   6.083 -1.5714  1.2882 -0.2909
   35CHL1    C4 2521   2.091   4.424   6.285  0.3687 -0.5283  0.1130
   35CHL1   H4A 2522   1.984   4.412   6.256  0.4896  0.6397 -0.8647
   35CHL1   H4B 2523   2.147   4.365   6.209  1.2890  2.5433 -1.7627
   35CHL1    C5 2524   2.114   4.401   6.439  0.2603  0.1010  0.3557
   35CHL1    C6 2525   2.191   4.299   6.476  1.1830  0.1515 -0.2697
   35CHL1    H6 2526   2.241   4.238   6.399  1.7042 -0.7751  0.7621
   35CHL1    C7 2527   2.220   4.271   6.625  0.0189 -0.5854 -0.0956
   35CHL1   H7A 2528   2.200   4.165   6.651  0.8048 -1.0801 -1.4107
   35CHL1   H7B 2529   2.320   4.315   6.646 -0.6122  1.0018 -0.2673
   35CHL1    C8 2530   2.113   4.345   6.712  0.2854  0.6669  0.3134
   35CHL1    H8 2531   2.012   4.302   6.697  1.1064 -1.2059 -0.1646
   35CHL1   C14 2532   2.149   4.332   6.865  0.3793 -0.1393  0.9247
   35CHL1   H14 2533   2.252   4.372   6.878  0.8361 -0.8726 -0.1938
   35CHL1   C15 2534   2.154   4.189   6.928 -0.2398  0.1518  0.8545
   35CHL1  H15A 2535   2.057   4.143   6.898  0.4701  1.0264 -3.4323
   35CHL1  H15B 2536   2.236   4.126   6.887 -1.4341 -0.7910 -0.1611
   35CHL1   C16 2537   2.157   4.222   7.080  0.2783  0.0409 -0.3110
   35CHL1  H16A 2538   2.088   4.167   7.147  1.5807  0.3972  1.3900
   35CHL1  H16B 2539   2.262   4.204   7.112 -0.2006 -0.0815  1.2525
   35CHL1   C17 2540   2.118   4.374   7.094 -0.1963  0.2965  0.2543
   35CHL1   H17 2541   2.216   4.427   7.084 -1.0652  1.6539 -1.7704
   35CHL1   C13 2542   2.059   4.413   6.960  0.3478  0.1846  0.3762
   35CHL1   C18 2543   1.915   4.359   6.961 -0.6890  0.0167  0.0043
   35CHL1  H18A 2544   1.856   4.426   7.028 -1.9053  1.6640 -2.5514
   35CHL1  H18B 2545   1.866   4.345   6.862 -1.1496 -1.9434  0.4669
   35CHL1  H18C 2546   1.908   4.258   7.006  0.2330  0.1428  0.4468
   35CHL1   C12 2547   2.066   4.560   6.926  0.7467  0.5507 -0.8909
   35CHL1  H12A 2548   1.999   4.623   6.988  2.1657  2.8048 -1.5059
   35CHL1  H12B 2549   2.165   4.605   6.949  1.1064 -0.2690 -0.7945
   35CHL1   C11 2550   2.024   4.578   6.781 -0.3524 -0.7021 -0.6019
   35CHL1  H11A 2551   1.917   4.552   6.772 -1.0846  2.1848 -1.0943
   35CHL1  H11B 2552   2.030   4.685   6.751 -1.4098 -0.1022  1.1526
   35CHL1    C9 2553   2.104   4.493   6.676  0.6789  0.5050  0.3610
   35CHL1    H9 2554   2.208   4.532   6.676  1.0397 -0.3979 -0.4609
   35CHL1   C10 2555   2.047   4.503   6.529 -0.0033 -0.1198 -0.5530
   35CHL1   C19 2556   1.893   4.476   6.526  1.1765  0.3538  0.0994
   35CHL1  H19A 2557   1.849   4.476   6.424  0.2220  0.8545  0.4952
   35CHL1  H19B 2558   1.863   4.382   6.577  1.3741 -0.5970 -1.4597
   35CHL1  H19C 2559   1.841   4.561   6.574  1.9481  0.8051  0.1446
   35CHL1    C1 2560   2.073   4.642   6.471  0.0443 -0.8294 -0.4981
   35CHL1   H1A 2561   2.011   4.724   6.514 -0.1557 -1.3900  0.2937
   35CHL1   H1B 2562   2.178   4.667   6.498 -0.1786 -0.5126  0.0834
   35CHL1    C2 2563   2.052   4.655   6.322  0.2561  0.2576 -0.1178
   35CHL1   H2A 2564   2.089   4.756   6.295  1.7295 -0.1924  0.1640
   35CHL1   H2B 2565   1.943   4.643   6.303 -0.0125  0.7184  1.0448
   35CHL1   C20 2566   2.059   4.409   7.234 -0.8284  0.3924  0.2812
   35CHL1   H20 2567   1.954   4.374   7.244 -1.2295  1.8171  1.4422
   35CHL1   C21 2568   2.077   4.561   7.245 -0.3373  0.2785 -0.0649
   35CHL1  H21A 2569   2.056   4.582   7.352 -0.1769  1.0382 -0.1770
   35CHL1  H21B 2570   2.009   4.612   7.174 -2.6561 -4.2077 -1.4012
   35CHL1  H21C 2571   2.182   4.597   7.229  0.1825 -1.5792 -1.0965
   35CHL1   C22 2572   2.133   4.330   7.349  0.5463  1.2059 -0.5717
   35CHL1  H22A 2573   2.118   4.223   7.326 -2.2627  1.6745 -1.3326
   35CHL1  H22B 2574   2.241   4.354   7.349  0.8920 -0.1771  1.2770
   35CHL1   C23 2575   2.076   4.348   7.488 -0.0102 -0.3608 -0.1248
   35CHL1  H23A 2576   2.033   4.450   7.502  0.2966 -0.6086  3.5538
   35CHL1  H23B 2577   1.981   4.290   7.492 -0.7037  0.7358 -0.2719
   35CHL1   C24 2578   2.181   4.315   7.596 -0.2436  0.2035  0.1488
   35CHL1  H24A 2579   2.237   4.224   7.566  1.1999  0.4456  1.9358
   35CHL1  H24B 2580   2.248   4.403   7.607 -0.5237  0.4935 -0.4300
   35CHL1   C25 2581   2.121   4.297   7.740 -0.5281 -0.4459  0.1036
   35CHL1   H25 2582   2.060   4.389   7.752 -0.1998 -0.0897 -0.8415
   35CHL1   C26 2583   2.018   4.180   7.750 -0.0787 -0.2828  0.3974
   35CHL1  H26A 2584   1.980   4.194   7.854  1.3445 -1.5865  1.1454
   35CHL1  H26B 2585   1.936   4.196   7.677  2.0674 -0.2089 -2.1671
   35CHL1  H26C 2586   2.065   4.080   7.738 -1.6062 -0.9344 -0.3238
   35CHL1   C27 2587   2.230   4.293   7.851 -0.2674  0.0307  0.0443
   35CHL1  H27A 2588   2.304   4.212   7.833  0.2418  0.5634 -0.2607
   35CHL1  H27B 2589   2.200   4.292   7.958  1.2402 -0.3747  0.4818
   35CHL1  H27C 2590   2.293   4.383   7.840 -0.0935 -0.2511 -1.5132
   36CHL1    C3 2591   2.163   2.348   6.341 -0.3606 -0.6178 -0.0791
   36CHL1    H3 2592   2.270   2.318   6.349  0.6007  1.7447 -2.4715
   36CHL1    O3 2593   2.142   2.424   6.223 -0.0024 -0.4055  0.6108
   36CHL1   H3' 2594   2.052   2.396   6.204 -0.3775  0.6433  0.8136
   36CHL1    C4 2595   2.058   2.231   6.332 -0.2313 -0.1466  0.5017
   36CHL1   H4A 2596   1.955   2.270   6.322  0.3440  1.2372 -0.3028
   36CHL1   H4B 2597   2.087   2.175   6.240 -2.1999  0.3059 -0.4613
   36CHL1    C5 2598   2.081   2.153   6.459  0.2464  0.0304  0.0493
   36CHL1    C6 2599   2.125   2.027   6.454 -0.4101  0.1981  0.0535
   36CHL1    H6 2600   2.146   1.988   6.354 -0.7584  2.3029 -0.9016
   36CHL1    C7 2601   2.131   1.927   6.565 -0.4758  1.0715  0.4290
   36CHL1   H7A 2602   2.079   1.832   6.539 -0.5515  0.9373  1.0660
   36CHL1   H7B 2603   2.240   1.916   6.585 -0.1906  2.1298 -0.4334
   36CHL1    C8 2604   2.056   1.973   6.692  0.2445  0.7742 -0.0331
   36CHL1    H8 2605   1.947   1.959   6.676  0.1250  2.0878 -0.4197
   36CHL1   C14 2606   2.101   1.891   6.814 -0.2363 -0.3808 -0.0090
   36CHL1   H14 2607   2.209   1.914   6.824 -0.5313  0.5772  1.0172
   36CHL1   C15 2608   2.098   1.734   6.805  0.6607 -0.4483  0.1039
   36CHL1  H15A 2609   2.010   1.688   6.754  0.6940 -1.6814  1.1158
   36CHL1  H15B 2610   2.188   1.717   6.742  0.8087  2.3131 -0.5750
   36CHL1   C16 2611   2.096   1.696   6.957 -0.1767  0.1645  1.1170
   36CHL1  H16A 2612   1.992   1.662   6.974 -0.6326  1.2098  0.5374
   36CHL1  H16B 2613   2.174   1.622   6.984 -0.9858 -1.8113 -1.5520
   36CHL1   C17 2614   2.118   1.831   7.031  1.1095  0.7114 -1.2744
   36CHL1   H17 2615   2.228   1.850   7.027  0.8716  2.9189  0.5588
   36CHL1   C13 2616   2.054   1.939   6.944 -0.1739 -0.3204  0.4856
   36CHL1   C18 2617   1.899   1.929   6.957 -0.0525 -0.6149  0.7427
   36CHL1  H18A 2618   1.869   1.823   6.974 -1.6132 -0.2733  0.2314
   36CHL1  H18B 2619   1.866   1.982   7.049  0.9701  1.4316 -0.0099
   36CHL1  H18C 2620   1.853   1.969   6.864  2.1003 -0.8165 -0.4726
   36CHL1   C12 2621   2.092   2.089   6.973 -0.6103 -0.4620  0.7552
   36CHL1  H12A 2622   2.053   2.126   7.070  0.8892 -0.2683  1.2997
   36CHL1  H12B 2623   2.202   2.085   6.963 -0.7274 -0.0581 -1.0781
   36CHL1   C11 2624   2.048   2.179   6.851  0.1896  0.1013  0.0309
   36CHL1  H11A 2625   1.937   2.186   6.859 -0.0406 -2.6338  0.1407
   36CHL1  H11B 2626   2.092   2.279   6.869  1.7145 -0.2857 -1.2686
   36CHL1    C9 2627   2.089   2.125   6.710 -0.2935 -0.7520 -0.1527
   36CHL1    H9 2628   2.200   2.130   6.709 -0.2834 -0.1983 -2.2177
   36CHL1   C10 2629   2.040   2.218   6.593 -0.5805  0.2819 -0.0370
   36CHL1   C19 2630   1.891   2.254   6.606  0.9117 -0.1048  0.4148
   36CHL1  H19A 2631   1.831   2.162   6.584 -0.0018  1.2506 -3.6191
   36CHL1  H19B 2632   1.854   2.307   6.697  0.9454  1.5938 -0.5285
   36CHL1  H19C 2633   1.854   2.322   6.527  0.0943  0.0485  0.9118
   36CHL1    C1 2634   2.121   2.351   6.590  0.4012 -0.0402 -0.0464
   36CHL1   H1A 2635   2.076   2.416   6.668  1.1109  0.9543 -0.4384
   36CHL1   H1B 2636   2.222   2.330   6.631  0.6929  2.4222  0.6724
   36CHL1    C2 2637   2.128   2.433   6.465 -0.4472 -0.5100 -0.4697
   36CHL1   H2A 2638   2.202   2.516   6.467 -0.4964 -0.4214  3.0442
   36CHL1   H2B 2639   2.032   2.486   6.444  1.1879  2.0527 -1.9338
   36CHL1   C20 2640   2.085   1.822   7.184 -0.3078  0.0883 -0.4366
   36CHL1   H20 2641   2.004   1.891   7.218  0.9732  1.5843 -0.3284
   36CHL1   C21 2642   2.219   1.859   7.253  0.0046  0.0240  0.0866
   36CHL1  H21A 2643   2.195   1.873   7.360 -1.5064  1.5677 -0.4007
   36CHL1  H21B 2644   2.253   1.949   7.198  0.1460 -0.4666 -0.6532
   36CHL1  H21C 2645   2.291   1.777   7.232  0.4176  0.2091  0.7570
   36CHL1   C22 2646   2.039   1.679   7.247 -0.5530 -0.5866  0.0503
   36CHL1  H22A 2647   2.100   1.605   7.192 -0.4103  2.2406 -4.0791
   36CHL1  H22B 2648   2.076   1.700   7.350  0.9628  1.1939 -0.7935
   36CHL1   C23 2649   1.889   1.660   7.256 -1.0776 -0.1679 -0.7772
   36CHL1  H23A 2650   1.857   1.746   7.318  2.0982  2.0520 -1.9081
   36CHL1  H23B 2651   1.847   1.676   7.155 -2.1574  0.8209 -0.1882
   36CHL1   C24 2652   1.852   1.526   7.307 -0.1953  0.1072 -0.2526
   36CHL1  H24A 2653   1.900   1.448   7.243  1.5776  2.0997 -1.4794
   36CHL1  H24B 2654   1.884   1.512   7.412 -1.3857 -3.7020 -0.2526
   36CHL1   C25 2655   1.702   1.490   7.297 -0.2602  0.3365  0.3628
   36CHL1   H25 2656   1.672   1.490   7.190 -0.3914  0.4177  0.4007
   36CHL1   C26 2657   1.669   1.344   7.354  0.0812 -0.7900  0.5409
   36CHL1  H26A 2658   1.671   1.339   7.465 -1.2055  0.5877  0.6571
   36CHL1  H26B 2659   1.561   1.327   7.336 -0.3448 -0.5624  2.6412
   36CHL1  H26C 2660   1.730   1.263   7.308 -0.1978  0.1801 -1.6313
   36CHL1   C27 2661   1.627   1.595   7.366  0.1572 -0.0494 -0.3592
   36CHL1  H27A 2662   1.630   1.688   7.306 -3.0143 -0.1558 -0.8604
   36CHL1  H27B 2663   1.517   1.581   7.378 -0.3154  1.4291 -2.3607
   36CHL1  H27C 2664   1.681   1.625   7.458  0.3360 -1.2905 -0.0360
   37CHL1    C3 2665   4.339   5.888   6.080  0.0266 -0.5568 -0.1898
   37CHL1    H3 2666   4.251   5.823   6.059 -0.9785 -0.2220  2.5795
   37CHL1    O3 2667   4.363   5.956   5.964 -0.0040 -0.3144  0.1918
   37CHL1   H3' 2668   4.419   6.032   5.978  0.0242  0.2051 -2.2173
   37CHL1    C4 2669   4.301   5.990   6.185  0.2057  0.2422 -0.2815
   37CHL1   H4A 2670   4.389   6.058   6.197  0.1075  0.5926 -1.3666
   37CHL1   H4B 2671   4.221   6.051   6.136  1.0432  0.3314 -1.6017
   37CHL1    C5 2672   4.261   5.927   6.312  1.0136 -0.1962 -0.5627
   37CHL1    C6 2673   4.138   5.947   6.356 -0.6243  0.1308  0.7265
   37CHL1    H6 2674   4.069   6.011   6.298  0.4600  2.4077  1.8203
   37CHL1    C7 2675   4.082   5.888   6.484 -0.1971 -0.2155 -0.0398
   37CHL1   H7A 2676   4.039   5.966   6.552  1.9860  2.2616 -1.3471
   37CHL1   H7B 2677   4.007   5.813   6.451 -1.3602  0.8573  0.0638
   37CHL1    C8 2678   4.193   5.812   6.572  0.0569  0.6167  0.2472
   37CHL1    H8 2679   4.236   5.895   6.633 -1.1201  1.9799 -0.6954
   37CHL1   C14 2680   4.135   5.706   6.667  0.5633  0.6099  0.0708
   37CHL1   H14 2681   4.111   5.623   6.597 -0.2333  0.6666  0.2763
   37CHL1   C15 2682   3.998   5.735   6.741  0.2942 -0.4739  1.1317
   37CHL1  H15A 2683   3.998   5.838   6.784  1.9259 -0.4428  1.1152
   37CHL1  H15B 2684   3.911   5.728   6.673  0.8326 -0.0114  0.3881
   37CHL1   C16 2685   3.997   5.635   6.850  0.2881 -1.4539 -0.1122
   37CHL1  H16A 2686   3.986   5.688   6.947 -0.1273 -3.2032  0.8447
   37CHL1  H16B 2687   3.906   5.571   6.850 -1.3185  0.7382  0.5493
   37CHL1   C17 2688   4.138   5.558   6.852  0.5440 -0.0847  1.4651
   37CHL1   H17 2689   4.129   5.468   6.788 -0.1405  1.3304 -0.5154
   37CHL1   C13 2690   4.230   5.652   6.766 -0.7362 -0.1516 -0.6839
   37CHL1   C18 2691   4.285   5.763   6.861  0.4130 -0.3485  0.1696
   37CHL1  H18A 2692   4.312   5.860   6.814 -0.2032  0.7370  1.9749
   37CHL1  H18B 2693   4.203   5.797   6.927  0.7516  0.8165  0.0122
   37CHL1  H18C 2694   4.366   5.720   6.923 -0.5826 -2.5606  0.0354
   37CHL1   C12 2695   4.351   5.589   6.693  0.0260 -0.1470  0.0859
   37CHL1  H12A 2696   4.426   5.544   6.761 -0.3697 -0.4707  0.3113
   37CHL1  H12B 2697   4.316   5.501   6.635  0.1604  0.7831 -1.4648
   37CHL1   C11 2698   4.409   5.682   6.590 -0.2847  0.6671 -0.0891
   37CHL1  H11A 2699   4.454   5.767   6.645  2.8759 -1.3083  0.6452
   37CHL1  H11B 2700   4.482   5.627   6.527 -0.3487  0.0346  0.3727
   37CHL1    C9 2701   4.298   5.744   6.497 -0.2020 -0.1334  0.2521
   37CHL1    H9 2702   4.252   5.655   6.449  1.1320 -0.1063 -1.1710
   37CHL1   C10 2703   4.359   5.835   6.378 -0.4366  0.8456  0.0717
   37CHL1   C19 2704   4.473   5.918   6.439  0.8881 -0.2439 -0.5407
   37CHL1  H19A 2705   4.444   5.969   6.534  0.4741 -0.3327 -0.6178
   37CHL1  H19B 2706   4.546   5.836   6.454 -0.4453 -1.0228  2.3967
   37CHL1  H19C 2707   4.510   5.990   6.363 -0.7295 -1.6374 -2.7838
   37CHL1    C1 2708   4.417   5.734   6.262 -0.5081  0.1246  0.0384
   37CHL1   H1A 2709   4.503   5.672   6.295 -1.0662  0.4767  2.3457
   37CHL1   H1B 2710   4.340   5.660   6.233 -0.8195 -0.1234  1.3915
   37CHL1    C2 2711   4.457   5.809   6.129 -0.3666 -0.5462 -0.0568
   37CHL1   H2A 2712   4.490   5.729   6.059 -0.2978 -0.2674 -0.3390
   37CHL1   H2B 2713   4.546   5.871   6.151 -1.8985  2.0990 -0.8567
   37CHL1   C20 2714   4.184   5.522   7.001  0.1377  0.3139 -0.0526
   37CHL1   H20 2715   4.192   5.618   7.057 -0.8896 -0.5218  1.6209
   37CHL1   C21 2716   4.323   5.456   7.002 -0.8705 -0.1716  0.3630
   37CHL1  H21A 2717   4.407   5.523   6.975  1.2165 -1.6716  2.6594
   37CHL1  H21B 2718   4.313   5.383   6.920 -1.8732  1.7268 -1.2847
   37CHL1  H21C 2719   4.371   5.426   7.098 -1.0981  0.5353  0.7029
   37CHL1   C22 2720   4.096   5.419   7.076  0.5196  0.7936  0.2976
   37CHL1  H22A 2721   3.989   5.439   7.055 -0.0843 -0.5419  1.9403
   37CHL1  H22B 2722   4.118   5.314   7.045 -0.2898  0.6166  0.3117
   37CHL1   C23 2723   4.103   5.435   7.229  0.7156  0.6729 -0.6593
   37CHL1  H23A 2724   4.046   5.351   7.274  0.4196  0.5431 -1.2607
   37CHL1  H23B 2725   4.207   5.433   7.267  0.3584  1.1883  0.3841
   37CHL1   C24 2726   4.048   5.571   7.266  0.2252 -0.3012  0.3718
   37CHL1  H24A 2727   4.119   5.650   7.235 -0.4082  0.9924  2.0200
   37CHL1  H24B 2728   3.945   5.586   7.226  0.0770  0.7803  1.1197
   37CHL1   C25 2729   4.029   5.588   7.417  0.0423  0.5165  0.0767
   37CHL1   H25 2730   4.133   5.580   7.457 -0.6609 -1.1158  1.6967
   37CHL1   C26 2731   3.987   5.723   7.465  0.0286 -0.4665  0.3166
   37CHL1  H26A 2732   3.883   5.754   7.444  0.4340  0.6380 -0.1630
   37CHL1  H26B 2733   3.996   5.728   7.575 -1.1275 -1.4741  0.4705
   37CHL1  H26C 2734   4.053   5.804   7.428 -2.4941  1.5494 -0.0227
   37CHL1   C27 2735   3.939   5.475   7.490 -0.5258  0.0184  0.4440
   37CHL1  H27A 2736   3.917   5.507   7.594  2.2798 -0.4213  1.2512
   37CHL1  H27B 2737   3.844   5.464   7.433 -0.9719 -0.0918  1.1933
   37CHL1  H27C 2738   3.999   5.382   7.490  0.7014  0.7929  1.0604
   38CHL1    C3 2739   2.600   5.291   6.339  0.3323 -0.5450 -0.4411
   38CHL1    H3 2740   2.492   5.268   6.340  0.3413 -0.8815 -2.6308
   38CHL1    O3 2741   2.634   5.327   6.210 -0.0077  0.4726  0.2456
   38CHL1   H3' 2742   2.584   5.406   6.187 -1.8372 -0.6547  0.1272
   38CHL1    C4 2743   2.630   5.413   6.431 -0.3040  0.1519  0.6471
   38CHL1   H4A 2744   2.732   5.449   6.410  0.2043 -1.0806  0.8976
   38CHL1   H4B 2745   2.571   5.499   6.392  2.7648  0.1043 -5.1631
   38CHL1    C5 2746   2.614   5.381   6.578 -0.3942  0.2983  0.3783
   38CHL1    C6 2747   2.537   5.450   6.657  0.2202  0.8771 -0.4722
   38CHL1    H6 2748   2.477   5.533   6.618  0.1059  1.2811  0.5359
   38CHL1    C7 2749   2.528   5.437   6.808  0.2475 -0.1905 -0.1813
   38CHL1   H7A 2750   2.546   5.535   6.857 -1.4427 -1.5058  3.4878
   38CHL1   H7B 2751   2.425   5.404   6.834 -0.1013  1.1033  0.1380
   38CHL1    C8 2752   2.630   5.335   6.858  0.3241 -0.1226 -0.3024
   38CHL1    H8 2753   2.725   5.392   6.873 -0.0074 -0.1925  2.7289
   38CHL1   C14 2754   2.604   5.299   7.001 -0.7741  0.2283  0.4206
   38CHL1   H14 2755   2.502   5.254   6.998 -0.8111  0.3581 -0.4804
   38CHL1   C15 2756   2.599   5.418   7.095 -0.1174  0.5318  0.3978
   38CHL1  H15A 2757   2.687   5.483   7.080  0.2874 -0.4001 -1.5902
   38CHL1  H15B 2758   2.501   5.469   7.078 -0.3966 -0.4310 -1.1138
   38CHL1   C16 2759   2.606   5.344   7.237  0.2205 -0.4429 -0.5313
   38CHL1  H16A 2760   2.684   5.394   7.298 -0.7605 -0.6696  0.9599
   38CHL1  H16B 2761   2.507   5.351   7.286  0.6496 -0.0706  0.2958
   38CHL1   C17 2762   2.641   5.193   7.210 -0.0501  0.1386 -0.3794
   38CHL1   H17 2763   2.540   5.149   7.200 -0.5682  1.5463 -1.6280
   38CHL1   C13 2764   2.697   5.196   7.068  0.6413  0.4276  0.2737
   38CHL1   C18 2765   2.839   5.240   7.072  1.2230  0.4748  0.6028
   38CHL1  H18A 2766   2.876   5.276   6.974 -1.7918  1.4365 -0.2996
   38CHL1  H18B 2767   2.845   5.317   7.152 -0.2570 -1.7855  3.0614
   38CHL1  H18C 2768   2.896   5.147   7.094 -2.7029 -2.8687 -1.8604
   38CHL1   C12 2769   2.685   5.058   6.984 -0.4020 -0.5145 -0.6933
   38CHL1  H12A 2770   2.757   4.978   7.012 -1.4341 -1.1810  0.1446
   38CHL1  H12B 2771   2.579   5.024   6.987 -0.6617  0.3271  0.7582
   38CHL1   C11 2772   2.719   5.092   6.841 -0.8634  0.1108  0.1383
   38CHL1  H11A 2773   2.823   5.131   6.837 -1.2723  1.1353 -0.7647
   38CHL1  H11B 2774   2.715   5.001   6.777  1.5058 -1.7738  2.4401
   38CHL1    C9 2775   2.643   5.211   6.769 -0.0785 -0.6511 -0.1841
   38CHL1    H9 2776   2.538   5.179   6.752 -0.2744  0.0625 -0.3396
   38CHL1   C10 2777   2.688   5.253   6.627  0.4784  0.6874  0.8193
   38CHL1   C19 2778   2.840   5.288   6.623  0.3374  0.0525  0.7518
   38CHL1  H19A 2779   2.872   5.350   6.709 -0.0706 -2.4864  2.8574
   38CHL1  H19B 2780   2.885   5.187   6.630 -0.5798 -0.4682 -0.3872
   38CHL1  H19C 2781   2.878   5.321   6.524 -0.1305 -2.1006 -0.2026
   38CHL1    C1 2782   2.652   5.135   6.526  0.2798 -0.1177  0.5491
   38CHL1   H1A 2783   2.715   5.052   6.566  3.2814  1.9690  0.4405
   38CHL1   H1B 2784   2.544   5.109   6.533  0.1079  0.8565  1.7560
   38CHL1    C2 2785   2.683   5.173   6.377  0.7199  0.4196 -0.3695
   38CHL1   H2A 2786   2.645   5.093   6.309 -1.3104  1.1072 -0.0875
   38CHL1   H2B 2787   2.791   5.191   6.355  0.4797  1.1652 -0.9492
   38CHL1   C20 2788   2.712   5.126   7.331 -0.4159  0.5004  0.0764
   38CHL1   H20 2789   2.818   5.160   7.335 -0.5438  0.8887  0.1931
   38CHL1   C21 2790   2.715   4.971   7.298 -0.4134  0.1017  0.1224
   38CHL1  H21A 2791   2.754   4.916   7.387  0.1842 -1.1663 -0.8790
   38CHL1  H21B 2792   2.783   4.960   7.211  0.3008  2.9017  0.2412
   38CHL1  H21C 2793   2.615   4.928   7.274 -0.5820 -0.8768  2.2914
   38CHL1   C22 2794   2.650   5.160   7.467 -0.3806  0.4221 -0.7389
   38CHL1  H22A 2795   2.672   5.267   7.486  2.4580 -0.4042  1.3089
   38CHL1  H22B 2796   2.539   5.152   7.463 -0.5441  0.7150  1.4644
   38CHL1   C23 2797   2.694   5.072   7.584 -0.7428 -0.1274 -0.4922
   38CHL1  H23A 2798   2.657   4.970   7.560 -0.1011 -0.2686 -0.9127
   38CHL1  H23B 2799   2.804   5.061   7.594 -0.5792  0.9472 -0.9711
   38CHL1   C24 2800   2.647   5.127   7.721 -0.5331  0.4782 -0.2140
   38CHL1  H24A 2801   2.680   5.229   7.752 -1.1235  0.9953 -1.2115
   38CHL1  H24B 2802   2.536   5.125   7.714 -0.6486  1.4098  1.0171
   38CHL1   C25 2803   2.684   5.026   7.841 -0.0150  0.3434 -0.7968
   38CHL1   H25 2804   2.674   4.922   7.803 -1.2164  1.2036 -3.0400
   38CHL1   C26 2805   2.832   5.036   7.862  0.2177  0.0309  0.6669
   38CHL1  H26A 2806   2.863   5.143   7.853  2.1073 -0.5075  0.4420
   38CHL1  H26B 2807   2.871   4.993   7.957  1.5086 -1.1445 -0.3567
   38CHL1  H26C 2808   2.873   4.984   7.773 -1.4692 -0.3057  0.0409
   38CHL1   C27 2809   2.613   5.044   7.974 -0.1104 -0.4790  0.3877
   38CHL1  H27A 2810   2.622   5.150   8.006 -0.0379 -0.5138  0.4844
   38CHL1  H27B 2811   2.506   5.020   7.958 -0.1974  0.6490 -0.9636
   38CHL1  H27C 2812   2.652   4.986   8.061 -0.7811  1.2056  1.8796
   39CHL1    C3 2813   2.195   5.171   6.456  0.3060 -0.4200 -0.0486
   39CHL1    H3 2814   2.304   5.154   6.450 -0.0722 -2.8276 -2.1131
   39CHL1    O3 2815   2.133   5.165   6.328 -0.0702  0.0052 -0.5705
   39CHL1   H3' 2816   2.153   5.253   6.294 -0.4888  0.6853  0.8672
   39CHL1    C4 2817   2.135   5.046   6.531  0.2768  0.0220 -0.9295
   39CHL1   H4A 2818   2.025   5.035   6.537  0.4183 -0.8650  0.6250
   39CHL1   H4B 2819   2.168   4.955   6.477  0.5448 -1.9228  2.2151
   39CHL1    C5 2820   2.183   5.049   6.675 -0.2624  0.3046 -0.1404
   39CHL1    C6 2821   2.241   4.944   6.730  0.2073 -0.5581 -0.1593
   39CHL1    H6 2822   2.261   4.854   6.670  0.7034 -0.3211 -0.3524
   39CHL1    C7 2823   2.259   4.932   6.879  1.0112 -0.5956 -0.8073
   39CHL1   H7A 2824   2.211   4.835   6.903 -1.1786  0.7164  0.4980
   39CHL1   H7B 2825   2.367   4.940   6.904  1.1444  0.4344 -1.6463
   39CHL1    C8 2826   2.181   5.042   6.955  0.4420  0.0018  0.0582
   39CHL1    H8 2827   2.074   5.014   6.962  0.2379  0.0911 -2.1201
   39CHL1   C14 2828   2.230   5.044   7.106  0.3738  0.2886 -0.3697
   39CHL1   H14 2829   2.337   5.071   7.105  0.8815 -1.4921  0.9650
   39CHL1   C15 2830   2.225   4.911   7.179 -0.1690 -0.1778 -0.8196
   39CHL1  H15A 2831   2.122   4.871   7.167 -0.5855  0.3492  0.7467
   39CHL1  H15B 2832   2.306   4.839   7.154  0.8627  0.1472  1.4016
   39CHL1   C16 2833   2.243   4.947   7.327 -0.1693 -0.0128 -0.1312
   39CHL1  H16A 2834   2.170   4.898   7.395  1.1847 -2.0061 -0.0101
   39CHL1  H16B 2835   2.342   4.912   7.366 -0.6170 -2.6800 -1.1319
   39CHL1   C17 2836   2.225   5.103   7.335  0.4279 -0.7954  0.0474
   39CHL1   H17 2837   2.329   5.135   7.317  0.0096 -0.1812 -1.4202
   39CHL1   C13 2838   2.163   5.150   7.196 -0.5248 -0.4986 -0.0326
   39CHL1   C18 2839   2.015   5.135   7.193  0.1415 -0.0397 -0.4661
   39CHL1  H18A 2840   1.964   5.139   7.094  1.3409  1.2339 -1.0705
   39CHL1  H18B 2841   1.983   5.048   7.254  0.5865 -0.1654 -0.4082
   39CHL1  H18C 2842   1.965   5.215   7.252 -2.4366 -0.9035 -1.3427
   39CHL1   C12 2843   2.206   5.285   7.136 -0.2619 -0.6973  0.1446
   39CHL1  H12A 2844   2.166   5.373   7.190  3.1852  0.2543  1.3864
   39CHL1  H12B 2845   2.316   5.298   7.145 -0.6363  4.4137 -0.1227
   39CHL1   C11 2846   2.161   5.293   6.990  0.2454 -0.5671  0.4541
   39CHL1  H11A 2847   2.051   5.301   6.994  0.1659  0.0413 -1.6030
   39CHL1  H11B 2848   2.180   5.394   6.947 -3.4377  1.0258  2.1409
   39CHL1    C9 2849   2.192   5.177   6.895  0.4078 -0.3180  0.2407
   39CHL1    H9 2850   2.303   5.188   6.889  0.4399 -0.4682  0.5186
   39CHL1   C10 2851   2.133   5.177   6.749  0.4582 -0.0604  0.3753
   39CHL1   C19 2852   1.981   5.192   6.756 -0.4152  0.1423 -0.2893
   39CHL1  H19A 2853   1.924   5.106   6.798  1.6798 -0.6996  1.0520
   39CHL1  H19B 2854   1.948   5.279   6.817 -1.9052 -0.2844 -0.4472
   39CHL1  H19C 2855   1.935   5.213   6.657 -2.9141  0.2756  0.8369
   39CHL1    C1 2856   2.191   5.297   6.673 -0.0431 -0.4711  0.2024
   39CHL1   H1A 2857   2.145   5.387   6.719 -0.1663 -0.1043 -0.6218
   39CHL1   H1B 2858   2.301   5.300   6.687  0.2620  0.4641 -2.0345
   39CHL1    C2 2859   2.161   5.304   6.520  0.5610  0.1063 -0.2951
   39CHL1   H2A 2860   2.207   5.396   6.478 -0.2109  0.9800  0.6976
   39CHL1   H2B 2861   2.053   5.330   6.512  0.9334  1.4065 -1.6577
   39CHL1   C20 2862   2.162   5.169   7.461 -0.4852 -0.4515  0.4288
   39CHL1   H20 2863   2.100   5.251   7.418  1.5462  0.6952 -0.4906
   39CHL1   C21 2864   2.283   5.229   7.539  0.4238  0.3169 -0.2124
   39CHL1  H21A 2865   2.340   5.305   7.482 -3.3434  3.2651 -0.4784
   39CHL1  H21B 2866   2.338   5.134   7.553 -3.4290 -2.7193 -3.2203
   39CHL1  H21C 2867   2.244   5.276   7.632 -0.5633 -4.1427  1.8961
   39CHL1   C22 2868   2.074   5.073   7.546  0.1951  0.1709 -1.0850
   39CHL1  H22A 2869   1.986   5.029   7.493 -0.2762 -0.4878  0.2042
   39CHL1  H22B 2870   2.125   4.981   7.578 -0.5764 -0.1053 -0.6157
   39CHL1   C23 2871   2.010   5.138   7.673 -0.1662 -0.1018  0.6739
   39CHL1  H23A 2872   2.091   5.151   7.748  0.1699  2.5214 -0.0473
   39CHL1  H23B 2873   1.983   5.241   7.641  0.6987 -0.2120 -0.4429
   39CHL1   C24 2874   1.887   5.065   7.731 -0.2209 -0.3653 -0.4792
   39CHL1  H24A 2875   1.830   5.022   7.646  0.7072 -0.4795 -1.0551
   39CHL1  H24B 2876   1.912   4.985   7.804 -1.2544 -1.0096 -0.8134
   39CHL1   C25 2877   1.779   5.158   7.801  0.7019  0.0263 -0.9980
   39CHL1   H25 2878   1.758   5.234   7.722 -1.0151 -0.2695 -0.8635
   39CHL1   C26 2879   1.652   5.075   7.819  0.3932  0.2434 -0.2345
   39CHL1  H26A 2880   1.624   5.035   7.719 -0.3256  0.7258 -0.2346
   39CHL1  H26B 2881   1.673   4.986   7.882  1.3674  1.2649  0.9090
   39CHL1  H26C 2882   1.573   5.136   7.868  0.9583  0.9517 -0.2036
   39CHL1   C27 2883   1.821   5.217   7.939 -0.6344  0.3590 -0.1079
   39CHL1  H27A 2884   1.923   5.259   7.931  0.1084 -1.5104 -1.0652
   39CHL1  H27B 2885   1.763   5.304   7.977  0.2471 -0.3049  2.9647
   39CHL1  H27C 2886   1.831   5.133   8.011 -0.7941 -0.0308 -0.5345
   40CHL1    C3 2887   5.636   3.533   6.105 -0.5737 -0.0849 -0.3194
   40CHL1    H3 2888   5.701   3.446   6.081 -1.1529 -0.6716  0.1759
   40CHL1    O3 2889   5.570   3.603   5.998  0.3380  0.7037 -1.0275
   40CHL1   H3' 2890   5.601   3.694   6.002  1.3970  0.3160  1.0070
   40CHL1    C4 2891   5.531   3.465   6.200 -0.3293  0.2331  0.8817
   40CHL1   H4A 2892   5.457   3.535   6.245 -0.7591  0.8699 -0.7400
   40CHL1   H4B 2893   5.469   3.405   6.130  0.1546  2.7051 -1.9056
   40CHL1    C5 2894   5.607   3.388   6.303 -0.4563  0.1441 -0.2512
   40CHL1    C6 2895   5.592   3.254   6.314 -0.1865  0.0461  0.2247
   40CHL1    H6 2896   5.526   3.193   6.250 -0.0370  0.3421 -0.2115
   40CHL1    C7 2897   5.648   3.184   6.433 -0.1366  0.4686  0.1820
   40CHL1   H7A 2898   5.572   3.111   6.468  2.7844 -3.2067 -0.4430
   40CHL1   H7B 2899   5.737   3.129   6.396 -0.7067  0.6245 -1.4838
   40CHL1    C8 2900   5.688   3.272   6.553 -0.4655 -0.5762  0.0388
   40CHL1    H8 2901   5.596   3.305   6.606 -0.9021  1.2301 -1.7383
   40CHL1   C14 2902   5.769   3.181   6.648 -0.1601  0.6062 -0.0165
   40CHL1   H14 2903   5.854   3.138   6.590  1.9539 -0.6866  3.6445
   40CHL1   C15 2904   5.700   3.056   6.711 -0.7010 -0.0328  0.0471
   40CHL1  H15A 2905   5.599   3.071   6.753 -1.1200 -0.4075 -0.7984
   40CHL1  H15B 2906   5.693   2.964   6.649 -0.1361 -0.6191  0.8280
   40CHL1   C16 2907   5.801   3.014   6.817 -0.1661 -0.1872 -0.4974
   40CHL1  H16A 2908   5.740   2.975   6.902  2.7654 -3.3781  0.3690
   40CHL1  H16B 2909   5.865   2.928   6.789  0.2100 -1.4076  3.4635
   40CHL1   C17 2910   5.898   3.128   6.838  0.3414  0.5119  0.4369
   40CHL1   H17 2911   5.993   3.103   6.786 -0.4060  0.2512 -0.8422
   40CHL1   C13 2912   5.831   3.249   6.763 -1.2480  0.7397  0.7686
   40CHL1   C18 2913   5.718   3.301   6.852  0.0400 -0.4447  0.0252
   40CHL1  H18A 2914   5.641   3.224   6.876 -0.6664  0.8190  2.0516
   40CHL1  H18B 2915   5.754   3.342   6.949  2.4582  2.7421 -2.0009
   40CHL1  H18C 2916   5.671   3.385   6.796  2.6363  0.2486 -1.2899
   40CHL1   C12 2917   5.932   3.364   6.713 -0.0813 -0.2022 -0.1046
   40CHL1  H12A 2918   5.972   3.430   6.793 -1.5069  3.7955 -2.3748
   40CHL1  H12B 2919   6.016   3.317   6.658 -0.9358 -3.0176  0.8324
   40CHL1   C11 2920   5.858   3.456   6.608 -0.1784 -0.1592  0.5164
   40CHL1  H11A 2921   5.788   3.520   6.667 -0.0747  1.5067 -1.0572
   40CHL1  H11B 2922   5.939   3.520   6.565 -0.7988  1.6686  1.9260
   40CHL1    C9 2923   5.783   3.382   6.503  1.0036 -0.1190 -0.0735
   40CHL1    H9 2924   5.864   3.326   6.451  0.2800 -1.5591  0.2991
   40CHL1   C10 2925   5.707   3.471   6.396  0.4614 -0.0525  0.1120
   40CHL1   C19 2926   5.625   3.583   6.480 -0.4948  0.8891 -0.2261
   40CHL1  H19A 2927   5.557   3.542   6.558  1.6377 -2.3578  0.1267
   40CHL1  H19B 2928   5.695   3.653   6.530  0.2631  0.0793 -0.1343
   40CHL1  H19C 2929   5.558   3.644   6.415 -0.5513  0.0220 -1.0185
   40CHL1    C1 2930   5.800   3.555   6.306  0.4693 -0.2759  0.1132
   40CHL1   H1A 2931   5.852   3.634   6.365 -0.6672  0.7320 -0.1802
   40CHL1   H1B 2932   5.871   3.485   6.258  0.0408 -0.8346  0.2862
   40CHL1    C2 2933   5.729   3.626   6.187 -0.1086 -0.2615 -0.0608
   40CHL1   H2A 2934   5.788   3.690   6.118 -1.0656  0.1216 -0.5430
   40CHL1   H2B 2935   5.663   3.699   6.240  0.2115  0.0226 -0.0471
   40CHL1   C20 2936   5.941   3.135   6.984 -0.2415 -0.4803  0.0146
   40CHL1   H20 2937   5.847   3.136   7.044 -1.4423  1.6715 -1.7427
   40CHL1   C21 2938   6.038   3.248   6.997 -0.6234 -0.0575 -1.0318
   40CHL1  H21A 2939   6.091   3.256   6.899  0.1607  0.9999 -0.5394
   40CHL1  H21B 2940   6.112   3.241   7.079 -1.3568 -1.1094 -0.4449
   40CHL1  H21C 2941   5.979   3.341   7.008 -1.5803 -0.8401  0.9031
   40CHL1   C22 2942   6.020   3.011   7.025 -0.0452  0.4035  1.0709
   40CHL1  H22A 2943   5.977   2.918   6.981  0.6031  0.0099  1.2666
   40CHL1  H22B 2944   6.120   3.011   6.977 -1.0753  3.7674 -1.5121
   40CHL1   C23 2945   6.028   2.990   7.178  0.3846 -0.2486 -0.1114
   40CHL1  H23A 2946   6.096   3.068   7.217 -1.7196  1.0110  1.2506
   40CHL1  H23B 2947   5.927   3.001   7.223 -0.8105  0.4673 -2.7707
   40CHL1   C24 2948   6.084   2.853   7.208 -0.6488  0.8674 -0.5391
   40CHL1  H24A 2949   6.017   2.768   7.180 -0.1162  0.4865 -0.6727
   40CHL1  H24B 2950   6.188   2.853   7.168 -0.1231  2.4029  0.7104
   40CHL1   C25 2951   6.112   2.831   7.358  0.3333  0.4519  0.1759
   40CHL1   H25 2952   6.140   2.725   7.374 -0.7766  0.4718  2.8282
   40CHL1   C26 2953   6.215   2.930   7.418 -0.1191  0.1402  0.2097
   40CHL1  H26A 2954   6.271   2.905   7.511 -0.4398  0.1619  0.4142
   40CHL1  H26B 2955   6.287   2.937   7.335  0.9017  0.9847  1.1352
   40CHL1  H26C 2956   6.163   3.027   7.436 -0.2422  0.4583 -1.6602
   40CHL1   C27 2957   5.993   2.838   7.454  0.2155  0.3312  0.0252
   40CHL1  H27A 2958   5.924   2.757   7.422  0.1332  0.5483 -0.3538
   40CHL1  H27B 2959   6.035   2.818   7.555  1.1914 -0.2453 -0.4734
   40CHL1  H27C 2960   5.934   2.931   7.463  0.0629  0.2437 -0.0528
   41CHL1    C3 2961   5.552   4.424   6.354  0.0322 -0.0040  0.2287
   41CHL1    H3 2962   5.654   4.468   6.365  0.0579  0.1118 -0.4124
   41CHL1    O3 2963   5.487   4.511   6.264 -0.5370 -0.0954 -0.0879
   41CHL1   H3' 2964   5.398   4.477   6.255 -0.8689  0.7265  0.0221
   41CHL1    C4 2965   5.557   4.282   6.305 -0.2201  0.0822 -0.0035
   41CHL1   H4A 2966   5.452   4.247   6.296 -0.7419  1.3540  0.8631
   41CHL1   H4B 2967   5.599   4.276   6.203 -3.0893 -0.8646 -1.2139
   41CHL1    C5 2968   5.630   4.191   6.395  0.3377 -0.2057  0.2188
   41CHL1    C6 2969   5.739   4.128   6.359 -0.3299 -0.3306  0.5881
   41CHL1    H6 2970   5.769   4.153   6.256 -0.4372 -1.8237  0.1812
   41CHL1    C7 2971   5.823   4.035   6.451 -0.7154  0.3403  0.1566
   41CHL1   H7A 2972   5.834   3.932   6.410  0.2341 -0.8804  3.1743
   41CHL1   H7B 2973   5.924   4.079   6.469 -1.0545  1.8473 -1.3598
   41CHL1    C8 2974   5.750   4.003   6.582 -0.0875 -0.0737 -0.5343
   41CHL1    H8 2975   5.675   3.925   6.559  0.5453 -1.4160  1.7075
   41CHL1   C14 2976   5.849   3.950   6.689 -0.5973 -1.0985  0.1989
   41CHL1   H14 2977   5.913   4.036   6.720 -0.2658 -1.5692  0.8366
   41CHL1   C15 2978   5.943   3.837   6.646  0.0219 -0.0007  0.0325
   41CHL1  H15A 2979   5.905   3.751   6.586 -1.8750  0.7708  0.0417
   41CHL1  H15B 2980   6.034   3.876   6.595  0.3798 -1.2080 -0.2896
   41CHL1   C16 2981   5.995   3.788   6.782 -0.1930  0.0225  0.6073
   41CHL1  H16A 2982   5.987   3.677   6.777  0.4006  0.0293 -1.3555
   41CHL1  H16B 2983   6.101   3.821   6.790 -0.9638  3.8426 -2.0452
   41CHL1   C17 2984   5.914   3.855   6.896 -0.3296  0.5875 -0.0990
   41CHL1   H17 2985   5.981   3.940   6.919  0.2711  0.2191 -0.4486
   41CHL1   C13 2986   5.791   3.918   6.824 -0.9185  0.0269 -0.4492
   41CHL1   C18 2987   5.685   3.806   6.807  0.1594 -0.5009 -0.3190
   41CHL1  H18A 2988   5.736   3.707   6.811  2.1728  0.5167  2.3778
   41CHL1  H18B 2989   5.615   3.820   6.892  1.4164  1.5403  0.4642
   41CHL1  H18C 2990   5.637   3.803   6.707  0.9634 -2.9148 -0.7271
   41CHL1   C12 2991   5.732   4.052   6.879 -0.1351  0.7407  0.3396
   41CHL1  H12A 2992   5.679   4.024   6.973  1.1332  0.5780  1.0324
   41CHL1  H12B 2993   5.810   4.131   6.885  1.2706 -0.5587 -0.2746
   41CHL1   C11 2994   5.626   4.109   6.780 -0.0422 -0.0628 -0.6435
   41CHL1  H11A 2995   5.544   4.034   6.781 -0.3119  0.1959  1.4317
   41CHL1  H11B 2996   5.580   4.201   6.822 -0.3812 -0.5502  0.0953
   41CHL1    C9 2997   5.678   4.127   6.633 -0.4844 -0.4379  0.1279
   41CHL1    H9 2998   5.753   4.209   6.641 -1.2015  0.5243 -2.2129
   41CHL1   C10 2999   5.574   4.186   6.532  0.5113 -0.1495 -0.0209
   41CHL1   C19 3000   5.444   4.095   6.526 -0.5480  0.2954  0.7684
   41CHL1  H19A 3001   5.392   4.077   6.623  0.6495 -0.5189  1.2881
   41CHL1  H19B 3002   5.365   4.137   6.460 -2.9061 -3.4903  0.8611
   41CHL1  H19C 3003   5.471   3.991   6.498 -1.3076  0.1434  0.5791
   41CHL1    C1 3004   5.541   4.330   6.586 -0.0121  0.7387 -0.2843
   41CHL1   H1A 3005   5.467   4.318   6.668 -1.0150  0.4282 -1.2069
   41CHL1   H1B 3006   5.631   4.386   6.619 -0.8935  1.1249  1.5976
   41CHL1    C2 3007   5.473   4.422   6.485  0.2305 -0.3765 -0.1829
   41CHL1   H2A 3008   5.467   4.526   6.522 -1.8043 -0.8624  0.9889
   41CHL1   H2B 3009   5.370   4.381   6.472  0.6283 -1.2223 -0.7715
   41CHL1   C20 3010   5.904   3.754   7.013  0.2128  0.8922 -0.8567
   41CHL1   H20 3011   5.867   3.651   6.993 -0.0831  1.0423 -1.0947
   41CHL1   C21 3012   5.805   3.818   7.112 -0.5133  0.1441 -0.1645
   41CHL1  H21A 3013   5.699   3.806   7.080  0.1831 -1.6664 -1.9590
   41CHL1  H21B 3014   5.823   3.928   7.111  0.0961  0.0725 -2.3656
   41CHL1  H21C 3015   5.812   3.778   7.215 -0.8540 -0.3617 -0.3346
   41CHL1   C22 3016   6.049   3.728   7.076 -0.1448 -0.0791  0.1116
   41CHL1  H22A 3017   6.095   3.670   6.993 -0.0042 -0.6816  0.5994
   41CHL1  H22B 3018   6.095   3.826   7.097  0.1090  0.1350 -1.3590
   41CHL1   C23 3019   6.065   3.650   7.208 -0.3643  0.0992 -0.2863
   41CHL1  H23A 3020   6.067   3.730   7.285  1.2935 -0.4524  0.2763
   41CHL1  H23B 3021   5.978   3.586   7.236 -0.9218  0.6580 -0.7216
   41CHL1   C24 3022   6.190   3.558   7.218  0.0410 -0.4956  0.0909
   41CHL1  H24A 3023   6.169   3.470   7.153  1.5037  0.0719 -1.2102
   41CHL1  H24B 3024   6.276   3.622   7.189 -1.1143  0.3095 -1.7064
   41CHL1   C25 3025   6.222   3.511   7.364  0.7595 -0.7582  0.2700
   41CHL1   H25 3026   6.119   3.487   7.399  0.6843 -2.7273 -1.1266
   41CHL1   C26 3027   6.292   3.381   7.372 -0.9115  0.2023  0.8318
   41CHL1  H26A 3028   6.260   3.301   7.303 -1.1469  0.2737  0.8587
   41CHL1  H26B 3029   6.398   3.412   7.359 -1.5533  1.3814 -2.3747
   41CHL1  H26C 3030   6.280   3.346   7.477  1.1120 -0.6345  0.8384
   41CHL1   C27 3031   6.280   3.623   7.452  0.3578 -0.5229 -0.3087
   41CHL1  H27A 3032   6.375   3.647   7.399 -0.2222 -1.6533 -1.9306
   41CHL1  H27B 3033   6.199   3.699   7.459 -0.5811 -1.3631 -1.7612
   41CHL1  H27C 3034   6.305   3.589   7.555  0.4909 -2.5342 -0.9599
   42CHL1    C3 3035   6.298   2.474   6.000 -0.2101  0.4698 -0.2286
   42CHL1    H3 3036   6.392   2.532   6.008  1.4516 -2.2410  1.9129
   42CHL1    O3 3037   6.279   2.457   5.865  0.2911  0.1516 -0.1384
   42CHL1   H3' 3038   6.186   2.440   5.853  0.3098  0.0746 -0.1785
   42CHL1    C4 3039   6.319   2.332   6.074 -0.5165  0.4217  0.6586
   42CHL1   H4A 3040   6.232   2.267   6.052 -0.8822  0.6617  1.3733
   42CHL1   H4B 3041   6.410   2.289   6.026  0.6397  1.5001  1.8416
   42CHL1    C5 3042   6.339   2.342   6.225  0.1335 -0.1039  0.0539
   42CHL1    C6 3043   6.448   2.289   6.287 -0.0069 -0.4548 -0.2106
   42CHL1    H6 3044   6.530   2.241   6.233  0.8153 -1.7520  2.0572
   42CHL1    C7 3045   6.467   2.308   6.436  0.0622  0.2883 -0.6269
   42CHL1   H7A 3046   6.505   2.219   6.490 -1.3399  0.7444  1.2106
   42CHL1   H7B 3047   6.535   2.395   6.446 -0.7766  0.8097  0.7155
   42CHL1    C8 3048   6.336   2.356   6.515 -0.4654  0.3612  0.4334
   42CHL1    H8 3049   6.267   2.269   6.509  0.9369 -0.6830 -2.3071
   42CHL1   C14 3050   6.371   2.376   6.665  0.8447 -0.2118  1.2714
   42CHL1   H14 3051   6.442   2.461   6.656  0.3234  0.0881 -0.2311
   42CHL1   C15 3052   6.448   2.269   6.747 -0.1542 -0.3873 -0.2856
   42CHL1  H15A 3053   6.401   2.170   6.734 -1.2361 -0.1010  1.1310
   42CHL1  H15B 3054   6.557   2.266   6.724  0.0261  0.1251  0.4446
   42CHL1   C16 3055   6.423   2.325   6.893 -0.8591 -0.2851 -0.4375
   42CHL1  H16A 3056   6.392   2.235   6.951 -0.6717 -1.6817 -2.3833
   42CHL1  H16B 3057   6.519   2.365   6.932 -0.0245 -0.5612 -2.0989
   42CHL1   C17 3058   6.316   2.433   6.882 -0.1230 -0.2985  0.1310
   42CHL1   H17 3059   6.367   2.530   6.867  0.2176 -0.6958 -1.5539
   42CHL1   C13 3060   6.249   2.411   6.743 -0.0827  0.6667 -1.0005
   42CHL1   C18 3061   6.143   2.298   6.744  0.2738  0.5248 -0.0631
   42CHL1  H18A 3062   6.125   2.260   6.641  0.8722  0.9987 -0.3441
   42CHL1  H18B 3063   6.175   2.215   6.811  2.2270  1.7027  0.5186
   42CHL1  H18C 3064   6.046   2.346   6.771 -0.6951 -0.5582 -1.4412
   42CHL1   C12 3065   6.180   2.534   6.680 -0.2731 -0.2922 -0.2775
   42CHL1  H12A 3066   6.094   2.553   6.746 -0.0052 -3.0115  1.0073
   42CHL1  H12B 3067   6.245   2.623   6.663  0.1183 -0.3338  0.9596
   42CHL1   C11 3068   6.136   2.516   6.533 -0.2601 -0.2028 -0.4070
   42CHL1  H11A 3069   6.048   2.450   6.545 -0.7290  0.0270 -2.3589
   42CHL1  H11B 3070   6.103   2.613   6.492 -1.1635 -0.3965 -0.1470
   42CHL1    C9 3071   6.253   2.461   6.447  0.2888 -0.4682 -0.2371
   42CHL1    H9 3072   6.326   2.545   6.446  0.6890 -0.6534  2.7917
   42CHL1   C10 3073   6.224   2.425   6.292 -0.1764 -0.5034 -0.2487
   42CHL1   C19 3074   6.090   2.341   6.291  0.4240  0.3703  0.3148
   42CHL1  H19A 3075   6.102   2.252   6.356  0.1466  0.1877  0.1196
   42CHL1  H19B 3076   6.002   2.401   6.321 -0.2237 -0.3923 -0.0353
   42CHL1  H19C 3077   6.071   2.302   6.188  0.9043 -0.8786  0.6822
   42CHL1    C1 3078   6.202   2.565   6.228 -0.1515  0.8285 -0.0016
   42CHL1   H1A 3079   6.105   2.610   6.258 -2.1798 -1.1883 -2.9610
   42CHL1   H1B 3080   6.297   2.612   6.260  3.1965 -3.7892 -2.0543
   42CHL1    C2 3081   6.184   2.550   6.077 -0.3919  0.2231  0.5062
   42CHL1   H2A 3082   6.179   2.647   6.024  0.4644  0.1181  0.2207
   42CHL1   H2B 3083   6.087   2.500   6.057 -0.4925 -0.8068  3.1118
   42CHL1   C20 3084   6.242   2.446   7.008  0.4044  0.6971 -0.4069
   42CHL1   H20 3085   6.184   2.354   7.031 -0.2950  1.5698  1.5368
   42CHL1   C21 3086   6.148   2.562   7.005  0.1924  0.2293  0.2184
   42CHL1  H21A 3087   6.101   2.593   7.100 -2.9812  0.9035 -1.4258
   42CHL1  H21B 3088   6.059   2.530   6.948  0.7635  0.5070 -0.8700
   42CHL1  H21C 3089   6.191   2.651   6.954  2.5440  1.1236  3.4123
   42CHL1   C22 3090   6.342   2.459   7.131 -0.0957  0.3863 -1.1635
   42CHL1  H22A 3091   6.413   2.373   7.128 -1.6723 -0.9413 -2.6260
   42CHL1  H22B 3092   6.407   2.548   7.120  0.2971 -0.0668 -2.6795
   42CHL1   C23 3093   6.286   2.468   7.274  0.1385 -0.0750 -0.7505
   42CHL1  H23A 3094   6.219   2.554   7.295 -0.7542 -0.7181 -0.9044
   42CHL1  H23B 3095   6.227   2.378   7.301 -3.0890  1.8154 -1.0139
   42CHL1   C24 3096   6.388   2.492   7.391 -0.0436  0.0516 -0.1893
   42CHL1  H24A 3097   6.486   2.442   7.377  0.5383  0.4767  2.0291
   42CHL1  H24B 3098   6.401   2.602   7.389 -0.3865  0.3238  3.7096
   42CHL1   C25 3099   6.340   2.467   7.538  0.0284  0.1263  0.4910
   42CHL1   H25 3100   6.232   2.495   7.532 -0.2644 -1.2687 -1.7293
   42CHL1   C26 3101   6.349   2.314   7.576 -0.1757 -0.0647 -0.8521
   42CHL1  H26A 3102   6.454   2.284   7.598  0.1346  0.9769 -0.9021
   42CHL1  H26B 3103   6.289   2.298   7.669  0.4766 -1.0929 -0.5878
   42CHL1  H26C 3104   6.291   2.260   7.498 -0.6467  1.8048 -1.8471
   42CHL1   C27 3105   6.431   2.548   7.630 -0.7490  1.0809 -0.2778
   42CHL1  H27A 3106   6.399   2.542   7.736 -1.0331 -0.3020 -0.4162
   42CHL1  H27B 3107   6.424   2.653   7.594 -0.7487  0.9793 -0.5770
   42CHL1  H27C 3108   6.537   2.519   7.615 -0.4168  0.2655  2.8630
   43CHL1    C3 3109   5.239   5.312   6.684 -0.1151 -0.1712 -1.1339
   43CHL1    H3 3110   5.326   5.318   6.754 -2.4499  0.3551  1.9628
   43CHL1    O3 3111   5.249   5.432   6.602  0.0813  0.5594 -0.2515
   43CHL1   H3' 3112   5.207   5.418   6.517 -0.6036  0.0467  0.1567
   43CHL1    C4 3113   5.244   5.188   6.591  0.6830 -0.5465 -0.1935
   43CHL1   H4A 3114   5.175   5.194   6.505 -0.4602  0.2731  0.7572
   43CHL1   H4B 3115   5.348   5.187   6.550  0.9617  4.2436 -0.2112
   43CHL1    C5 3116   5.223   5.059   6.668 -0.8504 -0.1997 -0.1718
   43CHL1    C6 3117   5.312   4.962   6.665  0.3658 -0.2830  0.0978
   43CHL1    H6 3118   5.401   4.969   6.600 -0.5404 -0.9904 -1.2699
   43CHL1    C7 3119   5.290   4.832   6.723 -0.5796 -0.0526 -0.2267
   43CHL1   H7A 3120   5.317   4.747   6.658 -0.3656  0.6978 -1.1407
   43CHL1   H7B 3121   5.364   4.829   6.806  0.1354  0.2146 -0.8429
   43CHL1    C8 3122   5.153   4.802   6.782  0.8590 -0.5503 -0.0148
   43CHL1    H8 3123   5.081   4.763   6.708  1.0886  0.6526 -0.9059
   43CHL1   C14 3124   5.157   4.695   6.902 -0.2813  0.7779 -0.3208
   43CHL1   H14 3125   5.218   4.753   6.974  0.6036 -1.5859  0.9072
   43CHL1   C15 3126   5.236   4.565   6.881  0.2833  0.0444 -0.5146
   43CHL1  H15A 3127   5.212   4.534   6.778  0.8777  2.8839 -1.6152
   43CHL1  H15B 3128   5.345   4.589   6.884  0.0685  1.0881  1.7266
   43CHL1   C16 3129   5.189   4.483   7.009 -0.6919  0.3152 -0.0025
   43CHL1  H16A 3130   5.158   4.381   6.978  0.4293  0.0011 -0.1433
   43CHL1  H16B 3131   5.272   4.470   7.082 -0.7991 -1.3934 -0.1515
   43CHL1   C17 3132   5.080   4.570   7.077 -0.0647 -0.5643 -0.5016
   43CHL1   H17 3133   5.120   4.637   7.156 -1.9220 -0.7787  0.6759
   43CHL1   C13 3134   5.020   4.662   6.968  0.1943  0.7144  0.6096
   43CHL1   C18 3135   4.934   4.576   6.871  0.6191 -0.2663  0.0019
   43CHL1  H18A 3136   4.926   4.632   6.775  1.0746  2.6770  1.5402
   43CHL1  H18B 3137   4.976   4.475   6.851  0.8801  0.4288 -3.6015
   43CHL1  H18C 3138   4.828   4.565   6.899  0.9115  0.7460  1.6633
   43CHL1   C12 3139   4.956   4.787   7.022  0.3734 -0.2404  0.4859
   43CHL1  H12A 3140   4.851   4.760   7.044  0.5845 -1.7855 -0.3149
   43CHL1  H12B 3141   5.007   4.824   7.114 -0.0622 -1.4429  1.2358
   43CHL1   C11 3142   4.957   4.903   6.924  0.1985 -0.9339 -0.2974
   43CHL1  H11A 3143   4.880   4.889   6.845  0.6565 -4.0862 -0.3154
   43CHL1  H11B 3144   4.931   4.997   6.976 -0.5833  0.7469 -3.4495
   43CHL1    C9 3145   5.096   4.924   6.848 -0.4587  0.3443  0.6724
   43CHL1    H9 3146   5.161   4.953   6.933 -4.4260  2.4211  3.3094
   43CHL1   C10 3147   5.102   5.058   6.766  0.6350  0.2740  0.1979
   43CHL1   C19 3148   4.966   5.069   6.690 -0.2053 -0.7742  0.5000
   43CHL1  H19A 3149   4.982   5.149   6.614 -2.5164  0.4514  1.2202
   43CHL1  H19B 3150   4.951   4.967   6.648 -1.0874 -1.1012  1.5813
   43CHL1  H19C 3151   4.885   5.103   6.758 -0.5140 -1.1353  0.3121
   43CHL1    C1 3152   5.119   5.180   6.856  0.1239 -0.3007 -0.0265
   43CHL1   H1A 3153   5.037   5.176   6.930 -0.0825 -0.4179 -0.2612
   43CHL1   H1B 3154   5.213   5.167   6.915 -0.6840 -3.6739  0.7469
   43CHL1    C2 3155   5.122   5.321   6.784 -0.2266  0.5368 -0.3166
   43CHL1   H2A 3156   5.136   5.408   6.852 -0.7115 -0.1261  0.6587
   43CHL1   H2B 3157   5.030   5.333   6.723 -0.3244 -0.3431 -0.3519
   43CHL1   C20 3158   4.985   4.493   7.172  0.2798 -0.5997 -0.8436
   43CHL1   H20 3159   4.916   4.434   7.108  1.2343 -1.9280 -0.6838
   43CHL1   C21 3160   4.909   4.584   7.266  0.1789  0.2011 -0.0411
   43CHL1  H21A 3161   4.981   4.657   7.310  1.5320 -0.6620 -0.7725
   43CHL1  H21B 3162   4.855   4.543   7.354 -0.7488 -0.0594 -0.7185
   43CHL1  H21C 3163   4.828   4.637   7.211 -1.1556 -0.2207  1.4353
   43CHL1   C22 3164   5.064   4.395   7.259  0.1683  0.5682 -0.3404
   43CHL1  H22A 3165   5.105   4.318   7.191  0.0822  1.3188 -1.2664
   43CHL1  H22B 3166   5.151   4.441   7.311 -0.0587  1.5132 -0.7688
   43CHL1   C23 3167   4.968   4.310   7.340 -0.1714  0.3795  0.2776
   43CHL1  H23A 3168   4.944   4.365   7.434 -1.8251 -1.4784  1.0254
   43CHL1  H23B 3169   4.875   4.285   7.285  1.5552 -0.3611 -2.4476
   43CHL1   C24 3170   5.028   4.170   7.376 -0.3157 -0.0317  0.0167
   43CHL1  H24A 3171   5.080   4.126   7.289 -0.0529  0.3749 -0.0347
   43CHL1  H24B 3172   5.110   4.170   7.451  0.3386  0.9248 -0.6926
   43CHL1   C25 3173   4.922   4.061   7.423  0.9234 -0.7526  1.2229
   43CHL1   H25 3174   4.873   4.027   7.329  1.4632  0.2101  0.5682
   43CHL1   C26 3175   4.994   3.947   7.482 -0.4335 -0.3005 -0.2797
   43CHL1  H26A 3176   5.075   3.911   7.416 -0.7249 -1.0622 -0.2291
   43CHL1  H26B 3177   5.044   3.986   7.573 -4.1177  2.3117  0.8934
   43CHL1  H26C 3178   4.932   3.858   7.506  0.4900 -0.6981  0.6598
   43CHL1   C27 3179   4.830   4.121   7.530 -0.3268  0.1412  0.3535
   43CHL1  H27A 3180   4.781   4.207   7.478  0.0189  0.2980  0.2857
   43CHL1  H27B 3181   4.761   4.046   7.574  1.2010 -0.1400  2.4070
   43CHL1  H27C 3182   4.898   4.150   7.612  0.3829 -3.7093  1.3092
   44CHL1    C3 3183   6.314   4.084   6.149 -0.2388  0.2889  0.8448
   44CHL1    H3 3184   6.242   4.167   6.160 -0.8079  0.0544 -0.7938
   44CHL1    O3 3185   6.313   4.045   6.010  0.3056 -0.8413 -0.0370
   44CHL1   H3' 3186   6.402   4.020   5.983 -0.5456 -2.6418 -1.4521
   44CHL1    C4 3187   6.459   4.127   6.196 -0.3393 -0.3076 -0.2448
   44CHL1   H4A 3188   6.530   4.049   6.160 -0.5971 -0.5009 -0.3338
   44CHL1   H4B 3189   6.483   4.219   6.139 -0.4668 -0.2894 -0.2690
   44CHL1    C5 3190   6.475   4.126   6.350  0.5335  0.2050  0.3459
   44CHL1    C6 3191   6.522   4.244   6.409  0.2264 -0.1701 -0.3264
   44CHL1    H6 3192   6.557   4.327   6.346  0.2362 -0.3620 -0.5761
   44CHL1    C7 3193   6.535   4.263   6.558 -0.4713 -0.1382  0.3543
   44CHL1   H7A 3194   6.630   4.314   6.584 -0.7063  1.0923 -1.1062
   44CHL1   H7B 3195   6.455   4.331   6.596 -0.7312  0.2227 -0.7909
   44CHL1    C8 3196   6.520   4.125   6.632  0.4071 -0.4074  0.7485
   44CHL1    H8 3197   6.610   4.063   6.612  0.8956  0.4193  0.2941
   44CHL1   C14 3198   6.490   4.152   6.781 -0.4357  0.0457 -0.2122
   44CHL1   H14 3199   6.402   4.219   6.786  0.5901  1.5954 -1.7695
   44CHL1   C15 3200   6.592   4.246   6.858 -0.2084  0.3772  0.9213
   44CHL1  H15A 3201   6.694   4.204   6.843 -0.9856 -1.1774 -0.2659
   44CHL1  H15B 3202   6.596   4.353   6.828 -1.0033  0.1561 -0.0002
   44CHL1   C16 3203   6.559   4.221   7.006 -0.2456 -0.1039  0.5982
   44CHL1  H16A 3204   6.649   4.213   7.071  0.0556 -3.8277 -0.0288
   44CHL1  H16B 3205   6.501   4.307   7.046  2.3261  1.6855  0.7264
   44CHL1   C17 3206   6.466   4.094   7.009  0.1916  0.3984 -0.1650
   44CHL1   H17 3207   6.361   4.127   7.025 -0.1375 -0.9442  0.6445
   44CHL1   C13 3208   6.470   4.031   6.866 -0.3913 -0.3311 -0.2064
   44CHL1   C18 3209   6.594   3.948   6.859  0.6860  0.0033  0.7664
   44CHL1  H18A 3210   6.572   3.862   6.926  0.0457 -0.8131 -0.4605
   44CHL1  H18B 3211   6.606   3.911   6.755 -0.3785 -0.7806  0.8971
   44CHL1  H18C 3212   6.687   4.000   6.888  1.5450  0.1439 -1.9510
   44CHL1   C12 3213   6.340   3.955   6.818 -0.2591 -0.0430  0.1343
   44CHL1  H12A 3214   6.303   3.874   6.886 -0.6861  0.8025  0.9365
   44CHL1  H12B 3215   6.256   4.028   6.817 -0.2015  0.0395  0.8192
   44CHL1   C11 3216   6.353   3.921   6.665  0.2208  0.1332  0.1598
   44CHL1  H11A 3217   6.436   3.848   6.656  0.5031  0.4814 -0.1070
   44CHL1  H11B 3218   6.259   3.872   6.631 -0.0115  2.2289 -2.5950
   44CHL1    C9 3219   6.391   4.043   6.577 -0.4192  0.4330  0.4595
   44CHL1    H9 3220   6.308   4.114   6.594 -0.6043 -0.0257  1.5210
   44CHL1   C10 3221   6.411   4.009   6.430 -0.1299 -0.5365  0.1868
   44CHL1   C19 3222   6.492   3.881   6.407 -0.3872  0.1188  0.4027
   44CHL1  H19A 3223   6.441   3.799   6.461  1.1326 -0.9803  0.2399
   44CHL1  H19B 3224   6.510   3.853   6.301 -3.7939  1.7705 -0.7572
   44CHL1  H19C 3225   6.596   3.899   6.442 -0.6413  0.4827  0.9839
   44CHL1    C1 3226   6.271   3.979   6.375  0.4720  0.6028  0.6671
   44CHL1   H1A 3227   6.232   3.892   6.433 -1.7131  1.0930  0.0083
   44CHL1   H1B 3228   6.196   4.059   6.393  0.2036  1.1656 -2.3690
   44CHL1    C2 3229   6.261   3.956   6.227  0.6044 -0.9893  0.1148
   44CHL1   H2A 3230   6.154   3.936   6.203  0.5685 -2.4529  1.3389
   44CHL1   H2B 3231   6.311   3.859   6.203 -2.3366 -2.8629  1.0487
   44CHL1   C20 3232   6.486   4.001   7.132 -0.1168  0.0377 -0.0702
   44CHL1   H20 3233   6.580   3.947   7.110 -1.4134 -1.4373 -2.4827
   44CHL1   C21 3234   6.361   3.914   7.152 -0.0338  0.0004  0.2132
   44CHL1  H21A 3235   6.368   3.872   7.255  0.0068 -0.0492  0.1899
   44CHL1  H21B 3236   6.359   3.827   7.082  0.9673 -0.7399  1.0732
   44CHL1  H21C 3237   6.270   3.978   7.157  0.6462  0.9180  1.5246
   44CHL1   C22 3238   6.505   4.084   7.262 -0.5595 -0.7468  0.1137
   44CHL1  H22A 3239   6.564   4.175   7.240 -1.0627 -0.8123 -1.6980
   44CHL1  H22B 3240   6.399   4.105   7.290  0.3645 -0.4504  3.9451
   44CHL1   C23 3241   6.575   3.999   7.371  0.5712 -0.9584  0.8385
   44CHL1  H23A 3242   6.507   3.917   7.401 -0.1083 -0.1641  1.5402
   44CHL1  H23B 3243   6.669   3.943   7.348  0.3400 -2.1505  2.6126
   44CHL1   C24 3244   6.583   4.089   7.499 -0.5366 -0.1171 -1.1770
   44CHL1  H24A 3245   6.649   4.175   7.473 -0.1931 -1.1483 -4.0403
   44CHL1  H24B 3246   6.489   4.144   7.524  1.3362  3.5763 -1.5244
   44CHL1   C25 3247   6.644   4.014   7.616 -0.5079 -0.2432 -0.0408
   44CHL1   H25 3248   6.744   3.975   7.587 -0.0531  0.4546  0.5448
   44CHL1   C26 3249   6.692   4.110   7.726  0.0350 -0.6102  0.0902
   44CHL1  H26A 3250   6.757   4.054   7.797 -0.0401  0.0868  0.7111
   44CHL1  H26B 3251   6.758   4.194   7.696  1.5793 -1.3472  1.3177
   44CHL1  H26C 3252   6.612   4.148   7.793  0.4855 -1.4102  1.1095
   44CHL1   C27 3253   6.552   3.901   7.660 -0.2683  0.6577  0.7879
   44CHL1  H27A 3254   6.596   3.858   7.752 -0.4111 -1.1669  0.0498
   44CHL1  H27B 3255   6.447   3.935   7.668 -0.5751 -0.6066  2.6915
   44CHL1  H27C 3256   6.552   3.826   7.578 -0.9315  1.2367  0.2473
   45CHL1    C3 3257   1.871   1.875   6.191  0.0063 -0.1097 -0.7139
   45CHL1    H3 3258   1.954   1.906   6.259 -1.3540  1.8181  0.1745
   45CHL1    O3 3259   1.902   1.865   6.055 -0.1706 -0.2783 -0.2523
   45CHL1   H3' 3260   1.817   1.845   6.016 -1.0425 -0.2113  1.5229
   45CHL1    C4 3261   1.816   1.740   6.236 -0.2435 -0.1283 -0.6043
   45CHL1   H4A 3262   1.740   1.710   6.160 -1.1527  0.1622  0.1637
   45CHL1   H4B 3263   1.891   1.658   6.235 -2.1443 -2.1339  2.4844
   45CHL1    C5 3264   1.752   1.740   6.374  0.6182 -0.0111 -0.1557
   45CHL1    C6 3265   1.793   1.655   6.467 -0.3017  0.7580 -0.4205
   45CHL1    H6 3266   1.859   1.573   6.434 -1.4718 -1.3876  2.1544
   45CHL1    C7 3267   1.752   1.655   6.607  0.0958 -0.4026 -0.1894
   45CHL1   H7A 3268   1.731   1.549   6.635 -1.6778 -0.1942 -0.5679
   45CHL1   H7B 3269   1.826   1.696   6.678 -2.9230  0.3973  2.7523
   45CHL1    C8 3270   1.623   1.738   6.632  0.2906 -0.0341  0.2613
   45CHL1    H8 3271   1.538   1.677   6.595  1.8395 -1.6723 -0.7435
   45CHL1   C14 3272   1.604   1.771   6.779 -0.5770  0.5349 -0.2974
   45CHL1   H14 3273   1.700   1.826   6.792 -0.0402  0.0289 -1.9540
   45CHL1   C15 3274   1.613   1.664   6.887  0.2825  0.1857  0.1162
   45CHL1  H15A 3275   1.555   1.575   6.854  1.2365  0.3001 -1.9972
   45CHL1  H15B 3276   1.718   1.628   6.891 -0.0789 -1.3753 -2.3124
   45CHL1   C16 3277   1.538   1.733   7.007 -0.2365 -0.1958 -0.0108
   45CHL1  H16A 3278   1.439   1.689   7.034 -1.0589  0.6516 -1.5193
   45CHL1  H16B 3279   1.607   1.728   7.093  1.3432 -0.6305 -1.2609
   45CHL1   C17 3280   1.500   1.876   6.966 -0.1283 -0.0809  0.9666
   45CHL1   H17 3281   1.592   1.937   6.976 -1.3540  1.8063  1.1579
   45CHL1   C13 3282   1.478   1.861   6.815 -1.3168  0.8623  0.6675
   45CHL1   C18 3283   1.340   1.792   6.792 -0.3222 -0.0433 -0.1704
   45CHL1  H18A 3284   1.250   1.848   6.826 -0.4618 -1.1266  1.3347
   45CHL1  H18B 3285   1.330   1.774   6.683  0.7528  0.8721 -0.4388
   45CHL1  H18C 3286   1.332   1.693   6.843 -1.2737  0.6996  1.1777
   45CHL1   C12 3287   1.492   1.986   6.737  0.0952  0.1095  0.1819
   45CHL1  H12A 3288   1.401   2.049   6.749  0.6935  0.6576  2.2572
   45CHL1  H12B 3289   1.582   2.046   6.763 -1.9815  3.7777 -0.4265
   45CHL1   C11 3290   1.509   1.965   6.582 -0.8467 -0.8244 -0.0651
   45CHL1  H11A 3291   1.410   1.936   6.541 -0.7762  0.5981 -1.3288
   45CHL1  H11B 3292   1.537   2.063   6.538  2.1765 -1.4958  0.1765
   45CHL1    C9 3293   1.625   1.869   6.551  0.1359 -0.0270  0.0258
   45CHL1    H9 3294   1.716   1.920   6.590 -0.5416 -0.0171  1.6586
   45CHL1   C10 3295   1.648   1.856   6.402  0.2116 -0.2641  0.6103
   45CHL1   C19 3296   1.517   1.815   6.317 -0.2411 -0.3727  0.0417
   45CHL1  H19A 3297   1.468   1.727   6.362 -0.1177 -1.9959 -2.7657
   45CHL1  H19B 3298   1.437   1.892   6.319  0.5263  0.4604  2.3377
   45CHL1  H19C 3299   1.546   1.797   6.211  3.8700  2.0761  0.5110
   45CHL1    C1 3300   1.720   1.987   6.352 -0.1026 -1.2449 -0.7211
   45CHL1   H1A 3301   1.651   2.074   6.349  2.3755  0.8277 -2.3930
   45CHL1   H1B 3302   1.800   2.013   6.425 -1.0863 -1.0820  0.3406
   45CHL1    C2 3303   1.763   1.985   6.209 -0.3720 -0.0535  0.7545
   45CHL1   H2A 3304   1.806   2.081   6.174 -0.9115 -0.5558 -1.4669
   45CHL1   H2B 3305   1.674   1.966   6.144  0.2668  2.1041 -0.8413
   45CHL1   C20 3306   1.399   1.950   7.054  0.1312  0.3866 -0.2573
   45CHL1   H20 3307   1.299   1.910   7.031 -0.0065  0.8761 -0.5164
   45CHL1   C21 3308   1.396   2.099   7.018 -1.0409  0.1113  0.0365
   45CHL1  H21A 3309   1.331   2.168   7.075 -0.2647  1.9669 -1.2360
   45CHL1  H21B 3310   1.351   2.117   6.919  0.9471 -0.4139 -1.0155
   45CHL1  H21C 3311   1.496   2.147   7.015 -0.1838 -1.5519  0.7063
   45CHL1   C22 3312   1.415   1.922   7.205 -0.0187  0.0294  0.5903
   45CHL1  H22A 3313   1.429   1.814   7.226  2.1484 -0.0278 -0.8091
   45CHL1  H22B 3314   1.503   1.973   7.251  0.2264  0.3490 -0.2238
   45CHL1   C23 3315   1.295   1.967   7.288 -0.7056  0.4895  0.5019
   45CHL1  H23A 3316   1.292   2.078   7.281 -1.2331  0.3810 -2.1674
   45CHL1  H23B 3317   1.206   1.915   7.248  0.1844 -1.1327  0.5246
   45CHL1   C24 3318   1.309   1.917   7.434  0.3737 -0.2547 -0.1497
   45CHL1  H24A 3319   1.408   1.941   7.478  1.8335 -0.7635 -2.9126
   45CHL1  H24B 3320   1.235   1.972   7.495  1.6760  1.1890  0.1758
   45CHL1   C25 3321   1.293   1.759   7.453  0.1273  0.3409 -0.2687
   45CHL1   H25 3322   1.373   1.720   7.387  0.1818 -3.3883  1.7816
   45CHL1   C26 3323   1.328   1.713   7.597  0.3900 -0.1976  0.7829
   45CHL1  H26A 3324   1.319   1.602   7.597  0.6284 -0.2830 -1.6630
   45CHL1  H26B 3325   1.430   1.747   7.623  2.4021 -1.5683 -4.0546
   45CHL1  H26C 3326   1.250   1.750   7.668 -0.1538  0.0214  0.0897
   45CHL1   C27 3327   1.154   1.699   7.416  0.0198  0.5445 -0.7445
   45CHL1  H27A 3328   1.085   1.742   7.491 -0.0564 -1.7206  0.5925
   45CHL1  H27B 3329   1.130   1.730   7.312  0.2811 -1.3270 -1.4058
   45CHL1  H27C 3330   1.156   1.588   7.422  0.2371  0.5651 -0.3826
   46CHL1    C3 3331   0.564   4.051   6.080 -0.2991  0.3097 -0.5900
   46CHL1    H3 3332   0.521   3.949   6.071  0.0127  0.2718 -1.8260
   46CHL1    O3 3333   0.594   4.107   5.954 -0.2919  0.2124  0.1261
   46CHL1   H3' 3334   0.618   4.199   5.967  0.0863 -0.1649  2.5925
   46CHL1    C4 3335   0.471   4.152   6.153 -0.0368 -0.0081 -0.3869
   46CHL1   H4A 3336   0.515   4.254   6.164  1.5716 -0.4842 -1.8925
   46CHL1   H4B 3337   0.390   4.181   6.083  2.1080  1.3618 -2.4461
   46CHL1    C5 3338   0.422   4.104   6.290  0.2122 -0.6376 -0.3594
   46CHL1    C6 3339   0.291   4.086   6.316 -0.5647 -0.3112 -0.0164
   46CHL1    H6 3340   0.217   4.108   6.237  0.4394 -0.0438 -0.9176
   46CHL1    C7 3341   0.247   4.038   6.452 -0.0158 -0.2176 -0.1272
   46CHL1   H7A 3342   0.170   4.105   6.495  2.5772  1.2503  2.5666
   46CHL1   H7B 3343   0.209   3.933   6.447 -0.4838 -0.0994  0.8201
   46CHL1    C8 3344   0.366   4.035   6.557 -0.2047  0.0340 -0.3067
   46CHL1    H8 3345   0.378   4.137   6.598  2.5476 -0.2780 -0.1539
   46CHL1   C14 3346   0.329   3.947   6.670 -1.1707 -0.5907  0.0041
   46CHL1   H14 3347   0.320   3.842   6.635 -3.2561 -0.8647  1.1542
   46CHL1   C15 3348   0.196   3.984   6.738  0.1534  0.1603  0.3491
   46CHL1  H15A 3349   0.207   4.093   6.756 -1.4482  0.9594 -2.8267
   46CHL1  H15B 3350   0.105   3.956   6.680  1.8580 -1.1147 -1.9009
   46CHL1   C16 3351   0.199   3.908   6.868  0.3555  0.1193  0.3718
   46CHL1  H16A 3352   0.178   3.973   6.956 -1.7570 -3.3320  2.6485
   46CHL1  H16B 3353   0.134   3.818   6.872 -0.2794  0.6069  1.3162
   46CHL1   C17 3354   0.347   3.853   6.881 -0.1467  0.0299  0.2421
   46CHL1   H17 3355   0.346   3.747   6.848  1.7911 -0.2168  0.8607
   46CHL1   C13 3356   0.432   3.945   6.782  0.4067  0.8979 -0.4236
   46CHL1   C18 3357   0.466   4.082   6.841 -1.4555 -0.5748  0.2214
   46CHL1  H18A 3358   0.557   4.071   6.903 -0.3701 -1.5533 -1.4634
   46CHL1  H18B 3359   0.488   4.150   6.756 -0.9312  0.5770  1.2654
   46CHL1  H18C 3360   0.382   4.126   6.898  0.0374  0.5394  1.6252
   46CHL1   C12 3361   0.555   3.877   6.722 -0.2717  0.4195 -0.2699
   46CHL1  H12A 3362   0.643   3.875   6.789  0.7650 -1.6103 -1.5929
   46CHL1  H12B 3363   0.534   3.773   6.687 -1.0649 -0.5008  2.6412
   46CHL1   C11 3364   0.604   3.954   6.598  0.2171 -0.2842 -0.3169
   46CHL1  H11A 3365   0.648   4.048   6.636 -1.6490 -0.8362  3.7754
   46CHL1  H11B 3366   0.677   3.894   6.539 -1.6077 -1.5988 -1.3411
   46CHL1    C9 3367   0.494   3.988   6.495 -0.5551  0.2307  0.3906
   46CHL1    H9 3368   0.482   3.885   6.455  1.0603  0.5138 -0.8789
   46CHL1   C10 3369   0.545   4.074   6.375 -0.5189 -0.3577  0.2193
   46CHL1   C19 3370   0.601   4.219   6.426  0.5311  0.6690  0.4009
   46CHL1  H19A 3371   0.513   4.251   6.486 -0.2918 -1.6410  0.5634
   46CHL1  H19B 3372   0.691   4.212   6.490  0.9320 -1.2366 -0.3136
   46CHL1  H19C 3373   0.620   4.281   6.337  0.1952 -0.0698 -0.1998
   46CHL1    C1 3374   0.655   3.996   6.299  0.3676  0.3972 -0.1114
   46CHL1   H1A 3375   0.745   3.997   6.363 -0.2681 -4.4303  1.2193
   46CHL1   H1B 3376   0.624   3.890   6.297  0.5523  0.3021  1.3679
   46CHL1    C2 3377   0.687   4.033   6.156 -0.4166 -0.2653 -1.4832
   46CHL1   H2A 3378   0.736   3.945   6.109 -0.7459 -2.3754  1.7912
   46CHL1   H2B 3379   0.750   4.124   6.148  1.4593 -1.0756  2.1055
   46CHL1   C20 3380   0.397   3.847   7.023  0.2232  0.1181 -0.5423
   46CHL1   H20 3381   0.472   3.929   7.031  0.2838  0.3599 -2.7939
   46CHL1   C21 3382   0.500   3.731   7.052  0.7745 -0.4247 -0.0734
   46CHL1  H21A 3383   0.452   3.630   7.054  0.0613 -0.0975 -0.4139
   46CHL1  H21B 3384   0.549   3.755   7.149 -1.5592  0.2976  1.0039
   46CHL1  H21C 3385   0.578   3.728   6.973 -0.4432  1.1503 -1.3840
   46CHL1   C22 3386   0.285   3.851   7.124  0.3611  0.6287  0.6273
   46CHL1  H22A 3387   0.224   3.943   7.129  1.9976  1.9783 -2.2225
   46CHL1  H22B 3388   0.220   3.765   7.098  1.8791 -0.6028  0.7028
   46CHL1   C23 3389   0.328   3.839   7.272  0.6093  0.9708  0.0774
   46CHL1  H23A 3390   0.238   3.827   7.336  0.7182  2.5803  0.5766
   46CHL1  H23B 3391   0.388   3.745   7.281  0.7791  0.7852 -2.2812
   46CHL1   C24 3392   0.408   3.965   7.319  0.4717 -0.2109 -0.2688
   46CHL1  H24A 3393   0.516   3.973   7.292  0.3626  2.3733 -0.1991
   46CHL1  H24B 3394   0.362   4.056   7.275 -3.8126 -1.1296  1.7332
   46CHL1   C25 3395   0.399   3.986   7.472  0.6196  0.0209  0.4047
   46CHL1   H25 3396   0.465   4.073   7.487 -0.2961  0.6109  1.0855
   46CHL1   C26 3397   0.258   4.027   7.524 -0.4064 -0.1669 -0.2014
   46CHL1  H26A 3398   0.218   4.111   7.463  0.1554 -0.2925 -0.7493
   46CHL1  H26B 3399   0.183   3.950   7.497 -1.8092  0.0656  2.6479
   46CHL1  H26C 3400   0.251   4.061   7.630  0.9689  0.9122 -0.4257
   46CHL1   C27 3401   0.469   3.873   7.545 -0.4705 -0.6223 -0.6186
   46CHL1  H27A 3402   0.436   3.770   7.517 -1.3735 -0.9233  1.3457
   46CHL1  H27B 3403   0.579   3.890   7.549 -0.0784 -2.8805 -0.1936
   46CHL1  H27C 3404   0.446   3.889   7.653  1.9393 -1.0989  0.0328
   47CHL1    C3 3405   0.312   4.584   6.286 -0.1267 -0.1809  0.3355
   47CHL1    H3 3406   0.333   4.479   6.256  0.7964  0.0701  0.0756
   47CHL1    O3 3407   0.291   4.648   6.165  0.5758  0.0150  0.2952
   47CHL1   H3' 3408   0.242   4.727   6.188  1.8732  0.9853 -0.1640
   47CHL1    C4 3409   0.194   4.592   6.383 -0.1690  0.7785 -0.6011
   47CHL1   H4A 3410   0.146   4.691   6.373 -0.8708  0.7708  2.0436
   47CHL1   H4B 3411   0.112   4.528   6.344 -0.9804  1.4257  0.0040
   47CHL1    C5 3412   0.220   4.540   6.525 -1.2699  0.1151  0.2806
   47CHL1    C6 3413   0.151   4.440   6.576 -0.0467 -0.3564 -0.0200
   47CHL1    H6 3414   0.060   4.388   6.541  0.6668 -2.5729  1.2341
   47CHL1    C7 3415   0.179   4.401   6.719  0.7129  0.0198  0.4210
   47CHL1   H7A 3416   0.086   4.361   6.764 -0.1741  0.4810 -0.9402
   47CHL1   H7B 3417   0.243   4.311   6.714  1.2052  0.4206 -1.0628
   47CHL1    C8 3418   0.257   4.494   6.807 -0.1102 -0.2112  0.2412
   47CHL1    H8 3419   0.192   4.581   6.829  1.4752  1.2828 -0.6994
   47CHL1   C14 3420   0.304   4.419   6.928 -1.0867  0.8114  0.2190
   47CHL1   H14 3421   0.375   4.341   6.893  0.9227  2.2916  0.7975
   47CHL1   C15 3422   0.197   4.353   7.012  0.4224  0.1325  0.2214
   47CHL1  H15A 3423   0.098   4.401   7.025  0.4326 -0.3606  2.7290
   47CHL1  H15B 3424   0.170   4.259   6.958  0.2136 -0.3130  1.0777
   47CHL1   C16 3425   0.264   4.344   7.151  0.1234  0.2928 -1.1010
   47CHL1  H16A 3426   0.215   4.413   7.224  0.8377  0.5495 -0.8504
   47CHL1  H16B 3427   0.273   4.240   7.190  0.0060  0.5883 -0.2582
   47CHL1   C17 3428   0.401   4.407   7.136  0.0987 -0.9150  0.0455
   47CHL1   H17 3429   0.467   4.322   7.106  0.2852 -0.8829  0.3610
   47CHL1   C13 3430   0.388   4.517   7.022  0.1073  0.4371 -0.0586
   47CHL1   C18 3431   0.313   4.640   7.075  0.2872  0.5038  0.3804
   47CHL1  H18A 3432   0.285   4.704   6.989  0.5317 -1.3979 -1.1791
   47CHL1  H18B 3433   0.216   4.601   7.113 -0.9614  1.2681 -1.8218
   47CHL1  H18C 3434   0.374   4.703   7.143  0.6421  2.1385 -1.3749
   47CHL1   C12 3435   0.514   4.565   6.943  0.0787 -0.2699 -0.1755
   47CHL1  H12A 3436   0.582   4.634   6.998 -0.9303  1.3209 -0.8692
   47CHL1  H12B 3437   0.573   4.478   6.908 -0.6492 -0.5219 -0.7948
   47CHL1   C11 3438   0.466   4.639   6.818 -0.2027  0.0190 -0.4762
   47CHL1  H11A 3439   0.412   4.732   6.844 -0.5412  0.1115 -1.4713
   47CHL1  H11B 3440   0.553   4.678   6.760 -0.5440  0.9658 -0.3662
   47CHL1    C9 3441   0.380   4.543   6.729  0.3890  0.6944 -0.1168
   47CHL1    H9 3442   0.437   4.449   6.715 -0.3831  0.2211 -0.1829
   47CHL1   C10 3443   0.346   4.605   6.595  0.6769  1.0803  0.2249
   47CHL1   C19 3444   0.330   4.758   6.619  0.4886  0.0683  0.0395
   47CHL1  H19A 3445   0.253   4.770   6.699  0.3109  0.8468 -0.2407
   47CHL1  H19B 3446   0.427   4.810   6.627  1.5588 -1.3984 -2.3706
   47CHL1  H19C 3447   0.287   4.793   6.523  1.1871 -0.9880 -0.6768
   47CHL1    C1 3448   0.468   4.580   6.495  0.6558  0.2644 -0.0727
   47CHL1   H1A 3449   0.568   4.617   6.529  0.9413  0.3447 -0.9775
   47CHL1   H1B 3450   0.477   4.469   6.491 -2.2428  0.0101 -2.4733
   47CHL1    C2 3451   0.435   4.644   6.355  0.2470 -0.0638 -0.4153
   47CHL1   H2A 3452   0.514   4.631   6.278  0.1527  0.2617 -0.5668
   47CHL1   H2B 3453   0.417   4.753   6.367 -4.2189 -0.5650 -0.6902
   47CHL1   C20 3454   0.455   4.468   7.269  0.5852  0.0553 -0.1838
   47CHL1   H20 3455   0.382   4.546   7.298  1.1484  1.0017 -1.2388
   47CHL1   C21 3456   0.596   4.535   7.262  0.0570  0.7336  0.3853
   47CHL1  H21A 3457   0.589   4.625   7.198  0.2030  0.5631  0.1297
   47CHL1  H21B 3458   0.671   4.471   7.211 -1.4375  0.1594 -1.1664
   47CHL1  H21C 3459   0.629   4.562   7.365  1.3119  0.6444  0.0218
   47CHL1   C22 3460   0.439   4.359   7.385  0.2633 -0.4452  0.5945
   47CHL1  H22A 3461   0.339   4.311   7.377 -1.3044  2.8145 -4.4388
   47CHL1  H22B 3462   0.523   4.293   7.356 -1.7103 -2.2001 -1.5411
   47CHL1   C23 3463   0.441   4.423   7.523  0.6714 -0.8512 -0.9932
   47CHL1  H23A 3464   0.435   4.340   7.597 -0.8917 -1.8886 -2.2265
   47CHL1  H23B 3465   0.535   4.481   7.536  0.2570 -0.4855  0.6495
   47CHL1   C24 3466   0.320   4.517   7.552  0.0466  0.5984  0.1458
   47CHL1  H24A 3467   0.303   4.596   7.476 -2.8610  0.0566  0.1236
   47CHL1  H24B 3468   0.233   4.448   7.549  0.7185 -0.2216 -1.5887
   47CHL1   C25 3469   0.340   4.603   7.687 -0.0406 -0.2908  0.6445
   47CHL1   H25 3470   0.437   4.654   7.667  1.0436 -2.2463  0.6201
   47CHL1   C26 3471   0.223   4.710   7.708  0.0658 -0.3826  0.1058
   47CHL1  H26A 3472   0.212   4.774   7.618  2.3310  0.8716  0.6381
   47CHL1  H26B 3473   0.129   4.661   7.742 -0.5569 -0.6406 -1.8729
   47CHL1  H26C 3474   0.266   4.772   7.790  1.0912 -3.2550  1.8812
   47CHL1   C27 3475   0.357   4.503   7.804 -0.3741 -0.1436  0.6168
   47CHL1  H27A 3476   0.363   4.557   7.901 -1.7473 -0.7799  1.0765
   47CHL1  H27B 3477   0.270   4.434   7.800  0.4953 -1.1913 -2.6064
   47CHL1  H27C 3478   0.447   4.440   7.789 -0.7144 -0.6914  0.8522
   48CHL1    C3 3479   3.606   7.098   6.378 -0.2874  0.2150 -0.0389
   48CHL1    H3 3480   3.705   7.092   6.428 -0.7429  1.6232  1.1095
   48CHL1    O3 3481   3.638   7.070   6.249  0.0939 -0.3071  0.7370
   48CHL1   H3' 3482   3.571   7.120   6.203  0.9262  0.6030  0.4925
   48CHL1    C4 3483   3.505   6.987   6.426 -0.0816  0.3232  0.0079
   48CHL1   H4A 3484   3.420   6.993   6.355 -1.7108 -0.6428  1.8032
   48CHL1   H4B 3485   3.551   6.888   6.411 -1.0255 -0.1381  0.0950
   48CHL1    C5 3486   3.457   7.009   6.569 -0.5086 -0.0230 -0.0804
   48CHL1    C6 3487   3.461   6.908   6.658  0.2200  0.4709  0.2617
   48CHL1    H6 3488   3.488   6.805   6.630 -0.4219  0.0427  1.1644
   48CHL1    C7 3489   3.412   6.922   6.792 -0.5133  0.3431  0.5102
   48CHL1   H7A 3490   3.351   6.833   6.819  0.6823 -1.1535 -1.4467
   48CHL1   H7B 3491   3.502   6.925   6.857 -0.3701 -1.2324  0.4120
   48CHL1    C8 3492   3.325   7.051   6.818 -0.5373 -0.2016  0.2685
   48CHL1    H8 3493   3.222   7.032   6.780  0.2418 -0.0165 -2.0959
   48CHL1   C14 3494   3.310   7.067   6.968 -0.2276  0.9264  0.2301
   48CHL1   H14 3495   3.413   7.075   7.009  0.3548 -2.5893 -0.2306
   48CHL1   C15 3496   3.241   6.948   7.034 -0.0531 -0.1223  0.4615
   48CHL1  H15A 3497   3.152   6.923   6.971  0.5016  0.3289 -0.5261
   48CHL1  H15B 3498   3.294   6.850   7.036 -1.3718 -0.8590  1.8427
   48CHL1   C16 3499   3.196   7.001   7.166  0.2815 -0.2363  0.2343
   48CHL1  H16A 3500   3.090   6.972   7.180  0.1277 -0.7288 -1.6694
   48CHL1  H16B 3501   3.254   6.973   7.256 -1.0830  0.8791  1.5046
   48CHL1   C17 3502   3.217   7.158   7.155 -0.3294 -0.1965  0.4969
   48CHL1   H17 3503   3.322   7.171   7.186  0.1094 -1.5965 -0.2726
   48CHL1   C13 3504   3.221   7.187   7.011 -0.0154  0.0630  0.3390
   48CHL1   C18 3505   3.086   7.188   6.943  0.1367  0.7352 -0.3683
   48CHL1  H18A 3506   3.018   7.106   6.972 -1.7797  1.3499 -2.7933
   48CHL1  H18B 3507   3.021   7.274   6.969 -0.8935  0.4781 -1.9644
   48CHL1  H18C 3508   3.091   7.176   6.832  2.5368  0.7075 -0.3182
   48CHL1   C12 3509   3.309   7.307   6.958  0.1477 -0.4211  0.3866
   48CHL1  H12A 3510   3.264   7.404   6.988  1.3895 -0.4458  2.6031
   48CHL1  H12B 3511   3.409   7.303   7.006  0.3884  1.5998  0.1049
   48CHL1   C11 3512   3.321   7.310   6.805 -0.4059  0.2780  0.0105
   48CHL1  H11A 3513   3.225   7.340   6.757 -1.1774  1.2441  2.0363
   48CHL1  H11B 3514   3.398   7.385   6.776 -0.1377  0.1856  0.4643
   48CHL1    C9 3515   3.383   7.177   6.756  0.0522  0.6832 -0.2746
   48CHL1    H9 3516   3.487   7.180   6.797 -0.5206 -1.5727  1.5278
   48CHL1   C10 3517   3.398   7.147   6.599  0.4841 -0.2483 -0.8850
   48CHL1   C19 3518   3.260   7.173   6.526  0.0174 -0.5551 -0.0065
   48CHL1  H19A 3519   3.273   7.174   6.416 -0.0013 -0.3961 -0.0075
   48CHL1  H19B 3520   3.192   7.087   6.545  1.3094 -1.8444 -1.0017
   48CHL1  H19C 3521   3.220   7.271   6.559 -0.3081 -0.1483 -1.5570
   48CHL1    C1 3522   3.493   7.255   6.544 -0.1245 -0.3072  0.3705
   48CHL1   H1A 3523   3.441   7.354   6.548  0.6782  0.1416 -0.0485
   48CHL1   H1B 3524   3.580   7.262   6.613 -0.1958 -2.1020  0.6762
   48CHL1    C2 3525   3.540   7.240   6.398  0.3928 -0.3423 -0.3157
   48CHL1   H2A 3526   3.601   7.328   6.368 -0.4636 -0.3195 -2.1336
   48CHL1   H2B 3527   3.449   7.255   6.336 -0.1980 -2.0194  0.1127
   48CHL1   C20 3528   3.125   7.239   7.246  0.5107 -0.3002 -0.2068
   48CHL1   H20 3529   3.021   7.208   7.225  0.9962 -0.3579 -2.8935
   48CHL1   C21 3530   3.135   7.395   7.223  0.0980 -0.0285 -0.2026
   48CHL1  H21A 3531   3.067   7.451   7.291 -0.5905  1.1810 -1.8033
   48CHL1  H21B 3532   3.099   7.409   7.119 -0.4594  0.5720  0.0652
   48CHL1  H21C 3533   3.238   7.433   7.242  0.2862 -1.0898  1.0115
   48CHL1   C22 3534   3.143   7.194   7.392 -0.2472 -0.2203 -0.1769
   48CHL1  H22A 3535   3.202   7.100   7.402  0.1302 -0.1521 -1.5207
   48CHL1  H22B 3536   3.207   7.269   7.444 -0.8294 -0.2859  0.6494
   48CHL1   C23 3537   3.007   7.186   7.470  0.2531  0.3155 -0.0019
   48CHL1  H23A 3538   2.944   7.273   7.442  1.7201  0.8386 -1.9446
   48CHL1  H23B 3539   2.968   7.088   7.435  2.1905 -0.0451 -1.3287
   48CHL1   C24 3540   3.016   7.191   7.626  0.5601 -0.5878  0.1356
   48CHL1  H24A 3541   3.086   7.112   7.660  1.5219 -0.1610 -0.8034
   48CHL1  H24B 3542   3.050   7.289   7.665 -0.6906 -1.1765  2.9134
   48CHL1   C25 3543   2.872   7.166   7.676 -0.0823 -0.1523  0.6888
   48CHL1   H25 3544   2.843   7.073   7.622  2.8991 -1.5393  1.2529
   48CHL1   C26 3545   2.878   7.135   7.829  0.1619  0.3067 -0.0175
   48CHL1  H26A 3546   2.902   7.228   7.885  3.6279 -1.2983  1.4941
   48CHL1  H26B 3547   2.776   7.110   7.864  0.4028 -0.4453  0.1795
   48CHL1  H26C 3548   2.946   7.050   7.856  0.7430  1.2617  1.7145
   48CHL1   C27 3549   2.767   7.278   7.640 -0.4586 -0.2515  0.5505
   48CHL1  H27A 3550   2.800   7.373   7.686  0.2348  0.1118 -0.6501
   48CHL1  H27B 3551   2.751   7.296   7.531 -1.0113  0.0569  0.6776
   48CHL1  H27C 3552   2.662   7.250   7.662 -0.5379 -0.3415  0.0803
   49CHL1    C3 3553   2.251   0.807   6.206  0.1587 -0.3930  0.1084
   49CHL1    H3 3554   2.282   0.704   6.176  0.4065 -0.0661 -0.7818
   49CHL1    O3 3555   2.233   0.884   6.091 -0.4205 -0.4571  0.0653
   49CHL1   H3' 3556   2.210   0.971   6.122  0.1265 -0.2295 -0.1491
   49CHL1    C4 3557   2.112   0.794   6.272 -0.0656  0.6962 -0.5905
   49CHL1   H4A 3558   2.063   0.894   6.266 -2.3083 -0.3884 -1.6024
   49CHL1   H4B 3559   2.055   0.725   6.206  2.1910 -0.7497 -1.1148
   49CHL1    C5 3560   2.122   0.740   6.414 -0.0037 -0.0636 -0.0217
   49CHL1    C6 3561   2.032   0.650   6.451 -0.3946  0.3137 -0.0387
   49CHL1    H6 3562   1.957   0.615   6.379  1.0818 -2.1892 -0.4438
   49CHL1    C7 3563   2.023   0.593   6.581 -0.8022 -0.2750 -0.2048
   49CHL1   H7A 3564   1.917   0.600   6.612 -0.5553 -0.9490  0.8096
   49CHL1   H7B 3565   2.047   0.485   6.584  0.1825 -0.0711 -0.2245
   49CHL1    C8 3566   2.111   0.671   6.689  0.3820 -0.3199  0.6030
   49CHL1    H8 3567   2.055   0.762   6.720  1.4576  0.5678  0.0096
   49CHL1   C14 3568   2.107   0.582   6.817 -0.3503 -1.1792 -0.3585
   49CHL1   H14 3569   2.180   0.506   6.781  1.8688  0.9467 -0.6019
   49CHL1   C15 3570   1.981   0.520   6.871 -0.3402 -0.9860 -0.3057
   49CHL1  H15A 3571   1.899   0.595   6.864 -0.6173 -1.2789 -0.2068
   49CHL1  H15B 3572   1.955   0.428   6.814 -0.3605 -0.6530 -0.8400
   49CHL1   C16 3573   2.021   0.482   7.018 -0.0361  0.3119 -0.3588
   49CHL1  H16A 3574   1.961   0.531   7.098  3.0270 -0.3507  2.5733
   49CHL1  H16B 3575   2.014   0.372   7.031 -2.3325 -0.2068 -4.4106
   49CHL1   C17 3576   2.172   0.538   7.043  0.1380  0.4590  0.6273
   49CHL1   H17 3577   2.239   0.453   7.015  0.6964  0.8280  0.8320
   49CHL1   C13 3578   2.189   0.650   6.938 -0.2683 -0.2300  0.0143
   49CHL1   C18 3579   2.113   0.776   6.986 -0.2835 -0.5421 -0.2199
   49CHL1  H18A 3580   2.168   0.843   7.055  0.0897  1.2017 -2.0871
   49CHL1  H18B 3581   2.081   0.841   6.902  1.3610  1.3294  0.5226
   49CHL1  H18C 3582   2.024   0.734   7.037 -1.2456  0.4099 -1.0724
   49CHL1   C12 3583   2.336   0.674   6.874 -0.0260  0.7610 -0.0069
   49CHL1  H12A 3584   2.405   0.723   6.946  0.3250  4.4277 -2.5350
   49CHL1  H12B 3585   2.369   0.573   6.843 -2.2402  0.2556 -0.9048
   49CHL1   C11 3586   2.331   0.769   6.754 -1.1312  0.3257 -0.0327
   49CHL1  H11A 3587   2.288   0.863   6.794 -2.6955 -0.3328 -0.1039
   49CHL1  H11B 3588   2.431   0.784   6.707  0.0603 -0.8780  1.9815
   49CHL1    C9 3589   2.247   0.713   6.637 -0.5766  0.3930  0.6957
   49CHL1    H9 3590   2.304   0.622   6.610  1.0064  1.6707 -0.5205
   49CHL1   C10 3591   2.234   0.801   6.505 -0.1791  0.2913  0.1192
   49CHL1   C19 3592   2.194   0.948   6.539  0.0228  0.8518 -0.2141
   49CHL1  H19A 3593   2.092   0.957   6.583 -0.0446 -0.0134 -0.1780
   49CHL1  H19B 3594   2.267   0.989   6.612  0.0195  0.0614  0.2449
   49CHL1  H19C 3595   2.201   1.018   6.454  1.1909 -1.8244 -2.4709
   49CHL1    C1 3596   2.376   0.788   6.428 -0.2410 -0.4575  0.3618
   49CHL1   H1A 3597   2.455   0.832   6.491 -0.4624  2.2928 -1.1368
   49CHL1   H1B 3598   2.393   0.678   6.418 -0.8568 -0.7996  2.5761
   49CHL1    C2 3599   2.373   0.859   6.292 -0.0820 -1.2715  0.0040
   49CHL1   H2A 3600   2.470   0.856   6.239  0.7318  0.8261  1.2381
   49CHL1   H2B 3601   2.355   0.967   6.310  0.2045 -1.0952 -0.7482
   49CHL1   C20 3602   2.194   0.565   7.187  0.4784  0.3426  0.6049
   49CHL1   H20 3603   2.117   0.632   7.231  0.4555  1.4617 -1.0432
   49CHL1   C21 3604   2.335   0.628   7.212 -0.2382  0.3275  0.4943
   49CHL1  H21A 3605   2.355   0.656   7.317  3.5845 -0.7585  0.1988
   49CHL1  H21B 3606   2.363   0.718   7.153  3.0821 -0.3990  0.7486
   49CHL1  H21C 3607   2.409   0.548   7.193 -0.9714 -0.4485  0.8287
   49CHL1   C22 3608   2.189   0.426   7.261  0.2536 -0.2714  0.1056
   49CHL1  H22A 3609   2.087   0.385   7.241  0.4342 -0.1353 -1.2287
   49CHL1  H22B 3610   2.274   0.362   7.227  2.0688  0.8291  2.3367
   49CHL1   C23 3611   2.200   0.434   7.416 -0.4593 -0.5280  0.1795
   49CHL1  H23A 3612   2.308   0.453   7.431 -0.7134  1.2226 -0.0546
   49CHL1  H23B 3613   2.153   0.521   7.465 -0.7624 -0.7174  0.2269
   49CHL1   C24 3614   2.143   0.303   7.483 -1.0497 -0.1733  0.3860
   49CHL1  H24A 3615   2.035   0.305   7.459 -1.3173 -0.8231  1.4735
   49CHL1  H24B 3616   2.183   0.217   7.424 -1.9682 -0.9267  0.8254
   49CHL1   C25 3617   2.168   0.286   7.644 -0.2900 -0.1015 -0.3524
   49CHL1   H25 3618   2.148   0.388   7.684  2.6879  0.2033  0.5538
   49CHL1   C26 3619   2.068   0.187   7.716 -0.9359 -0.0737 -0.3303
   49CHL1  H26A 3620   1.967   0.205   7.673 -0.7185 -1.5162 -1.4993
   49CHL1  H26B 3621   2.098   0.081   7.711 -1.2190 -0.1442 -0.5219
   49CHL1  H26C 3622   2.063   0.213   7.824 -0.6780 -1.6953  0.0941
   49CHL1   C27 3623   2.315   0.244   7.674 -0.0373 -0.5605 -0.4951
   49CHL1  H27A 3624   2.339   0.145   7.631  1.4475 -0.3500 -0.2033
   49CHL1  H27B 3625   2.387   0.324   7.647 -1.3045  0.6518 -0.3546
   49CHL1  H27C 3626   2.335   0.237   7.784  1.6266  2.0978 -0.5427
   50CHL1    C3 3627   1.491   6.532   6.210  0.4112 -0.1881  0.0100
   50CHL1    H3 3628   1.397   6.477   6.187  0.2341  0.6519 -1.3439
   50CHL1    O3 3629   1.557   6.585   6.092  0.3758 -0.3422  0.1507
   50CHL1   H3' 3630   1.561   6.508   6.035 -2.3138  0.4020 -1.2201
   50CHL1    C4 3631   1.456   6.655   6.294 -0.4744  0.3802 -0.0146
   50CHL1   H4A 3632   1.550   6.712   6.309 -0.2098  1.2429 -3.8878
   50CHL1   H4B 3633   1.388   6.709   6.226 -2.2121 -0.1963  1.1934
   50CHL1    C5 3634   1.388   6.607   6.420 -0.0726 -0.4581 -0.7067
   50CHL1    C6 3635   1.265   6.656   6.452  0.0979 -0.3719 -1.0680
   50CHL1    H6 3636   1.216   6.726   6.383 -0.1066 -0.0514 -0.6020
   50CHL1    C7 3637   1.195   6.617   6.584 -0.0061 -0.1425  0.4367
   50CHL1   H7A 3638   1.158   6.712   6.628  1.2852 -0.3479  2.0752
   50CHL1   H7B 3639   1.102   6.565   6.555 -0.4276  0.8871 -0.1132
   50CHL1    C8 3640   1.283   6.542   6.684  0.3581 -0.3533 -0.5830
   50CHL1    H8 3641   1.344   6.619   6.736 -1.2704  0.2925  0.4827
   50CHL1   C14 3642   1.201   6.469   6.789 -0.0173 -0.6388  0.8982
   50CHL1   H14 3643   1.154   6.385   6.734 -0.0570  1.5367 -2.7560
   50CHL1   C15 3644   1.088   6.562   6.858 -0.8635  0.4961  0.0490
   50CHL1  H15A 3645   1.128   6.662   6.882 -0.1211  0.1960  0.0969
   50CHL1  H15B 3646   0.989   6.560   6.808 -0.1515  2.2615 -1.5441
   50CHL1   C16 3647   1.072   6.484   6.993  0.2993  0.1031 -0.3928
   50CHL1  H16A 3648   1.094   6.537   7.088  0.8509 -2.3019  0.9110
   50CHL1  H16B 3649   0.969   6.444   7.003  0.8837 -1.4299 -0.1146
   50CHL1   C17 3650   1.165   6.361   6.989 -0.1051 -0.0940  0.5449
   50CHL1   H17 3651   1.108   6.279   6.941 -0.9344 -0.4122  2.0252
   50CHL1   C13 3652   1.283   6.400   6.893  0.2134  0.4131  0.2822
   50CHL1   C18 3653   1.383   6.490   6.967  0.7978 -0.1873  0.2001
   50CHL1  H18A 3654   1.333   6.549   7.046 -0.6600 -1.6108  0.3876
   50CHL1  H18B 3655   1.456   6.423   7.018  0.2565  0.3490  1.7088
   50CHL1  H18C 3656   1.432   6.562   6.898 -0.5854  1.0609  0.4953
   50CHL1   C12 3657   1.355   6.284   6.819  0.0189  0.0335  0.2257
   50CHL1  H12A 3658   1.419   6.216   6.880 -2.4703 -2.0024  0.7181
   50CHL1  H12B 3659   1.280   6.216   6.774  0.4159  1.8249 -3.5162
   50CHL1   C11 3660   1.433   6.328   6.696 -0.1851 -0.8086 -0.0403
   50CHL1  H11A 3661   1.526   6.363   6.745 -0.1678 -1.5192  0.4625
   50CHL1  H11B 3662   1.455   6.243   6.627 -1.7542 -0.8766 -0.4934
   50CHL1    C9 3663   1.367   6.435   6.609 -0.3477 -0.0886  0.3065
   50CHL1    H9 3664   1.299   6.384   6.538  1.0429  1.5798 -2.3954
   50CHL1   C10 3665   1.462   6.504   6.505  0.6249  0.4377 -0.9471
   50CHL1   C19 3666   1.580   6.590   6.570  0.3313 -0.0807 -1.2796
   50CHL1  H19A 3667   1.633   6.513   6.630 -0.2092 -0.6395 -1.5146
   50CHL1  H19B 3668   1.645   6.638   6.493 -1.1102  0.5209 -2.1544
   50CHL1  H19C 3669   1.549   6.671   6.639 -3.0322 -0.9886 -1.5711
   50CHL1    C1 3670   1.518   6.392   6.412 -0.2152 -0.1749  0.0467
   50CHL1   H1A 3671   1.576   6.315   6.466 -0.5409  0.2485  1.0235
   50CHL1   H1B 3672   1.434   6.327   6.380 -0.1109 -1.7877  2.7666
   50CHL1    C2 3673   1.591   6.444   6.291  0.6549 -0.3322 -0.4744
   50CHL1   H2A 3674   1.621   6.362   6.223  0.3365 -1.3555  0.5840
   50CHL1   H2B 3675   1.677   6.511   6.312 -0.1523  0.6875 -0.3785
   50CHL1   C20 3676   1.186   6.309   7.140 -0.2941 -0.1826 -0.6019
   50CHL1   H20 3677   1.227   6.385   7.210 -4.3713  0.7318  1.1094
   50CHL1   C21 3678   1.286   6.190   7.128 -0.5119 -0.1396 -0.3944
   50CHL1  H21A 3679   1.286   6.122   7.216 -0.1678 -0.1912 -0.4333
   50CHL1  H21B 3680   1.390   6.228   7.125 -0.1694 -0.4609  3.2174
   50CHL1  H21C 3681   1.259   6.131   7.037 -0.1623 -0.5325 -0.2466
   50CHL1   C22 3682   1.054   6.261   7.212  1.0340  0.5864 -0.0970
   50CHL1  H22A 3683   0.981   6.346   7.209 -3.4968 -2.8969  0.5124
   50CHL1  H22B 3684   1.012   6.180   7.149  1.6704  1.3550 -1.5779
   50CHL1   C23 3685   1.057   6.220   7.357 -0.8015 -0.2854 -0.1826
   50CHL1  H23A 3686   0.959   6.177   7.387 -0.7719 -1.8115 -2.0649
   50CHL1  H23B 3687   1.129   6.136   7.371 -0.1182  0.4725  1.0269
   50CHL1   C24 3688   1.080   6.329   7.464  0.3345  0.1992  0.8367
   50CHL1  H24A 3689   1.157   6.396   7.420 -0.7043  0.6089 -0.4158
   50CHL1  H24B 3690   0.988   6.389   7.481  1.1277  0.9622  2.8039
   50CHL1   C25 3691   1.129   6.278   7.603 -0.2676  1.2601  0.3255
   50CHL1   H25 3692   1.230   6.233   7.593 -1.6026 -2.1432  0.8188
   50CHL1   C26 3693   1.148   6.395   7.695  0.6087  0.1251  0.3474
   50CHL1  H26A 3694   1.043   6.427   7.712  0.3828 -0.3606 -0.1013
   50CHL1  H26B 3695   1.196   6.370   7.792  1.6773  2.1692  0.4064
   50CHL1  H26C 3696   1.198   6.482   7.648 -3.8504  3.1517  0.6381
   50CHL1   C27 3697   1.043   6.155   7.662 -0.4844 -0.5261  0.2721
   50CHL1  H27A 3698   1.054   6.072   7.589  1.2591  0.3125 -0.4925
   50CHL1  H27B 3699   1.072   6.124   7.764  1.0867  0.5604  0.1976
   50CHL1  H27C 3700   0.939   6.192   7.657 -1.1057 -2.2510 -0.4450
   51CHL1    C3 3701   2.341   6.862   6.210 -0.2483 -0.3007 -0.2870
   51CHL1    H3 3702   2.371   6.957   6.259 -1.7870  0.6539 -1.1029
   51CHL1    O3 3703   2.402   6.871   6.080 -0.1239 -0.1363  0.5770
   51CHL1   H3' 3704   2.342   6.928   6.031  1.8273 -0.0646 -1.9507
   51CHL1    C4 3705   2.404   6.744   6.284 -0.0917  0.1248  0.5271
   51CHL1   H4A 3706   2.395   6.649   6.228  1.6757  0.0017  0.3848
   51CHL1   H4B 3707   2.511   6.773   6.286  0.1567 -0.4092 -2.1391
   51CHL1    C5 3708   2.338   6.715   6.420 -0.1886  0.7288 -0.3353
   51CHL1    C6 3709   2.409   6.716   6.530 -0.2462  0.3025  0.2016
   51CHL1    H6 3710   2.515   6.745   6.524 -0.3748  0.5920 -0.7754
   51CHL1    C7 3711   2.353   6.688   6.670  0.3901  0.4535 -1.0543
   51CHL1   H7A 3712   2.415   6.624   6.735 -2.1088 -0.3344  0.7296
   51CHL1   H7B 3713   2.340   6.785   6.723  1.4738 -0.2432  0.5529
   51CHL1    C8 3714   2.207   6.636   6.653 -0.0077 -0.2092  0.8536
   51CHL1    H8 3715   2.205   6.527   6.628 -2.2672  0.1826 -1.0133
   51CHL1   C14 3716   2.154   6.639   6.795  0.1849 -0.1630 -0.3630
   51CHL1   H14 3717   2.158   6.743   6.833  0.5153 -0.3852  0.2214
   51CHL1   C15 3718   2.223   6.562   6.911 -0.1165  0.0657  0.4535
   51CHL1  H15A 3719   2.237   6.454   6.889  0.9727  0.5920 -1.7442
   51CHL1  H15B 3720   2.315   6.610   6.949 -0.0843  1.0983 -0.8146
   51CHL1   C16 3721   2.118   6.561   7.027  0.1227  0.1512  0.1292
   51CHL1  H16A 3722   2.111   6.460   7.075 -0.7046 -0.0663 -0.4274
   51CHL1  H16B 3723   2.150   6.633   7.105 -1.2898 -1.7344  2.6156
   51CHL1   C17 3724   1.987   6.614   6.964  0.3831  0.1336  0.1545
   51CHL1   H17 3725   1.986   6.723   6.987  0.2752 -0.1158  1.4298
   51CHL1   C13 3726   2.004   6.601   6.811 -0.0737 -0.0682  0.0408
   51CHL1   C18 3727   1.981   6.457   6.761 -0.0839 -0.2364 -0.2616
   51CHL1  H18A 3728   2.000   6.394   6.851 -2.4940 -2.0462 -0.8989
   51CHL1  H18B 3729   1.872   6.445   6.740 -0.1516 -0.8705  0.4120
   51CHL1  H18C 3730   2.052   6.425   6.683 -1.3163 -0.0527 -1.4997
   51CHL1   C12 3731   1.918   6.696   6.722 -0.1853 -0.2397 -0.5330
   51CHL1  H12A 3732   1.815   6.654   6.715  0.1746 -1.4879  1.0147
   51CHL1  H12B 3733   1.932   6.798   6.763 -1.6486  0.0234 -0.6471
   51CHL1   C11 3734   1.966   6.697   6.576 -0.4996  0.1604 -1.1823
   51CHL1  H11A 3735   1.944   6.593   6.543 -1.3904  0.3993 -1.3636
   51CHL1  H11B 3736   1.910   6.776   6.521 -1.8446  2.8229  3.4869
   51CHL1    C9 3737   2.121   6.716   6.559  0.4491 -0.0562 -0.4970
   51CHL1    H9 3738   2.130   6.821   6.593  0.8849 -0.2190 -0.0965
   51CHL1   C10 3739   2.176   6.714   6.411 -0.6687  0.5079 -0.7228
   51CHL1   C19 3740   2.135   6.572   6.351  0.4059  0.1082  0.4465
   51CHL1  H19A 3741   2.024   6.570   6.340  0.2517 -2.2379  1.8936
   51CHL1  H19B 3742   2.189   6.565   6.254 -1.5998  0.1869 -0.7262
   51CHL1  H19C 3743   2.163   6.488   6.417 -3.7458 -0.6592  1.5494
   51CHL1    C1 3744   2.126   6.835   6.334  0.5524  0.2808 -0.3741
   51CHL1   H1A 3745   2.017   6.817   6.325  0.5543 -1.3253  1.7892
   51CHL1   H1B 3746   2.121   6.931   6.389  0.7330 -0.4529  0.9690
   51CHL1    C2 3747   2.192   6.852   6.199  0.1479 -0.0061 -0.3249
   51CHL1   H2A 3748   2.153   6.948   6.158  0.3564 -0.5752 -1.9521
   51CHL1   H2B 3749   2.172   6.762   6.137  0.8765 -2.2417  2.4883
   51CHL1   C20 3750   1.867   6.556   7.032  0.0005  0.5856  0.1332
   51CHL1   H20 3751   1.877   6.446   7.038 -0.0595  0.4559 -1.7186
   51CHL1   C21 3752   1.727   6.585   6.966 -0.1873  0.7989 -0.6435
   51CHL1  H21A 3753   1.720   6.543   6.863 -0.0536 -1.0462  0.0659
   51CHL1  H21B 3754   1.689   6.690   6.967 -4.2180 -0.4268  2.3329
   51CHL1  H21C 3755   1.650   6.520   7.013  0.6042  0.5489  0.3550
   51CHL1   C22 3756   1.858   6.600   7.188 -0.5895  0.1759 -0.7311
   51CHL1  H22A 3757   1.965   6.591   7.219 -0.1461 -0.3028 -2.3034
   51CHL1  H22B 3758   1.838   6.710   7.193 -0.8013  0.1285 -0.5302
   51CHL1   C23 3759   1.764   6.523   7.278  0.4322  0.3671 -0.2969
   51CHL1  H23A 3760   1.747   6.420   7.242  3.3618 -0.7307  1.1511
   51CHL1  H23B 3761   1.829   6.507   7.367  1.6439 -1.0980 -1.4048
   51CHL1   C24 3762   1.638   6.605   7.313 -0.1098  0.0400  0.3341
   51CHL1  H24A 3763   1.661   6.701   7.363 -1.1466  0.7447 -0.5009
   51CHL1  H24B 3764   1.584   6.626   7.218  2.5081  0.8473 -1.0595
   51CHL1   C25 3765   1.548   6.515   7.399  0.1873 -0.1437  0.3007
   51CHL1   H25 3766   1.609   6.490   7.489  1.9091  0.1577 -0.7404
   51CHL1   C26 3767   1.410   6.587   7.426  0.7067 -0.3821  0.6640
   51CHL1  H26A 3768   1.372   6.535   7.517  1.8828  0.1533  1.4766
   51CHL1  H26B 3769   1.417   6.696   7.447  0.7580  0.1120 -1.6246
   51CHL1  H26C 3770   1.339   6.573   7.341 -0.8566  1.9293  1.4896
   51CHL1   C27 3771   1.509   6.377   7.339  0.4591  0.5271  0.3415
   51CHL1  H27A 3772   1.486   6.392   7.231 -0.3032  1.7599  0.6564
   51CHL1  H27B 3773   1.593   6.305   7.354 -1.3186 -1.7470 -0.0081
   51CHL1  H27C 3774   1.416   6.350   7.394 -0.7188  1.1398 -1.2742
   52CHL1    C3 3775   6.152   0.948   5.988  0.3074  0.1713 -0.1317
   52CHL1    H3 3776   6.067   0.876   5.988  1.3776 -1.2926  3.0327
   52CHL1    O3 3777   6.195   0.983   5.858  0.3636 -0.4011  0.6495
   52CHL1   H3' 3778   6.273   0.926   5.850  0.0635 -1.3777  3.5087
   52CHL1    C4 3779   6.116   1.074   6.061  0.1397 -0.4804 -0.2101
   52CHL1   H4A 3780   6.200   1.146   6.046 -0.5714  0.2853 -0.5997
   52CHL1   H4B 3781   6.030   1.122   6.010 -0.5818 -2.6019 -1.0990
   52CHL1    C5 3782   6.084   1.062   6.205  0.3349 -0.6027 -0.5520
   52CHL1    C6 3783   5.970   1.115   6.258 -0.5762 -0.7801  0.1496
   52CHL1    H6 3784   5.901   1.177   6.198 -0.8371  1.4072  2.5312
   52CHL1    C7 3785   5.931   1.091   6.398  1.1449  0.0769  0.0388
   52CHL1   H7A 3786   5.894   1.185   6.445  0.9825  1.2902 -2.3621
   52CHL1   H7B 3787   5.847   1.018   6.405  2.5077 -1.5235  0.6624
   52CHL1    C8 3788   6.047   1.045   6.487  0.2691  0.1059 -0.1230
   52CHL1    H8 3789   6.124   1.124   6.491 -1.3625  1.9021 -2.1641
   52CHL1   C14 3790   5.992   1.004   6.623 -1.0808 -0.3290  0.4289
   52CHL1   H14 3791   5.922   0.918   6.617 -1.5753  0.1599 -1.3309
   52CHL1   C15 3792   5.922   1.109   6.709  0.1666  0.4803  0.5062
   52CHL1  H15A 3793   5.983   1.202   6.712 -0.0518  0.7088 -1.2093
   52CHL1  H15B 3794   5.828   1.132   6.654  0.8205  2.0151 -0.0142
   52CHL1   C16 3795   5.903   1.042   6.844 -0.5875  0.5459 -0.3837
   52CHL1  H16A 3796   5.924   1.116   6.924  2.1256 -0.0158 -0.4802
   52CHL1  H16B 3797   5.797   1.013   6.854 -0.6584 -0.2030 -2.8172
   52CHL1   C17 3798   5.997   0.927   6.845  0.0909 -0.0703  0.4753
   52CHL1   H17 3799   5.928   0.846   6.814 -0.2342  0.0346  0.9172
   52CHL1   C13 3800   6.097   0.951   6.721 -0.0608 -0.3545  0.0554
   52CHL1   C18 3801   6.199   1.060   6.759 -0.3850 -0.1217 -0.3993
   52CHL1  H18A 3802   6.270   1.016   6.832 -0.1573  0.4515 -0.2731
   52CHL1  H18B 3803   6.249   1.094   6.666  1.4083  0.5112  0.7490
   52CHL1  H18C 3804   6.150   1.137   6.822  0.1057 -1.6781  2.0260
   52CHL1   C12 3805   6.160   0.828   6.657  0.0051  0.0368  0.0010
   52CHL1  H12A 3806   6.239   0.788   6.724 -0.5768 -0.9390  0.1203
   52CHL1  H12B 3807   6.084   0.747   6.656 -0.4845  0.4125  2.2595
   52CHL1   C11 3808   6.222   0.859   6.516  0.1452 -0.5416 -0.8696
   52CHL1  H11A 3809   6.307   0.927   6.542  0.7383 -2.4846  3.0244
   52CHL1  H11B 3810   6.253   0.763   6.470  1.0810 -0.1278 -1.1398
   52CHL1    C9 3811   6.125   0.934   6.421  0.4054 -0.3619  0.2295
   52CHL1    H9 3812   6.048   0.858   6.396 -0.4257 -0.3571  2.5777
   52CHL1   C10 3813   6.185   0.976   6.286 -1.1875  0.6357 -0.4715
   52CHL1   C19 3814   6.311   1.059   6.312  0.1358  0.0319  0.5944
   52CHL1  H19A 3815   6.281   1.150   6.369 -0.7542 -0.6903  1.3173
   52CHL1  H19B 3816   6.384   0.991   6.361  0.1430 -1.3383 -1.1928
   52CHL1  H19C 3817   6.341   1.100   6.213  0.0112 -1.8244 -0.2632
   52CHL1    C1 3818   6.230   0.850   6.203  0.1520  0.0244 -0.5518
   52CHL1   H1A 3819   6.306   0.803   6.269  0.1364  0.3507 -0.2990
   52CHL1   H1B 3820   6.138   0.789   6.209  0.2466 -0.0515  0.3653
   52CHL1    C2 3821   6.267   0.876   6.060 -0.0765  0.0319  0.1764
   52CHL1   H2A 3822   6.271   0.776   6.011 -0.1445 -0.2288  0.6864
   52CHL1   H2B 3823   6.362   0.933   6.050  1.0478 -1.7560  0.0667
   52CHL1   C20 3824   6.063   0.889   6.981  0.4793  0.0730  0.0792
   52CHL1   H20 3825   6.155   0.949   6.995 -0.0129  1.7866 -3.1619
   52CHL1   C21 3826   6.102   0.744   6.986  0.2795  0.3146 -0.3321
   52CHL1  H21A 3827   6.190   0.744   7.053  0.0354 -0.3187  0.0008
   52CHL1  H21B 3828   6.150   0.692   6.900  3.3301  0.7987  0.9527
   52CHL1  H21C 3829   6.026   0.671   7.024  0.7855 -0.8866 -1.5318
   52CHL1   C22 3830   5.978   0.936   7.103 -0.2878 -0.0171 -0.6125
   52CHL1  H22A 3831   5.983   1.047   7.104 -0.0060  0.0352  2.4246
   52CHL1  H22B 3832   5.874   0.900   7.088  0.4127 -1.7298 -1.7544
   52CHL1   C23 3833   6.024   0.889   7.240  0.2550 -0.6043 -0.2953
   52CHL1  H23A 3834   6.009   0.781   7.259 -2.0465  0.0933  2.3989
   52CHL1  H23B 3835   6.131   0.916   7.253  0.4878 -1.0863 -1.1238
   52CHL1   C24 3836   5.928   0.946   7.349  0.1409 -0.4325  0.1825
   52CHL1  H24A 3837   5.898   1.050   7.324 -0.0192 -0.4339  0.3694
   52CHL1  H24B 3838   5.836   0.884   7.347 -0.0080 -0.2010 -0.3020
   52CHL1   C25 3839   5.978   0.942   7.494 -0.6608  0.7336 -0.3290
   52CHL1   H25 3840   6.072   1.001   7.505 -0.0185 -0.4671  0.9901
   52CHL1   C26 3841   5.874   1.000   7.591  0.1109  0.2583  0.5795
   52CHL1  H26A 3842   5.779   0.945   7.609  0.0330 -0.1017 -0.8555
   52CHL1  H26B 3843   5.905   1.013   7.697  0.1098 -1.5663  0.8413
   52CHL1  H26C 3844   5.847   1.105   7.568 -1.4077  0.0535  1.2750
   52CHL1   C27 3845   5.991   0.799   7.539  0.0305 -0.3919 -0.3790
   52CHL1  H27A 3846   6.022   0.791   7.645 -0.2686 -2.7878 -0.4124
   52CHL1  H27B 3847   5.903   0.734   7.525 -0.0229 -0.2646 -0.6484
   52CHL1  H27C 3848   6.083   0.755   7.494  0.7157 -0.5827  1.1427
   53CHL1    C3 3849   6.712   6.231   6.311 -0.2454 -0.4436  0.1281
   53CHL1    H3 3850   6.616   6.251   6.259 -0.5340  2.7956  1.6590
   53CHL1    O3 3851   6.814   6.266   6.217 -0.0973  0.7255 -0.1101
   53CHL1   H3' 3852   6.896   6.229   6.249 -0.9391 -1.8754 -0.6736
   53CHL1    C4 3853   6.727   6.312   6.445  0.7862  0.2872  0.8926
   53CHL1   H4A 3854   6.833   6.300   6.477  0.9185 -0.4967  0.1728
   53CHL1   H4B 3855   6.710   6.417   6.411 -0.9378 -0.5593 -1.0957
   53CHL1    C5 3856   6.622   6.266   6.547  0.0259  0.1398  0.0864
   53CHL1    C6 3857   6.538   6.344   6.618 -0.2154  1.0594  0.1085
   53CHL1    H6 3858   6.538   6.450   6.592 -0.4791  0.8320 -0.8381
   53CHL1    C7 3859   6.442   6.299   6.731 -0.3784 -0.6142  0.0727
   53CHL1   H7A 3860   6.463   6.368   6.816  0.1796 -1.4707  0.6470
   53CHL1   H7B 3861   6.334   6.303   6.706 -0.9071 -3.1430  1.5406
   53CHL1    C8 3862   6.467   6.158   6.779 -0.7020 -0.3561 -0.0725
   53CHL1    H8 3863   6.554   6.165   6.847  0.1156  0.3282 -1.1554
   53CHL1   C14 3864   6.346   6.106   6.861  0.3261 -0.5764  0.0766
   53CHL1   H14 3865   6.265   6.102   6.785  0.8248  1.2802 -0.5999
   53CHL1   C15 3866   6.291   6.189   6.977  0.6931  0.4090 -0.6970
   53CHL1  H15A 3867   6.369   6.220   7.050 -1.0125 -1.2989  2.0503
   53CHL1  H15B 3868   6.242   6.286   6.951  0.4354 -0.0615 -2.0562
   53CHL1   C16 3869   6.198   6.090   7.052 -0.3878 -0.3319 -0.6025
   53CHL1  H16A 3870   6.224   6.089   7.160  1.6999  1.1171 -1.0349
   53CHL1  H16B 3871   6.093   6.122   7.031 -0.8386 -1.6433 -0.4200
   53CHL1   C17 3872   6.225   5.952   6.992  0.6019  0.4108  0.1669
   53CHL1   H17 3873   6.151   5.926   6.914 -0.3377 -0.1051  1.2064
   53CHL1   C13 3874   6.362   5.966   6.917 -0.5364 -1.1021 -0.6283
   53CHL1   C18 3875   6.476   5.979   7.014 -0.4640 -0.6088 -0.1761
   53CHL1  H18A 3876   6.450   6.042   7.102 -1.0157  1.1999 -1.5476
   53CHL1  H18B 3877   6.500   5.879   7.054 -0.3568  0.2450  2.0161
   53CHL1  H18C 3878   6.570   6.020   6.970  0.2787 -0.6785  1.2866
   53CHL1   C12 3879   6.384   5.876   6.801 -0.0245  0.3603  0.3846
   53CHL1  H12A 3880   6.401   5.774   6.841 -1.6136  1.1059  3.2746
   53CHL1  H12B 3881   6.297   5.847   6.740 -0.0122 -1.0957  1.0057
   53CHL1   C11 3882   6.505   5.919   6.709 -0.3600  0.3008 -0.2390
   53CHL1  H11A 3883   6.595   5.905   6.773 -0.0030  0.3123 -0.7332
   53CHL1  H11B 3884   6.526   5.864   6.615  1.0214 -0.6339  0.5718
   53CHL1    C9 3885   6.496   6.063   6.662 -1.3238 -0.1634  0.0464
   53CHL1    H9 3886   6.400   6.070   6.607 -1.9213  0.3451  1.1178
   53CHL1   C10 3887   6.613   6.108   6.569  0.0228 -0.1047  0.7838
   53CHL1   C19 3888   6.741   6.073   6.646 -0.8649 -0.2254  0.2769
   53CHL1  H19A 3889   6.736   6.093   6.755 -2.1715 -0.5697  0.3001
   53CHL1  H19B 3890   6.772   5.966   6.639  2.5664  0.6624  0.4405
   53CHL1  H19C 3891   6.832   6.109   6.594 -2.8694  3.3078 -1.1201
   53CHL1    C1 3892   6.608   6.029   6.432  0.4851 -0.7067  0.2558
   53CHL1   H1A 3893   6.604   5.918   6.440  0.0017 -0.5880  2.0791
   53CHL1   H1B 3894   6.508   6.054   6.391  1.0204 -1.9113 -1.9743
   53CHL1    C2 3895   6.718   6.081   6.336 -0.1557 -0.1251  0.4215
   53CHL1   H2A 3896   6.714   6.032   6.237  1.5805 -1.7675  1.0884
   53CHL1   H2B 3897   6.816   6.058   6.384 -0.1348  0.5103  0.6893
   53CHL1   C20 3898   6.212   5.838   7.101  0.3929 -0.4497  0.0638
   53CHL1   H20 3899   6.277   5.869   7.185 -0.8272  0.2291  0.7833
   53CHL1   C21 3900   6.254   5.703   7.050 -0.3195 -0.1256 -0.0573
   53CHL1  H21A 3901   6.219   5.682   6.947 -2.4122 -1.2218  0.8230
   53CHL1  H21B 3902   6.204   5.630   7.117 -0.1278 -0.6392 -0.4746
   53CHL1  H21C 3903   6.365   5.693   7.045 -0.4324 -1.2713 -0.4865
   53CHL1   C22 3904   6.066   5.837   7.154 -0.6111  0.0421 -0.0269
   53CHL1  H22A 3905   6.019   5.937   7.149 -0.0976  0.3352  0.9821
   53CHL1  H22B 3906   5.991   5.767   7.110 -0.9998 -0.8683  1.9811
   53CHL1   C23 3907   6.057   5.808   7.308 -0.6088 -0.0005  0.0819
   53CHL1  H23A 3908   6.085   5.701   7.315 -0.5733  0.0414  0.6449
   53CHL1  H23B 3909   6.127   5.867   7.370 -2.1500 -0.1429  2.0808
   53CHL1   C24 3910   5.918   5.821   7.364  0.5204 -0.4649  0.0595
   53CHL1  H24A 3911   5.884   5.924   7.342 -2.6648 -1.1462  1.2447
   53CHL1  H24B 3912   5.847   5.754   7.311 -0.3123 -0.0818  0.6694
   53CHL1   C25 3913   5.882   5.796   7.515 -0.3725  0.5359  0.5557
   53CHL1   H25 3914   5.926   5.697   7.539  0.8486  0.6546 -1.0005
   53CHL1   C26 3915   5.948   5.894   7.613 -0.4581 -0.1457  0.3749
   53CHL1  H26A 3916   5.909   5.888   7.717  1.5385 -0.0094  1.1800
   53CHL1  H26B 3917   6.058   5.882   7.613 -0.4395 -0.2861 -1.9283
   53CHL1  H26C 3918   5.929   5.997   7.576  1.2961 -0.9907 -3.4067
   53CHL1   C27 3919   5.733   5.781   7.534 -0.7157 -0.6811 -0.9569
   53CHL1  H27A 3920   5.689   5.690   7.488 -2.9396  0.1994 -0.6846
   53CHL1  H27B 3921   5.717   5.758   7.641  1.2032 -0.0884 -0.4963
   53CHL1  H27C 3922   5.683   5.872   7.495  0.4194 -0.3603 -1.7005
   54CHL1    C3 3923   1.146   6.357   6.043  0.3218  0.2902 -0.5055
   54CHL1    H3 3924   1.249   6.319   6.057  0.1803  0.0209 -0.1735
   54CHL1    O3 3925   1.143   6.426   5.917  0.5267 -0.1659 -0.5170
   54CHL1   H3' 3926   1.053   6.456   5.905  1.1815  1.5192 -1.6235
   54CHL1    C4 3927   1.047   6.243   6.023  0.0263  0.3267 -0.9422
   54CHL1   H4A 3928   0.948   6.287   6.001 -0.2522  0.1189 -0.1364
   54CHL1   H4B 3929   1.062   6.179   5.933 -1.4076  0.2662 -1.1535
   54CHL1    C5 3930   1.027   6.166   6.150 -0.5925  0.8583 -0.9258
   54CHL1    C6 3931   1.057   6.029   6.163 -0.2933 -0.5766  0.1858
   54CHL1    H6 3932   1.088   5.964   6.080 -0.5840 -1.4896  0.7728
   54CHL1    C7 3933   1.032   5.955   6.293  0.3234  0.5008  0.4874
   54CHL1   H7A 3934   0.991   5.861   6.252  2.8613  0.2369 -1.6656
   54CHL1   H7B 3935   1.130   5.945   6.344  1.5451  5.9084 -0.1939
   54CHL1    C8 3936   0.952   6.037   6.389 -0.5596  0.7995 -0.0257
   54CHL1    H8 3937   0.849   6.026   6.351 -0.1768 -0.2532 -0.7919
   54CHL1   C14 3938   0.956   5.972   6.532  0.3867 -0.4581  0.7343
   54CHL1   H14 3939   1.060   5.980   6.571  0.8581 -1.5687 -0.2097
   54CHL1   C15 3940   0.931   5.828   6.544  0.2203  0.0549 -0.0017
   54CHL1  H15A 3941   0.835   5.805   6.492  0.7867 -1.4356 -0.4251
   54CHL1  H15B 3942   1.021   5.775   6.508  0.6451  0.7949 -0.0360
   54CHL1   C16 3943   0.896   5.798   6.686 -0.0326  0.2999 -0.0461
   54CHL1  H16A 3944   0.799   5.744   6.689  0.4269 -0.6362 -1.1775
   54CHL1  H16B 3945   0.973   5.725   6.717 -0.8153  0.0857  1.4501
   54CHL1   C17 3946   0.888   5.938   6.758 -0.5472  0.0406 -0.3626
   54CHL1   H17 3947   0.986   5.958   6.807 -0.5871 -0.6866  0.0396
   54CHL1   C13 3948   0.873   6.043   6.640 -0.2173  0.7434 -0.6132
   54CHL1   C18 3949   0.723   6.035   6.604  0.2054  0.1409 -0.1869
   54CHL1  H18A 3950   0.648   6.086   6.669 -2.2474 -0.6086 -2.2836
   54CHL1  H18B 3951   0.696   6.069   6.502 -3.7072  1.1603  1.0208
   54CHL1  H18C 3952   0.691   5.929   6.607 -1.2762  0.5818  0.4805
   54CHL1   C12 3953   0.926   6.179   6.660 -0.1796 -0.2282 -0.3277
   54CHL1  H12A 3954   0.873   6.240   6.736  0.6783  0.6889 -0.4379
   54CHL1  H12B 3955   1.034   6.181   6.687 -0.3101  2.9929  0.3576
   54CHL1   C11 3956   0.925   6.259   6.529 -0.1518 -0.6769 -0.5166
   54CHL1  H11A 3957   0.820   6.286   6.510  0.0461  1.5443  1.2341
   54CHL1  H11B 3958   0.975   6.358   6.537 -0.5571 -0.6184  1.9527
   54CHL1    C9 3959   0.989   6.183   6.404 -0.1204 -0.1291  0.1856
   54CHL1    H9 3960   1.095   6.180   6.438  0.0700  1.7999 -0.1241
   54CHL1   C10 3961   0.979   6.256   6.272  0.8537 -0.0568  0.7578
   54CHL1   C19 3962   0.830   6.292   6.240 -0.4874  0.9661  0.5828
   54CHL1  H19A 3963   0.776   6.196   6.228 -0.1012  0.9676 -1.5738
   54CHL1  H19B 3964   0.781   6.355   6.317 -0.1493  2.7890 -0.6329
   54CHL1  H19C 3965   0.826   6.359   6.151  0.2536  0.5503  0.2370
   54CHL1    C1 3966   1.067   6.386   6.281  0.1142  0.7040 -0.1313
   54CHL1   H1A 3967   1.022   6.452   6.357 -0.4048 -1.2075  1.2895
   54CHL1   H1B 3968   1.166   6.354   6.320  0.6296  0.5157 -1.5236
   54CHL1    C2 3969   1.097   6.452   6.148  0.4347 -0.5322 -0.0950
   54CHL1   H2A 3970   1.157   6.545   6.163 -0.0923 -0.2782  0.5126
   54CHL1   H2B 3971   1.000   6.486   6.106 -0.1881 -2.2425 -0.0873
   54CHL1   C20 3972   0.786   5.917   6.878 -0.2752 -0.3812  0.3010
   54CHL1   H20 3973   0.686   5.899   6.834 -0.2209 -0.5836  0.2630
   54CHL1   C21 3974   0.785   6.044   6.957 -0.4981  0.2303 -0.2491
   54CHL1  H21A 3975   0.694   6.041   7.021  0.7236 -1.8831  1.5225
   54CHL1  H21B 3976   0.788   6.132   6.889  0.1505 -1.1556 -2.0755
   54CHL1  H21C 3977   0.870   6.037   7.028  0.6116 -1.8081 -1.7128
   54CHL1   C22 3978   0.818   5.798   6.958 -0.4786  0.2165 -0.1289
   54CHL1  H22A 3979   0.804   5.706   6.898 -1.5851  0.2724  0.0288
   54CHL1  H22B 3980   0.924   5.807   6.993 -0.5777 -0.6347  0.4314
   54CHL1   C23 3981   0.746   5.779   7.094  0.0362  0.1270 -0.0219
   54CHL1  H23A 3982   0.761   5.862   7.166  3.4315 -2.0971  2.0793
   54CHL1  H23B 3983   0.637   5.764   7.077 -0.0128  1.2406 -0.7937
   54CHL1   C24 3984   0.802   5.651   7.171  0.3435 -0.8086 -0.3370
   54CHL1  H24A 3985   0.838   5.583   7.091  2.1723  0.7676 -0.9502
   54CHL1  H24B 3986   0.898   5.686   7.214  0.6953 -2.0257 -0.1096
   54CHL1   C25 3987   0.708   5.588   7.269  0.5511  0.5965 -0.5361
   54CHL1   H25 3988   0.614   5.572   7.212  1.1837 -0.9145 -1.2037
   54CHL1   C26 3989   0.752   5.446   7.315  0.1013 -0.6297  0.1107
   54CHL1  H26A 3990   0.829   5.453   7.394 -0.0586  0.8821  0.1658
   54CHL1  H26B 3991   0.664   5.397   7.363 -0.9458  0.0426 -1.0510
   54CHL1  H26C 3992   0.778   5.384   7.227  1.0403  0.2289 -0.2402
   54CHL1   C27 3993   0.688   5.660   7.402 -0.4610  0.1756 -0.2759
   54CHL1  H27A 3994   0.616   5.614   7.472  0.0428  0.5538  0.5153
   54CHL1  H27B 3995   0.779   5.667   7.466 -0.7709 -0.9689  0.3070
   54CHL1  H27C 3996   0.648   5.760   7.375 -4.6314 -1.4886 -0.9876
   55CHL1    C3 3997   0.398   2.032   6.134 -0.2469 -0.1610 -0.2372
   55CHL1    H3 3998   0.452   2.127   6.113 -2.2489  0.7210 -1.6405
   55CHL1    O3 3999   0.360   1.958   6.018 -0.0134  0.2336 -0.5050
   55CHL1   H3' 4000   0.265   1.964   6.008 -0.0570 -0.3436 -0.4440
   55CHL1    C4 4001   0.495   1.958   6.230  0.1018  0.3383 -0.2210
   55CHL1   H4A 4002   0.471   1.850   6.226 -0.6324  0.4837  0.0635
   55CHL1   H4B 4003   0.592   1.978   6.179 -0.2413  1.5676 -0.4197
   55CHL1    C5 4004   0.495   1.992   6.383 -0.7409 -0.8534  0.5754
   55CHL1    C6 4005   0.614   2.000   6.450 -0.3404  0.0818 -0.4059
   55CHL1    H6 4006   0.712   1.979   6.404  0.7305  2.6852  0.4489
   55CHL1    C7 4007   0.625   2.043   6.597 -0.1211  0.6183 -0.7510
   55CHL1   H7A 4008   0.689   1.969   6.649 -0.6614 -0.2017 -1.2328
   55CHL1   H7B 4009   0.669   2.144   6.609  0.4962  0.1293  1.6167
   55CHL1    C8 4010   0.487   2.045   6.673  0.6226  0.2093 -0.7470
   55CHL1    H8 4011   0.455   1.942   6.696 -1.4058  0.7120 -1.1611
   55CHL1   C14 4012   0.507   2.121   6.801 -0.1903 -0.2134 -0.6760
   55CHL1   H14 4013   0.531   2.227   6.776  0.5182 -0.3370 -0.5549
   55CHL1   C15 4014   0.628   2.078   6.888 -0.1062  0.0693 -0.8884
   55CHL1  H15A 4015   0.628   1.969   6.910 -0.1336  0.5662  2.0469
   55CHL1  H15B 4016   0.728   2.109   6.853  1.0341 -3.5379 -1.1761
   55CHL1   C16 4017   0.595   2.143   7.019  0.5113  0.0562 -0.2633
   55CHL1  H16A 4018   0.603   2.067   7.099 -0.9194  1.4772  1.3221
   55CHL1  H16B 4019   0.659   2.228   7.053  2.3423 -0.9056 -1.1753
   55CHL1   C17 4020   0.445   2.194   7.014  0.1414  0.2987 -0.0655
   55CHL1   H17 4021   0.444   2.302   6.989 -0.3733  0.7370  1.6681
   55CHL1   C13 4022   0.384   2.131   6.890  0.0250  0.6138  0.9965
   55CHL1   C18 4023   0.332   1.984   6.920  0.1150 -1.0026  0.4237
   55CHL1  H18A 4024   0.398   1.911   6.971 -1.6824 -1.6746  1.9321
   55CHL1  H18B 4025   0.238   1.975   6.979 -0.9543 -1.2246 -1.2232
   55CHL1  H18C 4026   0.300   1.930   6.828 -2.7109 -0.4161  0.9684
   55CHL1   C12 4027   0.280   2.208   6.805 -0.3365  0.2550 -0.6995
   55CHL1  H12A 4028   0.184   2.190   6.858 -0.5891 -2.7595 -1.9819
   55CHL1  H12B 4029   0.305   2.315   6.791  0.7560  0.0684 -0.2489
   55CHL1   C11 4030   0.254   2.144   6.663  0.1849 -0.2028  0.0220
   55CHL1  H11A 4031   0.202   2.047   6.678  1.3398 -0.6411  1.4648
   55CHL1  H11B 4032   0.189   2.210   6.601  0.1941 -1.8035 -1.7720
   55CHL1    C9 4033   0.385   2.108   6.587 -0.2852  0.0390  0.4203
   55CHL1    H9 4034   0.421   2.208   6.553  1.5735 -1.1534 -1.3065
   55CHL1   C10 4035   0.365   2.033   6.451 -0.3144  0.2586  0.8915
   55CHL1   C19 4036   0.288   1.899   6.468 -0.4362  0.4512  0.8292
   55CHL1  H19A 4037   0.191   1.934   6.508  0.4769  1.0323  2.6615
   55CHL1  H19B 4038   0.280   1.838   6.376  1.2613 -2.2410  2.3181
   55CHL1  H19C 4039   0.339   1.837   6.545 -0.8514 -1.6409 -0.5078
   55CHL1    C1 4040   0.289   2.125   6.351  0.2081  0.0913 -0.5168
   55CHL1   H1A 4041   0.187   2.139   6.392  0.0352  1.3039 -1.3061
   55CHL1   H1B 4042   0.347   2.219   6.338 -1.7320  2.1098  3.5140
   55CHL1    C2 4043   0.263   2.065   6.211  0.0325  0.2434  0.0762
   55CHL1   H2A 4044   0.210   2.146   6.155  0.6303  0.1224 -0.6826
   55CHL1   H2B 4045   0.198   1.975   6.220  1.0791 -0.6263 -0.8185
   55CHL1   C20 4046   0.372   2.183   7.151 -0.5495  0.3993  0.3431
   55CHL1   H20 4047   0.342   2.079   7.175 -2.2109  1.1563  1.7967
   55CHL1   C21 4048   0.247   2.276   7.153  0.1871  0.0123 -0.5784
   55CHL1  H21A 4049   0.185   2.244   7.066  0.5920 -0.3123 -0.7538
   55CHL1  H21B 4050   0.280   2.382   7.154  1.1282 -0.2618 -1.3419
   55CHL1  H21C 4051   0.177   2.262   7.238  0.9447 -4.7862 -0.4470
   55CHL1   C22 4052   0.462   2.230   7.267 -0.5423 -0.0281  0.0102
   55CHL1  H22A 4053   0.557   2.173   7.262 -0.8694 -0.5084 -2.3485
   55CHL1  H22B 4054   0.489   2.337   7.254  1.2646 -0.6337 -1.8273
   55CHL1   C23 4055   0.400   2.204   7.400  0.0951  0.7661  0.5478
   55CHL1  H23A 4056   0.298   2.243   7.418  0.7433  2.0924  1.6214
   55CHL1  H23B 4057   0.400   2.093   7.401 -1.8848  0.7350  2.2337
   55CHL1   C24 4058   0.499   2.264   7.508  0.5694  0.5858 -1.0736
   55CHL1  H24A 4059   0.596   2.215   7.485  0.9510  1.4837 -1.4113
   55CHL1  H24B 4060   0.518   2.373   7.500  1.3379  0.5665  0.2007
   55CHL1   C25 4061   0.464   2.237   7.654 -0.2120 -0.1371  0.2083
   55CHL1   H25 4062   0.373   2.296   7.679  0.8327  0.6709  2.3861
   55CHL1   C26 4063   0.453   2.089   7.688 -0.7682  0.2075 -0.1931
   55CHL1  H26A 4064   0.362   2.052   7.636 -0.9114  0.7253 -0.3075
   55CHL1  H26B 4065   0.542   2.027   7.663  0.1255  1.0348  0.8476
   55CHL1  H26C 4066   0.419   2.069   7.792 -2.6258  2.8168 -0.2036
   55CHL1   C27 4067   0.560   2.300   7.760 -0.0565  0.3355  0.5356
   55CHL1  H27A 4068   0.650   2.237   7.778  0.3765  0.5494 -0.7450
   55CHL1  H27B 4069   0.595   2.402   7.735  0.2998  0.2015  0.4772
   55CHL1  H27C 4070   0.506   2.316   7.856 -1.7977  2.5276 -0.7231
   56CHL1    C3 4071   0.152   0.045   6.225  0.3173  0.1345 -0.4097
   56CHL1    H3 4072   0.051   0.025   6.185  0.0938  1.4825 -0.5645
   56CHL1    O3 4073   0.247   0.036   6.120 -0.3823  0.2280 -0.3758
   56CHL1   H3' 4074   0.226   0.115   6.069 -2.8353  0.0005  0.1640
   56CHL1    C4 4075   0.152   0.188   6.275 -0.7389 -0.9149 -0.6475
   56CHL1   H4A 4076   0.255   0.220   6.300 -1.4695  0.8081  0.3608
   56CHL1   H4B 4077   0.129   0.254   6.188 -0.7707  1.6128  1.1554
   56CHL1    C5 4078   0.063   0.214   6.396 -0.6010  0.5334  0.3100
   56CHL1    C6 4079  -0.041   0.300   6.397  0.5692 -0.9086  0.3847
   56CHL1    H6 4080  -0.070   0.343   6.300 -0.1254  0.4176  1.1481
   56CHL1    C7 4081  -0.133   0.322   6.515 -0.6090 -0.4550 -0.9306
   56CHL1   H7A 4082  -0.171   0.426   6.528 -1.2444 -0.5387 -2.0132
   56CHL1   H7B 4083  -0.224   0.260   6.497 -0.3951 -1.7411  1.8905
   56CHL1    C8 4084  -0.070   0.271   6.649  0.6128  0.0994  0.0152
   56CHL1    H8 4085   0.004   0.345   6.683  0.0465  0.6429  0.0800
   56CHL1   C14 4086  -0.186   0.266   6.755 -0.7377  0.2751 -0.4624
   56CHL1   H14 4087  -0.260   0.200   6.703 -1.8006  1.3830 -0.3883
   56CHL1   C15 4088  -0.263   0.402   6.789  0.3809 -0.1417  0.7238
   56CHL1  H15A 4089  -0.187   0.481   6.804 -1.2910  2.1377 -1.8783
   56CHL1  H15B 4090  -0.328   0.426   6.702  1.3384  0.1493  0.0704
   56CHL1   C16 4091  -0.327   0.358   6.921  0.4471 -0.1109 -0.1876
   56CHL1  H16A 4092  -0.316   0.431   7.004  2.2297 -1.4227  0.8040
   56CHL1  H16B 4093  -0.435   0.335   6.915  0.7746 -1.9935  0.2027
   56CHL1   C17 4094  -0.271   0.223   6.971  0.2887  0.4097  0.0845
   56CHL1   H17 4095  -0.339   0.138   6.946  2.4467 -1.1922 -0.6426
   56CHL1   C13 4096  -0.143   0.205   6.886  1.3623 -1.0239  0.1699
   56CHL1   C18 4097  -0.032   0.292   6.964 -0.6339 -0.5468  0.2591
   56CHL1  H18A 4098  -0.079   0.386   7.001  0.2767  1.3510 -3.0904
   56CHL1  H18B 4099   0.002   0.230   7.050 -2.4845  0.4459  1.7972
   56CHL1  H18C 4100   0.052   0.321   6.898 -0.2843 -1.7631  0.1528
   56CHL1   C12 4101  -0.084   0.070   6.864  0.4506 -0.0768 -0.5483
   56CHL1  H12A 4102  -0.037   0.025   6.954  0.2526  0.3995 -0.2073
   56CHL1  H12B 4103  -0.163   0.001   6.826  0.4505  0.3517 -1.3584
   56CHL1   C11 4104   0.029   0.070   6.760 -0.3265 -0.3012 -0.3091
   56CHL1  H11A 4105   0.123   0.106   6.805 -0.5993  0.8817 -0.6594
   56CHL1  H11B 4106   0.069  -0.032   6.742 -2.3003 -2.1250  4.1123
   56CHL1    C9 4107  -0.013   0.132   6.629 -0.3964  0.1847 -0.2627
   56CHL1    H9 4108  -0.101   0.074   6.596  0.6557 -1.0564 -0.9869
   56CHL1   C10 4109   0.089   0.123   6.513  0.6535 -0.0344 -0.5013
   56CHL1   C19 4110   0.234   0.159   6.563 -0.2951  0.1046 -0.5406
   56CHL1  H19A 4111   0.248   0.259   6.608 -2.4013  0.4484 -0.5638
   56CHL1  H19B 4112   0.253   0.082   6.641 -0.4189  1.1912  0.5787
   56CHL1  H19C 4113   0.316   0.140   6.489 -0.5813 -4.5467  0.0136
   56CHL1    C1 4114   0.087  -0.017   6.453  0.5157  0.2412  0.1211
   56CHL1   H1A 4115   0.102  -0.099   6.526  3.4105  1.2644  0.7985
   56CHL1   H1B 4116  -0.016  -0.026   6.413  0.5729 -0.0751  0.0447
   56CHL1    C2 4117   0.183  -0.056   6.335 -0.3331 -0.2078 -0.3919
   56CHL1   H2A 4118   0.166  -0.161   6.303 -3.5894  0.2712 -0.6320
   56CHL1   H2B 4119   0.288  -0.037   6.366 -0.0253 -1.1921 -0.8146
   56CHL1   C20 4120  -0.261   0.220   7.125  0.2233  0.2119  0.8074
   56CHL1   H20 4121  -0.212   0.308   7.173 -2.2918  0.9060  2.3235
   56CHL1   C21 4122  -0.200   0.090   7.165 -0.5892  0.3920  0.4808
   56CHL1  H21A 4123  -0.091   0.092   7.145 -0.4847  0.6836  1.0570
   56CHL1  H21B 4124  -0.247   0.009   7.105 -1.0200 -0.0492  1.3997
   56CHL1  H21C 4125  -0.215   0.071   7.273 -1.7199  1.2014  0.4861
   56CHL1   C22 4126  -0.404   0.225   7.179 -0.7526 -0.0275 -0.1820
   56CHL1  H22A 4127  -0.439   0.326   7.146  1.7996  0.4681 -1.6898
   56CHL1  H22B 4128  -0.461   0.152   7.118 -1.6188  1.5983 -1.4240
   56CHL1   C23 4129  -0.406   0.206   7.334  0.9881 -0.3421 -0.2234
   56CHL1  H23A 4130  -0.383   0.101   7.362  2.0661  0.2063  1.0581
   56CHL1  H23B 4131  -0.335   0.269   7.392 -1.0971  0.1100  2.0110
   56CHL1   C24 4132  -0.547   0.252   7.390 -0.4669  0.6744 -0.5640
   56CHL1  H24A 4133  -0.565   0.361   7.373 -0.4864  0.2747 -3.5871
   56CHL1  H24B 4134  -0.632   0.202   7.339 -0.8635 -0.6814  1.2983
   56CHL1   C25 4135  -0.553   0.229   7.550  0.0832 -0.2924  0.3346
   56CHL1   H25 4136  -0.466   0.276   7.601 -1.5584 -0.6338  3.7095
   56CHL1   C26 4137  -0.669   0.300   7.606  0.4662  0.2230 -0.1835
   56CHL1  H26A 4138  -0.762   0.255   7.563  1.0381 -1.0313 -0.1447
   56CHL1  H26B 4139  -0.667   0.407   7.576 -2.1892  0.5974  0.7002
   56CHL1  H26C 4140  -0.670   0.294   7.717  0.6542 -1.0527 -0.2338
   56CHL1   C27 4141  -0.565   0.076   7.581  0.0417 -0.9070 -0.1763
   56CHL1  H27A 4142  -0.577   0.050   7.688 -0.8307  1.7048  0.4280
   56CHL1  H27B 4143  -0.642   0.028   7.518 -0.3196  0.9575 -1.2455
   56CHL1  H27C 4144  -0.465   0.035   7.551 -0.7375 -1.4121 -2.2931
   57SAPC     N 4145   3.252   3.122   9.963  0.6621  0.7929 -0.5867
   57SAPC   C12 4146   3.160   3.191   9.864 -0.8949  0.1425 -0.6681
   57SAPC  H12A 4147   3.140   3.131   9.776 -0.9132 -1.6720  0.5187
   57SAPC  H12B 4148   3.212   3.279   9.829 -2.0866  0.2136 -2.4495
   57SAPC   C13 4149   3.378   3.090   9.893 -0.2935 -0.2821 -0.4419
   57SAPC  H13A 4150   3.431   3.181   9.872  1.7865 -1.8534 -2.4625
   57SAPC  H13B 4151   3.441   3.033   9.960  1.7900  0.3734 -1.7617
   57SAPC  H13C 4152   3.358   3.031   9.805 -0.3237 -0.8424 -0.0592
   57SAPC   C14 4153   3.282   3.204  10.080  0.0055 -0.2820  0.0583
   57SAPC  H14A 4154   3.370   3.180  10.138 -1.3544  1.2726  2.9802
   57SAPC  H14B 4155   3.295   3.306  10.047 -4.3578  0.7639  0.8942
   57SAPC  H14C 4156   3.212   3.209  10.162  2.5513 -1.4938  2.4985
   57SAPC   C15 4157   3.197   2.991  10.014  0.1997  0.4342  0.1090
   57SAPC  H15A 4158   3.212   2.921   9.934 -0.1072  0.5251 -0.0301
   57SAPC  H15B 4159   3.246   2.941  10.096  1.7848  0.1449 -0.9700
   57SAPC  H15C 4160   3.091   2.995  10.031 -0.3897 -4.0788 -1.2843
   57SAPC   C11 4161   3.025   3.235   9.918  0.4590  0.0895 -0.2603
   57SAPC  H11A 4162   2.967   3.146   9.950  0.0918  0.8553  1.2688
   57SAPC  H11B 4163   2.976   3.278   9.828  0.7974 -0.1744 -0.5719
   57SAPC     P 4164   3.058   3.486   9.991 -0.2733  0.1817  0.0489
   57SAPC   O13 4165   2.931   3.558   9.987  0.4559 -0.7411 -0.0204
   57SAPC   O14 4166   3.158   3.539  10.088 -0.8310  0.2129 -0.4504
   57SAPC   O12 4167   3.030   3.333  10.021 -0.8027  0.0292  0.1923
   57SAPC   O11 4168   3.126   3.493   9.846  0.0307  0.2937  0.1386
   57SAPC    C1 4169   3.050   3.497   9.718  0.4810  0.1819  0.2913
   57SAPC    HA 4170   3.060   3.396   9.673 -0.3378  0.1199  0.2368
   57SAPC    HB 4171   2.942   3.519   9.732 -0.0440 -2.3711  0.7592
   57SAPC    C2 4172   3.121   3.603   9.627  0.2421  0.7461 -0.0434
   57SAPC    HS 4173   3.111   3.700   9.681  2.0965  2.5748 -2.7310
   57SAPC   O21 4174   3.053   3.618   9.500  0.0962  0.4417  0.0367
   57SAPC   C21 4175   2.931   3.669   9.505 -0.7229  0.2609  0.2180
   57SAPC   O22 4176   2.873   3.717   9.600 -0.4120 -0.0536  0.1083
   57SAPC   C22 4177   2.873   3.689   9.362  0.7342 -0.3724 -0.4033
   57SAPC   H2R 4178   2.892   3.593   9.308  0.3341 -1.8183  1.8929
   57SAPC   H2S 4179   2.766   3.718   9.372  1.2402  2.0528 -1.4059
   57SAPC    C3 4180   3.267   3.575   9.602 -0.2540  0.3957 -0.8198
   57SAPC    HX 4181   3.320   3.590   9.698 -3.2431  1.5713  0.7766
   57SAPC    HY 4182   3.310   3.662   9.547 -1.0334  1.4686  0.2090
   57SAPC   O31 4183   3.311   3.449   9.538  1.1434 -0.7978 -0.2589
   57SAPC   C31 4184   3.372   3.351   9.596 -0.0767  0.2056 -0.4819
   57SAPC   O32 4185   3.412   3.340   9.712 -0.3761  0.0538  0.0996
   57SAPC   C32 4186   3.398   3.245   9.484  0.1451  0.6321  0.6222
   57SAPC   H2X 4187   3.308   3.230   9.421  1.4316 -0.0147 -1.1234
   57SAPC   H2Y 4188   3.396   3.145   9.532  1.3161 -0.0991 -0.7638
   57SAPC   C23 4189   2.935   3.815   9.289  0.0240  0.4384 -0.3848
   57SAPC   H3R 4190   3.043   3.831   9.308 -0.0700  0.2258  0.3778
   57SAPC   H3S 4191   2.876   3.903   9.322  0.8943  1.5885 -1.7829
   57SAPC   C24 4192   2.930   3.802   9.132  0.0694 -0.4575 -0.5589
   57SAPC   H4R 4193   2.988   3.890   9.094 -0.1710  1.6962  3.4816
   57SAPC   H4S 4194   2.824   3.801   9.100 -0.1955 -0.5890  0.3144
   57SAPC   C25 4195   3.003   3.682   9.083  1.0016 -0.2307 -0.1590
   57SAPC   H5R 4196   3.107   3.671   9.117  1.6631  1.8042 -1.3571
   57SAPC   C26 4197   2.964   3.603   8.980  0.2011 -0.0987  0.6635
   57SAPC   H6R 4198   3.041   3.532   8.946  1.8728  2.0318 -0.2380
   57SAPC   C27 4199   2.839   3.594   8.897 -0.5074  0.6940  0.6173
   57SAPC   H7R 4200   2.865   3.629   8.795 -2.0769  0.3487  0.0627
   57SAPC   H7S 4201   2.762   3.668   8.925 -1.2432 -0.3161  1.3534
   57SAPC   C28 4202   2.759   3.466   8.895  0.2154  0.4411 -0.0605
   57SAPC   H8R 4203   2.686   3.467   8.978 -0.0789  2.1468 -0.3014
   57SAPC   C29 4204   2.739   3.382   8.796 -0.2849  0.5574  0.4095
   57SAPC   H9R 4205   2.677   3.293   8.815 -0.0389 -0.0220 -1.3005
   57SAPC  C210 4206   2.809   3.377   8.666  0.0481  0.2501 -0.3584
   57SAPC  H10R 4207   2.842   3.271   8.657 -2.1533 -0.3791 -1.8030
   57SAPC  H10S 4208   2.896   3.445   8.661  0.1261  0.1996  0.2164
   57SAPC  C211 4209   2.721   3.414   8.549 -0.2347  0.0747  0.2180
   57SAPC  H11R 4210   2.635   3.481   8.554  0.2204  0.6500  0.4978
   57SAPC  C212 4211   2.769   3.388   8.424 -0.6462  0.2009  0.2578
   57SAPC  H12R 4212   2.697   3.402   8.343 -0.5811  0.2476  0.2082
   57SAPC  C213 4213   2.900   3.315   8.387  0.5456 -0.2452 -0.9030
   57SAPC  H13R 4214   2.873   3.242   8.307 -0.1922  1.5786 -2.4044
   57SAPC  H13S 4215   2.928   3.253   8.475 -1.3218  2.1125  1.5102
   57SAPC  C214 4216   3.012   3.404   8.354 -0.1517  0.0608  0.2668
   57SAPC  H14R 4217   3.040   3.458   8.446  1.4878 -1.8461  0.9655
   57SAPC  C215 4218   3.084   3.414   8.245  0.2050 -0.8422  0.5488
   57SAPC  H15R 4219   3.168   3.485   8.252  1.5489 -2.2404 -0.7152
   57SAPC  C216 4220   3.057   3.335   8.118  0.0359 -0.5613  0.4805
   57SAPC  H16R 4221   3.076   3.387   8.022 -1.7415  0.6512  0.7372
   57SAPC  H16S 4222   2.955   3.293   8.111 -0.1498 -0.1737  0.7977
   57SAPC  C217 4223   3.144   3.203   8.114  0.7047 -0.6826  0.4072
   57SAPC  H17R 4224   3.120   3.142   8.204  0.4377 -1.7528 -0.3661
   57SAPC  H17S 4225   3.254   3.216   8.115  0.7094 -0.3860 -1.0459
   57SAPC  C218 4226   3.102   3.122   7.994  0.0158 -0.2966 -0.0772
   57SAPC  H18R 4227   3.112   3.176   7.897 -2.8639 -1.0981 -0.9058
   57SAPC  H18S 4228   2.994   3.097   8.003 -0.3867  1.2811 -0.1633
   57SAPC  C219 4229   3.176   2.994   7.980  0.7378 -0.1881 -0.3774
   57SAPC  H19R 4230   3.167   2.930   8.070 -0.7218  0.3221 -0.1400
   57SAPC  H19S 4231   3.281   3.006   7.947  0.8221  0.6459  0.1608
   57SAPC  C220 4232   3.097   2.912   7.875 -0.5995  0.0441 -0.5247
   57SAPC  H20R 4233   2.996   2.878   7.906  0.1890 -0.6697  1.4425
   57SAPC  H20S 4234   3.142   2.815   7.844 -2.1754 -1.4902  1.6223
   57SAPC  H20T 4235   3.087   2.974   7.784  0.3464  0.2646 -0.4940
   57SAPC   C33 4236   3.535   3.265   9.416 -0.1279  0.5007  0.0383
   57SAPC   H3X 4237   3.610   3.267   9.498 -0.2076  0.7439  0.1083
   57SAPC   H3Y 4238   3.527   3.366   9.370 -1.0516 -0.6713 -2.5993
   57SAPC   C34 4239   3.568   3.161   9.311 -0.7107  0.3736 -0.4686
   57SAPC   H4X 4240   3.474   3.151   9.252 -2.6420  2.9059  1.8736
   57SAPC   H4Y 4241   3.589   3.064   9.361  0.9484  0.6690 -0.5367
   57SAPC   C35 4242   3.684   3.208   9.231 -0.2854 -0.3382 -0.5312
   57SAPC   H5X 4243   3.781   3.172   9.272 -0.6622 -1.5623 -0.6563
   57SAPC   H5Y 4244   3.681   3.316   9.253  1.0379 -0.8099  2.4371
   57SAPC   C36 4245   3.668   3.175   9.081  0.1018  0.2040  0.6474
   57SAPC   H6X 4246   3.563   3.193   9.049  0.2012 -3.8944 -2.8931
   57SAPC   H6Y 4247   3.681   3.067   9.058  2.5593  0.4740  0.4481
   57SAPC   C37 4248   3.763   3.257   8.986  0.1510 -0.3580 -0.4763
   57SAPC   H7X 4249   3.869   3.233   9.007  0.8927  2.4876 -0.5418
   57SAPC   H7Y 4250   3.742   3.361   9.019 -1.1012 -0.8718  0.4163
   57SAPC   C38 4251   3.743   3.256   8.831 -0.8331  0.0502  0.1552
   57SAPC   H8X 4252   3.637   3.286   8.813 -0.9877 -0.6445 -0.1094
   57SAPC   H8Y 4253   3.754   3.148   8.807  3.0335  0.2839  0.3229
   57SAPC   C39 4254   3.825   3.354   8.753 -1.0956 -0.4460  0.7667
   57SAPC   H9X 4255   3.928   3.318   8.730 -1.4367 -0.3771 -1.0706
   57SAPC   H9Y 4256   3.830   3.445   8.816 -1.3560 -1.7422  2.7438
   57SAPC  C310 4257   3.777   3.389   8.611  0.2525  0.0539  0.2275
   57SAPC  H10X 4258   3.672   3.426   8.604  0.9336  1.8016 -1.8312
   57SAPC  H10Y 4259   3.770   3.297   8.549  0.9050  1.0401 -1.3838
   57SAPC  C311 4260   3.870   3.492   8.536  0.1349  0.1494  0.3762
   57SAPC  H11X 4261   3.974   3.453   8.528  0.8304  1.3046  2.9851
   57SAPC  H11Y 4262   3.894   3.578   8.601  2.0056  0.5369 -0.7420
   57SAPC  C312 4263   3.809   3.533   8.392  0.4239 -0.5038 -0.8333
   57SAPC  H12X 4264   3.698   3.527   8.402  0.0603  3.0632 -1.3680
   57SAPC  H12Y 4265   3.829   3.455   8.316  0.7572 -1.0599 -0.1932
   57SAPC  C313 4266   3.855   3.675   8.348  0.1337  0.7464  0.2291
   57SAPC  H13X 4267   3.965   3.667   8.331 -0.2281 -2.4014 -1.6363
   57SAPC  H13Y 4268   3.835   3.745   8.431 -1.9919  0.3851  0.0817
   57SAPC  C314 4269   3.792   3.722   8.221 -0.1298 -0.0242  0.0038
   57SAPC  H14X 4270   3.797   3.832   8.210  1.3070 -0.0130  0.4570
   57SAPC  H14Y 4271   3.683   3.702   8.226 -0.8737  3.3421 -0.7255
   57SAPC  C315 4272   3.834   3.662   8.086 -0.9209  0.2727  0.0922
   57SAPC  H15X 4273   3.757   3.687   8.010  0.2790  0.3757 -1.1289
   57SAPC  H15Y 4274   3.841   3.552   8.093 -4.7457 -0.1483 -0.5678
   57SAPC  C316 4275   3.971   3.714   8.031  0.0647  0.0951  0.3814
   57SAPC  H16X 4276   4.037   3.708   8.120 -1.0755 -2.2043  1.1760
   57SAPC  H16Y 4277   3.968   3.823   8.008 -0.6140  0.4657  2.0621
   57SAPC  C317 4278   4.029   3.634   7.916  0.0178  0.4230  0.5401
   57SAPC  H17X 4279   4.107   3.691   7.860  0.0209 -0.7572 -0.7167
   57SAPC  H17Y 4280   3.946   3.623   7.843 -0.3990  0.6804  0.9646
   57SAPC  C318 4281   4.086   3.496   7.947 -0.4099 -0.1512  0.0572
   57SAPC  H18X 4282   4.178   3.518   8.005  1.3688  0.3758 -2.7886
   57SAPC  H18Y 4283   4.103   3.440   7.852  0.8594 -0.0493  0.2110
   57SAPC  H18Z 4284   4.021   3.430   8.009  0.1906  0.9370  1.9278
   58SAPC     N 4285   4.471   2.331  10.062  0.0670 -0.2926 -0.0151
   58SAPC   C12 4286   4.394   2.296   9.939  0.1216 -0.2830 -0.2335
   58SAPC  H12A 4287   4.407   2.376   9.867  1.7361  1.0382  1.4390
   58SAPC  H12B 4288   4.287   2.300   9.951  0.0655 -1.8106 -0.0661
   58SAPC   C13 4289   4.433   2.464  10.117  0.4076 -0.1772  0.4505
   58SAPC  H13A 4290   4.330   2.465  10.149  0.2295 -0.6338 -0.0828
   58SAPC  H13B 4291   4.493   2.478  10.206  1.2963 -0.8480 -0.0190
   58SAPC  H13C 4292   4.442   2.544  10.044  0.1300 -0.8967 -0.3842
   58SAPC   C14 4293   4.447   2.235  10.174  0.0100  0.1847 -0.1975
   58SAPC  H14A 4294   4.342   2.224  10.195 -0.3578  0.1624 -1.8892
   58SAPC  H14B 4295   4.482   2.136  10.149  0.6356  0.8320 -2.0899
   58SAPC  H14C 4296   4.501   2.267  10.262 -1.6082 -0.5100  1.1154
   58SAPC   C15 4297   4.619   2.320  10.036  0.3516 -0.1783 -0.2713
   58SAPC  H15A 4298   4.649   2.381   9.953  1.2886  0.2860  0.3844
   58SAPC  H15B 4299   4.679   2.348  10.122  1.0504 -1.1669 -0.4183
   58SAPC  H15C 4300   4.662   2.222  10.020  0.2132 -0.2089 -0.4503
   58SAPC   C11 4301   4.423   2.163   9.863  0.9811 -0.0104 -0.4281
   58SAPC  H11A 4302   4.521   2.169   9.810  0.8158 -0.7123 -0.8304
   58SAPC  H11B 4303   4.347   2.156   9.781  0.2811 -0.1337  0.2219
   58SAPC     P 4304   4.510   1.926   9.966 -0.0506 -0.3719 -0.3893
   58SAPC   O13 4305   4.648   1.966   9.931 -0.3516 -0.2453  0.8443
   58SAPC   O14 4306   4.501   1.882  10.107 -0.3299 -0.2563 -0.5887
   58SAPC   O12 4307   4.401   2.047   9.935  0.5338  0.3946 -0.0187
   58SAPC   O11 4308   4.455   1.807   9.874 -0.2786 -0.0431  0.0483
   58SAPC    C1 4309   4.473   1.809   9.734 -0.0591 -0.6521 -0.3477
   58SAPC    HA 4310   4.490   1.912   9.696 -1.8326  0.2999  1.2546
   58SAPC    HB 4311   4.559   1.746   9.704  2.8666  2.8724 -0.0837
   58SAPC    C2 4312   4.346   1.756   9.668 -0.2354 -0.2014 -0.4413
   58SAPC    HS 4313   4.357   1.759   9.557 -1.1962 -0.1474 -0.5456
   58SAPC   O21 4314   4.233   1.833   9.711 -0.3558 -0.3361  0.2553
   58SAPC   C21 4315   4.217   1.943   9.642  0.1343 -0.5255  0.5053
   58SAPC   O22 4316   4.283   1.985   9.553 -0.3503  0.0090  0.0130
   58SAPC   C22 4317   4.095   2.014   9.710  0.1487 -0.1347  0.5409
   58SAPC   H2R 4318   4.009   1.944   9.712  0.6521 -0.8260 -0.9763
   58SAPC   H2S 4319   4.115   2.047   9.815  1.9301  1.5479 -0.2546
   58SAPC    C3 4320   4.324   1.605   9.703  0.4163  0.1097  0.2023
   58SAPC    HX 4321   4.293   1.600   9.809  2.4542 -1.1239  0.7899
   58SAPC    HY 4322   4.422   1.553   9.700 -0.9037 -2.5213 -1.4052
   58SAPC   O31 4323   4.223   1.543   9.624  0.0987 -0.5042  0.4762
   58SAPC   C31 4324   4.200   1.411   9.655  0.4912  0.6796 -0.0890
   58SAPC   O32 4325   4.243   1.357   9.751  0.2490  0.6326  0.2938
   58SAPC   C32 4326   4.101   1.350   9.556  0.2289 -0.6005  0.5492
   58SAPC   H2X 4327   3.997   1.379   9.579 -0.2980 -0.4890 -1.7211
   58SAPC   H2Y 4328   4.104   1.239   9.554  4.0480 -0.8314 -5.0362
   58SAPC   C23 4329   4.055   2.142   9.631 -0.2510 -0.6022 -0.3644
   58SAPC   H3R 4330   3.951   2.171   9.655 -0.3835 -1.0531 -0.3795
   58SAPC   H3S 4331   4.068   2.120   9.523  3.9397  0.4624 -0.2476
   58SAPC   C24 4332   4.148   2.263   9.653 -0.6542 -0.1559  0.2234
   58SAPC   H4R 4333   4.253   2.242   9.624 -0.3494  0.5987  0.7337
   58SAPC   H4S 4334   4.149   2.298   9.759  1.4719  2.0264 -0.4163
   58SAPC   C25 4335   4.088   2.374   9.570  0.2205 -0.1413  0.5547
   58SAPC   H5R 4336   3.988   2.405   9.604  0.6297  1.6847  0.2272
   58SAPC   C26 4337   4.143   2.444   9.468 -0.2637 -0.2950  0.1862
   58SAPC   H6R 4338   4.077   2.507   9.406 -0.5476  0.1406  0.9186
   58SAPC   C27 4339   4.274   2.412   9.397 -0.3115 -1.0040 -0.2991
   58SAPC   H7R 4340   4.326   2.337   9.462 -3.0051 -2.2511  0.5634
   58SAPC   H7S 4341   4.340   2.501   9.401  0.3335 -1.5008  2.7332
   58SAPC   C28 4342   4.251   2.356   9.262  0.6841  0.4784 -0.4774
   58SAPC   H8R 4343   4.171   2.281   9.272  3.2631 -2.2716  1.0644
   58SAPC   C29 4344   4.322   2.368   9.148  0.5614 -0.6945 -0.5262
   58SAPC   H9R 4345   4.288   2.323   9.054  1.3696  0.4934 -1.4284
   58SAPC  C210 4346   4.444   2.460   9.136  0.5171 -0.1828 -0.4915
   58SAPC  H10R 4347   4.530   2.394   9.110  0.2736 -0.1401 -1.4510
   58SAPC  H10S 4348   4.459   2.531   9.219 -0.4236  0.8626 -1.1949
   58SAPC  C211 4349   4.424   2.555   9.025  0.2405  0.1907  0.6842
   58SAPC  H11R 4350   4.326   2.604   9.032 -0.2196  0.0571 -2.7639
   58SAPC  C212 4351   4.505   2.595   8.921  0.6014 -0.5005 -0.4479
   58SAPC  H12R 4352   4.463   2.660   8.843  0.2082  1.0156  0.9784
   58SAPC  C213 4353   4.643   2.539   8.891  0.3375 -0.4260  0.6525
   58SAPC  H13R 4354   4.675   2.486   8.983 -1.6065  1.5000  2.5762
   58SAPC  H13S 4355   4.726   2.612   8.881 -0.6957  0.8167  0.9311
   58SAPC  C214 4356   4.637   2.432   8.780 -0.1852  0.3668 -1.0286
   58SAPC  H14R 4357   4.663   2.333   8.822 -0.0683  1.2391  1.0697
   58SAPC  C215 4358   4.622   2.440   8.648 -0.3765  0.5100  1.1232
   58SAPC  H15R 4359   4.619   2.347   8.589 -2.9335  1.1459  0.1254
   58SAPC  C216 4360   4.601   2.556   8.559 -0.2625  0.2148  0.0866
   58SAPC  H16R 4361   4.680   2.555   8.480  0.4868  0.1633  0.8238
   58SAPC  H16S 4362   4.619   2.655   8.606 -1.8035 -0.7912  3.0099
   58SAPC  C217 4363   4.463   2.565   8.496  0.0558 -1.0636  0.7620
   58SAPC  H17R 4364   4.387   2.598   8.571  0.0071  0.7385 -0.0351
   58SAPC  H17S 4365   4.416   2.468   8.467 -1.1089 -0.3243  0.1134
   58SAPC  C218 4366   4.458   2.664   8.381 -0.3131  0.4995 -0.1845
   58SAPC  H18R 4367   4.513   2.757   8.411  0.0917  0.1919  0.0436
   58SAPC  H18S 4368   4.356   2.700   8.358 -0.8324 -1.3036 -0.8620
   58SAPC  C219 4369   4.503   2.596   8.247 -0.3263  0.6091  0.2150
   58SAPC  H19R 4370   4.468   2.492   8.233 -1.9867  1.3854 -2.0255
   58SAPC  H19S 4371   4.615   2.597   8.249 -0.2057  4.1821  2.9756
   58SAPC  C220 4372   4.459   2.672   8.119 -0.2524 -0.1607 -0.0168
   58SAPC  H20R 4373   4.349   2.660   8.113 -0.6900  2.3810  1.2222
   58SAPC  H20S 4374   4.513   2.625   8.035 -0.2804  1.8927 -1.2579
   58SAPC  H20T 4375   4.496   2.777   8.117 -0.2446 -0.1628 -1.5708
   58SAPC   C33 4376   4.138   1.394   9.406 -0.2879 -0.0642  0.2479
   58SAPC   H3X 4377   4.249   1.388   9.399 -0.2397  1.7937 -1.3634
   58SAPC   H3Y 4378   4.106   1.500   9.411  0.7144  0.1950  2.4745
   58SAPC   C34 4379   4.060   1.312   9.306 -0.2967  0.3427 -0.2873
   58SAPC   H4X 4380   3.951   1.326   9.321 -0.1471 -0.2501  1.6316
   58SAPC   H4Y 4381   4.070   1.204   9.332 -2.4045  0.5719  1.8308
   58SAPC   C35 4382   4.096   1.320   9.164  0.3927  0.3227  0.3056
   58SAPC   H5X 4383   4.055   1.224   9.125 -2.4798  0.9696  1.5244
   58SAPC   H5Y 4384   4.206   1.312   9.146  0.2722 -0.3458 -0.1849
   58SAPC   C36 4385   4.045   1.436   9.081  0.7222 -0.0320  0.1016
   58SAPC   H6X 4386   4.092   1.422   8.981  0.0310 -0.8812 -0.1177
   58SAPC   H6Y 4387   4.085   1.532   9.119  1.0404 -0.6954  1.5291
   58SAPC   C37 4388   3.895   1.453   9.065  0.6610 -0.3072  0.2418
   58SAPC   H7X 4389   3.843   1.471   9.161 -0.8093 -1.8225 -0.2259
   58SAPC   H7Y 4390   3.850   1.360   9.025  1.0091 -0.5769  0.4676
   58SAPC   C38 4391   3.847   1.559   8.962 -0.3088  0.3298 -0.3496
   58SAPC   H8X 4392   3.887   1.519   8.867 -0.3872 -0.1935 -0.1626
   58SAPC   H8Y 4393   3.903   1.655   8.976  3.8173 -1.6808 -1.3594
   58SAPC   C39 4394   3.699   1.560   8.942  0.2301  0.5363 -0.6588
   58SAPC   H9X 4395   3.653   1.596   9.036  1.2731 -1.6940  0.7972
   58SAPC   H9Y 4396   3.662   1.455   8.948 -0.0362  0.7025  1.1121
   58SAPC  C310 4397   3.637   1.633   8.826 -0.4303 -0.9053  0.1990
   58SAPC  H10X 4398   3.663   1.741   8.834 -1.0793 -0.8026  0.9964
   58SAPC  H10Y 4399   3.527   1.634   8.842 -0.4667 -0.3397 -0.0510
   58SAPC  C311 4400   3.679   1.576   8.690  0.7222  0.2468 -0.1062
   58SAPC  H11X 4401   3.633   1.476   8.683  1.8964 -0.2504 -1.0091
   58SAPC  H11Y 4402   3.789   1.563   8.687  0.5221 -1.5977 -1.6516
   58SAPC  C312 4403   3.631   1.663   8.569 -0.9979  0.6430  0.2112
   58SAPC  H12X 4404   3.693   1.755   8.562  0.5578 -0.3385  0.8723
   58SAPC  H12Y 4405   3.525   1.697   8.582 -1.2070  0.5061 -1.0017
   58SAPC  C313 4406   3.617   1.577   8.442 -0.0058  0.0930  0.1545
   58SAPC  H13X 4407   3.605   1.647   8.356 -0.3650 -1.2144 -0.9003
   58SAPC  H13Y 4408   3.523   1.519   8.450 -1.0434  1.5200 -1.0748
   58SAPC  C314 4409   3.752   1.496   8.417 -1.0368  0.3714  0.4947
   58SAPC  H14X 4410   3.750   1.404   8.480  0.2076  0.3432  0.5050
   58SAPC  H14Y 4411   3.834   1.559   8.457  1.7460 -1.3487 -2.1381
   58SAPC  C315 4412   3.788   1.451   8.275  0.5658 -0.0158  0.1416
   58SAPC  H15X 4413   3.707   1.381   8.246 -0.8156  1.7565 -0.4437
   58SAPC  H15Y 4414   3.880   1.389   8.282 -0.4291 -1.3907  3.2670
   58SAPC  C316 4415   3.796   1.554   8.161 -0.3069 -1.1079 -0.8385
   58SAPC  H16X 4416   3.852   1.643   8.199 -0.9671 -1.7939  1.8924
   58SAPC  H16Y 4417   3.691   1.582   8.138 -0.1999 -0.9546 -1.1587
   58SAPC  C317 4418   3.875   1.504   8.041  0.2231  0.1984  0.1368
   58SAPC  H17X 4419   3.819   1.414   8.009 -0.2789  0.2260  0.9174
   58SAPC  H17Y 4420   3.978   1.478   8.073 -0.4852 -0.3184  2.1344
   58SAPC  C318 4421   3.866   1.609   7.922  0.2917 -0.4398  0.3519
   58SAPC  H18X 4422   3.765   1.654   7.910  1.0771  1.2566 -0.2302
   58SAPC  H18Y 4423   3.913   1.567   7.830 -0.8519 -1.1385  0.0715
   58SAPC  H18Z 4424   3.928   1.700   7.939  2.7202 -1.6492 -1.3482
   59SAPC     N 4425   5.902   1.531   9.905  0.8441  0.2959 -0.2291
   59SAPC   C12 4426   5.814   1.649   9.865 -0.3337 -0.1852  0.2482
   59SAPC  H12A 4427   5.756   1.682   9.950  1.0082 -0.1670  1.1840
   59SAPC  H12B 4428   5.737   1.617   9.797 -1.4192  1.7291  0.4832
   59SAPC   C13 4429   5.980   1.567  10.029  0.0686 -0.4198 -0.6191
   59SAPC  H13A 4430   6.036   1.481  10.064 -1.2757 -0.9806  0.2770
   59SAPC  H13B 4431   6.042   1.653  10.010 -1.0796 -0.0705 -3.1072
   59SAPC  H13C 4432   5.922   1.594  10.116 -0.2803 -0.5986 -0.7940
   59SAPC   C14 4433   5.810   1.416   9.954  0.5160 -0.6973 -0.5577
   59SAPC  H14A 4434   5.759   1.371   9.871 -2.1346  2.6228 -0.9336
   59SAPC  H14B 4435   5.856   1.334  10.007 -0.2843 -1.0365 -0.3662
   59SAPC  H14C 4436   5.736   1.454  10.023 -0.6382  1.8003 -2.9765
   59SAPC   C15 4437   5.995   1.487   9.794 -0.4068 -0.1021  0.2838
   59SAPC  H15A 4438   6.057   1.403   9.822  1.3225  0.6081 -1.2105
   59SAPC  H15B 4439   5.930   1.460   9.712 -0.4835 -0.5237  0.4815
   59SAPC  H15C 4440   6.057   1.571   9.766 -1.9782  0.7957 -0.6551
   59SAPC   C11 4441   5.894   1.784   9.835  0.1907  0.0004  0.5353
   59SAPC  H11A 4442   5.937   1.809   9.934  1.2599 -0.4110  0.1887
   59SAPC  H11B 4443   5.822   1.857   9.794  0.6380 -0.7199 -1.6663
   59SAPC     P 4444   6.095   1.891   9.714  0.3034 -0.1385  0.2910
   59SAPC   O13 4445   6.124   1.959   9.843 -0.0038 -0.4978 -0.0120
   59SAPC   O14 4446   6.206   1.852   9.634 -0.1398  0.3881  0.0964
   59SAPC   O12 4447   6.003   1.771   9.740  0.1529  0.3436 -0.6709
   59SAPC   O11 4448   6.007   2.000   9.627  0.5431  0.3722  0.4030
   59SAPC    C1 4449   5.927   1.963   9.516  0.2769  0.2275  0.8371
   59SAPC    HA 4450   5.878   1.864   9.527 -1.1622  0.5842 -1.5970
   59SAPC    HB 4451   5.843   2.035   9.502  0.3221 -0.0476 -1.2495
   59SAPC    C2 4452   5.990   1.975   9.381 -0.3415 -0.2675 -0.2761
   59SAPC    HS 4453   5.916   1.935   9.308 -0.8737 -0.7346  0.4885
   59SAPC   O21 4454   6.123   1.903   9.378  0.2619  0.0776  0.1010
   59SAPC   C21 4455   6.118   1.765   9.365 -0.3407 -0.1238 -0.2511
   59SAPC   O22 4456   6.019   1.698   9.352 -0.5666 -0.6232  0.3092
   59SAPC   C22 4457   6.260   1.721   9.354  0.2138 -0.0501  0.1358
   59SAPC   H2R 4458   6.323   1.811   9.340 -0.8294  1.2973  3.2345
   59SAPC   H2S 4459   6.308   1.682   9.447  2.2536  0.2407 -0.7397
   59SAPC    C3 4460   6.014   2.125   9.339 -0.0577 -0.9044 -0.2014
   59SAPC    HX 4461   6.057   2.187   9.420 -1.0804 -1.0935  0.5105
   59SAPC    HY 4462   5.922   2.179   9.305  0.3785  0.2457  0.3911
   59SAPC   O31 4463   6.089   2.121   9.214  0.8161  0.8777  0.2232
   59SAPC   C31 4464   6.216   2.143   9.223  0.7180 -0.5921 -0.2232
   59SAPC   O32 4465   6.279   2.157   9.325 -0.3066 -0.1315 -0.0797
   59SAPC   C32 4466   6.281   2.144   9.083  0.1244 -0.2058  0.5272
   59SAPC   H2X 4467   6.228   2.211   9.012 -1.6396 -0.1336  1.8234
   59SAPC   H2Y 4468   6.279   2.036   9.058  0.8483  0.1217 -1.0710
   59SAPC   C23 4469   6.290   1.625   9.238  0.2460 -0.9176 -0.0499
   59SAPC   H3R 4470   6.227   1.536   9.253  0.2281 -0.9799 -0.4945
   59SAPC   H3S 4471   6.393   1.586   9.255  0.4950 -0.2347  0.0792
   59SAPC   C24 4472   6.263   1.674   9.092 -0.3510 -0.4249 -1.1766
   59SAPC   H4R 4473   6.165   1.727   9.092 -0.0758  0.3465  2.2217
   59SAPC   H4S 4474   6.253   1.591   9.020 -1.7764 -1.7230  0.4185
   59SAPC   C25 4475   6.376   1.757   9.044 -0.8033 -0.2824 -0.6988
   59SAPC   H5R 4476   6.419   1.811   9.130 -2.6182  1.8943 -1.0347
   59SAPC   C26 4477   6.422   1.780   8.915  0.7398 -0.0913  0.3095
   59SAPC   H6R 4478   6.515   1.838   8.899  0.5157  0.0556 -0.5037
   59SAPC   C27 4479   6.358   1.707   8.796 -1.1200 -0.0441  0.3667
   59SAPC   H7R 4480   6.280   1.772   8.750 -0.9568  0.2964  0.5629
   59SAPC   H7S 4481   6.290   1.623   8.822 -0.4320 -0.1789  1.8540
   59SAPC   C28 4482   6.471   1.665   8.702  0.1265  0.3028 -0.6274
   59SAPC   H8R 4483   6.563   1.648   8.759  0.8938  5.4387  0.1257
   59SAPC   C29 4484   6.490   1.663   8.570 -0.5791 -0.7063 -0.0656
   59SAPC   H9R 4485   6.590   1.640   8.531  1.2661  1.6052  2.8281
   59SAPC  C210 4486   6.390   1.696   8.460  0.1238  0.1995 -0.5343
   59SAPC  H10R 4487   6.287   1.674   8.497  0.1627 -1.2630 -1.2239
   59SAPC  H10S 4488   6.400   1.631   8.370  1.3002 -0.1820 -0.1548
   59SAPC  C211 4489   6.393   1.846   8.422  0.1316 -0.3425  0.1403
   59SAPC  H11R 4490   6.414   1.908   8.511 -1.3559 -0.9282  0.9368
   59SAPC  C212 4491   6.399   1.902   8.298  0.0159 -0.6961 -0.2487
   59SAPC  H12R 4492   6.416   2.010   8.295 -2.5934 -0.2024 -0.1406
   59SAPC  C213 4493   6.385   1.830   8.165 -0.0891  0.0942 -0.3174
   59SAPC  H13R 4494   6.349   1.726   8.175 -1.1929  0.5939  1.2491
   59SAPC  H13S 4495   6.484   1.811   8.118  0.3502 -2.1599  1.3526
   59SAPC  C214 4496   6.287   1.898   8.071  0.0444  0.0009 -0.5993
   59SAPC  H14R 4497   6.228   1.979   8.118 -0.9533 -2.2971  2.4336
   59SAPC  C215 4498   6.269   1.884   7.942 -0.5986 -0.4664  0.3269
   59SAPC  H15R 4499   6.189   1.930   7.882  2.1660 -1.3243 -4.5938
   59SAPC  C216 4500   6.331   1.795   7.836  0.0961  0.1549 -0.4104
   59SAPC  H16R 4501   6.259   1.728   7.785  0.4324 -0.9516  0.5229
   59SAPC  H16S 4502   6.409   1.727   7.877  0.5348  0.6731 -0.3763
   59SAPC  C217 4503   6.404   1.880   7.725 -0.7994  0.0433 -0.3356
   59SAPC  H17R 4504   6.476   1.810   7.677 -1.0191 -0.7225  0.4141
   59SAPC  H17S 4505   6.471   1.953   7.775  1.4479 -1.7168 -0.6166
   59SAPC  C218 4506   6.310   1.951   7.630 -1.0107  0.3429 -0.1871
   59SAPC  H18R 4507   6.369   2.016   7.562 -2.4152  2.2148  0.2956
   59SAPC  H18S 4508   6.237   2.016   7.683 -2.9634 -1.9172  0.0740
   59SAPC  C219 4509   6.236   1.863   7.533 -0.3427  0.4558 -0.2903
   59SAPC  H19R 4510   6.168   1.802   7.596 -3.4577  1.9590 -1.9772
   59SAPC  H19S 4511   6.315   1.810   7.476  0.6006  0.9685  0.5085
   59SAPC  C220 4512   6.132   1.930   7.446 -0.4360 -0.2855 -0.4267
   59SAPC  H20R 4513   6.055   1.863   7.402 -0.4982 -1.1461  0.9397
   59SAPC  H20S 4514   6.180   1.992   7.368  0.0452 -0.9005 -0.6244
   59SAPC  H20T 4515   6.079   2.005   7.509 -0.3348  0.4400 -1.1837
   59SAPC   C33 4516   6.430   2.178   9.095 -0.5836  0.4180 -0.8879
   59SAPC   H3X 4517   6.478   2.102   9.160  0.5702  2.5169  0.8808
   59SAPC   H3Y 4518   6.449   2.276   9.145  0.3920 -0.0927 -0.2325
   59SAPC   C34 4519   6.498   2.160   8.960 -0.0169 -0.0480 -0.3749
   59SAPC   H4X 4520   6.461   2.062   8.920 -0.7544 -0.1937  0.6216
   59SAPC   H4Y 4521   6.607   2.149   8.978 -0.1791 -1.2760 -0.0216
   59SAPC   C35 4522   6.461   2.273   8.860 -0.1828 -0.2872  0.7708
   59SAPC   H5X 4523   6.562   2.304   8.825 -0.7415  2.9035  1.6163
   59SAPC   H5Y 4524   6.426   2.363   8.916  0.1179  0.0602  0.4117
   59SAPC   C36 4525   6.370   2.238   8.744 -0.3805 -0.1119 -0.0921
   59SAPC   H6X 4526   6.270   2.210   8.784 -0.2639 -0.8097 -0.2747
   59SAPC   H6Y 4527   6.407   2.149   8.689  1.9239  0.9488 -0.3700
   59SAPC   C37 4528   6.352   2.361   8.651 -0.0097  0.1341 -0.1416
   59SAPC   H7X 4529   6.452   2.383   8.609  0.3487 -0.6501  0.2769
   59SAPC   H7Y 4530   6.325   2.456   8.703  0.6935  1.2127 -1.6593
   59SAPC   C38 4531   6.257   2.344   8.538 -0.8324  0.1863  0.6875
   59SAPC   H8X 4532   6.241   2.445   8.495  0.6390  0.5105  0.8483
   59SAPC   H8Y 4533   6.157   2.315   8.577 -0.9615  0.2862  0.4303
   59SAPC   C39 4534   6.304   2.253   8.422 -0.3668  0.6454  0.0293
   59SAPC   H9X 4535   6.329   2.152   8.460 -1.1854  0.7814  0.9666
   59SAPC   H9Y 4536   6.394   2.297   8.372 -0.2090  2.3808  1.7169
   59SAPC  C310 4537   6.198   2.236   8.307 -0.3778  0.3195 -0.5059
   59SAPC  H10X 4538   6.243   2.181   8.221  0.6227  1.0414 -0.4536
   59SAPC  H10Y 4539   6.174   2.341   8.279 -0.0730  0.1396 -1.4970
   59SAPC  C311 4540   6.077   2.153   8.354 -0.2191 -0.5920  0.2491
   59SAPC  H11X 4541   6.009   2.212   8.420 -1.3637 -1.2898 -0.2616
   59SAPC  H11Y 4542   6.107   2.058   8.402  3.3072  1.7014  3.1491
   59SAPC  C312 4543   5.978   2.117   8.244 -0.2209  0.5329 -0.5159
   59SAPC  H12X 4544   5.884   2.080   8.291  0.6676 -0.1460  0.7812
   59SAPC  H12Y 4545   6.019   2.028   8.191  0.4799  2.2378 -2.9746
   59SAPC  C313 4546   5.943   2.221   8.145  0.3631  0.1196  0.0745
   59SAPC  H13X 4547   5.948   2.324   8.188 -1.8887  0.4181 -0.2965
   59SAPC  H13Y 4548   5.836   2.209   8.120  0.0154  1.6080  0.7359
   59SAPC  C314 4549   6.008   2.205   8.008  0.3181  0.5165  0.6907
   59SAPC  H14X 4550   5.953   2.133   7.942  0.8572 -0.0482  0.8496
   59SAPC  H14Y 4551   6.115   2.179   8.022  0.3963 -0.1563 -0.9539
   59SAPC  C315 4552   6.017   2.339   7.916 -0.4283 -0.0549 -0.1936
   59SAPC  H15X 4553   5.914   2.367   7.886 -0.7191  0.7691  1.4798
   59SAPC  H15Y 4554   6.070   2.304   7.825 -0.2909  0.0458 -0.1513
   59SAPC  C316 4555   6.087   2.452   7.980  0.3982 -0.1285 -0.1816
   59SAPC  H16X 4556   6.180   2.429   8.036 -1.2163 -2.1510  1.8744
   59SAPC  H16Y 4557   6.019   2.482   8.063  0.5071  1.1116 -0.5234
   59SAPC  C317 4558   6.118   2.580   7.884  0.3832 -0.0499 -0.1142
   59SAPC  H17X 4559   6.022   2.626   7.854  1.1443 -0.5084 -3.6101
   59SAPC  H17Y 4560   6.166   2.535   7.795  1.3947  0.2949  0.2351
   59SAPC  C318 4561   6.216   2.676   7.952  0.1142 -0.4664 -0.2229
   59SAPC  H18X 4562   6.171   2.709   8.047  0.5601  0.7248 -0.4099
   59SAPC  H18Y 4563   6.231   2.769   7.893  0.7298 -1.0876 -1.0792
   59SAPC  H18Z 4564   6.313   2.624   7.971 -0.7633 -1.2491  2.4660
   60SAPC     N 4565   5.136   1.107  10.000 -0.4084  0.0247  0.2573
   60SAPC   C12 4566   5.241   1.074   9.897 -0.7745 -0.1828  0.2259
   60SAPC  H12A 4567   5.214   0.977   9.856  0.4175 -0.8165  0.8692
   60SAPC  H12B 4568   5.339   1.082   9.941 -1.5651  1.6206  1.7528
   60SAPC   C13 4569   5.007   1.119   9.917  0.0232 -0.3418 -0.3100
   60SAPC  H13A 4570   5.026   1.181   9.831  0.6853  1.1166  0.8415
   60SAPC  H13B 4571   4.983   1.016   9.896  1.6085 -0.6856 -0.5808
   60SAPC  H13C 4572   4.924   1.161   9.970  0.3550 -0.7780  0.5793
   60SAPC   C14 4573   5.116   0.994  10.095  0.2937 -0.3771 -0.5817
   60SAPC  H14A 4574   5.025   1.005  10.151 -0.2077 -1.1305 -1.2214
   60SAPC  H14B 4575   5.105   0.899  10.045 -1.8586  0.7999 -2.5192
   60SAPC  H14C 4576   5.191   0.993  10.173 -1.0641  1.1181  0.8127
   60SAPC   C15 4577   5.161   1.237  10.079 -0.0699 -0.2362 -0.2997
   60SAPC  H15A 4578   5.242   1.229  10.150  0.3284 -0.4933 -0.7754
   60SAPC  H15B 4579   5.198   1.312  10.011 -0.1165 -0.3292 -0.4293
   60SAPC  H15C 4580   5.070   1.269  10.127  0.0420 -0.2825 -0.0558
   60SAPC   C11 4581   5.247   1.165   9.769 -0.5517 -0.1466 -0.3210
   60SAPC  H11A 4582   5.150   1.159   9.716  0.1740 -0.8939 -1.6183
   60SAPC  H11B 4583   5.320   1.127   9.694 -2.2860 -1.1406 -1.5538
   60SAPC     P 4584   5.411   1.373   9.817 -0.2655  0.0053  0.0390
   60SAPC   O13 4585   5.395   1.512   9.852 -0.2760  0.1816  0.2890
   60SAPC   O14 4586   5.463   1.298   9.929  0.0380 -0.1776 -0.2570
   60SAPC   O12 4587   5.270   1.304   9.787  0.1736 -1.1443  0.1857
   60SAPC   O11 4588   5.494   1.331   9.687  0.2620 -0.4726  0.1673
   60SAPC    C1 4589   5.463   1.409   9.569 -0.4416 -0.0099  0.6117
   60SAPC    HA 4590   5.367   1.375   9.524  1.8068 -1.8655 -3.2240
   60SAPC    HB 4591   5.454   1.517   9.593 -2.3264 -0.6211  3.1599
   60SAPC    C2 4592   5.571   1.382   9.457  0.1496 -0.6171 -0.2375
   60SAPC    HS 4593   5.528   1.436   9.369  3.5105 -0.1047 -1.7165
   60SAPC   O21 4594   5.592   1.246   9.430  0.1254 -0.0246 -0.1797
   60SAPC   C21 4595   5.485   1.188   9.377 -0.0940 -0.4388 -0.6444
   60SAPC   O22 4596   5.391   1.246   9.326  0.0025 -0.2904 -0.0784
   60SAPC   C22 4597   5.503   1.033   9.381  0.3296  0.0722 -0.6919
   60SAPC   H2R 4598   5.598   1.006   9.330  0.2628  0.3931 -0.9872
   60SAPC   H2S 4599   5.512   1.000   9.487  1.2506 -3.1903 -1.6647
   60SAPC    C3 4600   5.709   1.450   9.480 -0.2198  0.0964 -0.1033
   60SAPC    HX 4601   5.773   1.405   9.559 -0.6436  3.2744  2.2726
   60SAPC    HY 4602   5.684   1.554   9.512 -4.4503 -0.8542  0.2248
   60SAPC   O31 4603   5.777   1.466   9.352 -0.0339  0.4631 -0.5440
   60SAPC   C31 4604   5.868   1.393   9.318 -0.4214  1.5587 -0.5665
   60SAPC   O32 4605   5.918   1.305   9.385  0.4271  0.4358  0.1658
   60SAPC   C32 4606   5.915   1.428   9.179 -0.4298 -0.2641  0.6266
   60SAPC   H2X 4607   6.013   1.480   9.182 -0.7946  0.3920  1.5685
   60SAPC   H2Y 4608   5.851   1.502   9.126 -0.1852 -1.1314 -0.9530
   60SAPC   C23 4609   5.389   0.959   9.302 -0.7117  0.2246 -0.5362
   60SAPC   H3R 4610   5.303   1.021   9.268  0.4914  2.5354  0.3968
   60SAPC   H3S 4611   5.343   0.886   9.372  0.2968 -0.4465 -0.5521
   60SAPC   C24 4612   5.439   0.886   9.174 -0.4484  1.0084 -0.2324
   60SAPC   H4R 4613   5.512   0.950   9.120  0.0142  2.1817  1.6640
   60SAPC   H4S 4614   5.349   0.880   9.109  1.7042 -0.0408 -3.3275
   60SAPC   C25 4615   5.507   0.749   9.216 -0.2051 -0.8831  0.4127
   60SAPC   H5R 4616   5.535   0.745   9.322  0.1188 -0.8307  0.3308
   60SAPC   C26 4617   5.546   0.652   9.130  0.2151  0.0299  0.6851
   60SAPC   H6R 4618   5.601   0.562   9.164 -0.6018 -0.9551 -0.5141
   60SAPC   C27 4619   5.526   0.646   8.981  0.7800  0.1326 -1.2125
   60SAPC   H7R 4620   5.621   0.684   8.938  1.8573 -1.3273 -0.2328
   60SAPC   H7S 4621   5.436   0.705   8.953 -1.7213 -1.9238  1.6684
   60SAPC   C28 4622   5.498   0.502   8.942  0.4154  0.0232 -0.9402
   60SAPC   H8R 4623   5.412   0.462   8.997  0.4648 -0.4938 -1.2336
   60SAPC   C29 4624   5.556   0.424   8.854 -0.0872  0.7903 -0.4009
   60SAPC   H9R 4625   5.516   0.321   8.849 -2.9114  1.6337  1.7549
   60SAPC  C210 4626   5.666   0.443   8.749  0.0163  0.1097  0.5556
   60SAPC  H10R 4627   5.755   0.386   8.782  0.1240  0.8083  1.4837
   60SAPC  H10S 4628   5.694   0.550   8.745 -1.3592  0.4665 -0.4113
   60SAPC  C211 4629   5.631   0.409   8.605  0.6340 -0.4705  0.3556
   60SAPC  H11R 4630   5.688   0.321   8.570 -0.4578 -1.3933  0.8358
   60SAPC  C212 4631   5.563   0.487   8.511  0.2651  0.1379  0.1324
   60SAPC  H12R 4632   5.565   0.452   8.407 -3.8280 -2.3755  0.6631
   60SAPC  C213 4633   5.504   0.628   8.528  0.2581 -0.2289 -0.5415
   60SAPC  H13R 4634   5.454   0.656   8.433 -0.1090  4.9395  0.8710
   60SAPC  H13S 4635   5.588   0.701   8.533 -0.0991  0.1538 -0.0902
   60SAPC  C214 4636   5.403   0.656   8.639 -0.4785  0.3292 -0.2212
   60SAPC  H14R 4637   5.371   0.564   8.689  0.7602 -0.7114 -1.2479
   60SAPC  C215 4638   5.349   0.773   8.676  0.0489 -0.0797  0.3534
   60SAPC  H15R 4639   5.277   0.781   8.759 -0.7772  2.3096 -0.5087
   60SAPC  C216 4640   5.399   0.910   8.630  1.5973  0.1799  0.6049
   60SAPC  H16R 4641   5.319   0.974   8.589  2.0797  0.9242  0.8163
   60SAPC  H16S 4642   5.472   0.901   8.546 -0.7569 -0.3318 -1.5081
   60SAPC  C217 4643   5.454   0.999   8.739 -0.4125 -0.7728  0.4447
   60SAPC  H17R 4644   5.544   0.949   8.781 -0.4770 -2.0775 -0.8930
   60SAPC  H17S 4645   5.377   1.007   8.819 -0.8296  0.4575 -0.0586
   60SAPC  C218 4646   5.505   1.139   8.694 -0.2336  0.2154  0.2252
   60SAPC  H18R 4647   5.428   1.182   8.626  0.0170  0.2251 -0.0548
   60SAPC  H18S 4648   5.595   1.132   8.630  0.0904  1.4772  0.5206
   60SAPC  C219 4649   5.550   1.238   8.807  0.4278 -0.2501 -0.0470
   60SAPC  H19R 4650   5.646   1.198   8.845 -0.1918 -1.7739 -0.0228
   60SAPC  H19S 4651   5.474   1.235   8.888  0.4127  2.2873  0.0954
   60SAPC  C220 4652   5.545   1.375   8.742 -0.0923  0.6527 -0.0620
   60SAPC  H20R 4653   5.443   1.404   8.708 -0.0291 -0.4874 -1.3106
   60SAPC  H20S 4654   5.612   1.365   8.653  1.1099 -0.5963  0.9418
   60SAPC  H20T 4655   5.587   1.451   8.811 -0.7721  1.8649 -0.9508
   60SAPC   C33 4656   5.934   1.295   9.097  0.3722 -0.8182  0.3040
   60SAPC   H3X 4657   5.838   1.242   9.076  0.4675 -1.2018  0.8028
   60SAPC   H3Y 4658   6.002   1.224   9.149  0.9743 -0.3567  0.1487
   60SAPC   C34 4659   6.005   1.332   8.964  0.1973  0.0534  0.5448
   60SAPC   H4X 4660   6.096   1.386   8.997  0.9902 -1.6172  1.1670
   60SAPC   H4Y 4661   5.947   1.413   8.915  0.3377  1.2682  2.2903
   60SAPC   C35 4662   6.013   1.212   8.864 -0.3757 -0.2665  0.2354
   60SAPC   H5X 4663   5.910   1.184   8.834  0.2436 -1.4540 -0.8700
   60SAPC   H5Y 4664   6.059   1.129   8.921  2.2725  1.3798  0.6791
   60SAPC   C36 4665   6.089   1.252   8.729  0.5314  0.0479 -0.0003
   60SAPC   H6X 4666   6.118   1.156   8.681 -0.2427  0.4737 -1.4082
   60SAPC   H6Y 4667   6.183   1.306   8.751  1.0338 -0.3432 -1.1035
   60SAPC   C37 4668   6.004   1.338   8.623 -0.0279  0.1374  0.6677
   60SAPC   H7X 4669   5.970   1.438   8.659  0.3013  0.2234  0.7443
   60SAPC   H7Y 4670   5.925   1.264   8.598 -0.0804  0.6619 -0.8052
   60SAPC   C38 4671   6.088   1.347   8.495  0.1460 -0.6204  0.3183
   60SAPC   H8X 4672   6.080   1.251   8.439 -2.5411 -0.1776 -0.2201
   60SAPC   H8Y 4673   6.190   1.378   8.526  0.3695 -1.0764  0.0453
   60SAPC   C39 4674   6.038   1.456   8.401  0.1211  0.7330 -0.9282
   60SAPC   H9X 4675   6.029   1.547   8.465  1.0981 -1.2349  2.2109
   60SAPC   H9Y 4676   5.936   1.434   8.364  1.3522  0.2259 -4.3612
   60SAPC  C310 4677   6.138   1.471   8.280  0.4746  0.1870  0.9000
   60SAPC  H10X 4678   6.142   1.376   8.221 -1.0475  0.6964 -0.0733
   60SAPC  H10Y 4679   6.237   1.502   8.319  0.1646  0.1526  1.7232
   60SAPC  C311 4680   6.083   1.566   8.175  0.0279  0.4850 -0.6061
   60SAPC  H11X 4681   6.145   1.583   8.084 -1.0537 -0.2671 -1.5060
   60SAPC  H11Y 4682   6.080   1.664   8.228 -1.0916  0.8667 -1.3350
   60SAPC  C312 4683   5.946   1.531   8.122  0.1793 -0.5681  0.1110
   60SAPC  H12X 4684   5.871   1.533   8.203 -0.5614  0.9009 -0.5769
   60SAPC  H12Y 4685   5.957   1.428   8.082 -0.8095 -0.9791  0.8642
   60SAPC  C313 4686   5.892   1.629   8.015 -0.2025 -0.4624  0.1933
   60SAPC  H13X 4687   5.811   1.587   7.952 -2.1822  3.9395 -0.5388
   60SAPC  H13Y 4688   5.980   1.661   7.956 -0.4078  1.3742  0.8310
   60SAPC  C314 4689   5.826   1.760   8.071  0.0131 -0.3421  0.4579
   60SAPC  H14X 4690   5.890   1.788   8.157 -0.1559 -1.2143  0.8761
   60SAPC  H14Y 4691   5.725   1.750   8.116 -0.6154  0.7836 -0.6511
   60SAPC  C315 4692   5.824   1.888   7.979  0.0470 -0.6498 -0.0573
   60SAPC  H15X 4693   5.926   1.912   7.941 -0.3970 -0.0591 -0.8918
   60SAPC  H15Y 4694   5.790   1.966   8.050  0.7379 -0.5278  0.1462
   60SAPC  C316 4695   5.728   1.872   7.859 -0.2198  0.1496  1.0643
   60SAPC  H16X 4696   5.622   1.878   7.891 -0.7519  2.4440 -0.8516
   60SAPC  H16Y 4697   5.757   1.781   7.801  0.9085  1.5666 -0.7188
   60SAPC  C317 4698   5.740   1.994   7.763  0.2919 -0.0793  0.2461
   60SAPC  H17X 4699   5.720   1.964   7.658  1.0634  0.0603  0.0489
   60SAPC  H17Y 4700   5.840   2.040   7.777  1.6343 -2.1256 -1.7707
   60SAPC  C318 4701   5.646   2.110   7.789 -0.3839  1.0328 -0.5966
   60SAPC  H18X 4702   5.546   2.072   7.760  0.2661 -0.5454 -0.8262
   60SAPC  H18Y 4703   5.663   2.202   7.729  1.4669  0.0322 -1.6861
   60SAPC  H18Z 4704   5.653   2.127   7.899 -2.1598 -2.1590  0.1339
   61SAPC     N 4705   1.562   6.856  10.049  0.6640  0.0785 -0.4359
   61SAPC   C12 4706   1.509   6.844   9.908  0.8182 -0.1106 -0.2569
   61SAPC  H12A 4707   1.427   6.913   9.895 -0.7150 -2.3406 -3.9578
   61SAPC  H12B 4708   1.464   6.746   9.903  1.7720 -0.8884  3.4614
   61SAPC   C13 4709   1.450   6.852  10.147 -0.1485 -0.0661 -1.2533
   61SAPC  H13A 4710   1.380   6.930  10.124 -0.2063  0.2828  0.0503
   61SAPC  H13B 4711   1.405   6.754  10.139  1.0772 -0.8112  0.3944
   61SAPC  H13C 4712   1.481   6.859  10.250  0.9500 -1.4464 -1.4469
   61SAPC   C14 4713   1.649   6.739  10.082  0.5880 -0.2433  0.0847
   61SAPC  H14A 4714   1.585   6.653  10.097  1.3013 -0.4671  2.0568
   61SAPC  H14B 4715   1.714   6.733   9.997 -0.3174 -2.1264 -0.5326
   61SAPC  H14C 4716   1.718   6.750  10.164  1.8897 -1.9917 -0.7152
   61SAPC   C15 4717   1.650   6.980  10.069  0.0226 -0.0023 -0.2686
   61SAPC  H15A 4718   1.718   6.970  10.152 -1.0268  0.4111  0.6709
   61SAPC  H15B 4719   1.704   6.994   9.977  0.6319 -1.9212 -0.2517
   61SAPC  H15C 4720   1.589   7.067  10.088  1.1125  0.9417 -0.9764
   61SAPC   C11 4721   1.606   6.860   9.789 -0.7941  0.5511  0.1719
   61SAPC  H11A 4722   1.647   6.962   9.802 -0.0655  0.4428 -1.0887
   61SAPC  H11B 4723   1.543   6.859   9.698 -1.7482  0.1966  0.8284
   61SAPC     P 4724   1.708   6.641   9.711 -0.1198 -0.2392  0.2885
   61SAPC   O13 4725   1.839   6.580   9.703 -0.1754  0.1076  0.1647
   61SAPC   O14 4726   1.587   6.557   9.761 -0.2316 -0.1601  0.3053
   61SAPC   O12 4727   1.719   6.773   9.788  0.9275  0.0945 -0.0531
   61SAPC   O11 4728   1.674   6.701   9.565  0.6227 -0.0282 -0.2589
   61SAPC    C1 4729   1.688   6.609   9.454  0.2239 -0.5521  0.5001
   61SAPC    HA 4730   1.726   6.661   9.363 -0.2109 -1.4223 -0.2007
   61SAPC    HB 4731   1.762   6.530   9.482  0.8024  0.5548  2.2161
   61SAPC    C2 4732   1.544   6.556   9.420  0.6740  1.0774 -0.2331
   61SAPC    HS 4733   1.516   6.517   9.520 -1.0135  2.6394 -0.0396
   61SAPC   O21 4734   1.566   6.450   9.332  0.1501  0.8839  0.2296
   61SAPC   C21 4735   1.467   6.358   9.337  0.4507  0.8042  0.3787
   61SAPC   O22 4736   1.380   6.367   9.417  0.0093  0.4298  0.4804
   61SAPC   C22 4737   1.486   6.245   9.242 -0.0701  0.1945  0.4913
   61SAPC   H2R 4738   1.550   6.164   9.282  0.2254 -1.5328 -3.0296
   61SAPC   H2S 4739   1.385   6.201   9.225 -0.3770  1.5358 -1.6545
   61SAPC    C3 4740   1.447   6.671   9.381 -0.1554  0.4291  0.2019
   61SAPC    HX 4741   1.449   6.745   9.463 -0.6748 -0.7960  1.3667
   61SAPC    HY 4742   1.346   6.625   9.383  0.7304 -1.6537  0.7151
   61SAPC   O31 4743   1.486   6.731   9.256 -0.1563 -0.1784  0.2231
   61SAPC   C31 4744   1.412   6.706   9.152 -0.0585  0.1787  0.3061
   61SAPC   O32 4745   1.312   6.632   9.141  0.0913  0.1329  0.0268
   61SAPC   C32 4746   1.481   6.786   9.037  0.1113  0.4995 -1.0116
   61SAPC   H2X 4747   1.585   6.748   9.041 -0.1802 -0.6609 -3.1724
   61SAPC   H2Y 4748   1.490   6.893   9.066  0.1604  0.2904 -0.2408
   61SAPC   C23 4749   1.537   6.298   9.111  0.1719 -0.0581  0.3193
   61SAPC   H3R 4750   1.636   6.347   9.128  0.7742 -1.9328  2.8110
   61SAPC   H3S 4751   1.462   6.370   9.072 -0.8396 -0.8454  0.7695
   61SAPC   C24 4752   1.556   6.178   9.022  0.2103  0.4494  0.4354
   61SAPC   H4R 4753   1.603   6.096   9.080  1.5942 -0.9495 -2.4410
   61SAPC   H4S 4754   1.629   6.205   8.943  0.5244  1.5844  1.0927
   61SAPC   C25 4755   1.433   6.116   8.957 -0.1090  0.3610 -0.1895
   61SAPC   H5R 4756   1.369   6.056   9.024 -0.8923  0.7269 -0.5990
   61SAPC   C26 4757   1.397   6.105   8.828  0.2416 -0.5246 -0.6743
   61SAPC   H6R 4758   1.303   6.048   8.815 -0.6281  0.6106  0.4167
   61SAPC   C27 4759   1.471   6.136   8.705 -0.2528 -0.5582  0.2925
   61SAPC   H7R 4760   1.535   6.051   8.673  0.0936  0.8239 -3.1590
   61SAPC   H7S 4761   1.544   6.218   8.723 -1.2377 -0.0650  2.3640
   61SAPC   C28 4762   1.381   6.175   8.594  0.4567  0.8641 -0.0098
   61SAPC   H8R 4763   1.277   6.141   8.607  0.1207  1.3028 -1.3408
   61SAPC   C29 4764   1.412   6.230   8.472  0.5906  0.1814 -0.7225
   61SAPC   H9R 4765   1.330   6.260   8.405 -0.3984  1.1390  0.8314
   61SAPC  C210 4766   1.545   6.281   8.430 -0.3453 -0.2166  0.4593
   61SAPC  H10R 4767   1.566   6.241   8.329 -0.5014 -2.0728  1.1235
   61SAPC  H10S 4768   1.634   6.246   8.487  1.0389  1.2373 -0.7243
   61SAPC  C211 4769   1.557   6.432   8.425  0.5888  0.1437 -0.1688
   61SAPC  H11R 4770   1.555   6.493   8.516  0.2624  2.2319 -1.5165
   61SAPC  C212 4771   1.587   6.509   8.321 -0.2504 -0.3646 -0.8012
   61SAPC  H12R 4772   1.574   6.617   8.337  3.1440 -0.0823  0.9152
   61SAPC  C213 4773   1.613   6.471   8.178 -0.6848  0.0094 -0.3129
   61SAPC  H13R 4774   1.626   6.361   8.171 -0.6803 -0.0536  0.5379
   61SAPC  H13S 4775   1.713   6.511   8.154 -0.7339 -0.3901 -1.2127
   61SAPC  C214 4776   1.502   6.510   8.084 -0.2826  0.5942  0.4832
   61SAPC  H14R 4777   1.404   6.465   8.108 -0.7942  2.0508  1.2417
   61SAPC  C215 4778   1.505   6.606   7.995  0.3371 -0.4134 -0.2183
   61SAPC  H15R 4779   1.418   6.633   7.933  0.1832 -1.1557 -0.3415
   61SAPC  C216 4780   1.619   6.696   7.966 -0.5384 -0.1659 -0.3998
   61SAPC  H16R 4781   1.704   6.673   8.034  0.0181  1.7529 -0.3988
   61SAPC  H16S 4782   1.590   6.796   8.003  0.4892 -0.6194  1.8147
   61SAPC  C217 4783   1.657   6.700   7.814  0.7645 -0.1433  1.2747
   61SAPC  H17R 4784   1.690   6.604   7.769  0.2013 -0.0984  0.7511
   61SAPC  H17S 4785   1.745   6.767   7.805 -0.2201  0.9964 -0.7382
   61SAPC  C218 4786   1.554   6.768   7.716  0.3439  0.2835  0.0522
   61SAPC  H18R 4787   1.462   6.706   7.709 -1.3169  2.5971  0.1008
   61SAPC  H18S 4788   1.598   6.760   7.614 -3.2089 -0.4601 -1.6049
   61SAPC  C219 4789   1.508   6.913   7.737  0.1031  0.2591  0.2587
   61SAPC  H19R 4790   1.599   6.970   7.765 -0.7944  0.5396  3.0174
   61SAPC  H19S 4791   1.438   6.928   7.823  1.2604 -0.3662  1.3450
   61SAPC  C220 4792   1.451   6.971   7.606  0.0873 -0.0214  0.2256
   61SAPC  H20R 4793   1.532   6.972   7.530 -0.8239  1.3483 -0.7761
   61SAPC  H20S 4794   1.415   7.075   7.619 -1.6397 -0.2556 -2.1289
   61SAPC  H20T 4795   1.362   6.917   7.568 -0.6271  1.4296 -0.2494
   61SAPC   C33 4796   1.413   6.767   8.907 -0.4309  0.0859  0.0782
   61SAPC   H3X 4797   1.306   6.797   8.908  0.2573  2.8435  0.0831
   61SAPC   H3Y 4798   1.417   6.660   8.877 -0.3029 -0.4742  1.9380
   61SAPC   C34 4799   1.486   6.856   8.807 -1.1834  0.0851 -0.0124
   61SAPC   H4X 4800   1.591   6.826   8.787 -1.0906  1.2411 -1.5236
   61SAPC   H4Y 4801   1.481   6.962   8.841  0.4239  0.4974 -0.9632
   61SAPC   C35 4802   1.423   6.848   8.659 -0.0311  0.8587 -0.0238
   61SAPC   H5X 4803   1.322   6.894   8.661 -0.8993 -0.9260  2.8671
   61SAPC   H5Y 4804   1.421   6.741   8.629  0.3228  0.5778  0.9415
   61SAPC   C36 4805   1.505   6.915   8.547  0.0737 -0.7494 -0.0531
   61SAPC   H6X 4806   1.608   6.873   8.540  0.4025  0.0720 -0.3621
   61SAPC   H6Y 4807   1.516   7.018   8.587 -0.4231  0.0398 -1.8164
   61SAPC   C37 4808   1.440   6.919   8.409 -0.0431 -0.2113 -0.0330
   61SAPC   H7X 4809   1.339   6.960   8.431 -0.1107  0.6705 -1.7780
   61SAPC   H7Y 4810   1.420   6.812   8.393  1.8287 -0.8992  1.7292
   61SAPC   C38 4811   1.510   6.998   8.300 -0.2010  0.2179 -0.4407
   61SAPC   H8X 4812   1.607   6.951   8.277 -1.2797 -1.4761 -1.7227
   61SAPC   H8Y 4813   1.526   7.097   8.348 -0.0794  0.0254 -0.0797
   61SAPC   C39 4814   1.424   7.006   8.169 -0.7471  0.3285 -0.4522
   61SAPC   H9X 4815   1.380   6.904   8.161 -3.0122  1.2248 -0.3546
   61SAPC   H9Y 4816   1.497   7.029   8.089 -0.2621  1.1503  0.2124
   61SAPC  C310 4817   1.299   7.097   8.182 -0.0956 -0.1930  0.7819
   61SAPC  H10X 4818   1.340   7.198   8.202  2.6699 -0.5221 -2.3839
   61SAPC  H10Y 4819   1.231   7.057   8.260  1.7326 -2.0522  1.5176
   61SAPC  C311 4820   1.232   7.103   8.050  0.7463  0.0014 -0.0258
   61SAPC  H11X 4821   1.193   7.006   8.012  1.3040  0.5037 -1.9907
   61SAPC  H11Y 4822   1.306   7.108   7.967  0.0865 -0.2872 -0.6507
   61SAPC  C312 4823   1.133   7.214   8.034  0.1876 -0.4789 -0.9366
   61SAPC  H12X 4824   1.174   7.315   8.054 -1.2423 -0.2374  1.0463
   61SAPC  H12Y 4825   1.060   7.197   8.116  3.2160  1.4906  2.4246
   61SAPC  C313 4826   1.061   7.216   7.896  0.6055 -0.4800  0.4885
   61SAPC  H13X 4827   0.991   7.302   7.904  0.4437 -0.4679 -0.8638
   61SAPC  H13Y 4828   1.007   7.119   7.893 -1.2009  0.4659  0.7710
   61SAPC  C314 4829   1.140   7.248   7.768 -0.1608  0.5206 -0.0832
   61SAPC  H14X 4830   1.072   7.250   7.680 -0.1015 -2.1459 -0.2692
   61SAPC  H14Y 4831   1.213   7.165   7.758 -1.0059 -0.1231 -1.1690
   61SAPC  C315 4832   1.219   7.379   7.783  0.0844  0.9901 -0.0278
   61SAPC  H15X 4833   1.279   7.369   7.876  0.0595  0.2133 -0.0887
   61SAPC  H15Y 4834   1.139   7.453   7.806 -2.1373 -1.4283  0.5017
   61SAPC  C316 4835   1.306   7.402   7.651 -0.0434  0.1657 -0.4466
   61SAPC  H16X 4836   1.232   7.400   7.568 -0.8579  2.0294  0.1720
   61SAPC  H16Y 4837   1.376   7.316   7.647 -1.3972 -1.3750  3.8037
   61SAPC  C317 4838   1.380   7.542   7.640 -0.7867 -0.3855 -0.3103
   61SAPC  H17X 4839   1.468   7.551   7.706 -1.3581 -2.5605  0.8375
   61SAPC  H17Y 4840   1.307   7.614   7.683 -0.2142 -0.1894  0.3465
   61SAPC  C318 4841   1.421   7.579   7.489 -0.6924 -0.5237 -0.2098
   61SAPC  H18X 4842   1.329   7.563   7.429 -1.3975 -0.5551  0.8540
   61SAPC  H18Y 4843   1.507   7.530   7.438 -1.1801  0.7299 -2.3766
   61SAPC  H18Z 4844   1.450   7.687   7.491 -3.4719  0.3136 -0.9171
   62SAPC     N 4845   0.897   5.733   9.743  0.1297 -1.3268 -0.6798
   62SAPC   C12 4846   0.883   5.767   9.597  0.7214  0.4282  0.2030
   62SAPC  H12A 4847   0.778   5.776   9.575  1.2220  0.8700 -2.3750
   62SAPC  H12B 4848   0.913   5.681   9.538  0.5997  2.4252 -2.9953
   62SAPC   C13 4849   0.842   5.847   9.826 -0.3190  0.2216  0.7097
   62SAPC  H13A 4850   0.825   5.826   9.931  1.8419 -0.1712  1.0278
   62SAPC  H13B 4851   0.911   5.929   9.815 -1.1581  1.0390  1.4265
   62SAPC  H13C 4852   0.745   5.870   9.786 -0.2540 -0.2915  0.2322
   62SAPC   C14 4853   0.805   5.613   9.770 -0.4161 -0.5199  0.6309
   62SAPC  H14A 4854   0.704   5.649   9.754  0.6223  2.9407  0.9791
   62SAPC  H14B 4855   0.821   5.531   9.701  0.0700  1.4303 -1.7148
   62SAPC  H14C 4856   0.806   5.592   9.876 -1.0443  0.9244  0.9404
   62SAPC   C15 4857   1.033   5.680   9.768 -0.1600 -0.0743  0.0993
   62SAPC  H15A 4858   1.052   5.646   9.869  5.7435  0.7720 -0.3860
   62SAPC  H15B 4859   1.068   5.596   9.710  0.4795  1.0210 -1.1548
   62SAPC  H15C 4860   1.109   5.755   9.750 -1.2970  0.8294 -1.1207
   62SAPC   C11 4861   0.971   5.887   9.555 -0.0419  0.5105 -0.4513
   62SAPC  H11A 4862   0.979   5.890   9.444  2.5879 -0.0496 -0.3533
   62SAPC  H11B 4863   1.076   5.874   9.589  0.0028 -0.8688 -1.0281
   62SAPC     P 4864   0.993   6.139   9.560 -0.2023  0.0640 -0.1569
   62SAPC   O13 4865   0.918   6.249   9.621 -0.2534 -0.1863 -0.1079
   62SAPC   O14 4866   1.138   6.128   9.595  0.1142 -0.7236 -0.0568
   62SAPC   O12 4867   0.923   6.006   9.607 -0.0056  0.0714 -0.1069
   62SAPC   O11 4868   0.982   6.149   9.404  0.5687  0.1868  0.5492
   62SAPC    C1 4869   1.085   6.219   9.325 -0.7627  0.1572  0.6670
   62SAPC    HA 4870   1.171   6.255   9.386 -1.1750  1.8435  0.2869
   62SAPC    HB 4871   1.122   6.148   9.248  0.3811  1.1330  0.2952
   62SAPC    C2 4872   1.032   6.347   9.255  0.1675 -0.4242  0.2636
   62SAPC    HS 4873   1.041   6.421   9.338  2.5028 -1.5811  1.1241
   62SAPC   O21 4874   0.892   6.338   9.211  0.6297 -0.0147  0.5342
   62SAPC   C21 4875   0.832   6.459   9.197  0.8940 -0.5847 -0.9369
   62SAPC   O22 4876   0.888   6.564   9.207 -0.2173  0.2077 -0.1709
   62SAPC   C22 4877   0.683   6.449   9.162  0.3471 -0.0742  0.5788
   62SAPC   H2R 4878   0.664   6.350   9.114 -0.8787  0.7769 -0.7578
   62SAPC   H2S 4879   0.611   6.470   9.243 -1.0290  2.1297 -1.1098
   62SAPC    C3 4880   1.123   6.402   9.146 -0.4107  0.8886  0.3909
   62SAPC    HX 4881   1.225   6.416   9.186 -0.6736  2.9440  0.4963
   62SAPC    HY 4882   1.086   6.501   9.111 -0.8466 -0.0174 -1.8429
   62SAPC   O31 4883   1.123   6.308   9.033 -0.2317  0.5730  0.5342
   62SAPC   C31 4884   1.077   6.358   8.909  0.3411  0.5100  0.3546
   62SAPC   O32 4885   1.054   6.478   8.895 -0.0120 -0.3045  0.4691
   62SAPC   C32 4886   1.051   6.248   8.814  1.0109  0.0159  0.7002
   62SAPC   H2X 4887   0.991   6.174   8.872 -1.8019  2.8703  1.7082
   62SAPC   H2Y 4888   1.152   6.215   8.783  2.1646  1.6931  2.4606
   62SAPC   C23 4889   0.638   6.552   9.052 -0.0093  0.1216  0.0234
   62SAPC   H3R 4890   0.634   6.652   9.100  0.2923  1.5854 -2.8473
   62SAPC   H3S 4891   0.529   6.533   9.039  0.0643 -0.2653 -0.0422
   62SAPC   C24 4892   0.709   6.546   8.918  0.1788 -0.8018  0.0279
   62SAPC   H4R 4893   0.685   6.451   8.867 -0.7209  0.3490 -1.8113
   62SAPC   H4S 4894   0.818   6.554   8.936 -0.0094  0.8555  0.6712
   62SAPC   C25 4895   0.675   6.663   8.823  0.1107 -0.4274  0.2168
   62SAPC   H5R 4896   0.740   6.751   8.836 -1.6386  0.6532  2.4424
   62SAPC   C26 4897   0.589   6.661   8.717 -0.2376 -0.9635 -0.4130
   62SAPC   H6R 4898   0.580   6.750   8.654  0.9786  0.5656  1.4810
   62SAPC   C27 4899   0.510   6.553   8.664  0.7452 -0.0549  0.3074
   62SAPC   H7R 4900   0.418   6.598   8.621 -0.2706 -1.0054  1.4075
   62SAPC   H7S 4901   0.467   6.492   8.747 -0.9859 -0.0347 -0.5189
   62SAPC   C28 4902   0.592   6.468   8.572  0.5114 -0.4010  0.1465
   62SAPC   H8R 4903   0.628   6.372   8.612  3.3915 -0.6082 -2.4963
   62SAPC   C29 4904   0.623   6.490   8.444 -0.1664 -0.3883  0.6001
   62SAPC   H9R 4905   0.695   6.424   8.392 -0.6544  0.6905 -1.5441
   62SAPC  C210 4906   0.592   6.618   8.364  0.0986 -0.6734  1.1884
   62SAPC  H10R 4907   0.681   6.684   8.370  1.6009 -2.3044 -1.1315
   62SAPC  H10S 4908   0.505   6.675   8.401  1.0642  1.3434  0.5013
   62SAPC  C211 4909   0.583   6.583   8.218 -0.5150 -0.1850  0.0833
   62SAPC  H11R 4910   0.482   6.551   8.188  0.4974 -1.7133 -1.9295
   62SAPC  C212 4911   0.682   6.585   8.121  0.2673 -0.9014 -0.0618
   62SAPC  H12R 4912   0.661   6.550   8.019 -2.7245 -1.0513  0.5078
   62SAPC  C213 4913   0.830   6.618   8.145  0.6143  0.0964 -0.1109
   62SAPC  H13R 4914   0.840   6.640   8.253  0.7601 -0.1203 -0.0799
   62SAPC  H13S 4915   0.853   6.708   8.083 -0.6752 -0.5361 -1.5726
   62SAPC  C214 4916   0.930   6.505   8.118  0.1080  0.4560  0.0593
   62SAPC  H14R 4917   0.887   6.408   8.089  0.2566  0.4570 -0.1667
   62SAPC  C215 4918   1.064   6.521   8.123 -0.6940  0.2110  0.2586
   62SAPC  H15R 4919   1.119   6.429   8.101  1.3342  0.7814  2.5109
   62SAPC  C216 4920   1.141   6.648   8.163  0.0976  0.4851  0.3476
   62SAPC  H16R 4921   1.081   6.740   8.174  0.7408  0.8571  0.8072
   62SAPC  H16S 4922   1.211   6.670   8.079 -0.9721  2.6413 -0.0330
   62SAPC  C217 4923   1.211   6.620   8.296 -0.3986  0.1855  0.4836
   62SAPC  H17R 4924   1.289   6.698   8.301 -0.6341  0.3994  0.8688
   62SAPC  H17S 4925   1.274   6.529   8.284  0.1884  0.5307  0.9352
   62SAPC  C218 4926   1.119   6.617   8.415 -0.1495  0.2491  0.2605
   62SAPC  H18R 4927   1.185   6.580   8.497  0.4153  0.6411 -0.0098
   62SAPC  H18S 4928   1.042   6.538   8.402 -0.1628 -0.2527  2.7502
   62SAPC  C219 4929   1.058   6.747   8.463 -0.4091 -0.0134 -0.2950
   62SAPC  H19R 4930   0.984   6.784   8.389  0.0706 -0.3689 -0.9626
   62SAPC  H19S 4931   1.142   6.819   8.466 -0.8378  0.4871 -0.2511
   62SAPC  C220 4932   1.002   6.730   8.603  0.7132 -0.5635 -0.1404
   62SAPC  H20R 4933   0.915   6.662   8.611  0.2851 -0.0970 -0.7522
   62SAPC  H20S 4934   0.964   6.832   8.628 -0.4859 -0.3899 -2.4876
   62SAPC  H20T 4935   1.081   6.701   8.676  0.9885 -0.7426 -0.5126
   62SAPC   C33 4936   0.968   6.300   8.693  0.3117 -0.1361  0.0034
   62SAPC   H3X 4937   1.022   6.382   8.642 -0.1447 -0.3921 -0.9271
   62SAPC   H3Y 4938   0.868   6.343   8.715 -0.1104 -0.8371 -0.4732
   62SAPC   C34 4939   0.953   6.197   8.592  0.9375  0.6509 -0.7857
   62SAPC   H4X 4940   0.866   6.135   8.618  1.1274 -1.7027 -4.8533
   62SAPC   H4Y 4941   1.040   6.127   8.595  0.5738  0.2371  0.8697
   62SAPC   C35 4942   0.954   6.264   8.456 -0.3556 -0.9753  0.3060
   62SAPC   H5X 4943   1.039   6.332   8.432 -0.3249 -0.3313  2.1123
   62SAPC   H5Y 4944   0.869   6.334   8.440 -0.5926 -1.2356  0.4279
   62SAPC   C36 4945   0.946   6.176   8.335  0.3085  0.2288 -0.0110
   62SAPC   H6X 4946   0.897   6.227   8.248 -2.0918 -3.0763 -0.7895
   62SAPC   H6Y 4947   0.880   6.090   8.359 -1.2826  1.7287  1.2304
   62SAPC   C37 4948   1.087   6.131   8.293 -0.3048 -0.0337  0.0815
   62SAPC   H7X 4949   1.146   6.103   8.383 -1.2650 -0.4108  0.6098
   62SAPC   H7Y 4950   1.138   6.217   8.245  0.0236 -0.3161 -0.0739
   62SAPC   C38 4951   1.100   5.998   8.218  0.6476 -0.1903  1.1954
   62SAPC   H8X 4952   1.012   6.001   8.151 -2.2998  1.0833  4.8154
   62SAPC   H8Y 4953   1.082   5.920   8.295 -0.0405 -1.9805 -0.6829
   62SAPC   C39 4954   1.240   5.981   8.144 -0.2815 -0.6386 -0.5357
   62SAPC   H9X 4955   1.257   5.874   8.118  0.8215 -1.4720  2.9490
   62SAPC   H9Y 4956   1.315   5.998   8.225 -0.8580 -1.5389  0.2137
   62SAPC  C310 4957   1.266   6.076   8.024  0.0551 -0.6649 -0.0164
   62SAPC  H10X 4958   1.233   6.176   8.057 -0.5554 -1.7745  3.0853
   62SAPC  H10Y 4959   1.191   6.060   7.943 -0.2294  2.5049 -0.4803
   62SAPC  C311 4960   1.412   6.088   7.978  0.5769 -0.8320 -0.0314
   62SAPC  H11X 4961   1.453   5.989   7.948 -0.3083 -0.8986 -1.0663
   62SAPC  H11Y 4962   1.478   6.125   8.059  1.4024  2.7294 -2.1311
   62SAPC  C312 4963   1.416   6.182   7.852  0.3029  0.0212 -0.1555
   62SAPC  H12X 4964   1.357   6.272   7.876 -0.9795 -0.9741  0.5453
   62SAPC  H12Y 4965   1.372   6.141   7.758  0.6835  0.8889 -0.7261
   62SAPC  C313 4966   1.563   6.226   7.811  0.7563  0.1464 -0.5794
   62SAPC  H13X 4967   1.613   6.273   7.898  0.7120 -0.0081 -0.4701
   62SAPC  H13Y 4968   1.547   6.313   7.744 -2.7979 -1.1784 -1.6672
   62SAPC  C314 4969   1.650   6.120   7.755  0.2903  0.1122  0.2204
   62SAPC  H14X 4970   1.590   6.074   7.674  0.2926 -0.3938  0.5023
   62SAPC  H14Y 4971   1.665   6.044   7.834 -1.7856  0.4832  1.0328
   62SAPC  C315 4972   1.776   6.154   7.672  0.4685  0.0926  0.3793
   62SAPC  H15X 4973   1.745   6.229   7.596  0.4036  0.1678  0.4781
   62SAPC  H15Y 4974   1.812   6.070   7.610  0.0884  0.1978  0.0099
   62SAPC  C316 4975   1.886   6.192   7.771  0.1095 -0.4462  1.4466
   62SAPC  H16X 4976   1.919   6.108   7.836  0.3831 -1.3683  0.1561
   62SAPC  H16Y 4977   1.840   6.280   7.822 -1.1343  0.6877 -1.4269
   62SAPC  C317 4978   2.017   6.254   7.703  0.4404  1.0951 -0.5077
   62SAPC  H17X 4979   2.060   6.179   7.633 -0.4886 -0.1018  0.1589
   62SAPC  H17Y 4980   2.092   6.271   7.782  1.0367  0.3655 -0.9021
   62SAPC  C318 4981   1.994   6.386   7.628  0.5192  0.8204 -0.4680
   62SAPC  H18X 4982   1.943   6.462   7.691 -1.1341  0.2060 -0.9905
   62SAPC  H18Y 4983   1.937   6.364   7.535  1.7106  1.6013 -1.4224
   62SAPC  H18Z 4984   2.083   6.429   7.578 -0.3002  2.0959 -0.8920
   63SAPC     N 4985   3.352   3.822   5.594  0.5944 -0.1155 -0.1276
   63SAPC   C12 4986   3.268   3.946   5.562 -0.3291  0.4452  0.1479
   63SAPC  H12A 4987   3.173   3.914   5.523 -0.2477  0.0127  0.3038
   63SAPC  H12B 4988   3.322   4.007   5.491  1.9145  1.2787  2.4031
   63SAPC   C13 4989   3.272   3.735   5.701 -0.6360  0.0651 -0.0305
   63SAPC  H13A 4990   3.272   3.793   5.792 -0.1577  0.8842 -0.5388
   63SAPC  H13B 4991   3.178   3.703   5.661  0.1999 -0.9112 -1.3052
   63SAPC  H13C 4992   3.330   3.649   5.731 -1.1293 -0.6958 -1.1840
   63SAPC   C14 4993   3.374   3.733   5.478  0.0483  1.2299 -0.1558
   63SAPC  H14A 4994   3.286   3.692   5.431  1.5871 -0.6093 -1.6404
   63SAPC  H14B 4995   3.426   3.785   5.399  4.2674 -2.3821 -0.1619
   63SAPC  H14C 4996   3.441   3.654   5.508 -3.9855 -1.3936  2.9837
   63SAPC   C15 4997   3.489   3.840   5.647  0.1229 -0.9246  0.4202
   63SAPC  H15A 4998   3.482   3.916   5.724 -1.2519  1.1024 -1.6027
   63SAPC  H15B 4999   3.533   3.750   5.688  0.4591 -0.8408  0.2470
   63SAPC  H15C 5000   3.561   3.885   5.580 -0.5789  0.8769  0.8084
   63SAPC   C11 5001   3.238   4.045   5.671 -0.3212 -0.7127 -0.5269
   63SAPC  H11A 5002   3.174   4.000   5.751 -0.7278 -0.9431 -0.9750
   63SAPC  H11B 5003   3.186   4.128   5.620 -1.7927 -1.2918 -0.0285
   63SAPC     P 5004   3.449   4.191   5.676 -0.1956 -0.0227  0.3276
   63SAPC   O13 5005   3.590   4.161   5.719  0.4147 -0.1410 -0.5515
   63SAPC   O14 5006   3.433   4.203   5.531 -0.4428  0.1368  0.3746
   63SAPC   O12 5007   3.355   4.084   5.737  0.2775  0.2657 -0.5979
   63SAPC   O11 5008   3.396   4.326   5.745 -0.2523 -0.1210 -0.0670
   63SAPC    C1 5009   3.409   4.324   5.889  0.0490  0.2948  0.0037
   63SAPC    HA 5010   3.346   4.248   5.941 -0.8438  2.2054  1.8800
   63SAPC    HB 5011   3.511   4.320   5.932 -0.2481 -2.4048  0.6254
   63SAPC    C2 5012   3.350   4.464   5.946  0.0716  0.5217  0.6744
   63SAPC    HS 5013   3.267   4.494   5.878  1.4272 -0.3193 -1.4641
   63SAPC   O21 5014   3.450   4.568   5.947 -0.0967 -0.0360  0.2358
   63SAPC   C21 5015   3.413   4.687   5.984 -0.2466 -0.4032 -0.1721
   63SAPC   O22 5016   3.301   4.732   5.986  0.1645  0.3072 -0.6266
   63SAPC   C22 5017   3.535   4.773   6.022  0.4021  0.7471  0.1984
   63SAPC   H2R 5018   3.613   4.769   5.943  1.3966  1.9616  1.0804
   63SAPC   H2S 5019   3.494   4.875   6.037 -0.8265  0.0588  1.9226
   63SAPC    C3 5020   3.275   4.436   6.078  0.0796 -0.5370 -0.0063
   63SAPC    HX 5021   3.196   4.357   6.073  0.2582 -0.7917  1.0145
   63SAPC    HY 5022   3.232   4.532   6.113  0.8986 -0.2260  0.1606
   63SAPC   O31 5023   3.360   4.382   6.184  0.8921  0.2545  0.0783
   63SAPC   C31 5024   3.381   4.448   6.298 -0.2442  1.2521 -0.8584
   63SAPC   O32 5025   3.343   4.562   6.322 -0.6415 -0.2657  0.3617
   63SAPC   C32 5026   3.463   4.360   6.393  0.3455 -0.8882  0.3537
   63SAPC   H2X 5027   3.548   4.315   6.337  0.3388  0.4826 -0.8118
   63SAPC   H2Y 5028   3.398   4.280   6.435 -0.6514 -0.9362 -1.1663
   63SAPC   C23 5029   3.590   4.731   6.163 -0.5570  0.3803 -0.4382
   63SAPC   H3R 5030   3.614   4.623   6.170 -0.9708  0.3657  1.1547
   63SAPC   H3S 5031   3.509   4.751   6.236 -1.1495  2.0198 -1.4771
   63SAPC   C24 5032   3.718   4.818   6.195 -0.0040 -0.7491 -0.2856
   63SAPC   H4R 5033   3.701   4.910   6.136 -1.4953 -1.7741 -1.5435
   63SAPC   H4S 5034   3.803   4.773   6.138 -0.2405 -0.6257 -0.7396
   63SAPC   C25 5035   3.745   4.835   6.342  0.5837  0.2462 -0.5432
   63SAPC   H5R 5036   3.707   4.932   6.377  1.3277  1.1574 -2.1416
   63SAPC   C26 5037   3.807   4.745   6.422 -0.4674 -0.3067 -0.3993
   63SAPC   H6R 5038   3.816   4.773   6.528 -2.7679  0.4331 -0.3509
   63SAPC   C27 5039   3.876   4.611   6.380 -0.4841  0.7081 -0.0291
   63SAPC   H7R 5040   3.983   4.637   6.370 -0.7130  1.1636 -1.5302
   63SAPC   H7S 5041   3.827   4.588   6.283 -0.9571 -0.3900  0.4440
   63SAPC   C28 5042   3.838   4.498   6.472  0.1294 -0.0284  0.4710
   63SAPC   H8R 5043   3.769   4.528   6.552 -1.0480  1.1715 -0.9322
   63SAPC   C29 5044   3.875   4.371   6.454 -0.3940 -0.2501 -0.1116
   63SAPC   H9R 5045   3.844   4.292   6.525 -0.2874  0.6321  0.9373
   63SAPC  C210 5046   3.953   4.320   6.333 -0.4434 -0.2704 -0.0325
   63SAPC  H10R 5047   3.928   4.378   6.241  1.8708  0.2702 -0.3952
   63SAPC  H10S 5048   3.919   4.216   6.316  1.5220 -1.4162  2.4229
   63SAPC  C211 5049   4.102   4.328   6.337 -0.2024 -0.3623  0.3172
   63SAPC  H11R 5050   4.148   4.428   6.333 -1.0092  0.0293 -3.6326
   63SAPC  C212 5051   4.178   4.220   6.342 -0.1273  0.4869 -0.1589
   63SAPC  H12R 5052   4.287   4.236   6.351  0.5412 -1.6680 -3.0662
   63SAPC  C213 5053   4.148   4.073   6.336 -0.9105  0.7326  0.1978
   63SAPC  H13R 5054   4.186   4.037   6.238 -1.0856  1.6897 -0.2301
   63SAPC  H13S 5055   4.039   4.051   6.332 -0.9125  0.9378 -2.1800
   63SAPC  C214 5056   4.202   3.991   6.454 -0.6790 -0.6585 -0.4017
   63SAPC  H14R 5057   4.269   4.056   6.512  0.9223 -0.9159 -1.8722
   63SAPC  C215 5058   4.181   3.862   6.486 -0.9423 -0.8903 -0.1862
   63SAPC  H15R 5059   4.240   3.812   6.565 -1.0831 -1.9728 -0.7570
   63SAPC  C216 5060   4.084   3.763   6.419  0.2234  0.4501 -0.1508
   63SAPC  H16R 5061   4.115   3.657   6.434 -1.4028 -0.5555 -3.0527
   63SAPC  H16S 5062   4.094   3.786   6.310  0.4954 -0.8889 -0.4295
   63SAPC  C217 5063   3.934   3.779   6.464  0.2222 -0.6626  0.8642
   63SAPC  H17R 5064   3.888   3.873   6.428 -1.7084 -1.7898  0.2418
   63SAPC  H17S 5065   3.938   3.784   6.575  0.1987  0.6502  0.8182
   63SAPC  C218 5066   3.849   3.659   6.426  0.2503  0.2326  0.6093
   63SAPC  H18R 5067   3.757   3.662   6.488 -1.6036  0.7119 -1.9819
   63SAPC  H18S 5068   3.904   3.566   6.451  3.0670  0.5752 -3.3786
   63SAPC  C219 5069   3.794   3.652   6.284  0.9833 -1.2766  0.3996
   63SAPC  H19R 5070   3.750   3.555   6.255 -3.2913  0.8772 -1.2410
   63SAPC  H19S 5071   3.872   3.654   6.205 -0.4058 -0.6172 -1.0194
   63SAPC  C220 5072   3.680   3.751   6.265  0.2283 -0.1368  0.4356
   63SAPC  H20R 5073   3.592   3.741   6.332 -1.0670 -0.3375 -1.2340
   63SAPC  H20S 5074   3.650   3.741   6.158 -0.0559 -5.3483  0.7581
   63SAPC  H20T 5075   3.713   3.857   6.274 -1.2839  0.5942 -1.7112
   63SAPC   C33 5076   3.501   4.442   6.519  0.0123 -0.4352 -0.1807
   63SAPC   H3X 5077   3.522   4.548   6.495 -2.1201  0.1724  0.5152
   63SAPC   H3Y 5078   3.592   4.394   6.561 -0.1465 -0.9415 -0.4046
   63SAPC   C34 5079   3.388   4.442   6.621  0.2717 -0.0980 -0.7062
   63SAPC   H4X 5080   3.364   4.338   6.650  0.7451  0.3997  1.6351
   63SAPC   H4Y 5081   3.297   4.493   6.583  1.2493  1.0689 -1.5782
   63SAPC   C35 5082   3.432   4.532   6.740 -0.6103 -0.4314 -0.1780
   63SAPC   H5X 5083   3.338   4.570   6.786 -0.6248 -1.3440  0.5896
   63SAPC   H5Y 5084   3.501   4.611   6.703  0.6814 -1.6378 -0.4180
   63SAPC   C36 5085   3.491   4.449   6.847  0.4946  0.1453 -0.0561
   63SAPC   H6X 5086   3.585   4.413   6.800  0.3140  0.8522 -0.9728
   63SAPC   H6Y 5087   3.418   4.371   6.880 -1.2530  1.4537 -0.6994
   63SAPC   C37 5088   3.520   4.545   6.963 -0.6733 -0.4396 -0.4500
   63SAPC   H7X 5089   3.422   4.588   6.993 -0.4997  0.6495 -1.3702
   63SAPC   H7Y 5090   3.591   4.622   6.924  0.1198 -0.3612  1.0610
   63SAPC   C38 5091   3.579   4.469   7.088  0.0008  0.0988  0.6806
   63SAPC   H8X 5092   3.680   4.433   7.060 -1.2437 -3.0433 -0.1574
   63SAPC   H8Y 5093   3.515   4.379   7.102  2.4609 -1.8784 -0.1242
   63SAPC   C39 5094   3.578   4.554   7.217  0.3317  0.1517 -0.1020
   63SAPC   H9X 5095   3.477   4.600   7.217  1.0420  1.8766  1.7271
   63SAPC   H9Y 5096   3.656   4.632   7.207 -1.0904  1.6709  0.1937
   63SAPC  C310 5097   3.576   4.467   7.342  0.1290 -0.2868 -0.3572
   63SAPC  H10X 5098   3.655   4.389   7.332  1.3213  0.7512  0.6097
   63SAPC  H10Y 5099   3.484   4.405   7.349  0.2989 -0.3414  2.8089
   63SAPC  C311 5100   3.594   4.528   7.476 -0.6474 -0.4282  0.7204
   63SAPC  H11X 5101   3.674   4.605   7.478 -2.1338  1.1652  1.0980
   63SAPC  H11Y 5102   3.616   4.454   7.556 -3.4680 -0.5803  1.4584
   63SAPC  C312 5103   3.460   4.606   7.514 -0.0610  0.2378 -0.0919
   63SAPC  H12X 5104   3.370   4.549   7.483 -0.3138  1.5196 -1.9105
   63SAPC  H12Y 5105   3.447   4.695   7.448  1.3460 -1.1358 -2.3508
   63SAPC  C313 5106   3.466   4.634   7.661 -0.1003  0.3646 -0.7752
   63SAPC  H13X 5107   3.552   4.702   7.674 -0.1599  0.8890 -2.7220
   63SAPC  H13Y 5108   3.479   4.547   7.729 -2.5493  0.3291 -0.2546
   63SAPC  C314 5109   3.345   4.710   7.730 -0.8699 -0.2427  0.4203
   63SAPC  H14X 5110   3.332   4.802   7.668  0.1152  0.1223  0.7260
   63SAPC  H14Y 5111   3.366   4.737   7.836  0.5521 -1.0700  0.3753
   63SAPC  C315 5112   3.215   4.638   7.722 -0.0147  0.6075  0.1057
   63SAPC  H15X 5113   3.221   4.542   7.778 -1.0377 -0.2792 -1.2507
   63SAPC  H15Y 5114   3.188   4.615   7.617  0.2177 -0.4118  0.2568
   63SAPC  C316 5115   3.101   4.707   7.791 -0.1775 -0.3942 -0.3970
   63SAPC  H16X 5116   3.064   4.785   7.721  0.0012  0.3741  0.3499
   63SAPC  H16Y 5117   3.137   4.763   7.880  0.8063  0.8984 -1.5762
   63SAPC  C317 5118   2.999   4.601   7.822  0.2795 -0.1437 -0.5956
   63SAPC  H17X 5119   3.046   4.532   7.895 -2.1444  0.0770  1.3190
   63SAPC  H17Y 5120   2.969   4.534   7.739  1.2997  0.0242 -1.1101
   63SAPC  C318 5121   2.869   4.651   7.887 -0.1203  0.3729 -0.0108
   63SAPC  H18X 5122   2.809   4.712   7.815 -0.7432  0.1092  0.2810
   63SAPC  H18Y 5123   2.877   4.719   7.974  0.5651 -2.5357  2.3504
   63SAPC  H18Z 5124   2.819   4.560   7.926 -1.8489 -0.1481 -3.1163
   64SAPC     N 5125   3.948   6.164   5.396 -0.7864 -0.2378  0.6029
   64SAPC   C12 5126   3.854   6.090   5.493 -0.4888 -0.6519  0.0845
   64SAPC  H12A 5127   3.879   5.985   5.495 -0.0895 -0.5566  2.0541
   64SAPC  H12B 5128   3.752   6.092   5.456 -0.0610 -0.8295 -1.1499
   64SAPC   C13 5129   3.990   6.072   5.288  0.5721  0.3155 -0.1766
   64SAPC  H13A 5130   3.902   6.024   5.248  0.9204 -0.0446 -0.5124
   64SAPC  H13B 5131   4.038   6.137   5.216 -1.1607  1.5399 -0.2877
   64SAPC  H13C 5132   4.053   5.993   5.325  0.3235  0.3030  0.2207
   64SAPC   C14 5133   3.889   6.288   5.332  0.0849  0.3282 -0.1600
   64SAPC  H14A 5134   3.798   6.262   5.279 -1.9398  0.8459  2.7703
   64SAPC  H14B 5135   3.858   6.363   5.403  0.8154  0.1009  0.4086
   64SAPC  H14C 5136   3.955   6.326   5.256  0.7672  0.2449  0.3826
   64SAPC   C15 5137   4.074   6.207   5.460  0.2516 -0.3546  0.1853
   64SAPC  H15A 5138   4.132   6.280   5.405  0.1273  0.3558  0.9807
   64SAPC  H15B 5139   4.043   6.250   5.554 -2.8364  1.5690 -1.5635
   64SAPC  H15C 5140   4.141   6.126   5.486 -2.3780 -2.7242  0.1065
   64SAPC   C11 5141   3.854   6.141   5.643 -0.5046 -0.1701  0.5503
   64SAPC  H11A 5142   3.944   6.102   5.695 -0.1234 -1.2989 -0.8978
   64SAPC  H11B 5143   3.773   6.093   5.701 -0.9697  0.8362  0.7632
   64SAPC     P 5144   3.693   6.352   5.652  0.0030 -0.2738 -0.0173
   64SAPC   O13 5145   3.714   6.489   5.601 -0.3391  0.6958 -0.0843
   64SAPC   O14 5146   3.592   6.266   5.585 -0.3420  0.3614  0.6701
   64SAPC   O12 5147   3.837   6.281   5.659 -0.4638 -0.6200  0.0228
   64SAPC   O11 5148   3.660   6.363   5.802  0.9396 -0.1383  0.1021
   64SAPC    C1 5149   3.742   6.408   5.910 -0.4245 -0.2718 -0.1918
   64SAPC    HA 5150   3.843   6.434   5.874 -0.0349 -1.5310 -0.0343
   64SAPC    HB 5151   3.690   6.494   5.957  0.9994  0.9848 -0.8337
   64SAPC    C2 5152   3.768   6.296   6.010 -0.8422 -0.5397 -0.4768
   64SAPC    HS 5153   3.817   6.216   5.950 -1.9191 -0.5263 -1.4218
   64SAPC   O21 5154   3.644   6.249   6.067 -0.4361 -0.2600  0.1562
   64SAPC   C21 5155   3.638   6.126   6.118 -0.3303 -0.1251  0.1295
   64SAPC   O22 5156   3.721   6.037   6.107 -0.1417  0.3216  0.3643
   64SAPC   C22 5157   3.493   6.098   6.169  0.6253  0.0722 -0.7760
   64SAPC   H2R 5158   3.422   6.134   6.092 -0.0059 -0.2927 -0.3750
   64SAPC   H2S 5159   3.477   5.989   6.184  0.2146  0.5403  3.2516
   64SAPC    C3 5160   3.878   6.339   6.124 -0.0262 -0.2013  0.0908
   64SAPC    HX 5161   3.973   6.357   6.071 -0.7437  0.9209 -0.8661
   64SAPC    HY 5162   3.902   6.260   6.198 -0.6505 -0.5479 -0.0666
   64SAPC   O31 5163   3.833   6.467   6.177  0.2252 -0.2766 -0.9718
   64SAPC   C31 5164   3.800   6.452   6.312 -0.1925 -0.1026 -0.4161
   64SAPC   O32 5165   3.829   6.363   6.385 -0.1878  0.4757 -0.0006
   64SAPC   C32 5166   3.710   6.565   6.355 -0.5945 -0.6023  0.3479
   64SAPC   H2X 5167   3.606   6.528   6.364 -1.3908  1.5943  0.7347
   64SAPC   H2Y 5168   3.710   6.653   6.287 -3.2260 -1.5267 -0.9930
   64SAPC   C23 5169   3.449   6.184   6.290  0.0736  0.2059 -0.0059
   64SAPC   H3R 5170   3.345   6.157   6.317 -0.4208  1.2003 -0.8319
   64SAPC   H3S 5171   3.452   6.294   6.272 -1.6657  0.0517 -1.6049
   64SAPC   C24 5172   3.538   6.162   6.417  0.6408 -0.1481  0.1425
   64SAPC   H4R 5173   3.496   6.224   6.499  0.5054 -1.2508  0.9230
   64SAPC   H4S 5174   3.641   6.198   6.396  1.5474 -0.9533  2.7759
   64SAPC   C25 5175   3.545   6.021   6.471  0.9242  0.6598 -0.0507
   64SAPC   H5R 5176   3.553   5.942   6.396  3.9694  0.7300  0.0924
   64SAPC   C26 5177   3.559   5.988   6.601  0.8485 -0.0019  0.4180
   64SAPC   H6R 5178   3.559   5.881   6.625 -1.5443 -0.2026 -0.2656
   64SAPC   C27 5179   3.585   6.077   6.721  0.0376  0.0114 -0.4209
   64SAPC   H7R 5180   3.523   6.057   6.811 -0.0282 -1.2102 -0.7203
   64SAPC   H7S 5181   3.538   6.171   6.686 -1.7942 -0.3182  1.0263
   64SAPC   C28 5182   3.734   6.104   6.748  0.1792  0.8254 -0.3623
   64SAPC   H8R 5183   3.776   6.181   6.681  0.8821  2.1102  1.4744
   64SAPC   C29 5184   3.799   6.066   6.857 -0.0298 -0.5805  0.2278
   64SAPC   H9R 5185   3.905   6.088   6.874 -0.0287 -1.4391  1.4742
   64SAPC  C210 5186   3.741   5.973   6.958 -0.6464  0.4939  0.1674
   64SAPC  H10R 5187   3.638   5.998   6.991 -0.0891  2.7621  0.3468
   64SAPC  H10S 5188   3.809   5.979   7.045  1.5675  2.0314 -1.5450
   64SAPC  C211 5189   3.730   5.830   6.931  0.3898  0.9419 -0.2633
   64SAPC  H11R 5190   3.731   5.798   6.826 -0.2673 -0.3974  0.1090
   64SAPC  C212 5191   3.719   5.735   7.027  0.4801  0.2252  0.0502
   64SAPC  H12R 5192   3.704   5.629   7.000  1.5191  0.2117 -0.5376
   64SAPC  C213 5193   3.711   5.754   7.172 -0.3472  0.5333 -0.5311
   64SAPC  H13R 5194   3.776   5.835   7.212  0.3745 -0.3018  0.0195
   64SAPC  H13S 5195   3.756   5.658   7.206  1.8243  1.9782  0.9941
   64SAPC  C214 5196   3.570   5.765   7.225  0.1675  0.2232  0.2269
   64SAPC  H14R 5197   3.525   5.863   7.202 -0.1343  0.1746  0.6117
   64SAPC  C215 5198   3.494   5.670   7.291 -0.1672 -0.1135  0.0436
   64SAPC  H15R 5199   3.387   5.691   7.308  0.1314  1.8375 -0.2687
   64SAPC  C216 5200   3.545   5.540   7.351  0.9458  0.5253  0.0245
   64SAPC  H16R 5201   3.656   5.546   7.353  0.9922 -0.2887  0.3020
   64SAPC  H16S 5202   3.521   5.448   7.293 -0.0554  2.8552 -3.5641
   64SAPC  C217 5203   3.497   5.506   7.491  0.0348 -0.3340  0.0159
   64SAPC  H17R 5204   3.508   5.395   7.500 -3.0021 -0.9627 -2.2938
   64SAPC  H17S 5205   3.389   5.527   7.505 -0.2632 -1.8241  0.1289
   64SAPC  C218 5206   3.566   5.580   7.606 -0.1725 -0.2545  0.2155
   64SAPC  H18R 5207   3.669   5.542   7.620 -0.1279 -0.9888 -1.7879
   64SAPC  H18S 5208   3.520   5.563   7.706 -1.5819  0.1404 -0.3356
   64SAPC  C219 5209   3.576   5.730   7.599 -0.2381 -0.6425  0.4868
   64SAPC  H19R 5210   3.478   5.765   7.560 -0.9719 -1.3665  1.6164
   64SAPC  H19S 5211   3.646   5.764   7.519 -2.6275  2.0843 -0.6240
   64SAPC  C220 5212   3.600   5.799   7.731  0.2233 -0.0241  0.5109
   64SAPC  H20R 5213   3.702   5.780   7.771 -0.3022 -0.9517  1.4677
   64SAPC  H20S 5214   3.518   5.777   7.803 -1.0646  1.9923 -0.2655
   64SAPC  H20T 5215   3.593   5.906   7.702  1.6278  0.3234  1.3675
   64SAPC   C33 5216   3.750   6.627   6.490  0.0652 -0.1614  0.0714
   64SAPC   H3X 5217   3.703   6.727   6.503 -1.0503 -0.9316  2.5449
   64SAPC   H3Y 5218   3.859   6.650   6.482  0.2010 -1.3987 -2.1644
   64SAPC   C34 5219   3.716   6.543   6.608 -1.2162 -0.8340 -0.1766
   64SAPC   H4X 5220   3.806   6.480   6.629 -1.6407 -1.6396 -0.7490
   64SAPC   H4Y 5221   3.630   6.478   6.585 -0.9023 -1.0976 -0.6189
   64SAPC   C35 5222   3.676   6.612   6.747 -0.1410  0.4108  0.0466
   64SAPC   H5X 5223   3.581   6.667   6.729 -0.9031 -0.8109  0.2385
   64SAPC   H5Y 5224   3.762   6.678   6.770 -0.5671  1.7575 -1.9077
   64SAPC   C36 5225   3.659   6.499   6.847 -0.0483  0.2582 -0.1405
   64SAPC   H6X 5226   3.737   6.421   6.831 -1.0060 -0.9594  0.9646
   64SAPC   H6Y 5227   3.558   6.457   6.828 -1.5755  3.1664  0.9281
   64SAPC   C37 5228   3.664   6.539   6.999 -0.6194 -0.0226 -1.0424
   64SAPC   H7X 5229   3.565   6.570   7.040 -0.0199 -2.3971  2.7184
   64SAPC   H7Y 5230   3.727   6.629   7.014  1.9808 -2.0507  1.2457
   64SAPC   C38 5231   3.703   6.410   7.080  0.1568 -0.1125 -0.0407
   64SAPC   H8X 5232   3.705   6.437   7.188  1.9078 -2.1551  0.4996
   64SAPC   H8Y 5233   3.799   6.360   7.055 -1.1251 -1.7724 -1.9651
   64SAPC   C39 5234   3.599   6.288   7.060 -0.1612  0.5980  0.4537
   64SAPC   H9X 5235   3.650   6.213   7.124  0.1932  1.0873  0.7543
   64SAPC   H9Y 5236   3.598   6.249   6.956  0.4638  2.4005 -0.2819
   64SAPC  C310 5237   3.456   6.327   7.099  0.0539 -0.2083 -0.4173
   64SAPC  H10X 5238   3.425   6.398   7.019  0.8946 -1.1472 -1.6145
   64SAPC  H10Y 5239   3.455   6.371   7.201 -0.6715  0.4894 -0.7081
   64SAPC  C311 5240   3.355   6.214   7.098  0.0745 -0.7562 -0.3546
   64SAPC  H11X 5241   3.370   6.134   7.022 -0.1518 -1.2770  0.1462
   64SAPC  H11Y 5242   3.254   6.255   7.074  0.5388 -0.5027 -2.0019
   64SAPC  C312 5243   3.349   6.140   7.229  0.2317 -0.6785  1.1413
   64SAPC  H12X 5244   3.326   6.231   7.288 -1.6665 -0.9916  0.9487
   64SAPC  H12Y 5245   3.446   6.087   7.245  1.1310  0.9924  1.4411
   64SAPC  C313 5246   3.227   6.045   7.233 -0.2145 -0.4059  0.2648
   64SAPC  H13X 5247   3.258   5.965   7.162  0.3969 -0.1585  0.2418
   64SAPC  H13Y 5248   3.125   6.082   7.210  0.5085  0.0072 -2.8303
   64SAPC  C314 5249   3.211   5.963   7.366 -0.5313  0.0337 -0.4033
   64SAPC  H14X 5250   3.173   6.029   7.447 -1.8841 -1.5304  0.2974
   64SAPC  H14Y 5251   3.314   5.934   7.397  0.2774  1.0514 -2.0107
   64SAPC  C315 5252   3.129   5.830   7.365  0.6096 -0.7480  0.0052
   64SAPC  H15X 5253   3.190   5.766   7.298  2.4358 -0.5256  1.3984
   64SAPC  H15Y 5254   3.030   5.858   7.322 -0.0541 -0.6884  1.4956
   64SAPC  C316 5255   3.112   5.769   7.505 -0.0399  0.9448  0.1568
   64SAPC  H16X 5256   3.079   5.845   7.578 -2.6251  1.4564 -1.4252
   64SAPC  H16Y 5257   3.219   5.748   7.526  0.9279  0.0159 -4.4865
   64SAPC  C317 5258   3.025   5.637   7.523  0.0065 -0.3236  0.4673
   64SAPC  H17X 5259   3.030   5.606   7.629 -2.8395 -2.6492  0.0500
   64SAPC  H17Y 5260   3.068   5.555   7.462 -0.8418 -0.6676  0.3140
   64SAPC  C318 5261   2.877   5.655   7.501 -0.2855  0.0705 -0.1244
   64SAPC  H18X 5262   2.854   5.695   7.400  1.3605 -0.0808 -0.5779
   64SAPC  H18Y 5263   2.835   5.734   7.567 -0.4480 -0.9822  1.0842
   64SAPC  H18Z 5264   2.814   5.566   7.521  0.1758 -0.4747 -1.0330
   65SAPC     N 5265   4.771   6.542   5.949 -0.0018  0.1951 -0.1402
   65SAPC   C12 5266   4.849   6.421   6.009 -0.5748 -0.1390 -0.1785
   65SAPC  H12A 5267   4.818   6.399   6.110  2.8737 -1.1351  0.7827
   65SAPC  H12B 5268   4.951   6.454   6.018 -0.3126 -0.7053 -1.0013
   65SAPC   C13 5269   4.620   6.525   5.958 -0.1680  0.3092  0.7042
   65SAPC  H13A 5270   4.569   6.616   5.933  1.7161  1.8434  2.0833
   65SAPC  H13B 5271   4.596   6.452   5.882  3.4716  0.0447 -0.4256
   65SAPC  H13C 5272   4.589   6.493   6.056 -0.4044  0.5442  0.7061
   65SAPC   C14 5273   4.804   6.666   6.035  0.6753  0.4973  0.7235
   65SAPC  H14A 5274   4.747   6.755   6.011 -0.2721  0.7742  3.6587
   65SAPC  H14B 5275   4.773   6.655   6.138 -1.1742 -0.4756  0.1193
   65SAPC  H14C 5276   4.910   6.684   6.029  0.2819  3.3489  1.0654
   65SAPC   C15 5277   4.810   6.567   5.806 -0.4758 -0.4090  0.0726
   65SAPC  H15A 5278   4.764   6.655   5.765 -0.3957 -0.2554  0.3111
   65SAPC  H15B 5279   4.917   6.578   5.791 -0.5986  0.3956 -0.2297
   65SAPC  H15C 5280   4.777   6.485   5.744  0.7221 -0.3738 -0.6478
   65SAPC   C11 5281   4.861   6.292   5.928  0.1505  1.2233  0.4674
   65SAPC  H11A 5282   4.925   6.216   5.978  1.8205  1.4182 -1.2421
   65SAPC  H11B 5283   4.907   6.315   5.829 -0.2733 -0.3323 -0.1124
   65SAPC     P 5284   4.659   6.166   6.025  0.0738  0.3424  0.3322
   65SAPC   O13 5285   4.523   6.147   5.974  0.4183  0.4526  0.4130
   65SAPC   O14 5286   4.729   6.050   6.075 -0.1671 -0.9049  0.7548
   65SAPC   O12 5287   4.733   6.228   5.906 -0.0141 -0.2185 -0.2239
   65SAPC   O11 5288   4.653   6.276   6.136 -0.1626 -0.2102 -0.3840
   65SAPC    C1 5289   4.625   6.245   6.271 -0.4193 -0.6188  0.0448
   65SAPC    HA 5290   4.521   6.209   6.282 -0.1303 -1.4273  0.1605
   65SAPC    HB 5291   4.689   6.160   6.303 -1.8350 -1.0751  1.8732
   65SAPC    C2 5292   4.657   6.369   6.361 -1.1704 -0.1474  0.5526
   65SAPC    HS 5293   4.578   6.444   6.344  0.5623  1.5864 -0.1718
   65SAPC   O21 5294   4.792   6.409   6.332 -0.3251 -0.2937  0.1082
   65SAPC   C21 5295   4.818   6.543   6.352 -0.2880  0.2626 -0.1513
   65SAPC   O22 5296   4.728   6.623   6.365 -0.3402  0.3164 -0.3492
   65SAPC   C22 5297   4.965   6.583   6.353  0.1777  0.3103  0.7018
   65SAPC   H2R 5298   5.021   6.521   6.280 -2.2586  0.5044 -1.4911
   65SAPC   H2S 5299   4.966   6.686   6.313  1.4073 -0.3451 -1.0672
   65SAPC    C3 5300   4.637   6.330   6.511 -0.5743  0.0611  0.1728
   65SAPC    HX 5301   4.528   6.320   6.528 -0.4693 -0.1266  0.7608
   65SAPC    HY 5302   4.688   6.412   6.567  1.1132  0.9216 -2.4343
   65SAPC   O31 5303   4.701   6.210   6.540  0.2410 -0.4796 -0.1212
   65SAPC   C31 5304   4.667   6.162   6.660 -0.2223  0.2047 -0.6415
   65SAPC   O32 5305   4.597   6.219   6.742  0.5101 -0.3520  0.1137
   65SAPC   C32 5306   4.758   6.039   6.700  0.1995 -1.2176  1.1452
   65SAPC   H2X 5307   4.843   6.078   6.759  1.0366  0.2870 -0.9222
   65SAPC   H2Y 5308   4.798   6.000   6.604  0.1285 -0.7169  0.9089
   65SAPC   C23 5309   5.041   6.562   6.486  0.3376 -0.3324 -0.1370
   65SAPC   H3R 5310   5.148   6.572   6.459  0.8621 -2.3598  1.0002
   65SAPC   H3S 5311   5.033   6.458   6.523  1.3157 -0.7491 -1.0584
   65SAPC   C24 5312   5.013   6.675   6.583  0.1449 -0.2454 -0.2025
   65SAPC   H4R 5313   5.021   6.773   6.531  2.1933  0.9119  2.0572
   65SAPC   H4S 5314   5.096   6.672   6.658 -0.8421 -1.4287  0.8816
   65SAPC   C25 5315   4.886   6.653   6.656  0.6425 -0.1681  0.1195
   65SAPC   H5R 5316   4.794   6.699   6.617  1.7093 -0.0861 -2.5127
   65SAPC   C26 5317   4.861   6.575   6.766 -0.4058  0.2354 -0.3709
   65SAPC   H6R 5318   4.757   6.550   6.795 -0.3218  1.5670  1.2057
   65SAPC   C27 5319   4.965   6.494   6.839 -0.1713  0.4189 -0.5658
   65SAPC   H7R 5320   5.002   6.560   6.920  0.8231 -1.5438  0.6455
   65SAPC   H7S 5321   5.056   6.483   6.777 -1.2419 -0.3778 -2.0581
   65SAPC   C28 5322   4.924   6.360   6.893 -0.0632 -0.7827 -0.6731
   65SAPC   H8R 5323   4.974   6.270   6.856  1.4577  0.2316 -1.1464
   65SAPC   C29 5324   4.834   6.342   6.995  0.3082  0.3690  0.5391
   65SAPC   H9R 5325   4.810   6.238   7.021  0.7331 -0.3978 -1.8246
   65SAPC  C210 5326   4.741   6.447   7.049 -0.2527 -0.0042  0.2506
   65SAPC  H10R 5327   4.651   6.448   6.985 -1.2343 -0.3578  1.5838
   65SAPC  H10S 5328   4.788   6.548   7.043 -0.4060 -0.0014 -1.3553
   65SAPC  C211 5329   4.689   6.409   7.190  0.3343  0.8315  0.0819
   65SAPC  H11R 5330   4.757   6.421   7.276 -1.5078 -0.5441  1.8105
   65SAPC  C212 5331   4.563   6.371   7.222  0.6334 -0.2031 -0.6013
   65SAPC  H12R 5332   4.549   6.337   7.326  1.1657 -1.1018 -0.8120
   65SAPC  C213 5333   4.429   6.349   7.149 -0.8976 -0.0089  0.5336
   65SAPC  H13R 5334   4.395   6.443   7.102  2.1185  0.5566 -0.7310
   65SAPC  H13S 5335   4.351   6.312   7.220 -1.2787 -1.5483 -0.6362
   65SAPC  C214 5336   4.433   6.253   7.034 -0.2988  0.4495  0.9680
   65SAPC  H14R 5337   4.497   6.281   6.949 -1.6288  0.3695 -0.0945
   65SAPC  C215 5338   4.355   6.142   7.024  0.0257  0.6352 -0.1669
   65SAPC  H15R 5339   4.372   6.072   6.941  0.2947 -0.1367  0.5282
   65SAPC  C216 5340   4.254   6.093   7.123  0.0132  0.5411 -0.0582
   65SAPC  H16R 5341   4.284   6.109   7.228 -0.5246  1.5845 -0.0549
   65SAPC  H16S 5342   4.243   5.983   7.113 -0.1051  0.6337 -1.0724
   65SAPC  C217 5343   4.120   6.160   7.123 -0.8243 -0.1445 -0.3727
   65SAPC  H17R 5344   4.066   6.149   7.027  0.2677 -1.0647 -0.9014
   65SAPC  H17S 5345   4.128   6.270   7.139  2.0346 -0.2838 -0.3782
   65SAPC  C218 5346   4.032   6.112   7.238 -0.0433 -0.5421  0.3900
   65SAPC  H18R 5347   4.082   6.135   7.334  1.4097 -0.9056 -0.2594
   65SAPC  H18S 5348   4.015   6.003   7.227  0.6457 -0.6091 -0.0245
   65SAPC  C219 5349   3.892   6.169   7.241 -0.1560 -0.5910  0.3245
   65SAPC  H19R 5350   3.854   6.165   7.137  0.0884  2.0101  0.0690
   65SAPC  H19S 5351   3.904   6.277   7.263  1.7190 -1.1500  2.3942
   65SAPC  C220 5352   3.796   6.106   7.342 -0.5187  0.2381  0.0021
   65SAPC  H20R 5353   3.827   6.137   7.445 -0.3419  2.8573 -0.7616
   65SAPC  H20S 5354   3.793   5.995   7.344  1.5467  0.1280 -0.7412
   65SAPC  H20T 5355   3.693   6.141   7.317 -0.8574  0.8065  2.0034
   65SAPC   C33 5356   4.674   5.939   6.786 -0.5074  0.2715 -0.3129
   65SAPC   H3X 5357   4.713   5.836   6.787 -0.8811  0.1270 -0.0625
   65SAPC   H3Y 5358   4.573   5.918   6.745 -0.6513 -0.4411  0.3716
   65SAPC   C34 5359   4.676   5.978   6.937  0.1779  0.0492  0.1953
   65SAPC   H4X 5360   4.630   6.077   6.956  0.4343  0.0933  0.5892
   65SAPC   H4Y 5361   4.782   5.999   6.960  0.1348  1.1874 -0.5536
   65SAPC   C35 5362   4.611   5.870   7.027 -0.8492 -0.0484  0.2483
   65SAPC   H5X 5363   4.657   5.775   6.993  0.3354 -0.3103  2.3934
   65SAPC   H5Y 5364   4.502   5.885   7.013 -0.3554  1.1481 -3.4209
   65SAPC   C36 5365   4.635   5.893   7.183  0.3559 -0.4221  0.2911
   65SAPC   H6X 5366   4.585   5.989   7.208 -2.0041 -1.7910  1.1775
   65SAPC   H6Y 5367   4.742   5.916   7.200 -0.3645  1.0665  3.6296
   65SAPC   C37 5368   4.571   5.785   7.273 -0.0192  0.3031  0.8477
   65SAPC   H7X 5369   4.658   5.721   7.300 -1.7361 -2.9229 -0.5882
   65SAPC   H7Y 5370   4.510   5.718   7.209  1.1736  0.0838 -0.0882
   65SAPC   C38 5371   4.493   5.824   7.395  0.4545 -0.4579 -0.4564
   65SAPC   H8X 5372   4.411   5.895   7.368 -0.6140 -0.9167  1.3885
   65SAPC   H8Y 5373   4.555   5.864   7.478  1.3805  0.7255 -1.6636
   65SAPC   C39 5374   4.406   5.707   7.444 -0.0948 -0.4011 -0.4414
   65SAPC   H9X 5375   4.466   5.613   7.440  0.6516  0.0770 -0.5496
   65SAPC   H9Y 5376   4.317   5.689   7.379 -0.8169 -2.5627  1.0140
   65SAPC  C310 5377   4.355   5.733   7.587 -0.6547  0.7579  0.0243
   65SAPC  H10X 5378   4.264   5.672   7.606 -1.2026  1.4999 -0.2050
   65SAPC  H10Y 5379   4.320   5.837   7.598 -1.4839  0.3357  1.6017
   65SAPC  C311 5380   4.464   5.717   7.700  0.1243  0.0815 -0.1859
   65SAPC  H11X 5381   4.556   5.775   7.677  0.7852 -1.0988 -0.5953
   65SAPC  H11Y 5382   4.495   5.610   7.704  0.1774  0.0511 -1.1447
   65SAPC  C312 5383   4.410   5.772   7.833 -0.2471 -0.5940 -1.0166
   65SAPC  H12X 5384   4.338   5.706   7.886  1.7605 -1.5494  0.6708
   65SAPC  H12Y 5385   4.356   5.864   7.803  0.7278  0.4405  0.3414
   65SAPC  C313 5386   4.512   5.830   7.933  0.1181  0.5816  1.2352
   65SAPC  H13X 5387   4.567   5.912   7.881  1.1156 -0.1748  1.0614
   65SAPC  H13Y 5388   4.587   5.753   7.962  2.2228  2.4854  1.1560
   65SAPC  C314 5389   4.465   5.875   8.071  0.3545  0.5700 -0.4235
   65SAPC  H14X 5390   4.419   5.782   8.109  3.1341 -2.1195 -3.0923
   65SAPC  H14Y 5391   4.406   5.970   8.068 -3.1531 -1.3797  0.7447
   65SAPC  C315 5392   4.594   5.896   8.156 -0.0469  0.4742 -0.9221
   65SAPC  H15X 5393   4.669   5.946   8.091  2.3536 -1.4498  0.1930
   65SAPC  H15Y 5394   4.630   5.792   8.176  2.1841  0.8151 -2.6728
   65SAPC  C316 5395   4.563   5.993   8.268 -0.6597  0.2899 -0.3518
   65SAPC  H16X 5396   4.510   6.083   8.229  0.6676  1.2635  0.0237
   65SAPC  H16Y 5397   4.667   6.014   8.300 -0.7624  1.1138 -0.5381
   65SAPC  C317 5398   4.495   5.939   8.391  0.1831  0.1257 -0.0732
   65SAPC  H17X 5399   4.556   5.850   8.418  0.0903 -0.7434 -2.5106
   65SAPC  H17Y 5400   4.394   5.906   8.359  0.9731 -1.1759 -1.3554
   65SAPC  C318 5401   4.489   6.036   8.509 -0.5264  0.1162  0.1123
   65SAPC  H18X 5402   4.450   5.992   8.603  1.5942 -2.1261  0.0654
   65SAPC  H18Y 5403   4.431   6.129   8.491 -2.5598 -1.4299 -1.8356
   65SAPC  H18Z 5404   4.592   6.072   8.532 -0.5008 -0.9847  1.8856
   66SAPC     N 5405   2.713   5.511   5.419 -0.4150  0.5693 -0.2301
   66SAPC   C12 5406   2.616   5.624   5.379  0.3126 -0.1425  0.4030
   66SAPC  H12A 5407   2.566   5.592   5.289  0.1232  0.6319  0.2254
   66SAPC  H12B 5408   2.683   5.706   5.361 -0.1591  0.0177 -0.7185
   66SAPC   C13 5409   2.807   5.556   5.530 -0.3481 -0.5371  0.2253
   66SAPC  H13A 5410   2.740   5.582   5.610 -0.7625 -1.5865  0.2349
   66SAPC  H13B 5411   2.876   5.484   5.571  0.4945  0.6813  0.9811
   66SAPC  H13C 5412   2.862   5.641   5.492 -2.0964  0.5849  0.0904
   66SAPC   C14 5413   2.648   5.382   5.461 -0.6600  0.3611 -0.9902
   66SAPC  H14A 5414   2.562   5.367   5.398 -1.1429 -0.0056 -0.2608
   66SAPC  H14B 5415   2.720   5.301   5.459 -0.1399  0.7531  0.3290
   66SAPC  H14C 5416   2.610   5.381   5.562 -0.4960  0.1611 -0.9287
   66SAPC   C15 5417   2.799   5.476   5.296  0.2373  0.3037 -0.3156
   66SAPC  H15A 5418   2.737   5.442   5.214  2.1774 -3.3526 -0.4582
   66SAPC  H15B 5419   2.858   5.565   5.280  1.0236  0.2249  1.8329
   66SAPC  H15C 5420   2.863   5.394   5.323 -0.1615 -0.3108 -1.1964
   66SAPC   C11 5421   2.518   5.676   5.492 -0.0704 -0.9405  0.7147
   66SAPC  H11A 5422   2.439   5.604   5.520 -0.3028 -0.5192  1.1519
   66SAPC  H11B 5423   2.459   5.754   5.439 -0.7606 -1.4313  0.7515
   66SAPC     P 5424   2.636   5.885   5.598  0.5025  0.3272 -0.4117
   66SAPC   O13 5425   2.726   5.910   5.711  0.1761  0.1536 -0.1081
   66SAPC   O14 5426   2.678   5.923   5.461  0.1558  0.5825 -0.5474
   66SAPC   O12 5427   2.584   5.737   5.604  0.0572  0.0906  0.3631
   66SAPC   O11 5428   2.504   5.969   5.630  0.3828  0.4009 -0.0853
   66SAPC    C1 5429   2.388   5.922   5.698  0.1672 -0.2683  0.0579
   66SAPC    HA 5430   2.304   5.904   5.627  0.2966  2.6134 -0.9605
   66SAPC    HB 5431   2.397   5.827   5.754  1.5208 -0.2079 -0.0345
   66SAPC    C2 5432   2.330   6.020   5.807  0.2926 -0.5268 -0.3067
   66SAPC    HS 5433   2.296   6.111   5.753 -0.4671 -0.1029  0.8412
   66SAPC   O21 5434   2.440   6.037   5.896 -0.4548 -0.1719  0.1927
   66SAPC   C21 5435   2.443   6.155   5.957 -0.3625  0.5912 -0.5260
   66SAPC   O22 5436   2.373   6.247   5.925  0.1958 -0.3078 -0.0045
   66SAPC   C22 5437   2.555   6.155   6.064  0.4706  0.1021  0.0549
   66SAPC   H2R 5438   2.592   6.051   6.079  1.3911  0.5751  1.2101
   66SAPC   H2S 5439   2.639   6.214   6.023  0.5703  0.8396  1.2801
   66SAPC    C3 5440   2.206   5.966   5.886 -0.0745  0.2313 -0.6134
   66SAPC    HX 5441   2.231   5.864   5.920  0.4521 -0.4464 -2.8886
   66SAPC    HY 5442   2.125   5.959   5.810 -1.2232 -0.6467  0.6677
   66SAPC   O31 5443   2.174   6.046   6.007  0.4740 -0.3428 -0.3911
   66SAPC   C31 5444   2.073   6.129   5.999 -0.4505 -0.7942 -0.6903
   66SAPC   O32 5445   1.987   6.123   5.912 -0.2540 -0.1463 -0.0047
   66SAPC   C32 5446   2.085   6.242   6.098  0.1316 -0.6005  0.4903
   66SAPC   H2X 5447   2.105   6.322   6.024 -1.5292 -0.6475 -0.0455
   66SAPC   H2Y 5448   2.171   6.216   6.163  0.9047 -1.4697 -0.8274
   66SAPC   C23 5449   2.502   6.204   6.200 -0.7948 -0.2216 -0.4027
   66SAPC   H3R 5450   2.558   6.149   6.279  1.6519  2.0740 -0.3705
   66SAPC   H3S 5451   2.395   6.178   6.214 -0.8906  1.1272  1.8139
   66SAPC   C24 5452   2.520   6.354   6.219  1.0353  0.3476  0.3329
   66SAPC   H4R 5453   2.477   6.370   6.320 -2.1820 -0.7664 -0.7427
   66SAPC   H4S 5454   2.446   6.409   6.156 -0.7795 -1.7749  0.5049
   66SAPC   C25 5455   2.654   6.422   6.211  0.0149  0.6684  0.6197
   66SAPC   H5R 5456   2.701   6.435   6.113 -3.0590 -0.5699 -1.1738
   66SAPC   C26 5457   2.727   6.447   6.317 -0.0839  0.6590 -0.6847
   66SAPC   H6R 5458   2.831   6.481   6.306 -0.3895  2.0147  0.2319
   66SAPC   C27 5459   2.685   6.447   6.460  0.1392  0.6637 -0.5680
   66SAPC   H7R 5460   2.617   6.362   6.480 -0.1938  1.1522  0.4445
   66SAPC   H7S 5461   2.642   6.546   6.487  1.2240  0.2036  3.4409
   66SAPC   C28 5462   2.802   6.449   6.557 -0.4174  0.5580 -0.7126
   66SAPC   H8R 5463   2.884   6.514   6.522  1.1544 -1.4286 -0.9266
   66SAPC   C29 5464   2.793   6.419   6.688 -0.3229  0.4252 -0.3204
   66SAPC   H9R 5465   2.886   6.423   6.746 -0.3588 -4.2590  0.4803
   66SAPC  C210 5466   2.672   6.359   6.755 -0.1654  0.5810  0.0912
   66SAPC  H10R 5467   2.586   6.409   6.704  0.0112 -0.3886 -1.1887
   66SAPC  H10S 5468   2.678   6.398   6.859  0.3128 -0.3033  0.4022
   66SAPC  C211 5469   2.665   6.203   6.747 -0.0591 -0.0011  0.0920
   66SAPC  H11R 5470   2.758   6.144   6.751  0.0171  0.1566  0.9285
   66SAPC  C212 5471   2.547   6.134   6.751  0.2365  0.6067  0.7153
   66SAPC  H12R 5472   2.549   6.024   6.757  0.8557  0.6596  1.9881
   66SAPC  C213 5473   2.414   6.194   6.779  0.3614  0.2185  0.4325
   66SAPC  H13R 5474   2.382   6.238   6.681  0.6067  0.6411  0.5392
   66SAPC  H13S 5475   2.420   6.285   6.842 -0.0612  1.4043 -1.1708
   66SAPC  C214 5476   2.315   6.117   6.858  0.6161  0.1614 -0.2433
   66SAPC  H14R 5477   2.282   6.192   6.932 -0.4396  2.2754 -2.7172
   66SAPC  C215 5478   2.279   5.987   6.875  0.7725  0.2531  0.1584
   66SAPC  H15R 5479   2.186   5.954   6.924 -0.5378 -0.6216 -2.6783
   66SAPC  C216 5480   2.313   5.869   6.780 -0.4091 -0.2728 -0.2046
   66SAPC  H16R 5481   2.222   5.806   6.789 -1.7794  1.8221  2.0639
   66SAPC  H16S 5482   2.396   5.808   6.821  0.5958  1.0420 -0.1887
   66SAPC  C217 5483   2.316   5.886   6.627  0.3434  0.1473  0.1765
   66SAPC  H17R 5484   2.385   5.969   6.599  0.1279  0.1412 -0.3948
   66SAPC  H17S 5485   2.214   5.925   6.607  0.4368  1.4035  1.9453
   66SAPC  C218 5486   2.362   5.757   6.552  0.9009 -0.6842 -0.1535
   66SAPC  H18R 5487   2.326   5.674   6.616  1.8654 -0.4177  0.7686
   66SAPC  H18S 5488   2.473   5.757   6.546  1.0704  2.2805  1.1976
   66SAPC  C219 5489   2.317   5.744   6.406 -0.5581  0.2830 -0.3777
   66SAPC  H19R 5490   2.210   5.774   6.399 -0.5267  0.3789 -0.4530
   66SAPC  H19S 5491   2.327   5.640   6.369 -2.8052 -0.0468 -0.1913
   66SAPC  C220 5492   2.397   5.835   6.306  0.5582 -0.3848  0.5744
   66SAPC  H20R 5493   2.498   5.794   6.285  2.4471  3.3025  1.6566
   66SAPC  H20S 5494   2.433   5.933   6.344  2.5510 -1.4395  1.5649
   66SAPC  H20T 5495   2.346   5.843   6.208  2.4143  0.3966 -0.3665
   66SAPC   C33 5496   1.946   6.264   6.169 -1.0541 -0.4957 -0.4437
   66SAPC   H3X 5497   1.881   6.307   6.090 -1.0394  1.5552  0.5756
   66SAPC   H3Y 5498   1.959   6.350   6.238  0.7489 -0.6158 -0.6026
   66SAPC   C34 5499   1.879   6.148   6.241  0.1031  0.0698  0.3996
   66SAPC   H4X 5500   1.877   6.060   6.174  0.0408 -2.2527  3.2467
   66SAPC   H4Y 5501   1.777   6.176   6.275  0.5858  0.4991  1.5617
   66SAPC   C35 5502   1.947   6.105   6.377 -0.3037  0.6926 -0.4180
   66SAPC   H5X 5503   2.051   6.068   6.364 -0.7367 -1.5626  1.9670
   66SAPC   H5Y 5504   1.900   6.011   6.411  2.9439 -1.0044 -0.2675
   66SAPC   C36 5505   1.955   6.203   6.488 -0.5094 -0.4229 -0.8246
   66SAPC   H6X 5506   1.873   6.279   6.483 -1.7650 -1.6029  0.7731
   66SAPC   H6Y 5507   2.049   6.262   6.488 -0.1600 -0.9498 -1.5618
   66SAPC   C37 5508   1.943   6.131   6.622 -0.1635 -0.4132  0.0768
   66SAPC   H7X 5509   1.988   6.189   6.706 -0.0684 -2.2835  1.3600
   66SAPC   H7Y 5510   2.014   6.046   6.627  0.5905  0.2293  0.6470
   66SAPC   C38 5511   1.805   6.090   6.664  0.2156 -0.4026 -0.2840
   66SAPC   H8X 5512   1.772   6.003   6.603  1.8379 -0.9055 -0.5013
   66SAPC   H8Y 5513   1.738   6.177   6.647  2.1293  1.2808  0.4142
   66SAPC   C39 5514   1.802   6.051   6.815  0.7618  0.4836  0.7098
   66SAPC   H9X 5515   1.898   6.005   6.846  0.7068 -0.4643 -0.4842
   66SAPC   H9Y 5516   1.733   5.965   6.825 -0.2424  1.3759  1.6550
   66SAPC  C310 5517   1.755   6.169   6.896 -0.0063 -0.0783 -0.7102
   66SAPC  H10X 5518   1.650   6.204   6.886 -0.8414 -0.8669  3.3494
   66SAPC  H10Y 5519   1.821   6.258   6.891  0.3818  0.1760  4.1569
   66SAPC  C311 5520   1.772   6.142   7.047 -0.2573 -0.1889  0.5664
   66SAPC  H11X 5521   1.713   6.051   7.073 -1.2783  0.1061 -0.6090
   66SAPC  H11Y 5522   1.710   6.216   7.101  0.7786 -0.2035  1.8163
   66SAPC  C312 5523   1.915   6.148   7.104 -0.1908  0.0075  0.1438
   66SAPC  H12X 5524   1.963   6.247   7.089  0.1714  0.0152  1.1982
   66SAPC  H12Y 5525   1.977   6.068   7.058 -3.2499 -2.5183  0.0263
   66SAPC  C313 5526   1.913   6.124   7.261  0.3094 -0.4113  1.2643
   66SAPC  H13X 5527   1.846   6.037   7.279 -1.4573  0.5357 -0.4057
   66SAPC  H13Y 5528   1.876   6.211   7.318  0.7408  0.1299  0.7336
   66SAPC  C314 5529   2.053   6.087   7.312 -0.1061  0.1030  0.1355
   66SAPC  H14X 5530   2.086   5.996   7.256  1.9839  1.0903 -0.3390
   66SAPC  H14Y 5531   2.027   6.051   7.414 -0.6355  1.5351  0.5275
   66SAPC  C315 5532   2.154   6.207   7.317  0.4780 -0.2379  0.2188
   66SAPC  H15X 5533   2.115   6.285   7.386  2.2000  0.1559  0.7884
   66SAPC  H15Y 5534   2.156   6.257   7.218  1.7358 -1.1239 -0.2265
   66SAPC  C316 5535   2.298   6.161   7.347  0.3608  0.5621 -0.2713
   66SAPC  H16X 5536   2.370   6.238   7.313  1.0273 -0.2971 -0.8252
   66SAPC  H16Y 5537   2.312   6.065   7.293 -3.5489 -1.1149  1.2809
   66SAPC  C317 5538   2.319   6.154   7.497 -0.4988 -0.4665  0.7119
   66SAPC  H17X 5539   2.235   6.092   7.536  0.5679 -1.8697  0.8915
   66SAPC  H17Y 5540   2.300   6.259   7.525 -0.3888  0.6042 -2.7081
   66SAPC  C318 5541   2.461   6.124   7.556 -0.4046 -0.4376 -0.6699
   66SAPC  H18X 5542   2.519   6.218   7.562  1.0661 -1.3749  0.6312
   66SAPC  H18Y 5543   2.507   6.041   7.499 -0.0017 -1.0665  0.5367
   66SAPC  H18Z 5544   2.444   6.094   7.662  1.1120 -0.3906 -0.3919
   67SAPC     N 5545   0.602   2.617   5.150  0.7852 -0.2411  0.6784
   67SAPC   C12 5546   0.554   2.533   5.035 -0.0963 -0.2193 -0.5817
   67SAPC  H12A 5547   0.623   2.543   4.953  0.8861 -1.0002  0.1256
   67SAPC  H12B 5548   0.462   2.573   4.994 -1.4475 -2.5827 -0.0427
   67SAPC   C13 5549   0.625   2.756   5.096 -0.0710 -0.1871  0.6974
   67SAPC  H13A 5550   0.550   2.787   5.024 -0.9140 -1.5579  0.9456
   67SAPC  H13B 5551   0.619   2.823   5.181  1.9942 -0.6183  1.2237
   67SAPC  H13C 5552   0.724   2.756   5.054 -0.0561 -0.5966  0.7316
   67SAPC   C14 5553   0.494   2.628   5.256  0.2686  0.3819  0.2398
   67SAPC  H14A 5554   0.427   2.707   5.227 -0.5356 -0.0190  0.9527
   67SAPC  H14B 5555   0.436   2.539   5.239  1.5316 -0.2847 -0.7880
   67SAPC  H14C 5556   0.523   2.648   5.359 -0.1472 -0.0111  0.4367
   67SAPC   C15 5557   0.729   2.567   5.211 -0.3198 -0.4213  0.2169
   67SAPC  H15A 5558   0.810   2.547   5.142 -1.0656 -1.5916 -0.3716
   67SAPC  H15B 5559   0.772   2.633   5.284  0.9566 -0.6300 -0.3212
   67SAPC  H15C 5560   0.710   2.474   5.263 -2.0650 -0.5672 -0.5898
   67SAPC   C11 5561   0.539   2.384   5.062 -0.0380 -0.2623 -0.7336
   67SAPC  H11A 5562   0.635   2.344   5.103  0.1532  1.1133  0.2630
   67SAPC  H11B 5563   0.521   2.329   4.967  2.1072 -0.3536 -1.1463
   67SAPC     P 5564   0.291   2.314   5.101  0.2382 -0.2988 -0.1302
   67SAPC   O13 5565   0.248   2.394   4.987 -0.2477  0.0659  0.2758
   67SAPC   O14 5566   0.287   2.166   5.093  0.0358  0.5305 -0.6758
   67SAPC   O12 5567   0.433   2.359   5.155 -0.2014 -0.2435  0.0095
   67SAPC   O11 5568   0.189   2.353   5.225  0.0513 -0.4336 -0.0893
   67SAPC    C1 5569   0.235   2.372   5.356  0.5993 -0.2673  0.6205
   67SAPC    HA 5570   0.333   2.322   5.374  0.5681 -1.0652 -1.2429
   67SAPC    HB 5571   0.241   2.481   5.381 -2.4551  0.0173  0.5217
   67SAPC    C2 5572   0.136   2.295   5.446  0.0712  0.0384 -0.1427
   67SAPC    HS 5573   0.086   2.226   5.374 -1.1346  1.1837 -0.4303
   67SAPC   O21 5574   0.041   2.392   5.503  0.5619  0.4050  0.5497
   67SAPC   C21 5575  -0.068   2.333   5.553  0.1446  0.1104  0.1302
   67SAPC   O22 5576  -0.087   2.211   5.551  0.1839 -0.2548  0.3574
   67SAPC   C22 5577  -0.167   2.431   5.610  0.5121 -0.1940 -0.4997
   67SAPC   H2R 5578  -0.119   2.482   5.696  0.2412 -2.0464  0.8164
   67SAPC   H2S 5579  -0.195   2.510   5.536  3.2814  1.6506  0.2609
   67SAPC    C3 5580   0.217   2.217   5.553 -0.5121 -0.1373  0.2850
   67SAPC    HX 5581   0.309   2.166   5.518  0.6969  0.6261  2.1752
   67SAPC    HY 5582   0.148   2.136   5.584  0.3165 -0.8199  0.4074
   67SAPC   O31 5583   0.238   2.302   5.670  0.0011 -0.1509  0.3377
   67SAPC   C31 5584   0.265   2.240   5.789  0.2786 -0.7891 -0.9264
   67SAPC   O32 5585   0.298   2.127   5.804  0.0332  0.4321 -0.2323
   67SAPC   C32 5586   0.228   2.335   5.898 -0.7177 -0.3473 -0.1495
   67SAPC   H2X 5587   0.260   2.438   5.870 -0.7213 -0.6198 -1.2295
   67SAPC   H2Y 5588   0.284   2.304   5.989  0.3265  0.5281 -0.4668
   67SAPC   C23 5589  -0.282   2.344   5.669  0.3390 -0.9058 -0.0505
   67SAPC   H3R 5590  -0.250   2.257   5.730 -0.4507 -1.4665 -0.4251
   67SAPC   H3S 5591  -0.335   2.300   5.582 -1.2992  1.3410 -0.2916
   67SAPC   C24 5592  -0.391   2.425   5.740  0.3097  0.1425  0.2304
   67SAPC   H4R 5593  -0.464   2.361   5.793  1.7444  0.2537  2.5018
   67SAPC   H4S 5594  -0.444   2.491   5.668  1.5588  1.7516  0.7055
   67SAPC   C25 5595  -0.327   2.509   5.848  0.5440 -0.0034 -0.5923
   67SAPC   H5R 5596  -0.284   2.606   5.817  2.3340 -0.8102 -0.7664
   67SAPC   C26 5597  -0.331   2.488   5.982  0.2774  0.2613 -0.1053
   67SAPC   H6R 5598  -0.267   2.551   6.046  2.7182 -1.6625 -0.4952
   67SAPC   C27 5599  -0.371   2.360   6.053 -0.1555 -0.9074 -0.1360
   67SAPC   H7R 5600  -0.481   2.353   6.049 -0.4190  1.9496  0.2276
   67SAPC   H7S 5601  -0.356   2.387   6.160 -0.2902  0.2329 -0.3873
   67SAPC   C28 5602  -0.300   2.234   6.013  0.3979  0.4286 -0.1704
   67SAPC   H8R 5603  -0.326   2.190   5.916  0.8367  1.4712 -0.7703
   67SAPC   C29 5604  -0.238   2.147   6.095 -0.1407 -0.2554 -0.3870
   67SAPC   H9R 5605  -0.192   2.054   6.056 -1.3462 -1.7640  1.6180
   67SAPC  C210 5606  -0.210   2.157   6.243  0.6968  0.0246  0.2991
   67SAPC  H10R 5607  -0.125   2.094   6.275 -0.0914 -1.0250  0.3886
   67SAPC  H10S 5608  -0.287   2.099   6.299  1.4925 -1.1467  0.2137
   67SAPC  C211 5609  -0.186   2.278   6.318 -0.3467  0.3384  0.1197
   67SAPC  H11R 5610  -0.164   2.368   6.258 -0.9175  0.9547  0.8019
   67SAPC  C212 5611  -0.176   2.281   6.452  0.4153 -0.4213  0.2256
   67SAPC  H12R 5612  -0.157   2.376   6.505 -2.3765  0.0659  0.5076
   67SAPC  C213 5613  -0.191   2.163   6.549  0.2031 -0.2163  0.1982
   67SAPC  H13R 5614  -0.088   2.157   6.590 -0.5573 -1.2428  2.1050
   67SAPC  H13S 5615  -0.219   2.067   6.500  1.2762 -0.1639 -0.5381
   67SAPC  C214 5616  -0.284   2.197   6.665 -0.2625 -0.6409 -0.0526
   67SAPC  H14R 5617  -0.389   2.195   6.631  0.6645 -2.8185 -3.2356
   67SAPC  C215 5618  -0.252   2.225   6.794  0.2928 -0.0933 -1.0262
   67SAPC  H15R 5619  -0.330   2.268   6.859  1.7911  2.0260 -0.4991
   67SAPC  C216 5620  -0.114   2.223   6.847 -0.4145 -0.3327  0.4647
   67SAPC  H16R 5621  -0.070   2.325   6.847 -1.4447  0.1299  0.6320
   67SAPC  H16S 5622  -0.040   2.170   6.783  0.3643  1.6709 -0.3859
   67SAPC  C217 5623  -0.093   2.159   6.989  0.4369  0.5171 -0.4168
   67SAPC  H17R 5624   0.013   2.126   7.000 -0.2489 -1.6161  0.2430
   67SAPC  H17S 5625  -0.146   2.065   7.012  1.4316 -0.0574 -0.4077
   67SAPC  C218 5626  -0.100   2.267   7.098 -0.0750  0.6157  0.1977
   67SAPC  H18R 5627  -0.183   2.340   7.091  1.4079  2.2001 -2.2406
   67SAPC  H18S 5628  -0.006   2.326   7.092  0.6324 -0.4732  0.4007
   67SAPC  C219 5629  -0.098   2.202   7.234  0.1635  0.1867  0.1982
   67SAPC  H19R 5630  -0.003   2.146   7.247 -0.1021  0.3856  4.4087
   67SAPC  H19S 5631  -0.174   2.121   7.247  0.0590  0.0139 -1.2784
   67SAPC  C220 5632  -0.117   2.294   7.356  0.7888  0.6929  0.7399
   67SAPC  H20R 5633  -0.223   2.324   7.367 -0.0186 -0.8934 -1.8509
   67SAPC  H20S 5634  -0.075   2.397   7.348 -0.3312  1.0518 -1.0917
   67SAPC  H20T 5635  -0.086   2.239   7.448  3.4305  0.0183 -0.4658
   67SAPC   C33 5636   0.081   2.346   5.931  0.8711 -0.3588 -0.4385
   67SAPC   H3X 5637   0.043   2.247   5.963  0.1563  0.3926  1.1889
   67SAPC   H3Y 5638   0.030   2.385   5.840 -0.9089 -0.1674  0.5916
   67SAPC   C34 5639   0.052   2.454   6.037 -0.3331 -0.4552 -0.8174
   67SAPC   H4X 5640  -0.058   2.457   6.050 -0.0382  1.1665  2.0268
   67SAPC   H4Y 5641   0.087   2.547   5.988  0.7777 -0.2658  0.2968
   67SAPC   C35 5642   0.128   2.434   6.167 -0.0109  0.7178  0.5899
   67SAPC   H5X 5643   0.236   2.439   6.144  0.0505 -0.7416  0.5105
   67SAPC   H5Y 5644   0.103   2.332   6.201 -2.8090  0.9203 -0.5749
   67SAPC   C36 5645   0.096   2.533   6.275  0.4961  0.1998 -0.2502
   67SAPC   H6X 5646  -0.014   2.550   6.278  0.3586 -0.6578 -0.1721
   67SAPC   H6Y 5647   0.148   2.628   6.252 -0.5238  0.6771 -0.6715
   67SAPC   C37 5648   0.146   2.482   6.405 -0.2332  0.8325  0.6902
   67SAPC   H7X 5649   0.257   2.479   6.390 -0.1040 -0.1376  1.7086
   67SAPC   H7Y 5650   0.114   2.377   6.423  1.5767  0.1099 -0.0468
   67SAPC   C38 5651   0.125   2.569   6.525 -0.0151 -0.3254 -0.0716
   67SAPC   H8X 5652   0.015   2.572   6.540 -0.2400  0.9417 -1.7566
   67SAPC   H8Y 5653   0.155   2.673   6.504 -0.6895  0.0410  0.7347
   67SAPC   C39 5654   0.185   2.519   6.656 -0.5733 -0.6113 -0.0243
   67SAPC   H9X 5655   0.291   2.518   6.622 -0.8380  0.8618 -1.0082
   67SAPC   H9Y 5656   0.152   2.414   6.667  1.8343 -1.7096 -2.2335
   67SAPC  C310 5657   0.171   2.601   6.781  0.7107 -0.5547  0.3698
   67SAPC  H10X 5658   0.064   2.613   6.810  0.4672 -0.9515 -0.3571
   67SAPC  H10Y 5659   0.220   2.693   6.743  2.4687 -2.0819 -1.2524
   67SAPC  C311 5660   0.251   2.558   6.909  0.0501  0.6761  0.0382
   67SAPC  H11X 5661   0.357   2.549   6.878  0.3260  1.6288  0.6534
   67SAPC  H11Y 5662   0.210   2.460   6.942 -0.6326  0.8528 -0.2850
   67SAPC  C312 5663   0.247   2.650   7.022  0.2677  0.0613 -0.1884
   67SAPC  H12X 5664   0.309   2.739   7.002  0.6344  0.2137  1.4783
   67SAPC  H12Y 5665   0.306   2.603   7.105 -1.4648  0.7929  1.5329
   67SAPC  C313 5666   0.106   2.678   7.065 -0.0102 -0.2198 -0.4660
   67SAPC  H13X 5667   0.050   2.586   7.091 -0.0787 -0.4461 -1.3929
   67SAPC  H13Y 5668   0.051   2.723   6.980  0.7825 -1.2684 -1.5644
   67SAPC  C314 5669   0.119   2.773   7.186  0.7098 -0.6964 -0.3771
   67SAPC  H14X 5670   0.151   2.872   7.147  0.6497 -0.5016  0.0591
   67SAPC  H14Y 5671   0.197   2.736   7.256  0.6269  1.7686  1.1336
   67SAPC  C315 5672  -0.011   2.781   7.274 -0.7274 -0.0921  0.5462
   67SAPC  H15X 5673  -0.035   2.679   7.313  0.4185  0.2076  2.1111
   67SAPC  H15Y 5674  -0.101   2.813   7.216 -0.8284  0.0183  0.7605
   67SAPC  C316 5675   0.006   2.878   7.392  0.4650  0.3736  0.4240
   67SAPC  H16X 5676   0.110   2.914   7.386  0.4196  0.2770 -2.6526
   67SAPC  H16Y 5677   0.002   2.811   7.481  1.1261 -1.0497 -0.5806
   67SAPC  C317 5678  -0.088   2.998   7.401 -0.1428 -0.4764  0.5122
   67SAPC  H17X 5679  -0.188   2.951   7.392  0.6047 -1.8065 -1.5222
   67SAPC  H17Y 5680  -0.074   3.070   7.317  1.5504 -0.9505  0.3513
   67SAPC  C318 5681  -0.069   3.081   7.532 -0.2956  0.1709  0.7432
   67SAPC  H18X 5682  -0.111   3.017   7.612  0.3528 -0.9459  0.2201
   67SAPC  H18Y 5683  -0.120   3.178   7.519  0.8808  0.5634 -1.5968
   67SAPC  H18Z 5684   0.042   3.091   7.540 -0.1821 -1.6359  2.0370
   68SAPC     N 5685   2.483   6.986   4.950 -0.0161 -0.2434 -0.5908
   68SAPC   C12 5686   2.442   6.938   5.091 -0.0704 -0.0070 -0.0482
   68SAPC  H12A 5687   2.507   6.853   5.108 -0.1700 -0.3320 -1.1717
   68SAPC  H12B 5688   2.345   6.892   5.083 -0.2190 -0.2402  2.4489
   68SAPC   C13 5689   2.620   7.050   4.950  0.2056  0.9600 -0.3848
   68SAPC  H13A 5690   2.692   6.982   4.993  0.1091  0.4179 -1.0792
   68SAPC  H13B 5691   2.658   7.052   4.849 -0.7063 -2.7257 -0.9578
   68SAPC  H13C 5692   2.622   7.138   5.013 -1.6089  0.9347 -0.2282
   68SAPC   C14 5693   2.463   6.876   4.848  0.1874 -0.2525 -0.2421
   68SAPC  H14A 5694   2.507   6.789   4.893 -0.2848 -0.3746 -0.0067
   68SAPC  H14B 5695   2.361   6.848   4.825  0.5265 -1.5877 -0.1794
   68SAPC  H14C 5696   2.506   6.905   4.753  0.7882  0.4421  0.2276
   68SAPC   C15 5697   2.384   7.095   4.918 -0.6991 -0.0342 -0.1545
   68SAPC  H15A 5698   2.290   7.087   4.971 -1.8459  1.2486 -1.8782
   68SAPC  H15B 5699   2.424   7.190   4.949  0.0665 -0.6580  0.8307
   68SAPC  H15C 5700   2.374   7.097   4.810  5.2845 -3.4508 -1.2463
   68SAPC   C11 5701   2.449   7.031   5.219 -0.1222  0.3541 -0.5206
   68SAPC  H11A 5702   2.409   6.970   5.303  0.2242  0.1471 -0.4999
   68SAPC  H11B 5703   2.385   7.121   5.214 -1.5126 -0.3285  2.7117
   68SAPC     P 5704   2.673   6.992   5.337 -0.3452 -0.1521 -0.3465
   68SAPC   O13 5705   2.664   6.847   5.301  0.1272 -0.1878  0.6716
   68SAPC   O14 5706   2.804   7.055   5.332 -0.0643  0.0601 -0.4856
   68SAPC   O12 5707   2.581   7.078   5.245 -0.2873 -0.0515 -0.1986
   68SAPC   O11 5708   2.609   7.008   5.481  0.5144 -0.2849  0.5463
   68SAPC    C1 5709   2.522   7.118   5.515 -0.0020  0.0345 -0.1503
   68SAPC    HA 5710   2.498   7.180   5.426  1.3111  1.1924  0.2394
   68SAPC    HB 5711   2.423   7.083   5.551  0.8397 -3.0606 -0.5562
   68SAPC    C2 5712   2.575   7.222   5.620 -0.2519  0.3105  0.6923
   68SAPC    HS 5713   2.676   7.257   5.590  1.1293 -2.7742  1.3952
   68SAPC   O21 5714   2.591   7.150   5.744 -0.4285  0.1348  0.1123
   68SAPC   C21 5715   2.640   7.216   5.843  0.5963  0.6284 -0.9120
   68SAPC   O22 5716   2.696   7.323   5.839  0.7793  0.1629 -0.8449
   68SAPC   C22 5717   2.606   7.127   5.968 -0.0863 -0.0475 -0.0156
   68SAPC   H2R 5718   2.497   7.105   5.978 -0.3427  0.9631 -0.5340
   68SAPC   H2S 5719   2.654   7.028   5.951 -0.2736  0.0919 -1.4481
   68SAPC    C3 5720   2.486   7.358   5.629 -0.3759  0.1170  0.0519
   68SAPC    HX 5721   2.526   7.437   5.562 -0.6643  0.0624 -0.1874
   68SAPC    HY 5722   2.500   7.402   5.730 -0.8116 -1.1001  0.6572
   68SAPC   O31 5723   2.344   7.337   5.597 -0.0147 -0.0729 -0.3994
   68SAPC   C31 5724   2.275   7.314   5.715  0.4864  0.4582 -0.1258
   68SAPC   O32 5725   2.330   7.306   5.825  0.8712 -0.2353 -0.3007
   68SAPC   C32 5726   2.122   7.307   5.691  0.3342  0.4696 -1.1109
   68SAPC   H2X 5727   2.108   7.218   5.626  1.7888 -0.4525 -0.2183
   68SAPC   H2Y 5728   2.091   7.404   5.646  0.4045 -0.3898 -3.1315
   68SAPC   C23 5729   2.660   7.187   6.105 -0.9095 -0.0477 -0.2976
   68SAPC   H3R 5730   2.610   7.284   6.126 -0.2960  0.0782  0.6301
   68SAPC   H3S 5731   2.769   7.204   6.089 -0.7823 -1.0279 -0.5686
   68SAPC   C24 5732   2.650   7.091   6.230 -0.1575  0.1164 -0.1052
   68SAPC   H4R 5733   2.544   7.075   6.260  0.1689  2.0830  2.5230
   68SAPC   H4S 5734   2.680   7.144   6.323  1.1982 -1.7735  0.5936
   68SAPC   C25 5735   2.735   6.965   6.219  0.7366 -0.0230  0.1080
   68SAPC   H5R 5736   2.712   6.917   6.122 -0.5486  2.2512 -0.7824
   68SAPC   C26 5737   2.815   6.898   6.308  0.3767 -0.6990  0.0867
   68SAPC   H6R 5738   2.870   6.807   6.280  0.3323 -0.5285 -0.5575
   68SAPC   C27 5739   2.845   6.943   6.449 -0.2160 -0.0201  0.5067
   68SAPC   H7R 5740   2.797   7.042   6.469  0.5643  0.3592  0.5420
   68SAPC   H7S 5741   2.950   6.976   6.454 -0.9044  2.5536 -0.3178
   68SAPC   C28 5742   2.811   6.831   6.551 -0.0442  0.4991  0.2358
   68SAPC   H8R 5743   2.833   6.729   6.518  0.3629  0.7673 -0.3427
   68SAPC   C29 5744   2.743   6.849   6.664 -0.1289 -0.9032 -0.3379
   68SAPC   H9R 5745   2.722   6.763   6.729  1.1789 -0.9395  0.0779
   68SAPC  C210 5746   2.711   6.977   6.740  0.2185 -0.0006 -0.6598
   68SAPC  H10R 5747   2.734   7.066   6.677  1.4276  0.7913  0.8259
   68SAPC  H10S 5748   2.783   6.994   6.823  0.6726  1.7900 -1.3795
   68SAPC  C211 5749   2.567   6.984   6.792 -0.2416 -0.2421  0.0142
   68SAPC  H11R 5750   2.548   6.901   6.862  1.0489 -0.5887 -0.0113
   68SAPC  C212 5751   2.475   7.075   6.754  0.1394 -0.4929 -0.0986
   68SAPC  H12R 5752   2.377   7.067   6.802 -0.2996  0.4202 -0.8125
   68SAPC  C213 5753   2.484   7.185   6.655  0.2508  0.3114 -0.1725
   68SAPC  H13R 5754   2.586   7.216   6.622 -0.0127  1.5340  0.1236
   68SAPC  H13S 5755   2.457   7.276   6.712  1.8526  0.5937  0.1820
   68SAPC  C214 5756   2.392   7.168   6.542 -0.0476  0.6190 -0.4271
   68SAPC  H14R 5757   2.330   7.078   6.535  0.4978  0.1305  0.7723
   68SAPC  C215 5758   2.377   7.262   6.448 -0.3330  0.2352 -0.0917
   68SAPC  H15R 5759   2.304   7.252   6.367 -2.5477  0.5069  1.7836
   68SAPC  C216 5760   2.451   7.397   6.441 -0.1625  0.0384 -0.0084
   68SAPC  H16R 5761   2.528   7.377   6.364 -0.2175 -1.6284  0.3367
   68SAPC  H16S 5762   2.509   7.411   6.535 -0.4660 -2.3103  0.5941
   68SAPC  C217 5763   2.375   7.519   6.400  0.3238 -0.2429  0.1818
   68SAPC  H17R 5764   2.446   7.603   6.416  0.1456 -0.4315  2.1596
   68SAPC  H17S 5765   2.288   7.540   6.465 -0.0944  0.9954 -0.7383
   68SAPC  C218 5766   2.313   7.522   6.256 -1.1726  0.1399  0.3021
   68SAPC  H18R 5767   2.255   7.616   6.246 -0.9409  0.5048  1.9724
   68SAPC  H18S 5768   2.236   7.443   6.245  0.0272 -0.8228 -1.8360
   68SAPC  C219 5769   2.409   7.502   6.131  0.1222  0.0673 -0.3624
   68SAPC  H19R 5770   2.356   7.459   6.043 -1.0897 -0.1295  0.4410
   68SAPC  H19S 5771   2.481   7.421   6.154 -1.6347 -1.9079 -1.4777
   68SAPC  C220 5772   2.487   7.627   6.093 -0.6333  0.2885 -0.2693
   68SAPC  H20R 5773   2.564   7.593   6.020 -0.8369  0.5453 -0.6067
   68SAPC  H20S 5774   2.533   7.670   6.185  0.4957 -0.4043 -0.4805
   68SAPC  H20T 5775   2.424   7.706   6.048 -3.5225 -0.9692  1.2968
   68SAPC   C33 5776   2.037   7.287   5.820 -0.0365  0.3540  0.0934
   68SAPC   H3X 5777   2.075   7.200   5.877  0.8565  0.4270 -0.3633
   68SAPC   H3Y 5778   1.932   7.265   5.792  0.4065  0.0190 -1.3911
   68SAPC   C34 5779   2.038   7.422   5.897 -0.4188 -0.1088 -0.2332
   68SAPC   H4X 5780   1.944   7.476   5.872  0.4259  2.3487  1.4519
   68SAPC   H4Y 5781   2.133   7.478   5.881 -0.7432  0.6090  0.2723
   68SAPC   C35 5782   2.029   7.402   6.050  1.2730  0.0398 -0.0999
   68SAPC   H5X 5783   2.036   7.494   6.112 -0.3097  1.7536 -2.2705
   68SAPC   H5Y 5784   2.114   7.338   6.081  0.3225 -0.9328  0.5989
   68SAPC   C36 5785   1.891   7.351   6.086 -0.2246 -0.0269 -0.9420
   68SAPC   H6X 5786   1.857   7.253   6.046  1.5625 -0.8758 -0.4622
   68SAPC   H6Y 5787   1.807   7.419   6.057 -1.5157 -0.9777  0.4226
   68SAPC   C37 5788   1.866   7.349   6.244 -0.5911  0.1411 -0.4729
   68SAPC   H7X 5789   1.760   7.318   6.258  0.2347 -3.2990 -0.9609
   68SAPC   H7Y 5790   1.887   7.445   6.296 -0.8891 -0.1346  0.1732
   68SAPC   C38 5791   1.964   7.245   6.307 -0.1872  0.3688  0.1867
   68SAPC   H8X 5792   2.068   7.276   6.285 -0.6882  1.1863 -1.2036
   68SAPC   H8Y 5793   1.943   7.144   6.264 -3.4460  1.3843 -0.9149
   68SAPC   C39 5794   1.950   7.253   6.459  0.0862 -1.0965  0.5404
   68SAPC   H9X 5795   1.845   7.246   6.496  0.4855  1.8201  2.5617
   68SAPC   H9Y 5796   1.991   7.349   6.496  0.2951 -0.8804 -0.2219
   68SAPC  C310 5797   2.026   7.149   6.534 -0.1471  0.5918  0.5516
   68SAPC  H10X 5798   2.127   7.138   6.490  0.0381 -1.8906  1.4541
   68SAPC  H10Y 5799   1.976   7.051   6.523  0.1241  0.3671  1.2696
   68SAPC  C311 5800   2.047   7.182   6.679 -0.0781  0.1175  0.2775
   68SAPC  H11X 5801   1.955   7.226   6.723 -0.1246  0.7199 -0.3835
   68SAPC  H11Y 5802   2.108   7.274   6.693 -0.8730  0.2529  3.4337
   68SAPC  C312 5803   2.094   7.062   6.759  0.7437 -0.2143 -0.4275
   68SAPC  H12X 5804   2.192   7.032   6.717  0.3715  1.1986 -2.4494
   68SAPC  H12Y 5805   2.017   6.984   6.741  0.2473 -0.4533  2.3131
   68SAPC  C313 5806   2.111   7.101   6.901 -0.0024  0.2589 -0.3704
   68SAPC  H13X 5807   2.008   7.120   6.938  0.2951 -0.6557  1.0213
   68SAPC  H13Y 5808   2.170   7.194   6.915  2.8740 -1.5946  0.8295
   68SAPC  C314 5809   2.161   6.980   6.988  0.0565  0.1652  0.2535
   68SAPC  H14X 5810   2.266   6.951   6.964 -0.0265  0.0183  0.0626
   68SAPC  H14Y 5811   2.092   6.897   6.964  0.9264 -0.9266  1.4250
   68SAPC  C315 5812   2.159   6.998   7.147  0.1596 -0.3620  0.6002
   68SAPC  H15X 5813   2.173   6.902   7.201 -0.1522  0.3482  1.9677
   68SAPC  H15Y 5814   2.064   7.040   7.185  0.0028  0.0126 -0.1869
   68SAPC  C316 5815   2.282   7.080   7.179 -0.6684 -0.0384  0.0610
   68SAPC  H16X 5816   2.286   7.176   7.124  1.6199 -0.0751  0.0655
   68SAPC  H16Y 5817   2.362   7.017   7.136 -0.6913 -1.2799  1.7397
   68SAPC  C317 5818   2.295   7.101   7.334  0.5149  0.4661  0.2959
   68SAPC  H17X 5819   2.192   7.124   7.371  0.3305 -0.8712  0.6803
   68SAPC  H17Y 5820   2.363   7.186   7.355  1.7312  0.5389 -3.2644
   68SAPC  C318 5821   2.367   6.984   7.400 -0.1457  0.1405 -0.0095
   68SAPC  H18X 5822   2.294   6.901   7.389 -0.8777  0.8797 -0.8945
   68SAPC  H18Y 5823   2.392   7.009   7.505  1.6490 -1.5951  0.0321
   68SAPC  H18Z 5824   2.463   6.963   7.347 -0.7886 -0.9077 -0.8119
   69SLPC     N 5825   3.021   4.351  10.073  0.9596  0.5801  0.3793
   69SLPC   C13 5826   2.985   4.485  10.126 -0.3626 -0.2279 -0.8088
   69SLPC  H13A 5827   3.063   4.558  10.111  0.8845 -1.6613 -1.5726
   69SLPC  H13B 5828   2.891   4.518  10.083 -2.1601  0.2020  3.0833
   69SLPC  H13C 5829   2.973   4.481  10.233  1.1104  0.6880 -0.5895
   69SLPC   C14 5830   3.031   4.353   9.917  0.5316 -0.0526 -0.1587
   69SLPC  H14A 5831   3.050   4.251   9.887  0.3955  0.2942 -1.5178
   69SLPC  H14B 5832   2.940   4.381   9.864  0.5031 -1.4259 -0.8852
   69SLPC  H14C 5833   3.109   4.421   9.886  1.4099 -1.7930 -1.9956
   69SLPC   C15 5834   2.901   4.262  10.103 -0.5768 -0.0264 -0.7281
   69SLPC  H15A 5835   2.885   4.255  10.209  3.6764  3.4071  0.4052
   69SLPC  H15B 5836   2.813   4.291  10.048 -0.5600 -0.5032 -1.0136
   69SLPC  H15C 5837   2.920   4.162  10.067 -1.3215 -1.0895  1.6576
   69SLPC   C12 5838   3.142   4.291  10.133 -0.2548  0.9518 -0.3101
   69SLPC  H12A 5839   3.116   4.273  10.236 -0.7738 -0.3959 -0.6467
   69SLPC  H12B 5840   3.224   4.362  10.136 -0.9301  1.7900 -1.1630
   69SLPC   C11 5841   3.197   4.157  10.079 -0.4886 -0.1508 -0.2455
   69SLPC  H11A 5842   3.107   4.097  10.054  0.6772 -0.7400 -3.5499
   69SLPC  H11B 5843   3.247   4.101  10.161  0.7720  0.0993 -0.8108
   69SLPC     P 5844   3.311   4.086   9.874 -0.4127 -0.3389  0.0653
   69SLPC   O13 5845   3.398   4.135   9.768 -0.0038  0.0579  0.2649
   69SLPC   O14 5846   3.359   3.964   9.943  0.1219  0.4264 -0.6934
   69SLPC   O12 5847   3.289   4.198   9.978  0.2489 -0.2287  0.9385
   69SLPC   O11 5848   3.164   4.075   9.821  1.3074 -0.7161 -0.2615
   69SLPC    C1 5849   3.129   3.976   9.718  0.2986  0.1606  0.2761
   69SLPC    HA 5850   3.224   3.934   9.679  0.1261 -1.1904  1.2577
   69SLPC    HB 5851   3.071   3.900   9.774 -0.5483  1.3928  1.1112
   69SLPC    C2 5852   3.041   4.037   9.603 -0.1323 -0.1596  0.2639
   69SLPC    HS 5853   3.009   3.960   9.530  0.8018 -0.4551  0.1534
   69SLPC   O21 5854   3.112   4.144   9.540  0.4683  0.2979  0.1873
   69SLPC   C21 5855   3.211   4.099   9.464 -0.0829  0.0990 -0.4963
   69SLPC   O22 5856   3.234   3.983   9.439  0.4159 -0.2422  0.2524
   69SLPC   C22 5857   3.294   4.221   9.424  0.9460  0.5263 -0.2065
   69SLPC   H2R 5858   3.358   4.264   9.505  2.1804  1.3177 -1.5604
   69SLPC   H2S 5859   3.360   4.190   9.341  0.5184  4.4555 -2.2451
   69SLPC    C3 5860   2.915   4.095   9.668 -0.4415  0.1851 -0.3053
   69SLPC    HX 5861   2.942   4.168   9.747 -0.0187  0.2229 -0.4862
   69SLPC    HY 5862   2.849   4.023   9.720 -0.6520  0.3070 -0.3999
   69SLPC   O31 5863   2.825   4.155   9.569 -0.9894 -0.0779  0.1036
   69SLPC   C31 5864   2.767   4.271   9.618  0.2324  0.1104 -0.3006
   69SLPC   O32 5865   2.789   4.319   9.726  0.2380  0.0794 -0.1862
   69SLPC   C32 5866   2.660   4.326   9.521 -0.8675  0.6597  0.3393
   69SLPC   H2X 5867   2.565   4.327   9.579 -2.3492 -0.8966 -1.8891
   69SLPC   H2Y 5868   2.642   4.257   9.436 -0.3369  0.5351  0.3254
   69SLPC   C23 5869   3.202   4.328   9.362 -0.2569  0.1505 -0.1698
   69SLPC   H3R 5870   3.123   4.350   9.436  1.3561 -0.3827  1.7973
   69SLPC   H3S 5871   3.153   4.290   9.270 -1.5045 -0.9173  0.9055
   69SLPC   C24 5872   3.280   4.456   9.319  0.0238 -0.7444 -0.3128
   69SLPC   H4R 5873   3.359   4.426   9.247  1.0468  1.2319 -0.0808
   69SLPC   H4S 5874   3.333   4.487   9.411 -0.1736 -2.3306  0.3850
   69SLPC   C25 5875   3.200   4.555   9.241  0.7993 -0.4854  0.0182
   69SLPC   H5R 5876   3.112   4.555   9.309  2.4797  3.0341  2.4771
   69SLPC   H5S 5877   3.165   4.522   9.141 -0.3846  2.0313 -0.4767
   69SLPC   C26 5878   3.251   4.693   9.226 -0.2437 -0.4143 -0.3060
   69SLPC   H6R 5879   3.267   4.723   9.120 -0.6976 -0.8021 -0.4855
   69SLPC   H6S 5880   3.348   4.689   9.279 -0.3618  1.2880  0.0955
   69SLPC   C27 5881   3.163   4.799   9.302 -0.1499 -1.1772 -0.5624
   69SLPC   H7R 5882   3.212   4.899   9.297 -0.9183 -0.7824 -0.3852
   69SLPC   H7S 5883   3.163   4.775   9.411 -2.2182  2.0960  0.3241
   69SLPC   C28 5884   3.021   4.803   9.249  0.3957 -0.1849 -0.1717
   69SLPC   H8R 5885   2.973   4.703   9.255  1.8360 -0.9616 -0.7936
   69SLPC   H8S 5886   3.020   4.826   9.140  0.9706 -0.5224 -0.2559
   69SLPC   C29 5887   2.937   4.890   9.340  0.6969 -0.0543 -0.4114
   69SLPC   H9R 5888   3.001   4.964   9.390  1.1265 -1.6527  1.5338
   69SLPC  C210 5889   2.803   4.891   9.345 -0.9429 -0.7716  0.3348
   69SLPC  H10R 5890   2.768   4.957   9.426 -3.3210  0.0287 -1.2335
   69SLPC  C211 5891   2.703   4.803   9.281  0.6325 -1.2830 -0.7184
   69SLPC  H11R 5892   2.664   4.750   9.371  3.0909 -0.6712  0.7909
   69SLPC  H11S 5893   2.739   4.721   9.215  1.0431 -0.4094 -1.5960
   69SLPC  C212 5894   2.597   4.881   9.206  0.2587  0.4832 -0.9396
   69SLPC  H12R 5895   2.638   4.960   9.141  2.6742  1.6240  1.7455
   69SLPC  C213 5896   2.467   4.866   9.225 -0.0709  0.5483  0.0614
   69SLPC  H13R 5897   2.398   4.920   9.159 -1.2503 -1.5845 -0.5737
   69SLPC  C214 5898   2.387   4.773   9.322 -0.7920  0.7259 -0.3151
   69SLPC  H14R 5899   2.325   4.831   9.393 -0.0054 -0.7499  1.6578
   69SLPC  H14S 5900   2.460   4.712   9.379  1.3088  2.3515 -1.1222
   69SLPC  C215 5901   2.293   4.675   9.238  0.0691  0.1361  0.9195
   69SLPC  H15R 5902   2.216   4.738   9.189  0.4634  1.8947  2.4348
   69SLPC  H15S 5903   2.237   4.611   9.309  0.2181 -1.6055 -0.4700
   69SLPC  C216 5904   2.358   4.573   9.144  0.2553  0.1357  0.1981
   69SLPC  H16R 5905   2.405   4.499   9.212 -0.0679 -0.6911 -0.4615
   69SLPC  H16S 5906   2.426   4.619   9.069  2.3017 -0.1485  1.7951
   69SLPC  C217 5907   2.244   4.505   9.058  0.2500 -0.2786 -0.4600
   69SLPC  H17R 5908   2.182   4.585   9.013  1.2106  1.0294  0.4544
   69SLPC  H17S 5909   2.190   4.442   9.132 -1.8141  2.0550  0.1563
   69SLPC  C218 5910   2.288   4.407   8.949 -0.2359 -0.0997  0.6320
   69SLPC  H18R 5911   2.313   4.312   9.001  0.9158  0.1689  0.6019
   69SLPC  H18S 5912   2.387   4.441   8.910  0.2381 -0.2894  1.6283
   69SLPC  H18T 5913   2.206   4.385   8.877  0.7142  1.5603 -1.0630
   69SLPC   C33 5914   2.696   4.467   9.467  0.3951  0.0970 -0.3855
   69SLPC   H3X 5915   2.698   4.542   9.548  0.9726 -1.3351  0.9793
   69SLPC   H3Y 5916   2.612   4.494   9.400 -1.4947 -1.1533  1.3775
   69SLPC   C34 5917   2.829   4.489   9.402 -0.1458 -0.2768 -0.2011
   69SLPC   H4X 5918   2.908   4.468   9.477 -0.3789 -0.7391 -0.0819
   69SLPC   H4Y 5919   2.835   4.596   9.371 -1.2954 -0.6647 -1.9040
   69SLPC   C35 5920   2.851   4.407   9.273  0.2141  0.0422 -0.4911
   69SLPC   H5X 5921   2.824   4.301   9.294  1.3457 -0.5902 -2.0157
   69SLPC   H5Y 5922   2.961   4.399   9.258  0.2252 -1.9266  0.2105
   69SLPC   C36 5923   2.771   4.463   9.149  0.4184 -0.0171 -1.1835
   69SLPC   H6X 5924   2.816   4.563   9.131  1.9814 -0.9080 -2.5370
   69SLPC   H6Y 5925   2.664   4.483   9.170 -0.0360 -2.6657 -0.5433
   69SLPC   C37 5926   2.786   4.372   9.025 -0.2201  0.3122  0.5869
   69SLPC   H7X 5927   2.737   4.422   8.939 -1.1024 -0.3291  0.7035
   69SLPC   H7Y 5928   2.726   4.280   9.043 -0.7873  0.7157  0.8089
   69SLPC   C38 5929   2.927   4.336   8.974 -0.0516 -0.0077  0.3292
   69SLPC   H8X 5930   2.903   4.272   8.887  0.5976  2.5596 -1.8932
   69SLPC   H8Y 5931   2.971   4.273   9.053  0.3614 -0.4066 -0.2148
   69SLPC   C39 5932   3.013   4.446   8.927 -0.6351 -0.3919 -0.0747
   69SLPC   H9X 5933   3.013   4.520   9.009  0.1193 -0.3532 -0.0985
   69SLPC   H9Y 5934   2.971   4.490   8.834 -0.9173  1.6459  0.9875
   69SLPC  C310 5935   3.161   4.401   8.887 -0.1815 -1.1747 -0.3928
   69SLPC  H10X 5936   3.208   4.331   8.959 -0.7919  1.1865  2.4802
   69SLPC  H10Y 5937   3.229   4.488   8.883  1.2522 -2.2374 -4.9817
   69SLPC  C311 5938   3.176   4.337   8.753 -0.0577  0.1206  0.1019
   69SLPC  H11X 5939   3.144   4.400   8.668 -1.5280  3.0656  2.6644
   69SLPC  H11Y 5940   3.117   4.243   8.748  0.4492 -0.2209  0.4641
   69SLPC  C312 5941   3.322   4.297   8.719  0.2491 -0.9027 -0.3430
   69SLPC  H12X 5942   3.360   4.215   8.785 -0.9528  0.1195  1.6988
   69SLPC  H12Y 5943   3.388   4.386   8.726 -0.6991  0.1511 -3.5382
   69SLPC  C313 5944   3.322   4.260   8.577 -0.1254  0.1274  0.1142
   69SLPC  H13X 5945   3.321   4.358   8.525  0.3439 -0.3098 -0.7437
   69SLPC  H13Y 5946   3.237   4.191   8.557 -0.3065  0.6675 -1.0859
   69SLPC  C314 5947   3.450   4.186   8.530  0.0544  0.3237 -0.0625
   69SLPC  H14X 5948   3.461   4.092   8.589  0.1383 -0.9601 -2.0314
   69SLPC  H14Y 5949   3.529   4.255   8.568  1.0208  0.6730 -2.5281
   69SLPC  C315 5950   3.468   4.184   8.382 -0.3886  0.1180  1.5221
   69SLPC  H15X 5951   3.436   4.275   8.327 -2.1435 -1.4428 -0.1827
   69SLPC  H15Y 5952   3.403   4.109   8.332  2.3725 -0.2723 -1.8051
   69SLPC  C316 5953   3.612   4.155   8.358  0.0957 -0.5398 -0.7616
   69SLPC  H16X 5954   3.629   4.080   8.439  0.3897  1.5712  1.2334
   69SLPC  H16Y 5955   3.666   4.249   8.382  3.3209 -1.8328 -2.2157
   69SLPC  C317 5956   3.662   4.128   8.220  0.0806  0.1666  0.5146
   69SLPC  H17X 5957   3.627   4.025   8.197  0.1370  0.2954 -0.1510
   69SLPC  H17Y 5958   3.772   4.132   8.209 -0.0197  0.2004 -0.5353
   69SLPC  C318 5959   3.597   4.212   8.112 -0.6001  0.7294 -0.2010
   69SLPC  H18X 5960   3.487   4.225   8.121 -0.3671  2.7651  0.1882
   69SLPC  H18Y 5961   3.609   4.164   8.013 -0.1542 -0.4471  0.3984
   69SLPC  H18Z 5962   3.656   4.306   8.110 -0.8982  1.1037  3.0846
   70SLPC     N 5963   3.778   4.089   9.876 -0.5314 -0.2078  0.0212
   70SLPC   C13 5964   3.902   4.167   9.886 -0.2693 -0.1575 -0.6546
   70SLPC  H13A 5965   3.985   4.100   9.904  0.1306  0.1033 -1.4518
   70SLPC  H13B 5966   3.914   4.221   9.793  0.6440 -0.6186 -0.8129
   70SLPC  H13C 5967   3.902   4.232   9.973 -0.2006  0.2151 -0.9296
   70SLPC   C14 5968   3.674   4.187   9.826  0.0534 -0.2620  1.1533
   70SLPC  H14A 5969   3.667   4.274   9.889 -0.3240  1.7236 -1.4356
   70SLPC  H14B 5970   3.707   4.220   9.728 -1.0931 -1.4796  0.3255
   70SLPC  H14C 5971   3.584   4.128   9.824 -0.8304  1.0244  1.5880
   70SLPC   C15 5972   3.725   4.051  10.011 -0.2418 -0.7872  0.3796
   70SLPC  H15A 5973   3.795   3.980  10.053  0.4799  0.5003  1.4521
   70SLPC  H15B 5974   3.713   4.136  10.077 -2.5772 -0.1267 -0.7933
   70SLPC  H15C 5975   3.627   4.006  10.008  0.4868 -2.4193 -0.3882
   70SLPC   C12 5976   3.793   3.969   9.791  0.7354  0.5015  0.6737
   70SLPC  H12A 5977   3.831   3.994   9.693  0.4909 -2.2285 -0.2264
   70SLPC  H12B 5978   3.698   3.924   9.768  0.9651  1.1428 -1.9254
   70SLPC   C11 5979   3.878   3.850   9.849  0.0428  0.2077 -0.1849
   70SLPC  H11A 5980   3.869   3.757   9.789 -0.3298 -1.1551  1.9104
   70SLPC  H11B 5981   3.821   3.809   9.935  2.4180 -2.0295  0.4305
   70SLPC     P 5982   4.133   3.883   9.805 -0.0570  0.2310  0.0335
   70SLPC   O13 5983   4.100   3.840   9.667 -0.1122 -0.3576 -1.4883
   70SLPC   O14 5984   4.206   4.012   9.818 -0.0349  0.5312  0.4024
   70SLPC   O12 5985   4.009   3.887   9.898  0.0899  0.2177 -0.1075
   70SLPC   O11 5986   4.222   3.769   9.868  0.4177  0.1665 -0.0942
   70SLPC    C1 5987   4.184   3.632   9.882 -0.2502  0.1988 -0.3455
   70SLPC    HA 5988   4.145   3.626   9.986  1.4126 -1.5805  0.2386
   70SLPC    HB 5989   4.109   3.597   9.808  0.2620 -0.5070 -0.5426
   70SLPC    C2 5990   4.309   3.542   9.877  0.0045  0.6501 -0.1873
   70SLPC    HS 5991   4.402   3.598   9.901  0.6216 -0.6624  0.6122
   70SLPC   O21 5992   4.317   3.486   9.742  0.1347 -0.3040 -0.0712
   70SLPC   C21 5993   4.377   3.555   9.645 -0.9531 -0.2688 -0.5808
   70SLPC   O22 5994   4.447   3.655   9.671  0.0492 -0.2332  0.2837
   70SLPC   C22 5995   4.376   3.492   9.505  0.4646  0.3093 -0.4687
   70SLPC   H2R 5996   4.291   3.422   9.491 -0.5962  1.6633 -0.9766
   70SLPC   H2S 5997   4.359   3.579   9.438 -0.1389  0.6374  0.0897
   70SLPC    C3 5998   4.304   3.423   9.968  0.7974  0.1864 -0.2461
   70SLPC    HX 5999   4.306   3.457  10.074  0.0185  0.3591 -0.2839
   70SLPC    HY 6000   4.393   3.360   9.946  0.8558 -0.5268  1.7914
   70SLPC   O31 6001   4.175   3.359   9.948 -0.2592 -0.2507  0.1486
   70SLPC   C31 6002   4.179   3.247   9.871  0.6283  0.1817 -0.1007
   70SLPC   O32 6003   4.280   3.181   9.852 -0.3030  0.1654  0.2022
   70SLPC   C32 6004   4.037   3.210   9.842  0.5643 -0.2741  0.0304
   70SLPC   H2X 6005   3.978   3.248   9.928 -0.6300  0.5255 -1.1050
   70SLPC   H2Y 6006   4.017   3.101   9.850 -4.1668  0.1858 -1.9705
   70SLPC   C23 6007   4.501   3.402   9.490 -0.3135  0.1123  0.8666
   70SLPC   H3R 6008   4.508   3.317   9.561 -2.4304 -1.5149 -0.7573
   70SLPC   H3S 6009   4.592   3.466   9.501  0.6653 -1.2765  1.1180
   70SLPC   C24 6010   4.520   3.343   9.348  0.4762 -0.9479  0.2044
   70SLPC   H4R 6011   4.518   3.425   9.273 -2.9085 -0.4132  0.7261
   70SLPC   H4S 6012   4.422   3.296   9.327  0.5399 -0.6652 -0.7800
   70SLPC   C25 6013   4.643   3.252   9.326  0.3132 -0.0033  0.0094
   70SLPC   H5R 6014   4.653   3.186   9.415 -2.6617 -0.7483 -0.0881
   70SLPC   H5S 6015   4.735   3.314   9.330  0.3337 -0.0674  0.6146
   70SLPC   C26 6016   4.645   3.170   9.192 -0.6048 -0.5941  0.0501
   70SLPC   H6R 6017   4.691   3.239   9.118  0.2971 -0.3062  0.8496
   70SLPC   H6S 6018   4.543   3.143   9.159 -1.9702  1.6918  2.0809
   70SLPC   C27 6019   4.736   3.040   9.208 -0.5092  0.2790 -0.1665
   70SLPC   H7R 6020   4.681   2.959   9.260  0.0040 -0.1402 -0.2611
   70SLPC   H7S 6021   4.823   3.064   9.273  0.9492  0.5632 -2.1275
   70SLPC   C28 6022   4.793   2.981   9.077  0.1482 -0.1854 -0.5396
   70SLPC   H8R 6023   4.864   2.903   9.113  0.0119  0.2603  0.7680
   70SLPC   H8S 6024   4.862   3.057   9.037 -0.4005  0.8353  0.3906
   70SLPC   C29 6025   4.697   2.909   8.988  1.0452 -0.0863  0.7232
   70SLPC   H9R 6026   4.655   2.816   9.029 -0.3361  0.9389  1.7318
   70SLPC  C210 6027   4.670   2.940   8.859  0.3009  0.6075  0.0591
   70SLPC  H10R 6028   4.610   2.884   8.786 -1.6200  1.7974  0.6418
   70SLPC  C211 6029   4.738   3.057   8.789 -0.1080 -0.1614 -0.6233
   70SLPC  H11R 6030   4.832   3.016   8.747  1.8457  0.5534  2.7159
   70SLPC  H11S 6031   4.786   3.122   8.865 -0.8194 -1.5524  1.0900
   70SLPC  C212 6032   4.655   3.138   8.701  0.1737  0.2051  0.2454
   70SLPC  H12R 6033   4.558   3.170   8.743 -1.0242 -0.1707 -2.0509
   70SLPC  C213 6034   4.658   3.155   8.566  0.5007  0.5102  0.4666
   70SLPC  H13R 6035   4.592   3.236   8.530  0.0381 -0.0829 -0.0572
   70SLPC  C214 6036   4.768   3.132   8.467  0.5582  0.5413  0.2104
   70SLPC  H14R 6037   4.855   3.074   8.504  1.3966  0.3948 -1.8931
   70SLPC  H14S 6038   4.809   3.229   8.431  1.0726  1.2161  2.4231
   70SLPC  C215 6039   4.717   3.059   8.337 -0.2154  0.8363  0.3960
   70SLPC  H15R 6040   4.622   3.112   8.314  1.1268  3.4135  0.4364
   70SLPC  H15S 6041   4.696   2.954   8.365  2.5972  0.3621  1.0414
   70SLPC  C216 6042   4.808   3.068   8.215 -0.0449  0.0233  0.1942
   70SLPC  H16R 6043   4.893   2.997   8.224 -0.7537 -0.8517  0.1502
   70SLPC  H16S 6044   4.850   3.171   8.207 -0.1202  0.2101  1.8981
   70SLPC  C217 6045   4.728   3.049   8.088 -0.4571  0.4272  0.0366
   70SLPC  H17R 6046   4.640   2.986   8.110 -0.3043  0.6152  1.2762
   70SLPC  H17S 6047   4.799   3.008   8.013 -0.2790 -1.4935  1.1948
   70SLPC  C218 6048   4.674   3.171   8.018  0.0952 -0.2752 -0.4073
   70SLPC  H18R 6049   4.754   3.243   7.989 -1.2016  0.9114 -1.1834
   70SLPC  H18S 6050   4.589   3.215   8.075  0.7132 -0.5538  0.7578
   70SLPC  H18T 6051   4.638   3.142   7.917 -2.2282 -1.5844  0.7088
   70SLPC   C33 6052   3.980   3.286   9.723  0.0259  0.7496  0.2767
   70SLPC   H3X 6053   3.987   3.396   9.737  0.6142  0.6283  1.0309
   70SLPC   H3Y 6054   3.872   3.263   9.735  0.2750 -0.0933  1.0025
   70SLPC   C34 6055   4.028   3.244   9.591 -0.1392 -0.4954  0.2669
   70SLPC   H4X 6056   4.022   3.137   9.566  1.5750 -0.5581 -0.0059
   70SLPC   H4Y 6057   4.135   3.276   9.594 -1.2458  4.1760 -1.4922
   70SLPC   C35 6058   3.961   3.336   9.477 -0.4084  0.3963 -0.1636
   70SLPC   H5X 6059   3.966   3.437   9.523 -0.7268 -0.0057  0.7856
   70SLPC   H5Y 6060   3.851   3.321   9.472 -0.4873  1.2419 -0.9898
   70SLPC   C36 6061   4.037   3.324   9.353 -0.1983  0.3104 -0.0974
   70SLPC   H6X 6062   4.017   3.229   9.300  1.1196  0.2100 -0.4674
   70SLPC   H6Y 6063   4.146   3.319   9.374 -0.1488  0.2492 -0.3626
   70SLPC   C37 6064   4.006   3.431   9.248 -0.1010  0.3830 -0.3247
   70SLPC   H7X 6065   4.016   3.535   9.286 -0.5105  1.0444 -1.9132
   70SLPC   H7Y 6066   3.897   3.423   9.228 -0.4965 -0.5588  1.9330
   70SLPC   C38 6067   4.083   3.437   9.116  0.1970  0.7898  0.4140
   70SLPC   H8X 6068   4.085   3.334   9.075  1.0893  1.6868 -1.9609
   70SLPC   H8Y 6069   4.187   3.458   9.148  0.4472  0.4584 -0.1773
   70SLPC   C39 6070   4.033   3.539   9.017 -1.0042  0.0046  0.8027
   70SLPC   H9X 6071   4.031   3.635   9.073 -3.7771 -0.7696  2.2215
   70SLPC   H9Y 6072   3.927   3.516   8.996 -0.3372 -2.3029 -0.3731
   70SLPC  C310 6073   4.109   3.554   8.882 -0.0250  0.2024 -0.5965
   70SLPC  H10X 6074   4.077   3.650   8.836  0.9487  1.2745  0.8785
   70SLPC  H10Y 6075   4.080   3.472   8.813 -2.0160  0.8207 -0.5612
   70SLPC  C311 6076   4.263   3.567   8.897 -0.3699  0.7325 -0.7970
   70SLPC  H11X 6077   4.294   3.463   8.921 -2.1396  0.5387  0.8673
   70SLPC  H11Y 6078   4.287   3.640   8.978  1.0794 -1.8530  1.2319
   70SLPC  C312 6079   4.335   3.623   8.781  0.0523 -0.3879 -0.3023
   70SLPC  H12X 6080   4.445   3.610   8.791  0.4786  2.5408 -0.3269
   70SLPC  H12Y 6081   4.322   3.733   8.774  0.5938 -0.0957  2.2631
   70SLPC  C313 6082   4.296   3.550   8.646  0.4734  1.2332  0.2596
   70SLPC  H13X 6083   4.193   3.579   8.616  1.0758  3.2939  0.0459
   70SLPC  H13Y 6084   4.281   3.441   8.662  3.7317  0.9021  1.9571
   70SLPC  C314 6085   4.385   3.576   8.522 -0.0184 -0.2294  0.3247
   70SLPC  H14X 6086   4.485   3.535   8.546  0.8460  1.2007 -0.6863
   70SLPC  H14Y 6087   4.403   3.685   8.507 -0.6543  0.1377  2.0688
   70SLPC  C315 6088   4.331   3.509   8.393 -0.1353 -0.1590 -0.2827
   70SLPC  H15X 6089   4.400   3.535   8.309 -0.9070 -1.1240 -1.2362
   70SLPC  H15Y 6090   4.227   3.543   8.378 -1.3740 -3.2621  0.3957
   70SLPC  C316 6091   4.322   3.359   8.390 -0.4284 -0.5050 -0.6531
   70SLPC  H16X 6092   4.270   3.322   8.481  1.1970 -0.0919  0.4811
   70SLPC  H16Y 6093   4.425   3.320   8.394  0.0358  0.7438  2.3565
   70SLPC  C317 6094   4.254   3.302   8.266 -0.5056 -0.0509 -0.2104
   70SLPC  H17X 6095   4.276   3.193   8.256  2.1933  0.4287 -0.3065
   70SLPC  H17Y 6096   4.313   3.340   8.180 -0.6961 -1.7378 -1.1338
   70SLPC  C318 6097   4.107   3.338   8.265  0.3686 -0.5095 -0.0564
   70SLPC  H18X 6098   4.081   3.440   8.228 -0.3786 -0.7908 -0.3252
   70SLPC  H18Y 6099   4.056   3.318   8.361 -0.8047  0.0071 -0.5527
   70SLPC  H18Z 6100   4.048   3.270   8.199 -1.3369 -0.9204  1.7898
   71SLPC     N 6101   3.863   2.128  10.369  0.0554 -0.2286 -0.5930
   71SLPC   C13 6102   3.999   2.132  10.312  0.1919 -0.2707 -0.2904
   71SLPC  H13A 6103   4.049   2.227  10.323  1.2049 -0.6261 -1.6020
   71SLPC  H13B 6104   4.053   2.052  10.361  0.4546 -1.7840 -2.8973
   71SLPC  H13C 6105   3.983   2.113  10.207  2.3137  2.2811 -1.2153
   71SLPC   C14 6106   3.869   2.114  10.521 -0.0604 -0.9588 -0.2961
   71SLPC  H14A 6107   3.777   2.135  10.574  0.0935 -1.9113  0.3637
   71SLPC  H14B 6108   3.905   2.017  10.551  2.4063 -0.0652 -0.1299
   71SLPC  H14C 6109   3.942   2.179  10.566 -0.6984 -1.6227  1.8010
   71SLPC   C15 6110   3.790   2.003  10.319  0.8770  0.0565  0.3589
   71SLPC  H15A 6111   3.836   1.909  10.344 -2.2520 -2.0605 -1.1626
   71SLPC  H15B 6112   3.697   1.997  10.373  0.8554 -0.2709  0.2857
   71SLPC  H15C 6113   3.763   2.017  10.215  0.9719 -0.6328  0.2357
   71SLPC   C12 6114   3.787   2.253  10.331  0.2552 -0.1945 -0.4581
   71SLPC  H12A 6115   3.839   2.340  10.369 -1.5761  1.8441 -2.3610
   71SLPC  H12B 6116   3.695   2.261  10.387  0.4268  2.4847 -0.4406
   71SLPC   C11 6117   3.764   2.281  10.180 -0.4568 -0.4320  0.0913
   71SLPC  H11A 6118   3.722   2.382  10.157  2.1914  0.3187 -1.9584
   71SLPC  H11B 6119   3.693   2.202  10.148 -0.5722 -0.7206  1.0340
   71SLPC     P 6120   3.977   2.379  10.068  0.1372 -0.2592  0.0402
   71SLPC   O13 6121   4.001   2.440  10.199  0.1916  0.0387 -0.3865
   71SLPC   O14 6122   4.095   2.325  10.003 -0.5715  0.4648 -0.0630
   71SLPC   O12 6123   3.876   2.264  10.084 -0.7657  0.4538 -0.0005
   71SLPC   O11 6124   3.890   2.478   9.981 -0.4622 -0.2202 -0.4297
   71SLPC    C1 6125   3.848   2.464   9.848  0.3337  0.2768 -0.0033
   71SLPC    HA 6126   3.834   2.573   9.828 -4.1052  0.2499  1.8284
   71SLPC    HB 6127   3.931   2.415   9.795  1.5448  0.7708  1.3667
   71SLPC    C2 6128   3.711   2.380   9.835 -0.6066 -0.0501  0.0788
   71SLPC    HS 6129   3.657   2.389   9.932 -0.6888  0.2577  0.0074
   71SLPC   O21 6130   3.740   2.240   9.797  0.0072 -0.0391 -0.0322
   71SLPC   C21 6131   3.651   2.156   9.846  0.8563  0.0411 -0.3664
   71SLPC   O22 6132   3.559   2.184   9.923 -0.7605 -0.4115 -0.3201
   71SLPC   C22 6133   3.672   2.017   9.790  0.3626 -0.1226  0.2925
   71SLPC   H2R 6134   3.717   2.024   9.689 -0.5605 -0.7833 -0.1790
   71SLPC   H2S 6135   3.738   1.960   9.858 -0.2493 -1.5370 -0.2586
   71SLPC    C3 6136   3.622   2.446   9.727 -0.1577 -0.3074 -0.8010
   71SLPC    HX 6137   3.596   2.550   9.752  1.8553 -0.0930  0.6446
   71SLPC    HY 6138   3.521   2.399   9.730  0.7588 -2.3334  0.7406
   71SLPC   O31 6139   3.692   2.446   9.604  0.0445 -0.3993  0.6193
   71SLPC   C31 6140   3.649   2.376   9.499 -0.2044  0.7905 -0.3802
   71SLPC   O32 6141   3.544   2.316   9.491 -0.2866  0.5504 -0.1249
   71SLPC   C32 6142   3.745   2.392   9.384  0.0674  0.4336 -0.5550
   71SLPC   H2X 6143   3.853   2.379   9.409  0.0131  1.3454  0.2254
   71SLPC   H2Y 6144   3.753   2.496   9.345  0.4933 -0.6820 -3.6678
   71SLPC   C23 6145   3.537   1.942   9.767 -0.3810 -0.3240  1.1244
   71SLPC   H3R 6146   3.477   1.917   9.857  0.2269  2.3577  2.3646
   71SLPC   H3S 6147   3.566   1.844   9.722  1.4521  0.0511  1.4130
   71SLPC   C24 6148   3.438   2.014   9.661 -0.0532  0.5951 -0.1239
   71SLPC   H4R 6149   3.477   2.005   9.557  0.9443  0.8478  0.2204
   71SLPC   H4S 6150   3.417   2.119   9.692 -3.4357 -0.0520  0.1521
   71SLPC   C25 6151   3.305   1.938   9.646  0.5353  0.5055 -0.2680
   71SLPC   H5R 6152   3.255   1.928   9.745 -0.2844  1.9439 -0.5107
   71SLPC   H5S 6153   3.327   1.834   9.612  2.8721  0.6329  0.6986
   71SLPC   C26 6154   3.220   2.000   9.538  0.4362 -0.5180  0.1698
   71SLPC   H6R 6155   3.280   2.017   9.446 -0.3351 -2.9275 -0.8520
   71SLPC   H6S 6156   3.191   2.101   9.576 -0.4088  0.4092 -2.6263
   71SLPC   C27 6157   3.100   1.918   9.507  0.2409  0.7512  0.0953
   71SLPC   H7R 6158   3.031   1.910   9.594 -0.3794 -1.4222 -0.5329
   71SLPC   H7S 6159   3.133   1.815   9.485 -0.2160  0.6546 -0.1487
   71SLPC   C28 6160   3.008   1.962   9.389 -0.5226  0.6556  0.0701
   71SLPC   H8R 6161   2.923   1.890   9.388  2.8556 -3.7086  0.3627
   71SLPC   H8S 6162   3.079   1.948   9.305 -1.7678 -2.3040 -0.6205
   71SLPC   C29 6163   2.955   2.096   9.401  0.1333 -0.3401 -0.0408
   71SLPC   H9R 6164   2.960   2.136   9.504 -2.6434  0.4846 -0.1553
   71SLPC  C210 6165   2.917   2.172   9.299 -0.5862  0.0891 -0.7555
   71SLPC  H10R 6166   2.863   2.264   9.326  0.5489  0.4675  0.3183
   71SLPC  C211 6167   2.922   2.148   9.152 -0.4883  0.1181 -0.2231
   71SLPC  H11R 6168   2.822   2.143   9.103  0.2515  0.7394 -1.8514
   71SLPC  H11S 6169   2.972   2.051   9.131 -1.3940 -0.2782 -0.5909
   71SLPC  C212 6170   2.988   2.259   9.084  0.1290  0.2765  0.5415
   71SLPC  H12R 6171   3.011   2.344   9.150 -1.7532  0.2125  1.3327
   71SLPC  C213 6172   2.994   2.266   8.956  0.2821 -0.3741 -0.0773
   71SLPC  H13R 6173   3.031   2.363   8.917  1.2267 -1.4708 -2.0868
   71SLPC  C214 6174   2.948   2.160   8.858  0.3235 -0.8812  1.0351
   71SLPC  H14R 6175   2.842   2.178   8.833  0.5584  0.9763  1.2483
   71SLPC  H14S 6176   2.957   2.058   8.903  2.0810 -1.3148 -0.1901
   71SLPC  C215 6177   3.045   2.154   8.738 -0.1321 -0.4236  1.0362
   71SLPC  H15R 6178   3.020   2.058   8.687  0.7156 -0.1114 -0.0075
   71SLPC  H15S 6179   3.145   2.133   8.782 -1.0328 -1.9973  2.4506
   71SLPC  C216 6180   3.035   2.269   8.627 -0.1835  0.3031 -0.0318
   71SLPC  H16R 6181   3.077   2.360   8.675  2.0202 -0.0047 -1.2328
   71SLPC  H16S 6182   2.933   2.286   8.588 -0.0622  0.7378 -0.1636
   71SLPC  C217 6183   3.131   2.242   8.510 -0.0182 -0.5476  0.1294
   71SLPC  H17R 6184   3.107   2.154   8.447 -3.3294 -1.0167  1.8116
   71SLPC  H17S 6185   3.231   2.217   8.551 -0.4482  1.4874  2.7059
   71SLPC  C218 6186   3.138   2.366   8.425 -0.1268 -0.2371 -0.8275
   71SLPC  H18R 6187   3.191   2.451   8.473  0.0617  0.3725 -2.0496
   71SLPC  H18S 6188   3.034   2.398   8.402  0.5244  1.2942 -1.8698
   71SLPC  H18T 6189   3.195   2.350   8.331 -2.5332  2.2418 -2.8820
   71SLPC   C33 6190   3.702   2.300   9.265 -0.5809 -0.5258  0.1063
   71SLPC   H3X 6191   3.604   2.347   9.243  0.4412  2.1607  0.7985
   71SLPC   H3Y 6192   3.698   2.197   9.305 -0.9902  0.1248  1.8260
   71SLPC   C34 6193   3.800   2.299   9.137  1.1062 -0.5574 -0.8333
   71SLPC   H4X 6194   3.896   2.252   9.166  0.4051 -0.3650  2.2494
   71SLPC   H4Y 6195   3.812   2.408   9.118  0.4699 -0.0685  1.2665
   71SLPC   C35 6196   3.741   2.213   9.021 -0.1980  0.1845  0.0687
   71SLPC   H5X 6197   3.639   2.251   8.999  0.2202  0.3704 -1.6749
   71SLPC   H5Y 6198   3.738   2.107   9.055 -1.6177 -0.8822 -2.9995
   71SLPC   C36 6199   3.816   2.222   8.890  0.4507 -0.0864  0.7979
   71SLPC   H6X 6200   3.919   2.188   8.912 -1.2015 -4.4385  3.1310
   71SLPC   H6Y 6201   3.808   2.328   8.857  2.0227  0.3649  1.7477
   71SLPC   C37 6202   3.750   2.134   8.778 -0.6584 -0.1835 -1.2166
   71SLPC   H7X 6203   3.640   2.150   8.776 -0.4787  1.6589  0.4765
   71SLPC   H7Y 6204   3.769   2.030   8.811 -1.3203  0.2216  0.5638
   71SLPC   C38 6205   3.799   2.165   8.640  0.0872 -0.1706  0.0534
   71SLPC   H8X 6206   3.907   2.140   8.632 -0.1023 -0.4025 -2.5140
   71SLPC   H8Y 6207   3.794   2.273   8.611 -2.4583 -0.1248  0.5149
   71SLPC   C39 6208   3.731   2.087   8.532  0.3768 -0.5717 -0.3963
   71SLPC   H9X 6209   3.628   2.127   8.526  0.8438  0.8095  0.2723
   71SLPC   H9Y 6210   3.726   1.980   8.559  0.6184 -0.6517 -0.6603
   71SLPC  C310 6211   3.795   2.115   8.399  0.1903 -0.0127  0.2436
   71SLPC  H10X 6212   3.903   2.104   8.418  0.3008  0.3465 -0.1537
   71SLPC  H10Y 6213   3.782   2.218   8.359  1.0600 -0.0846 -0.2425
   71SLPC  C311 6214   3.755   2.007   8.296 -0.5679 -0.0494 -0.6111
   71SLPC  H11X 6215   3.785   1.911   8.342 -0.7967  0.9074  1.6646
   71SLPC  H11Y 6216   3.806   2.023   8.198 -2.2976  2.0797 -1.2557
   71SLPC  C312 6217   3.606   1.999   8.262  0.8605  0.6836  0.5741
   71SLPC  H12X 6218   3.543   1.989   8.353  1.9386  2.7885  1.6318
   71SLPC  H12Y 6219   3.599   1.908   8.197 -1.9200  0.1977  1.4004
   71SLPC  C313 6220   3.547   2.124   8.191  0.9481 -0.3462 -0.3812
   71SLPC  H13X 6221   3.600   2.138   8.095 -0.3702 -0.4602 -1.1482
   71SLPC  H13Y 6222   3.544   2.217   8.251 -3.2306  0.8993 -2.1186
   71SLPC  C314 6223   3.394   2.112   8.161  0.3447  0.2528 -0.0816
   71SLPC  H14X 6224   3.342   2.062   8.245  0.2612 -0.8875 -0.7897
   71SLPC  H14Y 6225   3.391   2.036   8.080  0.7616 -0.6689  0.7436
   71SLPC  C315 6226   3.322   2.237   8.102  0.3133 -0.9720 -0.3160
   71SLPC  H15X 6227   3.394   2.272   8.024 -0.3994  0.5865 -0.2882
   71SLPC  H15Y 6228   3.307   2.325   8.167 -2.4419 -1.3653 -0.3287
   71SLPC  C316 6229   3.189   2.196   8.040 -0.4079  0.3772 -0.3724
   71SLPC  H16X 6230   3.130   2.148   8.121 -2.2303 -1.1194 -2.5023
   71SLPC  H16Y 6231   3.203   2.112   7.969  1.7399 -0.7970  1.2873
   71SLPC  C317 6232   3.116   2.315   7.979  0.2543  0.1985 -0.3239
   71SLPC  H17X 6233   3.021   2.279   7.935 -0.0171 -2.7274  2.2859
   71SLPC  H17Y 6234   3.170   2.338   7.885 -0.3824  0.0555 -0.7265
   71SLPC  C318 6235   3.094   2.446   8.068  0.8003  0.0064  0.5730
   71SLPC  H18X 6236   3.020   2.506   8.009  0.2990 -0.5399  0.6341
   71SLPC  H18Y 6237   3.184   2.509   8.083  0.6495  0.0598  1.2708
   71SLPC  H18Z 6238   3.054   2.412   8.166 -1.6533 -1.8903 -0.9577
   72SLPC     N 6239   5.516   5.253   9.676  0.6886  0.5802  0.3475
   72SLPC   C13 6240   5.591   5.132   9.725  0.6421 -0.7856  0.1027
   72SLPC  H13A 6241   5.549   5.095   9.817  0.3610 -1.1411 -0.1651
   72SLPC  H13B 6242   5.583   5.049   9.656  0.5307 -1.0326  0.4106
   72SLPC  H13C 6243   5.697   5.148   9.741  1.0641 -4.7420  2.6518
   72SLPC   C14 6244   5.370   5.225   9.683  0.2410  0.3620  0.5773
   72SLPC  H14A 6245   5.341   5.181   9.777  0.2327  0.9800  0.8695
   72SLPC  H14B 6246   5.318   5.319   9.691 -1.9056 -0.5579 -1.6585
   72SLPC  H14C 6247   5.331   5.161   9.606 -0.4964 -0.0027  1.2486
   72SLPC   C15 6248   5.547   5.280   9.532  0.4308  0.7621 -0.1762
   72SLPC  H15A 6249   5.490   5.364   9.493  0.4711  0.3851 -1.0819
   72SLPC  H15B 6250   5.651   5.307   9.519  0.4969  1.1994  1.1456
   72SLPC  H15C 6251   5.519   5.195   9.471 -0.6560  2.2598 -1.9077
   72SLPC   C12 6252   5.547   5.373   9.758 -0.1135  1.1327  0.4734
   72SLPC  H12A 6253   5.519   5.344   9.858 -1.3167  1.5323  0.2724
   72SLPC  H12B 6254   5.478   5.455   9.742  0.0358  1.0815 -0.4589
   72SLPC   C11 6255   5.687   5.432   9.745 -0.1430 -0.4218  0.3711
   72SLPC  H11A 6256   5.754   5.344   9.735 -0.3722 -0.8121  2.0765
   72SLPC  H11B 6257   5.696   5.484   9.843  0.3033 -1.7107  1.0279
   72SLPC     P 6258   5.639   5.670   9.658 -0.0411 -0.0173 -0.4137
   72SLPC   O13 6259   5.491   5.669   9.652  0.2115  0.0628  0.1737
   72SLPC   O14 6260   5.720   5.731   9.770  0.5607  0.3541  0.3490
   72SLPC   O12 6261   5.696   5.519   9.628 -0.4931 -0.9027 -0.2584
   72SLPC   O11 6262   5.679   5.733   9.523 -0.2335 -0.9879  0.2718
   72SLPC    C1 6263   5.751   5.679   9.412  0.5202 -0.7473  0.5080
   72SLPC    HA 6264   5.850   5.645   9.448  0.9992 -0.8540 -0.8759
   72SLPC    HB 6265   5.703   5.589   9.369 -0.0433  0.7339 -2.1962
   72SLPC    C2 6266   5.771   5.787   9.304 -0.3689  0.3237  0.1474
   72SLPC    HS 6267   5.815   5.870   9.364  0.8145  0.3226 -0.6691
   72SLPC   O21 6268   5.635   5.815   9.254  0.5123 -0.1776  0.1966
   72SLPC   C21 6269   5.616   5.933   9.193 -0.7632 -0.1123  0.9587
   72SLPC   O22 6270   5.704   6.018   9.177  0.0675  0.4035 -0.1238
   72SLPC   C22 6271   5.467   5.946   9.169  0.5412  0.1091  0.3328
   72SLPC   H2R 6272   5.428   5.843   9.163 -1.2512  0.5096  3.0500
   72SLPC   H2S 6273   5.421   5.991   9.260 -3.1366 -0.4853 -1.0422
   72SLPC    C3 6274   5.872   5.745   9.194  0.1092  0.3294 -0.0802
   72SLPC    HX 6275   5.973   5.725   9.236  0.2811  2.2591  0.5290
   72SLPC    HY 6276   5.904   5.833   9.133 -2.2757  1.0482 -0.3970
   72SLPC   O31 6277   5.826   5.645   9.114  0.4831 -0.1716  0.1519
   72SLPC   C31 6278   5.850   5.525   9.141 -0.7310  0.9249  0.1958
   72SLPC   O32 6279   5.910   5.477   9.239  0.3704 -0.1139 -0.7957
   72SLPC   C32 6280   5.790   5.422   9.032 -0.4648 -0.4182  0.3097
   72SLPC   H2X 6281   5.876   5.355   9.008 -0.6127  0.0779 -1.7579
   72SLPC   H2Y 6282   5.774   5.494   8.950  1.1238  1.2115  1.3543
   72SLPC   C23 6283   5.441   6.025   9.038 -0.3401 -0.2574  0.3161
   72SLPC   H3R 6284   5.467   6.132   9.050  1.1482 -0.6786  1.1015
   72SLPC   H3S 6285   5.333   6.028   9.012 -0.1514  1.2520 -0.3834
   72SLPC   C24 6286   5.508   5.970   8.907 -0.0870 -0.2094  0.2614
   72SLPC   H4R 6287   5.485   5.864   8.880  2.5254 -0.7084 -0.2869
   72SLPC   H4S 6288   5.616   5.987   8.929  0.6385 -2.8583 -0.8206
   72SLPC   C25 6289   5.487   6.061   8.780  1.0781  0.4787  0.4872
   72SLPC   H5R 6290   5.546   6.154   8.796 -1.0060  1.9022  0.2142
   72SLPC   H5S 6291   5.382   6.082   8.753  1.4722  0.3555 -1.2833
   72SLPC   C26 6292   5.543   5.991   8.654 -0.4284 -0.0925  0.5716
   72SLPC   H6R 6293   5.485   5.903   8.621  1.8797 -0.8718 -1.7742
   72SLPC   H6S 6294   5.649   5.962   8.675  0.4088  0.4548 -2.4692
   72SLPC   C27 6295   5.558   6.087   8.535 -0.1646  0.4013 -0.4726
   72SLPC   H7R 6296   5.638   6.162   8.551  0.0563 -0.3395  2.5162
   72SLPC   H7S 6297   5.459   6.132   8.513 -0.9768  0.3545  2.5653
   72SLPC   C28 6298   5.605   6.007   8.408 -0.0380  0.2840 -0.4254
   72SLPC   H8R 6299   5.603   6.080   8.324  0.9544 -0.2551 -0.9293
   72SLPC   H8S 6300   5.530   5.927   8.392  0.3978 -0.0399 -0.8689
   72SLPC   C29 6301   5.745   5.963   8.410 -0.4445 -0.6829 -0.9798
   72SLPC   H9R 6302   5.815   6.046   8.426 -0.4004 -1.0289  0.9420
   72SLPC  C210 6303   5.796   5.841   8.423 -0.6074  1.1381  0.1124
   72SLPC  H10R 6304   5.904   5.824   8.416 -0.8323 -0.8040  0.7428
   72SLPC  C211 6305   5.725   5.710   8.441 -0.1492  0.4257  0.2481
   72SLPC  H11R 6306   5.794   5.635   8.398 -0.0841  1.7066 -2.0582
   72SLPC  H11S 6307   5.633   5.696   8.379 -0.9662  3.3354  0.6475
   72SLPC  C212 6308   5.696   5.683   8.590  0.3581  0.2182 -0.0468
   72SLPC  H12R 6309   5.592   5.708   8.613  0.1015 -1.6326  0.9665
   72SLPC  C213 6310   5.770   5.607   8.667 -0.2589  0.1790  0.5263
   72SLPC  H13R 6311   5.735   5.582   8.769 -2.0705 -2.0028 -0.5375
   72SLPC  C214 6312   5.903   5.553   8.633  0.5082 -0.0439  0.1296
   72SLPC  H14R 6313   5.910   5.535   8.523 -0.2714  0.6525 -0.0332
   72SLPC  H14S 6314   5.920   5.451   8.674 -0.2710 -1.0725 -1.9488
   72SLPC  C215 6315   6.022   5.646   8.668 -0.5030 -0.3591  0.5179
   72SLPC  H15R 6316   6.011   5.746   8.621 -2.4461 -0.3565  0.9022
   72SLPC  H15S 6317   6.109   5.605   8.613 -1.2389  1.2274 -1.9693
   72SLPC  C216 6318   6.045   5.672   8.818  0.4711 -0.1839 -0.8721
   72SLPC  H16R 6319   5.975   5.602   8.868  0.0040  1.4546  0.8188
   72SLPC  H16S 6320   6.024   5.774   8.856 -0.3679  0.3891 -2.7496
   72SLPC  C217 6321   6.181   5.628   8.862 -0.1366 -0.9006  0.1455
   72SLPC  H17R 6322   6.256   5.688   8.806  2.3126 -4.2402 -0.4908
   72SLPC  H17S 6323   6.205   5.522   8.836  1.5593 -0.4010 -0.4802
   72SLPC  C218 6324   6.186   5.630   9.020  0.5362  0.0998 -1.3542
   72SLPC  H18R 6325   6.289   5.601   9.051 -0.2855 -0.1609  1.3884
   72SLPC  H18S 6326   6.114   5.554   9.055  1.7748 -0.8305 -0.7189
   72SLPC  H18T 6327   6.167   5.731   9.063 -0.6166 -1.6518  2.6840
   72SLPC   C33 6328   5.669   5.339   9.072 -0.2269  0.1497  0.1729
   72SLPC   H3X 6329   5.702   5.262   9.146 -2.0907  0.5579  1.5081
   72SLPC   H3Y 6330   5.636   5.278   8.985 -0.2806 -0.3003  0.5010
   72SLPC   C34 6331   5.553   5.423   9.137 -0.4765  0.3710 -0.3362
   72SLPC   H4X 6332   5.594   5.491   9.215 -2.6206  1.3326  0.0346
   72SLPC   H4Y 6333   5.482   5.351   9.183  1.4424 -2.4895 -1.5700
   72SLPC   C35 6334   5.466   5.508   9.040  0.4270  0.2680 -0.0480
   72SLPC   H5X 6335   5.529   5.556   8.962  0.3673  0.5678  0.0868
   72SLPC   H5Y 6336   5.431   5.594   9.102 -0.0802 -0.3864  0.5886
   72SLPC   C36 6337   5.353   5.443   8.967 -0.2111  0.3638 -0.1130
   72SLPC   H6X 6338   5.286   5.403   9.047  0.5270  0.7882  0.7315
   72SLPC   H6Y 6339   5.398   5.359   8.910 -3.1191  0.7396 -3.2585
   72SLPC   C37 6340   5.272   5.528   8.868  0.3369  0.8723 -0.7615
   72SLPC   H7X 6341   5.238   5.619   8.923  1.6107  3.2362 -3.5795
   72SLPC   H7Y 6342   5.186   5.474   8.823  1.6165 -2.0298  0.0455
   72SLPC   C38 6343   5.355   5.568   8.740 -0.4176  0.0242  0.1936
   72SLPC   H8X 6344   5.406   5.475   8.705 -0.5226 -0.4229  1.1885
   72SLPC   H8Y 6345   5.443   5.629   8.767  0.4378  0.0447 -2.4163
   72SLPC   C39 6346   5.283   5.640   8.622 -0.6224 -0.1772  0.3871
   72SLPC   H9X 6347   5.341   5.638   8.528  0.4420 -0.4358  1.0373
   72SLPC   H9Y 6348   5.271   5.750   8.633  4.1182  0.4942  1.0352
   72SLPC  C310 6349   5.147   5.579   8.588  0.2479 -0.3234  0.3841
   72SLPC  H10X 6350   5.101   5.639   8.506  1.8352  0.1422 -0.2031
   72SLPC  H10Y 6351   5.081   5.574   8.677 -1.3315 -2.8864 -0.8119
   72SLPC  C311 6352   5.144   5.438   8.528 -0.3497 -0.0843 -1.3585
   72SLPC  H11X 6353   5.097   5.369   8.601  1.0464 -0.4358 -0.7633
   72SLPC  H11Y 6354   5.250   5.404   8.522  0.1579  0.7447  1.3783
   72SLPC  C312 6355   5.071   5.417   8.392  0.7038 -0.3015 -1.0587
   72SLPC  H12X 6356   5.024   5.511   8.355 -0.4144 -0.2774  0.3728
   72SLPC  H12Y 6357   4.989   5.344   8.409 -0.0370  1.2435  2.8315
   72SLPC  C313 6358   5.171   5.378   8.285 -0.2396 -0.4822  1.0135
   72SLPC  H13X 6359   5.215   5.279   8.312 -2.1502 -1.0019  2.4556
   72SLPC  H13Y 6360   5.256   5.449   8.290  0.6157 -1.2126 -1.4792
   72SLPC  C314 6361   5.112   5.396   8.145 -0.0858 -0.4668 -0.0537
   72SLPC  H14X 6362   5.063   5.496   8.144  0.0428 -0.3957  0.7168
   72SLPC  H14Y 6363   5.034   5.319   8.130  1.8765 -3.1883  2.5817
   72SLPC  C315 6364   5.221   5.381   8.040 -0.1476  0.5045 -0.3351
   72SLPC  H15X 6365   5.254   5.276   8.023  0.3210  0.3513  1.2816
   72SLPC  H15Y 6366   5.317   5.421   8.081  2.0984 -2.5069 -2.2365
   72SLPC  C316 6367   5.191   5.460   7.911  0.1897 -0.1907 -0.0693
   72SLPC  H16X 6368   5.278   5.479   7.844 -2.1696 -0.8923 -3.5564
   72SLPC  H16Y 6369   5.156   5.563   7.937 -1.8678 -0.7535 -0.4441
   72SLPC  C317 6370   5.079   5.386   7.832  0.1010  0.5258  0.1248
   72SLPC  H17X 6371   5.080   5.279   7.861 -1.0478  0.2607 -0.7396
   72SLPC  H17Y 6372   5.110   5.380   7.725  0.4121  1.4989  0.1506
   72SLPC  C318 6373   4.941   5.455   7.852  0.5436  0.5746 -0.1004
   72SLPC  H18X 6374   4.857   5.388   7.822 -0.4938  1.1947  1.3160
   72SLPC  H18Y 6375   4.929   5.550   7.795 -0.8992 -0.3558 -1.4443
   72SLPC  H18Z 6376   4.930   5.469   7.961 -2.9657 -0.1233 -0.2413
   73SLPC     N 6377   6.385   5.435  10.015 -0.3314  0.1219  0.3485
   73SLPC   C13 6378   6.506   5.461   9.920 -0.2440  0.3382 -0.2613
   73SLPC  H13A 6379   6.500   5.555   9.866  0.9348  0.9315  0.6005
   73SLPC  H13B 6380   6.599   5.454   9.974 -1.5377  2.1850  2.4325
   73SLPC  H13C 6381   6.502   5.382   9.847  2.5014 -0.5343  0.4316
   73SLPC   C14 6382   6.265   5.489   9.951  0.8099  0.8500  1.1374
   73SLPC  H14A 6383   6.173   5.451   9.993  0.5740  1.9240  1.6404
   73SLPC  H14B 6384   6.263   5.597   9.959  2.0219  0.9603  0.2990
   73SLPC  H14C 6385   6.260   5.462   9.847 -1.2987  0.3304  1.3274
   73SLPC   C15 6386   6.415   5.508  10.138 -0.2950  0.5141 -0.0683
   73SLPC  H15A 6387   6.511   5.484  10.182 -0.5156  0.3597  0.3383
   73SLPC  H15B 6388   6.421   5.614  10.118  3.2518  0.5124  0.3725
   73SLPC  H15C 6389   6.341   5.486  10.214 -1.9251  0.1789 -1.6926
   73SLPC   C12 6390   6.389   5.285  10.049  0.0730 -0.0028  0.4159
   73SLPC  H12A 6391   6.343   5.280  10.147 -1.1225  2.7019  0.0928
   73SLPC  H12B 6392   6.487   5.248  10.072  0.1162 -1.4973 -1.8685
   73SLPC   C11 6393   6.346   5.186   9.939 -0.1702 -0.5115 -0.1144
   73SLPC  H11A 6394   6.241   5.206   9.906 -0.4008 -0.7388  0.4644
   73SLPC  H11B 6395   6.344   5.084   9.984 -0.9425 -0.1366  0.7197
   73SLPC     P 6396   6.584   5.119   9.849  0.2277  0.1952 -0.4020
   73SLPC   O13 6397   6.699   5.207   9.813  0.5076 -0.1942 -0.2946
   73SLPC   O14 6398   6.588   5.046   9.983  0.5419  0.4711  0.2302
   73SLPC   O12 6399   6.440   5.186   9.834  0.7757 -0.6372 -0.8073
   73SLPC   O11 6400   6.582   5.012   9.736  0.6910  0.1382  0.0791
   73SLPC    C1 6401   6.524   5.047   9.614 -0.3220  0.5587  0.3780
   73SLPC    HA 6402   6.413   5.050   9.623 -0.4437  0.9581 -1.0571
   73SLPC    HB 6403   6.545   5.148   9.574 -2.3579  0.7522 -0.3160
   73SLPC    C2 6404   6.554   4.931   9.510  0.2416  0.7902  0.6975
   73SLPC    HS 6405   6.523   4.833   9.554  0.4184  1.3803  2.2126
   73SLPC   O21 6406   6.692   4.929   9.467  0.3498  0.1968 -0.0793
   73SLPC   C21 6407   6.726   4.812   9.405  0.8784  0.1623  0.7585
   73SLPC   O22 6408   6.658   4.710   9.411  0.1026 -0.1510  0.1864
   73SLPC   C22 6409   6.852   4.823   9.323  0.8692  0.2159  0.3665
   73SLPC   H2R 6410   6.824   4.872   9.227  2.5756  1.0052  0.2253
   73SLPC   H2S 6411   6.924   4.885   9.381  2.5752 -1.3188 -0.0039
   73SLPC    C3 6412   6.453   4.943   9.389  0.8277 -0.2673  0.3829
   73SLPC    HX 6413   6.496   5.026   9.329 -1.2943  2.1192  1.8946
   73SLPC    HY 6414   6.352   4.979   9.419  1.2129 -0.0135  1.4030
   73SLPC   O31 6415   6.444   4.824   9.309 -0.6353 -0.4594 -0.0441
   73SLPC   C31 6416   6.351   4.737   9.363 -0.8706  0.4636  0.5683
   73SLPC   O32 6417   6.277   4.768   9.455  0.1690  0.2280  0.6640
   73SLPC   C32 6418   6.345   4.611   9.284 -0.2697 -0.1446 -0.1251
   73SLPC   H2X 6419   6.358   4.526   9.355  4.0259  0.0519 -0.4348
   73SLPC   H2Y 6420   6.437   4.601   9.223  0.6525 -1.4498  1.3885
   73SLPC   C23 6421   6.902   4.683   9.281 -0.5148 -0.1158  0.6753
   73SLPC   H3R 6422   6.836   4.621   9.217  1.3234 -1.3776 -0.0798
   73SLPC   H3S 6423   6.921   4.628   9.376 -2.8014  1.7554  2.3587
   73SLPC   C24 6424   7.039   4.688   9.205 -0.4429 -0.1030 -0.1714
   73SLPC   H4R 6425   7.067   4.581   9.214  0.8150 -0.1244 -3.2761
   73SLPC   H4S 6426   7.113   4.756   9.251 -3.1782  2.4077  0.8551
   73SLPC   C25 6427   7.020   4.713   9.054  0.5259  0.5100  0.4837
   73SLPC   H5R 6428   6.918   4.676   9.034  1.0903 -0.9869  0.2722
   73SLPC   H5S 6429   7.078   4.637   8.997 -0.5946  0.5799 -0.7737
   73SLPC   C26 6430   7.041   4.846   8.996 -0.7794 -0.2748 -0.0316
   73SLPC   H6R 6431   6.957   4.911   9.030 -1.8482 -1.6605  0.0682
   73SLPC   H6S 6432   7.040   4.833   8.885  0.0391 -0.4914 -0.0219
   73SLPC   C27 6433   7.182   4.897   9.033  0.1584  0.7400 -0.3637
   73SLPC   H7R 6434   7.269   4.832   9.010  0.9902  1.4267  0.7607
   73SLPC   H7S 6435   7.191   4.919   9.141  1.5162 -1.7260  0.1137
   73SLPC   C28 6436   7.219   5.029   8.961 -0.6793 -0.0276 -0.3750
   73SLPC   H8R 6437   7.222   4.999   8.854 -1.8907  2.2212 -1.1172
   73SLPC   H8S 6438   7.323   5.055   8.988  0.3949 -2.3578 -1.9680
   73SLPC   C29 6439   7.120   5.142   8.992  0.3563 -0.3707 -0.1781
   73SLPC   H9R 6440   7.126   5.188   9.092 -0.3746 -2.0720  0.6827
   73SLPC  C210 6441   7.025   5.196   8.909  0.1812 -0.5049  1.0519
   73SLPC  H10R 6442   6.962   5.276   8.950  0.2382 -0.7106  1.5427
   73SLPC  C211 6443   6.991   5.162   8.765  0.3513  1.1938  0.9748
   73SLPC  H11R 6444   6.888   5.121   8.757  1.2378 -0.9189 -0.5665
   73SLPC  H11S 6445   7.056   5.077   8.735 -1.9371  0.7895 -3.5518
   73SLPC  C212 6446   7.003   5.278   8.667  0.1199 -0.5594 -0.4706
   73SLPC  H12R 6447   6.940   5.363   8.698  0.3391  0.5050 -2.7721
   73SLPC  C213 6448   7.082   5.287   8.561  0.0671  0.3401 -0.2452
   73SLPC  H13R 6449   7.080   5.371   8.490  3.0241 -1.2723 -2.4577
   73SLPC  C214 6450   7.158   5.172   8.500 -0.2729 -0.1527 -0.4020
   73SLPC  H14R 6451   7.099   5.078   8.508  0.2307 -0.5575 -1.4246
   73SLPC  H14S 6452   7.251   5.158   8.559 -0.1536  0.7911 -0.3440
   73SLPC  C215 6453   7.200   5.182   8.346  0.0767  0.4042 -0.4784
   73SLPC  H15R 6454   7.243   5.284   8.336  1.6554 -0.1028  0.7486
   73SLPC  H15S 6455   7.107   5.188   8.286 -0.0583 -0.8755 -0.4147
   73SLPC  C216 6456   7.292   5.076   8.309 -0.0538  0.3241  0.8850
   73SLPC  H16R 6457   7.245   4.977   8.331 -0.5513  0.8273  2.1657
   73SLPC  H16S 6458   7.383   5.072   8.373 -0.9650  0.8952  2.2603
   73SLPC  C217 6459   7.326   5.072   8.156 -0.4107  0.2189 -0.0480
   73SLPC  H17R 6460   7.388   5.162   8.135  1.1637 -0.4592  1.4258
   73SLPC  H17S 6461   7.233   5.084   8.097  0.1865  3.2125 -0.5643
   73SLPC  C218 6462   7.405   4.950   8.110 -0.1458  0.7558  0.2255
   73SLPC  H18R 6463   7.355   4.853   8.131 -1.6210  1.5571  0.5421
   73SLPC  H18S 6464   7.506   4.948   8.155 -0.0609 -2.7004  0.1926
   73SLPC  H18T 6465   7.410   4.962   8.000 -0.3196  0.7682  0.2188
   73SLPC   C33 6466   6.214   4.616   9.199  0.4820 -0.1873  0.3052
   73SLPC   H3X 6467   6.134   4.663   9.261  0.4769 -1.5170  1.3484
   73SLPC   H3Y 6468   6.180   4.515   9.169 -1.3749  0.5344 -0.2185
   73SLPC   C34 6469   6.233   4.696   9.061  0.5728  0.3325 -0.2254
   73SLPC   H4X 6470   6.290   4.625   8.997  0.7136  0.0595  0.2012
   73SLPC   H4Y 6471   6.292   4.785   9.092  1.5659 -0.6525  0.7856
   73SLPC   C35 6472   6.109   4.736   8.985  0.3985 -0.2875 -0.0003
   73SLPC   H5X 6473   6.052   4.813   9.040  0.5225  0.5720 -1.0381
   73SLPC   H5Y 6474   6.042   4.652   8.958  0.2018  0.9767 -4.0112
   73SLPC   C36 6475   6.161   4.819   8.862  0.1155  0.0051  0.4632
   73SLPC   H6X 6476   6.220   4.752   8.796 -2.6724 -1.6941 -0.4962
   73SLPC   H6Y 6477   6.237   4.893   8.895 -0.0290  0.3886 -0.0571
   73SLPC   C37 6478   6.049   4.884   8.782 -0.5980 -0.0862 -0.4653
   73SLPC   H7X 6479   5.978   4.939   8.847 -1.6151 -0.4666 -1.2291
   73SLPC   H7Y 6480   5.995   4.800   8.733 -0.5125 -1.1272  1.1203
   73SLPC   C38 6481   6.092   4.987   8.678  0.3016  0.0606 -0.2908
   73SLPC   H8X 6482   6.012   4.987   8.601 -1.9136  0.0410  1.8775
   73SLPC   H8Y 6483   6.183   4.954   8.625  0.0972 -2.6158  0.8648
   73SLPC   C39 6484   6.116   5.122   8.744 -0.1308  0.5694  0.3550
   73SLPC   H9X 6485   6.177   5.095   8.833 -1.1137 -1.8997  0.3757
   73SLPC   H9Y 6486   6.023   5.164   8.786  0.5858  1.7071  0.8401
   73SLPC  C310 6487   6.190   5.230   8.661  0.9003  0.1706  0.5428
   73SLPC  H10X 6488   6.206   5.326   8.715 -2.6384  1.1430  0.0542
   73SLPC  H10Y 6489   6.133   5.250   8.568  0.5374  0.7869  0.8940
   73SLPC  C311 6490   6.329   5.182   8.612  0.0559  0.3316 -0.1199
   73SLPC  H11X 6491   6.316   5.094   8.547 -0.2977 -2.8680  3.8573
   73SLPC  H11Y 6492   6.386   5.147   8.702 -0.9668 -1.2498 -0.0528
   73SLPC  C312 6493   6.394   5.301   8.545  0.1610 -0.3009  0.1108
   73SLPC  H12X 6494   6.404   5.384   8.618  1.4717  0.4214 -0.8593
   73SLPC  H12Y 6495   6.325   5.339   8.466  2.3227  1.0475 -1.2089
   73SLPC  C313 6496   6.545   5.279   8.500  0.7925 -0.2161  0.2522
   73SLPC  H13X 6497   6.547   5.193   8.429 -0.4722 -2.0909  2.3663
   73SLPC  H13Y 6498   6.604   5.243   8.587  0.5021  1.2869  1.0857
   73SLPC  C314 6499   6.601   5.405   8.428  0.4059  0.0555 -0.6225
   73SLPC  H14X 6500   6.600   5.492   8.497 -0.2424 -0.8493  0.5292
   73SLPC  H14Y 6501   6.528   5.436   8.350 -1.3545 -0.4430  0.7821
   73SLPC  C315 6502   6.733   5.368   8.361 -0.5935 -0.8662  0.6150
   73SLPC  H15X 6503   6.717   5.287   8.286  1.1999 -0.5686 -0.1466
   73SLPC  H15Y 6504   6.791   5.315   8.439  0.6794  0.5773  0.6958
   73SLPC  C316 6505   6.813   5.489   8.304 -0.4814 -0.3327  0.9301
   73SLPC  H16X 6506   6.920   5.462   8.292 -0.5229  0.1662 -0.9839
   73SLPC  H16Y 6507   6.808   5.569   8.380  1.7854  1.6490 -0.8253
   73SLPC  C317 6508   6.777   5.542   8.167 -0.4995  0.2618  0.2557
   73SLPC  H17X 6509   6.667   5.555   8.176 -0.5179 -0.0253  0.4585
   73SLPC  H17Y 6510   6.798   5.463   8.091 -1.1973  0.6526 -0.3642
   73SLPC  C318 6511   6.840   5.672   8.125 -0.4571  0.4631  0.0514
   73SLPC  H18X 6512   6.784   5.760   8.165  0.4371  0.7204  0.7824
   73SLPC  H18Y 6513   6.832   5.679   8.014  1.5148  0.8586 -0.1026
   73SLPC  H18Z 6514   6.945   5.686   8.159 -0.6595  0.7061  0.5874
   74SLPC     N 6515   6.571   0.103   9.892  0.5216  0.1418 -0.4090
   74SLPC   C13 6516   6.590   0.242   9.848  0.4143  0.9379 -0.0495
   74SLPC  H13A 6517   6.664   0.291   9.910  1.0231 -3.0317  2.7331
   74SLPC  H13B 6518   6.634   0.237   9.749 -1.2842 -2.5537 -0.7954
   74SLPC  H13C 6519   6.503   0.304   9.834 -0.5548 -0.3692  0.0332
   74SLPC   C14 6520   6.481   0.108  10.017  1.0662 -0.1097  0.5655
   74SLPC  H14A 6521   6.458   0.014  10.066  0.4698  0.8917  2.2988
   74SLPC  H14B 6522   6.530   0.159  10.099  2.6210 -0.8750  0.1586
   74SLPC  H14C 6523   6.384   0.148   9.993  1.0080  0.0566  1.0622
   74SLPC   C15 6524   6.710   0.053   9.928  0.8355 -0.0188  0.4103
   74SLPC  H15A 6525   6.770   0.034   9.840  0.7721  0.0118  0.3609
   74SLPC  H15B 6526   6.767   0.120   9.992  1.4171  0.4943 -0.6139
   74SLPC  H15C 6527   6.706  -0.044   9.975  0.0733 -0.8348 -1.2665
   74SLPC   C12 6528   6.511   0.021   9.783 -0.1061 -0.4607  1.1255
   74SLPC  H12A 6529   6.504  -0.084   9.805 -2.0811 -1.9805 -4.7378
   74SLPC  H12B 6530   6.589   0.032   9.709  0.6480 -0.1997  1.9528
   74SLPC   C11 6531   6.378   0.077   9.728 -0.0240  0.2265  0.2290
   74SLPC  H11A 6532   6.359   0.025   9.632  2.4111 -0.8000  0.2326
   74SLPC  H11B 6533   6.370   0.183   9.696 -1.8446  0.0902  0.0983
   74SLPC     P 6534   6.233  -0.100   9.836  0.1181  0.6005  0.0382
   74SLPC   O13 6535   6.336  -0.179   9.904 -0.0603  0.3465 -0.0633
   74SLPC   O14 6536   6.099  -0.098   9.899  0.1675 -0.5655 -0.4599
   74SLPC   O12 6537   6.274   0.048   9.821  0.0935  0.4449 -0.2094
   74SLPC   O11 6538   6.216  -0.152   9.691 -0.3885  0.0239 -0.1511
   74SLPC    C1 6539   6.222  -0.285   9.646  0.0525  0.6770  0.6726
   74SLPC    HA 6540   6.322  -0.329   9.667  1.1651  1.9260 -1.6613
   74SLPC    HB 6541   6.154  -0.345   9.709  0.6494 -1.2616 -0.4400
   74SLPC    C2 6542   6.170  -0.287   9.501  0.5594  0.5596 -0.1078
   74SLPC    HS 6543   6.167  -0.394   9.470 -1.0848 -0.0042  1.8300
   74SLPC   O21 6544   6.243  -0.214   9.397  0.0784 -0.2235 -0.0654
   74SLPC   C21 6545   6.360  -0.253   9.379 -0.5731  0.4193  0.3586
   74SLPC   O22 6546   6.412  -0.353   9.425 -0.6531  0.8753  0.3432
   74SLPC   C22 6547   6.420  -0.153   9.281  0.3774  0.5135 -0.0911
   74SLPC   H2R 6548   6.377  -0.053   9.300  0.9091  0.6501  0.4104
   74SLPC   H2S 6549   6.525  -0.147   9.317  0.7376 -4.3979  0.3558
   74SLPC    C3 6550   6.022  -0.237   9.495  0.1696  0.3532  0.0421
   74SLPC    HX 6551   6.026  -0.132   9.531  2.7904  0.4955 -0.5198
   74SLPC    HY 6552   5.972  -0.304   9.568 -2.3158  2.0487  0.0288
   74SLPC   O31 6553   5.965  -0.255   9.364  0.0199 -0.2054 -0.4206
   74SLPC   C31 6554   5.948  -0.141   9.292  0.2947 -0.3191  0.1067
   74SLPC   O32 6555   5.977  -0.030   9.330 -0.0609  0.2799  0.3463
   74SLPC   C32 6556   5.885  -0.181   9.162  0.1228 -0.1270 -0.5122
   74SLPC   H2X 6557   5.787  -0.131   9.145  0.1107  0.3680  0.8924
   74SLPC   H2Y 6558   5.858  -0.288   9.167 -3.4436  0.6288 -0.6101
   74SLPC   C23 6559   6.432  -0.196   9.136 -0.5260  0.2243 -0.0367
   74SLPC   H3R 6560   6.329  -0.211   9.098 -0.2945  0.6667 -0.8707
   74SLPC   H3S 6561   6.475  -0.298   9.138  1.8494  1.1679  0.1712
   74SLPC   C24 6562   6.512  -0.107   9.051 -0.2402 -0.8850  0.0735
   74SLPC   H4R 6563   6.615  -0.093   9.092 -0.9934 -0.7719  2.0794
   74SLPC   H4S 6564   6.459  -0.009   9.047 -1.4552 -1.3132  2.9958
   74SLPC   C25 6565   6.528  -0.172   8.913 -0.2699 -0.8077 -1.0814
   74SLPC   H5R 6566   6.433  -0.199   8.862  0.1268 -1.6229 -1.4247
   74SLPC   H5S 6567   6.578  -0.270   8.934  0.4645 -0.3506 -0.6425
   74SLPC   C26 6568   6.611  -0.080   8.825 -0.2535 -0.7406  0.0082
   74SLPC   H6R 6569   6.634  -0.141   8.736 -1.6886 -0.3301 -0.6835
   74SLPC   H6S 6570   6.701  -0.051   8.882  0.5228  1.5718 -2.2047
   74SLPC   C27 6571   6.541   0.046   8.760  0.1005 -0.0079  0.0575
   74SLPC   H7R 6572   6.490   0.112   8.833  0.7789  0.9338 -0.3117
   74SLPC   H7S 6573   6.474  -0.001   8.684  0.6024  0.2429 -0.5504
   74SLPC   C28 6574   6.638   0.134   8.688  0.1819  0.6572  0.0061
   74SLPC   H8R 6575   6.699   0.073   8.618 -0.7303 -0.8613  0.4874
   74SLPC   H8S 6576   6.702   0.189   8.760  0.3293  1.4951 -0.7453
   74SLPC   C29 6577   6.566   0.249   8.609 -0.0940  0.2796  0.0906
   74SLPC   H9R 6578   6.573   0.344   8.664 -1.6219  1.0980 -1.0619
   74SLPC  C210 6579   6.498   0.254   8.494  0.4208 -0.1854  0.1447
   74SLPC  H10R 6580   6.442   0.344   8.465 -0.4671 -0.4454  1.0045
   74SLPC  C211 6581   6.465   0.137   8.404  0.1425 -0.3897  0.6545
   74SLPC  H11R 6582   6.479   0.035   8.447  0.1271 -0.4026  0.6299
   74SLPC  H11S 6583   6.530   0.138   8.314  0.2325 -0.0780  0.7218
   74SLPC  C212 6584   6.313   0.153   8.358 -0.0214  0.0874 -0.4428
   74SLPC  H12R 6585   6.244   0.206   8.425  0.9900  2.1355 -0.9349
   74SLPC  C213 6586   6.268   0.121   8.237  0.0418  0.5364 -0.0088
   74SLPC  H13R 6587   6.164   0.137   8.206 -0.0369 -0.5653 -0.3561
   74SLPC  C214 6588   6.361   0.069   8.129 -0.1875  0.2758  0.0188
   74SLPC  H14R 6589   6.308   0.011   8.050 -1.0822  2.2619 -0.9008
   74SLPC  H14S 6590   6.433  -0.006   8.168 -0.7512  0.0650  0.6952
   74SLPC  C215 6591   6.441   0.183   8.061 -0.4289  0.4775 -0.4648
   74SLPC  H15R 6592   6.459   0.260   8.139 -2.5384  1.0661 -0.5002
   74SLPC  H15S 6593   6.380   0.233   7.982  2.5267 -1.6076 -4.4189
   74SLPC  C216 6594   6.572   0.127   8.000 -0.1030 -0.4578 -0.6297
   74SLPC  H16R 6595   6.549   0.059   7.915  0.3990 -2.2514  0.5934
   74SLPC  H16S 6596   6.626   0.066   8.076  0.6053 -0.9775 -1.5316
   74SLPC  C217 6597   6.665   0.251   7.969  0.4115  0.3855  0.2161
   74SLPC  H17R 6598   6.697   0.291   8.067 -3.7227 -1.6803  2.7138
   74SLPC  H17S 6599   6.601   0.332   7.928  0.7547 -0.2567 -1.6854
   74SLPC  C218 6600   6.784   0.221   7.885  0.4263  0.5297 -0.2724
   74SLPC  H18R 6601   6.852   0.309   7.883  1.0616  0.0682  0.4036
   74SLPC  H18S 6602   6.748   0.188   7.785  0.2991  0.4995 -0.2159
   74SLPC  H18T 6603   6.842   0.140   7.935 -0.3787  0.6619  0.9145
   74SLPC   C33 6604   5.977  -0.158   9.044  0.1866 -0.2747  0.8245
   74SLPC   H3X 6605   6.034  -0.066   9.066  0.2245 -0.1862  0.3479
   74SLPC   H3Y 6606   5.908  -0.138   8.960  2.5811  1.4964 -0.8418
   74SLPC   C34 6607   6.074  -0.271   9.011 -0.1467  0.1777 -0.5977
   74SLPC   H4X 6608   6.019  -0.363   8.979 -0.8115  0.1631  0.5423
   74SLPC   H4Y 6609   6.130  -0.294   9.104  0.6790 -2.6278 -1.6909
   74SLPC   C35 6610   6.175  -0.237   8.895  0.2047  0.4185 -0.2402
   74SLPC   H5X 6611   6.255  -0.314   8.884 -0.6471 -0.8044  1.6389
   74SLPC   H5Y 6612   6.217  -0.139   8.923 -1.3573  0.4174  2.3863
   74SLPC   C36 6613   6.103  -0.231   8.752  0.4137  0.5999 -0.8198
   74SLPC   H6X 6614   6.013  -0.167   8.760 -1.5272 -1.9417 -0.7272
   74SLPC   H6Y 6615   6.065  -0.334   8.731 -2.6815  0.6915  3.0750
   74SLPC   C37 6616   6.196  -0.185   8.637  0.0240  0.6594  0.7695
   74SLPC   H7X 6617   6.267  -0.116   8.687  0.2300  1.2591 -0.3190
   74SLPC   H7Y 6618   6.135  -0.145   8.553  0.5864 -0.0806 -0.0062
   74SLPC   C38 6619   6.278  -0.301   8.568 -0.4623 -0.5278 -0.5005
   74SLPC   H8X 6620   6.208  -0.382   8.540 -1.6120  0.4021 -0.3908
   74SLPC   H8Y 6621   6.346  -0.354   8.638 -2.0940 -1.5227  0.4026
   74SLPC   C39 6622   6.373  -0.246   8.456 -0.7782  0.2093 -0.8908
   74SLPC   H9X 6623   6.434  -0.166   8.503  0.1443 -0.5184 -0.8141
   74SLPC   H9Y 6624   6.308  -0.201   8.378 -0.1795 -0.7330 -1.9714
   74SLPC  C310 6625   6.450  -0.360   8.406 -0.2362 -0.2504 -0.6157
   74SLPC  H10X 6626   6.383  -0.429   8.351 -1.3385 -1.0595  1.6065
   74SLPC  H10Y 6627   6.496  -0.409   8.495 -0.1137  1.6368  0.4224
   74SLPC  C311 6628   6.571  -0.313   8.318 -0.4492 -0.1434  0.5076
   74SLPC  H11X 6629   6.624  -0.227   8.364 -1.0538  0.4305  0.1558
   74SLPC  H11Y 6630   6.523  -0.257   8.234  1.0312 -1.2925 -1.1668
   74SLPC  C312 6631   6.668  -0.424   8.261 -0.2097 -0.7973 -0.4261
   74SLPC  H12X 6632   6.618  -0.497   8.194  0.7683  0.3314 -2.4551
   74SLPC  H12Y 6633   6.721  -0.470   8.348 -0.6850  0.6935  0.6926
   74SLPC  C313 6634   6.783  -0.360   8.179  0.0714  0.2580  0.1358
   74SLPC  H13X 6635   6.825  -0.273   8.233  0.0291  1.6740 -1.9787
   74SLPC  H13Y 6636   6.725  -0.329   8.089  1.9123 -1.2945 -1.6975
   74SLPC  C314 6637   6.890  -0.464   8.149 -0.4812  0.3547  0.1592
   74SLPC  H14X 6638   6.847  -0.556   8.106  0.0474 -0.1516  0.7046
   74SLPC  H14Y 6639   6.935  -0.490   8.247 -0.2158 -1.9188 -0.5117
   74SLPC  C315 6640   6.999  -0.417   8.047 -0.5837 -0.3934  0.5430
   74SLPC  H15X 6641   6.956  -0.344   7.976 -0.0460 -1.4058 -0.8843
   74SLPC  H15Y 6642   7.022  -0.511   7.991 -1.9884 -0.9994  0.9487
   74SLPC  C316 6643   7.129  -0.360   8.102  0.9830  0.3108  0.5586
   74SLPC  H16X 6644   7.181  -0.429   8.172 -0.1069 -0.6783  0.4205
   74SLPC  H16Y 6645   7.102  -0.276   8.169  1.2744  0.4284  0.5319
   74SLPC  C317 6646   7.214  -0.323   7.977  0.0724 -0.2551 -0.6585
   74SLPC  H17X 6647   7.170  -0.247   7.908 -0.5491  0.6179  0.6575
   74SLPC  H17Y 6648   7.234  -0.415   7.919 -0.2854 -1.1306  0.5782
   74SLPC  C318 6649   7.342  -0.256   8.026  0.0384  0.1464  0.3192
   74SLPC  H18X 6650   7.415  -0.326   8.073  0.7727  0.2778 -0.5795
   74SLPC  H18Y 6651   7.319  -0.177   8.100  2.3756  2.2485 -1.0246
   74SLPC  H18Z 6652   7.384  -0.201   7.939 -2.5897  0.7740 -0.6216
   75SLPC     N 6653   1.412   2.205   5.868 -0.2699  0.6014 -0.1627
   75SLPC   C13 6654   1.427   2.353   5.895  0.1625 -0.2087 -0.0977
   75SLPC  H13A 6655   1.417   2.390   5.996  0.6114  0.1032 -0.1628
   75SLPC  H13B 6656   1.530   2.382   5.875 -0.1732  0.2855 -1.2077
   75SLPC  H13C 6657   1.365   2.407   5.826  0.0583 -0.9539 -0.5994
   75SLPC   C14 6658   1.405   2.181   5.721  0.4016  0.2004  0.5525
   75SLPC  H14A 6659   1.500   2.196   5.671  0.0356  0.5300 -0.0640
   75SLPC  H14B 6660   1.374   2.083   5.688  2.0358 -0.3116  0.4820
   75SLPC  H14C 6661   1.337   2.254   5.678 -1.3576  0.1504  3.0288
   75SLPC   C15 6662   1.278   2.167   5.918 -0.5290  0.2345  0.2255
   75SLPC  H15A 6663   1.197   2.208   5.860 -0.1240  0.5241 -0.1501
   75SLPC  H15B 6664   1.260   2.061   5.921 -0.4877  0.2277  0.2508
   75SLPC  H15C 6665   1.263   2.205   6.018 -0.9337  3.6365 -0.9810
   75SLPC   C12 6666   1.533   2.133   5.938 -0.5323 -0.0541 -0.3087
   75SLPC  H12A 6667   1.525   2.035   5.893  0.1141  0.7785 -2.3318
   75SLPC  H12B 6668   1.521   2.134   6.045  0.7841  1.5036 -0.1353
   75SLPC   C11 6669   1.674   2.192   5.919 -0.2351 -0.4500 -0.5293
   75SLPC  H11A 6670   1.692   2.261   5.834  2.5010  0.6801  0.8415
   75SLPC  H11B 6671   1.757   2.119   5.912  1.0529  0.7805  1.1682
   75SLPC     P 6672   1.820   2.367   6.047  0.1765 -0.1940  0.5755
   75SLPC   O13 6673   1.945   2.302   6.081 -0.3360 -0.0547  0.3268
   75SLPC   O14 6674   1.823   2.450   5.925  0.2860  0.1269 -0.0717
   75SLPC   O12 6675   1.698   2.268   6.043 -0.1605 -0.0758  0.2096
   75SLPC   O11 6676   1.770   2.457   6.171  0.8694  0.0301  0.0609
   75SLPC    C1 6677   1.711   2.400   6.288  0.2589  0.0006 -0.4176
   75SLPC    HA 6678   1.718   2.289   6.297 -0.8636  0.0671  1.8750
   75SLPC    HB 6679   1.757   2.448   6.377 -0.7473  1.2862 -0.5504
   75SLPC    C2 6680   1.554   2.426   6.301  0.5218  1.0225  0.4826
   75SLPC    HS 6681   1.498   2.409   6.207  1.2363 -0.9747  0.3566
   75SLPC   O21 6682   1.537   2.561   6.334 -0.5806  0.4315 -0.5329
   75SLPC   C21 6683   1.538   2.655   6.241  0.8199 -0.4474 -0.1397
   75SLPC   O22 6684   1.534   2.637   6.119  0.2538  0.3235  0.1088
   75SLPC   C22 6685   1.537   2.801   6.294  0.3392 -0.5444 -0.0103
   75SLPC   H2R 6686   1.644   2.826   6.310  0.7825 -2.4246  0.2616
   75SLPC   H2S 6687   1.498   2.856   6.206  1.8605  2.1837  0.9262
   75SLPC    C3 6688   1.493   2.344   6.423 -0.3481 -0.1725  0.2770
   75SLPC    HX 6689   1.542   2.246   6.400  3.0960  0.6343  3.2585
   75SLPC    HY 6690   1.383   2.336   6.429 -0.3898  0.5450  0.5252
   75SLPC   O31 6691   1.559   2.385   6.551 -0.4870 -0.1503  0.0660
   75SLPC   C31 6692   1.483   2.452   6.636 -0.1766 -0.1474 -0.1473
   75SLPC   O32 6693   1.371   2.490   6.610  0.1428  0.6027  0.3962
   75SLPC   C32 6694   1.550   2.468   6.768 -0.7793 -0.1884 -0.6245
   75SLPC   H2X 6695   1.617   2.556   6.778 -3.0122  1.3873  1.9518
   75SLPC   H2Y 6696   1.611   2.376   6.772 -1.4204 -0.6776 -1.5904
   75SLPC   C23 6697   1.454   2.826   6.419  0.6924 -0.5600 -0.0871
   75SLPC   H3R 6698   1.495   2.753   6.492  0.3130 -0.5482  0.1352
   75SLPC   H3S 6699   1.347   2.809   6.394 -0.1004  1.5200  1.6271
   75SLPC   C24 6700   1.465   2.969   6.481 -0.9182  0.0536 -0.5317
   75SLPC   H4R 6701   1.415   3.042   6.415  1.8077 -0.0346 -2.8856
   75SLPC   H4S 6702   1.570   3.000   6.497 -1.1555 -0.5121  3.0133
   75SLPC   C25 6703   1.394   2.974   6.624  0.3447  0.8504  0.3047
   75SLPC   H5R 6704   1.290   2.946   6.598  0.7239 -0.5440  0.2204
   75SLPC   H5S 6705   1.393   3.081   6.655 -1.6170  1.7603 -2.4974
   75SLPC   C26 6706   1.447   2.884   6.735 -0.4314 -0.5635  0.1903
   75SLPC   H6R 6707   1.557   2.897   6.745 -0.2546 -0.5692 -1.3769
   75SLPC   H6S 6708   1.437   2.776   6.710  1.1645 -1.2001  2.0875
   75SLPC   C27 6709   1.386   2.918   6.877 -0.3602 -0.3189  0.4032
   75SLPC   H7R 6710   1.336   2.824   6.908 -0.7097 -0.3765 -0.3228
   75SLPC   H7S 6711   1.295   2.982   6.868  1.0908  1.8899  0.6007
   75SLPC   C28 6712   1.494   2.973   6.971  0.0474  0.2923 -0.2177
   75SLPC   H8R 6713   1.443   3.023   7.056 -0.8626 -1.5923  0.3995
   75SLPC   H8S 6714   1.541   3.051   6.907  2.5747  0.1108  1.2875
   75SLPC   C29 6715   1.594   2.871   7.023 -0.4431  0.4458 -0.1026
   75SLPC   H9R 6716   1.608   2.784   6.958 -0.0500  0.7245 -0.3995
   75SLPC  C210 6717   1.670   2.879   7.132 -0.4530  0.3869  0.3196
   75SLPC  H10R 6718   1.754   2.809   7.149  2.0245  2.6847 -1.5388
   75SLPC  C211 6719   1.675   2.991   7.232  0.4174 -0.6795 -0.8729
   75SLPC  H11R 6720   1.675   3.085   7.173  2.5337  0.2551  0.4970
   75SLPC  H11S 6721   1.766   2.979   7.295 -1.9388  0.4461  3.1305
   75SLPC  C212 6722   1.562   3.001   7.339 -0.0721 -0.2740 -0.1084
   75SLPC  H12R 6723   1.492   2.916   7.340 -0.1008 -0.2535 -0.4131
   75SLPC  C213 6724   1.541   3.102   7.419 -0.3189 -0.3260 -0.2928
   75SLPC  H13R 6725   1.452   3.091   7.482  0.2362 -0.7680  0.4319
   75SLPC  C214 6726   1.616   3.235   7.422 -0.2603  0.0043  0.0149
   75SLPC  H14R 6727   1.561   3.303   7.352  0.2242 -0.4037 -0.7721
   75SLPC  H14S 6728   1.719   3.218   7.385 -0.5057 -1.2774 -0.1218
   75SLPC  C215 6729   1.625   3.295   7.566  0.4008 -0.0271  0.9494
   75SLPC  H15R 6730   1.695   3.228   7.620  2.0497 -1.6296 -2.8254
   75SLPC  H15S 6731   1.526   3.283   7.615 -0.0167 -2.7775 -0.3981
   75SLPC  C216 6732   1.654   3.445   7.574 -0.3312  0.3955  0.3372
   75SLPC  H16R 6733   1.708   3.478   7.483 -0.5044 -2.4258 -0.8674
   75SLPC  H16S 6734   1.707   3.481   7.664  0.3973 -0.8013  0.3962
   75SLPC  C217 6735   1.521   3.527   7.566 -0.1373  0.9298  0.3696
   75SLPC  H17R 6736   1.461   3.498   7.477  0.6119 -0.2002  0.2124
   75SLPC  H17S 6737   1.552   3.632   7.543  1.5733  0.2821 -0.4586
   75SLPC  C218 6738   1.435   3.531   7.690  0.9227  0.5468  0.6488
   75SLPC  H18R 6739   1.496   3.537   7.782  0.4835  0.4642  0.9486
   75SLPC  H18S 6740   1.370   3.442   7.707  1.2363  0.1641 -0.1345
   75SLPC  H18T 6741   1.374   3.624   7.685  0.4807  0.2117 -0.4218
   75SLPC   C33 6742   1.455   2.486   6.889 -0.2268  0.0576 -0.9865
   75SLPC   H3X 6743   1.407   2.586   6.891  1.8941  1.1312 -0.2975
   75SLPC   H3Y 6744   1.377   2.408   6.892 -1.4603  1.2667 -0.5125
   75SLPC   C34 6745   1.537   2.472   7.018 -0.2906 -0.8683 -0.0438
   75SLPC   H4X 6746   1.632   2.528   7.011 -0.3770 -0.6825  0.2741
   75SLPC   H4Y 6747   1.565   2.365   7.027 -0.5011 -0.8268  1.2361
   75SLPC   C35 6748   1.479   2.520   7.149  0.0057  0.1750 -0.1781
   75SLPC   H5X 6749   1.381   2.471   7.166  0.3706 -0.4166  0.2798
   75SLPC   H5Y 6750   1.467   2.630   7.139  1.4422  0.5261  1.4542
   75SLPC   C36 6751   1.559   2.505   7.278 -0.7388  0.3553 -1.0407
   75SLPC   H6X 6752   1.663   2.544   7.278 -0.9237  0.8654 -0.3403
   75SLPC   H6Y 6753   1.573   2.396   7.293 -0.5182  0.6737  1.4035
   75SLPC   C37 6754   1.496   2.567   7.407  0.3748 -0.3130  0.7192
   75SLPC   H7X 6755   1.387   2.546   7.411 -0.0362  1.6956  1.0186
   75SLPC   H7Y 6756   1.502   2.677   7.397  1.6000 -0.5014 -1.2399
   75SLPC   C38 6757   1.571   2.512   7.530  0.6683  0.3423  0.0334
   75SLPC   H8X 6758   1.586   2.587   7.610  1.4312 -0.5998  0.7949
   75SLPC   H8Y 6759   1.678   2.489   7.509  0.6164  0.1618 -0.0344
   75SLPC   C39 6760   1.500   2.376   7.572 -0.4983  0.3692 -0.2702
   75SLPC   H9X 6761   1.484   2.307   7.486  0.2223  0.6376 -0.6333
   75SLPC   H9Y 6762   1.401   2.412   7.608  1.0376  2.4002  2.2772
   75SLPC  C310 6763   1.578   2.308   7.682  0.4309  0.5324  0.5449
   75SLPC  H10X 6764   1.595   2.391   7.754  1.2030  1.9145 -1.1599
   75SLPC  H10Y 6765   1.682   2.279   7.656 -0.0362  0.9681 -2.1290
   75SLPC  C311 6766   1.506   2.181   7.744 -0.2050 -0.0631  0.1984
   75SLPC  H11X 6767   1.579   2.146   7.819 -0.0388 -0.2100 -0.0310
   75SLPC  H11Y 6768   1.511   2.097   7.672  1.6454  0.5398 -0.4396
   75SLPC  C312 6769   1.368   2.192   7.802  0.5187  0.6469 -0.2065
   75SLPC  H12X 6770   1.289   2.178   7.725  2.1674 -0.8436 -1.7259
   75SLPC  H12Y 6771   1.354   2.282   7.865  2.1358  0.2745  0.7487
   75SLPC  C313 6772   1.346   2.070   7.889 -0.6559  0.1896 -1.1332
   75SLPC  H13X 6773   1.429   2.075   7.963 -0.0167  1.0626 -1.8807
   75SLPC  H13Y 6774   1.366   1.980   7.827  1.9799  0.5980 -0.9985
   75SLPC  C314 6775   1.212   2.065   7.969 -0.3313  0.2416 -0.1907
   75SLPC  H14X 6776   1.196   2.165   8.014  0.9932  0.2763  0.2403
   75SLPC  H14Y 6777   1.226   1.991   8.051 -1.0817 -0.5325 -0.7472
   75SLPC  C315 6778   1.093   2.030   7.881  0.4278  0.6492  0.4030
   75SLPC  H15X 6779   1.108   1.944   7.813 -2.8895  0.9992 -0.9516
   75SLPC  H15Y 6780   1.073   2.122   7.822 -0.2648  0.6404  0.6215
   75SLPC  C316 6781   0.971   1.994   7.957 -0.1653 -0.3479  0.1344
   75SLPC  H16X 6782   0.962   2.058   8.047  0.6497  1.6990 -1.1647
   75SLPC  H16Y 6783   0.981   1.891   7.998 -0.2423  0.0063  1.0641
   75SLPC  C317 6784   0.845   2.004   7.863  0.1071  0.3271  0.1689
   75SLPC  H17X 6785   0.863   1.946   7.771 -1.8973  2.5782 -1.7649
   75SLPC  H17Y 6786   0.839   2.112   7.837  1.5955  0.4810  0.3908
   75SLPC  C318 6787   0.716   1.965   7.933 -0.1850 -0.4316  0.3384
   75SLPC  H18X 6788   0.684   2.047   8.000  1.3166  0.4059  0.0842
   75SLPC  H18Y 6789   0.725   1.870   7.991 -3.5787 -1.1260 -0.0823
   75SLPC  H18Z 6790   0.646   1.944   7.849  0.9168 -0.8176 -0.5110
   76SLPC     N 6791   2.060   1.123   5.500  0.2510 -0.3946 -0.0731
   76SLPC   C13 6792   2.147   1.093   5.383  0.6081  0.1516 -0.9945
   76SLPC  H13A 6793   2.098   1.050   5.297 -1.1871  0.4873 -0.1980
   76SLPC  H13B 6794   2.205   1.179   5.353  0.1224  1.4453  1.5189
   76SLPC  H13C 6795   2.219   1.017   5.410 -0.4615 -0.7010 -0.4339
   76SLPC   C14 6796   1.985   0.999   5.541  0.9925 -0.3790  0.6519
   76SLPC  H14A 6797   2.038   0.921   5.594  2.1355  0.2990  0.5497
   76SLPC  H14B 6798   1.905   1.028   5.606  2.1018 -1.7443  2.7561
   76SLPC  H14C 6799   1.938   0.954   5.455  0.9018  1.9338 -0.6022
   76SLPC   C15 6800   1.973   1.233   5.447 -0.5984  0.0158 -1.0163
   76SLPC  H15A 6801   2.042   1.313   5.425 -1.4733  1.0386 -0.1609
   76SLPC  H15B 6802   1.927   1.213   5.351  0.7555  2.7483 -2.3272
   76SLPC  H15C 6803   1.907   1.270   5.525 -0.3480  0.1630 -0.8729
   76SLPC   C12 6804   2.132   1.179   5.618  0.9968 -0.2534 -0.5240
   76SLPC  H12A 6805   2.060   1.182   5.698  0.4987 -1.0529 -0.9372
   76SLPC  H12B 6806   2.177   1.270   5.580 -2.3089  1.0479 -1.7477
   76SLPC   C11 6807   2.234   1.084   5.685 -0.4417  0.5806  0.2508
   76SLPC  H11A 6808   2.181   1.008   5.746  0.1322 -0.6823 -0.7912
   76SLPC  H11B 6809   2.292   1.149   5.754  0.4345  1.5733 -1.3544
   76SLPC     P 6810   2.471   1.046   5.583  0.3358 -0.0634 -0.3401
   76SLPC   O13 6811   2.528   0.947   5.496  0.0311 -0.4324  0.3538
   76SLPC   O14 6812   2.482   1.184   5.537  0.3155 -0.5492  0.1498
   76SLPC   O12 6813   2.319   1.015   5.600  0.1035  0.2244 -0.5825
   76SLPC   O11 6814   2.526   1.027   5.740  0.2558 -0.1062  0.7021
   76SLPC    C1 6815   2.662   1.038   5.775 -0.4181 -0.2531 -0.5038
   76SLPC    HA 6816   2.701   0.936   5.757 -0.1495 -0.4045  0.8226
   76SLPC    HB 6817   2.720   1.107   5.710  0.4867 -0.4515  0.0750
   76SLPC    C2 6818   2.684   1.072   5.925 -0.4894 -0.6217 -0.6853
   76SLPC    HS 6819   2.785   1.118   5.934 -1.0850  0.3524  1.5585
   76SLPC   O21 6820   2.674   0.967   6.021 -0.4897 -0.4463  0.2873
   76SLPC   C21 6821   2.768   0.879   6.016 -0.1383  0.3543 -0.3501
   76SLPC   O22 6822   2.860   0.885   5.935 -0.0732 -0.3969  1.5166
   76SLPC   C22 6823   2.747   0.768   6.114 -0.5375  0.5485  0.0557
   76SLPC   H2R 6824   2.670   0.791   6.190  0.4275  1.8262  0.6908
   76SLPC   H2S 6825   2.698   0.682   6.063  0.0116 -0.1546  0.6998
   76SLPC    C3 6826   2.585   1.186   5.964  0.1220 -0.3053 -0.4649
   76SLPC    HX 6827   2.484   1.143   5.976 -0.4960  1.1623 -0.1702
   76SLPC    HY 6828   2.577   1.270   5.892  0.7450 -0.1188 -0.3225
   76SLPC   O31 6829   2.623   1.235   6.102  0.4391  0.2594  0.1618
   76SLPC   C31 6830   2.534   1.206   6.202  0.1930 -0.2028  0.3813
   76SLPC   O32 6831   2.416   1.177   6.186 -0.0043 -0.2982 -0.1652
   76SLPC   C32 6832   2.603   1.234   6.329  0.0986 -0.5448 -0.5425
   76SLPC   H2X 6833   2.563   1.328   6.374  0.2462 -0.6042 -0.2821
   76SLPC   H2Y 6834   2.711   1.238   6.306  0.2247 -0.2351  0.0714
   76SLPC   C23 6835   2.870   0.712   6.185 -0.4759 -0.2363 -0.0606
   76SLPC   H3R 6836   2.941   0.700   6.100 -0.9858  1.6707 -0.8043
   76SLPC   H3S 6837   2.855   0.615   6.238 -2.2046 -0.1585 -0.3295
   76SLPC   C24 6838   2.930   0.820   6.282 -0.2031 -0.7171  0.1738
   76SLPC   H4R 6839   2.863   0.857   6.363  0.4250  0.9203 -0.0081
   76SLPC   H4S 6840   2.940   0.907   6.214 -2.0073  1.0272  1.9873
   76SLPC   C25 6841   3.065   0.788   6.352  0.4369  0.3301  0.0838
   76SLPC   H5R 6842   3.108   0.883   6.391 -1.6076  1.1779  0.3992
   76SLPC   H5S 6843   3.140   0.743   6.284  0.5085 -0.4122  0.6427
   76SLPC   C26 6844   3.047   0.701   6.471 -0.4739  0.1403 -0.1704
   76SLPC   H6R 6845   3.003   0.600   6.454  0.7846 -0.5341  0.3828
   76SLPC   H6S 6846   2.978   0.744   6.546 -0.0775 -1.9179  1.4942
   76SLPC   C27 6847   3.175   0.685   6.560  0.1532 -0.0826  1.1665
   76SLPC   H7R 6848   3.211   0.781   6.604 -0.5183  1.4503 -1.4476
   76SLPC   H7S 6849   3.258   0.654   6.493 -0.0872 -0.3432  0.9907
   76SLPC   C28 6850   3.155   0.577   6.660 -0.4375  0.1609 -0.5666
   76SLPC   H8R 6851   3.067   0.612   6.718  1.6555  0.6206  2.5624
   76SLPC   H8S 6852   3.125   0.484   6.606 -1.4860 -1.0416  1.9061
   76SLPC   C29 6853   3.270   0.540   6.756  0.4619 -0.2075 -0.1449
   76SLPC   H9R 6854   3.369   0.523   6.710  0.1192  0.0012 -0.9877
   76SLPC  C210 6855   3.271   0.533   6.892  0.6179 -0.6091  0.4662
   76SLPC  H10R 6856   3.363   0.501   6.943 -0.7808 -1.9358  2.2446
   76SLPC  C211 6857   3.166   0.574   6.988  0.4487  0.2466 -0.1197
   76SLPC  H11R 6858   3.115   0.480   7.021  0.3245  0.0685 -0.8065
   76SLPC  H11S 6859   3.094   0.639   6.935 -0.7206 -1.6549 -0.9836
   76SLPC  C212 6860   3.231   0.647   7.103 -0.3334  0.3040  0.7812
   76SLPC  H12R 6861   3.340   0.659   7.105 -0.1668 -0.8034 -0.4562
   76SLPC  C213 6862   3.163   0.682   7.217 -0.0520  0.7882  0.3828
   76SLPC  H13R 6863   3.224   0.700   7.306  0.3599  0.4356  0.1778
   76SLPC  C214 6864   3.017   0.643   7.243 -0.0258 -0.0613 -0.6463
   76SLPC  H14R 6865   2.991   0.542   7.207 -0.4416 -0.0471 -0.3884
   76SLPC  H14S 6866   2.955   0.717   7.188  1.6483  1.6217 -0.3791
   76SLPC  C215 6867   2.981   0.661   7.390 -0.5451 -0.6814  0.5190
   76SLPC  H15R 6868   2.973   0.768   7.418  1.4213 -0.1310 -0.7910
   76SLPC  H15S 6869   3.051   0.605   7.455 -0.9666  1.1168  2.6241
   76SLPC  C216 6870   2.843   0.607   7.431  0.0547  0.6304 -0.6737
   76SLPC  H16R 6871   2.838   0.499   7.407  0.3941  0.4254  0.1579
   76SLPC  H16S 6872   2.760   0.661   7.382 -0.3692  0.4343 -0.1737
   76SLPC  C217 6873   2.825   0.596   7.578  0.5255 -0.3333  0.1477
   76SLPC  H17R 6874   2.834   0.698   7.622  1.7547  0.1670 -1.1608
   76SLPC  H17S 6875   2.908   0.539   7.626  0.5623 -1.2369 -0.9536
   76SLPC  C218 6876   2.698   0.528   7.613  0.5562 -0.4395 -0.3519
   76SLPC  H18R 6877   2.618   0.576   7.553  0.0493 -0.5934  0.1990
   76SLPC  H18S 6878   2.681   0.555   7.719 -2.1174 -0.7794 -0.6211
   76SLPC  H18T 6879   2.694   0.417   7.608  0.6974 -0.4588 -0.0128
   76SLPC   C33 6880   2.588   1.121   6.429  0.1542  0.1458 -0.3900
   76SLPC   H3X 6881   2.605   1.022   6.381 -2.4076 -0.3143 -0.4687
   76SLPC   H3Y 6882   2.482   1.112   6.460  1.0533 -3.6986  2.3692
   76SLPC   C34 6883   2.679   1.135   6.547  0.2963 -0.3972 -0.4943
   76SLPC   H4X 6884   2.674   1.238   6.589 -0.7119 -1.0397  1.0220
   76SLPC   H4Y 6885   2.779   1.119   6.502 -0.8633 -4.9026 -1.9480
   76SLPC   C35 6886   2.661   1.027   6.654 -0.4114  0.6178 -0.4943
   76SLPC   H5X 6887   2.721   0.939   6.624  0.1576 -0.1515  2.6600
   76SLPC   H5Y 6888   2.558   0.986   6.652 -0.2816  0.1443  1.3291
   76SLPC   C36 6889   2.713   1.066   6.791  0.7964 -0.3867 -0.0983
   76SLPC   H6X 6890   2.648   1.154   6.810 -1.3262 -2.3673  2.5905
   76SLPC   H6Y 6891   2.824   1.073   6.780  0.7386  3.0823  0.5385
   76SLPC   C37 6892   2.667   0.957   6.890 -0.2207  0.4742 -0.6549
   76SLPC   H7X 6893   2.715   0.863   6.854 -1.6230 -0.7006  0.4205
   76SLPC   H7Y 6894   2.557   0.945   6.883 -0.2321  1.3145 -2.6030
   76SLPC   C38 6895   2.698   0.985   7.036 -0.5603 -0.1398 -0.5989
   76SLPC   H8X 6896   2.658   1.087   7.053 -2.2063 -0.7148 -0.8928
   76SLPC   H8Y 6897   2.807   0.985   7.056 -0.6263 -0.7082 -0.2483
   76SLPC   C39 6898   2.624   0.886   7.128 -0.2594 -0.2158  0.1690
   76SLPC   H9X 6899   2.667   0.785   7.110  0.2950 -0.1539  1.1395
   76SLPC   H9Y 6900   2.517   0.877   7.099 -0.5528 -0.4396  1.2814
   76SLPC  C310 6901   2.634   0.936   7.275  0.3491 -0.8601  0.7169
   76SLPC  H10X 6902   2.625   1.047   7.271  1.9152 -0.7458 -0.2842
   76SLPC  H10Y 6903   2.738   0.910   7.304  0.2218 -1.3902  0.7134
   76SLPC  C311 6904   2.531   0.872   7.371  0.4311  0.1183  0.3490
   76SLPC  H11X 6905   2.563   0.774   7.413  0.3880  0.6191  1.5734
   76SLPC  H11Y 6906   2.432   0.872   7.321 -0.6079 -0.2000  2.2989
   76SLPC  C312 6907   2.530   0.969   7.494 -0.0584 -0.0911  0.2794
   76SLPC  H12X 6908   2.469   0.920   7.574  0.8902  0.1704  1.1906
   76SLPC  H12Y 6909   2.476   1.061   7.463 -1.9785 -1.8364 -1.8495
   76SLPC  C313 6910   2.672   1.002   7.545  0.0669 -0.2641 -0.1424
   76SLPC  H13X 6911   2.712   1.087   7.486  2.0023 -1.6901 -0.9874
   76SLPC  H13Y 6912   2.749   0.922   7.547  0.8039  0.4315  1.3402
   76SLPC  C314 6913   2.638   1.064   7.683  0.0369  0.0905 -0.5479
   76SLPC  H14X 6914   2.589   0.989   7.748  0.1944  1.8196  1.6465
   76SLPC  H14Y 6915   2.578   1.157   7.680  0.4505  0.3723 -0.1638
   76SLPC  C315 6916   2.769   1.114   7.754 -0.2108 -0.0550 -0.2053
   76SLPC  H15X 6917   2.749   1.207   7.812  0.0511  1.0691 -1.8741
   76SLPC  H15Y 6918   2.832   1.138   7.666  0.7140 -0.2044  0.3963
   76SLPC  C316 6919   2.843   1.012   7.840  0.2678 -0.4273 -0.3098
   76SLPC  H16X 6920   2.824   0.909   7.803  0.1896 -0.3288 -0.5514
   76SLPC  H16Y 6921   2.828   1.014   7.950  1.5963  2.2609 -0.1036
   76SLPC  C317 6922   2.994   1.027   7.828  0.5673  0.3950 -0.2151
   76SLPC  H17X 6923   3.018   1.133   7.855  1.6374  0.7444 -2.3152
   76SLPC  H17Y 6924   3.015   1.005   7.722  0.5271 -0.9961  0.0494
   76SLPC  C318 6925   3.081   0.928   7.903  0.0912  0.5880 -0.5649
   76SLPC  H18X 6926   3.050   0.823   7.884  0.9801  0.0729  0.6951
   76SLPC  H18Y 6927   3.073   0.939   8.013 -0.3237 -3.2431 -0.0698
   76SLPC  H18Z 6928   3.190   0.927   7.885  0.7953 -2.3465  2.6357
   77SLPC     N 6929   6.189   1.911   4.996  0.5966 -0.7390 -0.3302
   77SLPC   C13 6930   6.099   2.008   4.914 -0.3660  0.4733  0.5161
   77SLPC  H13A 6931   6.024   1.954   4.857 -0.7856  2.8042 -1.3298
   77SLPC  H13B 6932   6.039   2.077   4.972  0.4603  1.2803  0.4291
   77SLPC  H13C 6933   6.149   2.067   4.838 -0.6537 -0.0116 -0.0625
   77SLPC   C14 6934   6.280   1.835   4.906  0.3277  1.2333  0.4337
   77SLPC  H14A 6935   6.353   1.900   4.862  1.1228  1.0832  1.4832
   77SLPC  H14B 6936   6.320   1.750   4.959  0.1058 -0.1020 -1.4404
   77SLPC  H14C 6937   6.228   1.790   4.823 -0.3736  1.6423  0.6423
   77SLPC   C15 6938   6.095   1.812   5.059  0.6168 -0.4899 -0.2169
   77SLPC  H15A 6939   6.146   1.738   5.120  1.4145 -0.6373 -1.0301
   77SLPC  H15B 6940   6.016   1.863   5.111  2.3958  2.1109  0.1062
   77SLPC  H15C 6941   6.042   1.752   4.986 -0.2120 -0.6243  0.4830
   77SLPC   C12 6942   6.268   1.986   5.099 -0.5285 -0.0889 -0.6688
   77SLPC  H12A 6943   6.209   2.020   5.183 -0.2015  0.0335 -0.4840
   77SLPC  H12B 6944   6.309   2.078   5.058 -2.4192  1.3099  0.4271
   77SLPC   C11 6945   6.390   1.915   5.171  0.2626  0.5364 -0.1039
   77SLPC  H11A 6946   6.433   1.991   5.239 -1.2820  1.2753  0.0841
   77SLPC  H11B 6947   6.460   1.885   5.090  0.1630  1.3056 -0.4904
   77SLPC     P 6948   6.312   1.758   5.389  0.5807  0.0455  0.2762
   77SLPC   O13 6949   6.178   1.804   5.425  0.0706  0.6613  0.2754
   77SLPC   O14 6950   6.351   1.617   5.409 -0.7077 -0.1226 -0.1369
   77SLPC   O12 6951   6.342   1.797   5.240 -0.6882 -0.6466  0.1748
   77SLPC   O11 6952   6.416   1.847   5.472 -0.0253 -0.4360 -0.3786
   77SLPC    C1 6953   6.375   1.948   5.560 -0.5177 -0.7903  0.8805
   77SLPC    HA 6954   6.427   2.043   5.535 -0.5032 -1.5051 -2.2343
   77SLPC    HB 6955   6.268   1.976   5.558 -0.7968 -1.5825  2.7578
   77SLPC    C2 6956   6.418   1.911   5.701  0.5082 -0.4260  0.3718
   77SLPC    HS 6957   6.517   1.862   5.694 -0.0945 -1.9135  1.5449
   77SLPC   O21 6958   6.326   1.821   5.754  0.1134  0.2737  0.3352
   77SLPC   C21 6959   6.380   1.723   5.819 -0.5683  0.0450  0.1438
   77SLPC   O22 6960   6.497   1.703   5.836  0.0604 -0.3172  0.3538
   77SLPC   C22 6961   6.273   1.635   5.868 -0.1385  0.4896 -0.2383
   77SLPC   H2R 6962   6.177   1.690   5.874 -0.5293 -0.2560  0.7641
   77SLPC   H2S 6963   6.251   1.555   5.795  0.4092  0.6870 -0.6248
   77SLPC    C3 6964   6.433   2.032   5.795 -0.2484 -0.6510 -0.0564
   77SLPC    HX 6965   6.335   2.084   5.796  0.1649  0.1522  0.5335
   77SLPC    HY 6966   6.495   2.115   5.755 -1.2642 -0.0260 -0.3821
   77SLPC   O31 6967   6.474   1.987   5.932 -0.3309 -0.6148  0.2887
   77SLPC   C31 6968   6.597   1.962   5.944 -0.0959  0.0826  0.0576
   77SLPC   O32 6969   6.685   1.979   5.862  0.4207 -0.4058 -0.1511
   77SLPC   C32 6970   6.629   1.887   6.079  0.4273 -0.3491  0.1048
   77SLPC   H2X 6971   6.740   1.892   6.081  0.8489 -4.8734 -1.1315
   77SLPC   H2Y 6972   6.604   1.782   6.054 -0.7397  0.2883 -1.5824
   77SLPC   C23 6973   6.315   1.583   6.011 -0.1894  0.0200  0.9389
   77SLPC   H3R 6974   6.345   1.670   6.074 -1.0891 -0.0449  1.4757
   77SLPC   H3S 6975   6.407   1.520   6.012 -0.5683 -0.5361  0.9172
   77SLPC   C24 6976   6.193   1.504   6.064  0.2211 -0.3902  0.0358
   77SLPC   H4R 6977   6.167   1.439   5.978  0.8419  0.6904 -0.9857
   77SLPC   H4S 6978   6.113   1.580   6.074  0.5440  0.2081 -1.5914
   77SLPC   C25 6979   6.225   1.434   6.197  0.5228 -0.2722  0.2835
   77SLPC   H5R 6980   6.295   1.347   6.190  2.7129  1.0516  3.1923
   77SLPC   H5S 6981   6.129   1.391   6.232  0.2832 -1.7145 -2.0166
   77SLPC   C26 6982   6.275   1.518   6.314 -0.3096 -0.1115  0.1939
   77SLPC   H6R 6983   6.210   1.605   6.338 -0.7324  0.0627 -1.4762
   77SLPC   H6S 6984   6.368   1.567   6.278 -0.0749 -0.6341  0.0728
   77SLPC   C27 6985   6.311   1.420   6.425  0.5567  0.0468  0.1405
   77SLPC   H7R 6986   6.410   1.378   6.400 -0.1225 -1.0228 -0.8621
   77SLPC   H7S 6987   6.229   1.346   6.432 -2.2670  2.8096 -0.8661
   77SLPC   C28 6988   6.319   1.505   6.554 -0.3547 -0.7429 -0.3233
   77SLPC   H8R 6989   6.221   1.558   6.562 -0.5722 -0.8033 -2.1628
   77SLPC   H8S 6990   6.399   1.581   6.543 -0.9288  0.2816  1.9842
   77SLPC   C29 6991   6.354   1.423   6.676 -0.5347 -0.2147  0.1481
   77SLPC   H9R 6992   6.436   1.354   6.655 -1.2327 -0.8156 -0.6186
   77SLPC  C210 6993   6.289   1.397   6.789 -0.0478  0.0077 -0.2557
   77SLPC  H10R 6994   6.331   1.318   6.853  1.9373  1.7121  0.6608
   77SLPC  C211 6995   6.176   1.468   6.853  0.1654  0.0029 -0.0391
   77SLPC  H11R 6996   6.094   1.395   6.865  0.1323  0.1693  0.8687
   77SLPC  H11S 6997   6.145   1.555   6.791 -0.4619  0.5231  0.9718
   77SLPC  C212 6998   6.219   1.535   6.984 -0.0427 -0.1387 -0.3183
   77SLPC  H12R 6999   6.308   1.597   6.966 -0.5032  0.0777 -2.0161
   77SLPC  C213 7000   6.171   1.514   7.107  0.4473 -0.9147 -0.1548
   77SLPC  H13R 7001   6.229   1.560   7.188  0.2227 -0.9997  0.0536
   77SLPC  C214 7002   6.058   1.427   7.147 -0.1974 -0.9947 -0.1899
   77SLPC  H14R 7003   6.103   1.326   7.156  2.0623 -0.0235  0.1543
   77SLPC  H14S 7004   5.989   1.418   7.060  0.9127  0.6244 -1.3216
   77SLPC  C215 7005   5.982   1.465   7.277  0.1047  0.1052  0.5254
   77SLPC  H15R 7006   5.902   1.388   7.278  0.8114 -0.7595 -1.7854
   77SLPC  H15S 7007   5.918   1.555   7.266 -0.0676 -0.1310 -0.4771
   77SLPC  C216 7008   6.064   1.481   7.408 -0.1739 -0.1037 -0.2739
   77SLPC  H16R 7009   6.133   1.567   7.403  0.1804 -0.3201  0.7369
   77SLPC  H16S 7010   6.129   1.393   7.428 -0.1084  0.1327  0.5919
   77SLPC  C217 7011   5.969   1.494   7.527  0.1256  0.5196 -0.2952
   77SLPC  H17R 7012   6.032   1.500   7.619 -1.5077  0.9770  0.8459
   77SLPC  H17S 7013   5.914   1.397   7.532 -0.8197  1.0620  0.1348
   77SLPC  C218 7014   5.871   1.612   7.535  0.2193 -0.5556  0.4901
   77SLPC  H18R 7015   5.809   1.623   7.443  0.7261  0.2798  0.2305
   77SLPC  H18S 7016   5.921   1.709   7.559  1.6289 -0.9826 -0.5746
   77SLPC  H18T 7017   5.798   1.592   7.615 -0.7519 -0.8343 -0.4412
   77SLPC   C33 7018   6.556   1.951   6.201 -0.8138 -0.2845  0.2010
   77SLPC   H3X 7019   6.449   1.972   6.177  0.0044  2.5135 -1.5334
   77SLPC   H3Y 7020   6.614   2.041   6.230  1.9825 -0.9752 -2.7495
   77SLPC   C34 7021   6.553   1.841   6.310 -0.2836 -0.6659  0.8075
   77SLPC   H4X 7022   6.661   1.820   6.316  0.5801  2.8690 -0.0702
   77SLPC   H4Y 7023   6.499   1.754   6.269  1.4986 -1.3300 -0.2222
   77SLPC   C35 7024   6.526   1.899   6.451 -0.4952 -0.2355  0.2672
   77SLPC   H5X 7025   6.416   1.915   6.446 -0.3105  0.9129 -0.8324
   77SLPC   H5Y 7026   6.558   2.005   6.459 -1.5478 -0.0042  2.0301
   77SLPC   C36 7027   6.600   1.822   6.564 -0.2481 -0.5570  0.6280
   77SLPC   H6X 7028   6.705   1.801   6.533 -0.6209  0.4830 -1.5273
   77SLPC   H6Y 7029   6.552   1.722   6.575  1.0871 -1.4440 -1.1070
   77SLPC   C37 7030   6.579   1.902   6.693  0.7318 -0.1978  0.1904
   77SLPC   H7X 7031   6.473   1.895   6.726  0.4788  2.1727  0.0280
   77SLPC   H7Y 7032   6.612   2.007   6.682 -1.5864  0.3882 -2.2631
   77SLPC   C38 7033   6.667   1.848   6.806  0.6920 -0.1393  0.7453
   77SLPC   H8X 7034   6.665   1.928   6.883 -1.2666  0.1659  0.4126
   77SLPC   H8Y 7035   6.772   1.845   6.769  0.5623  0.5075  0.2991
   77SLPC   C39 7036   6.639   1.704   6.856  0.7481  0.2964  0.1805
   77SLPC   H9X 7037   6.645   1.639   6.767  2.7715  1.0090 -0.2527
   77SLPC   H9Y 7038   6.538   1.686   6.898  1.1387 -1.4857  0.4407
   77SLPC  C310 7039   6.751   1.645   6.941 -0.2442 -0.8218 -0.5674
   77SLPC  H10X 7040   6.787   1.728   7.006  0.2956 -0.7074 -0.9978
   77SLPC  H10Y 7041   6.833   1.611   6.873 -0.9469 -0.3658 -1.6790
   77SLPC  C311 7042   6.708   1.520   7.026 -0.0583  0.0027 -0.4139
   77SLPC  H11X 7043   6.654   1.566   7.112  2.3679  1.5839  0.3781
   77SLPC  H11Y 7044   6.800   1.480   7.074 -0.2767  1.2877  1.1766
   77SLPC  C312 7045   6.617   1.423   6.946 -0.7891 -0.5861  0.0789
   77SLPC  H12X 7046   6.672   1.412   6.850  0.0667  1.5662  0.2670
   77SLPC  H12Y 7047   6.521   1.471   6.919 -0.1206 -0.3103 -1.9631
   77SLPC  C313 7048   6.593   1.291   7.019  0.4094 -0.5112 -0.7221
   77SLPC  H13X 7049   6.689   1.257   7.064  0.4328  0.7227  0.2160
   77SLPC  H13Y 7050   6.563   1.219   6.941 -0.2048 -1.5620  0.4505
   77SLPC  C314 7051   6.489   1.296   7.135  0.3958  0.7798  0.1920
   77SLPC  H14X 7052   6.447   1.194   7.148  0.8731  0.4929 -0.4374
   77SLPC  H14Y 7053   6.402   1.358   7.104  0.4808  0.4906 -0.6496
   77SLPC  C315 7054   6.542   1.334   7.278  0.1473 -0.0805  0.9838
   77SLPC  H15X 7055   6.577   1.440   7.274 -0.9237  0.2619 -0.0965
   77SLPC  H15Y 7056   6.634   1.278   7.306 -0.5532 -0.6522  2.1694
   77SLPC  C316 7057   6.437   1.322   7.386  0.5745 -0.3111  0.2763
   77SLPC  H16X 7058   6.405   1.216   7.397  1.6696 -0.6976 -0.0656
   77SLPC  H16Y 7059   6.343   1.369   7.349  0.2207  0.3055  1.8900
   77SLPC  C317 7060   6.463   1.378   7.525 -0.2786 -0.5576  0.2617
   77SLPC  H17X 7061   6.525   1.303   7.578 -0.6973 -0.9762  0.1688
   77SLPC  H17Y 7062   6.375   1.368   7.592 -1.3539  1.1364 -0.8002
   77SLPC  C318 7063   6.521   1.518   7.529  0.0015 -0.0087  0.0195
   77SLPC  H18X 7064   6.523   1.553   7.634  0.2385 -0.8741  0.3150
   77SLPC  H18Y 7065   6.451   1.588   7.479  1.0786  1.2908  0.2806
   77SLPC  H18Z 7066   6.621   1.530   7.483 -0.1982 -0.4977 -0.5642
   78SLPC     N 7067   1.037   0.988   5.700  0.5500  0.4797  0.4886
   78SLPC   C13 7068   0.996   1.108   5.781 -0.0556  0.7542 -0.0946
   78SLPC  H13A 7069   1.093   1.150   5.804  0.3621 -0.6115  0.7646
   78SLPC  H13B 7070   0.934   1.170   5.718 -1.4809 -2.9483 -2.7309
   78SLPC  H13C 7071   0.951   1.068   5.870  1.0698 -1.5426 -0.4678
   78SLPC   C14 7072   1.114   1.035   5.573  0.0773 -0.5649  0.3709
   78SLPC  H14A 7073   1.047   1.078   5.501  0.3546 -0.7515  0.0027
   78SLPC  H14B 7074   1.185   1.114   5.593  0.4717 -0.7500 -0.2763
   78SLPC  H14C 7075   1.158   0.950   5.523  0.3782  0.2311 -0.7556
   78SLPC   C15 7076   0.923   0.901   5.653  0.6878  0.5620 -0.0720
   78SLPC  H15A 7077   0.858   0.962   5.593 -0.5821 -1.9518 -1.4521
   78SLPC  H15B 7078   0.959   0.824   5.586 -3.5937 -0.5276 -1.4757
   78SLPC  H15C 7079   0.882   0.852   5.740  2.4732 -0.4535  0.2564
   78SLPC   C12 7080   1.124   0.894   5.778 -0.5151 -0.4533  0.2021
   78SLPC  H12A 7081   1.225   0.923   5.800 -1.2879  1.5306  1.4322
   78SLPC  H12B 7082   1.145   0.817   5.705 -1.0091 -0.3410 -0.0626
   78SLPC   C11 7083   1.061   0.825   5.903 -0.5013 -0.0618 -0.0881
   78SLPC  H11A 7084   1.004   0.905   5.955 -1.8890 -0.6209 -0.7211
   78SLPC  H11B 7085   1.147   0.801   5.970 -1.5664  1.1378  1.7942
   78SLPC     P 7086   1.022   0.571   5.845  0.3526  0.2122 -0.1685
   78SLPC   O13 7087   0.918   0.489   5.779 -0.1351  0.6147 -0.0750
   78SLPC   O14 7088   1.149   0.571   5.777  0.1497  0.0624 -0.3298
   78SLPC   O12 7089   0.969   0.715   5.873  0.3858 -0.3789 -0.0190
   78SLPC   O11 7090   1.049   0.517   5.988  0.4325 -0.0166 -0.2066
   78SLPC    C1 7091   0.945   0.514   6.086 -0.0820 -0.4698 -0.1712
   78SLPC    HA 7092   0.844   0.515   6.041 -0.2678  0.4531  0.2388
   78SLPC    HB 7093   0.962   0.423   6.147  1.9426  1.7120  2.8346
   78SLPC    C2 7094   0.942   0.632   6.185  0.1270 -0.8012  0.3076
   78SLPC    HS 7095   0.937   0.721   6.120  1.9650 -0.5553  0.4534
   78SLPC   O21 7096   1.059   0.646   6.268 -0.2983  0.3657  0.0235
   78SLPC   C21 7097   1.083   0.764   6.311 -0.4171  0.0739 -0.1555
   78SLPC   O22 7098   1.025   0.864   6.273  0.3861 -0.0250 -0.2740
   78SLPC   C22 7099   1.216   0.765   6.386 -0.1470  0.0671 -0.6388
   78SLPC   H2R 7100   1.218   0.668   6.440 -0.2868 -0.0558 -0.8564
   78SLPC   H2S 7101   1.293   0.769   6.306 -0.4201 -1.8632 -1.0463
   78SLPC    C3 7102   0.813   0.623   6.274 -0.7435 -0.5236  0.8353
   78SLPC    HX 7103   0.733   0.609   6.198  0.5384 -0.8979 -0.4997
   78SLPC    HY 7104   0.796   0.723   6.319 -1.0266 -0.4008  0.4615
   78SLPC   O31 7105   0.802   0.512   6.367  0.0324  0.4723  0.1645
   78SLPC   C31 7106   0.834   0.536   6.490  0.6120  0.1871 -0.6974
   78SLPC   O32 7107   0.866   0.639   6.540 -0.7457 -0.7678 -0.2585
   78SLPC   C32 7108   0.805   0.409   6.566 -0.1324 -0.0958 -0.8411
   78SLPC   H2X 7109   0.861   0.327   6.515 -0.0563  0.3004 -1.4062
   78SLPC   H2Y 7110   0.695   0.391   6.558  0.0533 -1.9835  0.3181
   78SLPC   C23 7111   1.237   0.899   6.462 -0.2869 -0.2974 -0.7984
   78SLPC   H3R 7112   1.209   0.994   6.411 -1.1363  0.4402  0.9697
   78SLPC   H3S 7113   1.346   0.915   6.477 -0.4402 -0.5992  0.7463
   78SLPC   C24 7114   1.164   0.900   6.601 -0.8354  0.0494  0.4915
   78SLPC   H4R 7115   1.197   0.815   6.665  0.7048 -0.7269 -1.2274
   78SLPC   H4S 7116   1.058   0.876   6.578 -0.9843  0.9879  0.1623
   78SLPC   C25 7117   1.169   1.045   6.663  0.3057  1.0553  0.2063
   78SLPC   H5R 7118   1.154   1.126   6.589 -2.3718 -0.5680 -1.1448
   78SLPC   H5S 7119   1.273   1.056   6.701  0.3563 -1.2977  0.8766
   78SLPC   C26 7120   1.068   1.061   6.781  0.5598  0.0005 -0.0055
   78SLPC   H6R 7121   0.962   1.065   6.751  0.6269 -1.7617 -0.5917
   78SLPC   H6S 7122   1.093   1.158   6.830 -0.3311  0.4794 -0.4928
   78SLPC   C27 7123   1.083   0.948   6.883  0.0429  0.1259  1.3294
   78SLPC   H7R 7124   1.069   0.990   6.985  2.6371  2.6040  0.7835
   78SLPC   H7S 7125   1.190   0.918   6.878  0.7883  2.7399 -2.1999
   78SLPC   C28 7126   0.980   0.833   6.871 -0.1896 -0.3761  0.3905
   78SLPC   H8R 7127   0.987   0.796   6.766 -0.4359  1.6603 -0.3910
   78SLPC   H8S 7128   0.876   0.873   6.867  0.2896  0.8738  0.0429
   78SLPC   C29 7129   0.986   0.715   6.962  0.0158 -0.2608 -0.3509
   78SLPC   H9R 7130   1.051   0.633   6.928 -0.4589 -0.4740 -0.7634
   78SLPC  C210 7131   0.927   0.710   7.085  0.0084 -0.5219 -0.0224
   78SLPC  H10R 7132   0.923   0.620   7.147 -1.6844 -0.5651 -0.1641
   78SLPC  C211 7133   0.843   0.823   7.144 -0.8335 -0.3552 -0.1111
   78SLPC  H11R 7134   0.897   0.919   7.133 -0.5505 -0.1344  2.5652
   78SLPC  H11S 7135   0.841   0.806   7.254  2.4049 -0.9890 -0.0580
   78SLPC  C212 7136   0.700   0.820   7.101  0.7656  0.2127 -0.2483
   78SLPC  H12R 7137   0.667   0.912   7.051  0.2151  0.8015  1.1255
   78SLPC  C213 7138   0.607   0.726   7.116 -0.0662  0.2559  0.5347
   78SLPC  H13R 7139   0.508   0.748   7.073  0.3167 -0.2199 -0.6405
   78SLPC  C214 7140   0.611   0.591   7.185  0.6290 -0.3775  0.4708
   78SLPC  H14R 7141   0.717   0.563   7.204  0.3030 -0.8109  1.8223
   78SLPC  H14S 7142   0.568   0.501   7.136 -0.7962 -0.8502  2.4241
   78SLPC  C215 7143   0.525   0.613   7.309 -1.1770 -0.5727 -0.1763
   78SLPC  H15R 7144   0.427   0.663   7.289 -1.0657 -0.6499 -0.9505
   78SLPC  H15S 7145   0.586   0.679   7.374  0.2018  1.0719 -2.9119
   78SLPC  C216 7146   0.495   0.476   7.374 -0.5108  1.1068  0.0923
   78SLPC  H16R 7147   0.587   0.424   7.410 -2.1883 -0.7030  2.0668
   78SLPC  H16S 7148   0.448   0.410   7.299 -1.8970  1.5980  0.5067
   78SLPC  C217 7149   0.399   0.501   7.488 -0.4126 -0.1642 -0.1247
   78SLPC  H17R 7150   0.312   0.563   7.457 -0.3290  1.8080  3.1021
   78SLPC  H17S 7151   0.459   0.548   7.569 -1.9999  1.7155  0.0401
   78SLPC  C218 7152   0.333   0.379   7.551 -0.3037 -0.2318 -0.4193
   78SLPC  H18R 7153   0.276   0.325   7.473  1.1137  0.3136 -1.8811
   78SLPC  H18S 7154   0.254   0.419   7.618 -0.0932  1.6525 -1.2197
   78SLPC  H18T 7155   0.400   0.314   7.611  0.9886  1.4495  0.0677
   78SLPC   C33 7156   0.832   0.436   6.713 -0.2446  0.9499  0.2732
   78SLPC   H3X 7157   0.756   0.508   6.749 -0.9770  0.1394  0.3852
   78SLPC   H3Y 7158   0.936   0.473   6.726  0.0729  0.9271 -1.8099
   78SLPC   C34 7159   0.812   0.308   6.797  0.0961 -0.5627  0.3510
   78SLPC   H4X 7160   0.881   0.225   6.768  0.2874 -0.2905  0.0167
   78SLPC   H4Y 7161   0.712   0.268   6.773 -0.2796 -0.1206  1.1348
   78SLPC   C35 7162   0.829   0.335   6.949  1.0122  0.6326 -0.3099
   78SLPC   H5X 7163   0.737   0.378   6.993  0.0508 -0.8578 -0.8006
   78SLPC   H5Y 7164   0.911   0.407   6.971  2.7278 -1.5126  0.5860
   78SLPC   C36 7165   0.861   0.207   7.029 -0.5510  0.7258 -0.1345
   78SLPC   H6X 7166   0.931   0.140   6.975  0.1675  1.5713 -0.2737
   78SLPC   H6Y 7167   0.766   0.151   7.040  0.6523 -1.3156  0.5965
   78SLPC   C37 7168   0.923   0.226   7.162 -0.6222  0.4944 -0.3775
   78SLPC   H7X 7169   0.857   0.292   7.223  0.8851  1.2154  0.5260
   78SLPC   H7Y 7170   1.015   0.287   7.157 -0.0285 -0.2694  0.6440
   78SLPC   C38 7171   0.947   0.092   7.240  0.3876 -0.0838 -0.4354
   78SLPC   H8X 7172   1.026   0.029   7.193 -0.6521 -0.9510 -1.0584
   78SLPC   H8Y 7173   0.852   0.035   7.241 -0.1969  0.8293  2.0574
   78SLPC   C39 7174   0.986   0.122   7.381  0.2128  0.1807 -0.3612
   78SLPC   H9X 7175   1.055   0.209   7.384 -0.6290  0.8457 -0.0964
   78SLPC   H9Y 7176   1.037   0.037   7.431 -1.9101 -2.3993 -2.2794
   78SLPC  C310 7177   0.873   0.168   7.476  0.1151 -0.0005 -0.5384
   78SLPC  H10X 7178   0.818   0.256   7.435 -1.6213 -0.7179  0.1401
   78SLPC  H10Y 7179   0.923   0.203   7.569 -0.1981 -0.4053 -0.2124
   78SLPC  C311 7180   0.773   0.054   7.508  0.2048  0.1622  0.4940
   78SLPC  H11X 7181   0.817  -0.022   7.577 -1.6779 -0.7028  0.8244
   78SLPC  H11Y 7182   0.747   0.005   7.412  0.0369  0.6608  0.2830
   78SLPC  C312 7183   0.641   0.114   7.564  0.9069 -0.1981  0.3136
   78SLPC  H12X 7184   0.559   0.040   7.551  0.8207  0.0698 -0.8135
   78SLPC  H12Y 7185   0.608   0.203   7.506 -0.7821 -1.7689 -1.2808
   78SLPC  C313 7186   0.650   0.140   7.714 -0.5031 -0.3781  0.0380
   78SLPC  H13X 7187   0.558   0.180   7.761  1.1060  0.7060  2.5155
   78SLPC  H13Y 7188   0.732   0.209   7.744  0.3343 -1.5087  0.4433
   78SLPC  C314 7189   0.667   0.004   7.798  0.0653 -0.3987 -0.0288
   78SLPC  H14X 7190   0.774  -0.024   7.792  0.7208  2.0324 -0.4502
   78SLPC  H14Y 7191   0.613  -0.077   7.743 -0.0755 -0.9269  0.8712
   78SLPC  C315 7192   0.637   0.021   7.944  0.0894  0.2462  0.2397
   78SLPC  H15X 7193   0.530  -0.003   7.962  0.8825 -1.8342  2.7076
   78SLPC  H15Y 7194   0.664   0.127   7.962 -1.4450  0.6887  0.0677
   78SLPC  C316 7195   0.712  -0.078   8.032 -0.3676  0.2930 -0.1888
   78SLPC  H16X 7196   0.820  -0.053   8.027 -0.6035  1.3150 -0.5105
   78SLPC  H16Y 7197   0.708  -0.178   7.985  0.4418 -0.6999  1.7670
   78SLPC  C317 7198   0.669  -0.101   8.179 -0.1079 -0.0375  0.2876
   78SLPC  H17X 7199   0.653   0.001   8.219 -3.4850 -0.0373 -0.7473
   78SLPC  H17Y 7200   0.746  -0.153   8.240 -1.7218 -2.2980  0.5382
   78SLPC  C318 7201   0.546  -0.196   8.195 -0.6402  0.2459  0.1306
   78SLPC  H18X 7202   0.456  -0.143   8.156 -0.3505  0.6962  0.0657
   78SLPC  H18Y 7203   0.540  -0.224   8.302 -2.0315 -1.2076 -0.3032
   78SLPC  H18Z 7204   0.576  -0.291   8.147  0.5288  0.0817  1.1286
   79SLPC     N 7205   6.539   4.461   5.776  0.0837  0.0631  0.6185
   79SLPC   C13 7206   6.437   4.527   5.684 -0.6624 -0.6008  1.0442
   79SLPC  H13A 7207   6.360   4.462   5.645 -3.0144  1.8006  1.3877
   79SLPC  H13B 7208   6.386   4.612   5.727 -0.0395  0.2390  0.1426
   79SLPC  H13C 7209   6.485   4.561   5.594 -2.3959  0.1050  0.3560
   79SLPC   C14 7210   6.467   4.398   5.891 -0.2629 -0.3185 -0.2183
   79SLPC  H14A 7211   6.434   4.469   5.964  1.7486 -0.1916  0.6363
   79SLPC  H14B 7212   6.382   4.339   5.860 -3.2589  3.0998  0.8784
   79SLPC  H14C 7213   6.538   4.332   5.939  1.7958  0.7483 -1.6471
   79SLPC   C15 7214   6.622   4.569   5.834  0.7730 -0.6225 -0.2935
   79SLPC  H15A 7215   6.668   4.629   5.756  0.8943 -0.7694 -0.3352
   79SLPC  H15B 7216   6.571   4.640   5.897  2.1474 -0.2049  0.3914
   79SLPC  H15C 7217   6.705   4.532   5.891 -0.6296 -1.0134  1.5802
   79SLPC   C12 7218   6.620   4.362   5.697  0.4334 -0.0966 -1.0464
   79SLPC  H12A 7219   6.670   4.408   5.613  1.5648 -0.9889 -0.8810
   79SLPC  H12B 7220   6.550   4.292   5.653 -0.9912  0.4113  0.3413
   79SLPC   C11 7221   6.721   4.273   5.771  0.3529 -0.7654 -0.7276
   79SLPC  H11A 7222   6.777   4.351   5.827 -0.2073 -1.1280  0.3633
   79SLPC  H11B 7223   6.794   4.224   5.703  2.2017  1.1641 -0.2698
   79SLPC     P 7224   6.669   4.033   5.862  0.1296 -0.0546 -0.0247
   79SLPC   O13 7225   6.547   3.979   5.921  0.0244  0.0771  0.1580
   79SLPC   O14 7226   6.683   3.989   5.721  0.0400  0.3817  0.4883
   79SLPC   O12 7227   6.658   4.190   5.858  0.4830 -0.1630 -0.2600
   79SLPC   O11 7228   6.803   4.002   5.944 -0.1072  0.4141  0.1628
   79SLPC    C1 7229   6.854   4.076   6.054  0.0886 -0.2044 -0.1526
   79SLPC    HA 7230   6.803   4.175   6.061  1.0845  0.1837  3.6634
   79SLPC    HB 7231   6.833   4.023   6.149  0.2291 -0.5720 -0.3243
   79SLPC    C2 7232   7.006   4.091   6.047  0.2621 -0.8639 -0.5423
   79SLPC    HS 7233   7.024   4.122   5.942 -5.1189  2.1686 -0.9001
   79SLPC   O21 7234   7.062   3.955   6.062 -0.3337 -0.1525  0.1476
   79SLPC   C21 7235   7.192   3.947   6.056  0.2866 -0.1801  0.9481
   79SLPC   O22 7236   7.269   4.031   6.011  0.2486  0.1822 -0.1778
   79SLPC   C22 7237   7.240   3.815   6.116 -0.2401 -0.5943  0.8322
   79SLPC   H2R 7238   7.213   3.813   6.223  1.9053 -0.5501  1.4212
   79SLPC   H2S 7239   7.194   3.726   6.068 -0.2712 -0.3369  0.3792
   79SLPC    C3 7240   7.064   4.194   6.154  0.2542  0.2788  0.2255
   79SLPC    HX 7241   7.001   4.284   6.139  0.4960  0.1976 -1.4004
   79SLPC    HY 7242   7.167   4.216   6.120  0.2498 -0.7335 -0.4781
   79SLPC   O31 7243   7.056   4.152   6.295 -0.1539  0.0254  0.1816
   79SLPC   C31 7244   6.942   4.183   6.358  0.4907 -0.4932 -0.0796
   79SLPC   O32 7245   6.852   4.237   6.303 -0.2013 -0.4819  0.1729
   79SLPC   C32 7246   6.950   4.166   6.513 -0.4052 -0.1798  0.1730
   79SLPC   H2X 7247   6.853   4.196   6.556  0.7301  0.7244  2.2570
   79SLPC   H2Y 7248   7.021   4.243   6.552 -0.4125  0.5579 -1.1813
   79SLPC   C23 7249   7.389   3.788   6.105 -0.0444 -0.3369  0.5720
   79SLPC   H3R 7250   7.455   3.876   6.111  0.9211 -0.8375 -1.5011
   79SLPC   H3S 7251   7.411   3.755   6.001 -1.1055 -0.1693  0.2768
   79SLPC   C24 7252   7.443   3.692   6.204  0.1825  0.0894  0.1147
   79SLPC   H4R 7253   7.378   3.602   6.210 -0.4755  0.3723 -1.9338
   79SLPC   H4S 7254   7.446   3.742   6.303  0.8022 -0.1425  0.2175
   79SLPC   C25 7255   7.592   3.651   6.156  0.4890 -0.6396 -0.6058
   79SLPC   H5R 7256   7.634   3.750   6.127 -0.5697 -0.1008 -0.3598
   79SLPC   H5S 7257   7.588   3.597   6.059 -2.6530  1.0483 -1.5849
   79SLPC   C26 7258   7.662   3.579   6.267  0.4406  0.5530 -0.0121
   79SLPC   H6R 7259   7.612   3.482   6.288  2.9231 -0.8252 -0.0037
   79SLPC   H6S 7260   7.651   3.639   6.360  1.1240  0.8583 -0.1169
   79SLPC   C27 7261   7.811   3.554   6.240 -0.2254  0.3028 -0.0979
   79SLPC   H7R 7262   7.860   3.653   6.256 -0.7863  0.9016 -1.8005
   79SLPC   H7S 7263   7.833   3.508   6.141 -0.8057  0.2510 -0.2107
   79SLPC   C28 7264   7.869   3.457   6.343  0.3378  0.1533 -0.3848
   79SLPC   H8R 7265   7.973   3.434   6.311  0.9541  0.0106  1.5367
   79SLPC   H8S 7266   7.812   3.363   6.333  0.1594  0.3371 -1.1644
   79SLPC   C29 7267   7.880   3.518   6.477 -0.1298  0.0630 -0.4805
   79SLPC   H9R 7268   7.938   3.611   6.473 -0.5057  0.2749 -1.1829
   79SLPC  C210 7269   7.828   3.468   6.590  0.3491  0.3584  1.0269
   79SLPC  H10R 7270   7.830   3.526   6.684  0.5027  1.8532  0.1301
   79SLPC  C211 7271   7.731   3.350   6.602 -0.4702 -0.0562 -0.2275
   79SLPC  H11R 7272   7.779   3.251   6.593 -0.5965  0.0060 -1.8817
   79SLPC  H11S 7273   7.656   3.365   6.522 -0.8222  2.1135  0.4416
   79SLPC  C212 7274   7.662   3.340   6.736 -0.3138 -0.6132  0.5173
   79SLPC  H12R 7275   7.708   3.266   6.804  1.8855  2.5584  2.7527
   79SLPC  C213 7276   7.544   3.397   6.767  0.5389  0.1056 -0.0329
   79SLPC  H13R 7277   7.498   3.377   6.865 -1.7069 -2.0983 -1.4020
   79SLPC  C214 7278   7.464   3.489   6.674 -1.0084  0.2201  0.9292
   79SLPC  H14R 7279   7.514   3.541   6.589 -1.0071 -0.1954  0.6753
   79SLPC  H14S 7280   7.413   3.572   6.727 -1.8306 -0.6252  1.4834
   79SLPC  C215 7281   7.350   3.406   6.610 -0.1479 -0.2858  0.1819
   79SLPC  H15R 7282   7.290   3.372   6.697  1.5775 -1.6014  0.9346
   79SLPC  H15S 7283   7.387   3.312   6.564  3.8741  0.9536  0.4867
   79SLPC  C216 7284   7.272   3.490   6.511  0.5276 -0.7103 -0.1376
   79SLPC  H16R 7285   7.190   3.433   6.462  1.4395 -1.8829 -0.3415
   79SLPC  H16S 7286   7.339   3.521   6.429 -2.3394  1.3933 -1.8620
   79SLPC  C217 7287   7.215   3.626   6.566  0.7859  0.7533  0.3338
   79SLPC  H17R 7288   7.156   3.670   6.483 -1.2230  2.0757  2.3345
   79SLPC  H17S 7289   7.304   3.689   6.588  2.0998 -1.0635  0.5179
   79SLPC  C218 7290   7.123   3.611   6.684  0.1525 -0.5180  0.0181
   79SLPC  H18R 7291   7.170   3.613   6.785  0.6485  1.6672 -0.2036
   79SLPC  H18S 7292   7.057   3.522   6.686 -3.1397  1.7455  0.5275
   79SLPC  H18T 7293   7.052   3.695   6.698  2.5056  1.4908  0.6647
   79SLPC   C33 7294   6.993   4.024   6.561  0.1155 -0.6002  0.0055
   79SLPC   H3X 7295   7.104   4.019   6.557  0.2236  1.4917 -1.5223
   79SLPC   H3Y 7296   6.941   3.954   6.493 -1.9481  0.6699  0.1924
   79SLPC   C34 7297   6.946   3.979   6.694 -0.1671 -0.5289  0.5811
   79SLPC   H4X 7298   6.985   3.881   6.732  2.0812 -0.0091 -0.2537
   79SLPC   H4Y 7299   6.836   3.983   6.683  0.0682 -0.6158 -2.7351
   79SLPC   C35 7300   6.976   4.081   6.803  0.0239  0.0367  0.0760
   79SLPC   H5X 7301   6.902   4.162   6.787 -1.4725 -1.5648 -1.5639
   79SLPC   H5Y 7302   7.074   4.133   6.800 -0.7652  1.8239  2.4464
   79SLPC   C36 7303   6.962   4.024   6.948  0.8370  0.1294  0.2965
   79SLPC   H6X 7304   7.046   3.955   6.972  0.6057  0.1811  1.2951
   79SLPC   H6Y 7305   6.870   3.970   6.977  0.1829  1.4523  0.7769
   79SLPC   C37 7306   6.970   4.135   7.055  0.0666  0.5398 -0.0453
   79SLPC   H7X 7307   6.874   4.191   7.051 -1.3646 -1.7452  0.3824
   79SLPC   H7Y 7308   7.060   4.200   7.047  1.4326 -1.2668  0.0496
   79SLPC   C38 7309   6.982   4.083   7.203 -0.0706 -0.0059 -0.4505
   79SLPC   H8X 7310   7.087   4.048   7.213  0.9677  3.2928  1.3189
   79SLPC   H8Y 7311   6.913   3.998   7.222 -1.4938  1.1184 -0.4065
   79SLPC   C39 7312   6.965   4.196   7.309  0.0870  0.2741 -0.7460
   79SLPC   H9X 7313   6.856   4.202   7.329 -0.4485 -0.3872 -3.1620
   79SLPC   H9Y 7314   7.007   4.289   7.265 -0.5983  0.6002 -0.7281
   79SLPC  C310 7315   7.034   4.172   7.445  0.4426 -0.1959 -0.6209
   79SLPC  H10X 7316   7.139   4.141   7.426  0.6807  1.2666 -1.9915
   79SLPC  H10Y 7317   6.979   4.089   7.492  1.0287  0.2910  0.9713
   79SLPC  C311 7318   7.018   4.288   7.548  0.3166 -0.3773 -0.4963
   79SLPC  H11X 7319   6.911   4.318   7.554 -0.0048 -1.6449  0.6979
   79SLPC  H11Y 7320   7.080   4.369   7.503  0.0779 -0.0975 -0.3221
   79SLPC  C312 7321   7.084   4.274   7.680  0.0783  0.1140  0.0130
   79SLPC  H12X 7322   7.185   4.228   7.676 -0.6012 -1.6284  1.5532
   79SLPC  H12Y 7323   7.029   4.196   7.736  1.6331 -0.4442  0.8254
   79SLPC  C313 7324   7.075   4.405   7.764  0.1366  0.7015 -0.5205
   79SLPC  H13X 7325   6.968   4.433   7.759 -0.4568 -1.2201  0.5533
   79SLPC  H13Y 7326   7.141   4.479   7.713 -0.5465  0.7231 -1.3857
   79SLPC  C314 7327   7.126   4.381   7.905 -0.6928 -0.2566 -0.8614
   79SLPC  H14X 7328   7.121   4.482   7.951 -0.4198 -1.3713  1.8187
   79SLPC  H14Y 7329   7.230   4.344   7.900 -0.7906 -0.4834 -1.2416
   79SLPC  C315 7330   7.055   4.268   7.983  0.2954  1.0494 -0.2363
   79SLPC  H15X 7331   7.061   4.170   7.930  0.4422  0.9056  0.0448
   79SLPC  H15Y 7332   6.947   4.293   7.976  0.0256  0.2478  0.8035
   79SLPC  C316 7333   7.096   4.236   8.130 -0.3064 -0.1732  0.2362
   79SLPC  H16X 7334   7.119   4.332   8.182  1.4635  0.2630 -1.2392
   79SLPC  H16Y 7335   7.193   4.183   8.124  0.6183  1.2224  2.0059
   79SLPC  C317 7336   6.982   4.153   8.198  0.0660 -0.3695 -0.3011
   79SLPC  H17X 7337   6.978   4.057   8.143 -1.2746 -1.3565  1.4192
   79SLPC  H17Y 7338   6.887   4.206   8.177 -0.8850 -1.0869  1.9595
   79SLPC  C318 7339   7.010   4.119   8.346  0.1119 -0.0951  0.6959
   79SLPC  H18X 7340   7.038   4.208   8.407  0.5991  1.0442 -1.1328
   79SLPC  H18Y 7341   7.084   4.037   8.357  1.7152  0.9117 -1.8824
   79SLPC  H18Z 7342   6.912   4.083   8.386  0.2117 -0.2011  0.8458
   80SLPC     N 7343   6.784   1.926   5.414  1.3460  0.1281 -0.3469
   80SLPC   C13 7344   6.925   1.940   5.362  0.6352 -0.0381  0.3589
   80SLPC  H13A 7345   6.994   1.899   5.434 -1.4174  1.2227  3.2417
   80SLPC  H13B 7346   6.929   1.883   5.270  1.4292  0.1918  0.2416
   80SLPC  H13C 7347   6.947   2.041   5.331  1.6023 -0.7208 -1.3789
   80SLPC   C14 7348   6.691   1.961   5.304  0.6409  0.4310 -0.3055
   80SLPC  H14A 7349   6.706   2.058   5.260  1.2626  2.5429  4.0233
   80SLPC  H14B 7350   6.694   1.888   5.224 -1.2032 -0.2375  0.1905
   80SLPC  H14C 7351   6.589   1.976   5.336  0.7695 -0.6918  0.7357
   80SLPC   C15 7352   6.755   2.017   5.522  0.3676  0.0645  0.6352
   80SLPC  H15A 7353   6.821   1.991   5.604 -0.6734 -2.4416  0.7654
   80SLPC  H15B 7354   6.761   2.122   5.499 -0.7897 -0.3773 -2.0430
   80SLPC  H15C 7355   6.654   2.005   5.559 -1.0852  1.1662 -2.6057
   80SLPC   C12 7356   6.748   1.786   5.467 -0.4752  0.5991  0.5406
   80SLPC  H12A 7357   6.783   1.721   5.388 -1.1158  1.3430 -0.3822
   80SLPC  H12B 7358   6.642   1.768   5.470 -0.2716 -0.6132  2.4083
   80SLPC   C11 7359   6.809   1.735   5.599  0.8917 -0.5164 -0.5190
   80SLPC  H11A 7360   6.775   1.634   5.626 -0.6706  0.6070  2.0633
   80SLPC  H11B 7361   6.770   1.806   5.675  3.5267  0.6271 -0.1038
   80SLPC     P 7362   7.049   1.647   5.533 -0.3764  0.2842 -0.1265
   80SLPC   O13 7363   6.968   1.556   5.444  0.0047  0.0388 -0.1824
   80SLPC   O14 7364   7.155   1.716   5.458 -0.5388 -0.5161 -0.9794
   80SLPC   O12 7365   6.954   1.751   5.597  0.0400 -0.4189 -0.2361
   80SLPC   O11 7366   7.114   1.551   5.646  0.5157 -0.0279  0.2914
   80SLPC    C1 7367   7.134   1.603   5.779  0.7149 -0.3095 -1.1282
   80SLPC    HA 7368   7.227   1.566   5.828 -0.8783  0.3881  2.8101
   80SLPC    HB 7369   7.151   1.713   5.782 -0.2553 -0.0439 -3.3700
   80SLPC    C2 7370   7.019   1.561   5.872  0.3832 -0.8166 -0.1712
   80SLPC    HS 7371   6.925   1.598   5.826  0.8012 -0.2544 -0.5844
   80SLPC   O21 7372   7.033   1.637   5.989 -0.6476 -0.1961 -0.1134
   80SLPC   C21 7373   6.941   1.629   6.078 -0.2444  0.3102  0.4515
   80SLPC   O22 7374   6.836   1.567   6.070  0.1201  0.0713  0.2287
   80SLPC   C22 7375   6.980   1.711   6.198 -0.5061 -0.2305  0.2211
   80SLPC   H2R 7376   7.060   1.783   6.170 -1.3077  0.1801 -1.1067
   80SLPC   H2S 7377   6.889   1.772   6.220 -0.0054  1.3045 -1.6360
   80SLPC    C3 7378   7.025   1.411   5.895 -0.4227  0.5407 -0.0056
   80SLPC    HX 7379   7.047   1.355   5.801 -0.2676 -0.1111  0.4131
   80SLPC    HY 7380   6.923   1.384   5.929 -0.5988  0.0661 -0.8750
   80SLPC   O31 7381   7.124   1.378   5.995  0.3384  0.7837 -0.1024
   80SLPC   C31 7382   7.087   1.297   6.086  0.3406  0.1190 -0.6235
   80SLPC   O32 7383   6.987   1.238   6.099  0.1381  0.0510 -0.3378
   80SLPC   C32 7384   7.199   1.297   6.195  0.1655 -0.2712 -0.0438
   80SLPC   H2X 7385   7.207   1.400   6.237 -0.6353 -0.9868  1.9966
   80SLPC   H2Y 7386   7.289   1.283   6.131  1.1199 -1.1624  1.4373
   80SLPC   C23 7387   7.006   1.621   6.325  0.3589  0.2427 -0.7344
   80SLPC   H3R 7388   7.101   1.565   6.306  1.9059  2.3499  0.3293
   80SLPC   H3S 7389   6.922   1.552   6.344  1.4957 -1.0185 -0.0659
   80SLPC   C24 7390   7.040   1.710   6.442  0.7172 -0.4177  0.6107
   80SLPC   H4R 7391   6.948   1.762   6.474  1.2451  0.9032  0.0486
   80SLPC   H4S 7392   7.120   1.776   6.402 -0.8062  1.6931  0.9033
   80SLPC   C25 7393   7.099   1.636   6.564 -0.3612  0.6488  0.1881
   80SLPC   H5R 7394   7.206   1.619   6.543 -0.2930 -0.5306  1.3194
   80SLPC   H5S 7395   7.054   1.534   6.573  1.1463  0.0725  1.6258
   80SLPC   C26 7396   7.075   1.710   6.693  0.0242 -0.3823  0.4946
   80SLPC   H6R 7397   6.967   1.719   6.714  0.0157  2.4327 -0.4180
   80SLPC   H6S 7398   7.115   1.809   6.663 -0.7526 -1.1253 -3.6524
   80SLPC   C27 7399   7.154   1.658   6.814  0.1297  0.7247 -0.1277
   80SLPC   H7R 7400   7.261   1.663   6.786  0.6016 -1.2330  1.0907
   80SLPC   H7S 7401   7.123   1.552   6.830 -0.2312  0.6719 -1.1049
   80SLPC   C28 7402   7.137   1.750   6.939 -0.4291  0.2787  0.8990
   80SLPC   H8R 7403   7.030   1.743   6.967 -0.8781  1.5691 -0.4216
   80SLPC   H8S 7404   7.153   1.854   6.906 -2.1419  1.0283  2.2436
   80SLPC   C29 7405   7.231   1.702   7.041 -0.1060 -0.1578  0.0361
   80SLPC   H9R 7406   7.291   1.617   7.004  0.4198 -1.2286  3.0573
   80SLPC  C210 7407   7.253   1.743   7.167 -0.5014  0.3260 -0.0450
   80SLPC  H10R 7408   7.329   1.691   7.226 -0.9827 -0.8968 -0.4702
   80SLPC  C211 7409   7.195   1.862   7.233  0.0903 -0.5053  0.4476
   80SLPC  H11R 7410   7.170   1.936   7.153 -0.1593 -2.3936 -1.3238
   80SLPC  H11S 7411   7.266   1.909   7.304 -1.1117  1.1217  0.6525
   80SLPC  C212 7412   7.072   1.825   7.304  0.5586 -0.4004 -0.3630
   80SLPC  H12R 7413   6.987   1.821   7.234  0.9248  0.0612 -0.8416
   80SLPC  C213 7414   7.059   1.774   7.431  0.0497  0.0480  0.2430
   80SLPC  H13R 7415   6.959   1.744   7.467 -0.3864  1.6573  0.4801
   80SLPC  C214 7416   7.165   1.792   7.540  0.4291  0.5984  0.5155
   80SLPC  H14R 7417   7.262   1.762   7.495 -0.6697  1.6374 -2.8367
   80SLPC  H14S 7418   7.145   1.723   7.625  1.6629 -0.0896  0.2724
   80SLPC  C215 7419   7.203   1.935   7.583 -0.1513 -0.3485 -0.2897
   80SLPC  H15R 7420   7.225   1.996   7.492 -1.6491  1.2487  0.3555
   80SLPC  H15S 7421   7.296   1.938   7.643  1.1012 -1.7700 -2.0852
   80SLPC  C216 7422   7.092   2.005   7.663  0.0483  0.1509 -0.8023
   80SLPC  H16R 7423   7.066   1.951   7.757 -1.1392  1.4764 -0.3388
   80SLPC  H16S 7424   7.000   2.015   7.602 -2.0081  0.0674  2.0847
   80SLPC  C217 7425   7.134   2.149   7.710 -1.1419 -0.1924  0.0140
   80SLPC  H17R 7426   7.172   2.203   7.621  0.4538  0.4223  1.0295
   80SLPC  H17S 7427   7.222   2.128   7.774  0.0431  0.6932 -1.2663
   80SLPC  C218 7428   7.027   2.220   7.797 -0.0293  0.4939  0.0506
   80SLPC  H18R 7429   6.968   2.149   7.859  0.3574  0.7633  0.7409
   80SLPC  H18S 7430   6.955   2.269   7.728  0.4842  0.8247 -0.2552
   80SLPC  H18T 7431   7.081   2.295   7.858  0.6956  1.0316 -1.2098
   80SLPC   C33 7432   7.190   1.184   6.306  0.2509 -0.5373  0.2182
   80SLPC   H3X 7433   7.165   1.086   6.260  1.7787 -0.3822 -1.0501
   80SLPC   H3Y 7434   7.114   1.207   6.383 -0.0905  0.8683 -0.5121
   80SLPC   C34 7435   7.324   1.164   6.376 -0.0259 -0.4698  0.5638
   80SLPC   H4X 7436   7.385   1.125   6.293 -1.3085  0.5328 -0.9047
   80SLPC   H4Y 7437   7.327   1.082   6.451 -0.3965 -0.6261  0.4103
   80SLPC   C35 7438   7.380   1.294   6.430 -0.0916 -0.1546  1.0478
   80SLPC   H5X 7439   7.293   1.348   6.473 -1.3618 -0.6431 -0.7919
   80SLPC   H5Y 7440   7.405   1.352   6.338 -2.8373 -1.4172 -0.6113
   80SLPC   C36 7441   7.516   1.284   6.511  0.3346 -0.3163 -0.3554
   80SLPC   H6X 7442   7.595   1.236   6.449  1.6031  0.2112  0.8144
   80SLPC   H6Y 7443   7.501   1.221   6.601 -2.1038 -2.1065 -1.8776
   80SLPC   C37 7444   7.574   1.420   6.548 -0.1560 -0.1948 -0.5586
   80SLPC   H7X 7445   7.592   1.474   6.453 -0.0884  0.7756 -0.0029
   80SLPC   H7Y 7446   7.664   1.394   6.608 -0.2944 -1.0133 -0.6885
   80SLPC   C38 7447   7.478   1.506   6.631  0.2089 -0.5110  0.3977
   80SLPC   H8X 7448   7.435   1.449   6.716 -1.0995 -0.0759  0.0592
   80SLPC   H8Y 7449   7.392   1.543   6.572 -0.1278  1.4366  1.9788
   80SLPC   C39 7450   7.541   1.629   6.701 -0.5601 -0.3404 -0.8582
   80SLPC   H9X 7451   7.460   1.676   6.761 -0.0749  0.1286 -0.5624
   80SLPC   H9Y 7452   7.582   1.702   6.628 -0.6479  2.0552  1.3406
   80SLPC  C310 7453   7.650   1.592   6.807  0.5237 -0.7099 -0.0828
   80SLPC  H10X 7454   7.669   1.686   6.863 -0.0749 -1.5766  1.6434
   80SLPC  H10Y 7455   7.745   1.565   6.757  1.7567  2.6136  0.2159
   80SLPC  C311 7456   7.614   1.482   6.908  0.0262  0.3121  0.4411
   80SLPC  H11X 7457   7.597   1.392   6.845 -0.1163  0.5622  0.1113
   80SLPC  H11Y 7458   7.519   1.524   6.949  0.4853  0.5545  1.2616
   80SLPC  C312 7459   7.718   1.456   7.016 -0.2176 -0.2295  0.2987
   80SLPC  H12X 7460   7.667   1.405   7.100  2.3131 -1.0211  1.4380
   80SLPC  H12Y 7461   7.761   1.549   7.059  0.3541 -0.2697 -0.1662
   80SLPC  C313 7462   7.839   1.372   6.968  0.2300  0.4486  0.2619
   80SLPC  H13X 7463   7.883   1.435   6.888  0.1227  0.2235  0.0253
   80SLPC  H13Y 7464   7.813   1.275   6.920 -2.6774  2.5994 -2.9396
   80SLPC  C314 7465   7.938   1.341   7.079 -0.8598  0.0679  0.1769
   80SLPC  H14X 7466   7.976   1.435   7.126 -1.5641  1.9597 -2.7534
   80SLPC  H14Y 7467   8.025   1.285   7.037 -1.1854  1.0651 -1.9866
   80SLPC  C315 7468   7.872   1.264   7.196 -0.0754 -1.1299 -0.3965
   80SLPC  H15X 7469   7.829   1.174   7.146  0.4422 -1.1263 -0.8513
   80SLPC  H15Y 7470   7.801   1.324   7.257  2.4196 -0.2864  1.8124
   80SLPC  C316 7471   7.970   1.216   7.300  0.7768 -0.1586  0.1689
   80SLPC  H16X 7472   8.025   1.300   7.347  3.0294 -1.2205 -0.3922
   80SLPC  H16Y 7473   8.048   1.152   7.253 -1.1526 -1.6747 -1.1093
   80SLPC  C317 7474   7.914   1.112   7.402 -0.5592 -0.2635  0.5129
   80SLPC  H17X 7475   7.846   1.037   7.355 -0.1283 -1.9394  2.4292
   80SLPC  H17Y 7476   7.857   1.170   7.477  0.6115 -1.8939  2.7702
   80SLPC  C318 7477   8.014   1.033   7.486  0.4866  1.0057 -0.2718
   80SLPC  H18X 7478   7.959   0.968   7.557 -0.5951  0.5258 -1.5135
   80SLPC  H18Y 7479   8.074   1.092   7.559  0.6525 -1.0426  1.3498
   80SLPC  H18Z 7480   8.084   0.969   7.429 -0.5969  1.8676 -2.7048
   81SAPS     N 7481   4.439   4.673   9.996  0.0994 -0.7053  0.7882
   81SAPS   HN1 7482   4.446   4.636   9.899 -0.4251 -2.0567  1.2426
   81SAPS   HN2 7483   4.466   4.773   9.991 -1.2727 -0.3683 -0.4362
   81SAPS   HN3 7484   4.515   4.627  10.050 -0.3620 -0.6146  1.5265
   81SAPS   C12 7485   4.305   4.662  10.063  0.2936 -0.4047 -0.6079
   81SAPS  H12A 7486   4.272   4.561  10.046 -1.2615  0.3682 -2.5938
   81SAPS   C13 7487   4.289   4.702  10.210 -0.2397  0.0141  0.0226
   81SAPS  O13A 7488   4.390   4.741  10.275  0.0344 -0.6491  0.0586
   81SAPS  O13B 7489   4.174   4.706  10.262 -0.9482  0.2651  0.0723
   81SAPS   C11 7490   4.204   4.742   9.979  0.6297 -0.3816  0.0596
   81SAPS  H11A 7491   4.223   4.849  10.000 -0.6889 -0.1218  0.0183
   81SAPS  H11B 7492   4.100   4.729  10.014  1.3305 -0.7777  2.1550
   81SAPS     P 7493   4.226   4.811   9.722 -0.2881 -0.1207  0.0687
   81SAPS   O13 7494   4.152   4.932   9.768  0.1986  0.1004 -0.0425
   81SAPS   O14 7495   4.367   4.837   9.682 -0.0889  1.2442  0.2424
   81SAPS   O12 7496   4.214   4.697   9.837  0.8126 -0.4197 -0.3609
   81SAPS   O11 7497   4.144   4.753   9.601  0.0834  0.0115  0.2415
   81SAPS    C1 7498   4.009   4.707   9.614  0.2302 -0.3009 -0.0654
   81SAPS    HA 7499   3.995   4.642   9.703 -1.1902  1.4367  1.0522
   81SAPS    HB 7500   3.931   4.785   9.607  0.9288  0.4996  0.7795
   81SAPS    C2 7501   3.975   4.606   9.503  0.0859 -0.3377 -0.3113
   81SAPS    HS 7502   3.866   4.584   9.499  0.0676 -0.3452  0.1808
   81SAPS   O21 7503   4.049   4.485   9.494  0.0839 -0.5435 -0.0900
   81SAPS   C21 7504   4.010   4.390   9.577 -0.0287  0.3219  0.5264
   81SAPS   O22 7505   3.900   4.394   9.624  0.0609 -0.2665 -0.1326
   81SAPS   C22 7506   4.100   4.267   9.561  0.0701 -0.5926  0.1857
   81SAPS   H2R 7507   4.190   4.287   9.499  0.5617 -3.4504 -0.1822
   81SAPS   H2S 7508   4.142   4.253   9.664  2.3884  0.8431 -0.4845
   81SAPS    C3 7509   4.003   4.672   9.364  0.0590 -0.9150  0.5559
   81SAPS    HX 7510   4.110   4.696   9.344 -0.1600 -1.4376 -1.4221
   81SAPS    HY 7511   3.947   4.768   9.362 -0.1004 -1.0180 -0.0746
   81SAPS   O31 7512   3.960   4.591   9.251  0.3689  0.0087 -0.0185
   81SAPS   C31 7513   3.831   4.569   9.228 -0.1871  0.2204 -0.8113
   81SAPS   O32 7514   3.742   4.644   9.271  0.0597 -0.1688  0.0280
   81SAPS   C32 7515   3.817   4.451   9.127  0.1499  0.4302  0.0281
   81SAPS   H2X 7516   3.869   4.364   9.172  1.3932  1.5572  0.8409
   81SAPS   H2Y 7517   3.880   4.472   9.038  1.5689 -0.0309  0.9078
   81SAPS   C23 7518   4.025   4.138   9.518 -0.0940  0.0455 -0.2569
   81SAPS   H3R 7519   3.945   4.118   9.593  0.3321 -5.6009 -0.8711
   81SAPS   H3S 7520   4.100   4.057   9.528  0.8463  0.8031 -1.0190
   81SAPS   C24 7521   3.960   4.142   9.382 -0.2496 -0.0193 -0.3525
   81SAPS   H4R 7522   4.044   4.171   9.316  0.8458  0.5874  1.2549
   81SAPS   H4S 7523   3.867   4.203   9.376 -1.4011 -1.6055  0.4703
   81SAPS   C25 7524   3.928   4.006   9.329 -0.3561  0.4037 -0.0530
   81SAPS   H5R 7525   3.856   3.957   9.396 -0.4422  0.4579 -0.1059
   81SAPS   C26 7526   3.948   3.959   9.207  0.2225 -0.2464 -0.2618
   81SAPS   H6R 7527   3.924   3.854   9.185  1.0953 -0.2451 -1.2968
   81SAPS   C27 7528   4.026   4.015   9.097  0.1721 -0.0020 -0.0832
   81SAPS   H7R 7529   3.985   4.117   9.081 -1.7208 -0.8696 -1.1193
   81SAPS   H7S 7530   3.992   3.959   9.007 -0.8231  0.7550 -0.1960
   81SAPS   C28 7531   4.173   4.009   9.117 -0.3639  0.4934 -0.8824
   81SAPS   H8R 7532   4.218   3.930   9.178 -1.7425  0.3523 -0.0111
   81SAPS   C29 7533   4.261   4.097   9.061 -0.0885 -1.1216 -0.5279
   81SAPS   H9R 7534   4.369   4.083   9.074  0.1629  1.1819  0.5047
   81SAPS  C210 7535   4.225   4.216   8.972 -0.6014  0.1010  0.5736
   81SAPS  H10R 7536   4.137   4.186   8.911 -0.4322 -0.4574  0.5902
   81SAPS  H10S 7537   4.297   4.240   8.891 -0.1237  2.7052  1.6755
   81SAPS  C211 7538   4.186   4.337   9.052 -0.2211  0.5102 -0.5755
   81SAPS  H11R 7539   4.161   4.323   9.158 -2.0482 -0.7234 -1.1276
   81SAPS  C212 7540   4.177   4.460   9.000  0.1688  0.1832  0.0261
   81SAPS  H12R 7541   4.158   4.545   9.067 -0.8631  0.2685 -0.3543
   81SAPS  C213 7542   4.219   4.504   8.855 -1.0049 -0.1440  0.5285
   81SAPS  H13R 7543   4.296   4.432   8.822  1.0679  1.0670  2.4053
   81SAPS  H13S 7544   4.289   4.590   8.852  0.2866 -1.1387  1.0156
   81SAPS  C214 7545   4.097   4.501   8.758 -0.2108  0.3528 -0.4571
   81SAPS  H14R 7546   4.015   4.559   8.802 -0.4583 -0.0398 -0.4009
   81SAPS  C215 7547   4.091   4.460   8.625  0.1722  0.7978 -0.6253
   81SAPS  H15R 7548   3.995   4.466   8.572 -0.0222  2.2483 -0.1363
   81SAPS  C216 7549   4.197   4.381   8.553 -0.3178  0.0943  0.3989
   81SAPS  H16R 7550   4.145   4.296   8.505 -3.5098  1.9284  0.3497
   81SAPS  H16S 7551   4.266   4.328   8.622  0.2396  0.8228  0.4184
   81SAPS  C217 7552   4.281   4.447   8.441  0.0129 -0.4865  0.7649
   81SAPS  H17R 7553   4.376   4.392   8.431 -0.1612 -0.7652  0.6186
   81SAPS  H17S 7554   4.306   4.545   8.487 -0.8428 -0.5162  1.3217
   81SAPS  C218 7555   4.197   4.470   8.312 -0.3127  0.0695  0.2846
   81SAPS  H18R 7556   4.107   4.529   8.341 -0.7411 -0.2974 -0.2847
   81SAPS  H18S 7557   4.147   4.377   8.278 -0.0864 -0.0293  0.2159
   81SAPS  C219 7558   4.292   4.522   8.206 -0.5367 -0.2674 -0.7232
   81SAPS  H19R 7559   4.374   4.449   8.197 -0.0322  0.1395  0.3966
   81SAPS  H19S 7560   4.342   4.614   8.244  0.1858 -1.2557  0.8189
   81SAPS  C220 7561   4.219   4.557   8.079 -0.4536  0.5831  0.2053
   81SAPS  H20R 7562   4.290   4.595   8.002 -1.4272  0.0760 -0.9674
   81SAPS  H20S 7563   4.152   4.644   8.094 -0.1030  0.6969  1.1992
   81SAPS  H20T 7564   4.176   4.470   8.025  0.1297  0.4249 -0.0194
   81SAPS   C33 7565   3.667   4.429   9.107 -0.7387  1.0843  0.1348
   81SAPS   H3X 7566   3.613   4.504   9.046 -0.4547  1.3013  0.1477
   81SAPS   H3Y 7567   3.626   4.411   9.208  2.7039 -2.8144  1.1547
   81SAPS   C34 7568   3.642   4.292   9.039 -0.1713 -0.3672 -0.7257
   81SAPS   H4X 7569   3.540   4.250   9.059 -1.2364  1.2430 -2.4548
   81SAPS   H4Y 7570   3.713   4.219   9.083 -1.0799 -1.8986 -1.6844
   81SAPS   C35 7571   3.668   4.297   8.879  0.3061 -0.6553 -0.3535
   81SAPS   H5X 7572   3.771   4.337   8.863  0.0875 -0.5984 -1.7326
   81SAPS   H5Y 7573   3.600   4.370   8.830  1.1015  0.1889 -0.2319
   81SAPS   C36 7574   3.660   4.162   8.815  0.7886  0.1497 -0.1865
   81SAPS   H6X 7575   3.658   4.179   8.705  1.6937  0.7102 -0.1311
   81SAPS   H6Y 7576   3.561   4.116   8.831  0.9282 -0.6085 -1.3763
   81SAPS   C37 7577   3.771   4.061   8.835 -0.0661  0.3549 -0.5401
   81SAPS   H7X 7578   3.744   4.012   8.931 -0.8651  1.4440 -0.1848
   81SAPS   H7Y 7579   3.873   4.105   8.843  0.3511 -0.6424 -0.1357
   81SAPS   C38 7580   3.782   3.951   8.731  0.0916  0.0663 -0.2973
   81SAPS   H8X 7581   3.787   3.995   8.629 -0.6094 -0.0080 -0.3653
   81SAPS   H8Y 7582   3.681   3.905   8.735  0.5984 -1.0345  2.6349
   81SAPS   C39 7583   3.908   3.856   8.741  0.3924 -0.2786 -0.6156
   81SAPS   H9X 7584   3.907   3.781   8.659  0.3177 -1.1028  0.1359
   81SAPS   H9Y 7585   3.904   3.798   8.835  0.5298  1.7061  0.6749
   81SAPS  C310 7586   4.051   3.922   8.737  0.0958  0.2569 -0.7176
   81SAPS  H10X 7587   4.125   3.839   8.745  1.0437  1.0184 -1.2470
   81SAPS  H10Y 7588   4.067   3.980   8.831 -0.5337 -1.2275  0.3438
   81SAPS  C311 7589   4.084   3.996   8.614 -0.7312 -0.0654  0.1982
   81SAPS  H11X 7590   4.180   4.048   8.634 -0.6106  0.3991 -1.4661
   81SAPS  H11Y 7591   4.013   4.077   8.587 -1.2811 -0.1316  1.3897
   81SAPS  C312 7592   4.106   3.913   8.495 -0.1761 -0.7134 -0.2544
   81SAPS  H12X 7593   3.999   3.893   8.470 -0.5864  0.2694  0.6616
   81SAPS  H12Y 7594   4.156   3.817   8.521 -1.8408 -1.6380 -0.2860
   81SAPS  C313 7595   4.179   3.994   8.386  0.2404 -0.0788 -0.5554
   81SAPS  H13X 7596   4.283   4.017   8.419 -0.6552  0.2617  2.2716
   81SAPS  H13Y 7597   4.127   4.092   8.378  1.2283  0.6644  1.3914
   81SAPS  C314 7598   4.190   3.912   8.260 -0.4455  0.0191  0.1349
   81SAPS  H14X 7599   4.088   3.901   8.217 -1.2688 -3.7667  2.5727
   81SAPS  H14Y 7600   4.218   3.807   8.284 -0.3127  0.0262  0.0101
   81SAPS  C315 7601   4.278   3.970   8.148  0.8411  0.4271 -0.5360
   81SAPS  H15X 7602   4.290   3.892   8.069 -3.0180 -1.9999  0.9543
   81SAPS  H15Y 7603   4.371   3.993   8.204  0.2145  1.0707  0.2610
   81SAPS  C316 7604   4.249   4.108   8.094 -0.4350 -0.2700 -1.0644
   81SAPS  H16X 7605   4.335   4.171   8.063 -2.7105  2.7123 -1.7514
   81SAPS  H16Y 7606   4.209   4.166   8.180 -2.4665 -0.4447 -1.8430
   81SAPS  C317 7607   4.144   4.117   7.982 -0.4735 -0.0446  0.0362
   81SAPS  H17X 7608   4.106   4.221   7.975 -0.2601 -0.0251 -1.0585
   81SAPS  H17Y 7609   4.058   4.051   8.009  0.1309 -0.2310  1.6414
   81SAPS  C318 7610   4.204   4.079   7.840  0.2876  0.2279 -0.1244
   81SAPS  H18X 7611   4.308   4.118   7.837  0.8326 -1.1440  0.3100
   81SAPS  H18Y 7612   4.147   4.111   7.750 -0.6202 -1.6997 -0.2832
   81SAPS  H18Z 7613   4.215   3.969   7.834  1.0484  0.1740  1.5826
   82SAPS     N 7614   2.683   3.600  10.085 -0.1611 -0.3481 -0.5779
   82SAPS   HN1 7615   2.778   3.612  10.043  1.2166 -6.1624  0.0529
   82SAPS   HN2 7616   2.629   3.526  10.037 -1.1477  0.0524 -0.1096
   82SAPS   HN3 7617   2.621   3.684  10.086  0.2094 -0.0699 -0.1734
   82SAPS   C12 7618   2.702   3.574  10.233 -0.5995  0.5104  0.2587
   82SAPS  H12A 7619   2.790   3.511  10.227 -1.0958 -0.1029 -1.0602
   82SAPS   C13 7620   2.726   3.695  10.332  0.2848  0.6369 -0.8207
   82SAPS  O13A 7621   2.733   3.808  10.279 -0.0595 -0.0745 -0.4404
   82SAPS  O13B 7622   2.773   3.679  10.451  0.2617  0.1618  0.6168
   82SAPS   C11 7623   2.590   3.496  10.304  1.0723 -0.2491  0.2797
   82SAPS  H11A 7624   2.634   3.477  10.404 -0.7180 -3.2056  0.6200
   82SAPS  H11B 7625   2.574   3.395  10.260  1.5724 -1.7003  3.1702
   82SAPS     P 7626   2.330   3.493  10.328  0.0656  0.4210  0.0827
   82SAPS   O13 7627   2.368   3.357  10.361 -0.3863  0.1372 -0.0854
   82SAPS   O14 7628   2.235   3.564  10.422 -0.1525  0.5218 -0.2521
   82SAPS   O12 7629   2.468   3.576  10.317 -0.1385  0.8372  0.2664
   82SAPS   O11 7630   2.266   3.502  10.179 -0.6257  0.6529  0.0528
   82SAPS    C1 7631   2.254   3.634  10.117 -0.4778 -0.0425 -0.0108
   82SAPS    HA 7632   2.203   3.716  10.171 -0.3352 -0.6420  1.0584
   82SAPS    HB 7633   2.357   3.664  10.087 -0.7186  2.1744  1.1801
   82SAPS    C2 7634   2.178   3.627   9.980 -0.6607  0.1629 -0.5322
   82SAPS    HS 7635   2.072   3.618  10.010 -0.7375  1.1455 -0.4586
   82SAPS   O21 7636   2.214   3.514   9.896 -0.4224 -0.0247 -0.1167
   82SAPS   C21 7637   2.132   3.493   9.797 -0.4054 -0.5812  0.4633
   82SAPS   O22 7638   2.016   3.534   9.799  0.2344 -0.6632 -0.2856
   82SAPS   C22 7639   2.190   3.406   9.684 -0.9339 -0.5262 -0.2754
   82SAPS   H2R 7640   2.280   3.460   9.649 -1.0397 -0.0618  0.1727
   82SAPS   H2S 7641   2.222   3.308   9.726 -0.3506 -0.6165 -0.9070
   82SAPS    C3 7642   2.188   3.763   9.916 -0.6663  0.3960  0.5444
   82SAPS    HX 7643   2.134   3.829   9.987 -1.1182  1.1307 -0.4533
   82SAPS    HY 7644   2.120   3.759   9.828 -0.1641 -1.2971  0.1898
   82SAPS   O31 7645   2.326   3.813   9.893 -0.0649  0.3382 -0.0380
   82SAPS   C31 7646   2.372   3.784   9.778  0.3117 -0.0574  0.5709
   82SAPS   O32 7647   2.323   3.712   9.696 -0.3279  0.5160  0.6470
   82SAPS   C32 7648   2.503   3.868   9.757 -0.3750 -0.0293  0.8939
   82SAPS   H2X 7649   2.581   3.835   9.829  2.0794  0.1056 -1.5596
   82SAPS   H2Y 7650   2.477   3.973   9.783 -1.1594 -0.4960  2.0947
   82SAPS   C23 7651   2.085   3.399   9.572  0.3547 -0.2104  0.0759
   82SAPS   H3R 7652   2.070   3.497   9.523  2.1381  0.1019  0.0837
   82SAPS   H3S 7653   1.991   3.362   9.617  0.2944  0.5750  0.6217
   82SAPS   C24 7654   2.127   3.296   9.472  0.7610 -0.2604  0.1551
   82SAPS   H4R 7655   2.143   3.200   9.525  0.3034 -1.2462 -1.4232
   82SAPS   H4S 7656   2.220   3.335   9.424 -0.7954  0.2576 -2.6669
   82SAPS   C25 7657   2.015   3.292   9.374 -0.4967  0.2694 -1.0081
   82SAPS   H5R 7658   1.921   3.296   9.430 -0.1369  0.5362 -0.4161
   82SAPS   C26 7659   2.019   3.224   9.256  0.2122 -1.3323 -0.6855
   82SAPS   H6R 7660   1.914   3.208   9.228 -0.9997  0.0338  2.6030
   82SAPS   C27 7661   2.125   3.159   9.174 -0.1334 -0.0903  0.0738
   82SAPS   H7R 7662   2.227   3.193   9.203  1.3513 -2.6093 -1.7639
   82SAPS   H7S 7663   2.127   3.206   9.073 -0.4404  0.1116  0.1593
   82SAPS   C28 7664   2.138   3.013   9.197  0.1669 -0.2467  0.1122
   82SAPS   H8R 7665   2.184   2.981   9.292 -0.7173 -2.7255 -0.2058
   82SAPS   C29 7666   2.113   2.920   9.102 -1.0308  0.8517 -0.4244
   82SAPS   H9R 7667   2.126   2.815   9.134  0.6662  0.5686 -1.9052
   82SAPS  C210 7668   2.068   2.946   8.957  0.1743 -0.1999 -0.3731
   82SAPS  H10R 7669   2.163   2.956   8.899  1.2114  0.8174  1.4034
   82SAPS  H10S 7670   2.030   3.050   8.956  0.8125  0.1222  2.0408
   82SAPS  C211 7671   1.967   2.844   8.904 -0.3798 -0.0826  0.5315
   82SAPS  H11R 7672   1.877   2.852   8.966  0.4824  1.4091  1.6455
   82SAPS  C212 7673   1.995   2.761   8.805 -0.2341 -0.0541 -0.1301
   82SAPS  H12R 7674   1.921   2.681   8.791 -0.7281  0.0174  1.8328
   82SAPS  C213 7675   2.127   2.751   8.731 -0.7592  0.4473 -0.3422
   82SAPS  H13R 7676   2.207   2.768   8.805  0.2747 -0.6849 -1.1633
   82SAPS  H13S 7677   2.137   2.844   8.670 -0.9349  0.6943  0.0042
   82SAPS  C214 7678   2.139   2.612   8.657 -0.6532 -0.1571  0.0246
   82SAPS  H14R 7679   2.208   2.545   8.709 -0.0198  1.6213  1.6198
   82SAPS  C215 7680   2.096   2.567   8.543  0.5633  0.5962  0.0327
   82SAPS  H15R 7681   2.107   2.462   8.514 -1.5619 -0.4858  2.6085
   82SAPS  C216 7682   2.002   2.631   8.447 -0.6020 -0.2942  0.1902
   82SAPS  H16R 7683   2.037   2.628   8.342  1.8953 -0.5404  0.9659
   82SAPS  H16S 7684   1.988   2.740   8.468  0.1280  0.0943 -1.2132
   82SAPS  C217 7685   1.855   2.583   8.443 -0.1292  0.3829 -0.1346
   82SAPS  H17R 7686   1.800   2.628   8.528  1.6034  1.4780  0.4686
   82SAPS  H17S 7687   1.857   2.472   8.438  0.4315  0.4269 -2.5973
   82SAPS  C218 7688   1.785   2.647   8.316  0.6307  0.2947 -0.3608
   82SAPS  H18R 7689   1.684   2.604   8.305 -0.5351  1.9043  2.9676
   82SAPS  H18S 7690   1.846   2.626   8.225  1.0280  1.9327 -0.5031
   82SAPS  C219 7691   1.787   2.793   8.314 -0.4040  0.4135 -0.0149
   82SAPS  H19R 7692   1.886   2.838   8.294 -1.2321  4.0633  2.9273
   82SAPS  H19S 7693   1.752   2.826   8.414 -0.0266 -1.7944  0.9118
   82SAPS  C220 7694   1.704   2.861   8.202  0.0439  0.3567 -0.3343
   82SAPS  H20R 7695   1.754   2.848   8.104 -1.6470  3.8717 -1.8362
   82SAPS  H20S 7696   1.683   2.969   8.218 -0.9159  0.3688 -1.5572
   82SAPS  H20T 7697   1.608   2.806   8.204  0.8589 -1.1887  2.6729
   82SAPS   C33 7698   2.564   3.860   9.611  0.0314  0.0589 -0.5670
   82SAPS   H3X 7699   2.595   3.758   9.581  0.5711  0.5285 -1.6394
   82SAPS   H3Y 7700   2.659   3.919   9.609  1.0173 -1.4540 -0.3229
   82SAPS   C34 7701   2.475   3.910   9.502 -0.4998 -0.0375  0.1872
   82SAPS   H4X 7702   2.400   3.983   9.539 -0.7177  0.1351 -0.5773
   82SAPS   H4Y 7703   2.415   3.822   9.468  0.1870 -0.8672  1.0717
   82SAPS   C35 7704   2.535   3.972   9.368  0.4604  0.5991  1.1424
   82SAPS   H5X 7705   2.604   3.896   9.326  0.1751  0.6179  0.6311
   82SAPS   H5Y 7706   2.591   4.065   9.393  1.9046 -0.2904  1.2967
   82SAPS   C36 7707   2.423   4.018   9.262  1.0143  0.3205  0.1717
   82SAPS   H6X 7708   2.359   4.098   9.306  0.5775 -0.2605  0.6134
   82SAPS   H6Y 7709   2.348   3.939   9.241  0.7570  0.9803 -1.5279
   82SAPS   C37 7710   2.487   4.077   9.136  0.4523 -0.3602 -0.3269
   82SAPS   H7X 7711   2.557   4.158   9.166  0.2164 -0.4119  0.3745
   82SAPS   H7Y 7712   2.400   4.109   9.074  0.3044 -0.8731 -0.3866
   82SAPS   C38 7713   2.568   3.967   9.056 -0.4029  0.4746 -1.1012
   82SAPS   H8X 7714   2.504   3.878   9.041 -0.5272  0.6321 -1.5199
   82SAPS   H8Y 7715   2.653   3.935   9.119 -1.8961  0.9354  1.2842
   82SAPS   C39 7716   2.612   4.025   8.915 -0.4206 -0.2979 -0.4498
   82SAPS   H9X 7717   2.706   4.084   8.927 -1.0567  0.4725  1.0291
   82SAPS   H9Y 7718   2.533   4.099   8.887  0.0831  0.8402  1.0038
   82SAPS  C310 7719   2.626   3.914   8.809 -0.2187 -0.4154  0.1192
   82SAPS  H10X 7720   2.531   3.892   8.755 -1.1907 -0.8373  1.9285
   82SAPS  H10Y 7721   2.673   3.825   8.857  4.6298  0.6578 -1.9961
   82SAPS  C311 7722   2.732   3.958   8.709  0.4981 -0.4703  0.0899
   82SAPS  H11X 7723   2.777   3.875   8.650 -1.4836 -1.8664  0.4311
   82SAPS  H11Y 7724   2.820   3.994   8.765 -0.2524 -0.3600  1.2422
   82SAPS  C312 7725   2.688   4.068   8.606 -0.0070  0.4541 -0.1706
   82SAPS  H12X 7726   2.639   4.154   8.656  0.9358  0.6555  0.4282
   82SAPS  H12Y 7727   2.629   4.018   8.526  1.6239  1.8853 -2.3747
   82SAPS  C313 7728   2.810   4.125   8.531 -0.7296 -0.2158 -0.1221
   82SAPS  H13X 7729   2.860   4.030   8.502 -0.5725 -0.1498 -0.0695
   82SAPS  H13Y 7730   2.880   4.177   8.600  0.1778 -1.0506 -0.3894
   82SAPS  C314 7731   2.770   4.214   8.418 -0.1707  0.3073 -0.1336
   82SAPS  H14X 7732   2.692   4.287   8.447  1.2079  1.4753  0.8191
   82SAPS  H14Y 7733   2.730   4.158   8.331  3.3239 -0.2212 -1.5579
   82SAPS  C315 7734   2.887   4.305   8.367  0.1113  0.0191 -0.6268
   82SAPS  H15X 7735   2.929   4.370   8.447 -2.2561 -0.4782  1.1445
   82SAPS  H15Y 7736   2.832   4.361   8.289 -1.0866  0.5719  0.5748
   82SAPS  C316 7737   3.008   4.229   8.301 -0.5583 -0.0347  0.0839
   82SAPS  H16X 7738   2.971   4.164   8.219 -0.1472  0.0058 -0.1352
   82SAPS  H16Y 7739   3.060   4.161   8.372  3.3904  0.5212 -1.9562
   82SAPS  C317 7740   3.116   4.323   8.247 -0.0627 -0.3944 -0.4545
   82SAPS  H17X 7741   3.195   4.259   8.203  1.3275 -0.4312  1.9173
   82SAPS  H17Y 7742   3.167   4.376   8.330 -0.8623 -0.4602  0.0863
   82SAPS  C318 7743   3.086   4.424   8.141  0.0362 -1.0478 -0.3248
   82SAPS  H18X 7744   3.178   4.456   8.087  0.7626 -0.3496  1.2617
   82SAPS  H18Y 7745   3.047   4.518   8.185  1.4525 -0.8302  0.5228
   82SAPS  H18Z 7746   3.014   4.388   8.065 -2.1788  1.1983  0.5403
   83SAPS     N 7747   4.479   5.083   9.706  0.5483  0.5316  0.0589
   83SAPS   HN1 7748   4.434   4.990   9.701  0.2389  0.6954 -0.3319
   83SAPS   HN2 7749   4.427   5.138   9.634  2.1887  0.0568 -1.5935
   83SAPS   HN3 7750   4.577   5.073   9.671  0.5056  1.1338 -0.2507
   83SAPS   C12 7751   4.453   5.135   9.843  0.0361 -0.0770  0.4189
   83SAPS  H12A 7752   4.347   5.122   9.858  0.2697 -2.2631  0.5252
   83SAPS   C13 7753   4.512   5.044   9.950  0.2462 -0.2280 -0.6527
   83SAPS  O13A 7754   4.575   4.939   9.917 -0.2243  0.9618  0.3136
   83SAPS  O13B 7755   4.487   5.065  10.074 -0.2245 -0.1725  0.5221
   83SAPS   C11 7756   4.487   5.289   9.851  0.3195  0.0797  0.0925
   83SAPS  H11A 7757   4.593   5.319   9.836  0.2055  0.1863 -0.5145
   83SAPS  H11B 7758   4.458   5.322   9.953  1.8084  0.7858  0.3255
   83SAPS     P 7759   4.428   5.509   9.738  0.1706 -0.1039 -0.4307
   83SAPS   O13 7760   4.401   5.559   9.876 -0.3132 -0.5849  0.1356
   83SAPS   O14 7761   4.555   5.544   9.676 -0.3538 -0.3041  0.1107
   83SAPS   O12 7762   4.415   5.354   9.747  0.0832 -0.1017 -0.5522
   83SAPS   O11 7763   4.307   5.550   9.647 -0.2641 -0.1872  0.3264
   83SAPS    C1 7764   4.188   5.468   9.626  0.3003 -0.6476 -0.0504
   83SAPS    HA 7765   4.146   5.419   9.716 -2.4801  1.0956 -0.2784
   83SAPS    HB 7766   4.102   5.537   9.609  0.5341 -0.5507 -0.9198
   83SAPS    C2 7767   4.207   5.375   9.504 -0.8927  0.2083  0.1236
   83SAPS    HS 7768   4.312   5.342   9.490 -1.1155  0.1047 -1.4852
   83SAPS   O21 7769   4.141   5.434   9.396 -0.0736 -0.6401  0.4226
   83SAPS   C21 7770   4.221   5.485   9.301 -0.1448 -0.4953  0.2160
   83SAPS   O22 7771   4.341   5.469   9.299 -0.0486  0.1730 -0.2667
   83SAPS   C22 7772   4.127   5.551   9.197  0.1186  0.8903 -0.0563
   83SAPS   H2R 7773   4.060   5.613   9.259 -1.5188 -0.6043 -0.2474
   83SAPS   H2S 7774   4.181   5.621   9.130  0.1761  1.2237  0.3379
   83SAPS    C3 7775   4.142   5.241   9.530 -0.3414 -0.1508 -0.5042
   83SAPS    HX 7776   4.040   5.254   9.570 -0.2080 -0.0641 -0.1916
   83SAPS    HY 7777   4.205   5.191   9.606  2.0180 -0.1934 -2.3673
   83SAPS   O31 7778   4.145   5.168   9.408  0.0819  0.3426  0.2113
   83SAPS   C31 7779   4.241   5.077   9.389 -0.0114 -0.0815  0.1467
   83SAPS   O32 7780   4.342   5.062   9.458  0.0139  0.7241 -0.5887
   83SAPS   C32 7781   4.198   4.994   9.263 -0.1823  0.0350 -0.5822
   83SAPS   H2X 7782   4.160   4.901   9.309  2.7471 -1.3002 -0.6676
   83SAPS   H2Y 7783   4.294   4.976   9.210 -0.2050  2.3622 -1.5710
   83SAPS   C23 7784   4.038   5.450   9.126 -0.2473  0.5076  1.2084
   83SAPS   H3R 7785   3.962   5.410   9.197 -1.2051  1.7433  0.9107
   83SAPS   H3S 7786   4.089   5.360   9.085 -1.0323 -0.0317  1.3976
   83SAPS   C24 7787   3.947   5.500   9.006 -0.5615 -0.2233  0.4034
   83SAPS   H4R 7788   3.873   5.570   9.050 -1.8516 -0.8638 -0.6609
   83SAPS   H4S 7789   3.903   5.407   8.964 -0.6771  0.1862 -0.3921
   83SAPS   C25 7790   4.034   5.563   8.899 -0.1992  0.3529 -0.5826
   83SAPS   H5R 7791   4.101   5.645   8.929 -0.0224 -0.3184  0.9356
   83SAPS   C26 7792   4.056   5.515   8.772 -0.0348 -0.3768 -0.1835
   83SAPS   H6R 7793   4.120   5.569   8.701  0.0692 -0.1799  0.0605
   83SAPS   C27 7794   3.974   5.401   8.706 -0.5366  0.1781  0.0672
   83SAPS   H7R 7795   3.911   5.346   8.780 -1.0619 -0.2883 -0.7136
   83SAPS   H7S 7796   4.047   5.334   8.655  0.1440  1.2021 -0.3391
   83SAPS   C28 7797   3.891   5.466   8.602  0.6053 -0.7832 -0.2101
   83SAPS   H8R 7798   3.809   5.534   8.629 -0.9734 -1.5645 -2.6641
   83SAPS   C29 7799   3.916   5.454   8.470 -0.1739 -0.3823  0.0674
   83SAPS   H9R 7800   3.849   5.515   8.407  1.7271 -0.0438 -1.7204
   83SAPS  C210 7801   4.021   5.369   8.398 -0.4395  0.2076  0.0043
   83SAPS  H10R 7802   3.994   5.365   8.290 -0.9359  1.8375  0.0484
   83SAPS  H10S 7803   4.008   5.262   8.426  2.3838 -0.7106 -1.6968
   83SAPS  C211 7804   4.164   5.404   8.422 -0.2420  0.2521  0.7175
   83SAPS  H11R 7805   4.221   5.342   8.492 -0.7800 -0.6923  0.3386
   83SAPS  C212 7806   4.228   5.500   8.354  0.1651 -0.1796 -0.3240
   83SAPS  H12R 7807   4.332   5.520   8.385  0.1591  1.3610 -1.1928
   83SAPS  C213 7808   4.180   5.576   8.230  0.2022  0.0573 -0.0974
   83SAPS  H13R 7809   4.100   5.514   8.185  0.0934 -0.8640  1.3165
   83SAPS  H13S 7810   4.265   5.565   8.160  0.9138 -1.1982  0.9162
   83SAPS  C214 7811   4.148   5.722   8.250 -0.4013  0.0251 -0.8673
   83SAPS  H14R 7812   4.210   5.776   8.323 -1.0058 -0.2585 -0.1223
   83SAPS  C215 7813   4.044   5.785   8.188  0.6328 -0.1282  0.4192
   83SAPS  H15R 7814   3.996   5.878   8.221 -0.7419 -0.3840 -0.7466
   83SAPS  C216 7815   3.947   5.717   8.093  0.8982  0.1452  1.3297
   83SAPS  H16R 7816   3.898   5.636   8.150 -0.9247 -0.9190 -1.5159
   83SAPS  H16S 7817   4.001   5.666   8.010 -2.4201 -1.3524 -0.1079
   83SAPS  C217 7818   3.847   5.829   8.051 -0.2921  0.3554  0.5047
   83SAPS  H17R 7819   3.797   5.882   8.135 -0.7227 -0.4706  0.7820
   83SAPS  H17S 7820   3.763   5.777   8.000 -0.1817 -0.4254  1.0972
   83SAPS  C218 7821   3.903   5.921   7.944 -0.3618  0.0599  0.0787
   83SAPS  H18R 7822   3.911   5.860   7.851  1.5584 -0.1078  0.3229
   83SAPS  H18S 7823   4.007   5.948   7.969  0.9310 -3.5168 -0.8242
   83SAPS  C219 7824   3.822   6.053   7.924 -0.0066 -0.0518  0.4163
   83SAPS  H19R 7825   3.809   6.092   8.028  1.2633  0.6449  0.3227
   83SAPS  H19S 7826   3.719   6.045   7.883  0.6221  1.2182 -1.5240
   83SAPS  C220 7827   3.891   6.161   7.844  0.2666  0.9115  0.4536
   83SAPS  H20R 7828   4.001   6.169   7.861  0.5745  0.2008 -1.0397
   83SAPS  H20S 7829   3.856   6.266   7.853 -0.3002  0.7468  0.1751
   83SAPS  H20T 7830   3.879   6.127   7.739 -1.5597 -0.9256  1.2034
   83SAPS   C33 7831   4.104   5.070   9.166 -0.6487 -0.2212  0.5290
   83SAPS   H3X 7832   4.149   5.160   9.118 -2.8608  1.5169  1.5485
   83SAPS   H3Y 7833   4.016   5.113   9.219  0.5187 -0.7264  3.0233
   83SAPS   C34 7834   4.065   4.974   9.056  0.1046 -0.4873  0.1995
   83SAPS   H4X 7835   4.004   4.889   9.093 -1.4035 -0.6660 -2.4676
   83SAPS   H4Y 7836   4.152   4.924   9.009 -0.5212 -1.1298 -0.2843
   83SAPS   C35 7837   4.007   5.040   8.937  0.0904  0.1166  0.3765
   83SAPS   H5X 7838   4.089   5.103   8.896  1.5436  0.2883  3.3006
   83SAPS   H5Y 7839   3.920   5.101   8.969 -0.8170 -0.9709  0.0639
   83SAPS   C36 7840   3.962   4.933   8.830 -0.4815  0.0318  0.4147
   83SAPS   H6X 7841   3.856   4.908   8.853 -0.2031 -1.9792 -0.3393
   83SAPS   H6Y 7842   4.018   4.838   8.845 -0.8538 -0.2335  0.1390
   83SAPS   C37 7843   3.972   4.988   8.686  0.2077 -0.0053  0.5635
   83SAPS   H7X 7844   4.080   4.980   8.663 -0.1386 -0.9449 -0.8490
   83SAPS   H7Y 7845   3.939   5.095   8.687 -0.2108 -0.1129 -0.3829
   83SAPS   C38 7846   3.880   4.916   8.584 -0.0622  0.0991 -0.3180
   83SAPS   H8X 7847   3.872   4.965   8.485  0.5753  0.4691 -0.1892
   83SAPS   H8Y 7848   3.778   4.916   8.628  1.1167  0.0958  2.6212
   83SAPS   C39 7849   3.917   4.771   8.565 -0.0201  1.1751  0.5789
   83SAPS   H9X 7850   3.928   4.716   8.661 -2.4432 -1.6117 -0.5744
   83SAPS   H9Y 7851   4.019   4.769   8.522  0.1281 -0.9570  0.9142
   83SAPS  C310 7852   3.815   4.689   8.477 -0.4211 -0.3590  0.6277
   83SAPS  H10X 7853   3.875   4.614   8.423 -1.0299  0.5079 -1.3455
   83SAPS  H10Y 7854   3.774   4.753   8.396  0.9683  0.8460  0.8292
   83SAPS  C311 7855   3.709   4.624   8.562  0.7773 -0.3224 -0.5720
   83SAPS  H11X 7856   3.658   4.702   8.623 -0.3098 -2.9200  2.1065
   83SAPS  H11Y 7857   3.745   4.548   8.634  1.2627 -1.1645 -1.6773
   83SAPS  C312 7858   3.591   4.556   8.488 -0.3551  0.1362  0.6284
   83SAPS  H12X 7859   3.509   4.527   8.557 -0.0320  0.1199  1.0073
   83SAPS  H12Y 7860   3.640   4.470   8.438 -0.0591  0.4793  0.3167
   83SAPS  C313 7861   3.543   4.638   8.370  0.0938  0.2323  0.1565
   83SAPS  H13X 7862   3.619   4.624   8.290 -1.9851 -1.1404 -1.6732
   83SAPS  H13Y 7863   3.529   4.742   8.407  1.7948  1.1732 -1.6794
   83SAPS  C314 7864   3.411   4.583   8.324 -0.3243  0.4233  0.3464
   83SAPS  H14X 7865   3.339   4.586   8.409  2.1491 -2.1923  2.7267
   83SAPS  H14Y 7866   3.417   4.482   8.279 -0.2869  0.7167 -0.3217
   83SAPS  C315 7867   3.351   4.674   8.215 -0.0469 -0.4685  0.1795
   83SAPS  H15X 7868   3.243   4.656   8.199 -0.2073  2.4713 -3.9543
   83SAPS  H15Y 7869   3.408   4.659   8.120  0.2669  1.4242  0.0309
   83SAPS  C316 7870   3.347   4.819   8.257 -0.0112 -0.4172 -0.6214
   83SAPS  H16X 7871   3.445   4.865   8.234 -0.9121  0.8583 -2.1362
   83SAPS  H16Y 7872   3.326   4.832   8.365 -0.9347  0.1079 -0.8522
   83SAPS  C317 7873   3.228   4.896   8.206 -0.2607  0.3396 -0.3273
   83SAPS  H17X 7874   3.217   4.984   8.273  1.2171  1.5967 -1.6600
   83SAPS  H17Y 7875   3.137   4.833   8.221  1.2763 -2.8807 -3.1840
   83SAPS  C318 7876   3.242   4.943   8.060 -0.5408  0.4968  0.3877
   83SAPS  H18X 7877   3.323   5.019   8.051 -1.1564  1.1311  0.0832
   83SAPS  H18Y 7878   3.143   4.981   8.026  0.4302  3.3219  0.4012
   83SAPS  H18Z 7879   3.269   4.861   7.991 -0.9627  2.3229 -2.1084
   84SAPS     N 7880   5.843   3.288   9.534  0.2321  0.7423 -0.0637
   84SAPS   HN1 7881   5.945   3.278   9.549 -0.2308 -0.9655  2.4621
   84SAPS   HN2 7882   5.795   3.196   9.539  0.8848  0.4504  1.1477
   84SAPS   HN3 7883   5.822   3.323   9.438 -1.9413  0.1642  0.1557
   84SAPS   C12 7884   5.775   3.393   9.613 -0.3475  0.3289 -0.7097
   84SAPS  H12A 7885   5.669   3.385   9.596 -0.4931 -0.8449  0.5404
   84SAPS   C13 7886   5.787   3.387   9.767 -0.2724  0.6488  0.1081
   84SAPS  O13A 7887   5.850   3.286   9.819 -0.0447  0.4517  0.1614
   84SAPS  O13B 7888   5.705   3.451   9.840 -0.3260  0.3032  0.0567
   84SAPS   C11 7889   5.832   3.525   9.563  0.2466  0.1574  1.2708
   84SAPS  H11A 7890   5.940   3.527   9.589  0.0366 -0.1404  2.1998
   84SAPS  H11B 7891   5.777   3.596   9.628 -0.0504  0.3204  0.8454
   84SAPS     P 7892   5.744   3.682   9.375  0.3925  0.0322 -0.3296
   84SAPS   O13 7893   5.625   3.699   9.466 -0.5598 -0.3833  0.5486
   84SAPS   O14 7894   5.845   3.787   9.376 -0.2375 -0.5277 -0.0905
   84SAPS   O12 7895   5.810   3.539   9.419  0.3199 -0.2779 -0.0490
   84SAPS   O11 7896   5.700   3.666   9.223 -0.5082  0.1490 -0.5085
   84SAPS    C1 7897   5.727   3.547   9.149 -0.8745 -0.7944 -0.4226
   84SAPS    HA 7898   5.694   3.460   9.210  0.9993  0.7040  3.0107
   84SAPS    HB 7899   5.662   3.547   9.059  1.3864  1.2522 -2.1686
   84SAPS    C2 7900   5.873   3.542   9.101  0.2603  0.3572  0.2063
   84SAPS    HS 7901   5.929   3.564   9.194  0.4728 -0.3532  0.2524
   84SAPS   O21 7902   5.893   3.645   9.005  0.2709  0.4616 -0.2571
   84SAPS   C21 7903   6.022   3.670   8.986 -0.0267 -0.5397 -0.7566
   84SAPS   O22 7904   6.115   3.640   9.060  0.6636 -0.4758 -0.3481
   84SAPS   C22 7905   6.037   3.742   8.853 -0.3870  0.3320  0.0487
   84SAPS   H2R 7906   5.936   3.760   8.810 -0.8771 -1.1658  0.4900
   84SAPS   H2S 7907   6.084   3.839   8.875 -2.3459  1.6148 -1.1132
   84SAPS    C3 7908   5.901   3.402   9.050 -0.2059  0.4409  0.3384
   84SAPS    HX 7909   5.887   3.338   9.139  0.5680  0.3733  0.4231
   84SAPS    HY 7910   6.007   3.400   9.015 -0.2992  3.9186 -0.5728
   84SAPS   O31 7911   5.827   3.374   8.933  0.3778  1.0298  0.1562
   84SAPS   C31 7912   5.773   3.245   8.932 -0.0536 -0.0118  0.8841
   84SAPS   O32 7913   5.797   3.158   9.014 -0.3012 -0.7031  0.1496
   84SAPS   C32 7914   5.700   3.223   8.804 -0.5062 -0.4060  0.2956
   84SAPS   H2X 7915   5.736   3.279   8.715 -1.9633 -0.8144 -0.6036
   84SAPS   H2Y 7916   5.591   3.242   8.815 -0.9819 -2.7506  0.2397
   84SAPS   C23 7917   6.130   3.656   8.761 -0.1685  0.4027 -0.2124
   84SAPS   H3R 7918   6.195   3.599   8.831 -0.0481  1.3681  0.4962
   84SAPS   H3S 7919   6.179   3.733   8.698 -0.4476  1.2218  0.5322
   84SAPS   C24 7920   6.050   3.542   8.691 -0.4110  0.5224 -0.8714
   84SAPS   H4R 7921   5.987   3.485   8.764  1.2203  0.8244  0.8498
   84SAPS   H4S 7922   6.126   3.472   8.649 -0.3224  0.0678 -0.0005
   84SAPS   C25 7923   5.961   3.596   8.588  1.0618 -0.0386  0.5645
   84SAPS   H5R 7924   5.892   3.678   8.610 -0.0403 -0.1991 -1.9202
   84SAPS   C26 7925   5.953   3.544   8.459 -0.5921 -0.4650  0.0364
   84SAPS   H6R 7926   5.874   3.588   8.397 -1.1721  0.1800  1.1827
   84SAPS   C27 7927   6.022   3.427   8.399 -0.6469  0.4104 -0.2223
   84SAPS   H7R 7928   5.971   3.383   8.312 -1.6211  1.0955 -0.0104
   84SAPS   H7S 7929   6.036   3.348   8.476 -0.6132  0.3589 -0.2810
   84SAPS   C28 7930   6.162   3.463   8.363  0.1878  0.6859  0.0801
   84SAPS   H8R 7931   6.227   3.492   8.447  1.0424 -0.7081 -0.0689
   84SAPS   C29 7932   6.203   3.481   8.235 -0.3894  0.1050 -0.4058
   84SAPS   H9R 7933   6.311   3.489   8.215 -0.6230 -0.0554 -1.7972
   84SAPS  C210 7934   6.115   3.475   8.115  0.3467 -0.2188  0.7754
   84SAPS  H10R 7935   6.006   3.492   8.128  0.5162  2.0798 -0.4130
   84SAPS  H10S 7936   6.113   3.373   8.069 -1.9557 -0.0540  0.3726
   84SAPS  C211 7937   6.133   3.590   8.022  0.1979 -0.0662  0.5906
   84SAPS  H11R 7938   6.077   3.684   8.033  0.7392  0.3711 -0.3050
   84SAPS  C212 7939   6.239   3.602   7.937  0.1372  0.1146 -0.4220
   84SAPS  H12R 7940   6.236   3.694   7.877 -1.5378 -1.4813 -2.9837
   84SAPS  C213 7941   6.340   3.494   7.908 -0.1336  0.9823  0.0963
   84SAPS  H13R 7942   6.306   3.440   7.817  0.6246  0.0036  0.3805
   84SAPS  H13S 7943   6.344   3.413   7.983  3.4786  0.4378 -0.5023
   84SAPS  C214 7944   6.475   3.546   7.878  0.5614 -0.0741 -0.2908
   84SAPS  H14R 7945   6.469   3.604   7.785 -1.3021 -1.0377 -0.8123
   84SAPS  C215 7946   6.591   3.500   7.925  0.3883 -0.1657  0.4701
   84SAPS  H15R 7947   6.685   3.542   7.885 -0.2019  2.2482  1.4015
   84SAPS  C216 7948   6.603   3.408   8.041  0.6075 -0.4061 -0.1729
   84SAPS  H16R 7949   6.508   3.378   8.091  0.4294 -0.5686 -0.6041
   84SAPS  H16S 7950   6.636   3.473   8.125  1.8335  1.1897 -1.8308
   84SAPS  C217 7951   6.703   3.297   8.029  0.1746 -0.2862 -0.7313
   84SAPS  H17R 7952   6.677   3.245   7.935 -1.5787 -1.9038  0.5644
   84SAPS  H17S 7953   6.689   3.217   8.105  1.5306  0.3269  0.2156
   84SAPS  C218 7954   6.854   3.339   8.042  0.1134 -0.9973 -0.0380
   84SAPS  H18R 7955   6.871   3.367   8.148  3.4473 -2.4415 -0.0565
   84SAPS  H18S 7956   6.874   3.433   7.987 -0.8069  0.2322  1.6401
   84SAPS  C219 7957   6.950   3.227   7.993 -0.7259 -1.0128 -0.8206
   84SAPS  H19R 7958   6.902   3.127   7.999  1.0597 -1.9864 -2.0393
   84SAPS  H19S 7959   7.037   3.234   8.061 -1.5268  3.3210  0.0719
   84SAPS  C220 7960   6.988   3.249   7.848  0.1240 -0.0473  1.1380
   84SAPS  H20R 7961   6.906   3.236   7.774  0.6330 -0.9916  0.7206
   84SAPS  H20S 7962   7.064   3.174   7.816 -0.0944  0.0316  0.4085
   84SAPS  H20T 7963   7.042   3.346   7.843  1.8362 -0.9650  1.0135
   84SAPS   C33 7964   5.721   3.075   8.761 -0.0284 -0.0288 -0.6635
   84SAPS   H3X 7965   5.657   3.014   8.829  2.0899 -1.8797 -0.1859
   84SAPS   H3Y 7966   5.829   3.050   8.764 -0.4545 -2.0256  1.0226
   84SAPS   C34 7967   5.688   3.052   8.610  0.7287 -0.1584 -0.0677
   84SAPS   H4X 7968   5.681   2.941   8.605 -1.2273 -0.1158  0.7958
   84SAPS   H4Y 7969   5.774   3.081   8.546  1.6821 -1.9092  0.3587
   84SAPS   C35 7970   5.562   3.121   8.555 -0.6258  0.6358 -0.8092
   84SAPS   H5X 7971   5.568   3.231   8.568 -2.3764  0.9299 -2.1940
   84SAPS   H5Y 7972   5.475   3.088   8.617  0.0252  2.0376  0.9527
   84SAPS   C36 7973   5.548   3.072   8.409 -0.0556 -0.3307  0.0708
   84SAPS   H6X 7974   5.540   2.962   8.402 -1.0053 -0.3195  0.8463
   84SAPS   H6Y 7975   5.643   3.097   8.357 -0.4837  1.3065  0.0192
   84SAPS   C37 7976   5.431   3.137   8.332  0.3521  1.0708  0.1940
   84SAPS   H7X 7977   5.439   3.248   8.336  0.1651  1.0573  1.0523
   84SAPS   H7Y 7978   5.335   3.116   8.383 -0.0018  0.0100 -0.8568
   84SAPS   C38 7979   5.404   3.094   8.191 -0.3444 -0.2261  0.2517
   84SAPS   H8X 7980   5.393   2.984   8.198 -0.4342 -0.1009  3.6304
   84SAPS   H8Y 7981   5.490   3.114   8.124  1.1233  0.4648  2.2574
   84SAPS   C39 7982   5.271   3.139   8.135 -0.3252  0.4586 -0.0206
   84SAPS   H9X 7983   5.285   3.248   8.118 -0.7300  0.4548 -0.3840
   84SAPS   H9Y 7984   5.191   3.114   8.207  0.8054  0.2697  1.2085
   84SAPS  C310 7985   5.237   3.071   8.001  0.2262  0.2327  0.2168
   84SAPS  H10X 7986   5.330   3.020   7.966  0.9072  0.6675  1.3175
   84SAPS  H10Y 7987   5.205   3.148   7.928  0.1110  0.3346  0.3738
   84SAPS  C311 7988   5.132   2.965   8.013  0.1616 -0.0691 -0.3799
   84SAPS  H11X 7989   5.038   3.023   8.024 -0.3143 -0.8428 -0.2698
   84SAPS  H11Y 7990   5.148   2.905   8.105 -2.8866  0.0937  0.3535
   84SAPS  C312 7991   5.139   2.850   7.902 -0.0402 -0.2109 -0.5467
   84SAPS  H12X 7992   5.079   2.767   7.943  0.9741 -1.1483 -0.9054
   84SAPS  H12Y 7993   5.244   2.814   7.889 -0.0303 -1.0423  1.4322
   84SAPS  C313 7994   5.073   2.900   7.768  0.0669 -0.6492  0.7197
   84SAPS  H13X 7995   5.136   2.980   7.723  1.3331 -2.8042 -1.6240
   84SAPS  H13Y 7996   4.971   2.934   7.795 -0.1141 -0.7473  0.1692
   84SAPS  C314 7997   5.057   2.780   7.672 -0.2034 -0.2570 -0.7172
   84SAPS  H14X 7998   4.978   2.712   7.711 -1.1215  1.0088 -0.3077
   84SAPS  H14Y 7999   5.152   2.723   7.668  0.4733  0.7840 -0.0275
   84SAPS  C315 8000   5.015   2.831   7.531  0.1127  0.1848 -0.2934
   84SAPS  H15X 8001   5.012   2.755   7.450  1.2476 -0.8216  0.5841
   84SAPS  H15Y 8002   5.103   2.897   7.513  2.8125 -2.1511  3.1413
   84SAPS  C316 8003   4.880   2.910   7.536  0.4709 -0.7957  0.2301
   84SAPS  H16X 8004   4.882   2.996   7.606 -0.9464 -1.0782  0.6508
   84SAPS  H16Y 8005   4.811   2.834   7.578  0.3929 -0.8701 -0.0314
   84SAPS  C317 8006   4.820   2.968   7.405  0.5547  0.1024  0.3778
   84SAPS  H17X 8007   4.715   3.000   7.422  0.9133  1.3630  0.3472
   84SAPS  H17Y 8008   4.827   2.887   7.329 -0.9761 -0.3611  0.7013
   84SAPS  C318 8009   4.894   3.099   7.364 -0.3170  0.1346  0.9951
   84SAPS  H18X 8010   4.862   3.133   7.264 -2.7545  1.5954  2.1775
   84SAPS  H18Y 8011   5.005   3.101   7.373 -0.2999  0.1736  0.7822
   84SAPS  H18Z 8012   4.866   3.164   7.450  2.2628  0.7065  1.4832
   85SAPS     N 8013   2.091   6.613   9.644  0.3660  0.0993  0.3826
   85SAPS   HN1 8014   1.996   6.618   9.686  0.2733 -0.9647  0.3419
   85SAPS   HN2 8015   2.118   6.706   9.608  2.5658 -0.5599  0.1571
   85SAPS   HN3 8016   2.095   6.546   9.565 -1.3748  0.1226  0.2295
   85SAPS   C12 8017   2.187   6.565   9.746  0.0733 -0.0274  0.0771
   85SAPS  H12A 8018   2.285   6.583   9.703 -0.4878  0.4235 -1.0795
   85SAPS   C13 8019   2.181   6.633   9.889  0.2929  0.5668  0.2457
   85SAPS  O13A 8020   2.089   6.719   9.912 -0.3269  0.6347  0.0642
   85SAPS  O13B 8021   2.271   6.607   9.972 -0.0936 -0.6723  0.1214
   85SAPS   C11 8022   2.181   6.405   9.757  0.6383  0.0711  0.1863
   85SAPS  H11A 8023   2.090   6.386   9.817  0.5983 -0.7972 -0.1354
   85SAPS  H11B 8024   2.275   6.372   9.807  1.1606 -0.4180 -1.0868
   85SAPS     P 8025   2.159   6.186   9.611 -0.2538 -0.2160  0.0946
   85SAPS   O13 8026   2.273   6.150   9.524 -0.9269 -0.0257 -0.5147
   85SAPS   O14 8027   2.162   6.118   9.742  0.2125 -0.4798  0.3271
   85SAPS   O12 8028   2.166   6.342   9.626 -0.4648 -0.0208  0.1414
   85SAPS   O11 8029   2.020   6.159   9.542 -0.2376  0.1354  0.4238
   85SAPS    C1 8030   2.009   6.087   9.414  0.3809  0.3566  0.6519
   85SAPS    HA 8031   2.086   6.120   9.342 -2.5854 -1.0511 -3.5487
   85SAPS    HB 8032   2.021   5.977   9.426 -1.3447  0.0716  0.1029
   85SAPS    C2 8033   1.869   6.120   9.342 -0.0798 -0.2904  0.6428
   85SAPS    HS 8034   1.793   6.082   9.413  2.1595 -0.9863  2.8047
   85SAPS   O21 8035   1.862   6.057   9.218 -0.0668  0.5721 -0.2611
   85SAPS   C21 8036   1.861   5.923   9.208 -0.2102 -0.2747  0.4319
   85SAPS   O22 8037   1.848   5.841   9.296  0.5298  0.0851  0.1068
   85SAPS   C22 8038   1.887   5.888   9.063  0.4658 -0.3280  0.4707
   85SAPS   H2R 8039   1.822   5.954   9.002 -0.6519  1.2616  3.2078
   85SAPS   H2S 8040   1.995   5.908   9.046  0.7197 -0.9653  1.2930
   85SAPS    C3 8041   1.852   6.268   9.308  0.1341 -0.2278 -0.3523
   85SAPS    HX 8042   1.843   6.340   9.391  1.3569 -0.0575 -0.3446
   85SAPS    HY 8043   1.753   6.265   9.259 -1.0974  1.3454  1.8795
   85SAPS   O31 8044   1.956   6.321   9.216  0.0899 -0.0125  0.6053
   85SAPS   C31 8045   2.060   6.392   9.270  0.4336  0.5854  0.1136
   85SAPS   O32 8046   2.053   6.447   9.379 -0.5229  0.4483 -0.2152
   85SAPS   C32 8047   2.171   6.383   9.168 -0.3170 -0.1754  0.1986
   85SAPS   H2X 8048   2.221   6.284   9.177 -0.6395 -0.2666  1.0040
   85SAPS   H2Y 8049   2.248   6.453   9.208 -0.3576 -1.5802  2.9124
   85SAPS   C23 8050   1.850   5.743   9.025 -0.0868 -0.2091 -0.4217
   85SAPS   H3R 8051   1.745   5.715   9.047 -0.4058  0.8845 -0.4988
   85SAPS   H3S 8052   1.909   5.671   9.086  0.5242  1.1652  0.6681
   85SAPS   C24 8053   1.856   5.716   8.871  0.3044 -0.0574  0.2304
   85SAPS   H4R 8054   1.812   5.617   8.851  2.1079 -0.7250 -0.6608
   85SAPS   H4S 8055   1.965   5.709   8.850  0.4874 -2.4247  1.6539
   85SAPS   C25 8056   1.781   5.809   8.780  0.1751 -0.1218  1.0120
   85SAPS   H5R 8057   1.672   5.818   8.791 -0.0325 -1.2209  0.0599
   85SAPS   C26 8058   1.836   5.876   8.681  0.9885 -0.5157  0.3065
   85SAPS   H6R 8059   1.770   5.939   8.620 -1.2160 -2.1991  0.8751
   85SAPS   C27 8060   1.980   5.867   8.634 -0.1524  0.3606 -0.6161
   85SAPS   H7R 8061   1.986   5.913   8.533 -1.7100 -0.5831 -1.1696
   85SAPS   H7S 8062   2.016   5.764   8.616  0.4331  0.8895 -2.7338
   85SAPS   C28 8063   2.070   5.950   8.719  0.0505  0.4357 -0.2450
   85SAPS   H8R 8064   2.091   5.907   8.818 -1.5423 -1.4727 -0.6826
   85SAPS   C29 8065   2.103   6.077   8.694  0.0013  0.2444 -0.0190
   85SAPS   H9R 8066   2.171   6.121   8.769  0.2924 -2.0388  1.1332
   85SAPS  C210 8067   2.083   6.153   8.560 -0.0542  0.0858  0.0812
   85SAPS  H10R 8068   2.087   6.085   8.472 -2.3851 -1.1209  0.8176
   85SAPS  H10S 8069   2.182   6.204   8.556 -0.1399  0.1921 -0.6841
   85SAPS  C211 8070   1.964   6.251   8.549  0.8421  0.1992 -0.2042
   85SAPS  H11R 8071   1.886   6.240   8.626 -0.3744  2.5535 -1.0173
   85SAPS  C212 8072   1.940   6.324   8.443  0.4411  0.2379  0.4329
   85SAPS  H12R 8073   1.843   6.375   8.439  1.4269  2.3467  1.3469
   85SAPS  C213 8074   2.027   6.336   8.324 -0.5530  0.2840 -0.0310
   85SAPS  H13R 8075   2.101   6.253   8.327 -0.5050  0.3247  2.7182
   85SAPS  H13S 8076   2.087   6.429   8.333 -0.5569  0.1582  1.6364
   85SAPS  C214 8077   1.962   6.330   8.187  0.1202 -0.2248  0.1420
   85SAPS  H14R 8078   1.959   6.422   8.127 -0.5670  0.1959  0.7970
   85SAPS  C215 8079   1.907   6.218   8.134 -0.2108  0.3369 -0.0161
   85SAPS  H15R 8080   1.844   6.231   8.045 -4.3077 -2.1986  2.2077
   85SAPS  C216 8081   1.887   6.077   8.188  0.8578 -0.0560 -0.1626
   85SAPS  H16R 8082   1.914   6.082   8.296 -1.6181  0.1426  0.5069
   85SAPS  H16S 8083   1.958   6.009   8.135  0.6362 -0.3483 -0.0865
   85SAPS  C217 8084   1.745   6.020   8.176  0.1465  0.0690 -0.4098
   85SAPS  H17R 8085   1.705   6.037   8.074 -1.4640 -3.1818 -0.4314
   85SAPS  H17S 8086   1.684   6.082   8.245  1.3806  0.4251  0.4086
   85SAPS  C218 8087   1.746   5.871   8.216 -0.0522 -0.2953 -0.3695
   85SAPS  H18R 8088   1.813   5.870   8.304 -1.3183  3.1588  0.7593
   85SAPS  H18S 8089   1.794   5.818   8.130 -0.7021 -0.6988 -0.4921
   85SAPS  C219 8090   1.601   5.831   8.231  0.2400  0.7790 -0.2314
   85SAPS  H19R 8091   1.599   5.719   8.230  3.2257  0.6174  0.7877
   85SAPS  H19S 8092   1.522   5.859   8.158 -3.2534 -2.4317  1.9282
   85SAPS  C220 8093   1.551   5.859   8.376 -0.0299 -0.4402  0.1858
   85SAPS  H20R 8094   1.569   5.962   8.413 -0.6216 -0.2207 -0.1275
   85SAPS  H20S 8095   1.603   5.785   8.441 -0.9884 -0.1108  1.3776
   85SAPS  H20T 8096   1.444   5.830   8.385  0.0146 -1.2646 -1.6349
   85SAPS   C33 8097   2.128   6.410   9.017 -0.1359  0.7119 -0.5336
   85SAPS   H3X 8098   2.061   6.498   9.007 -0.4668  1.0451  3.3143
   85SAPS   H3Y 8099   2.054   6.332   8.989  0.5297 -0.0421 -0.2219
   85SAPS   C34 8100   2.245   6.411   8.913 -0.0636 -0.4411 -0.0429
   85SAPS   H4X 8101   2.277   6.306   8.897 -0.0952 -0.5478  0.5562
   85SAPS   H4Y 8102   2.330   6.465   8.961 -0.4289  1.9267 -1.8497
   85SAPS   C35 8103   2.214   6.481   8.777  0.4887  0.7972  0.1464
   85SAPS   H5X 8104   2.207   6.591   8.795 -1.0068  0.7135  0.1884
   85SAPS   H5Y 8105   2.117   6.449   8.734 -0.1578  0.9011  1.4845
   85SAPS   C36 8106   2.333   6.457   8.680  0.3476  0.4746  0.4452
   85SAPS   H6X 8107   2.353   6.350   8.660  0.6748  0.5431  0.4066
   85SAPS   H6Y 8108   2.430   6.502   8.709  1.6950 -0.4104 -2.3107
   85SAPS   C37 8109   2.297   6.514   8.542  0.4997  0.9531  0.5410
   85SAPS   H7X 8110   2.288   6.623   8.564  0.1991  0.5869  2.3840
   85SAPS   H7Y 8111   2.190   6.492   8.525  0.8346  1.3513 -2.7295
   85SAPS   C38 8112   2.394   6.462   8.436  0.2318 -0.3924 -0.4009
   85SAPS   H8X 8113   2.336   6.451   8.342  0.3598 -1.1816 -0.3951
   85SAPS   H8Y 8114   2.437   6.360   8.445  1.5566 -0.1018 -2.6828
   85SAPS   C39 8115   2.500   6.571   8.422  0.6902 -0.5421  0.1505
   85SAPS   H9X 8116   2.578   6.575   8.501  0.5874 -0.0968  0.2335
   85SAPS   H9Y 8117   2.447   6.669   8.415 -0.2712 -1.0739 -0.2941
   85SAPS  C310 8118   2.578   6.554   8.291 -0.0182  0.2900  0.7384
   85SAPS  H10X 8119   2.508   6.560   8.205 -0.0373 -0.0260  0.7319
   85SAPS  H10Y 8120   2.617   6.450   8.284  3.1202  1.3755  0.3498
   85SAPS  C311 8121   2.687   6.664   8.281  0.6445 -1.0494 -0.1137
   85SAPS  H11X 8122   2.766   6.656   8.358  1.1397  1.7002 -0.2641
   85SAPS  H11Y 8123   2.634   6.761   8.278 -3.0841 -2.8698  0.9683
   85SAPS  C312 8124   2.763   6.659   8.148 -0.5588  1.3107  0.6045
   85SAPS  H12X 8125   2.693   6.690   8.067 -1.0168  0.0439  0.4935
   85SAPS  H12Y 8126   2.763   6.549   8.138 -0.4718  1.3430  0.2432
   85SAPS  C313 8127   2.903   6.724   8.143  0.3406  0.0498  0.7678
   85SAPS  H13X 8128   2.950   6.681   8.234 -0.6519 -1.7121  0.5002
   85SAPS  H13Y 8129   2.892   6.834   8.155 -1.8917  0.1021 -1.0894
   85SAPS  C314 8130   2.983   6.675   8.018  0.5043 -0.0655  0.0277
   85SAPS  H14X 8131   2.984   6.564   8.017 -0.1271 -0.1013 -2.0576
   85SAPS  H14Y 8132   3.087   6.711   8.037  0.5928 -1.2954  2.2631
   85SAPS  C315 8133   2.924   6.741   7.891  0.4706  0.1151 -0.6844
   85SAPS  H15X 8134   2.914   6.851   7.904 -0.1619 -0.0068 -0.1085
   85SAPS  H15Y 8135   2.826   6.691   7.871 -0.6370  1.5249  0.9834
   85SAPS  C316 8136   3.012   6.712   7.762  0.1240 -0.0168  0.0835
   85SAPS  H16X 8137   3.003   6.602   7.746 -0.6820 -0.2235  1.7630
   85SAPS  H16Y 8138   3.116   6.735   7.794 -1.1367  1.0353  3.9454
   85SAPS  C317 8139   2.989   6.808   7.646 -0.3826 -0.6058 -0.6362
   85SAPS  H17X 8140   3.055   6.783   7.560 -1.4410 -0.7721 -1.4320
   85SAPS  H17Y 8141   3.016   6.912   7.671 -1.1412 -0.3143 -0.9713
   85SAPS  C318 8142   2.846   6.818   7.589 -0.0307  0.9908  0.2746
   85SAPS  H18X 8143   2.772   6.833   7.670 -1.1071 -0.8425 -0.2896
   85SAPS  H18Y 8144   2.822   6.718   7.546  2.7937  0.8101 -1.1654
   85SAPS  H18Z 8145   2.840   6.892   7.507  0.2321  0.2124 -0.4698
   86SAPS     N 8146   4.710   6.296  10.057  0.6103 -0.1562  0.2216
   86SAPS   HN1 8147   4.680   6.388  10.019  0.8510 -0.4672 -0.7816
   86SAPS   HN2 8148   4.648   6.231  10.004 -1.4357  2.4109 -0.7057
   86SAPS   HN3 8149   4.700   6.287  10.160  2.3171  0.8312  0.5001
   86SAPS   C12 8150   4.853   6.270  10.016 -0.5597  0.4762  0.3858
   86SAPS  H12A 8151   4.856   6.285   9.909  0.4833  1.8318  0.5709
   86SAPS   C13 8152   4.958   6.358  10.089 -0.2523 -0.3350  0.0273
   86SAPS  O13A 8153   4.925   6.442  10.174  0.5028 -0.7280 -0.3761
   86SAPS  O13B 8154   5.079   6.340  10.075 -0.6396 -0.0629  0.2189
   86SAPS   C11 8155   4.893   6.120  10.046  0.2928  0.1860 -0.8461
   86SAPS  H11A 8156   4.893   6.095  10.154  0.1696  1.8959 -0.4306
   86SAPS  H11B 8157   4.999   6.107  10.017  0.2097 -0.0436 -1.0560
   86SAPS     P 8158   4.852   5.923   9.876  0.3378 -0.4039 -0.3683
   86SAPS   O13 8159   4.964   5.849   9.934  0.1374 -0.4134 -0.1568
   86SAPS   O14 8160   4.731   5.844   9.840 -0.1816 -0.5273 -0.2314
   86SAPS   O12 8161   4.803   6.022   9.992  0.0157 -0.5106 -0.2240
   86SAPS   O11 8162   4.902   6.027   9.764 -0.5294  0.3022 -0.0050
   86SAPS    C1 8163   4.810   6.108   9.684  0.2415 -0.4169 -0.3150
   86SAPS    HA 8164   4.727   6.137   9.751  0.4879 -1.9639  0.7358
   86SAPS    HB 8165   4.853   6.200   9.640  0.7303 -2.0787 -3.6711
   86SAPS    C2 8166   4.750   6.022   9.568 -0.0022  0.3563 -0.0806
   86SAPS    HS 8167   4.692   5.938   9.612  0.0873 -0.2211 -1.0260
   86SAPS   O21 8168   4.856   5.973   9.487 -0.3125  0.0461 -0.4912
   86SAPS   C21 8169   4.839   5.866   9.414  0.0896  0.6762  0.1704
   86SAPS   O22 8170   4.741   5.793   9.412  0.7786 -0.0321  0.0118
   86SAPS   C22 8171   4.959   5.861   9.322  0.0328 -0.5269 -0.4527
   86SAPS   H2R 8172   4.975   5.957   9.269  2.7342 -0.7786 -0.1902
   86SAPS   H2S 8173   5.054   5.840   9.375  0.3433  1.6036 -0.0784
   86SAPS    C3 8174   4.649   6.110   9.479  0.5714  0.5124 -0.2945
   86SAPS    HX 8175   4.572   6.143   9.551  1.8387  1.3633  0.7248
   86SAPS    HY 8176   4.599   6.042   9.407 -0.1882  0.1055  0.6077
   86SAPS   O31 8177   4.706   6.228   9.418  0.8164 -0.6525  0.0109
   86SAPS   C31 8178   4.750   6.221   9.296 -0.2746  0.1671 -0.1243
   86SAPS   O32 8179   4.741   6.128   9.215  0.5834 -0.4590 -0.9422
   86SAPS   C32 8180   4.836   6.346   9.273 -0.1476  0.0435  0.1326
   86SAPS   H2X 8181   4.924   6.344   9.340 -1.2377 -0.9453  1.6123
   86SAPS   H2Y 8182   4.768   6.430   9.297 -0.1339  0.1794 -0.3004
   86SAPS   C23 8183   4.943   5.752   9.213 -0.4257 -0.0545 -0.9193
   86SAPS   H3R 8184   4.851   5.783   9.159 -1.6296 -1.6578  0.1219
   86SAPS   H3S 8185   4.910   5.661   9.267  0.6509 -0.6651 -1.2642
   86SAPS   C24 8186   5.055   5.729   9.115  0.4215 -0.1196  0.0866
   86SAPS   H4R 8187   5.016   5.649   9.048  0.4827 -2.4336  2.6015
   86SAPS   H4S 8188   5.147   5.698   9.169 -1.5670 -2.8159  2.2058
   86SAPS   C25 8189   5.088   5.864   9.048  0.8367 -0.1210  0.4471
   86SAPS   H5R 8190   5.155   5.927   9.109 -1.2642  1.9310  0.7521
   86SAPS   C26 8191   5.057   5.903   8.922  0.3113  0.5866  0.3488
   86SAPS   H6R 8192   5.095   5.998   8.881 -2.7379  0.9601 -1.9698
   86SAPS   C27 8193   4.964   5.838   8.820 -0.0530  0.2435  0.0366
   86SAPS   H7R 8194   4.896   5.774   8.879  0.4796  0.2688  0.6890
   86SAPS   H7S 8195   5.026   5.777   8.750  0.7365 -2.6619  3.0396
   86SAPS   C28 8196   4.883   5.938   8.750 -0.3430 -0.4358 -0.0137
   86SAPS   H8R 8197   4.826   5.998   8.823  1.4229 -0.4758  1.4669
   86SAPS   C29 8198   4.891   5.988   8.624  0.5002  0.2546 -0.5119
   86SAPS   H9R 8199   4.819   6.059   8.582  0.3185  0.6418  0.4417
   86SAPS  C210 8200   4.996   5.940   8.522  0.1653  0.6304  0.3471
   86SAPS  H10R 8201   4.950   5.873   8.446  2.3811 -1.2274  0.5267
   86SAPS  H10S 8202   5.074   5.878   8.571  0.4454 -0.8850 -1.8921
   86SAPS  C211 8203   5.064   6.055   8.455  0.5659 -0.3505  0.1987
   86SAPS  H11R 8204   5.021   6.151   8.485 -0.0383 -0.6284  0.2278
   86SAPS  C212 8205   5.177   6.042   8.378  0.4490  0.5743  0.2146
   86SAPS  H12R 8206   5.204   6.130   8.318  1.4220 -0.4186 -0.8487
   86SAPS  C213 8207   5.253   5.917   8.348 -0.5298 -0.0587  0.3501
   86SAPS  H13R 8208   5.282   5.869   8.444  0.9217  0.6515  0.2875
   86SAPS  H13S 8209   5.345   5.958   8.302 -0.0268 -1.7312 -0.1651
   86SAPS  C214 8210   5.204   5.815   8.250  0.6873  0.1183  1.2559
   86SAPS  H14R 8211   5.128   5.742   8.280 -0.9833  1.7933  1.2476
   86SAPS  C215 8212   5.240   5.816   8.117 -0.2373  0.7340  0.2812
   86SAPS  H15R 8213   5.224   5.721   8.064 -1.3996 -1.0994  3.6432
   86SAPS  C216 8214   5.335   5.907   8.044 -0.2530  0.2687  0.1648
   86SAPS  H16R 8215   5.413   5.944   8.114  0.5633  0.9067 -1.0492
   86SAPS  H16S 8216   5.299   6.008   8.014  1.4441  0.5622 -0.9983
   86SAPS  C217 8217   5.408   5.842   7.922  0.7350 -0.3246 -0.4986
   86SAPS  H17R 8218   5.452   5.750   7.964  4.2119  0.7045 -1.5247
   86SAPS  H17S 8219   5.491   5.911   7.896  0.1125  0.6650  0.0986
   86SAPS  C218 8220   5.328   5.836   7.790  0.0541 -0.3114  0.0515
   86SAPS  H18R 8221   5.282   5.932   7.757  0.9448 -0.0672 -0.5247
   86SAPS  H18S 8222   5.256   5.754   7.810  2.4142 -2.0755  1.9154
   86SAPS  C219 8223   5.425   5.785   7.680 -0.3034 -0.5047  0.2992
   86SAPS  H19R 8224   5.498   5.715   7.727  0.7961  1.0167  0.9466
   86SAPS  H19S 8225   5.484   5.866   7.632  1.3303 -2.5193 -1.2888
   86SAPS  C220 8226   5.344   5.717   7.565 -0.3315 -0.0509 -0.0532
   86SAPS  H20R 8227   5.410   5.681   7.483 -1.1994 -0.9321 -0.3747
   86SAPS  H20S 8228   5.279   5.797   7.523  2.1591  1.5668 -1.0970
   86SAPS  H20T 8229   5.287   5.633   7.610 -0.4379  0.8595  1.5812
   86SAPS   C33 8230   4.895   6.344   9.131  0.1858 -0.2093 -0.4779
   86SAPS   H3X 8231   4.921   6.453   9.129 -1.2034  0.2026  1.6831
   86SAPS   H3Y 8232   4.818   6.318   9.055 -0.2317  0.2321 -0.2094
   86SAPS   C34 8233   5.022   6.255   9.124 -0.5429  0.1201  0.5298
   86SAPS   H4X 8234   4.978   6.153   9.126  0.0445 -0.1285  1.0876
   86SAPS   H4Y 8235   5.081   6.262   9.218 -2.3631 -1.2849  1.8399
   86SAPS   C35 8236   5.098   6.288   8.996 -0.2737  0.6214 -0.0833
   86SAPS   H5X 8237   5.020   6.281   8.917  0.9736 -1.8896 -1.1799
   86SAPS   H5Y 8238   5.173   6.208   8.980 -1.2036  0.0325 -1.6731
   86SAPS   C36 8239   5.168   6.421   8.980 -0.3882 -0.1343 -0.1222
   86SAPS   H6X 8240   5.255   6.418   9.048  0.2278  3.3885 -0.5690
   86SAPS   H6Y 8241   5.104   6.502   9.021  1.0003  0.1993  1.4967
   86SAPS   C37 8242   5.221   6.439   8.835 -0.2279 -0.1278  0.7214
   86SAPS   H7X 8243   5.304   6.372   8.804  1.1328  2.4775 -1.7005
   86SAPS   H7Y 8244   5.261   6.543   8.832 -0.3759 -0.0939 -0.9127
   86SAPS   C38 8245   5.121   6.438   8.729  0.8838 -0.8330  0.9074
   86SAPS   H8X 8246   5.031   6.489   8.769  0.2064 -2.7517  1.9568
   86SAPS   H8Y 8247   5.101   6.332   8.699  0.5088 -0.2282 -1.1688
   86SAPS   C39 8248   5.163   6.509   8.593  0.5306  0.1066 -0.5657
   86SAPS   H9X 8249   5.263   6.466   8.573 -0.2889 -2.1051 -0.1680
   86SAPS   H9Y 8250   5.177   6.619   8.602  2.5560 -0.1059 -0.6103
   86SAPS  C310 8251   5.073   6.488   8.466  0.2225 -0.7968  0.2211
   86SAPS  H10X 8252   4.973   6.531   8.488 -0.5991 -2.1244 -0.7940
   86SAPS  H10Y 8253   5.043   6.382   8.456  0.3461 -0.7472 -0.7494
   86SAPS  C311 8254   5.130   6.542   8.338  0.1284  0.4810  0.5048
   86SAPS  H11X 8255   5.166   6.647   8.349 -4.0089  1.9865  1.3668
   86SAPS  H11Y 8256   5.058   6.535   8.255  0.2527  0.1284  0.4267
   86SAPS  C312 8257   5.240   6.454   8.277  0.2306  0.2871  0.7892
   86SAPS  H12X 8258   5.224   6.345   8.291  0.2399  0.3789  1.5292
   86SAPS  H12Y 8259   5.334   6.476   8.333  0.3789  1.5661  0.0775
   86SAPS  C313 8260   5.262   6.489   8.127 -0.2070 -0.1676  0.6719
   86SAPS  H13X 8261   5.301   6.593   8.125  2.5192 -1.1161 -0.2087
   86SAPS  H13Y 8262   5.166   6.483   8.072  0.8807 -0.3181 -1.3047
   86SAPS  C314 8263   5.352   6.393   8.049 -0.1513 -0.4121 -0.6071
   86SAPS  H14X 8264   5.318   6.290   8.071  2.2247 -0.7650  1.8526
   86SAPS  H14Y 8265   5.450   6.401   8.099 -2.1461 -2.0448  4.0842
   86SAPS  C315 8266   5.367   6.422   7.900  0.4419  0.2703 -0.3047
   86SAPS  H15X 8267   5.456   6.486   7.880  0.6102  0.3202  0.5689
   86SAPS  H15Y 8268   5.289   6.487   7.855  1.6027  1.9726  0.0419
   86SAPS  C316 8269   5.377   6.289   7.833 -0.4565  0.2838 -0.2411
   86SAPS  H16X 8270   5.275   6.252   7.809 -0.3003 -0.9780  0.9382
   86SAPS  H16Y 8271   5.429   6.215   7.896  1.0091  0.4930 -1.1516
   86SAPS  C317 8272   5.443   6.302   7.692  0.2672 -0.7905 -0.2815
   86SAPS  H17X 8273   5.541   6.354   7.695  0.5686 -0.9131 -3.7687
   86SAPS  H17Y 8274   5.381   6.362   7.623  1.2206  1.3252  0.6211
   86SAPS  C318 8275   5.491   6.172   7.625  0.5220  0.4651 -0.2707
   86SAPS  H18X 8276   5.601   6.166   7.640  0.9217  0.7051 -2.6902
   86SAPS  H18Y 8277   5.454   6.164   7.521 -0.4020 -0.4629  0.1152
   86SAPS  H18Z 8278   5.447   6.086   7.680 -0.5985 -1.0527 -3.3350
   87SAPS     N 8279   5.318   6.328   9.954 -0.2926 -0.2522 -0.2763
   87SAPS   HN1 8280   5.311   6.244   9.892  0.6211 -0.8287  0.3632
   87SAPS   HN2 8281   5.391   6.309  10.026 -0.5355 -1.3141 -0.2965
   87SAPS   HN3 8282   5.232   6.340  10.011  1.3424  2.9398  1.8628
   87SAPS   C12 8283   5.347   6.452   9.871 -0.0435  0.1914  0.0783
   87SAPS  H12A 8284   5.326   6.529   9.943  0.1673  0.3894 -0.0727
   87SAPS   C13 8285   5.496   6.463   9.834  0.7814  0.0144 -1.0995
   87SAPS  O13A 8286   5.585   6.393   9.887  0.1735 -0.1774 -0.6129
   87SAPS  O13B 8287   5.537   6.574   9.788  0.5086  0.3058 -0.0297
   87SAPS   C11 8288   5.267   6.453   9.739  0.8213  0.1440  0.6479
   87SAPS  H11A 8289   5.290   6.364   9.676  0.7291 -0.1364  1.0047
   87SAPS  H11B 8290   5.292   6.538   9.673 -0.5686  1.1929  1.4133
   87SAPS     P 8291   5.027   6.450   9.651  0.1429 -0.1568  0.0659
   87SAPS   O13 8292   5.071   6.334   9.571 -0.7169  0.0115 -0.3397
   87SAPS   O14 8293   4.891   6.448   9.708  0.5019 -0.0880 -0.0537
   87SAPS   O12 8294   5.131   6.463   9.768 -0.2600 -0.0746  0.5723
   87SAPS   O11 8295   5.045   6.592   9.576 -0.0121 -0.7231  0.3626
   87SAPS    C1 8296   4.955   6.703   9.572 -0.1828 -0.1670  0.3924
   87SAPS    HA 8297   4.938   6.723   9.464 -0.8466 -1.5364  0.2243
   87SAPS    HB 8298   4.858   6.681   9.622  0.3073 -0.5361  1.1936
   87SAPS    C2 8299   5.021   6.841   9.625  0.0614  0.1674  0.3374
   87SAPS    HS 8300   5.055   6.823   9.730  1.4156  0.6934  0.0184
   87SAPS   O21 8301   4.922   6.941   9.611 -0.1657 -0.3197 -0.1834
   87SAPS   C21 8302   4.833   6.943   9.719 -0.3783  0.1746 -0.2991
   87SAPS   O22 8303   4.849   6.881   9.823  0.0220  0.0079  1.0983
   87SAPS   C22 8304   4.725   7.044   9.694  0.1933 -0.3889 -0.1097
   87SAPS   H2R 8305   4.748   7.139   9.747  0.0221 -0.8390  0.7937
   87SAPS   H2S 8306   4.717   7.069   9.586  0.3778  0.7403  0.1263
   87SAPS    C3 8307   5.144   6.890   9.539  0.2315  0.1796  0.1768
   87SAPS    HX 8308   5.236   6.832   9.563  1.5290  0.6057 -3.1837
   87SAPS    HY 8309   5.157   7.000   9.553 -1.0935  0.3731  0.0360
   87SAPS   O31 8310   5.131   6.870   9.403 -0.0430  0.2655  0.5897
   87SAPS   C31 8311   5.236   6.892   9.328  0.4340  0.6369 -0.3006
   87SAPS   O32 8312   5.344   6.939   9.363 -0.1746  0.3858  0.0319
   87SAPS   C32 8313   5.199   6.863   9.182  0.0513  0.1604 -0.4784
   87SAPS   H2X 8314   5.103   6.913   9.156  0.9543  1.1387 -2.1535
   87SAPS   H2Y 8315   5.182   6.754   9.171 -2.0727  0.1361  2.1811
   87SAPS   C23 8316   4.591   6.992   9.751 -0.3486 -0.3781  0.0240
   87SAPS   H3R 8317   4.526   7.081   9.757  0.3412  0.0857  0.7163
   87SAPS   H3S 8318   4.602   6.957   9.855  1.3616 -0.9047 -0.3100
   87SAPS   C24 8319   4.513   6.893   9.660  0.2241 -0.2411 -0.4041
   87SAPS   H4R 8320   4.478   6.958   9.577 -3.3033 -1.3384  0.0745
   87SAPS   H4S 8321   4.428   6.861   9.724  1.0933 -0.9826  0.4150
   87SAPS   C25 8322   4.578   6.774   9.597 -0.7265 -0.0449 -0.2513
   87SAPS   H5R 8323   4.606   6.691   9.664 -2.4675 -0.0130  0.5604
   87SAPS   C26 8324   4.631   6.768   9.472  0.3689  0.1690 -0.4905
   87SAPS   H6R 8325   4.681   6.675   9.443  1.8128  0.6787  0.2434
   87SAPS   C27 8326   4.622   6.872   9.362 -0.6079 -0.2967  0.5348
   87SAPS   H7R 8327   4.568   6.964   9.392 -3.7985 -2.0073  0.4842
   87SAPS   H7S 8328   4.556   6.820   9.289 -0.0264  0.0752 -0.2787
   87SAPS   C28 8329   4.763   6.903   9.318 -0.5671  0.3150 -0.1121
   87SAPS   H8R 8330   4.825   6.957   9.392 -1.7851  0.0544  1.1291
   87SAPS   C29 8331   4.816   6.892   9.194  0.4190 -0.4090  0.1641
   87SAPS   H9R 8332   4.915   6.936   9.175  0.4814 -0.6647 -0.1089
   87SAPS  C210 8333   4.747   6.833   9.079 -0.0137  0.1270  0.7438
   87SAPS  H10R 8334   4.706   6.918   9.020  1.0723  0.7798  0.9083
   87SAPS  H10S 8335   4.653   6.778   9.100 -0.4447 -0.6636 -2.6144
   87SAPS  C211 8336   4.850   6.757   8.991  0.5129  0.6032  0.1085
   87SAPS  H11R 8337   4.903   6.680   9.050 -1.1613 -0.4225  0.3471
   87SAPS  C212 8338   4.893   6.778   8.867  0.3401  0.7880  0.0950
   87SAPS  H12R 8339   4.969   6.707   8.831 -0.3706 -0.9253  1.7941
   87SAPS  C213 8340   4.847   6.885   8.760 -1.0951  0.2304  0.1886
   87SAPS  H13R 8341   4.935   6.915   8.698 -0.0721 -0.6989  1.1340
   87SAPS  H13S 8342   4.806   6.978   8.803  0.0170  1.3123 -0.9943
   87SAPS  C214 8343   4.736   6.836   8.670  0.6331  0.6357  0.8519
   87SAPS  H14R 8344   4.657   6.775   8.716 -1.2570  2.0097 -0.3886
   87SAPS  C215 8345   4.733   6.853   8.537 -0.0306  0.1920 -0.8184
   87SAPS  H15R 8346   4.648   6.818   8.476 -0.0131 -0.3463 -0.5382
   87SAPS  C216 8347   4.832   6.912   8.446 -0.2040  0.2668  0.3406
   87SAPS  H16R 8348   4.928   6.855   8.445 -0.4279 -0.1501  1.3320
   87SAPS  H16S 8349   4.849   7.012   8.490  0.3265  0.2860  0.1036
   87SAPS  C217 8350   4.779   6.935   8.305 -0.2108 -0.7327 -0.5149
   87SAPS  H17R 8351   4.681   6.987   8.303  1.1580  1.9644 -1.7691
   87SAPS  H17S 8352   4.759   6.838   8.254  0.5752 -1.0944 -0.1536
   87SAPS  C218 8353   4.872   7.021   8.210  0.5427 -0.3945  0.0775
   87SAPS  H18R 8354   4.890   7.120   8.257 -0.3617  0.3975 -1.1815
   87SAPS  H18S 8355   4.818   7.036   8.114 -1.9366 -0.0377  1.4433
   87SAPS  C219 8356   4.990   6.936   8.162  0.4169  0.4240 -1.0140
   87SAPS  H19R 8357   4.951   6.858   8.093  1.0985 -1.3746  0.5428
   87SAPS  H19S 8358   5.033   6.882   8.249  1.5227 -0.8804 -2.3068
   87SAPS  C220 8359   5.090   7.024   8.089 -0.3462  0.7676 -0.3200
   87SAPS  H20R 8360   5.141   7.084   8.167  1.8162 -0.4956 -0.6819
   87SAPS  H20S 8361   5.050   7.098   8.015  3.0624  1.8171 -1.3066
   87SAPS  H20T 8362   5.160   6.966   8.025  0.1245  0.7871  0.1728
   87SAPS   C33 8363   5.310   6.925   9.083  0.3914  0.3351  0.0506
   87SAPS   H3X 8364   5.414   6.907   9.119  0.8289  1.6865 -0.4722
   87SAPS   H3Y 8365   5.283   7.032   9.073 -1.2085 -0.1625 -1.4271
   87SAPS   C34 8366   5.281   6.864   8.946 -0.0267 -0.2004  0.1334
   87SAPS   H4X 8367   5.178   6.883   8.910 -0.1918 -0.9519  0.1919
   87SAPS   H4Y 8368   5.292   6.754   8.950  1.7674 -0.1659 -1.8618
   87SAPS   C35 8369   5.367   6.917   8.833 -0.5136  0.2761  0.7402
   87SAPS   H5X 8370   5.475   6.896   8.847  0.1243  2.2975 -0.7134
   87SAPS   H5Y 8371   5.355   7.027   8.840  0.9113  0.6742 -1.9066
   87SAPS   C36 8372   5.330   6.858   8.698 -0.0304  0.7854  0.6725
   87SAPS   H6X 8373   5.224   6.873   8.669  0.0493 -2.0881 -1.6589
   87SAPS   H6Y 8374   5.344   6.747   8.698  1.9041  0.9533 -1.4278
   87SAPS   C37 8375   5.421   6.909   8.585 -0.1623  0.4797  0.4586
   87SAPS   H7X 8376   5.527   6.879   8.598 -0.3229 -0.0259  0.6251
   87SAPS   H7Y 8377   5.420   7.020   8.585 -0.3256  0.5679  3.5894
   87SAPS   C38 8378   5.371   6.853   8.452 -1.4231 -0.6581 -0.0273
   87SAPS   H8X 8379   5.264   6.880   8.439 -1.1420 -0.5124 -2.5888
   87SAPS   H8Y 8380   5.391   6.743   8.457 -0.2167 -0.4814 -0.4916
   87SAPS   C39 8381   5.453   6.904   8.328  0.2069 -0.0870 -0.0972
   87SAPS   H9X 8382   5.563   6.887   8.327  0.1211 -0.6320 -0.5885
   87SAPS   H9Y 8383   5.427   7.010   8.310 -2.2218 -0.7712 -0.9390
   87SAPS  C310 8384   5.400   6.829   8.203 -0.3086 -0.5757 -0.1899
   87SAPS  H10X 8385   5.289   6.816   8.202 -0.2097 -1.5867  0.8123
   87SAPS  H10Y 8386   5.441   6.726   8.202 -0.5514 -0.6763 -0.0068
   87SAPS  C311 8387   5.450   6.887   8.077 -0.2703 -0.3908 -0.0765
   87SAPS  H11X 8388   5.561   6.876   8.070  0.0130  2.3411 -0.9308
   87SAPS  H11Y 8389   5.426   6.995   8.075  2.3234  0.2511 -0.3773
   87SAPS  C312 8390   5.398   6.814   7.954 -0.1913  0.3162 -0.0008
   87SAPS  H12X 8391   5.288   6.799   7.952 -0.1854  0.2638 -1.9866
   87SAPS  H12Y 8392   5.450   6.718   7.931 -0.9998 -0.1584  0.0869
   87SAPS  C313 8393   5.430   6.897   7.830  0.4260  0.4711 -0.7025
   87SAPS  H13X 8394   5.539   6.912   7.821  0.7811 -0.9954  0.7188
   87SAPS  H13Y 8395   5.392   7.001   7.837  2.6882  1.2604  0.9287
   87SAPS  C314 8396   5.401   6.845   7.696 -0.1015  0.7986  0.5307
   87SAPS  H14X 8397   5.443   6.921   7.627  0.8866 -0.4458 -0.2832
   87SAPS  H14Y 8398   5.293   6.829   7.674 -0.6942  0.5831  3.1901
   87SAPS  C315 8399   5.478   6.718   7.654  0.5288  0.3003 -0.1320
   87SAPS  H15X 8400   5.460   6.631   7.721 -0.3303 -0.2877 -1.1023
   87SAPS  H15Y 8401   5.588   6.734   7.661  0.5420  1.1397 -1.7535
   87SAPS  C316 8402   5.446   6.663   7.508  0.6988 -0.3497 -0.5335
   87SAPS  H16X 8403   5.517   6.579   7.497  3.2176  1.3658  1.5402
   87SAPS  H16Y 8404   5.469   6.743   7.434 -3.3620  1.6849  0.1042
   87SAPS  C317 8405   5.297   6.619   7.493 -0.3067 -0.2916  0.1889
   87SAPS  H17X 8406   5.231   6.708   7.488  1.0171  0.7675  0.7612
   87SAPS  H17Y 8407   5.272   6.569   7.590  0.1964 -0.3460  0.2969
   87SAPS  C318 8408   5.267   6.518   7.380  0.0540 -0.1466 -0.4673
   87SAPS  H18X 8409   5.299   6.553   7.280  0.1141  0.0779 -0.3695
   87SAPS  H18Y 8410   5.158   6.499   7.366 -0.0327 -0.0285  0.0351
   87SAPS  H18Z 8411   5.319   6.420   7.392  1.5614  0.7828  0.9514
   88SAPS     N 8412   7.106   2.663   9.984  0.0530  0.2467  0.1525
   88SAPS   HN1 8413   7.115   2.729  10.064 -0.2147 -0.8791  1.1409
   88SAPS   HN2 8414   7.043   2.585  10.010  1.2431 -1.8909 -2.8594
   88SAPS   HN3 8415   7.203   2.631   9.964 -0.0259 -0.7544  1.2328
   88SAPS   C12 8416   7.029   2.747   9.885  0.2329  0.1713  0.9720
   88SAPS  H12A 8417   6.991   2.679   9.810  0.5258  0.2181  0.7763
   88SAPS   C13 8418   6.905   2.829   9.937 -0.3242  1.0287  0.0206
   88SAPS  O13A 8419   6.882   2.833  10.060 -0.0499  0.7220  0.2541
   88SAPS  O13B 8420   6.847   2.902   9.855  0.2362  0.1501  0.5143
   88SAPS   C11 8421   7.119   2.853   9.807 -0.0066 -0.4489 -0.0991
   88SAPS  H11A 8422   7.116   2.946   9.868 -0.9151  0.5039 -1.5296
   88SAPS  H11B 8423   7.076   2.878   9.707 -1.3863 -1.1170  0.2998
   88SAPS     P 8424   7.347   2.908   9.718 -0.1126  0.2055  0.6541
   88SAPS   O13 8425   7.358   3.030   9.801  0.3583 -0.2636 -0.3898
   88SAPS   O14 8426   7.472   2.839   9.682 -0.0162  0.1852 -0.0003
   88SAPS   O12 8427   7.253   2.807   9.792 -0.4331 -0.3411 -0.3751
   88SAPS   O11 8428   7.278   2.944   9.580  0.0040 -0.3330  0.1061
   88SAPS    C1 8429   7.307   3.070   9.515  0.4835 -0.0846 -0.6265
   88SAPS    HA 8430   7.398   3.113   9.561  0.7992 -0.3368 -1.0007
   88SAPS    HB 8431   7.342   3.042   9.413 -0.9531 -0.6678 -0.9888
   88SAPS    C2 8432   7.183   3.162   9.500 -0.4091 -0.2211 -0.2928
   88SAPS    HS 8433   7.146   3.168   9.604  1.5533 -0.6531  0.4802
   88SAPS   O21 8434   7.093   3.108   9.407 -0.3795  0.1590 -0.5511
   88SAPS   C21 8435   6.966   3.107   9.438  0.0405  0.5900  0.4383
   88SAPS   O22 8436   6.908   3.173   9.517  0.0098  0.0940 -0.0232
   88SAPS   C22 8437   6.890   3.024   9.336 -0.8472  0.0523 -0.6645
   88SAPS   H2R 8438   6.950   2.934   9.312 -0.4328 -0.0654  0.7360
   88SAPS   H2S 8439   6.811   2.974   9.396  2.7755 -4.4524  0.8741
   88SAPS    C3 8440   7.225   3.301   9.446  0.5783  0.3162  0.4515
   88SAPS    HX 8441   7.282   3.369   9.513 -1.5241  3.2695 -0.5051
   88SAPS    HY 8442   7.129   3.356   9.437 -0.0402 -0.3999  2.2527
   88SAPS   O31 8443   7.284   3.282   9.319  0.0262 -0.1598  0.2940
   88SAPS   C31 8444   7.244   3.363   9.224  0.1151  0.3305  0.6666
   88SAPS   O32 8445   7.170   3.462   9.235 -0.1786 -0.0048  0.4406
   88SAPS   C32 8446   7.300   3.295   9.099  0.6878  0.1906  0.3338
   88SAPS   H2X 8447   7.318   3.187   9.117  2.7491  0.2145 -1.1646
   88SAPS   H2Y 8448   7.399   3.345   9.097  0.0693  1.5147  1.0812
   88SAPS   C23 8449   6.829   3.095   9.213 -0.5446  1.1549 -0.0996
   88SAPS   H3R 8450   6.776   3.188   9.246 -0.1599  0.5683  2.4129
   88SAPS   H3S 8451   6.763   3.021   9.163 -0.4307  2.2021 -1.9003
   88SAPS   C24 8452   6.922   3.143   9.105 -0.2056  0.1677  0.4642
   88SAPS   H4R 8453   7.003   3.202   9.155  1.0444 -1.3629  0.3260
   88SAPS   H4S 8454   6.865   3.214   9.041 -0.6057  0.3300  0.9927
   88SAPS   C25 8455   6.995   3.033   9.036 -0.4330  0.1362 -0.3395
   88SAPS   H5R 8456   7.080   2.993   9.093 -2.0261  0.3883  2.3486
   88SAPS   C26 8457   6.970   2.971   8.922  0.3862  0.1135 -0.3795
   88SAPS   H6R 8458   7.034   2.890   8.883  0.3710 -0.2652  0.3669
   88SAPS   C27 8459   6.862   3.016   8.824  0.4340 -0.4733  0.2497
   88SAPS   H7R 8460   6.766   3.020   8.880  1.9419  2.8936  2.9795
   88SAPS   H7S 8461   6.844   2.928   8.759 -0.0873  0.4197 -0.8395
   88SAPS   C28 8462   6.883   3.152   8.746  0.5416  0.1958 -0.2593
   88SAPS   H8R 8463   6.877   3.232   8.821 -1.9601  1.9488 -2.1358
   88SAPS   C29 8464   6.891   3.183   8.616  0.5057  0.3977 -0.3061
   88SAPS   H9R 8465   6.893   3.290   8.592  1.6503  1.4507  3.6786
   88SAPS  C210 8466   6.901   3.076   8.508 -0.3661 -0.1141 -0.0102
   88SAPS  H10R 8467   6.912   2.975   8.552 -0.8720  0.4231  1.4092
   88SAPS  H10S 8468   6.999   3.079   8.456 -0.2632 -0.4700  0.1630
   88SAPS  C211 8469   6.785   3.092   8.403  0.6321 -0.0988  0.2592
   88SAPS  H11R 8470   6.711   3.170   8.428 -0.7544 -0.7891 -1.4389
   88SAPS  C212 8471   6.759   3.027   8.292  0.1372  0.2063  0.1820
   88SAPS  H12R 8472   6.663   3.040   8.240 -0.1270  3.5374  1.2889
   88SAPS  C213 8473   6.849   2.919   8.241  0.0555 -0.2152  1.3940
   88SAPS  H13R 8474   6.796   2.875   8.154  2.5405 -1.5702  0.4525
   88SAPS  H13S 8475   6.854   2.847   8.325 -0.2395  0.8941  2.3868
   88SAPS  C214 8476   6.985   2.948   8.198 -0.3991  0.3783  0.3302
   88SAPS  H14R 8477   7.040   3.037   8.233  0.4643 -0.1551  0.3713
   88SAPS  C215 8478   7.056   2.867   8.120 -0.0522  0.1921  1.1963
   88SAPS  H15R 8479   7.158   2.894   8.090 -0.4102  1.6943  1.2061
   88SAPS  C216 8480   7.001   2.736   8.061 -0.7121 -0.4838  0.4639
   88SAPS  H16R 8481   6.908   2.709   8.116 -1.5357  0.0886 -0.6197
   88SAPS  H16S 8482   7.080   2.661   8.085 -1.1433 -0.8846  0.6476
   88SAPS  C217 8483   6.963   2.715   7.912  0.3059  0.0897  0.9606
   88SAPS  H17R 8484   6.945   2.606   7.904 -2.2720  0.5191  0.3089
   88SAPS  H17S 8485   7.047   2.737   7.843 -1.0956 -0.5589 -1.0293
   88SAPS  C218 8486   6.836   2.791   7.886  0.4648 -0.1866  0.1447
   88SAPS  H18R 8487   6.842   2.902   7.885 -0.3412 -0.1396 -0.9132
   88SAPS  H18S 8488   6.771   2.750   7.967  1.4021  0.4239  1.2399
   88SAPS  C219 8489   6.769   2.753   7.753 -0.0751  0.3515  0.0562
   88SAPS  H19R 8490   6.659   2.754   7.771  0.0610  0.7504  0.9070
   88SAPS  H19S 8491   6.788   2.645   7.734  0.4944  0.0007  2.2872
   88SAPS  C220 8492   6.800   2.835   7.630  0.2787 -0.2387 -0.3209
   88SAPS  H20R 8493   6.776   2.941   7.654 -1.4254 -0.4292 -1.0396
   88SAPS  H20S 8494   6.744   2.805   7.540 -1.2513  2.1283 -0.2547
   88SAPS  H20T 8495   6.908   2.828   7.603  0.4255 -1.9785  0.5886
   88SAPS   C33 8496   7.225   3.319   8.967  0.7152 -0.0189 -0.0373
   88SAPS   H3X 8497   7.192   3.424   8.955 -0.3797 -0.1511  1.4635
   88SAPS   H3Y 8498   7.142   3.247   8.949 -1.4738  2.6577 -1.2480
   88SAPS   C34 8499   7.324   3.289   8.855 -0.9235 -0.6301  0.3303
   88SAPS   H4X 8500   7.334   3.178   8.845 -0.1420 -0.6038  0.7456
   88SAPS   H4Y 8501   7.422   3.333   8.884 -1.3020 -0.4887  1.4477
   88SAPS   C35 8502   7.272   3.340   8.718  0.6459  1.0890  0.0438
   88SAPS   H5X 8503   7.326   3.432   8.685 -0.2264  1.5735 -0.0865
   88SAPS   H5Y 8504   7.166   3.374   8.724  0.4987  0.6605 -0.1321
   88SAPS   C36 8505   7.274   3.217   8.620  0.2094  0.0780  0.3335
   88SAPS   H6X 8506   7.197   3.147   8.658 -3.0566  2.2836 -1.6626
   88SAPS   H6Y 8507   7.379   3.180   8.623  1.0171  2.1243 -0.6627
   88SAPS   C37 8508   7.248   3.261   8.481  0.6146  0.0139 -0.1338
   88SAPS   H7X 8509   7.146   3.304   8.475  0.2021 -0.4601  2.5561
   88SAPS   H7Y 8510   7.238   3.167   8.422  1.1321  0.2261 -0.5770
   88SAPS   C38 8511   7.343   3.357   8.407  0.7725  0.0679  0.1407
   88SAPS   H8X 8512   7.449   3.326   8.419  0.3761 -2.0554 -1.3158
   88SAPS   H8Y 8513   7.327   3.459   8.446  3.3080 -0.3778  2.6940
   88SAPS   C39 8514   7.305   3.358   8.261 -0.3955  0.4296 -0.9787
   88SAPS   H9X 8515   7.326   3.460   8.222  0.7080  1.5166  2.1790
   88SAPS   H9Y 8516   7.199   3.333   8.241 -0.0711 -2.9320  0.8331
   88SAPS  C310 8517   7.395   3.275   8.174  0.1479  1.0776 -0.3020
   88SAPS  H10X 8518   7.376   3.167   8.190 -1.5206  1.0784 -1.9191
   88SAPS  H10Y 8519   7.504   3.285   8.193  0.1215 -0.6230  0.9632
   88SAPS  C311 8520   7.365   3.297   8.027  0.2178 -0.4449 -0.3579
   88SAPS  H11X 8521   7.389   3.404   8.011  3.6161 -0.6376  2.2243
   88SAPS  H11Y 8522   7.254   3.296   8.023  0.2207  1.3273 -3.4823
   88SAPS  C312 8523   7.425   3.199   7.930  0.1836  0.0034  0.1177
   88SAPS  H12X 8524   7.402   3.097   7.966  0.2074 -0.2401 -0.5479
   88SAPS  H12Y 8525   7.535   3.216   7.929  0.5396 -1.8840  1.7667
   88SAPS  C313 8526   7.370   3.218   7.790 -0.0308 -0.4168 -0.2145
   88SAPS  H13X 8527   7.264   3.184   7.778 -0.4892  0.0907  2.0384
   88SAPS  H13Y 8528   7.436   3.164   7.719  0.8079 -1.3713  1.2413
   88SAPS  C314 8529   7.373   3.368   7.746  0.0546 -0.0366 -0.2226
   88SAPS  H14X 8530   7.470   3.415   7.771  0.1273  0.5370 -1.5203
   88SAPS  H14Y 8531   7.297   3.421   7.808 -0.1741 -1.3445  0.6461
   88SAPS  C315 8532   7.339   3.393   7.596 -0.3207 -0.1313 -0.3433
   88SAPS  H15X 8533   7.376   3.307   7.536  2.0180  1.0888 -0.7712
   88SAPS  H15Y 8534   7.404   3.478   7.566  0.5325 -0.4286  0.6151
   88SAPS  C316 8535   7.199   3.419   7.556  0.4484 -0.6192 -0.9564
   88SAPS  H16X 8536   7.133   3.337   7.591 -1.2396  0.6035 -1.1399
   88SAPS  H16Y 8537   7.189   3.399   7.447  1.4318 -0.5513 -1.0696
   88SAPS  C317 8538   7.144   3.556   7.602  0.3315 -0.3138  0.7983
   88SAPS  H17X 8539   7.110   3.546   7.707 -0.7988 -2.4351  0.3057
   88SAPS  H17Y 8540   7.052   3.555   7.539 -0.4304  2.8766  1.6917
   88SAPS  C318 8541   7.224   3.683   7.583 -0.1424  0.2558 -0.2605
   88SAPS  H18X 8542   7.263   3.699   7.480  0.1992 -1.2437 -0.3936
   88SAPS  H18Y 8543   7.306   3.677   7.657 -0.6716 -1.6696  0.2389
   88SAPS  H18Z 8544   7.163   3.767   7.623 -0.6205  0.0494 -0.5490
   89SAPS     N 8545   5.383   0.798  10.106  0.3624 -0.0327 -0.4344
   89SAPS   HN1 8546   5.449   0.845  10.040  2.1828 -1.4835  0.2541
   89SAPS   HN2 8547   5.296   0.770  10.058  0.1187  0.8785 -0.5476
   89SAPS   HN3 8548   5.353   0.865  10.179  0.3220 -0.8792  0.3322
   89SAPS   C12 8549   5.451   0.674  10.163  0.1745  0.1409  0.7272
   89SAPS  H12A 8550   5.535   0.704  10.224  0.3636  0.0802  0.4920
   89SAPS   C13 8551   5.352   0.603  10.254 -0.1349 -0.6236 -1.0428
   89SAPS  O13A 8552   5.239   0.652  10.280 -0.0587 -0.1709 -0.2914
   89SAPS  O13B 8553   5.382   0.492  10.305  0.5778  0.0032 -0.4465
   89SAPS   C11 8554   5.500   0.580  10.055 -0.1730 -0.8461 -0.8655
   89SAPS  H11A 8555   5.407   0.551  10.002 -0.4619  1.0312 -1.4729
   89SAPS  H11B 8556   5.546   0.496  10.111 -1.7975 -1.2938 -0.1536
   89SAPS     P 8557   5.752   0.643   9.997  0.1841  0.3263  0.0562
   89SAPS   O13 8558   5.786   0.786   9.975 -0.2767  0.4500 -0.2317
   89SAPS   O14 8559   5.797   0.585  10.128 -0.4252 -0.2416  0.2118
   89SAPS   O12 8560   5.597   0.635   9.968  0.1801 -0.3135  0.4701
   89SAPS   O11 8561   5.812   0.551   9.881 -0.6681  0.4549 -0.2132
   89SAPS    C1 8562   5.758   0.425   9.854  0.5318 -0.0621  0.0041
   89SAPS    HA 8563   5.826   0.343   9.884 -0.8613 -1.4770 -0.5605
   89SAPS    HB 8564   5.655   0.408   9.893  0.8781  0.9675  1.4558
   89SAPS    C2 8565   5.747   0.399   9.706  0.1575  0.5093 -0.1976
   89SAPS    HS 8566   5.725   0.291   9.692 -1.2675  0.7267  0.1482
   89SAPS   O21 8567   5.863   0.440   9.634  0.3380  0.1284  0.8582
   89SAPS   C21 8568   5.982   0.379   9.659 -0.6108 -0.1877  0.0319
   89SAPS   O22 8569   5.998   0.301   9.752 -0.2138 -0.3792 -0.3943
   89SAPS   C22 8570   6.085   0.416   9.562 -0.0005  0.4343  0.7719
   89SAPS   H2R 8571   6.039   0.467   9.475  2.7921  2.4643  0.3542
   89SAPS   H2S 8572   6.145   0.500   9.604 -1.0021  1.8464 -0.4994
   89SAPS    C3 8573   5.626   0.481   9.651  0.2811 -0.2311  0.4406
   89SAPS    HX 8574   5.652   0.589   9.657  1.2414 -0.3543 -1.1096
   89SAPS    HY 8575   5.534   0.459   9.710 -1.3322  1.6649 -1.2576
   89SAPS   O31 8576   5.598   0.447   9.520 -0.2610  1.1462 -0.0359
   89SAPS   C31 8577   5.521   0.337   9.496  0.2551  0.1037  0.2642
   89SAPS   O32 8578   5.478   0.266   9.583  0.3113  0.1781 -0.4037
   89SAPS   C32 8579   5.511   0.320   9.339 -0.1489  0.8942  0.0927
   89SAPS   H2X 8580   5.613   0.291   9.306 -0.5640  2.3737 -2.8504
   89SAPS   H2Y 8581   5.484   0.416   9.290  0.2474  1.0920  0.2597
   89SAPS   C23 8582   6.164   0.298   9.508 -0.2160  0.3552  0.3082
   89SAPS   H3R 8583   6.093   0.228   9.460  0.2589  0.8239 -1.1105
   89SAPS   H3S 8584   6.219   0.255   9.595  0.4478  1.8161  0.6504
   89SAPS   C24 8585   6.268   0.331   9.394 -0.4231 -1.5099  0.2488
   89SAPS   H4R 8586   6.215   0.362   9.301  0.7051 -1.5610 -0.4239
   89SAPS   H4S 8587   6.327   0.240   9.370  3.6317  0.0065  3.4008
   89SAPS   C25 8588   6.359   0.439   9.437 -0.4537 -0.3237  0.2875
   89SAPS   H5R 8589   6.427   0.416   9.521 -0.2352  1.5028  0.6522
   89SAPS   C26 8590   6.371   0.560   9.390 -0.1794 -0.2069  0.3238
   89SAPS   H6R 8591   6.458   0.614   9.428  1.0275 -2.3728  0.8086
   89SAPS   C27 8592   6.295   0.622   9.274 -0.0141 -0.4139 -0.4104
   89SAPS   H7R 8593   6.198   0.653   9.317  1.0798  2.5512  0.1844
   89SAPS   H7S 8594   6.260   0.549   9.198 -1.7464  0.0100 -0.0524
   89SAPS   C28 8595   6.361   0.746   9.219 -0.0174 -0.0232 -0.1863
   89SAPS   H8R 8596   6.431   0.797   9.286  0.9903 -0.3373 -0.9814
   89SAPS   C29 8597   6.353   0.779   9.089  0.6288  0.2861 -0.0678
   89SAPS   H9R 8598   6.426   0.859   9.066  0.1855  0.6431 -0.2408
   89SAPS  C210 8599   6.308   0.697   8.973 -0.0965  0.8473 -0.0628
   89SAPS  H10R 8600   6.218   0.635   8.991  1.4682 -0.9506  2.1268
   89SAPS  H10S 8601   6.389   0.622   8.961 -0.0241  0.4161  2.5199
   89SAPS  C211 8602   6.304   0.786   8.853 -0.8356 -0.9180  0.3812
   89SAPS  H11R 8603   6.266   0.887   8.876  0.5427 -0.4031  0.5323
   89SAPS  C212 8604   6.318   0.748   8.727  0.7975  0.8442 -0.0182
   89SAPS  H12R 8605   6.322   0.829   8.653  1.1440  0.9679  0.1327
   89SAPS  C213 8606   6.343   0.611   8.669  0.2685 -0.4293 -1.0450
   89SAPS  H13R 8607   6.404   0.549   8.738 -0.2132 -1.3535 -1.4437
   89SAPS  H13S 8608   6.402   0.617   8.576  1.9836  0.2858  0.0499
   89SAPS  C214 8609   6.209   0.547   8.649 -0.1707  0.3577 -0.4336
   89SAPS  H14R 8610   6.165   0.515   8.745  0.5520 -0.8273 -0.4737
   89SAPS  C215 8611   6.157   0.513   8.526 -0.0997 -0.1130  0.1744
   89SAPS  H15R 8612   6.059   0.463   8.539  0.4867 -0.8820  1.9910
   89SAPS  C216 8613   6.207   0.538   8.385  0.5348  0.0104 -0.3089
   89SAPS  H16R 8614   6.217   0.448   8.320 -0.3122 -0.7203  0.5647
   89SAPS  H16S 8615   6.304   0.592   8.389  0.3973  0.2543 -0.2755
   89SAPS  C217 8616   6.106   0.620   8.312  0.5801  0.0031  0.1427
   89SAPS  H17R 8617   6.145   0.665   8.218 -1.0709  0.2112 -0.4673
   89SAPS  H17S 8618   6.085   0.703   8.383  1.0445 -0.5617  0.9591
   89SAPS  C218 8619   5.973   0.546   8.280  0.7992 -0.1225  0.2460
   89SAPS  H18R 8620   5.920   0.534   8.376 -0.9555  1.9099 -0.3787
   89SAPS  H18S 8621   5.997   0.444   8.241  0.0026 -1.6039  3.3469
   89SAPS  C219 8622   5.883   0.627   8.180  0.8791 -0.7504 -0.4291
   89SAPS  H19R 8623   5.946   0.638   8.089  2.7827  0.2938  0.9355
   89SAPS  H19S 8624   5.859   0.730   8.215  0.0103 -1.3533  0.8242
   89SAPS  C220 8625   5.748   0.549   8.169 -0.4555 -0.3517  0.2829
   89SAPS  H20R 8626   5.667   0.601   8.113 -0.8683  0.2636  1.4300
   89SAPS  H20S 8627   5.718   0.516   8.270  0.2349 -1.8916  0.0115
   89SAPS  H20T 8628   5.758   0.460   8.103  1.9264  0.3378 -0.4101
   89SAPS   C33 8629   5.416   0.203   9.292 -0.8186 -0.5702  0.6766
   89SAPS   H3X 8630   5.311   0.235   9.308 -0.4041  1.1335  0.2905
   89SAPS   H3Y 8631   5.433   0.115   9.357 -1.7631 -1.7254 -0.6026
   89SAPS   C34 8632   5.426   0.174   9.142  0.4183  0.7477 -0.4368
   89SAPS   H4X 8633   5.410   0.270   9.087 -1.6453  1.0149  0.5183
   89SAPS   H4Y 8634   5.345   0.103   9.116  1.5712 -0.6080 -0.4150
   89SAPS   C35 8635   5.561   0.106   9.105 -0.3955 -0.3002 -0.2747
   89SAPS   H5X 8636   5.582   0.020   9.173 -0.1668  0.9521  1.3166
   89SAPS   H5Y 8637   5.647   0.175   9.121  0.9313 -2.2809  1.6963
   89SAPS   C36 8638   5.559   0.064   8.954  0.0960 -0.2485 -0.6734
   89SAPS   H6X 8639   5.496   0.123   8.884  0.2803  2.1527  1.0658
   89SAPS   H6Y 8640   5.522  -0.041   8.959 -3.5206  0.9221 -0.4305
   89SAPS   C37 8641   5.701   0.064   8.892 -0.4297 -0.3968  0.0472
   89SAPS   H7X 8642   5.765   0.013   8.967  0.7667 -2.6730 -2.3362
   89SAPS   H7Y 8643   5.740   0.167   8.881 -1.6509  0.2064  1.0959
   89SAPS   C38 8644   5.705  -0.014   8.755  0.1551  0.5722  0.9817
   89SAPS   H8X 8645   5.603  -0.034   8.716 -0.4583  4.9925 -0.1382
   89SAPS   H8Y 8646   5.741  -0.116   8.782 -0.6956  0.7706  3.0471
   89SAPS   C39 8647   5.798   0.049   8.653 -0.5426  0.1208 -0.1563
   89SAPS   H9X 8648   5.902   0.036   8.688 -0.2773  0.8392 -0.6610
   89SAPS   H9Y 8649   5.799   0.160   8.654 -0.4329  0.1183 -0.0553
   89SAPS  C310 8650   5.783  -0.001   8.514  0.0487  0.6908  0.1329
   89SAPS  H10X 8651   5.681   0.017   8.474 -0.7567 -2.6541  0.3259
   89SAPS  H10Y 8652   5.777  -0.110   8.536  0.4454  0.6675  0.1302
   89SAPS  C311 8653   5.892   0.039   8.411  0.2203 -0.2696  0.5025
   89SAPS  H11X 8654   5.989   0.005   8.452 -0.2706 -0.1709  1.7974
   89SAPS  H11Y 8655   5.881   0.148   8.391 -1.8540 -0.4094  0.6031
   89SAPS  C312 8656   5.864  -0.025   8.274 -0.3144  0.6673  0.0022
   89SAPS  H12X 8657   5.921   0.029   8.195  3.1087 -0.3878  1.5414
   89SAPS  H12Y 8658   5.756  -0.010   8.252 -0.4757 -0.6830 -0.2387
   89SAPS  C313 8659   5.928  -0.166   8.260  0.4963  0.5778  0.0172
   89SAPS  H13X 8660   5.903  -0.226   8.350  1.2689 -1.2495 -0.9359
   89SAPS  H13Y 8661   6.038  -0.150   8.255  0.3758  1.0642 -1.7692
   89SAPS  C314 8662   5.877  -0.263   8.146  0.1740 -0.6143  0.3157
   89SAPS  H14X 8663   5.778  -0.292   8.188 -0.0804  1.5990  1.4361
   89SAPS  H14Y 8664   5.936  -0.356   8.135 -0.1144 -0.8103  0.4268
   89SAPS  C315 8665   5.863  -0.192   8.016  0.3781  0.3055  0.6842
   89SAPS  H15X 8666   5.958  -0.141   7.989  0.9819 -0.8666  0.5280
   89SAPS  H15Y 8667   5.778  -0.120   8.024  0.1030 -0.0054  0.5943
   89SAPS  C316 8668   5.820  -0.293   7.907 -0.1255  0.0555 -0.5360
   89SAPS  H16X 8669   5.800  -0.226   7.821 -1.8090 -1.3524 -1.2993
   89SAPS  H16Y 8670   5.719  -0.333   7.933 -0.0242 -0.3552 -0.7681
   89SAPS  C317 8671   5.908  -0.413   7.862 -0.2181  0.0517 -0.1592
   89SAPS  H17X 8672   5.866  -0.459   7.770 -0.6930  0.2676 -0.0523
   89SAPS  H17Y 8673   5.919  -0.486   7.945 -0.3598 -0.5475 -0.6642
   89SAPS  C318 8674   6.048  -0.361   7.829  0.0493 -0.0982  0.2873
   89SAPS  H18X 8675   6.030  -0.271   7.766 -2.0382 -0.1179  0.7990
   89SAPS  H18Y 8676   6.113  -0.434   7.775  2.0413  2.0210 -0.3822
   89SAPS  H18Z 8677   6.107  -0.335   7.919  1.3525 -0.8603 -0.3188
   90SAPS     N 8678   0.529   0.357   9.814  0.3096  0.3573  0.5672
   90SAPS   HN1 8679   0.529   0.447   9.866 -0.4542 -0.4409  2.0074
   90SAPS   HN2 8680   0.569   0.280   9.872  1.0017  0.5066  0.3043
   90SAPS   HN3 8681   0.582   0.375   9.726 -1.1249  1.6360 -0.0832
   90SAPS   C12 8682   0.388   0.329   9.778 -0.1198 -0.1012  0.5206
   90SAPS  H12A 8683   0.383   0.231   9.734  1.6253  0.5019 -1.1441
   90SAPS   C13 8684   0.297   0.323   9.906 -1.1106 -0.0928  1.2814
   90SAPS  O13A 8685   0.340   0.341  10.027 -0.1148 -0.3672 -0.1346
   90SAPS  O13B 8686   0.181   0.279   9.884  0.7357  0.8651  0.0364
   90SAPS   C11 8687   0.352   0.442   9.679 -0.3609  0.6943  0.5196
   90SAPS  H11A 8688   0.257   0.410   9.632 -0.1370  1.0468 -0.1862
   90SAPS  H11B 8689   0.422   0.439   9.593 -0.1613 -0.0249  0.6991
   90SAPS     P 8690   0.255   0.679   9.699  0.0148 -0.2377  0.2887
   90SAPS   O13 8691   0.124   0.626   9.656  0.4124  0.1230 -0.2911
   90SAPS   O14 8692   0.258   0.776   9.811 -0.0311  0.2315 -0.3356
   90SAPS   O12 8693   0.350   0.573   9.742 -0.3064  0.5296 -0.4895
   90SAPS   O11 8694   0.318   0.751   9.567 -0.3951 -0.3978  0.5677
   90SAPS    C1 8695   0.378   0.672   9.467 -0.0259 -0.6645 -0.3023
   90SAPS    HA 8696   0.479   0.632   9.489  0.6009  1.1095  0.2516
   90SAPS    HB 8697   0.307   0.591   9.444 -0.1054 -1.2048  1.6633
   90SAPS    C2 8698   0.400   0.754   9.337  0.2661  0.8643  0.2137
   90SAPS    HS 8699   0.499   0.804   9.353  1.4633 -1.7984  1.8122
   90SAPS   O21 8700   0.292   0.841   9.313  0.4780  0.8086  0.2384
   90SAPS   C21 8701   0.303   0.965   9.362  0.3483 -0.3850  0.1534
   90SAPS   O22 8702   0.409   1.021   9.385 -0.2906  0.3170 -0.2311
   90SAPS   C22 8703   0.166   1.034   9.365 -0.3924  0.8097 -0.1814
   90SAPS   H2R 8704   0.092   0.952   9.370  1.5097 -1.2939 -3.0919
   90SAPS   H2S 8705   0.174   1.092   9.460 -0.1889  0.5953 -0.0665
   90SAPS    C3 8706   0.420   0.664   9.218 -0.5707 -0.2951 -0.4849
   90SAPS    HX 8707   0.510   0.608   9.249 -0.4654  1.1064  2.0141
   90SAPS    HY 8708   0.458   0.727   9.135 -1.1039 -2.0745 -2.1404
   90SAPS   O31 8709   0.306   0.592   9.166 -0.3204 -0.3599  0.1516
   90SAPS   C31 8710   0.314   0.460   9.167 -0.3133  0.5403  0.3595
   90SAPS   O32 8711   0.393   0.394   9.235  0.6359  0.1847 -0.1765
   90SAPS   C32 8712   0.215   0.404   9.071 -0.0562  0.6580  0.2068
   90SAPS   H2X 8713   0.213   0.470   8.981  2.0615  1.0302  0.3914
   90SAPS   H2Y 8714   0.122   0.406   9.132 -1.1463  1.0281 -1.3798
   90SAPS   C23 8715   0.155   1.121   9.247 -1.0079  0.2535  0.3297
   90SAPS   H3R 8716   0.155   1.054   9.158 -2.8006 -1.3600  1.4760
   90SAPS   H3S 8717   0.243   1.188   9.232 -0.5927 -0.2618  0.4416
   90SAPS   C24 8718   0.025   1.205   9.258 -0.1887  0.1535 -0.7865
   90SAPS   H4R 8719   0.007   1.281   9.179  0.5594 -0.2924 -1.4017
   90SAPS   H4S 8720   0.023   1.245   9.361 -1.4742 -1.2433 -0.2246
   90SAPS   C25 8721  -0.091   1.108   9.251 -0.0690  0.2070  0.2369
   90SAPS   H5R 8722  -0.127   1.066   9.345  1.4398  0.2392  0.8561
   90SAPS   C26 8723  -0.147   1.057   9.139  0.5462 -0.3013  0.4455
   90SAPS   H6R 8724  -0.244   1.006   9.150  1.1847 -1.3001  1.6758
   90SAPS   C27 8725  -0.115   1.099   8.997  0.8972  0.2735 -0.4027
   90SAPS   H7R 8726  -0.034   1.030   8.965  0.2990 -1.1995  1.1201
   90SAPS   H7S 8727  -0.074   1.202   8.996 -2.5364  1.8271  1.3763
   90SAPS   C28 8728  -0.231   1.114   8.902  0.2289  0.6992 -0.4238
   90SAPS   H8R 8729  -0.333   1.113   8.942  0.3541 -0.4413 -0.1136
   90SAPS   C29 8730  -0.221   1.115   8.767 -0.1785  0.5892 -0.0479
   90SAPS   H9R 8731  -0.314   1.106   8.709  0.8369 -0.9817 -1.5445
   90SAPS  C210 8732  -0.094   1.119   8.682 -0.4429 -0.3503 -0.2482
   90SAPS  H10R 8733  -0.055   1.015   8.674  2.6412  0.7998 -2.0359
   90SAPS  H10S 8734  -0.013   1.169   8.738 -0.5521 -0.0169 -0.3841
   90SAPS  C211 8735  -0.089   1.183   8.548  0.5832  0.0752  0.6841
   90SAPS  H11R 8736  -0.150   1.274   8.548  0.4007 -0.0106  2.6243
   90SAPS  C212 8737  -0.048   1.129   8.431  0.0183 -0.2964  0.0548
   90SAPS  H12R 8738  -0.048   1.200   8.347  3.2624 -0.5928 -0.3158
   90SAPS  C213 8739   0.021   0.994   8.421  0.2907 -0.3125  0.9865
   90SAPS  H13R 8740  -0.057   0.916   8.404  0.5814 -0.4713  0.3612
   90SAPS  H13S 8741   0.074   0.970   8.516  0.3927  1.1610  1.3144
   90SAPS  C214 8742   0.125   0.979   8.316  0.4770  0.0616  0.1674
   90SAPS  H14R 8743   0.200   1.059   8.319 -0.1176  0.5923  1.3046
   90SAPS  C215 8744   0.137   0.876   8.229  0.6207 -0.3095 -0.3502
   90SAPS  H15R 8745   0.236   0.864   8.181  1.2308 -3.2814  1.4099
   90SAPS  C216 8746   0.045   0.763   8.207  0.0822 -0.1906  0.2137
   90SAPS  H16R 8747  -0.026   0.739   8.290  3.5909 -4.1669  2.4651
   90SAPS  H16S 8748   0.104   0.669   8.215 -0.2524 -0.3700  0.6688
   90SAPS  C217 8749  -0.034   0.806   8.082 -0.1449  0.3389  0.2528
   90SAPS  H17R 8750   0.032   0.835   7.997 -0.1452  1.7047  0.7023
   90SAPS  H17S 8751  -0.105   0.890   8.095 -0.6832  0.0623 -0.7677
   90SAPS  C218 8752  -0.120   0.690   8.026 -0.0613 -0.6097 -0.1877
   90SAPS  H18R 8753  -0.183   0.658   8.112  2.4507  0.2318  2.1029
   90SAPS  H18S 8754  -0.052   0.604   8.014 -0.8447 -1.6158  1.9789
   90SAPS  C219 8755  -0.192   0.724   7.895  0.7400  0.8747 -0.4146
   90SAPS  H19R 8756  -0.115   0.721   7.816  2.5178 -2.0844  1.2469
   90SAPS  H19S 8757  -0.248   0.820   7.897  1.3586  1.3951  4.6784
   90SAPS  C220 8758  -0.294   0.616   7.855 -0.2956  0.4009 -0.0114
   90SAPS  H20R 8759  -0.334   0.623   7.752 -1.3783 -0.3923  0.3209
   90SAPS  H20S 8760  -0.374   0.623   7.933 -0.0193  2.0863  0.1457
   90SAPS  H20T 8761  -0.250   0.514   7.852  0.2898  0.6765 -2.2953
   90SAPS   C33 8762   0.243   0.258   9.017  0.6494  0.3591 -0.0289
   90SAPS   H3X 8763   0.327   0.226   9.082 -0.2554 -1.4028  0.3254
   90SAPS   H3Y 8764   0.297   0.255   8.920 -1.1756 -1.7726 -1.0676
   90SAPS   C34 8765   0.126   0.164   9.024 -0.4326  0.1621  0.3601
   90SAPS   H4X 8766   0.071   0.172   9.121  1.8910 -1.4275  1.9037
   90SAPS   H4Y 8767   0.165   0.061   9.009  2.3414  1.3216 -0.9437
   90SAPS   C35 8768   0.028   0.192   8.912 -0.1233  0.1604  0.0382
   90SAPS   H5X 8769   0.049   0.130   8.822  1.4061 -0.3998  0.7626
   90SAPS   H5Y 8770   0.043   0.297   8.880  0.5892  0.7664  2.1790
   90SAPS   C36 8771  -0.122   0.158   8.936 -1.0063 -0.1856 -0.3261
   90SAPS   H6X 8772  -0.122   0.060   8.989 -1.4843  0.7949  1.5520
   90SAPS   H6Y 8773  -0.186   0.160   8.846 -1.9213 -2.3896  0.1937
   90SAPS   C37 8774  -0.176   0.255   9.044  0.0878  0.0228  0.2630
   90SAPS   H7X 8775  -0.181   0.358   9.001  0.0752  0.1058  0.4641
   90SAPS   H7Y 8776  -0.116   0.246   9.137 -0.2693 -0.0314  0.4900
   90SAPS   C38 8777  -0.319   0.213   9.083  0.5614 -0.0419 -0.7331
   90SAPS   H8X 8778  -0.318   0.105   9.106  0.3619 -0.1331 -1.1577
   90SAPS   H8Y 8779  -0.383   0.230   8.994 -1.2266 -1.0779  0.2897
   90SAPS   C39 8780  -0.390   0.291   9.200  0.4822 -0.4399 -0.0429
   90SAPS   H9X 8781  -0.345   0.391   9.183  1.7571 -1.1960 -1.3363
   90SAPS   H9Y 8782  -0.338   0.249   9.289  0.9914  1.7091  0.7311
   90SAPS  C310 8783  -0.545   0.289   9.193  0.0589 -0.4989  0.1531
   90SAPS  H10X 8784  -0.575   0.353   9.279  0.5431 -1.0795  0.7695
   90SAPS  H10Y 8785  -0.571   0.181   9.200  0.0222 -0.4058  2.1389
   90SAPS  C311 8786  -0.614   0.352   9.073 -0.4266  0.1440 -0.2345
   90SAPS  H11X 8787  -0.552   0.323   8.985  1.1546  1.4325  0.3979
   90SAPS  H11Y 8788  -0.628   0.460   9.093 -0.8058  0.1283 -0.4054
   90SAPS  C312 8789  -0.756   0.292   9.042  0.4328 -0.0158 -0.0331
   90SAPS  H12X 8790  -0.830   0.321   9.120  0.4801  1.0814 -0.3793
   90SAPS  H12Y 8791  -0.762   0.181   9.041 -0.1957  0.0177 -1.1212
   90SAPS  C313 8792  -0.819   0.324   8.908  0.4839  0.5539  0.4235
   90SAPS  H13X 8793  -0.752   0.294   8.825  0.4752  2.3269 -0.2654
   90SAPS  H13Y 8794  -0.829   0.434   8.895 -0.5077  0.1823 -3.1521
   90SAPS  C314 8795  -0.950   0.241   8.891 -0.0459 -0.2237  0.1104
   90SAPS  H14X 8796  -0.922   0.135   8.909 -1.0845 -0.2228  1.9945
   90SAPS  H14Y 8797  -0.976   0.247   8.783 -1.4188  0.9597  0.4754
   90SAPS  C315 8798  -1.078   0.267   8.978  0.2782 -0.6644 -0.0733
   90SAPS  H15X 8799  -1.059   0.266   9.087 -3.3008  3.2428  0.8422
   90SAPS  H15Y 8800  -1.151   0.185   8.960 -3.7150  2.4490  0.3899
   90SAPS  C316 8801  -1.141   0.403   8.952  0.1493 -0.5747 -0.1759
   90SAPS  H16X 8802  -1.154   0.430   8.845  1.3386 -0.3136 -0.2669
   90SAPS  H16Y 8803  -1.075   0.483   8.992 -2.3574  1.2112  0.6125
   90SAPS  C317 8804  -1.266   0.437   9.037 -0.6155 -0.1605 -0.2359
   90SAPS  H17X 8805  -1.351   0.372   9.006 -1.3691  0.9289 -0.5324
   90SAPS  H17Y 8806  -1.308   0.536   9.009 -0.1082  0.8409  2.2930
   90SAPS  C318 8807  -1.242   0.423   9.191 -0.3659  0.4015  0.6663
   90SAPS  H18X 8808  -1.221   0.318   9.220 -2.1915  0.1189  1.0976
   90SAPS  H18Y 8809  -1.336   0.449   9.244  0.3425 -0.1416  2.2462
   90SAPS  H18Z 8810  -1.165   0.492   9.230  0.0323 -0.1581  0.8703
   91SAPS     N 8811   3.401   3.227   5.424  0.0616  0.1899  0.1214
   91SAPS   HN1 8812   3.504   3.227   5.415  0.4646 -2.7541  2.9844
   91SAPS   HN2 8813   3.381   3.150   5.492  1.1339 -1.8783 -1.7706
   91SAPS   HN3 8814   3.357   3.204   5.333 -2.1260  1.7871  0.6987
   91SAPS   C12 8815   3.327   3.346   5.482 -0.7353 -0.0899  0.1066
   91SAPS  H12A 8816   3.335   3.421   5.404 -3.2948 -0.0205 -0.1710
   91SAPS   C13 8817   3.169   3.326   5.495 -0.1097 -0.5685 -0.1014
   91SAPS  O13A 8818   3.124   3.206   5.498 -0.2030 -0.5798  0.2069
   91SAPS  O13B 8819   3.097   3.417   5.535  0.1997 -0.0233 -0.1781
   91SAPS   C11 8820   3.385   3.395   5.615  0.1059 -0.3354 -0.4587
   91SAPS  H11A 8821   3.387   3.318   5.695 -3.9535 -0.6122 -0.4354
   91SAPS  H11B 8822   3.329   3.482   5.654 -1.7388 -1.5123 -0.3960
   91SAPS     P 8823   3.618   3.495   5.697  0.0894  0.2259 -0.5682
   91SAPS   O13 8824   3.696   3.380   5.754 -0.3397 -0.7879  0.1133
   91SAPS   O14 8825   3.693   3.610   5.640 -0.2582 -0.7290  0.5814
   91SAPS   O12 8826   3.517   3.444   5.589  0.3803  0.4365 -0.2948
   91SAPS   O11 8827   3.516   3.557   5.798 -0.9348 -0.0887  0.0135
   91SAPS    C1 8828   3.540   3.563   5.938  0.2621  0.4565 -0.3260
   91SAPS    HA 8829   3.640   3.521   5.963  0.3197  0.8606  0.1291
   91SAPS    HB 8830   3.541   3.666   5.978 -0.4782 -0.4029  2.0543
   91SAPS    C2 8831   3.431   3.486   6.023  0.1807  0.0540  0.3555
   91SAPS    HS 8832   3.345   3.468   5.955  0.4437 -1.0407  0.3006
   91SAPS   O21 8833   3.409   3.576   6.133 -0.2934 -0.0581 -0.9147
   91SAPS   C21 8834   3.307   3.548   6.216  0.4057 -0.1641 -0.0712
   91SAPS   O22 8835   3.225   3.458   6.204 -0.4226  0.2676  0.4825
   91SAPS   C22 8836   3.287   3.666   6.320  0.1881 -0.6310  0.2580
   91SAPS   H2R 8837   3.314   3.629   6.421  1.4216 -0.4155  0.0234
   91SAPS   H2S 8838   3.353   3.751   6.291 -0.9075  0.8741  1.9501
   91SAPS    C3 8839   3.472   3.340   6.067 -0.0143 -0.1773 -0.0208
   91SAPS    HX 8840   3.493   3.286   5.972  0.3579  2.5594 -1.6029
   91SAPS    HY 8841   3.393   3.302   6.135  1.3311  1.5063  2.6642
   91SAPS   O31 8842   3.588   3.351   6.145 -0.5225  0.3320  0.2209
   91SAPS   C31 8843   3.644   3.231   6.178  0.7350 -0.4902 -0.0305
   91SAPS   O32 8844   3.588   3.124   6.150 -0.0626  0.2198 -0.0741
   91SAPS   C32 8845   3.771   3.240   6.258  0.4483 -0.0293  0.4415
   91SAPS   H2X 8846   3.788   3.343   6.296  0.3768 -0.2704  1.1477
   91SAPS   H2Y 8847   3.851   3.213   6.186  0.8118 -0.1738  0.8945
   91SAPS   C23 8848   3.140   3.724   6.311 -0.6972 -0.1040  0.2517
   91SAPS   H3R 8849   3.082   3.645   6.364  0.9056  0.1942  2.6147
   91SAPS   H3S 8850   3.102   3.740   6.208  0.7482  0.2454 -0.2513
   91SAPS   C24 8851   3.135   3.852   6.386  0.2699  0.7234 -0.0862
   91SAPS   H4R 8852   3.033   3.894   6.369 -1.4967 -3.4935 -1.3886
   91SAPS   H4S 8853   3.205   3.927   6.344  0.2213  0.2073 -1.1334
   91SAPS   C25 8854   3.163   3.818   6.530  0.8693 -0.2111 -0.1340
   91SAPS   H5R 8855   3.132   3.721   6.573  0.1807  0.0777  0.0340
   91SAPS   C26 8856   3.243   3.887   6.609  1.0317  0.2476  0.1779
   91SAPS   H6R 8857   3.267   3.839   6.705  1.9401 -2.2576 -1.2106
   91SAPS   C27 8858   3.314   4.014   6.574  0.5867 -0.5760  0.5909
   91SAPS   H7R 8859   3.319   4.074   6.668  3.3570  0.2548  0.0075
   91SAPS   H7S 8860   3.257   4.079   6.505  0.6556  0.0650  1.1298
   91SAPS   C28 8861   3.452   4.006   6.509  0.3721  0.2213 -0.0665
   91SAPS   H8R 8862   3.458   3.982   6.402 -1.8287 -3.5842  0.4821
   91SAPS   C29 8863   3.566   4.010   6.582 -0.5137  0.4350 -0.5149
   91SAPS   H9R 8864   3.664   4.013   6.533 -0.5430  1.5744 -0.5282
   91SAPS  C210 8865   3.569   4.034   6.730 -0.0806  0.0605 -0.3742
   91SAPS  H10R 8866   3.468   4.027   6.776  0.3490  0.0122  0.5941
   91SAPS  H10S 8867   3.606   4.137   6.748  0.5712  0.0203 -1.4137
   91SAPS  C211 8868   3.655   3.936   6.808  0.3959  0.2492 -0.0398
   91SAPS  H11R 8869   3.677   3.838   6.763  0.6529  0.3304 -0.0932
   91SAPS  C212 8870   3.673   3.936   6.941  0.1112 -0.0540  0.7132
   91SAPS  H12R 8871   3.723   3.854   6.994  1.8067  1.2455  1.1987
   91SAPS  C213 8872   3.626   4.045   7.032 -0.5533  0.7752  0.2349
   91SAPS  H13R 8873   3.558   4.119   6.986 -2.6924  0.0090  1.9979
   91SAPS  H13S 8874   3.720   4.103   7.046 -0.7138  1.7744 -2.3480
   91SAPS  C214 8875   3.586   3.999   7.169  0.4303  0.5009  0.3813
   91SAPS  H14R 8876   3.487   3.951   7.181 -0.4992  2.8804  3.4819
   91SAPS  C215 8877   3.651   4.016   7.282  0.8629 -0.9063 -0.0179
   91SAPS  H15R 8878   3.609   3.960   7.367  2.0054 -1.3246  0.2941
   91SAPS  C216 8879   3.773   4.100   7.303 -0.0409 -0.2985  0.8273
   91SAPS  H16R 8880   3.779   4.187   7.235 -1.4566 -0.3933  0.5450
   91SAPS  H16S 8881   3.862   4.038   7.279  1.6697  1.0750  3.2125
   91SAPS  C217 8882   3.777   4.149   7.448  0.4231  0.2633  0.6108
   91SAPS  H17R 8883   3.687   4.213   7.460 -0.1258  0.8099 -4.2313
   91SAPS  H17S 8884   3.860   4.219   7.468  1.6700 -1.3339  1.2177
   91SAPS  C218 8885   3.792   4.042   7.562  0.0344  0.0328  0.6345
   91SAPS  H18R 8886   3.886   3.986   7.542 -0.7543 -1.3982  0.7996
   91SAPS  H18S 8887   3.709   3.969   7.553  0.7747 -0.5556 -3.3218
   91SAPS  C219 8888   3.809   4.102   7.706  0.2266  0.0659 -0.6868
   91SAPS  H19R 8889   3.728   4.172   7.735 -1.1625 -0.8800 -2.1230
   91SAPS  H19S 8890   3.907   4.155   7.706  0.9107 -1.1226 -2.0222
   91SAPS  C220 8891   3.818   3.987   7.809  0.3786  0.4985 -0.1246
   91SAPS  H20R 8892   3.893   3.914   7.775 -0.7734 -0.7210 -0.1129
   91SAPS  H20S 8893   3.720   3.936   7.820  0.6827 -0.3012 -1.0652
   91SAPS  H20T 8894   3.851   4.028   7.907  3.5668 -4.4029  1.2100
   91SAPS   C33 8895   3.767   3.132   6.374 -0.6622 -0.5785  0.8020
   91SAPS   H3X 8896   3.861   3.150   6.430 -0.2613 -0.3681  0.0766
   91SAPS   H3Y 8897   3.758   3.024   6.346  0.4844 -0.6621  0.7178
   91SAPS   C34 8898   3.648   3.167   6.473  0.1468  0.1255  0.1435
   91SAPS   H4X 8899   3.632   3.086   6.548 -1.2219  1.3605  1.2474
   91SAPS   H4Y 8900   3.554   3.170   6.413 -0.6432  0.0236  1.3344
   91SAPS   C35 8901   3.652   3.303   6.539 -1.0438  0.1106 -0.5035
   91SAPS   H5X 8902   3.662   3.386   6.464 -0.1607 -0.0127 -0.5324
   91SAPS   H5Y 8903   3.743   3.306   6.601  0.4021  2.5301 -2.5345
   91SAPS   C36 8904   3.528   3.328   6.634  0.0989 -0.5251  0.1717
   91SAPS   H6X 8905   3.548   3.265   6.723  2.6659 -2.4327 -1.6260
   91SAPS   H6Y 8906   3.434   3.287   6.591 -1.0577  0.7930  1.2983
   91SAPS   C37 8907   3.497   3.477   6.664  0.7700 -0.1598  0.3626
   91SAPS   H7X 8908   3.445   3.520   6.576 -0.4583  0.9322  1.5733
   91SAPS   H7Y 8909   3.598   3.518   6.686  1.4315 -1.6243  0.1611
   91SAPS   C38 8910   3.400   3.494   6.782 -0.4037 -0.2279  0.2752
   91SAPS   H8X 8911   3.329   3.408   6.780 -0.6481 -0.0283 -1.8472
   91SAPS   H8Y 8912   3.358   3.596   6.774  0.6918  0.1317 -1.8397
   91SAPS   C39 8913   3.476   3.498   6.920 -0.2942 -0.2172 -0.4464
   91SAPS   H9X 8914   3.568   3.560   6.913  1.0587 -1.6624  2.7703
   91SAPS   H9Y 8915   3.518   3.403   6.958  0.5262 -0.6507 -2.2929
   91SAPS  C310 8916   3.397   3.566   7.032  0.1156 -0.5543 -0.1355
   91SAPS  H10X 8917   3.314   3.497   7.061 -0.0663  0.2932  1.5318
   91SAPS  H10Y 8918   3.352   3.660   6.995 -3.0568 -1.3579  1.2663
   91SAPS  C311 8919   3.489   3.589   7.155 -0.3909 -0.2886  0.5013
   91SAPS  H11X 8920   3.567   3.661   7.122 -1.8285  1.3819  0.5640
   91SAPS  H11Y 8921   3.549   3.500   7.182 -1.2836 -0.4058  2.2434
   91SAPS  C312 8922   3.404   3.648   7.268 -0.2620  0.2927 -0.7471
   91SAPS  H12X 8923   3.314   3.585   7.288  1.4900 -2.0465  0.1746
   91SAPS  H12Y 8924   3.364   3.748   7.242 -2.0133 -0.3461 -0.6696
   91SAPS  C313 8925   3.470   3.622   7.405  0.1958  0.7033 -0.5497
   91SAPS  H13X 8926   3.575   3.657   7.405  1.2265 -2.0637  0.7084
   91SAPS  H13Y 8927   3.470   3.514   7.431  0.6166  1.0685  1.1336
   91SAPS  C314 8928   3.392   3.689   7.518  0.3728 -0.1940 -0.5655
   91SAPS  H14X 8929   3.285   3.664   7.537  0.9025 -0.3791  2.6956
   91SAPS  H14Y 8930   3.405   3.799   7.508  0.9832  0.1075  2.5559
   91SAPS  C315 8931   3.461   3.649   7.646 -0.0685 -0.0004  0.2286
   91SAPS  H15X 8932   3.570   3.653   7.623 -0.0230 -0.5732  0.3144
   91SAPS  H15Y 8933   3.425   3.551   7.685  2.8445 -0.6015  1.7136
   91SAPS  C316 8934   3.437   3.751   7.754 -0.8566 -0.0883  0.8086
   91SAPS  H16X 8935   3.330   3.772   7.773 -1.5694 -2.6529  0.0224
   91SAPS  H16Y 8936   3.468   3.850   7.714 -2.2091  0.8120  1.8876
   91SAPS  C317 8937   3.516   3.733   7.883  0.7050  0.1262  0.4685
   91SAPS  H17X 8938   3.521   3.823   7.948  1.8626 -0.1944  0.8438
   91SAPS  H17Y 8939   3.619   3.714   7.846  0.4734  0.2022 -0.2378
   91SAPS  C318 8940   3.446   3.621   7.949  0.2653 -0.3373 -0.6100
   91SAPS  H18X 8941   3.479   3.528   7.899 -0.6210  0.7377 -3.4288
   91SAPS  H18Y 8942   3.335   3.624   7.956  0.3951  2.3343  2.4838
   91SAPS  H18Z 8943   3.478   3.600   8.053 -1.8841 -2.9225 -0.3708
   92SAPS     N 8944   3.046   3.090   5.247  0.2401 -0.4837  0.2418
   92SAPS   HN1 8945   3.052   3.168   5.178 -2.8157 -0.4039 -0.0760
   92SAPS   HN2 8946   2.957   3.036   5.246 -0.3560  0.4218 -1.5958
   92SAPS   HN3 8947   3.059   3.125   5.344 -1.0535  0.4274  0.1123
   92SAPS   C12 8948   3.162   3.003   5.216 -0.0904 -0.0266 -0.0278
   92SAPS  H12A 8949   3.128   2.959   5.124 -0.0523  0.1854 -0.1449
   92SAPS   C13 8950   3.289   3.079   5.182 -0.2312  0.7836 -0.1747
   92SAPS  O13A 8951   3.293   3.205   5.185 -0.0976  0.0237  0.4666
   92SAPS  O13B 8952   3.395   3.017   5.186  0.2828  0.2239  0.4895
   92SAPS   C11 8953   3.200   2.908   5.340  0.0460  0.2475  0.2267
   92SAPS  H11A 8954   3.253   2.964   5.420  0.9256 -0.1832 -0.0404
   92SAPS  H11B 8955   3.260   2.827   5.293 -1.7933 -0.8019 -0.4130
   92SAPS     P 8956   3.024   2.717   5.405  0.1590  0.0260  0.3104
   92SAPS   O13 8957   2.878   2.731   5.384  0.0657 -0.2632 -0.2397
   92SAPS   O14 8958   3.104   2.626   5.320 -0.0399 -0.4274  0.3835
   92SAPS   O12 8959   3.089   2.862   5.401  1.1348 -0.0531 -0.8542
   92SAPS   O11 8960   3.050   2.678   5.552 -0.1071 -0.0959 -0.4749
   92SAPS    C1 8961   3.175   2.718   5.616  0.4095 -0.0373 -0.8633
   92SAPS    HA 8962   3.265   2.699   5.553  0.2199  0.8816 -1.4341
   92SAPS    HB 8963   3.169   2.827   5.638 -0.4628 -0.4511  1.1784
   92SAPS    C2 8964   3.194   2.647   5.750  0.1153 -0.2411  0.2730
   92SAPS    HS 8965   3.225   2.544   5.722  0.8019  0.1661 -0.5227
   92SAPS   O21 8966   3.075   2.646   5.823 -0.1210 -0.0407 -0.6439
   92SAPS   C21 8967   3.076   2.565   5.933  0.0271  0.3796 -0.4523
   92SAPS   O22 8968   3.158   2.475   5.948 -0.7051  0.0972  0.1050
   92SAPS   C22 8969   2.959   2.594   6.034  0.4643  0.2181  0.4866
   92SAPS   H2R 8970   2.964   2.695   6.081  0.1708 -0.3049  1.6897
   92SAPS   H2S 8971   2.864   2.582   5.979 -0.4871 -0.5008  2.1898
   92SAPS    C3 8972   3.317   2.711   5.825 -0.3955 -0.5551  0.1376
   92SAPS    HX 8973   3.403   2.692   5.758 -0.4184  2.2157 -0.8098
   92SAPS    HY 8974   3.335   2.651   5.917 -1.4092  0.0574  0.7583
   92SAPS   O31 8975   3.306   2.852   5.849 -0.6576  0.4200 -0.0242
   92SAPS   C31 8976   3.238   2.890   5.954 -0.1328 -0.3828 -0.9140
   92SAPS   O32 8977   3.188   2.810   6.030  0.2457  0.4711  0.3944
   92SAPS   C32 8978   3.265   3.036   5.977 -0.4144 -0.0904  0.2524
   92SAPS   H2X 8979   3.243   3.096   5.887 -1.0199 -1.8604 -0.8238
   92SAPS   H2Y 8980   3.373   3.040   6.002 -0.5438 -0.4518  0.8915
   92SAPS   C23 8981   2.966   2.486   6.146 -0.1010 -0.5599 -0.0427
   92SAPS   H3R 8982   3.064   2.498   6.198 -0.1814  1.6517 -0.3026
   92SAPS   H3S 8983   2.958   2.385   6.099 -0.7850 -0.3995 -0.2777
   92SAPS   C24 8984   2.854   2.507   6.255 -0.4334  0.6439 -0.7997
   92SAPS   H4R 8985   2.761   2.479   6.201  0.2286 -1.9366 -0.7615
   92SAPS   H4S 8986   2.843   2.616   6.270  0.5217  0.7994 -1.1369
   92SAPS   C25 8987   2.874   2.429   6.387  0.4837  0.3635 -0.4855
   92SAPS   H5R 8988   2.886   2.321   6.369 -0.3044 -0.0202  1.1484
   92SAPS   C26 8989   2.902   2.485   6.504 -0.8524  0.1545 -0.1169
   92SAPS   H6R 8990   2.934   2.422   6.589  1.5125  1.2790 -0.1050
   92SAPS   C27 8991   2.924   2.637   6.535  0.6491 -0.0169  0.0409
   92SAPS   H7R 8992   2.830   2.681   6.576 -1.3479 -2.0217 -2.0391
   92SAPS   H7S 8993   2.946   2.696   6.444 -1.2917  2.2005  0.9000
   92SAPS   C28 8994   3.044   2.671   6.618 -0.1791 -0.0299  0.6655
   92SAPS   H8R 8995   3.127   2.699   6.552  0.3963 -1.7321  0.6194
   92SAPS   C29 8996   3.059   2.656   6.747  0.2601 -0.3955  0.2904
   92SAPS   H9R 8997   3.154   2.689   6.792  0.0601  1.6801 -0.6941
   92SAPS  C210 8998   2.955   2.585   6.834  0.0882  0.8794  0.1357
   92SAPS  H10R 8999   2.998   2.490   6.873  2.4849  1.8448  0.0182
   92SAPS  H10S 9000   2.859   2.565   6.783  0.8584 -2.4508 -0.2790
   92SAPS  C211 9001   2.930   2.679   6.937  0.2640  0.2128 -0.4269
   92SAPS  H11R 9002   2.890   2.780   6.916  2.9496  1.4482 -0.0253
   92SAPS  C212 9003   2.921   2.650   7.068 -0.7169  0.2769 -0.3310
   92SAPS  H12R 9004   2.892   2.734   7.133  2.9940  0.4699  1.3691
   92SAPS  C213 9005   2.966   2.513   7.130  0.6606 -0.1275 -0.4149
   92SAPS  H13R 9006   2.985   2.532   7.237 -3.3098 -1.1234  0.6570
   92SAPS  H13S 9007   3.061   2.481   7.082  1.9737 -0.5964  2.3179
   92SAPS  C214 9008   2.872   2.390   7.119  1.0756 -0.4085 -0.1002
   92SAPS  H14R 9009   2.783   2.391   7.054  1.8458 -2.0297 -1.2333
   92SAPS  C215 9010   2.898   2.273   7.181  0.3243 -0.3147 -0.5383
   92SAPS  H15R 9011   2.823   2.194   7.164 -0.4170  0.2536  0.0229
   92SAPS  C216 9012   2.994   2.256   7.291  0.3037  0.1376 -0.3275
   92SAPS  H16R 9013   3.099   2.287   7.270 -0.3728  2.8814  0.0739
   92SAPS  H16S 9014   3.010   2.147   7.306  0.3161  0.3921  1.8195
   92SAPS  C217 9015   2.955   2.303   7.432  0.2854 -0.5702 -0.5368
   92SAPS  H17R 9016   2.998   2.404   7.445  0.8613 -0.9604  0.7989
   92SAPS  H17S 9017   3.018   2.242   7.501 -0.9518 -0.6857  0.5410
   92SAPS  C218 9018   2.808   2.291   7.467 -0.1383  0.3665 -0.0963
   92SAPS  H18R 9019   2.785   2.185   7.442 -1.4458  0.1263  1.9324
   92SAPS  H18S 9020   2.743   2.361   7.410 -1.2750  1.3637  2.2676
   92SAPS  C219 9021   2.792   2.314   7.619 -0.1829 -0.1343  0.8253
   92SAPS  H19R 9022   2.874   2.252   7.661  0.4329 -0.6386 -1.0319
   92SAPS  H19S 9023   2.694   2.269   7.647 -0.5420 -1.3873 -2.1121
   92SAPS  C220 9024   2.816   2.460   7.662 -0.2294 -0.4399 -0.5224
   92SAPS  H20R 9025   2.814   2.466   7.773  0.1754 -0.3064 -0.5200
   92SAPS  H20S 9026   2.745   2.524   7.606  1.7477  0.4510 -2.1605
   92SAPS  H20T 9027   2.918   2.500   7.642 -0.1341  1.4079  2.9077
   92SAPS   C33 9028   3.175   3.095   6.085 -0.0551 -0.3738  0.5957
   92SAPS   H3X 9029   3.070   3.067   6.063 -0.5422 -0.9052  3.3418
   92SAPS   H3Y 9030   3.183   3.206   6.074  0.8092 -0.4279  0.6107
   92SAPS   C34 9031   3.210   3.052   6.225  0.7964 -0.7488 -1.3559
   92SAPS   H4X 9032   3.319   3.068   6.236  1.0215 -2.3947 -0.8449
   92SAPS   H4Y 9033   3.191   2.942   6.224 -0.9600 -0.4996  0.1870
   92SAPS   C35 9034   3.126   3.128   6.330  0.8995 -0.7639  0.1611
   92SAPS   H5X 9035   3.020   3.141   6.297 -0.2812  0.5457  3.9419
   92SAPS   H5Y 9036   3.179   3.224   6.346  0.4672 -0.7915  1.9483
   92SAPS   C36 9037   3.121   3.052   6.464  0.0705 -0.9901 -0.0925
   92SAPS   H6X 9038   3.224   3.021   6.492 -0.4603 -1.5840  1.2626
   92SAPS   H6Y 9039   3.068   2.954   6.460  1.6508 -1.8656 -0.1496
   92SAPS   C37 9040   3.065   3.129   6.581  0.0173  0.0965  0.1336
   92SAPS   H7X 9041   2.956   3.149   6.572  0.3144  1.7933  0.0347
   92SAPS   H7Y 9042   3.111   3.229   6.587  0.3104 -0.0883  1.1940
   92SAPS   C38 9043   3.102   3.066   6.719 -0.3797 -0.6373  1.0287
   92SAPS   H8X 9044   3.087   2.956   6.707 -1.0826 -0.5401  0.9366
   92SAPS   H8Y 9045   3.031   3.099   6.798 -0.3356  0.0928  0.7634
   92SAPS   C39 9046   3.246   3.116   6.747 -0.7494 -0.6572 -0.6761
   92SAPS   H9X 9047   3.240   3.227   6.746 -0.3934 -0.5933 -3.3139
   92SAPS   H9Y 9048   3.323   3.078   6.677 -0.4164 -1.6234  0.1908
   92SAPS  C310 9049   3.282   3.067   6.891  0.5931 -0.3229  0.0629
   92SAPS  H10X 9050   3.356   3.142   6.928 -1.3336  2.0696 -0.6745
   92SAPS  H10Y 9051   3.345   2.975   6.883  0.8800 -0.0539 -0.9648
   92SAPS  C311 9052   3.176   3.039   7.000  0.1283  0.4621 -0.4571
   92SAPS  H11X 9053   3.098   2.963   6.981  0.2472  0.0843  0.5212
   92SAPS  H11Y 9054   3.120   3.134   6.999  0.1833  0.5616  1.6417
   92SAPS  C312 9055   3.239   3.030   7.141  0.6445  0.2773 -0.6924
   92SAPS  H12X 9056   3.279   3.125   7.183  2.5393 -0.2205 -1.2997
   92SAPS  H12Y 9057   3.324   2.958   7.137 -0.9698 -1.6645 -1.8882
   92SAPS  C313 9058   3.121   2.980   7.232  0.1233  0.8789  1.0381
   92SAPS  H13X 9059   3.076   2.887   7.191  2.4362 -0.1917  0.7500
   92SAPS  H13Y 9060   3.034   3.048   7.231 -1.5073 -1.0625 -1.6190
   92SAPS  C314 9061   3.155   2.934   7.372 -0.2155  0.3085 -0.7945
   92SAPS  H14X 9062   3.189   3.022   7.429  1.8526 -1.1291  0.3292
   92SAPS  H14Y 9063   3.233   2.855   7.380 -1.0522 -0.3184  2.5464
   92SAPS  C315 9064   3.040   2.859   7.451 -0.4018  0.5151  0.0579
   92SAPS  H15X 9065   3.076   2.835   7.553  0.5344  0.1110 -0.3514
   92SAPS  H15Y 9066   3.027   2.754   7.416  0.5304 -0.2764  1.9523
   92SAPS  C316 9067   2.900   2.926   7.464 -0.4286  0.0292 -0.6236
   92SAPS  H16X 9068   2.858   2.942   7.362 -0.1249 -1.0806 -0.9404
   92SAPS  H16Y 9069   2.903   3.023   7.518 -0.4081 -0.9506  1.2132
   92SAPS  C317 9070   2.794   2.827   7.532  0.7387  0.3497 -0.8219
   92SAPS  H17X 9071   2.821   2.828   7.640  2.1451 -0.6492 -1.1303
   92SAPS  H17Y 9072   2.810   2.722   7.497 -0.1856  0.1571 -0.6879
   92SAPS  C318 9073   2.646   2.868   7.508 -0.1851  0.3372 -0.1752
   92SAPS  H18X 9074   2.626   2.847   7.401 -0.6186 -2.0722  0.2986
   92SAPS  H18Y 9075   2.625   2.968   7.551  0.8141 -0.8588  3.4712
   92SAPS  H18Z 9076   2.576   2.796   7.556 -1.1219 -0.8841 -3.1214
   93SAPS     N 9077   4.378   2.365   5.705 -0.1871 -0.3039 -0.1883
   93SAPS   HN1 9078   4.315   2.295   5.751 -0.6564  0.9845  1.2492
   93SAPS   HN2 9079   4.408   2.320   5.617 -0.4005 -1.8005  0.4531
   93SAPS   HN3 9080   4.453   2.395   5.771  0.7363 -1.3103 -0.7424
   93SAPS   C12 9081   4.284   2.474   5.680  0.4207 -0.5002 -0.2862
   93SAPS  H12A 9082   4.349   2.557   5.657 -0.2949 -0.4276 -2.2869
   93SAPS   C13 9083   4.193   2.449   5.558  0.3953 -0.5356 -0.0381
   93SAPS  O13A 9084   4.192   2.329   5.502 -0.2221 -0.4399 -0.0446
   93SAPS  O13B 9085   4.103   2.533   5.527  0.1496 -0.3767  0.3800
   93SAPS   C11 9086   4.203   2.509   5.812 -0.4123 -0.1914  0.0955
   93SAPS  H11A 9087   4.285   2.516   5.887 -0.4381 -1.6491  0.3005
   93SAPS  H11B 9088   4.130   2.429   5.836  1.5403 -1.9194  0.6326
   93SAPS     P 9089   4.014   2.691   5.858  0.0026  0.2604 -0.1562
   93SAPS   O13 9090   4.024   2.833   5.834 -0.3205 -0.1174  0.0648
   93SAPS   O14 9091   3.903   2.615   5.797  0.1078 -0.3090  0.1350
   93SAPS   O12 9092   4.148   2.640   5.792  0.1412 -0.1174  0.1700
   93SAPS   O11 9093   4.032   2.638   6.008  0.7960 -0.4586  0.0531
   93SAPS    C1 9094   4.001   2.727   6.112 -0.0439 -0.3751 -0.0569
   93SAPS    HA 9095   3.901   2.771   6.094 -0.6118 -2.2256 -1.8292
   93SAPS    HB 9096   3.986   2.670   6.207 -1.9422  1.2293  0.6805
   93SAPS    C2 9097   4.115   2.833   6.140 -0.1816 -0.0383 -0.4777
   93SAPS    HS 9098   4.131   2.888   6.045  0.4536  1.1556  0.3025
   93SAPS   O21 9099   4.230   2.764   6.188 -0.6720 -0.5713  0.3113
   93SAPS   C21 9100   4.326   2.753   6.101  0.6166  0.1716  0.4148
   93SAPS   O22 9101   4.324   2.804   5.989  0.2653  0.2610  0.2209
   93SAPS   C22 9102   4.437   2.659   6.159  0.4204 -0.3018  0.3233
   93SAPS   H2R 9103   4.416   2.557   6.119 -0.0020 -0.3140  0.5684
   93SAPS   H2S 9104   4.537   2.703   6.141  0.2574 -0.1208 -0.1470
   93SAPS    C3 9105   4.057   2.941   6.235  0.1564  0.9508 -0.0514
   93SAPS    HX 9106   3.974   2.998   6.188  0.9630  2.4840  0.3069
   93SAPS    HY 9107   4.138   3.012   6.260 -0.1005  1.8472 -1.5816
   93SAPS   O31 9108   4.018   2.875   6.360 -0.1871 -0.6766  0.8620
   93SAPS   C31 9109   4.115   2.864   6.453  0.2698  0.8108  0.0159
   93SAPS   O32 9110   4.228   2.908   6.450  0.9760 -1.0293  0.1818
   93SAPS   C32 9111   4.051   2.783   6.570 -0.8502 -0.9949  0.2573
   93SAPS   H2X 9112   3.941   2.786   6.554 -0.6921 -2.2373 -1.3170
   93SAPS   H2Y 9113   4.071   2.838   6.664  0.2391 -0.9021 -0.0138
   93SAPS   C23 9114   4.415   2.640   6.315 -0.6815  0.2907  0.3667
   93SAPS   H3R 9115   4.308   2.618   6.333 -0.9311 -0.2744 -1.5508
   93SAPS   H3S 9116   4.434   2.737   6.365 -1.1657  0.6551 -0.1464
   93SAPS   C24 9117   4.518   2.545   6.382 -0.4045 -0.1580  0.1988
   93SAPS   H4R 9118   4.518   2.573   6.490  3.1318  2.1512 -0.2614
   93SAPS   H4S 9119   4.623   2.547   6.347  0.1584 -2.7016  1.4681
   93SAPS   C25 9120   4.473   2.401   6.369  0.1568 -0.4587 -0.0917
   93SAPS   H5R 9121   4.408   2.376   6.284  0.8279 -1.8367 -0.2263
   93SAPS   C26 9122   4.481   2.297   6.457 -0.3221 -0.3930 -0.2445
   93SAPS   H6R 9123   4.442   2.199   6.426  2.8770 -1.5559 -1.0085
   93SAPS   C27 9124   4.542   2.304   6.597 -0.3026  0.3831  0.1211
   93SAPS   H7R 9125   4.552   2.201   6.637 -2.5132 -0.8818 -2.3120
   93SAPS   H7S 9126   4.466   2.356   6.659  0.3709  0.6646  0.7305
   93SAPS   C28 9127   4.672   2.384   6.617  0.5075  0.2709  0.8760
   93SAPS   H8R 9128   4.705   2.417   6.518 -0.5378 -1.5128 -0.1100
   93SAPS   C29 9129   4.743   2.395   6.733  0.3305 -1.0693 -0.3217
   93SAPS   H9R 9130   4.819   2.472   6.747 -0.7298 -0.4562  2.9727
   93SAPS  C210 9131   4.692   2.333   6.863 -0.0048  0.7874 -0.0028
   93SAPS  H10R 9132   4.609   2.268   6.828  1.1291 -0.0889 -1.1938
   93SAPS  H10S 9133   4.656   2.416   6.926 -0.8907  0.7129 -0.3912
   93SAPS  C211 9134   4.798   2.258   6.939 -0.2607 -0.0833  0.5081
   93SAPS  H11R 9135   4.891   2.315   6.953  0.3512 -0.6224 -1.1039
   93SAPS  C212 9136   4.791   2.125   6.982 -0.2019 -0.0023 -0.4992
   93SAPS  H12R 9137   4.881   2.089   7.033 -0.0616  2.9731  1.5880
   93SAPS  C213 9138   4.685   2.019   6.969 -0.1365  0.1730  0.5512
   93SAPS  H13R 9139   4.728   1.946   6.897 -0.2976  0.9102 -0.3097
   93SAPS  H13S 9140   4.593   2.059   6.921 -0.6765 -0.7484  0.7988
   93SAPS  C214 9141   4.649   1.973   7.103  0.5371 -0.0297 -0.5292
   93SAPS  H14R 9142   4.610   2.053   7.168  0.1119  0.0632 -0.8975
   93SAPS  C215 9143   4.651   1.848   7.154 -0.0997  0.0438 -0.1340
   93SAPS  H15R 9144   4.614   1.835   7.257  0.0232  2.6935  0.3232
   93SAPS  C216 9145   4.716   1.729   7.092 -0.2271  0.5103  0.3525
   93SAPS  H16R 9146   4.814   1.705   7.138 -0.0526 -2.2159 -1.2274
   93SAPS  H16S 9147   4.724   1.741   6.982 -0.0727  0.9749  0.4145
   93SAPS  C217 9148   4.639   1.603   7.117  0.4445 -0.1436  1.3503
   93SAPS  H17R 9149   4.652   1.583   7.226  0.7035 -0.6250  1.2335
   93SAPS  H17S 9150   4.691   1.517   7.070 -0.1136  0.2226  0.0408
   93SAPS  C218 9151   4.490   1.604   7.068  0.5583  0.1485  0.1260
   93SAPS  H18R 9152   4.496   1.648   6.967  0.7686 -0.6306 -0.2119
   93SAPS  H18S 9153   4.432   1.676   7.129 -1.1841 -1.8879  1.0049
   93SAPS  C219 9154   4.423   1.462   7.080 -0.4361 -0.7735  0.2464
   93SAPS  H19R 9155   4.313   1.463   7.069 -0.7054 -0.1972  2.5200
   93SAPS  H19S 9156   4.427   1.407   7.177 -4.6409 -1.7098  0.0428
   93SAPS  C220 9157   4.484   1.366   6.978 -0.4417  0.1125 -0.0362
   93SAPS  H20R 9158   4.595   1.360   6.979 -0.5287 -3.8075  0.1610
   93SAPS  H20S 9159   4.456   1.395   6.874  2.0895  1.0608 -0.5307
   93SAPS  H20T 9160   4.446   1.265   7.002 -0.5720 -0.1434 -1.2230
   93SAPS   C33 9161   4.108   2.643   6.585  0.4652 -0.3392 -0.4920
   93SAPS   H3X 9162   4.110   2.575   6.498 -1.9259 -2.9417  1.3250
   93SAPS   H3Y 9163   4.045   2.570   6.639  1.5501 -2.8402 -2.4139
   93SAPS   C34 9164   4.254   2.637   6.644  0.3732 -0.0947  0.6214
   93SAPS   H4X 9165   4.309   2.730   6.619 -2.0554  0.8583 -1.7624
   93SAPS   H4Y 9166   4.304   2.557   6.586  0.6999  0.0966  0.6401
   93SAPS   C35 9167   4.256   2.596   6.792 -0.7397  0.4798  0.1720
   93SAPS   H5X 9168   4.359   2.560   6.814 -0.6392  1.0385  0.6230
   93SAPS   H5Y 9169   4.175   2.522   6.809 -2.0520  1.2794 -2.1626
   93SAPS   C36 9170   4.233   2.714   6.877 -0.5660  0.6018 -0.3191
   93SAPS   H6X 9171   4.126   2.739   6.857 -0.9536 -0.4798  0.3444
   93SAPS   H6Y 9172   4.293   2.799   6.838  0.0696 -0.0329 -0.7446
   93SAPS   C37 9173   4.249   2.695   7.027 -0.0327 -0.2439 -0.1754
   93SAPS   H7X 9174   4.248   2.585   7.043  1.4811 -0.0242  1.7824
   93SAPS   H7Y 9175   4.166   2.742   7.085 -0.3156  0.1431 -0.8932
   93SAPS   C38 9176   4.381   2.744   7.084  0.1957  0.1345  0.2257
   93SAPS   H8X 9177   4.369   2.854   7.094  2.5356  0.6996 -2.1319
   93SAPS   H8Y 9178   4.470   2.719   7.023 -0.3367  0.1952 -0.5916
   93SAPS   C39 9179   4.403   2.706   7.229  0.1316  0.7281  0.0055
   93SAPS   H9X 9180   4.388   2.598   7.253  1.2121  0.6648  0.4318
   93SAPS   H9Y 9181   4.322   2.758   7.285 -1.5688 -0.5050 -1.1867
   93SAPS  C310 9182   4.543   2.742   7.283  0.1856 -0.0741  0.5556
   93SAPS  H10X 9183   4.546   2.851   7.263 -1.0056 -0.2930 -0.9946
   93SAPS  H10Y 9184   4.618   2.688   7.221 -0.6467 -0.8539  0.2117
   93SAPS  C311 9185   4.564   2.697   7.424  0.2117  0.1160 -0.7157
   93SAPS  H11X 9186   4.661   2.738   7.460 -0.8849  3.2675 -1.0093
   93SAPS  H11Y 9187   4.571   2.588   7.441  2.5433  0.3680  0.4159
   93SAPS  C312 9188   4.454   2.729   7.527 -0.3862 -0.5354  0.5582
   93SAPS  H12X 9189   4.500   2.712   7.627 -0.8383  2.1835  1.3124
   93SAPS  H12Y 9190   4.369   2.661   7.503 -0.5452 -0.2172  0.2089
   93SAPS  C313 9191   4.393   2.877   7.513 -0.0290 -0.1097 -0.1713
   93SAPS  H13X 9192   4.295   2.883   7.459 -0.7277  1.2285  1.1717
   93SAPS  H13Y 9193   4.463   2.941   7.455 -2.2095  1.4813 -1.1927
   93SAPS  C314 9194   4.378   2.939   7.657 -0.6813  0.2689  0.7455
   93SAPS  H14X 9195   4.319   3.031   7.638 -1.3227  0.0757  1.7378
   93SAPS  H14Y 9196   4.484   2.968   7.677  0.1168 -2.2234  0.4279
   93SAPS  C315 9197   4.304   2.862   7.758 -0.0601 -0.1280  0.0528
   93SAPS  H15X 9198   4.357   2.773   7.798 -2.1063 -0.9116  1.1560
   93SAPS  H15Y 9199   4.208   2.840   7.707  0.6671 -0.4636 -1.2133
   93SAPS  C316 9200   4.269   2.932   7.896 -0.9228 -0.0984  0.5858
   93SAPS  H16X 9201   4.277   3.042   7.877  1.1053 -0.2079  0.5994
   93SAPS  H16Y 9202   4.349   2.917   7.973  0.7724  1.3931 -0.7731
   93SAPS  C317 9203   4.132   2.906   7.954 -0.4550  0.8385  0.3375
   93SAPS  H17X 9204   4.122   2.798   7.980  1.3602  0.4713 -0.3204
   93SAPS  H17Y 9205   4.050   2.943   7.890 -0.8526  1.8655  1.4027
   93SAPS  C318 9206   4.096   2.966   8.098  0.3799 -0.4823  0.4899
   93SAPS  H18X 9207   4.103   3.077   8.097 -1.2135 -0.3591 -0.5615
   93SAPS  H18Y 9208   4.157   2.932   8.184 -2.2164 -1.1020  2.2193
   93SAPS  H18Z 9209   3.987   2.944   8.107 -0.7281  2.5165 -3.1145
   94SAPS     N 9210   4.484   5.066   5.771  0.4440 -0.2595 -0.3232
   94SAPS   HN1 9211   4.577   5.041   5.730 -0.9267 -1.3654 -3.0062
   94SAPS   HN2 9212   4.467   5.168   5.757 -2.8436 -0.4696  1.2169
   94SAPS   HN3 9213   4.485   5.050   5.874 -1.0506 -0.9761 -0.3882
   94SAPS   C12 9214   4.390   4.986   5.697 -0.3366 -0.8306 -0.5243
   94SAPS  H12A 9215   4.298   4.989   5.754 -0.7886 -2.3538 -1.1219
   94SAPS   C13 9216   4.371   5.038   5.552 -0.4765 -0.0583  0.0778
   94SAPS  O13A 9217   4.468   5.108   5.497  0.0574 -0.7170  0.7232
   94SAPS  O13B 9218   4.285   4.989   5.479 -0.8347  0.1576 -0.0736
   94SAPS   C11 9219   4.455   4.851   5.691  0.2028 -0.4759 -0.6148
   94SAPS  H11A 9220   4.550   4.856   5.634 -0.5285  0.7483 -1.7975
   94SAPS  H11B 9221   4.382   4.788   5.636 -0.2864 -1.0329  0.6370
   94SAPS     P 9222   4.576   4.681   5.842 -0.3503  0.0563  0.2580
   94SAPS   O13 9223   4.556   4.576   5.737  0.1729  0.5019  0.0007
   94SAPS   O14 9224   4.716   4.735   5.846 -0.1778 -0.0716  0.0719
   94SAPS   O12 9225   4.471   4.795   5.824 -0.0021  0.2631 -0.0938
   94SAPS   O11 9226   4.537   4.622   5.977 -0.4744 -0.8077  0.0889
   94SAPS    C1 9227   4.469   4.707   6.074 -0.7729  0.3777  0.4082
   94SAPS    HA 9228   4.386   4.767   6.032 -0.8709 -0.1239 -0.1279
   94SAPS    HB 9229   4.410   4.639   6.140 -1.5435 -1.0940 -1.6836
   94SAPS    C2 9230   4.553   4.809   6.160 -0.2767 -0.2122  0.1172
   94SAPS    HS 9231   4.609   4.872   6.088 -1.6394 -0.1975 -0.9755
   94SAPS   O21 9232   4.642   4.732   6.244  0.4576  0.1521 -0.1013
   94SAPS   C21 9233   4.745   4.791   6.294  0.0766 -0.2119  0.0971
   94SAPS   O22 9234   4.779   4.907   6.266  0.2895 -0.0119  0.5258
   94SAPS   C22 9235   4.825   4.706   6.386  0.0455  0.6239 -0.0263
   94SAPS   H2R 9236   4.894   4.652   6.317  0.4030  1.1505 -0.0894
   94SAPS   H2S 9237   4.887   4.757   6.462  1.6864  0.5991 -1.2890
   94SAPS    C3 9238   4.474   4.904   6.252  0.3583  0.1439  0.2636
   94SAPS    HX 9239   4.400   4.959   6.190 -1.2656 -0.0438  1.9213
   94SAPS    HY 9240   4.546   4.977   6.295  0.3813 -0.4105  1.2167
   94SAPS   O31 9241   4.411   4.845   6.369 -0.1294  0.4000 -0.8416
   94SAPS   C31 9242   4.294   4.790   6.352 -0.1774  0.6183  0.1574
   94SAPS   O32 9243   4.236   4.777   6.245 -0.1353 -0.5377 -0.5875
   94SAPS   C32 9244   4.242   4.734   6.478  0.4193  0.5502 -1.1376
   94SAPS   H2X 9245   4.326   4.713   6.548  0.3880 -1.1616 -1.5691
   94SAPS   H2Y 9246   4.197   4.634   6.456  1.9879 -0.3316 -0.5095
   94SAPS   C23 9247   4.743   4.594   6.458 -0.2243  0.0768 -0.4271
   94SAPS   H3R 9248   4.818   4.525   6.503 -0.2886  0.1021 -0.2800
   94SAPS   H3S 9249   4.686   4.537   6.382  0.5654  0.9256 -1.6906
   94SAPS   C24 9250   4.646   4.645   6.575  0.6005  0.3520 -0.5110
   94SAPS   H4R 9251   4.563   4.708   6.536  0.3382  0.7313  0.6226
   94SAPS   H4S 9252   4.702   4.713   6.643  0.7107  0.4000 -0.6502
   94SAPS   C25 9253   4.587   4.531   6.659  0.1105 -0.5239 -0.4442
   94SAPS   H5R 9254   4.561   4.435   6.612 -1.7767 -0.4196  0.2859
   94SAPS   C26 9255   4.543   4.542   6.786 -0.1042 -0.7361 -0.0242
   94SAPS   H6R 9256   4.500   4.458   6.842 -0.5811 -0.2720  0.3135
   94SAPS   C27 9257   4.549   4.672   6.862 -0.2332 -0.0192  0.7970
   94SAPS   H7R 9258   4.543   4.763   6.800  0.4171 -0.0025  0.7462
   94SAPS   H7S 9259   4.645   4.669   6.918 -1.1319  0.9534  2.4498
   94SAPS   C28 9260   4.426   4.695   6.948  0.2661  0.0356  0.6315
   94SAPS   H8R 9261   4.339   4.732   6.892  1.0475 -0.8387 -1.2521
   94SAPS   C29 9262   4.413   4.693   7.086 -0.7799 -0.3558 -0.3256
   94SAPS   H9R 9263   4.314   4.714   7.128  0.0586  0.3941  1.4009
   94SAPS  C210 9264   4.532   4.661   7.179  1.0576 -0.2795 -0.1560
   94SAPS  H10R 9265   4.626   4.674   7.120  1.0947 -0.8210 -0.2273
   94SAPS  H10S 9266   4.531   4.551   7.195 -1.1304 -0.8444 -3.2752
   94SAPS  C211 9267   4.551   4.734   7.307  0.2922 -0.1864 -0.4124
   94SAPS  H11R 9268   4.618   4.820   7.296 -0.6091  0.5588 -0.2416
   94SAPS  C212 9269   4.520   4.681   7.431  0.1678  0.0065 -0.3694
   94SAPS  H12R 9270   4.536   4.749   7.515 -1.0011  0.1344 -0.2265
   94SAPS  C213 9271   4.441   4.555   7.464 -0.1352 -0.1220  0.1989
   94SAPS  H13R 9272   4.407   4.510   7.369  1.1847 -0.3108 -0.1989
   94SAPS  H13S 9273   4.355   4.573   7.532 -0.4585 -1.9234  0.3159
   94SAPS  C214 9274   4.536   4.452   7.518  0.0624  0.5076 -0.1198
   94SAPS  H14R 9275   4.602   4.406   7.443 -3.3872 -0.5903 -2.7553
   94SAPS  C215 9276   4.563   4.416   7.644  0.2037 -0.7558 -0.7552
   94SAPS  H15R 9277   4.639   4.341   7.667  0.6590  0.2823  1.4117
   94SAPS  C216 9278   4.486   4.461   7.770 -0.1723 -0.1535  0.2331
   94SAPS  H16R 9279   4.446   4.374   7.827 -2.2808  1.6116  1.6207
   94SAPS  H16S 9280   4.385   4.502   7.751 -0.5371 -0.3983  1.4828
   94SAPS  C217 9281   4.559   4.542   7.875 -0.6753 -0.4241  0.3159
   94SAPS  H17R 9282   4.656   4.491   7.895 -1.9190 -2.7935  0.6933
   94SAPS  H17S 9283   4.499   4.521   7.967 -0.9835 -1.3815 -0.0969
   94SAPS  C218 9284   4.572   4.693   7.840  0.1682 -0.6133 -0.6831
   94SAPS  H18R 9285   4.468   4.728   7.824 -0.2254 -1.2615  0.3137
   94SAPS  H18S 9286   4.620   4.695   7.740 -1.9525 -2.5161 -1.8130
   94SAPS  C219 9287   4.640   4.784   7.943  0.5769  0.1342  0.1350
   94SAPS  H19R 9288   4.683   4.873   7.893  0.6385 -0.4519 -0.8791
   94SAPS  H19S 9289   4.723   4.723   7.986 -0.4128 -0.5264  1.1675
   94SAPS  C220 9290   4.557   4.833   8.063 -0.6812  0.4332 -0.4605
   94SAPS  H20R 9291   4.474   4.901   8.035 -1.0251  0.4430  0.5243
   94SAPS  H20S 9292   4.614   4.892   8.138 -1.4127  0.4721  0.0811
   94SAPS  H20T 9293   4.512   4.746   8.117 -0.7946  0.5164 -0.4212
   94SAPS   C33 9294   4.128   4.820   6.549 -0.7501  0.3957 -1.4431
   94SAPS   H3X 9295   4.045   4.827   6.476  0.5239  0.4330 -2.9366
   94SAPS   H3Y 9296   4.173   4.921   6.560 -0.5146  0.1369  0.1807
   94SAPS   C34 9297   4.088   4.763   6.690  0.6414  0.6197 -0.8593
   94SAPS   H4X 9298   4.184   4.774   6.745  0.3994  0.6534 -0.4392
   94SAPS   H4Y 9299   4.058   4.658   6.672  0.4163  0.4935  0.2010
   94SAPS   C35 9300   3.973   4.832   6.764 -0.4899  0.0129  0.7773
   94SAPS   H5X 9301   3.892   4.843   6.688  1.8577 -4.4574 -2.9133
   94SAPS   H5Y 9302   4.013   4.925   6.808  0.4145 -0.0302  0.0696
   94SAPS   C36 9303   3.917   4.761   6.889 -0.3244 -0.6653 -0.4183
   94SAPS   H6X 9304   3.841   4.688   6.851 -0.8169  0.1284 -1.0044
   94SAPS   H6Y 9305   3.871   4.829   6.963  1.2046 -0.8044  0.6918
   94SAPS   C37 9306   4.034   4.686   6.964  0.1169  0.1053 -0.0485
   94SAPS   H7X 9307   4.096   4.757   7.022 -2.4076  2.5948 -0.1460
   94SAPS   H7Y 9308   4.099   4.631   6.894 -0.5822 -0.7928 -0.0147
   94SAPS   C38 9309   3.970   4.574   7.042 -0.9024  0.3714 -0.1822
   94SAPS   H8X 9310   3.926   4.490   6.985  1.6559 -0.8811 -0.4516
   94SAPS   H8Y 9311   3.892   4.621   7.105  1.2710  1.5538  1.8044
   94SAPS   C39 9312   4.075   4.510   7.145  0.6973 -0.5889 -0.3637
   94SAPS   H9X 9313   4.127   4.588   7.203  0.8677  1.2458 -2.8164
   94SAPS   H9Y 9314   4.163   4.468   7.091  0.8128 -1.0064  0.1407
   94SAPS  C310 9315   4.013   4.403   7.226 -0.0441  0.0454 -0.1726
   94SAPS  H10X 9316   3.989   4.328   7.147  2.7000  1.4472 -2.5618
   94SAPS  H10Y 9317   3.917   4.435   7.270 -0.8309 -0.3639 -1.5262
   94SAPS  C311 9318   4.104   4.343   7.332 -0.0137  0.6970 -0.4857
   94SAPS  H11X 9319   4.054   4.260   7.387  0.7675 -1.2119 -2.5125
   94SAPS  H11Y 9320   4.135   4.417   7.409  1.6567  0.6953 -1.1326
   94SAPS  C312 9321   4.238   4.281   7.284  0.9218  0.7370 -0.1352
   94SAPS  H12X 9322   4.309   4.365   7.269  2.0305  0.0222  0.8669
   94SAPS  H12Y 9323   4.224   4.230   7.186 -2.2791  1.0756  0.0321
   94SAPS  C313 9324   4.303   4.203   7.397 -0.6418 -0.2336 -0.0920
   94SAPS  H13X 9325   4.263   4.235   7.495 -0.5062  0.2684 -0.1947
   94SAPS  H13Y 9326   4.410   4.230   7.407 -0.2666 -1.9851  1.0203
   94SAPS  C314 9327   4.279   4.059   7.376  0.1231 -0.6387  0.7079
   94SAPS  H14X 9328   4.275   4.041   7.266  0.9892 -0.6083  0.6715
   94SAPS  H14Y 9329   4.176   4.029   7.408 -1.7844  0.6574 -3.4561
   94SAPS  C315 9330   4.384   3.966   7.428 -0.4567  0.8811 -0.2616
   94SAPS  H15X 9331   4.377   3.992   7.536 -0.6122  1.2998 -0.3717
   94SAPS  H15Y 9332   4.484   4.001   7.396 -0.4346 -0.6183 -1.9789
   94SAPS  C316 9333   4.369   3.823   7.394  0.1656 -0.2573  0.0616
   94SAPS  H16X 9334   4.452   3.770   7.444  0.3664  1.6411  1.8914
   94SAPS  H16Y 9335   4.374   3.815   7.283  1.2804 -1.3426  0.1700
   94SAPS  C317 9336   4.235   3.756   7.423  0.5571 -0.2641  0.5348
   94SAPS  H17X 9337   4.242   3.659   7.369  1.8867  0.1817 -0.1478
   94SAPS  H17Y 9338   4.153   3.819   7.383  0.1378 -0.7599  0.6078
   94SAPS  C318 9339   4.228   3.735   7.577 -0.5841  0.0047  0.1962
   94SAPS  H18X 9340   4.317   3.680   7.614  1.3813  2.4091 -0.6997
   94SAPS  H18Y 9341   4.133   3.695   7.618 -1.0669  2.5276  1.7195
   94SAPS  H18Z 9342   4.220   3.831   7.631 -1.7137 -0.5604  1.0767
   95SAPS     N 9343   1.403   3.572   5.085 -0.5340  0.0432  0.4374
   95SAPS   HN1 9344   1.315   3.595   5.034 -0.6428 -0.9471  0.1475
   95SAPS   HN2 9345   1.476   3.571   5.010  0.3225 -1.7043  1.2363
   95SAPS   HN3 9346   1.382   3.480   5.129  0.5230 -0.1949  0.4686
   95SAPS   C12 9347   1.456   3.658   5.191 -0.0666 -0.6858  0.5781
   95SAPS  H12A 9348   1.545   3.618   5.238  0.7238  0.1586 -0.1674
   95SAPS   C13 9349   1.505   3.792   5.127  0.1846  0.4539 -0.1527
   95SAPS  O13A 9350   1.472   3.828   5.011 -0.2318 -0.2202 -0.7209
   95SAPS  O13B 9351   1.543   3.879   5.209 -0.1236 -0.0470 -0.3185
   95SAPS   C11 9352   1.351   3.668   5.306 -1.0984  0.1857 -0.5899
   95SAPS  H11A 9353   1.266   3.735   5.281 -0.6015  0.9318 -0.3160
   95SAPS  H11B 9354   1.410   3.727   5.379 -1.2836  1.6557 -1.5972
   95SAPS     P 9355   1.319   3.496   5.505  0.1360 -0.3598 -0.0174
   95SAPS   O13 9356   1.238   3.370   5.522  0.6415 -0.9944 -0.1109
   95SAPS   O14 9357   1.460   3.490   5.544 -0.0032  0.1627 -0.2892
   95SAPS   O12 9358   1.307   3.539   5.353 -0.5332  0.6120  0.5994
   95SAPS   O11 9359   1.250   3.621   5.593  0.1017 -0.5893 -0.2817
   95SAPS    C1 9360   1.318   3.698   5.696  0.1122  0.7978 -0.2027
   95SAPS    HA 9361   1.427   3.678   5.687 -0.7351 -5.0570 -2.0187
   95SAPS    HB 9362   1.307   3.806   5.675  1.8485  0.8002 -1.2997
   95SAPS    C2 9363   1.284   3.656   5.844 -0.3693  0.0466 -0.6217
   95SAPS    HS 9364   1.331   3.725   5.917  0.0646 -0.1611 -0.6985
   95SAPS   O21 9365   1.324   3.522   5.880 -0.2519  0.2623  0.6609
   95SAPS   C21 9366   1.452   3.501   5.898 -0.0164  0.6368 -0.1933
   95SAPS   O22 9367   1.541   3.582   5.918  0.5832 -0.7614  0.1926
   95SAPS   C22 9368   1.476   3.344   5.891  0.2528  0.4215 -0.2020
   95SAPS   H2R 9369   1.435   3.304   5.797 -0.3461  2.8169 -1.0345
   95SAPS   H2S 9370   1.586   3.326   5.895 -0.0866 -1.7719  2.6809
   95SAPS    C3 9371   1.136   3.663   5.866  0.2070  0.9522  0.2461
   95SAPS    HX 9372   1.092   3.598   5.788  0.9366  0.7106  0.0273
   95SAPS    HY 9373   1.091   3.763   5.849 -2.3445  0.2383  2.2188
   95SAPS   O31 9374   1.085   3.614   5.994 -0.2853 -0.0631 -0.4833
   95SAPS   C31 9375   1.081   3.706   6.090 -0.3009 -0.8589 -0.1980
   95SAPS   O32 9376   1.115   3.821   6.074  0.3811  0.3557  0.1127
   95SAPS   C32 9377   1.007   3.658   6.214 -0.3357 -0.3460 -0.1900
   95SAPS   H2X 9378   0.967   3.555   6.197  0.3845 -1.2099  2.6622
   95SAPS   H2Y 9379   0.926   3.731   6.235 -0.3097  0.4472 -2.5461
   95SAPS   C23 9380   1.405   3.264   6.010  0.7604  0.2209 -0.4448
   95SAPS   H3R 9381   1.390   3.157   5.984 -0.9608 -0.1621  1.8598
   95SAPS   H3S 9382   1.299   3.297   6.010  0.7496  0.2604  1.5566
   95SAPS   C24 9383   1.478   3.255   6.146  0.4722  0.0781  0.2900
   95SAPS   H4R 9384   1.399   3.218   6.216  0.0655  1.5441  0.6500
   95SAPS   H4S 9385   1.507   3.356   6.184  1.3966 -1.0789  2.9012
   95SAPS   C25 9386   1.589   3.155   6.145  0.4980 -0.9332 -0.1446
   95SAPS   H5R 9387   1.575   3.059   6.093  0.4628 -0.0660 -1.7682
   95SAPS   C26 9388   1.713   3.174   6.181 -0.2911 -0.0832 -0.3952
   95SAPS   H6R 9389   1.779   3.086   6.175  0.2704  0.4582 -3.6449
   95SAPS   C27 9390   1.765   3.289   6.269  0.0145 -0.1791 -0.2781
   95SAPS   H7R 9391   1.707   3.292   6.364  2.0848  0.9058  1.0294
   95SAPS   H7S 9392   1.741   3.386   6.220  0.4691  0.9388  1.6057
   95SAPS   C28 9393   1.912   3.296   6.301 -0.5513  0.8188 -0.3705
   95SAPS   H8R 9394   1.978   3.279   6.214 -1.5776 -0.2181 -0.9670
   95SAPS   C29 9395   1.971   3.308   6.422 -0.6699 -0.0014 -0.0143
   95SAPS   H9R 9396   2.081   3.314   6.421 -0.7627  2.2337 -0.0399
   95SAPS  C210 9397   1.913   3.323   6.556 -0.4024 -0.1134 -0.6774
   95SAPS  H10R 9398   1.960   3.252   6.627  0.8326  1.0626 -0.2633
   95SAPS  H10S 9399   1.806   3.294   6.547 -0.6521  0.9741 -1.5193
   95SAPS  C211 9400   1.927   3.455   6.620  0.3158 -1.2866  0.4295
   95SAPS  H11R 9401   2.009   3.453   6.694 -1.0062 -0.8473  1.9458
   95SAPS  C212 9402   1.865   3.573   6.588  0.0764  0.5562  0.0893
   95SAPS  H12R 9403   1.898   3.666   6.636  0.6054  0.2934  0.2356
   95SAPS  C213 9404   1.766   3.594   6.478  0.2765  0.4968  0.5176
   95SAPS  H13R 9405   1.685   3.658   6.521 -0.4251  0.9181 -1.3404
   95SAPS  H13S 9406   1.715   3.496   6.469 -0.5608  0.5568  3.4851
   95SAPS  C214 9407   1.810   3.648   6.343  0.5079  0.9008 -0.0896
   95SAPS  H14R 9408   1.918   3.640   6.323 -0.1922  0.3103 -4.7130
   95SAPS  C215 9409   1.736   3.697   6.240 -0.3098  0.7679  0.2991
   95SAPS  H15R 9410   1.796   3.732   6.154  0.3511 -0.0795  0.3987
   95SAPS  C216 9411   1.590   3.717   6.241  0.3462  0.5070 -0.2473
   95SAPS  H16R 9412   1.548   3.736   6.342  0.1403  2.2480 -0.6300
   95SAPS  H16S 9413   1.534   3.627   6.207  2.8031 -0.9027 -0.7627
   95SAPS  C217 9414   1.549   3.844   6.168  0.1769  0.5527 -0.2502
   95SAPS  H17R 9415   1.510   3.815   6.068  1.8108 -1.6001 -0.3261
   95SAPS  H17S 9416   1.639   3.903   6.142  1.8522 -1.8133 -0.1186
   95SAPS  C218 9417   1.446   3.932   6.244  0.9326  0.4918  0.4388
   95SAPS  H18R 9418   1.494   3.976   6.334  2.1362  2.1414 -0.9371
   95SAPS  H18S 9419   1.363   3.872   6.285 -0.1622  0.0260 -2.2130
   95SAPS  C219 9420   1.398   4.055   6.160 -0.9026 -0.0746 -0.2105
   95SAPS  H19R 9421   1.362   4.011   6.065  2.0346 -1.4090 -0.8158
   95SAPS  H19S 9422   1.481   4.124   6.134 -0.5615 -0.8675 -1.2633
   95SAPS  C220 9423   1.287   4.138   6.240  0.0448 -0.1610  0.9415
   95SAPS  H20R 9424   1.283   4.241   6.197  1.1422 -0.1077  0.9457
   95SAPS  H20S 9425   1.317   4.141   6.347  2.7605  0.6306  0.2348
   95SAPS  H20T 9426   1.194   4.077   6.234  0.7078 -1.1005 -0.1977
   95SAPS   C33 9427   1.101   3.657   6.339  0.8839 -0.3971 -0.4573
   95SAPS   H3X 9428   1.032   3.630   6.422  1.3816 -0.3540 -0.0202
   95SAPS   H3Y 9429   1.129   3.763   6.353 -0.0897  0.5102 -4.2467
   95SAPS   C34 9430   1.215   3.554   6.355  0.3163 -0.1705  0.4808
   95SAPS   H4X 9431   1.293   3.578   6.279 -0.1131  3.2827  0.9690
   95SAPS   H4Y 9432   1.170   3.458   6.322 -0.3650  0.9058 -1.9245
   95SAPS   C35 9433   1.269   3.545   6.499 -0.1751  0.1492 -0.3752
   95SAPS   H5X 9434   1.190   3.537   6.578 -0.0102 -0.1769 -0.2433
   95SAPS   H5Y 9435   1.318   3.644   6.512  1.5826 -0.8011  0.5300
   95SAPS   C36 9436   1.382   3.441   6.517 -0.1814 -0.2922 -0.0483
   95SAPS   H6X 9437   1.454   3.444   6.433  0.2771 -1.1269  0.3094
   95SAPS   H6Y 9438   1.331   3.342   6.517 -0.1217 -0.3264 -0.5772
   95SAPS   C37 9439   1.448   3.450   6.652  0.3042 -0.3449 -0.0990
   95SAPS   H7X 9440   1.372   3.472   6.730  1.1539 -0.1496  0.6900
   95SAPS   H7Y 9441   1.521   3.535   6.647  0.4088 -0.1595  2.7876
   95SAPS   C38 9442   1.536   3.335   6.702  0.3936  0.0541  0.1674
   95SAPS   H8X 9443   1.598   3.295   6.619  0.1435 -0.1053  0.0562
   95SAPS   H8Y 9444   1.477   3.248   6.737  0.2043  0.2212  0.2618
   95SAPS   C39 9445   1.625   3.389   6.809  0.0552  0.9060 -0.5808
   95SAPS   H9X 9446   1.565   3.411   6.900 -1.2094 -1.3145 -0.8005
   95SAPS   H9Y 9447   1.679   3.486   6.795  0.4572  1.4355  3.5161
   95SAPS  C310 9448   1.722   3.281   6.868 -0.2250  0.9243  0.8811
   95SAPS  H10X 9449   1.781   3.248   6.780  0.3953  1.9846  0.8876
   95SAPS  H10Y 9450   1.677   3.189   6.911 -1.7966  2.1402  1.9749
   95SAPS  C311 9451   1.820   3.333   6.976  0.4488  0.6559  0.3919
   95SAPS  H11X 9452   1.767   3.321   7.072 -0.4203 -0.3318 -0.1885
   95SAPS  H11Y 9453   1.829   3.443   6.962  3.5224  0.2479 -2.1145
   95SAPS  C312 9454   1.959   3.274   6.968  0.1663 -1.2295 -0.6203
   95SAPS  H12X 9455   2.032   3.346   7.011 -0.1144 -0.4757 -1.3941
   95SAPS  H12Y 9456   1.982   3.242   6.864  1.6434 -2.2897 -0.0112
   95SAPS  C313 9457   1.969   3.149   7.061 -0.0694  0.2023 -0.1223
   95SAPS  H13X 9458   1.872   3.094   7.048 -0.1372  0.3875 -0.4178
   95SAPS  H13Y 9459   1.977   3.178   7.168  1.5379 -1.3700  0.2329
   95SAPS  C314 9460   2.085   3.063   7.018 -0.2986  0.5301 -0.4307
   95SAPS  H14X 9461   2.158   3.130   7.069 -0.9528 -0.5887  2.1182
   95SAPS  H14Y 9462   2.116   3.051   6.912  0.5046  3.0257 -0.5571
   95SAPS  C315 9463   2.101   2.939   7.096 -0.2481 -0.1977 -0.1110
   95SAPS  H15X 9464   2.194   2.887   7.066 -0.4077 -0.0739 -0.8362
   95SAPS  H15Y 9465   2.010   2.882   7.069 -0.8230 -0.4767  2.2036
   95SAPS  C316 9466   2.088   2.947   7.251  0.7202 -0.1156 -0.3998
   95SAPS  H16X 9467   2.004   3.010   7.287  0.6793 -0.6462  0.4742
   95SAPS  H16Y 9468   2.176   2.994   7.300 -0.3191  1.6427 -0.1515
   95SAPS  C317 9469   2.071   2.806   7.319  0.0087  0.3450 -0.5965
   95SAPS  H17X 9470   2.156   2.749   7.275  0.0197 -0.2230  0.1508
   95SAPS  H17Y 9471   1.983   2.745   7.290 -0.1477  0.4739 -0.3922
   95SAPS  C318 9472   2.082   2.818   7.472  0.0253 -0.2385  0.0139
   95SAPS  H18X 9473   2.184   2.842   7.508  0.1437  0.3912 -0.7001
   95SAPS  H18Y 9474   2.063   2.727   7.532  2.2018  0.3509  1.7251
   95SAPS  H18Z 9475   2.009   2.893   7.508  0.0699  0.4728 -1.2962
   96SAPS     N 9476   2.297   5.090   5.975 -0.7759 -0.0563  0.5299
   96SAPS   HN1 9477   2.258   5.155   6.046 -1.3844  0.4171 -0.2208
   96SAPS   HN2 9478   2.281   4.992   6.006 -2.8977  0.5266  1.4892
   96SAPS   HN3 9479   2.401   5.094   5.974 -0.8126  1.3779  1.1809
   96SAPS   C12 9480   2.228   5.106   5.843 -0.1848  0.1968  0.2399
   96SAPS  H12A 9481   2.229   5.211   5.819 -2.1996  0.3599  0.7127
   96SAPS   C13 9482   2.277   5.039   5.714  0.3119 -0.0287  0.4745
   96SAPS  O13A 9483   2.368   4.956   5.723 -0.3480  0.2364  0.6933
   96SAPS  O13B 9484   2.206   5.052   5.609  0.3600 -0.4513 -0.1249
   96SAPS   C11 9485   2.078   5.058   5.862 -0.4099  0.2845 -0.2578
   96SAPS  H11A 9486   2.086   4.961   5.914  0.6628  0.4179 -0.1447
   96SAPS  H11B 9487   2.026   5.039   5.765  0.1899  0.2815 -0.5844
   96SAPS     P 9488   1.965   5.283   5.900  0.0876 -0.2290  0.1814
   96SAPS   O13 9489   2.076   5.379   5.921  0.8640  0.8788  0.2186
   96SAPS   O14 9490   1.911   5.273   5.762  0.2307  0.2604  0.2050
   96SAPS   O12 9491   2.009   5.145   5.961  0.1883  0.4119  0.4209
   96SAPS   O11 9492   1.848   5.329   5.990  0.2097 -0.0065 -0.5993
   96SAPS    C1 9493   1.760   5.228   6.041 -0.0444  0.4265  0.5204
   96SAPS    HA 9494   1.733   5.150   5.966  1.9068 -0.2576  0.4542
   96SAPS    HB 9495   1.818   5.172   6.118 -0.1361 -0.9338 -0.3520
   96SAPS    C2 9496   1.641   5.279   6.131 -0.4976 -0.0048 -0.1753
   96SAPS    HS 9497   1.601   5.370   6.081 -0.8150  1.0135  1.8024
   96SAPS   O21 9498   1.694   5.313   6.264  0.0554  0.1479  0.6125
   96SAPS   C21 9499   1.599   5.370   6.337 -0.0545 -0.3438  0.2048
   96SAPS   O22 9500   1.499   5.431   6.291  0.0836  0.1988  0.7576
   96SAPS   C22 9501   1.638   5.363   6.487 -0.4148  0.0099  0.1932
   96SAPS   H2R 9502   1.630   5.256   6.513 -0.4149 -0.0263  0.0466
   96SAPS   H2S 9503   1.745   5.393   6.491 -0.5819  0.6026  0.3388
   96SAPS    C3 9504   1.529   5.166   6.148 -0.5678 -0.2371  0.0074
   96SAPS    HX 9505   1.493   5.161   6.043 -1.5860  0.2253  0.3187
   96SAPS    HY 9506   1.440   5.202   6.205  1.0841 -0.2388  2.7375
   96SAPS   O31 9507   1.578   5.031   6.188  0.1553 -0.6366  0.7430
   96SAPS   C31 9508   1.561   4.993   6.306 -0.5993  0.3123  0.1558
   96SAPS   O32 9509   1.493   5.052   6.390 -0.2978 -0.0470  0.1784
   96SAPS   C32 9510   1.631   4.857   6.326  0.6255 -0.2330  1.0783
   96SAPS   H2X 9511   1.692   4.832   6.237 -1.3038 -2.1400  0.1917
   96SAPS   H2Y 9512   1.542   4.792   6.343 -1.5099  1.3301 -2.9657
   96SAPS   C23 9513   1.550   5.451   6.578 -0.0539  0.4259 -0.2923
   96SAPS   H3R 9514   1.540   5.549   6.527  2.0143  0.2903 -1.0315
   96SAPS   H3S 9515   1.593   5.473   6.677 -1.6739 -1.1050  0.8257
   96SAPS   C24 9516   1.407   5.391   6.604 -0.1851  0.1175  0.6248
   96SAPS   H4R 9517   1.356   5.379   6.506 -1.2054 -1.6371  1.3226
   96SAPS   H4S 9518   1.357   5.474   6.657  0.0441  0.9717 -0.4447
   96SAPS   C25 9519   1.399   5.268   6.682 -0.2739  0.3859  0.6461
   96SAPS   H5R 9520   1.365   5.182   6.622 -1.1445  1.4692 -0.4757
   96SAPS   C26 9521   1.440   5.245   6.807  0.8278  0.1207 -0.4896
   96SAPS   H6R 9522   1.416   5.148   6.851 -0.5638 -1.5642 -4.4514
   96SAPS   C27 9523   1.479   5.348   6.914  0.2207  0.0494 -0.0158
   96SAPS   H7R 9524   1.421   5.323   7.006 -0.8769  0.9310 -0.4478
   96SAPS   H7S 9525   1.461   5.453   6.883  1.9154 -0.4196 -2.9781
   96SAPS   C28 9526   1.628   5.321   6.931 -0.4507 -1.5251 -0.2620
   96SAPS   H8R 9527   1.698   5.307   6.847 -0.1784  1.4851 -0.6709
   96SAPS   C29 9528   1.697   5.344   7.047  0.3129 -0.1790  0.4009
   96SAPS   H9R 9529   1.805   5.321   7.051  0.2424 -0.4170  1.0935
   96SAPS  C210 9530   1.634   5.388   7.175  0.2396 -0.1624 -0.0575
   96SAPS  H10R 9531   1.525   5.373   7.164  0.3187 -0.7816 -0.0575
   96SAPS  H10S 9532   1.650   5.496   7.197 -1.9532 -0.3265  2.9602
   96SAPS  C211 9533   1.682   5.313   7.297 -0.3636 -0.5557 -0.5303
   96SAPS  H11R 9534   1.682   5.205   7.276 -1.3778 -0.3298 -1.8893
   96SAPS  C212 9535   1.744   5.349   7.411 -0.3404  0.2279  0.1534
   96SAPS  H12R 9536   1.764   5.269   7.484 -0.6211  0.7543  0.8183
   96SAPS  C213 9537   1.771   5.495   7.457 -0.3344 -0.3002  0.8763
   96SAPS  H13R 9538   1.688   5.550   7.506 -0.2004  0.5290  0.1964
   96SAPS  H13S 9539   1.777   5.553   7.362 -0.1649 -1.8730 -0.1134
   96SAPS  C214 9540   1.904   5.513   7.520  0.1513  0.7685  0.1931
   96SAPS  H14R 9541   1.991   5.471   7.468 -0.6201  2.4473 -2.6885
   96SAPS  C215 9542   1.935   5.581   7.632 -0.0097 -0.0214 -0.4093
   96SAPS  H15R 9543   2.042   5.578   7.657  0.2040  1.5773 -0.9872
   96SAPS  C216 9544   1.832   5.652   7.721 -0.5032  1.0286 -0.5360
   96SAPS  H16R 9545   1.727   5.617   7.710 -0.1678 -0.2125  0.1125
   96SAPS  H16S 9546   1.841   5.759   7.693  0.9641  0.7320 -1.2689
   96SAPS  C217 9547   1.876   5.657   7.875 -0.1241  0.3244  0.2611
   96SAPS  H17R 9548   1.855   5.560   7.924  0.7023  0.0912  0.1787
   96SAPS  H17S 9549   1.797   5.722   7.919  0.4597  0.9995  0.3328
   96SAPS  C218 9550   2.016   5.706   7.908  0.0428 -0.4226  0.4455
   96SAPS  H18R 9551   2.088   5.649   7.847 -0.8854  1.7076 -2.9398
   96SAPS  H18S 9552   2.031   5.704   8.018  1.3042 -1.0682  0.2667
   96SAPS  C219 9553   2.041   5.857   7.866 -0.8110 -0.2439  0.4765
   96SAPS  H19R 9554   1.968   5.922   7.920 -1.1383  0.8881 -1.2356
   96SAPS  H19S 9555   2.017   5.858   7.757 -1.0829 -0.5646  0.5319
   96SAPS  C220 9556   2.186   5.904   7.897 -0.0776 -0.1717  0.0134
   96SAPS  H20R 9557   2.214   5.868   7.998  0.6497  1.6814  0.5125
   96SAPS  H20S 9558   2.198   6.014   7.904 -0.7145 -0.1217  0.4693
   96SAPS  H20T 9559   2.263   5.867   7.827 -0.4114 -0.9856  0.0639
   96SAPS   C33 9560   1.729   4.840   6.449 -0.9280 -0.4293  0.5011
   96SAPS   H3X 9561   1.817   4.906   6.431 -1.8161  0.8372  0.6103
   96SAPS   H3Y 9562   1.769   4.738   6.461  1.7245  0.1067 -2.5577
   96SAPS   C34 9563   1.670   4.892   6.580  0.2326 -0.2216  0.4090
   96SAPS   H4X 9564   1.570   4.845   6.591 -1.0127  2.0586 -0.4820
   96SAPS   H4Y 9565   1.650   5.001   6.572  0.4650 -0.2175 -0.1609
   96SAPS   C35 9566   1.765   4.873   6.704  0.3988  0.1471  0.0215
   96SAPS   H5X 9567   1.855   4.937   6.690  0.3624  0.7553  2.2406
   96SAPS   H5Y 9568   1.796   4.767   6.709 -1.5923 -0.5957 -1.8178
   96SAPS   C36 9569   1.703   4.906   6.841  0.8657 -0.0656 -0.1142
   96SAPS   H6X 9570   1.611   4.845   6.852  1.2259 -0.5970  0.0261
   96SAPS   H6Y 9571   1.669   5.011   6.849  0.2383 -0.3246  0.8026
   96SAPS   C37 9572   1.801   4.887   6.958 -0.6031  0.0874  0.2041
   96SAPS   H7X 9573   1.873   4.971   6.965 -1.2036  0.5186  1.7274
   96SAPS   H7Y 9574   1.872   4.805   6.932 -0.7081  0.0579  0.0085
   96SAPS   C38 9575   1.743   4.864   7.096  0.0094 -0.0138 -0.1301
   96SAPS   H8X 9576   1.679   4.944   7.138 -1.8559  0.7862 -4.0447
   96SAPS   H8Y 9577   1.836   4.867   7.158  1.2228  1.2380 -1.9242
   96SAPS   C39 9578   1.673   4.731   7.119  0.3080 -0.0582  0.6924
   96SAPS   H9X 9579   1.730   4.653   7.065  1.4061  1.3285 -0.2215
   96SAPS   H9Y 9580   1.572   4.747   7.074  0.8116  0.7466 -0.1989
   96SAPS  C310 9581   1.629   4.700   7.266 -0.5930 -0.2624 -0.0200
   96SAPS  H10X 9582   1.721   4.707   7.328 -0.8479  0.3939  0.2877
   96SAPS  H10Y 9583   1.584   4.599   7.272  0.3772 -0.6949  0.2617
   96SAPS  C311 9584   1.530   4.803   7.327 -0.5052  0.6917 -0.4058
   96SAPS  H11X 9585   1.436   4.828   7.274 -2.7385 -2.5073  1.6527
   96SAPS  H11Y 9586   1.588   4.895   7.352 -0.1931  0.4910 -0.3897
   96SAPS  C312 9587   1.488   4.738   7.461  0.3336 -0.0244 -0.3122
   96SAPS  H12X 9588   1.583   4.714   7.513 -0.4841 -1.3814  0.6334
   96SAPS  H12Y 9589   1.425   4.646   7.453  1.5804 -1.0223  0.7730
   96SAPS  C313 9590   1.424   4.842   7.548 -0.1443  0.5057  0.2200
   96SAPS  H13X 9591   1.342   4.881   7.483 -0.6223 -0.6203  0.1157
   96SAPS  H13Y 9592   1.496   4.922   7.573  0.8404  0.3316 -1.8356
   96SAPS  C314 9593   1.363   4.789   7.675  0.2834  0.0105 -0.7958
   96SAPS  H14X 9594   1.445   4.742   7.734  0.3133 -0.2033 -1.0066
   96SAPS  H14Y 9595   1.294   4.712   7.636 -1.3993  0.8004  0.5112
   96SAPS  C315 9596   1.297   4.898   7.761 -0.2243 -0.3355 -0.4789
   96SAPS  H15X 9597   1.213   4.948   7.708 -0.6899 -1.7400 -1.1182
   96SAPS  H15Y 9598   1.367   4.981   7.786 -0.6710  0.1240 -0.7241
   96SAPS  C316 9599   1.253   4.846   7.896  0.3148 -0.4995 -0.2702
   96SAPS  H16X 9600   1.339   4.834   7.965 -0.0893 -0.9139  0.1684
   96SAPS  H16Y 9601   1.198   4.749   7.901 -0.6280  0.0781  1.4638
   96SAPS  C317 9602   1.169   4.952   7.969  0.0962  0.0692  0.1523
   96SAPS  H17X 9603   1.117   4.908   8.056 -0.2743  0.2546  0.0267
   96SAPS  H17Y 9604   1.096   5.000   7.900  1.2013 -0.1287 -1.2094
   96SAPS  C318 9605   1.253   5.071   8.017  1.1711  0.0332 -0.2092
   96SAPS  H18X 9606   1.361   5.045   8.018  0.7892 -1.8746 -1.9586
   96SAPS  H18Y 9607   1.220   5.099   8.119  0.5170  1.3221 -0.7422
   96SAPS  H18Z 9608   1.228   5.160   7.955  0.2286 -0.3654 -0.4089
   97SAPS     N 9609   2.090   2.078   5.683 -0.2948  0.1996 -0.1857
   97SAPS   HN1 9610   2.068   2.175   5.714 -1.8200 -0.1779  0.0077
   97SAPS   HN2 9611   2.002   2.041   5.642 -0.4037  0.4725 -0.2064
   97SAPS   HN3 9612   2.136   2.021   5.756  1.1860  0.4028 -0.9201
   97SAPS   C12 9613   2.187   2.086   5.569 -0.3117  0.0967 -0.1760
   97SAPS  H12A 9614   2.193   1.991   5.518  0.0967  1.2453 -2.3712
   97SAPS   C13 9615   2.142   2.185   5.457  0.1555 -0.1852 -0.4380
   97SAPS  O13A 9616   2.034   2.254   5.472 -0.1389  0.9426  0.1355
   97SAPS  O13B 9617   2.175   2.168   5.337  0.5279  0.1966  0.0406
   97SAPS   C11 9618   2.334   2.125   5.624  0.0298 -0.2700  0.5423
   97SAPS  H11A 9619   2.329   2.213   5.691 -1.5032 -0.2036  0.3740
   97SAPS  H11B 9620   2.391   2.157   5.534  0.9662 -1.5051  0.6582
   97SAPS     P 9621   2.555   2.021   5.708  0.0808 -0.1992 -0.3568
   97SAPS   O13 9622   2.606   1.920   5.606 -0.1365 -0.2651 -0.4344
   97SAPS   O14 9623   2.606   2.160   5.692  0.3157  0.1439  0.5687
   97SAPS   O12 9624   2.394   2.017   5.692 -0.4125 -0.2652 -0.0513
   97SAPS   O11 9625   2.579   1.970   5.851 -0.4974 -0.2616 -0.5409
   97SAPS    C1 9626   2.650   1.848   5.880  0.4141  0.3937 -0.5342
   97SAPS    HA 9627   2.720   1.819   5.799  0.0033 -0.8526 -0.4641
   97SAPS    HB 9628   2.706   1.865   5.975 -0.5403  0.9626 -0.0483
   97SAPS    C2 9629   2.544   1.737   5.915  0.0488  0.9338 -0.9125
   97SAPS    HS 9630   2.484   1.719   5.823 -0.6801 -2.5754  0.0832
   97SAPS   O21 9631   2.456   1.784   6.019  0.1546  0.2546  0.4795
   97SAPS   C21 9632   2.337   1.721   6.041  0.2326  1.1773 -0.4506
   97SAPS   O22 9633   2.298   1.629   5.969 -0.1458  0.0749  0.3421
   97SAPS   C22 9634   2.262   1.800   6.151  0.2902 -0.6332  0.2149
   97SAPS   H2R 9635   2.328   1.875   6.199  2.0260 -0.5971 -2.0586
   97SAPS   H2S 9636   2.181   1.847   6.091  2.3029  0.0551 -2.0940
   97SAPS    C3 9637   2.613   1.599   5.948 -0.5668 -0.0050 -0.3070
   97SAPS    HX 9638   2.655   1.568   5.850  1.3197  1.0726  0.1224
   97SAPS    HY 9639   2.538   1.520   5.971 -1.5249  1.3801  1.6216
   97SAPS   O31 9640   2.723   1.606   6.046  0.3643 -0.4161 -0.2530
   97SAPS   C31 9641   2.677   1.591   6.172 -0.0897 -0.0433 -0.2337
   97SAPS   O32 9642   2.568   1.548   6.201  0.2955 -0.1104 -0.4580
   97SAPS   C32 9643   2.794   1.611   6.267 -0.3904 -0.2719 -0.1071
   97SAPS   H2X 9644   2.864   1.684   6.223 -1.2971  0.6017 -0.1334
   97SAPS   H2Y 9645   2.842   1.512   6.281 -0.1339 -0.2081 -0.5049
   97SAPS   C23 9646   2.191   1.694   6.255 -0.7601 -0.2558  0.8266
   97SAPS   H3R 9647   2.125   1.629   6.194 -0.3086  0.7635 -0.8170
   97SAPS   H3S 9648   2.119   1.757   6.313 -2.7306 -0.9853 -0.7067
   97SAPS   C24 9649   2.283   1.614   6.343  0.3975  0.8943 -0.0939
   97SAPS   H4R 9650   2.375   1.666   6.378 -1.2400  4.0745 -0.1687
   97SAPS   H4S 9651   2.319   1.523   6.290  0.3969  0.8456 -0.0105
   97SAPS   C25 9652   2.209   1.565   6.468  0.0554 -0.1978  0.4220
   97SAPS   H5R 9653   2.234   1.619   6.561  0.8309 -1.0671  0.7438
   97SAPS   C26 9654   2.116   1.467   6.473 -0.2552  0.2309 -0.3696
   97SAPS   H6R 9655   2.064   1.442   6.566 -3.5080 -1.0946 -2.3882
   97SAPS   C27 9656   2.083   1.372   6.362  0.1064  0.5298 -0.9486
   97SAPS   H7R 9657   2.106   1.271   6.402  0.8161  0.9820 -0.1619
   97SAPS   H7S 9658   2.152   1.375   6.275  1.1512 -1.9911 -0.2966
   97SAPS   C28 9659   1.944   1.372   6.294 -0.5803 -0.0260 -0.6697
   97SAPS   H8R 9660   1.929   1.445   6.214 -0.0745  2.5096  1.4023
   97SAPS   C29 9661   1.844   1.295   6.338  0.2733  0.0056  0.2362
   97SAPS   H9R 9662   1.747   1.297   6.287  0.1226 -2.4780  0.3445
   97SAPS  C210 9663   1.853   1.195   6.444 -0.1677  0.8080 -0.1718
   97SAPS  H10R 9664   1.902   1.243   6.531  3.1386  1.3571 -2.1788
   97SAPS  H10S 9665   1.915   1.109   6.413  0.4917  0.9427  0.7342
   97SAPS  C211 9666   1.721   1.136   6.484  0.1306  0.1010  1.0388
   97SAPS  H11R 9667   1.647   1.217   6.497 -0.6120 -0.6270  1.4383
   97SAPS  C212 9668   1.662   1.011   6.473  0.2046  0.1414  0.0261
   97SAPS  H12R 9669   1.554   1.004   6.494  0.1790 -3.2418 -0.5498
   97SAPS  C213 9670   1.732   0.883   6.434 -0.4148  0.6882  0.2130
   97SAPS  H13R 9671   1.734   0.819   6.525  0.7368 -0.4173 -0.5507
   97SAPS  H13S 9672   1.838   0.907   6.411 -0.2927 -0.0869 -0.0769
   97SAPS  C214 9673   1.661   0.819   6.321 -0.1631  0.2164  0.0555
   97SAPS  H14R 9674   1.655   0.884   6.233  2.4994 -1.6700 -1.6747
   97SAPS  C215 9675   1.605   0.697   6.313  0.0674 -0.2471 -0.0263
   97SAPS  H15R 9676   1.540   0.670   6.228 -1.7286  3.1163  0.1075
   97SAPS  C216 9677   1.594   0.607   6.429  0.1770  0.5167 -0.6357
   97SAPS  H16R 9678   1.489   0.588   6.460  0.5089 -0.0550  0.1535
   97SAPS  H16S 9679   1.645   0.649   6.518  2.2813  0.9159 -1.9574
   97SAPS  C217 9680   1.665   0.468   6.410  0.2970 -0.3638 -0.3364
   97SAPS  H17R 9681   1.773   0.482   6.388  0.8736 -1.1351  1.8094
   97SAPS  H17S 9682   1.610   0.420   6.326 -0.0487  0.9933 -0.9166
   97SAPS  C218 9683   1.647   0.364   6.522  0.6201  0.6079 -0.1399
   97SAPS  H18R 9684   1.655   0.261   6.482  1.1561  0.9560 -0.9676
   97SAPS  H18S 9685   1.545   0.369   6.566  0.7677  0.0910  0.2704
   97SAPS  C219 9686   1.742   0.370   6.643  0.7435  0.5759 -0.1483
   97SAPS  H19R 9687   1.729   0.470   6.689  1.4792  0.2976  0.6893
   97SAPS  H19S 9688   1.846   0.352   6.610  0.8240 -0.4080  0.5941
   97SAPS  C220 9689   1.703   0.265   6.751 -0.5209 -0.3640 -0.6413
   97SAPS  H20R 9690   1.767   0.174   6.759  0.2390  0.0029 -2.2201
   97SAPS  H20S 9691   1.594   0.241   6.749 -0.7667  0.7550 -1.5395
   97SAPS  H20T 9692   1.710   0.313   6.851 -0.0750  0.1760 -0.9278
   97SAPS   C33 9693   2.739   1.666   6.402 -0.0184 -1.2169 -0.5699
   97SAPS   H3X 9694   2.660   1.745   6.407  0.1402 -1.1028  0.2222
   97SAPS   H3Y 9695   2.818   1.705   6.469 -0.2019  0.5111 -1.3113
   97SAPS   C34 9696   2.671   1.556   6.475 -0.0517 -0.0224  0.2279
   97SAPS   H4X 9697   2.737   1.468   6.460 -0.9383 -0.7900  0.6524
   97SAPS   H4Y 9698   2.573   1.534   6.426  1.2003 -0.7151 -2.1046
   97SAPS   C35 9699   2.636   1.596   6.617 -0.0477 -0.5703  0.2276
   97SAPS   H5X 9700   2.565   1.682   6.617  2.0595  1.3198 -1.4205
   97SAPS   H5Y 9701   2.733   1.637   6.653 -1.1158 -0.0022  2.6823
   97SAPS   C36 9702   2.583   1.481   6.709  0.4764  0.2545 -0.1755
   97SAPS   H6X 9703   2.660   1.404   6.731  0.1366 -0.3820 -1.1551
   97SAPS   H6Y 9704   2.513   1.429   6.640  2.2152 -1.5516 -0.6557
   97SAPS   C37 9705   2.514   1.522   6.837 -0.5865 -0.2296 -0.7446
   97SAPS   H7X 9706   2.430   1.593   6.821 -0.2286  0.2609 -0.5034
   97SAPS   H7Y 9707   2.595   1.566   6.900 -0.2974 -2.3508  0.4446
   97SAPS   C38 9708   2.475   1.400   6.919 -0.0742 -0.3232 -0.1640
   97SAPS   H8X 9709   2.443   1.432   7.020  0.4413  1.4471 -0.5365
   97SAPS   H8Y 9710   2.561   1.335   6.947  0.9250  1.4499  1.0366
   97SAPS   C39 9711   2.355   1.314   6.859  0.0148 -0.0275 -1.6045
   97SAPS   H9X 9712   2.385   1.259   6.768 -0.3249 -2.2970 -0.4356
   97SAPS   H9Y 9713   2.265   1.374   6.834 -2.6002 -2.4063  1.2578
   97SAPS  C310 9714   2.294   1.224   6.968  0.1598 -0.0002 -0.1186
   97SAPS  H10X 9715   2.253   1.294   7.044  1.3089 -0.2636  0.7724
   97SAPS  H10Y 9716   2.375   1.171   7.023  0.6758  0.0781 -0.7796
   97SAPS  C311 9717   2.184   1.143   6.912  0.3254  0.0882  0.2168
   97SAPS  H11X 9718   2.138   1.083   6.993 -1.8246 -0.4797 -1.3226
   97SAPS  H11Y 9719   2.226   1.068   6.841  0.6233 -0.7994  1.3157
   97SAPS  C312 9720   2.071   1.228   6.850  0.3355 -0.4474 -0.8863
   97SAPS  H12X 9721   2.107   1.288   6.764  0.1423  2.0896  0.6888
   97SAPS  H12Y 9722   2.039   1.298   6.930 -3.7817 -2.2395 -0.6882
   97SAPS  C313 9723   1.947   1.142   6.815 -0.6144 -0.8592  0.0033
   97SAPS  H13X 9724   1.990   1.061   6.752 -0.4478 -0.1705 -0.7817
   97SAPS  H13Y 9725   1.876   1.204   6.756 -0.8191 -0.6211  0.4912
   97SAPS  C314 9726   1.877   1.082   6.942 -0.0756 -0.0377  0.9640
   97SAPS  H14X 9727   1.848   1.167   7.008 -1.2222  0.2779  0.0854
   97SAPS  H14Y 9728   1.949   1.021   7.000  1.5306  2.1173  1.3982
   97SAPS  C315 9729   1.744   1.011   6.930  0.8735  0.1576  0.4425
   97SAPS  H15X 9730   1.676   1.069   6.864  1.5009 -0.5770 -0.9074
   97SAPS  H15Y 9731   1.703   0.986   7.030  2.8395  0.7209  1.4307
   97SAPS  C316 9732   1.750   0.875   6.861 -0.3217 -0.6247  0.2446
   97SAPS  H16X 9733   1.776   0.795   6.934 -1.1869 -0.1325  1.1192
   97SAPS  H16Y 9734   1.834   0.870   6.789  0.6934  0.9088  1.2621
   97SAPS  C317 9735   1.615   0.842   6.799 -0.0968  0.3037 -0.2415
   97SAPS  H17X 9736   1.630   0.747   6.745  3.4870  0.1019  0.8300
   97SAPS  H17Y 9737   1.590   0.922   6.727 -0.7823 -1.1319 -1.6542
   97SAPS  C318 9738   1.500   0.826   6.897 -0.5187 -0.1302 -0.8084
   97SAPS  H18X 9739   1.543   0.741   6.953  3.3812  0.5917 -2.4127
   97SAPS  H18Y 9740   1.404   0.799   6.847  0.3626  0.8351 -3.1776
   97SAPS  H18Z 9741   1.500   0.906   6.974  0.9487 -2.0352  1.2822
   98SAPS     N 9742   0.768   2.855   5.639  0.4952  0.2351 -0.6003
   98SAPS   HN1 9743   0.845   2.789   5.661  0.1166  0.0450  0.2256
   98SAPS   HN2 9744   0.753   2.910   5.726  0.3009 -0.4515 -0.1933
   98SAPS   HN3 9745   0.693   2.792   5.604  0.6964  0.8452 -2.2373
   98SAPS   C12 9746   0.810   2.940   5.518  0.9246  0.9446  0.1362
   98SAPS  H12A 9747   0.883   3.009   5.557 -0.3205  2.0115  0.6477
   98SAPS   C13 9748   0.873   2.854   5.410  0.3877  0.3065 -0.0021
   98SAPS  O13A 9749   0.895   2.735   5.448  0.1654 -0.4412  0.2664
   98SAPS  O13B 9750   0.932   2.907   5.316  0.0779 -0.7841 -0.5956
   98SAPS   C11 9751   0.690   3.012   5.461 -0.0872 -0.1242 -0.2495
   98SAPS  H11A 9752   0.610   2.948   5.419 -1.2002  0.5843  0.7193
   98SAPS  H11B 9753   0.737   3.061   5.373  0.0283 -1.9625 -1.2564
   98SAPS     P 9754   0.504   3.199   5.516  0.1806  0.3775  0.3576
   98SAPS   O13 9755   0.550   3.327   5.455  0.5308 -0.7175 -0.1720
   98SAPS   O14 9756   0.400   3.134   5.428  0.2617 -0.4577 -0.2322
   98SAPS   O12 9757   0.631   3.106   5.552  0.4554  0.2634 -0.5180
   98SAPS   O11 9758   0.436   3.217   5.651 -0.4569  0.3940  0.3911
   98SAPS    C1 9759   0.498   3.290   5.760  0.0298  0.0524  0.4238
   98SAPS    HA 9760   0.564   3.367   5.716  1.4117 -1.2818  0.0574
   98SAPS    HB 9761   0.419   3.336   5.823 -1.2769 -0.8462 -0.5056
   98SAPS    C2 9762   0.583   3.188   5.848  0.1735  0.3073 -0.3075
   98SAPS    HS 9763   0.664   3.164   5.775  0.6768  0.1292  0.2972
   98SAPS   O21 9764   0.507   3.075   5.894  0.0833 -0.2154 -0.7150
   98SAPS   C21 9765   0.575   2.963   5.896  0.0700  0.3347 -0.3686
   98SAPS   O22 9766   0.696   2.950   5.872  0.8875  1.2431 -0.1903
   98SAPS   C22 9767   0.481   2.845   5.922  0.5446 -0.3267 -0.4015
   98SAPS   H2R 9768   0.540   2.753   5.944  0.4716  0.0349  1.4265
   98SAPS   H2S 9769   0.419   2.867   6.011 -1.8640 -1.2015 -1.7619
   98SAPS    C3 9770   0.658   3.260   5.966  0.2153  0.0229  0.7948
   98SAPS    HX 9771   0.581   3.311   6.028 -0.8701 -0.8232  0.1605
   98SAPS    HY 9772   0.726   3.340   5.929 -0.3782 -0.1933 -0.8284
   98SAPS   O31 9773   0.717   3.179   6.058 -0.1069 -0.0070 -0.8047
   98SAPS   C31 9774   0.851   3.178   6.059 -0.3289 -0.5460  0.1254
   98SAPS   O32 9775   0.926   3.269   6.032  0.0842 -0.7711 -0.0705
   98SAPS   C32 9776   0.902   3.050   6.113  0.2383  0.7285 -0.2329
   98SAPS   H2X 9777   1.010   3.037   6.092  0.4182  0.9973  0.4935
   98SAPS   H2Y 9778   0.851   2.971   6.054  3.1096 -0.1417 -1.7176
   98SAPS   C23 9779   0.384   2.808   5.805 -0.1377 -0.0128  0.3563
   98SAPS   H3R 9780   0.343   2.708   5.832  0.3473  0.0548  1.3758
   98SAPS   H3S 9781   0.446   2.788   5.715  2.9547  0.3148  2.2694
   98SAPS   C24 9782   0.271   2.911   5.782  0.4828 -0.6900  0.1322
   98SAPS   H4R 9783   0.310   3.008   5.745 -0.6723  0.2211  1.2049
   98SAPS   H4S 9784   0.225   2.935   5.880  1.0958 -2.1741  0.8116
   98SAPS   C25 9785   0.158   2.854   5.686 -0.1508 -0.7643  0.5107
   98SAPS   H5R 9786   0.186   2.793   5.598 -0.2060  1.3520 -1.0524
   98SAPS   C26 9787   0.025   2.874   5.708  0.0114 -0.2913 -0.2326
   98SAPS   H6R 9788  -0.048   2.846   5.631  0.2831 -0.3763 -0.4580
   98SAPS   C27 9789  -0.036   2.958   5.820  0.5799 -0.7389  0.4401
   98SAPS   H7R 9790  -0.042   3.057   5.771 -0.1173 -1.2653 -0.5763
   98SAPS   H7S 9791   0.032   2.955   5.908  2.0592 -1.9706 -0.6882
   98SAPS   C28 9792  -0.182   2.919   5.852 -0.1770 -0.4644  0.6005
   98SAPS   H8R 9793  -0.243   2.890   5.765 -0.2953  3.1648 -0.6960
   98SAPS   C29 9794  -0.239   2.900   5.972  0.0423 -0.4136 -0.2635
   98SAPS   H9R 9795  -0.345   2.876   5.988  0.3869 -0.2758  3.0040
   98SAPS  C210 9796  -0.175   2.911   6.102  0.5120  0.4934  0.0844
   98SAPS  H10R 9797  -0.069   2.878   6.104  0.4361  0.1836 -0.6423
   98SAPS  H10S 9798  -0.223   2.834   6.166  1.2643 -0.5881 -0.6306
   98SAPS  C211 9799  -0.180   3.045   6.171  0.3143  0.3394  0.1857
   98SAPS  H11R 9800  -0.180   3.124   6.095 -0.9097  0.6977  0.5304
   98SAPS  C212 9801  -0.143   3.060   6.296  0.1696 -0.9921  0.0665
   98SAPS  H12R 9802  -0.150   3.160   6.343 -0.3619  0.3470 -2.6348
   98SAPS  C213 9803  -0.122   2.962   6.401 -0.0748  0.8403 -0.6878
   98SAPS  H13R 9804  -0.152   2.860   6.368 -0.8468 -0.6865  4.0094
   98SAPS  H13S 9805  -0.190   2.984   6.487 -0.1012 -0.3650 -0.3853
   98SAPS  C214 9806   0.016   2.951   6.458 -0.2650  0.1334 -1.0231
   98SAPS  H14R 9807   0.098   2.964   6.386  1.7006 -0.6688  0.9220
   98SAPS  C215 9808   0.043   2.917   6.590  0.8046 -0.2385 -0.0349
   98SAPS  H15R 9809   0.147   2.900   6.622  0.9733  0.9619  0.0839
   98SAPS  C216 9810  -0.055   2.883   6.702 -0.0732  0.3281  0.2335
   98SAPS  H16R 9811  -0.054   2.779   6.740  1.0728  0.9227  1.9720
   98SAPS  H16S 9812  -0.159   2.904   6.669  0.5981  1.6378 -1.1526
   98SAPS  C217 9813  -0.035   2.974   6.829  0.2758 -0.0047  0.1961
   98SAPS  H17R 9814  -0.024   3.076   6.786 -0.2326 -1.1784 -3.0062
   98SAPS  H17S 9815   0.061   2.940   6.873  0.5725 -0.2857 -0.6496
   98SAPS  C218 9816  -0.155   2.980   6.920  0.5280 -0.1073 -0.3337
   98SAPS  H18R 9817  -0.182   2.890   6.980 -2.2641  0.5846 -0.4365
   98SAPS  H18S 9818  -0.249   3.007   6.867  0.7432  1.7044  0.1245
   98SAPS  C219 9819  -0.138   3.095   7.017  0.4609  0.4881 -0.3991
   98SAPS  H19R 9820  -0.090   3.183   6.971  0.8552  2.0363  2.7590
   98SAPS  H19S 9821  -0.070   3.063   7.098  0.1318 -1.4302 -0.8268
   98SAPS  C220 9822  -0.273   3.126   7.087 -0.3374  0.1976  0.1993
   98SAPS  H20R 9823  -0.291   3.041   7.157  1.3240  0.7838  1.3938
   98SAPS  H20S 9824  -0.359   3.141   7.019 -0.4156  0.4303  0.3501
   98SAPS  H20T 9825  -0.249   3.217   7.145  0.9536 -0.0682  0.1204
   98SAPS   C33 9826   0.874   3.042   6.274  0.1072 -0.5461 -0.4667
   98SAPS   H3X 9827   0.894   2.938   6.307  1.7473 -0.0807  0.0700
   98SAPS   H3Y 9828   0.768   3.076   6.287  0.6443  1.7610 -1.5824
   98SAPS   C34 9829   0.972   3.129   6.366 -0.6179  0.4713  0.2702
   98SAPS   H4X 9830   0.976   3.236   6.335 -0.6131  0.9182  1.7488
   98SAPS   H4Y 9831   1.072   3.089   6.338 -0.8457 -0.1608  0.3469
   98SAPS   C35 9832   0.937   3.133   6.511  0.6008  0.5825 -0.3903
   98SAPS   H5X 9833   0.915   3.028   6.539  3.9243  0.2139  1.2445
   98SAPS   H5Y 9834   0.844   3.193   6.525 -0.6028 -1.1701 -0.4668
   98SAPS   C36 9835   1.050   3.174   6.598  0.1107 -0.7741 -0.0506
   98SAPS   H6X 9836   1.068   3.282   6.577 -0.7892 -0.7871 -0.9487
   98SAPS   H6Y 9837   1.144   3.131   6.558  0.1339  1.5628 -2.8976
   98SAPS   C37 9838   1.039   3.174   6.746  0.5401  0.2234 -0.2406
   98SAPS   H7X 9839   1.045   3.066   6.774  0.6410  0.2207 -0.2730
   98SAPS   H7Y 9840   0.939   3.210   6.778  0.7056 -0.0574  0.6382
   98SAPS   C38 9841   1.147   3.250   6.819 -0.3415  0.2998 -0.5525
   98SAPS   H8X 9842   1.141   3.358   6.794 -0.7076  0.1711 -1.0419
   98SAPS   H8Y 9843   1.253   3.220   6.799  0.9746  3.0831  1.6160
   98SAPS   C39 9844   1.135   3.235   6.973  0.8278  0.2786 -0.0776
   98SAPS   H9X 9845   1.127   3.127   6.998 -0.5942  0.7123  1.4476
   98SAPS   H9Y 9846   1.036   3.284   6.983  0.3510 -0.2532 -1.7020
   98SAPS  C310 9847   1.257   3.294   7.056 -0.6558 -0.2291  0.7007
   98SAPS  H10X 9848   1.245   3.404   7.053 -3.4784 -0.4818 -0.4008
   98SAPS  H10Y 9849   1.347   3.261   7.000  0.1647  0.6251  1.4840
   98SAPS  C311 9850   1.272   3.247   7.196 -0.2120  0.3033  0.0902
   98SAPS  H11X 9851   1.360   3.300   7.238  0.7791 -0.2102 -1.2866
   98SAPS  H11Y 9852   1.301   3.142   7.173 -0.8115  0.0180  0.6138
   98SAPS  C312 9853   1.156   3.252   7.285  0.7001 -0.5300  0.0163
   98SAPS  H12X 9854   1.075   3.185   7.249 -2.9457  1.5758  3.5026
   98SAPS  H12Y 9855   1.116   3.355   7.282  1.1490 -0.3713 -0.8128
   98SAPS  C313 9856   1.187   3.201   7.424  0.8563  0.1423 -0.2406
   98SAPS  H13X 9857   1.287   3.224   7.468  0.3293 -0.3349  1.2805
   98SAPS  H13Y 9858   1.189   3.090   7.425  0.0501  0.1163 -0.5836
   98SAPS  C314 9859   1.079   3.242   7.530  0.1083  0.6044  0.9459
   98SAPS  H14X 9860   0.999   3.168   7.509 -0.7560  1.8725 -0.3804
   98SAPS  H14Y 9861   1.036   3.342   7.508 -0.9371 -0.6099 -3.6209
   98SAPS  C315 9862   1.124   3.243   7.672  0.7368 -0.0209 -0.5659
   98SAPS  H15X 9863   1.201   3.322   7.688  1.0275 -0.5187  0.6170
   98SAPS  H15Y 9864   1.175   3.149   7.703  1.1663  0.7616  1.2600
   98SAPS  C316 9865   1.010   3.275   7.764 -0.3506  0.5256 -0.1213
   98SAPS  H16X 9866   1.043   3.249   7.867 -1.3062 -0.5451 -0.0649
   98SAPS  H16Y 9867   0.938   3.193   7.740  1.3561 -1.1482  0.2445
   98SAPS  C317 9868   0.947   3.417   7.775 -0.1038  0.8653 -0.2234
   98SAPS  H17X 9869   0.873   3.407   7.857 -0.1390 -0.1705 -0.3699
   98SAPS  H17Y 9870   0.887   3.436   7.684  0.4521  1.6027 -0.4469
   98SAPS  C318 9871   1.043   3.541   7.784 -0.0307  0.5015  0.2271
   98SAPS  H18X 9872   1.107   3.515   7.871 -1.1060 -0.3158  0.8068
   98SAPS  H18Y 9873   0.994   3.638   7.810 -1.2682 -0.0132 -0.1095
   98SAPS  H18Z 9874   1.101   3.559   7.692  0.9559  1.7880  1.0587
   99SAPS     N 9875   5.505   6.769   5.503 -0.2157  0.5012  0.0350
   99SAPS   HN1 9876   5.504   6.777   5.606  1.8864  0.7656  0.0710
   99SAPS   HN2 9877   5.414   6.721   5.485 -1.9835  1.8238  4.2905
   99SAPS   HN3 9878   5.582   6.701   5.482  0.4729  0.8840  1.2573
   99SAPS   C12 9879   5.509   6.888   5.425  0.4084 -0.2704 -0.5524
   99SAPS  H12A 9880   5.512   6.858   5.322 -1.9407  0.4851 -0.8908
   99SAPS   C13 9881   5.386   6.983   5.443  0.3236 -0.7146  0.4590
   99SAPS  O13A 9882   5.283   6.948   5.504 -0.7215  0.1857 -0.5130
   99SAPS  O13B 9883   5.385   7.091   5.377  0.5075  0.4405  0.0767
   99SAPS   C11 9884   5.642   6.965   5.465  0.1793 -0.5676  0.8724
   99SAPS  H11A 9885   5.650   6.962   5.576 -1.7066  3.8619  1.3461
   99SAPS  H11B 9886   5.632   7.070   5.431 -1.8219 -1.2255 -0.8094
   99SAPS     P 9887   5.842   6.792   5.466  0.1070  0.5025  0.3341
   99SAPS   O13 9888   5.761   6.674   5.446  0.3189  0.0344  0.7678
   99SAPS   O14 9889   5.973   6.792   5.411 -0.1734 -0.0420  0.0034
   99SAPS   O12 9890   5.757   6.910   5.406  0.0412 -0.4618  0.2781
   99SAPS   O11 9891   5.844   6.833   5.615  0.1096 -0.5200  0.5138
   99SAPS    C1 9892   5.917   6.948   5.661 -0.8910 -0.1059  0.3354
   99SAPS    HA 9893   5.916   7.025   5.581 -2.9449 -0.7964 -0.3705
   99SAPS    HB 9894   5.864   6.994   5.748 -0.3856 -1.0619  1.1676
   99SAPS    C2 9895   6.064   6.900   5.694  0.0340  0.0240  0.7908
   99SAPS    HS 9896   6.114   6.852   5.607 -0.3838 -1.2098  1.2101
   99SAPS   O21 9897   6.055   6.811   5.808  0.4335 -0.5577 -0.6330
   99SAPS   C21 9898   6.164   6.742   5.838  0.0902 -0.4673 -0.7029
   99SAPS   O22 9899   6.267   6.734   5.772  0.1296  0.0576 -0.3829
   99SAPS   C22 9900   6.144   6.667   5.966 -1.0717 -0.1415 -0.4623
   99SAPS   H2R 9901   6.046   6.616   5.974 -0.6111 -0.9893 -0.0831
   99SAPS   H2S 9902   6.224   6.591   5.954  0.6877  1.4123  0.7205
   99SAPS    C3 9903   6.145   7.025   5.741  0.0949 -0.4786  0.0201
   99SAPS    HX 9904   6.148   7.089   5.650 -0.2173 -0.9303 -0.3146
   99SAPS    HY 9905   6.249   6.992   5.761 -0.4527 -0.8870  2.5042
   99SAPS   O31 9906   6.092   7.098   5.859  0.4333  0.6038 -0.4410
   99SAPS   C31 9907   6.186   7.151   5.927 -0.1372  0.0702  0.2764
   99SAPS   O32 9908   6.302   7.163   5.902 -0.1349  0.4473 -0.6077
   99SAPS   C32 9909   6.114   7.222   6.035 -0.9901 -0.9503  0.2880
   99SAPS   H2X 9910   6.007   7.194   6.032 -0.9526 -1.0533 -2.2309
   99SAPS   H2Y 9911   6.116   7.330   6.007 -2.2691 -0.3151  2.4005
   99SAPS   C23 9912   6.154   6.760   6.094 -0.2105  0.1314 -0.3709
   99SAPS   H3R 9913   6.090   6.718   6.175  0.2543 -0.4611 -0.3002
   99SAPS   H3S 9914   6.124   6.864   6.069  0.8585  0.6344  0.3742
   99SAPS   C24 9915   6.299   6.768   6.140  1.0518 -0.4773 -0.0030
   99SAPS   H4R 9916   6.308   6.828   6.233 -0.9558 -0.9868  0.5749
   99SAPS   H4S 9917   6.347   6.829   6.061  0.3981  0.4832  0.3105
   99SAPS   C25 9918   6.365   6.639   6.159 -0.2314  0.5870 -0.1925
   99SAPS   H5R 9919   6.407   6.600   6.065  0.8537 -1.1108  0.9507
   99SAPS   C26 9920   6.381   6.564   6.275  0.3299  0.8380  0.2226
   99SAPS   H6R 9921   6.433   6.468   6.272  2.2414  1.7463  1.7798
   99SAPS   C27 9922   6.338   6.621   6.407  0.3273 -0.8334 -0.2039
   99SAPS   H7R 9923   6.309   6.530   6.463 -0.2457 -0.2040  0.5353
   99SAPS   H7S 9924   6.252   6.689   6.391  2.4725  2.2344  0.4795
   99SAPS   C28 9925   6.426   6.710   6.484  0.7302  0.1851 -0.6171
   99SAPS   H8R 9926   6.503   6.752   6.418  0.9510  1.2528  0.2734
   99SAPS   C29 9927   6.424   6.745   6.616 -0.4654 -0.1199  0.1965
   99SAPS   H9R 9928   6.495   6.817   6.661  0.8020 -1.8571  1.1553
   99SAPS  C210 9929   6.318   6.691   6.716 -0.2678 -0.3224 -0.8749
   99SAPS  H10R 9930   6.262   6.607   6.670  1.0751 -1.3008 -0.7879
   99SAPS  H10S 9931   6.245   6.766   6.752  0.1689 -0.4413  0.2991
   99SAPS  C211 9932   6.387   6.649   6.843 -0.8669 -0.1764  0.7939
   99SAPS  H11R 9933   6.497   6.650   6.836 -0.9140  1.9367 -0.2796
   99SAPS  C212 9934   6.325   6.609   6.956  0.1634 -0.2328  0.1534
   99SAPS  H12R 9935   6.389   6.558   7.029  0.9317  1.0710  0.4202
   99SAPS  C213 9936   6.177   6.603   6.978  0.1032 -0.5535  0.0550
   99SAPS  H13R 9937   6.138   6.508   6.936 -0.9602 -0.2199  0.2570
   99SAPS  H13S 9938   6.132   6.681   6.913  2.2146  0.3106 -0.4574
   99SAPS  C214 9939   6.130   6.611   7.122  0.4734  0.4327  0.7257
   99SAPS  H14R 9940   6.188   6.677   7.188 -1.3049  1.7791  1.0231
   99SAPS  C215 9941   6.016   6.552   7.170 -0.4407 -0.2192  0.2100
   99SAPS  H15R 9942   6.010   6.553   7.279 -1.1608  2.0723  0.2023
   99SAPS  C216 9943   5.906   6.476   7.095 -0.8294 -0.0014  0.1085
   99SAPS  H16R 9944   5.925   6.489   6.986  1.6842 -0.0906  0.4938
   99SAPS  H16S 9945   5.806   6.525   7.104 -1.3545 -1.0324  0.0939
   99SAPS  C217 9946   5.891   6.330   7.139 -0.5932 -0.3348 -0.0523
   99SAPS  H17R 9947   5.825   6.325   7.228 -3.1345  1.4923 -1.6905
   99SAPS  H17S 9948   5.992   6.285   7.146 -0.2367  0.2706 -0.9922
   99SAPS  C218 9949   5.794   6.254   7.050 -0.3922 -0.0120 -0.2226
   99SAPS  H18R 9950   5.831   6.228   6.948  0.1248  0.9088 -0.2753
   99SAPS  H18S 9951   5.702   6.314   7.034  0.1693  0.4141 -2.2125
   99SAPS  C219 9952   5.753   6.123   7.112 -0.5504 -0.0344 -0.1389
   99SAPS  H19R 9953   5.844   6.068   7.142  0.5948  2.3153  0.9781
   99SAPS  H19S 9954   5.692   6.074   7.034 -0.0443  0.2833 -0.7455
   99SAPS  C220 9955   5.656   6.122   7.230  0.4390  0.0775 -0.3156
   99SAPS  H20R 9956   5.589   6.207   7.208  1.5236  0.8326 -0.7795
   99SAPS  H20S 9957   5.705   6.137   7.329 -2.2837 -0.6567  1.2427
   99SAPS  H20T 9958   5.591   6.033   7.245 -2.2200  1.9591  0.0777
   99SAPS   C33 9959   6.174   7.187   6.169 -0.0680 -0.5990  0.8221
   99SAPS   H3X 9960   6.272   7.237   6.185 -0.9186  1.6889 -0.5452
   99SAPS   H3Y 9961   6.180   7.077   6.160 -5.4578 -1.1308  0.3682
   99SAPS   C34 9962   6.092   7.231   6.295 -0.1708  0.6156  1.1292
   99SAPS   H4X 9963   5.983   7.235   6.277  0.1804 -0.5229 -1.9216
   99SAPS   H4Y 9964   6.127   7.333   6.322 -0.3525  0.6952  1.0626
   99SAPS   C35 9965   6.125   7.130   6.409 -0.3281 -0.2582 -0.3660
   99SAPS   H5X 9966   6.230   7.151   6.438 -0.9374  3.7463 -0.5181
   99SAPS   H5Y 9967   6.113   7.027   6.370 -1.5278 -0.0949 -0.4793
   99SAPS   C36 9968   6.040   7.144   6.532 -0.7377 -0.4562 -0.0819
   99SAPS   H6X 9969   5.934   7.121   6.508 -1.0419  0.3186  0.4784
   99SAPS   H6Y 9970   6.047   7.250   6.563  0.7661  0.2479 -2.5218
   99SAPS   C37 9971   6.085   7.051   6.647  0.1344 -0.1279  0.1624
   99SAPS   H7X 9972   6.180   7.092   6.686  0.5435 -1.2165  0.3551
   99SAPS   H7Y 9973   6.111   6.948   6.614  0.1727  0.0137 -0.2526
   99SAPS   C38 9974   5.972   7.045   6.761  0.3882 -0.5776 -0.3327
   99SAPS   H8X 9975   5.891   6.982   6.718 -1.3647 -0.1357  2.1302
   99SAPS   H8Y 9976   5.936   7.150   6.763 -0.6685 -0.9282 -0.6137
   99SAPS   C39 9977   6.030   6.991   6.894 -0.2560 -0.4738  0.3420
   99SAPS   H9X 9978   6.093   6.899   6.882 -0.4352 -0.8983  2.2476
   99SAPS   H9Y 9979   5.939   6.953   6.946 -1.1300  1.1338  0.0252
   99SAPS  C310 9980   6.092   7.103   6.984 -0.0615 -0.6497  0.2245
   99SAPS  H10X 9981   6.020   7.184   6.962 -1.2431 -2.1692 -1.8890
   99SAPS  H10Y 9982   6.191   7.131   6.942 -0.6093 -1.4816 -1.7525
   99SAPS  C311 9983   6.114   7.066   7.133  0.6342 -0.0929  0.2348
   99SAPS  H11X 9984   6.160   6.965   7.141  1.0526  0.1712  1.2878
   99SAPS  H11Y 9985   6.017   7.043   7.181  0.0648  1.8673  0.1066
   99SAPS  C312 9986   6.194   7.168   7.214  0.1052 -0.0367  0.1508
   99SAPS  H12X 9987   6.141   7.265   7.204 -1.2021 -0.6009  1.3593
   99SAPS  H12Y 9988   6.292   7.171   7.160 -0.8184 -0.9763 -1.6730
   99SAPS  C313 9989   6.208   7.139   7.364  0.3256 -0.0638 -0.2490
   99SAPS  H13X 9990   6.254   7.225   7.418 -0.2834 -0.1348  0.4051
   99SAPS  H13Y 9991   6.274   7.053   7.383  0.7623  0.0001 -1.3649
   99SAPS  C314 9992   6.067   7.114   7.424 -0.4587  0.1582  0.4527
   99SAPS  H14X 9993   6.038   7.011   7.391 -0.2027  0.0498  0.5643
   99SAPS  H14Y 9994   5.993   7.185   7.382 -0.9431 -0.6433 -0.0746
   99SAPS  C315 9995   6.075   7.097   7.579 -0.1569 -0.3686 -0.5668
   99SAPS  H15X 9996   6.162   7.039   7.618 -0.7444  0.1105  1.6064
   99SAPS  H15Y 9997   5.987   7.035   7.606 -0.5359  1.0126  1.6399
   99SAPS  C316 9998   6.065   7.232   7.656 -0.0059 -0.3607 -0.0106
   99SAPS  H16X 9999   6.003   7.311   7.608  0.2654 -0.2363 -0.1605
   99SAPS  H16Y10000   6.169   7.271   7.664  0.1674 -1.0183  1.2208
   99SAPS  C31710001   6.019   7.217   7.798 -0.3135 -0.4698 -0.5223
   99SAPS  H17X10002   6.088   7.137   7.832  0.6890 -0.6829 -2.8561
   99SAPS  H17Y10003   5.911   7.191   7.808 -0.8948  2.1032  0.6045
   99SAPS  C31810004   6.043   7.345   7.881 -0.1793  0.6054 -0.6498
   99SAPS  H18X10005   5.977   7.425   7.842 -3.0026 -2.4259 -2.6134
   99SAPS  H18Y10006   6.151   7.371   7.877  0.1133 -0.0927  1.4137
   99SAPS  H18Z10007   6.015   7.319   7.985  0.4391 -3.7333 -1.3760
  100SAPS     N10008   1.318   0.364   5.684  0.0849  0.3903 -0.5963
  100SAPS   HN110009   1.359   0.419   5.606  0.6701  0.3070 -0.3520
  100SAPS   HN210010   1.255   0.418   5.746 -1.3811 -2.0275  0.1491
  100SAPS   HN310011   1.397   0.325   5.739 -0.2005 -1.2630 -1.3037
  100SAPS   C1210012   1.237   0.249   5.617  0.3180 -0.8364 -0.2018
  100SAPS  H12A10013   1.138   0.285   5.593  0.7974  0.3731 -0.4351
  100SAPS   C1310014   1.296   0.192   5.485  0.8417  0.3135 -0.4925
  100SAPS  O13A10015   1.396   0.261   5.441 -0.1297 -0.0834 -0.0642
  100SAPS  O13B10016   1.225   0.127   5.414 -0.3436 -0.1340 -0.6021
  100SAPS   C1110017   1.221   0.128   5.716  0.5209  0.4708 -0.4525
  100SAPS  H11A10018   1.317   0.091   5.758 -0.1306  1.2021  1.8383
  100SAPS  H11B10019   1.160   0.052   5.664 -0.3847  0.9066 -0.0474
  100SAPS     P10020   1.085   0.070   5.937  0.5561 -0.0420  0.1606
  100SAPS   O1310021   0.938   0.088   5.936 -0.3332 -0.0971  0.1506
  100SAPS   O1410022   1.136  -0.063   5.905 -0.0814 -0.0241 -0.4504
  100SAPS   O1210023   1.144   0.171   5.827 -0.1003 -0.1141 -0.3061
  100SAPS   O1110024   1.145   0.122   6.075 -0.5036 -0.5890  0.0621
  100SAPS    C110025   1.206   0.248   6.092 -0.0835  0.6393  0.3398
  100SAPS    HA10026   1.279   0.261   6.008  0.1196  0.8370  0.5467
  100SAPS    HB10027   1.130   0.328   6.082 -1.4126 -0.0829  3.5234
  100SAPS    C210028   1.286   0.267   6.222 -0.2714 -0.0452  0.0680
  100SAPS    HS10029   1.365   0.341   6.199  0.2715 -0.7963 -0.5319
  100SAPS   O2110030   1.344   0.143   6.274 -0.0295 -0.3379  0.1606
  100SAPS   C2110031   1.452   0.104   6.209 -0.1061 -0.2171  0.1941
  100SAPS   O2210032   1.499   0.158   6.111  0.0653  0.1951  0.5190
  100SAPS   C2210033   1.492  -0.026   6.267 -0.3123 -0.5494  0.0050
  100SAPS   H2R10034   1.399  -0.086   6.284 -0.3641 -0.3886  0.3048
  100SAPS   H2S10035   1.552  -0.084   6.194  0.7330  0.6939 -0.1368
  100SAPS    C310036   1.198   0.334   6.330  0.1010 -0.8306  0.2355
  100SAPS    HX10037   1.120   0.260   6.356  3.1310 -3.6155  2.1688
  100SAPS    HY10038   1.149   0.426   6.290  1.1511 -1.0375 -1.6403
  100SAPS   O3110039   1.266   0.370   6.451  0.4453 -0.1082 -0.7233
  100SAPS   C3110040   1.212   0.351   6.575  0.3793 -0.0730  0.7362
  100SAPS   O3210041   1.114   0.287   6.594  0.0790  0.3339  0.0914
  100SAPS   C3210042   1.289   0.414   6.689  0.0506  0.3773 -0.0768
  100SAPS   H2X10043   1.311   0.519   6.659  2.5904 -0.4720 -1.5761
  100SAPS   H2Y10044   1.385   0.358   6.691  1.0788  2.0620 -0.0235
  100SAPS   C2310045   1.569  -0.018   6.400 -0.5047  0.3439 -0.5404
  100SAPS   H3R10046   1.506   0.047   6.465 -0.3176  0.4267 -0.4427
  100SAPS   H3S10047   1.672   0.020   6.382  0.6833 -2.0979  0.6803
  100SAPS   C2410048   1.592  -0.159   6.459 -0.1306  0.4070  0.1935
  100SAPS   H4R10049   1.642  -0.213   6.376  1.2826  1.4090  0.3453
  100SAPS   H4S10050   1.494  -0.207   6.481  1.8013 -3.0927  2.0228
  100SAPS   C2510051   1.679  -0.172   6.584 -0.1939  0.6251  0.4360
  100SAPS   H5R10052   1.780  -0.215   6.573 -0.4215  0.3624 -0.8209
  100SAPS   C2610053   1.635  -0.145   6.703  0.0739  0.0143  0.1772
  100SAPS   H6R10054   1.704  -0.137   6.789 -0.9025 -0.2371  0.9982
  100SAPS   C2710055   1.498  -0.097   6.738  0.3478  0.4706  0.0348
  100SAPS   H7R10056   1.431  -0.076   6.651  0.2098  0.2589  0.0875
  100SAPS   H7S10057   1.493   0.001   6.790 -2.4943  1.0775 -1.1616
  100SAPS   C2810058   1.431  -0.217   6.808 -0.2481  0.1705 -1.1429
  100SAPS   H8R10059   1.400  -0.297   6.739 -0.0575 -1.9529  1.0881
  100SAPS   C2910060   1.411  -0.224   6.941 -0.8164  0.5178  0.6466
  100SAPS   H9R10061   1.384  -0.320   6.988 -0.9737 -0.7451 -1.8746
  100SAPS  C21010062   1.455  -0.125   7.048 -0.3158 -0.7273  0.9305
  100SAPS  H10R10063   1.551  -0.086   7.009 -1.4506  1.6961  0.3641
  100SAPS  H10S10064   1.479  -0.176   7.144  0.2499 -0.9544  0.6741
  100SAPS  C21110065   1.364  -0.008   7.060 -0.0299 -0.3505 -0.1154
  100SAPS  H11R10066   1.385   0.072   6.988 -0.3731  0.4420  0.6335
  100SAPS  C21210067   1.294   0.024   7.174  0.4462 -0.6486 -0.6410
  100SAPS  H12R10068   1.230   0.113   7.175 -2.2061 -2.3237 -2.7662
  100SAPS  C21310069   1.269  -0.075   7.286 -0.9409 -0.1413 -0.5913
  100SAPS  H13R10070   1.204  -0.037   7.368 -0.1087  0.4323 -0.1787
  100SAPS  H13S10071   1.369  -0.084   7.333 -1.4901  1.7111  1.0852
  100SAPS  C21410072   1.209  -0.206   7.239  1.1733  0.5415  0.0085
  100SAPS  H14R10073   1.241  -0.239   7.139  1.4883 -2.2332  0.9315
  100SAPS  C21510074   1.125  -0.293   7.301 -0.2238  0.2923 -0.6206
  100SAPS  H15R10075   1.089  -0.384   7.250 -2.8686  0.2169  1.1476
  100SAPS  C21610076   1.067  -0.279   7.447  0.3987 -0.5448  0.1646
  100SAPS  H16R10077   0.985  -0.204   7.446 -0.3702 -1.3684 -0.2730
  100SAPS  H16S10078   1.145  -0.236   7.513  0.4512  0.8887 -0.7823
  100SAPS  C21710079   1.014  -0.401   7.510  0.2366  0.0593 -0.6824
  100SAPS  H17R10080   1.086  -0.481   7.538  0.1955 -0.2259 -1.3571
  100SAPS  H17S10081   0.943  -0.454   7.442 -1.1919  1.1014 -0.0539
  100SAPS  C21810082   0.922  -0.369   7.638 -0.3754  0.0360 -0.2115
  100SAPS  H18R10083   0.871  -0.463   7.667 -0.1706  0.1891  0.6668
  100SAPS  H18S10084   0.839  -0.300   7.614 -0.3800  0.1163  0.0391
  100SAPS  C21910085   1.002  -0.294   7.749  0.3557 -0.4103 -0.4688
  100SAPS  H19R10086   0.940  -0.273   7.838  0.7771 -1.4867  0.0894
  100SAPS  H19S10087   1.045  -0.201   7.706  1.8295 -0.9731 -0.3004
  100SAPS  C22010088   1.116  -0.377   7.810 -0.4266  0.1865 -0.2051
  100SAPS  H20R10089   1.204  -0.319   7.845 -1.9634  1.9609  0.9623
  100SAPS  H20S10090   1.166  -0.435   7.729  0.2424  0.3962  0.0510
  100SAPS  H20T10091   1.082  -0.451   7.885 -1.1649  0.5659 -0.1575
  100SAPS   C3310092   1.210   0.412   6.824  0.1987  0.1034 -0.0527
  100SAPS   H3X10093   1.188   0.308   6.857  0.2851  0.2900  0.6094
  100SAPS   H3Y10094   1.116   0.472   6.821 -1.4031 -2.0567  2.2950
  100SAPS   C3410095   1.298   0.484   6.934  0.0594  0.3119 -0.3766
  100SAPS   H4X10096   1.231   0.484   7.023 -1.1144 -0.5870 -1.2267
  100SAPS   H4Y10097   1.314   0.591   6.910  0.6675  0.4424  0.5869
  100SAPS   C3510098   1.426   0.416   6.966  0.3115 -0.3687 -0.8504
  100SAPS   H5X10099   1.515   0.447   6.908  0.5977 -0.4990 -0.4856
  100SAPS   H5Y10100   1.421   0.306   6.953 -1.0228 -0.1583 -2.3809
  100SAPS   C3610101   1.465   0.447   7.111  0.4553  0.2428 -1.0751
  100SAPS   H6X10102   1.391   0.394   7.174  1.5970  0.5753  0.6053
  100SAPS   H6Y10103   1.466   0.557   7.129 -0.7723  0.2442 -0.9661
  100SAPS   C3710104   1.605   0.391   7.144  0.2971 -0.1723  0.2524
  100SAPS   H7X10105   1.622   0.447   7.239  3.6351 -0.2309 -0.2114
  100SAPS   H7Y10106   1.688   0.429   7.081 -1.1174  0.7607 -1.1510
  100SAPS   C3810107   1.618   0.244   7.163 -0.3805  0.3988  0.3197
  100SAPS   H8X10108   1.587   0.192   7.070  2.6348  3.2392 -2.5293
  100SAPS   H8Y10109   1.557   0.222   7.253 -1.1562  3.4191  0.6195
  100SAPS   C3910110   1.769   0.218   7.184  0.1350  0.1813  0.2933
  100SAPS   H9X10111   1.800   0.267   7.279 -0.7757  0.1260  0.6288
  100SAPS   H9Y10112   1.838   0.251   7.103  0.5486 -1.3331 -0.0066
  100SAPS  C31010113   1.810   0.074   7.205  0.1567 -0.0577  0.3830
  100SAPS  H10X10114   1.920   0.077   7.221  0.3772 -1.6310 -0.6325
  100SAPS  H10Y10115   1.781   0.009   7.120  0.7536 -3.6838  2.7319
  100SAPS  C31110116   1.738   0.011   7.322 -0.1214 -0.2244 -0.1835
  100SAPS  H11X10117   1.629  -0.003   7.305 -0.0273 -1.0159 -0.2151
  100SAPS  H11Y10118   1.758   0.071   7.413 -0.8398  0.3438 -0.3983
  100SAPS  C31210119   1.784  -0.137   7.352  0.0591  0.5272 -0.1436
  100SAPS  H12X10120   1.808  -0.196   7.261  1.0092  1.9530 -0.8499
  100SAPS  H12Y10121   1.695  -0.187   7.397  0.2822 -0.8998 -1.2224
  100SAPS  C31310122   1.903  -0.155   7.447  0.3952 -0.3900  0.1809
  100SAPS  H13X10123   1.882  -0.087   7.532 -1.9449 -0.8024 -0.0126
  100SAPS  H13Y10124   1.994  -0.120   7.393  0.4119 -2.2189 -1.0500
  100SAPS  C31410125   1.929  -0.306   7.485 -0.3988  0.1665 -0.4643
  100SAPS  H14X10126   1.966  -0.355   7.392  1.0274 -1.5312  0.9231
  100SAPS  H14Y10127   1.839  -0.353   7.530 -2.4145  2.6064 -1.7601
  100SAPS  C31510128   2.042  -0.312   7.578 -0.3866 -0.1797  0.4748
  100SAPS  H15X10129   2.131  -0.264   7.532 -1.2743  0.4850 -0.5832
  100SAPS  H15Y10130   2.074  -0.418   7.593 -2.7542 -0.9090  0.8676
  100SAPS  C31610131   2.014  -0.245   7.714 -0.0393 -0.3480  0.3004
  100SAPS  H16X10132   1.928  -0.293   7.765 -0.3939  2.5619  2.6734
  100SAPS  H16Y10133   1.987  -0.138   7.703  2.1188  0.0658 -2.0471
  100SAPS  C31710134   2.126  -0.257   7.819 -0.0540  0.0042 -0.3919
  100SAPS  H17X10135   2.222  -0.212   7.785 -0.5392  0.5772 -1.0431
  100SAPS  H17Y10136   2.142  -0.366   7.832  2.1432  0.4230  0.7784
  100SAPS  C31810137   2.089  -0.204   7.961 -0.4758 -0.7734  0.2340
  100SAPS  H18X10138   2.061  -0.097   7.961 -1.5703 -1.0299  1.3412
  100SAPS  H18Y10139   2.175  -0.225   8.029 -0.7960 -2.1762  0.2403
  100SAPS  H18Z10140   2.000  -0.252   8.006 -1.4977  1.2064  0.4344
  101OSM      N10141   4.271   3.251  10.432  0.1473  0.7165  0.5789
  101OSM    C1510142   4.382   3.303  10.515  0.2139  0.1085  0.1791
  101OSM   H15A10143   4.454   3.223  10.525 -1.0547 -0.9636  1.1117
  101OSM   H15B10144   4.357   3.350  10.608  0.1837 -0.6894  0.5815
  101OSM   H15C10145   4.439   3.379  10.464 -0.7539  0.7325  0.0038
  101OSM    C1410146   4.175   3.166  10.511 -0.0149 -0.1580 -0.2472
  101OSM   H14A10147   4.120   3.238  10.570  0.5303  2.5576 -2.7765
  101OSM   H14B10148   4.222   3.103  10.585  0.0308 -1.7274 -1.5717
  101OSM   H14C10149   4.111   3.106  10.448 -1.7229 -0.2701  1.5316
  101OSM    C1310150   4.182   3.369  10.397  0.0358  0.0298  0.4057
  101OSM   H13A10151   4.231   3.436  10.327 -0.7294 -1.0638 -1.2451
  101OSM   H13B10152   4.141   3.419  10.483  0.9957  2.4405 -0.4396
  101OSM   H13C10153   4.092   3.335  10.349 -1.3272  0.8367  2.3064
  101OSM    C1210154   4.322   3.180  10.308  0.0019  0.8431  0.2091
  101OSM   H12A10155   4.406   3.116  10.334 -0.4458 -0.6344 -1.7784
  101OSM   H12B10156   4.350   3.258  10.239  1.4888 -0.0175 -0.2003
  101OSM    C1110157   4.232   3.073  10.237 -0.8727 -0.3097  0.2591
  101OSM   H11A10158   4.275   3.030  10.143 -1.0140 -1.1760  0.5779
  101OSM   H11B10159   4.139   3.126  10.208 -0.4263  1.6428  2.2273
  101OSM      P10160   4.305   2.841  10.340 -0.0456 -0.2612 -0.5312
  101OSM    O1310161   4.449   2.874  10.364 -0.3803  0.3934  0.2562
  101OSM    O1410162   4.236   2.733  10.422 -0.3796 -0.7387 -0.0540
  101OSM    O1110163   4.294   2.788  10.189 -0.1426 -0.0628 -0.3077
  101OSM    O1210164   4.215   2.976  10.339 -0.5925 -0.4627 -0.4018
  101OSM    C1S10165   4.157   2.735  10.162 -0.1543 -0.3940 -0.7940
  101OSM    H1S10166   4.081   2.780  10.229  1.5209 -0.2222  1.0947
  101OSM    H1T10167   4.154   2.624  10.166  0.7306 -0.3995  0.8885
  101OSM     NF10168   3.965   2.747  10.007 -0.0151  0.0467 -0.3807
  101OSM    HNF10169   3.940   2.654   9.981  1.1652 -0.0289 -1.3117
  101OSM    C2S10170   4.109   2.771  10.022 -0.4674  0.6450  0.0299
  101OSM    H2S10171   4.129   2.880  10.024 -0.7004  0.6833  1.1915
  101OSM    C3S10172   4.200   2.691   9.919 -0.1114  0.2793 -0.2887
  101OSM    H3S10173   4.150   2.592   9.916 -0.8088  0.5608  0.9944
  101OSM     O310174   4.341   2.680   9.939  0.1004 -0.3163  0.4327
  101OSM    HO310175   4.347   2.698  10.034  1.1687  0.3390  0.2563
  101OSM    C4S10176   4.174   2.747   9.788 -0.2175  0.3357  1.0023
  101OSM    H4S10177   4.085   2.703   9.742 -0.3459  2.5140 -1.0012
  101OSM    C5S10178   4.250   2.833   9.707  0.1092  0.3062 -0.5279
  101OSM    H5S10179   4.336   2.884   9.752 -0.2367 -0.9684  1.7584
  101OSM    C6S10180   4.229   2.872   9.566  0.3855 -0.6403 -0.4850
  101OSM    H6S10181   4.193   2.977   9.563  1.7527 -0.1571 -1.0138
  101OSM    H6T10182   4.151   2.818   9.508 -2.8607  3.7078 -0.6609
  101OSM    C7S10183   4.363   2.861   9.489 -1.2208  0.4634  0.4063
  101OSM    H7S10184   4.429   2.779   9.525  0.9840  1.5857 -0.8707
  101OSM    H7T10185   4.418   2.952   9.522  0.2706 -0.7266  1.3538
  101OSM    C8S10186   4.352   2.848   9.335 -0.0632  0.5555  0.2063
  101OSM    H8S10187   4.280   2.764   9.326  1.4104 -0.6198 -1.1962
  101OSM    H8T10188   4.447   2.816   9.289  0.3898  0.9806  0.8211
  101OSM    C9S10189   4.287   2.971   9.264  0.0598  0.2136  0.1331
  101OSM    H9S10190   4.332   3.058   9.316 -3.0066  1.9416  0.1248
  101OSM    H9T10191   4.178   2.959   9.281 -0.2738 -1.0248 -2.3655
  101OSM   C10S10192   4.296   2.967   9.112  0.1311 -0.4562 -0.0468
  101OSM   H10S10193   4.233   2.882   9.077  1.5425 -2.2584  1.5338
  101OSM   H10T10194   4.402   2.950   9.085  0.1441  0.2740 -0.4743
  101OSM   C11S10195   4.250   3.096   9.038 -0.0607  0.5953 -0.4677
  101OSM   H11S10196   4.294   3.179   9.098  3.3545 -2.2205  1.2938
  101OSM   H11T10197   4.139   3.105   9.041 -0.1705 -0.7714  0.0244
  101OSM   C12S10198   4.300   3.107   8.891  1.2546  0.2208 -0.4880
  101OSM   H12S10199   4.410   3.094   8.895  1.0226 -1.9223  1.2260
  101OSM   H12T10200   4.281   3.206   8.846 -2.3223 -0.0895  0.0082
  101OSM   C13S10201   4.220   3.006   8.809 -0.2618  0.7401 -0.0013
  101OSM   H13S10202   4.115   3.041   8.820 -0.4026 -0.0794  1.5313
  101OSM   H13T10203   4.229   2.900   8.841 -0.9696  0.0621 -1.8888
  101OSM   C14S10204   4.268   3.026   8.658 -0.1478  0.1560  0.2336
  101OSM   H14S10205   4.366   2.975   8.647 -0.0457 -0.0443  1.8721
  101OSM   H14T10206   4.282   3.133   8.632  2.5621 -0.1577  0.1046
  101OSM   C15S10207   4.175   2.944   8.569 -0.2995 -0.0400  0.2443
  101OSM   H15S10208   4.171   2.839   8.605  3.1599  0.0601  1.2464
  101OSM   H15T10209   4.226   2.943   8.470  0.1693  2.0904  0.4168
  101OSM   C16S10210   4.036   3.009   8.564  0.7174  0.6169  0.2229
  101OSM   H16S10211   4.052   3.117   8.543  1.1279  0.4128 -0.5448
  101OSM   H16T10212   3.987   3.007   8.664  1.4417  1.7501  0.6173
  101OSM   C17S10213   3.932   2.943   8.473 -0.0036  0.3068  0.3106
  101OSM   H17S10214   3.919   2.838   8.505  1.4550 -0.4943 -1.5558
  101OSM   H17T10215   3.972   2.932   8.370 -0.1932  1.3164  0.1121
  101OSM   C18S10216   3.789   2.995   8.462  0.2237  0.5235 -0.5337
  101OSM   H18S10217   3.786   3.082   8.393 -0.6806  1.9430  1.1984
  101OSM   H18T10218   3.755   3.029   8.562 -0.2062  1.2556 -0.9114
  101OSM   H18U10219   3.723   2.912   8.428 -0.2489  1.1494 -1.1793
  101OSM    C1F10220   3.871   2.828  10.049  0.6826  0.2377  0.1754
  101OSM     OF10221   3.896   2.938  10.106 -0.5509  0.6536  0.6569
  101OSM    C2F10222   3.728   2.774  10.060 -0.1459  0.3676 -0.0913
  101OSM    H2F10223   3.705   2.798  10.166 -0.4319  1.1654 -0.3287
  101OSM    H2G10224   3.722   2.667  10.029 -1.2253  0.3281  0.2103
  101OSM    C3F10225   3.638   2.852   9.971  0.4764  0.1281  0.1019
  101OSM    H3F10226   3.643   2.961   9.989  1.8651  0.6851 -2.9264
  101OSM    H3G10227   3.535   2.820   9.997  0.2188  0.1831 -0.8202
  101OSM    C4F10228   3.662   2.831   9.819  0.6654 -0.4739  0.1771
  101OSM    H4F10229   3.568   2.832   9.760  2.0618  1.3505 -2.2020
  101OSM    H4G10230   3.712   2.733   9.803 -0.2070 -1.0336  0.8119
  101OSM    C5F10231   3.744   2.941   9.747  0.1613 -0.4991  0.5227
  101OSM    H5F10232   3.849   2.944   9.782  0.7288  0.4161 -1.1737
  101OSM    H5G10233   3.701   3.039   9.779  2.1611  0.9220 -0.9289
  101OSM    C6F10234   3.737   2.934   9.593 -0.0144 -0.5615  0.0670
  101OSM    H6F10235   3.775   3.034   9.562 -0.3962 -0.3711  0.2124
  101OSM    H6G10236   3.631   2.929   9.560 -0.2840 -1.8216  1.0074
  101OSM    C7F10237   3.835   2.826   9.553  0.0340  0.7984  0.0394
  101OSM    H7F10238   3.844   2.728   9.605 -0.1805 -0.4538 -2.1926
  101OSM    H7G10239   3.938   2.868   9.563  0.1631  0.5516 -0.2622
  101OSM    C8F10240   3.808   2.784   9.409 -1.0379  0.2015  0.0338
  101OSM    H8F10241   3.703   2.754   9.391 -0.3662 -2.5086  0.1882
  101OSM    H8G10242   3.878   2.700   9.392 -0.0089  1.2532 -1.2219
  101OSM    C9F10243   3.848   2.882   9.303 -0.5016 -0.2449 -0.5962
  101OSM    H9F10244   3.828   2.989   9.321 -2.5353 -0.5595 -0.7796
  101OSM   C10F10245   3.895   2.856   9.178  0.2212 -0.3373 -0.0506
  101OSM   H10F10246   3.911   2.946   9.117  1.6703  0.3947  1.3579
  101OSM   C11F10247   3.915   2.727   9.104 -0.1708  0.3842 -0.0482
  101OSM   H11F10248   3.867   2.636   9.148  2.0899 -0.9267 -0.1167
  101OSM   H11G10249   4.023   2.705   9.119 -0.7285 -2.7549  0.0805
  101OSM   C12F10250   3.875   2.746   8.957 -0.2556  0.1302 -0.1189
  101OSM   H12F10251   3.930   2.831   8.910 -1.0529  1.2482  0.8803
  101OSM   H12G10252   3.766   2.770   8.957 -0.1626  0.7125  1.6453
  101OSM   C13F10253   3.889   2.627   8.867  0.3933 -0.4948 -0.3930
  101OSM   H13F10254   3.849   2.651   8.766 -1.0031 -0.7597  0.0737
  101OSM   H13G10255   3.810   2.561   8.908 -0.2608  1.1097  1.0913
  101OSM   C14F10256   4.028   2.561   8.868 -0.4549  0.3178  0.1685
  101OSM   H14F10257   4.045   2.506   8.962  0.5412  0.1527 -0.0852
  101OSM   H14G10258   4.110   2.636   8.857  0.5321 -0.5654  1.2265
  101OSM   C15F10259   4.050   2.459   8.753 -0.9229  0.2195 -0.3473
  101OSM   H15F10260   4.035   2.511   8.656  3.5276  0.3148 -1.1552
  101OSM   H15G10261   3.967   2.386   8.769 -0.8323  0.3902  1.0581
  101OSM   C16F10262   4.185   2.391   8.760 -0.8819 -0.0714 -0.5784
  101OSM   H16F10263   4.218   2.354   8.859  0.1769  2.1471 -0.0380
  101OSM   H16G10264   4.264   2.461   8.727 -0.8087 -1.0072 -2.5411
  101OSM   C17F10265   4.182   2.257   8.678  0.1239 -0.0246  0.2571
  101OSM   H17F10266   4.116   2.181   8.726  0.1809 -0.0722  0.2612
  101OSM   H17G10267   4.286   2.220   8.690  0.2633  0.4827  0.6308
  101OSM   C18F10268   4.153   2.270   8.529 -0.2737  0.4108 -0.4716
  101OSM   H18F10269   4.045   2.292   8.513  0.0997  1.6641 -1.4128
  101OSM   H18G10270   4.184   2.177   8.475  1.6601  1.2276 -0.8561
  101OSM   H18H10271   4.199   2.363   8.489 -1.2753  0.2901 -1.9721
  102OSM      N10272   2.847   2.750  10.234  0.4275  0.3021  0.0541
  102OSM    C1510273   2.977   2.688  10.208 -0.0914 -0.4045 -0.3792
  102OSM   H15A10274   3.036   2.765  10.160  2.0101 -2.0939 -0.6500
  102OSM   H15B10275   2.971   2.596  10.152 -0.9594 -0.9211  0.5274
  102OSM   H15C10276   3.029   2.658  10.298 -1.6193  2.1958  1.5044
  102OSM    C1410277   2.773   2.646  10.315  0.7137 -0.1828  0.2366
  102OSM   H14A10278   2.765   2.559  10.253 -1.6574 -0.1612  0.4251
  102OSM   H14B10279   2.675   2.673  10.350  0.7982  2.0565 -1.0214
  102OSM   H14C10280   2.835   2.619  10.399 -0.3305  0.8352  1.3752
  102OSM    C1310281   2.873   2.865  10.327 -0.0441 -0.2670 -0.5160
  102OSM   H13A10282   2.784   2.908  10.371 -0.2661 -1.6365  0.4448
  102OSM   H13B10283   2.935   2.936  10.274 -0.6571  0.8676  0.2409
  102OSM   H13C10284   2.919   2.828  10.418 -2.6030 -0.8805  0.6195
  102OSM    C1210285   2.766   2.786  10.110 -0.4880  0.3259 -0.2557
  102OSM   H12A10286   2.670   2.822  10.145  0.5230  0.3891  2.7026
  102OSM   H12B10287   2.752   2.693  10.058 -0.4497 -0.5022  1.1884
  102OSM    C1110288   2.826   2.882  10.005  0.1343  0.0188  0.0423
  102OSM   H11A10289   2.841   2.979  10.056  0.2150 -1.1174  2.3216
  102OSM   H11B10290   2.749   2.884   9.924 -0.2180 -0.9675  0.3314
  102OSM      P10291   2.964   2.743   9.819  0.1435 -0.1145  0.3341
  102OSM    O1310292   3.097   2.765   9.760  0.0176  0.1445 -0.0316
  102OSM    O1410293   2.912   2.609   9.847  1.2232  0.1245  0.1078
  102OSM    O1110294   2.857   2.813   9.726 -0.5843 -0.5021  0.1494
  102OSM    O1210295   2.953   2.832   9.949  0.3921  0.2410 -0.1902
  102OSM    C1S10296   2.864   2.936   9.660  0.2538 -1.2076  0.2416
  102OSM    H1S10297   2.934   3.009   9.706 -0.3384 -0.9226  0.7046
  102OSM    H1T10298   2.766   2.989   9.669  1.3542  0.5703  3.0389
  102OSM     NF10299   2.902   3.069   9.462  0.1524 -0.5310  0.7030
  102OSM    HNF10300   2.842   3.088   9.385  0.6349 -0.7227  0.2747
  102OSM    C2S10301   2.901   2.932   9.510  0.1203  1.1622  0.8607
  102OSM    H2S10302   3.001   2.886   9.494 -0.3843  0.8611 -1.8111
  102OSM    C3S10303   2.809   2.834   9.427  0.5524 -0.2508  0.0573
  102OSM    H3S10304   2.709   2.882   9.420  0.9151  0.7475  1.3087
  102OSM     O310305   2.777   2.714   9.496 -0.0735  0.9449  0.2832
  102OSM    HO310306   2.810   2.735   9.584 -0.1032  0.7135  0.3487
  102OSM    C4S10307   2.865   2.802   9.292  0.0992 -0.2956  0.3846
  102OSM    H4S10308   2.846   2.888   9.227 -1.3315 -0.7538  0.1656
  102OSM    C5S10309   2.909   2.684   9.239 -0.0096  0.5210  0.2288
  102OSM    H5S10310   2.931   2.601   9.308 -0.0822  1.0446  0.9002
  102OSM    C6S10311   2.929   2.645   9.096  0.2449  0.0457 -0.2443
  102OSM    H6S10312   2.862   2.561   9.066 -1.5848  1.0738  0.8025
  102OSM    H6T10313   3.031   2.604   9.080  1.4717  1.9601  1.9850
  102OSM    C7S10314   2.905   2.753   8.988 -0.3285  1.0189 -0.0882
  102OSM    H7S10315   2.947   2.852   9.014 -0.2969  1.4570 -1.6816
  102OSM    H7T10316   2.796   2.768   8.969 -1.0555 -3.5564 -0.6685
  102OSM    C8S10317   2.970   2.710   8.854 -0.0330  0.3931 -0.2372
  102OSM    H8S10318   2.947   2.602   8.837 -1.0836  0.4203  0.8580
  102OSM    H8T10319   3.077   2.737   8.862 -0.5042  1.9726  1.2062
  102OSM    C9S10320   2.909   2.783   8.727 -0.3424 -0.4429  0.7126
  102OSM    H9S10321   2.943   2.889   8.730 -0.0780 -0.4950 -0.1154
  102OSM    H9T10322   2.798   2.777   8.739 -0.5011  0.2687 -0.2353
  102OSM   C10S10323   2.963   2.708   8.601  0.2258 -0.5327 -0.0544
  102OSM   H10S10324   2.922   2.606   8.611  0.0960 -0.4525  0.2257
  102OSM   H10T10325   3.073   2.696   8.606  0.3375  0.0480 -0.8467
  102OSM   C11S10326   2.917   2.771   8.475 -0.3640  0.6157  0.4140
  102OSM   H11S10327   2.931   2.881   8.478 -0.0970  0.5806  0.4979
  102OSM   H11T10328   2.808   2.758   8.460 -0.2343 -0.8660  0.6056
  102OSM   C12S10329   2.991   2.706   8.354 -0.8391 -0.2183  0.1924
  102OSM   H12S10330   2.959   2.600   8.342  1.0900 -0.7357 -0.7546
  102OSM   H12T10331   3.095   2.689   8.391 -1.6777 -0.3363  2.6645
  102OSM   C13S10332   3.009   2.788   8.230  0.8340 -0.0796  0.4107
  102OSM   H13S10333   3.055   2.740   8.141 -0.9288  1.2781 -1.3319
  102OSM   H13T10334   3.078   2.873   8.251  1.3628 -0.2567 -0.5693
  102OSM   C14S10335   2.873   2.839   8.170  0.0836 -0.6120  0.2080
  102OSM   H14S10336   2.889   2.909   8.086 -1.0220  1.0247  1.2921
  102OSM   H14T10337   2.820   2.902   8.245  0.5722 -1.5075  1.3471
  102OSM   C15S10338   2.785   2.723   8.118 -0.2330  0.2177 -0.3853
  102OSM   H15S10339   2.786   2.640   8.192 -0.9338 -0.0188 -0.6263
  102OSM   H15T10340   2.819   2.676   8.023 -0.6576 -0.1390 -0.3666
  102OSM   C16S10341   2.641   2.764   8.088  0.0583  0.0829 -0.8742
  102OSM   H16S10342   2.592   2.826   8.166  1.8346  1.1338 -0.5287
  102OSM   H16T10343   2.587   2.669   8.071  0.7157 -0.2137 -1.3656
  102OSM   C17S10344   2.615   2.839   7.955 -0.1524  0.0204 -0.4886
  102OSM   H17S10345   2.668   2.777   7.879  0.3311 -0.3638  0.1577
  102OSM   H17T10346   2.662   2.938   7.969 -1.0805  0.3258  0.6059
  102OSM   C18S10347   2.469   2.847   7.905  0.1727 -0.6775  0.4335
  102OSM   H18S10348   2.431   2.742   7.911  0.6636 -0.8149  1.3804
  102OSM   H18T10349   2.454   2.876   7.799 -0.4790 -4.9538 -0.8651
  102OSM   H18U10350   2.413   2.916   7.971 -1.2828  0.5531 -1.9581
  102OSM    C1F10351   2.998   3.156   9.488  0.0212  0.0346  0.2146
  102OSM     OF10352   3.095   3.127   9.557 -0.0669  0.3553 -0.4080
  102OSM    C2F10353   2.982   3.290   9.433  0.2544 -0.2234 -0.7322
  102OSM    H2F10354   3.080   3.341   9.446 -0.1325  0.0433  1.4764
  102OSM    H2G10355   2.909   3.345   9.497  1.5343 -1.0829  1.5626
  102OSM    C3F10356   2.957   3.289   9.280 -0.2685 -0.6874  0.3430
  102OSM    H3F10357   2.932   3.389   9.237 -1.1726 -0.6643  0.8943
  102OSM    H3G10358   2.879   3.217   9.248 -0.3295 -0.4489 -0.0522
  102OSM    C4F10359   3.089   3.257   9.210  0.4900  0.7772 -0.0105
  102OSM    H4F10360   3.121   3.160   9.255 -1.4269 -0.2480 -0.7285
  102OSM    H4G10361   3.158   3.340   9.233  0.7701  0.5642 -0.0712
  102OSM    C5F10362   3.094   3.248   9.053  0.1841 -0.1259  0.1106
  102OSM    H5F10363   3.060   3.345   9.011 -1.5236 -1.3160 -1.3968
  102OSM    H5G10364   3.019   3.177   9.013 -1.4890  1.7672 -0.2743
  102OSM    C6F10365   3.230   3.211   8.993  0.1058  0.1709 -0.0160
  102OSM    H6F10366   3.280   3.136   9.058 -0.3936  0.5210  0.7976
  102OSM    H6G10367   3.293   3.303   8.990 -0.3801  0.7515  3.1892
  102OSM    C7F10368   3.220   3.139   8.856 -0.1867 -0.3617  0.2028
  102OSM    H7F10369   3.170   3.040   8.859 -0.0700 -0.4067  1.0806
  102OSM    H7G10370   3.327   3.136   8.829 -0.1700  1.4972 -0.0997
  102OSM    C8F10371   3.147   3.220   8.753  0.3203 -0.7769 -0.5511
  102OSM    H8F10372   3.194   3.320   8.756  0.2818 -0.7718  1.5202
  102OSM    H8G10373   3.045   3.249   8.785  1.1335  1.5216  0.1611
  102OSM    C9F10374   3.149   3.165   8.612  0.5275 -0.0853  0.2365
  102OSM    H9F10375   3.073   3.088   8.594  0.8427  0.0594 -2.0832
  102OSM   C10F10376   3.250   3.180   8.523  0.3369  0.1776 -0.1845
  102OSM   H10F10377   3.234   3.134   8.424 -0.3091 -1.0165  0.4498
  102OSM   C11F10378   3.380   3.255   8.539  0.5477  0.5436 -0.4264
  102OSM   H11F10379   3.467   3.192   8.569 -0.6113 -0.2931  1.3796
  102OSM   H11G10380   3.371   3.334   8.617 -2.0723  0.8585 -0.9501
  102OSM   C12F10381   3.429   3.333   8.414 -0.1379  1.2198  0.0487
  102OSM   H12F10382   3.512   3.398   8.448  0.9444 -0.6580  1.1421
  102OSM   H12G10383   3.354   3.391   8.355 -0.0373  1.1715 -0.1257
  102OSM   C13F10384   3.491   3.224   8.315 -0.1611 -0.3967  0.0038
  102OSM   H13F10385   3.408   3.163   8.273 -0.3999 -0.3189  0.3594
  102OSM   H13G10386   3.564   3.155   8.362 -0.9882 -1.2520  0.0501
  102OSM   C14F10387   3.564   3.285   8.191  0.4878 -0.1360  0.1208
  102OSM   H14F10388   3.650   3.346   8.228  1.0620  0.8856 -2.6830
  102OSM   H14G10389   3.493   3.353   8.140 -2.3462 -0.7210  2.9612
  102OSM   C15F10390   3.600   3.196   8.070 -0.3031  1.0214 -0.1457
  102OSM   H15F10391   3.513   3.145   8.023 -0.9026  1.9708 -0.0828
  102OSM   H15G10392   3.661   3.106   8.093 -3.4578 -1.2375  0.0415
  102OSM   C16F10393   3.680   3.266   7.958  0.2692  0.1217  0.7492
  102OSM   H16F10394   3.764   3.327   7.996  0.0269  1.1215 -0.2632
  102OSM   H16G10395   3.615   3.322   7.888 -0.9226 -0.9288  0.9811
  102OSM   C17F10396   3.753   3.156   7.884 -0.3171  0.3916  0.5176
  102OSM   H17F10397   3.680   3.082   7.844 -0.7221  0.7653  0.5578
  102OSM   H17G10398   3.813   3.105   7.962 -1.9290 -0.0618  1.4979
  102OSM   C18F10399   3.830   3.198   7.760 -0.5824 -0.3041 -0.6543
  102OSM   H18F10400   3.769   3.245   7.679 -3.0550  0.2761  1.4254
  102OSM   H18G10401   3.883   3.110   7.717  0.5956  1.0261 -2.0649
  102OSM   H18H10402   3.911   3.269   7.789 -1.5198  1.7708 -2.7419
  103OSM      N10403   2.433   5.310  10.092 -0.5569 -0.1920  0.5162
  103OSM    C1510404   2.474   5.321   9.950 -0.8672  0.2510  0.6563
  103OSM   H15A10405   2.443   5.232   9.897  1.9057 -1.1819  1.1954
  103OSM   H15B10406   2.579   5.343   9.936 -1.0335 -0.0171 -1.2301
  103OSM   H15C10407   2.419   5.398   9.899  1.1398  2.2984  1.3614
  103OSM    C1410408   2.470   5.439  10.163  0.4869 -0.0176 -0.0528
  103OSM   H14A10409   2.419   5.530  10.133  0.3028 -0.2337 -0.4036
  103OSM   H14B10410   2.572   5.465  10.140  0.1735  0.4174 -1.0590
  103OSM   H14C10411   2.459   5.418  10.268 -0.0061 -1.1619 -0.3171
  103OSM    C1310412   2.286   5.291  10.105 -0.3111  1.2096 -0.0484
  103OSM   H13A10413   2.255   5.295  10.208  0.8963  0.6529  0.3620
  103OSM   H13B10414   2.249   5.193  10.076 -2.0718  2.0903 -0.9443
  103OSM   H13C10415   2.235   5.364  10.044 -1.1627  0.8028  0.1633
  103OSM    C1210416   2.514   5.194  10.155 -0.3966  0.1956 -0.1636
  103OSM   H12A10417   2.486   5.191  10.259 -1.2932 -0.6425 -0.4165
  103OSM   H12B10418   2.619   5.217  10.145  0.4077 -2.1459  1.8267
  103OSM    C1110419   2.489   5.051  10.091 -0.2831 -0.4092 -0.6259
  103OSM   H11A10420   2.539   4.984  10.164 -1.1880  0.1978  0.5738
  103OSM   H11B10421   2.536   5.051   9.990 -1.7693 -0.9606 -1.3377
  103OSM      P10422   2.272   4.964   9.942  0.1073  0.4208  0.1852
  103OSM    O1310423   2.277   4.818   9.929 -0.6541  0.7925 -0.4137
  103OSM    O1410424   2.129   5.001   9.952 -0.3347  0.2094 -0.0362
  103OSM    O1110425   2.334   5.032   9.814 -0.3244  0.1074  0.2221
  103OSM    O1210426   2.353   5.009  10.076 -0.0959  0.2357 -0.6352
  103OSM    C1S10427   2.261   5.038   9.695 -0.1670 -0.4726  0.9459
  103OSM    H1S10428   2.154   5.062   9.714  0.8760  3.7166  2.6623
  103OSM    H1T10429   2.261   4.947   9.632  1.5410 -0.2757  0.6140
  103OSM     NF10430   2.234   5.164   9.485 -0.7129  0.2690 -0.4368
  103OSM    HNF10431   2.278   5.132   9.401  0.9363 -0.6386  0.7187
  103OSM    C2S10432   2.320   5.143   9.598  0.4296 -0.9778 -0.8838
  103OSM    H2S10433   2.317   5.239   9.654  0.2641 -0.5052 -1.6881
  103OSM    C3S10434   2.460   5.106   9.555 -0.2058  0.7299  0.0525
  103OSM    H3S10435   2.456   5.018   9.487  0.1773 -0.2750  1.3009
  103OSM     O310436   2.538   5.065   9.660  0.1553 -0.2299  0.6050
  103OSM    HO310437   2.478   5.063   9.735 -0.4581  1.0144  0.1822
  103OSM    C4S10438   2.529   5.223   9.496 -0.0971 -0.4195  0.9842
  103OSM    H4S10439   2.519   5.320   9.548 -0.4740  1.0036 -1.5266
  103OSM    C5S10440   2.591   5.237   9.375  0.4613 -0.5089  0.4634
  103OSM    H5S10441   2.575   5.151   9.309 -0.1335 -2.5450  3.0739
  103OSM    C6S10442   2.652   5.367   9.327 -0.0110 -0.1697 -0.1297
  103OSM    H6S10443   2.741   5.347   9.264  0.1277  2.1599 -0.7880
  103OSM    H6T10444   2.681   5.427   9.417  0.4107 -1.2638  0.4875
  103OSM    C7S10445   2.564   5.460   9.245 -0.4684  0.4614  0.3670
  103OSM    H7S10446   2.617   5.553   9.215 -1.0433  1.1132  1.2892
  103OSM    H7T10447   2.472   5.502   9.292 -0.9237  1.4341 -1.3053
  103OSM    C8S10448   2.500   5.395   9.120 -0.6764  0.0778  0.2534
  103OSM    H8S10449   2.409   5.453   9.093  0.0963  1.9962  1.4878
  103OSM    H8T10450   2.476   5.289   9.142  2.1327 -1.0670 -1.6319
  103OSM    C9S10451   2.610   5.388   9.006  0.0212 -0.7943  0.6303
  103OSM    H9S10452   2.671   5.297   9.022  0.3744 -0.2767  2.4078
  103OSM    H9T10453   2.683   5.471   9.011 -0.3782 -0.3673 -0.3311
  103OSM   C10S10454   2.548   5.381   8.864 -0.1478 -0.0811  0.2042
  103OSM   H10S10455   2.497   5.478   8.849 -1.0916 -0.5275  0.4160
  103OSM   H10T10456   2.473   5.298   8.862 -1.9838  1.5069 -1.6288
  103OSM   C11S10457   2.650   5.367   8.748  0.3134  0.2541 -0.4610
  103OSM   H11S10458   2.698   5.268   8.757 -0.8138 -0.2483  0.2164
  103OSM   H11T10459   2.727   5.448   8.751  0.0356  0.5163 -0.3521
  103OSM   C12S10460   2.583   5.364   8.604  0.0934  0.5720  0.0797
  103OSM   H12S10461   2.518   5.453   8.592 -2.5298 -0.9924  1.7723
  103OSM   H12T10462   2.513   5.277   8.603  0.8141 -0.0289  0.3799
  103OSM   C13S10463   2.673   5.371   8.482 -0.1964  0.4961  0.2898
  103OSM   H13S10464   2.757   5.300   8.500 -0.6307 -0.3650 -0.9558
  103OSM   H13T10465   2.717   5.473   8.479  1.6907 -0.2416  1.1019
  103OSM   C14S10466   2.607   5.348   8.345  0.7958 -0.2054 -0.1977
  103OSM   H14S10467   2.570   5.243   8.345  0.1224  0.0227  0.3104
  103OSM   H14T10468   2.684   5.349   8.265  0.1351  0.3246 -0.8389
  103OSM   C15S10469   2.496   5.447   8.303  0.2347 -0.0675 -0.1266
  103OSM   H15S10470   2.547   5.545   8.306 -0.2034  0.1431  0.9720
  103OSM   H15T10471   2.415   5.443   8.380 -1.5093 -1.3014 -1.9186
  103OSM   C16S10472   2.437   5.404   8.170 -0.5435 -1.1182 -0.4600
  103OSM   H16S10473   2.407   5.297   8.166  1.8061 -1.8066 -1.4207
  103OSM   H16T10474   2.520   5.413   8.097 -1.0303  0.3655 -0.8642
  103OSM   C17S10475   2.328   5.507   8.138  0.4979 -0.3392 -0.1926
  103OSM   H17S10476   2.351   5.533   8.032  2.0068 -0.2406  0.1415
  103OSM   H17T10477   2.343   5.593   8.207  1.8334 -2.0609  1.7918
  103OSM   C18S10478   2.180   5.461   8.144 -0.3069 -0.1340 -0.3758
  103OSM   H18S10479   2.116   5.546   8.114  0.1589  0.2098 -0.3961
  103OSM   H18T10480   2.151   5.428   8.246 -1.1085  1.6457  0.0033
  103OSM   H18U10481   2.161   5.380   8.070  1.0628 -0.2537 -0.6288
  103OSM    C1F10482   2.112   5.208   9.486  0.1748 -0.2620  0.2582
  103OSM     OF10483   2.064   5.260   9.583  0.2523 -0.0141 -1.0443
  103OSM    C2F10484   2.051   5.200   9.350 -0.3644 -0.3359  1.0735
  103OSM    H2F10485   1.942   5.213   9.367 -0.7396  1.9597 -2.2294
  103OSM    H2G10486   2.062   5.103   9.297 -0.9600 -0.3346  0.9336
  103OSM    C3F10487   2.090   5.319   9.261 -0.4543 -0.0173  1.1804
  103OSM    H3F10488   2.200   5.331   9.265 -0.2675  0.4342 -2.3243
  103OSM    H3G10489   2.038   5.409   9.301 -1.2403 -0.3961  1.0411
  103OSM    C4F10490   2.049   5.298   9.109 -0.6886  0.2624 -0.7204
  103OSM    H4F10491   1.959   5.233   9.109 -0.7154  0.1702  2.0396
  103OSM    H4G10492   2.119   5.225   9.065  0.4271  1.2127 -0.5565
  103OSM    C5F10493   2.023   5.415   9.016 -0.1104 -0.1531  0.1071
  103OSM    H5F10494   2.111   5.483   9.027  0.1170 -0.2398 -0.9960
  103OSM    H5G10495   1.926   5.465   9.035  0.7657  1.3166  0.9141
  103OSM    C6F10496   2.022   5.364   8.866 -0.2147  0.5613 -0.0951
  103OSM    H6F10497   1.984   5.455   8.814 -2.2847  0.2025  0.6927
  103OSM    H6G10498   1.958   5.275   8.849  1.8554 -0.6237 -2.2644
  103OSM    C7F10499   2.166   5.331   8.821  0.0425 -0.2934  0.2926
  103OSM    H7F10500   2.190   5.227   8.853 -0.7106 -0.7444 -0.5772
  103OSM    H7G10501   2.234   5.403   8.872 -1.4568  1.8388 -0.5829
  103OSM    C8F10502   2.199   5.319   8.670  0.0414 -0.7358  0.4287
  103OSM    H8F10503   2.306   5.295   8.653  0.3211  0.7133  0.0598
  103OSM    H8G10504   2.201   5.422   8.628 -2.1614 -0.9593 -0.3923
  103OSM    C9F10505   2.114   5.224   8.596  0.9276  0.2965  0.2720
  103OSM    H9F10506   2.010   5.231   8.629  1.8554  1.7827  3.2515
  103OSM   C10F10507   2.143   5.164   8.479  0.4379  0.1412 -0.3419
  103OSM   H10F10508   2.083   5.075   8.455 -0.3605  0.1308  1.5621
  103OSM   C11F10509   2.269   5.161   8.396 -0.4676  0.0722  0.1212
  103OSM   H11F10510   2.357   5.181   8.460  0.6189 -1.0558 -0.9615
  103OSM   H11G10511   2.276   5.247   8.326  1.2689  0.0296  0.1911
  103OSM   C12F10512   2.281   5.037   8.304  0.6959 -0.0149  0.7438
  103OSM   H12F10513   2.272   4.939   8.356 -1.4244 -0.2476  0.0157
  103OSM   H12G10514   2.382   5.041   8.257  1.2125  0.6312  1.8737
  103OSM   C13F10515   2.184   5.034   8.179 -0.0019  0.5298 -0.1492
  103OSM   H13F10516   2.083   5.003   8.212 -0.2945  0.4552 -1.1015
  103OSM   H13G10517   2.186   5.128   8.121 -0.6648  0.7004  0.0920
  103OSM   C14F10518   2.222   4.924   8.078 -0.2718  0.4710  0.5100
  103OSM   H14F10519   2.197   4.818   8.098 -0.2817  0.4457  0.3692
  103OSM   H14G10520   2.332   4.935   8.072 -0.4336  2.6238  0.7709
  103OSM   C15F10521   2.166   4.948   7.936 -0.2237 -0.4066  0.0546
  103OSM   H15F10522   2.204   5.045   7.899  0.7055 -0.6710  0.2818
  103OSM   H15G10523   2.056   4.962   7.951 -0.0837  1.8251 -0.6714
  103OSM   C16F10524   2.183   4.833   7.835  0.6931 -0.2251 -0.2642
  103OSM   H16F10525   2.109   4.849   7.754  2.3723  4.1899 -1.1597
  103OSM   H16G10526   2.156   4.737   7.885 -0.5190 -0.0976 -0.6492
  103OSM   C17F10527   2.317   4.831   7.766 -0.3001  0.2210 -0.5549
  103OSM   H17F10528   2.392   4.818   7.847  1.3649 -0.5103 -2.1580
  103OSM   H17G10529   2.327   4.936   7.729 -2.2971  0.4904 -0.4344
  103OSM   C18F10530   2.338   4.731   7.655 -0.0294 -0.4127 -0.8557
  103OSM   H18F10531   2.440   4.738   7.612  0.2285  1.0022 -0.0669
  103OSM   H18G10532   2.259   4.735   7.577  0.6480  0.4730 -1.5159
  103OSM   H18H10533   2.333   4.624   7.686 -0.9662 -0.8596 -2.4362
  104OSM      N10534   1.229   4.355  10.047  0.2357  0.5001 -0.3124
  104OSM    C1510535   1.090   4.359  10.104  0.0422  0.3905  0.4774
  104OSM   H15A10536   1.070   4.459  10.139 -0.3497 -0.5104  3.0452
  104OSM   H15B10537   1.090   4.297  10.193 -0.1232 -0.6399 -0.2182
  104OSM   H15C10538   1.015   4.339  10.029 -0.9999  1.0912  1.3051
  104OSM    C1410539   1.240   4.215   9.993  0.0126 -0.1216 -0.2958
  104OSM   H14A10540   1.219   4.138  10.065  0.6961  0.3845  0.4630
  104OSM   H14B10541   1.340   4.201   9.956  0.0091  2.0611 -1.3273
  104OSM   H14C10542   1.157   4.202   9.925 -2.3023  0.5231  2.2160
  104OSM    C1310543   1.245   4.453   9.937 -0.5726  0.1518  0.0708
  104OSM   H13A10544   1.228   4.553   9.973  0.9989 -0.6147  3.3415
  104OSM   H13B10545   1.179   4.430   9.854 -2.2235 -1.1422  1.6567
  104OSM   H13C10546   1.346   4.435   9.902  1.3882  2.7385  3.7808
  104OSM    C1210547   1.335   4.385  10.149  0.4536  0.1832  0.1589
  104OSM   H12A10548   1.313   4.321  10.234  0.5039  0.7663  0.6138
  104OSM   H12B10549   1.324   4.487  10.182  0.4952  0.3915 -0.4606
  104OSM    C1110550   1.475   4.369  10.104 -0.5237  0.4360 -0.1851
  104OSM   H11A10551   1.540   4.416  10.182 -0.4548  0.3722 -0.2031
  104OSM   H11B10552   1.491   4.430  10.012  0.6713 -0.5774 -0.6758
  104OSM      P10553   1.540   4.151  10.235  0.1598 -0.0068 -0.1475
  104OSM    O1310554   1.555   4.245  10.348  0.3347 -0.4711  0.0677
  104OSM    O1410555   1.444   4.044  10.247  0.0100 -0.4586 -0.6644
  104OSM    O1110556   1.689   4.080  10.202  0.3764  0.1779  0.0465
  104OSM    O1210557   1.512   4.234  10.101 -0.1115  0.4078  0.2403
  104OSM    C1S10558   1.797   4.150  10.132 -0.1840 -0.0651  0.5609
  104OSM    H1S10559   1.888   4.169  10.194 -0.9413  1.5660  1.2418
  104OSM    H1T10560   1.772   4.254  10.103 -2.1228 -1.0980 -1.7829
  104OSM     NF10561   1.958   4.146   9.945  0.2872 -0.3077 -0.4219
  104OSM    HNF10562   1.937   4.227   9.891 -2.5007  0.0833  1.0844
  104OSM    C2S10563   1.846   4.077  10.002 -0.6447  0.4318  0.9154
  104OSM    H2S10564   1.865   3.973  10.035 -2.1004  0.4344  1.8370
  104OSM    C3S10565   1.726   4.058   9.901  0.0918  0.1136 -0.7345
  104OSM    H3S10566   1.664   4.150   9.893 -2.6625 -1.5474 -0.0689
  104OSM     O310567   1.626   3.964   9.940  0.9218  0.6725  0.0489
  104OSM    HO310568   1.596   3.989  10.027 -0.1885  3.7648 -1.0810
  104OSM    C4S10569   1.773   4.033   9.762 -0.3438  0.6957 -0.2562
  104OSM    H4S10570   1.830   4.117   9.718  0.1375  0.7202  0.4030
  104OSM    C5S10571   1.790   3.912   9.697  0.0907  0.2802 -0.2641
  104OSM    H5S10572   1.787   3.822   9.761  0.5945  1.7836  1.9822
  104OSM    C6S10573   1.854   3.890   9.563 -0.9521  0.1907  0.6936
  104OSM    H6S10574   1.855   3.981   9.499  2.8536 -0.1888 -0.0306
  104OSM    H6T10575   1.789   3.821   9.505  1.1088 -0.5790 -0.8364
  104OSM    C7S10576   1.999   3.822   9.563  0.3737 -0.3366  0.5972
  104OSM    H7S10577   1.982   3.725   9.615 -0.2034 -1.2244 -1.1593
  104OSM    H7T10578   2.068   3.884   9.623 -0.0314  0.7781 -0.0473
  104OSM    C8S10579   2.076   3.789   9.428  0.4871  0.8529 -0.1200
  104OSM    H8S10580   2.164   3.732   9.465  0.4503  1.5749  1.1389
  104OSM    H8T10581   2.109   3.886   9.383 -0.1316  0.1037 -2.2917
  104OSM    C9S10582   1.989   3.710   9.334 -0.1143 -0.6699  0.1144
  104OSM    H9S10583   1.907   3.774   9.296 -0.9187 -1.6684  0.1223
  104OSM    H9T10584   1.938   3.628   9.389 -2.0758  0.2912 -0.1818
  104OSM   C10S10585   2.046   3.648   9.204  0.1603 -0.4986  0.3530
  104OSM   H10S10586   2.104   3.555   9.223  1.6662  0.0700 -1.1584
  104OSM   H10T10587   2.117   3.721   9.160 -0.0237 -0.7090 -0.3054
  104OSM   C11S10588   1.924   3.609   9.109 -0.4059 -0.9076 -0.0196
  104OSM   H11S10589   1.870   3.699   9.075 -0.1649 -1.1796 -1.1722
  104OSM   H11T10590   1.868   3.546   9.181 -0.1618 -0.0720  0.9069
  104OSM   C12S10591   1.979   3.542   8.979 -0.4281  0.3366  0.6728
  104OSM   H12S10592   2.037   3.454   9.015 -4.4012 -3.5820 -1.5480
  104OSM   H12T10593   2.051   3.600   8.916 -0.1899 -1.2413 -0.5805
  104OSM   C13S10594   1.880   3.479   8.886  0.4580 -0.7235  0.3550
  104OSM   H13S10595   1.821   3.563   8.843 -2.3724 -2.0243  1.4321
  104OSM   H13T10596   1.816   3.412   8.948 -1.0372  1.1063  0.8701
  104OSM   C14S10597   1.939   3.400   8.765  0.0328 -0.1059  0.4090
  104OSM   H14S10598   1.996   3.312   8.802 -0.4518 -0.3998  0.4592
  104OSM   H14T10599   2.016   3.466   8.718  1.1988 -1.8933 -0.2754
  104OSM   C15S10600   1.832   3.358   8.666 -0.5424  0.1478  0.5454
  104OSM   H15S10601   1.746   3.429   8.661 -2.7951 -2.5022 -2.8801
  104OSM   H15T10602   1.773   3.272   8.705 -0.8717 -0.7981 -1.8856
  104OSM   C16S10603   1.880   3.343   8.522  0.6267  0.2265 -0.2161
  104OSM   H16S10604   1.907   3.235   8.517 -2.5710 -0.7911  1.6967
  104OSM   H16T10605   1.971   3.406   8.515  1.1894  0.3178  4.7423
  104OSM   C17S10606   1.783   3.374   8.413  0.5313 -0.1762  0.2352
  104OSM   H17S10607   1.724   3.467   8.423 -0.8274 -1.1440  1.5644
  104OSM   H17T10608   1.704   3.296   8.406 -1.4339  1.4958  2.4670
  104OSM   C18S10609   1.863   3.357   8.283 -0.2395  0.0941 -0.7793
  104OSM   H18S10610   1.907   3.254   8.283  0.8343  0.5394 -0.0683
  104OSM   H18T10611   1.947   3.428   8.277  1.2263 -1.4807  0.0881
  104OSM   H18U10612   1.784   3.363   8.206  0.2640 -0.5373 -1.3597
  104OSM    C1F10613   2.076   4.155  10.012  0.2890  0.9100  0.1450
  104OSM     OF10614   2.112   4.074  10.099 -0.3358  0.0860 -0.2258
  104OSM    C2F10615   2.151   4.282   9.989 -0.9653 -0.0150 -0.6194
  104OSM    H2F10616   2.184   4.331  10.084 -0.6251 -1.6266  0.1236
  104OSM    H2G10617   2.085   4.356   9.939  0.6230  1.4316 -0.6629
  104OSM    C3F10618   2.280   4.255   9.904  0.0089  0.1027 -0.2606
  104OSM    H3F10619   2.347   4.190   9.964  1.9014 -0.7377 -3.1026
  104OSM    H3G10620   2.339   4.349   9.895  0.2893  0.0705  0.9815
  104OSM    C4F10621   2.266   4.187   9.769  0.3324 -0.6256  0.2085
  104OSM    H4F10622   2.234   4.083   9.794  1.1975 -0.2808  3.0922
  104OSM    H4G10623   2.372   4.181   9.736  0.4236  2.8415 -0.4743
  104OSM    C5F10624   2.192   4.275   9.657 -0.3423  0.6730 -0.5898
  104OSM    H5F10625   2.253   4.365   9.638  0.0644  0.8300  1.2769
  104OSM    H5G10626   2.095   4.308   9.702 -0.8402 -1.8960  0.4091
  104OSM    C6F10627   2.171   4.210   9.525 -0.5021 -0.0196  0.3881
  104OSM    H6F10628   2.108   4.120   9.539 -2.8010  1.5507  0.5618
  104OSM    H6G10629   2.265   4.172   9.478 -1.6162 -3.1388  0.4189
  104OSM    C7F10630   2.088   4.296   9.425 -0.9249  0.0288 -0.2961
  104OSM    H7F10631   2.132   4.398   9.428 -0.3362 -0.1977 -0.9318
  104OSM    H7G10632   1.986   4.316   9.464 -1.4989 -0.9301 -1.2284
  104OSM    C8F10633   2.079   4.248   9.280  0.4771  0.1207  0.7559
  104OSM    H8F10634   2.182   4.225   9.244  0.4965 -0.8746  1.4177
  104OSM    H8G10635   2.031   4.329   9.221  1.0348  1.9769  2.7401
  104OSM    C9F10636   1.995   4.122   9.261 -0.1342  0.8271 -0.9494
  104OSM    H9F10637   1.984   4.063   9.353 -2.4431 -0.0234 -1.7097
  104OSM   C10F10638   1.981   4.054   9.146  0.2970  0.1355 -0.4794
  104OSM   H10F10639   1.926   3.959   9.137 -1.9344  1.2309  0.6480
  104OSM   C11F10640   2.043   4.108   9.014 -0.1755 -0.4608 -0.2648
  104OSM   H11F10641   2.117   4.191   9.025  0.1872 -0.6931 -0.8821
  104OSM   H11G10642   1.964   4.142   8.943 -1.0969 -1.0355  0.4648
  104OSM   C12F10643   2.116   3.996   8.945 -0.5554 -0.5575  0.2587
  104OSM   H12F10644   2.053   3.909   8.920 -1.5446 -0.0264  0.8190
  104OSM   H12G10645   2.196   3.967   9.016 -0.1074 -0.1868 -0.0829
  104OSM   C13F10646   2.187   4.050   8.814 -0.3608  0.3107  0.0216
  104OSM   H13F10647   2.256   4.133   8.840 -0.0676  0.1536 -0.2493
  104OSM   H13G10648   2.106   4.097   8.754  0.5793  0.4395 -1.1883
  104OSM   C14F10649   2.261   3.946   8.729 -0.1731 -0.3377  0.3633
  104OSM   H14F10650   2.193   3.866   8.692 -2.0913  1.3198  0.1932
  104OSM   H14G10651   2.331   3.888   8.794 -0.5165 -1.0615  0.1027
  104OSM   C15F10652   2.340   4.010   8.620  0.0411  0.2196  0.4003
  104OSM   H15F10653   2.389   3.925   8.568 -0.9448  0.4018 -0.8859
  104OSM   H15G10654   2.415   4.080   8.662 -0.7171 -0.2306  2.6693
  104OSM   C16F10655   2.243   4.061   8.509  0.0420  0.7586 -0.4805
  104OSM   H16F10656   2.168   4.137   8.539 -2.3050 -0.8975 -1.7940
  104OSM   H16G10657   2.184   3.968   8.492 -0.2470  0.2493  2.7324
  104OSM   C17F10658   2.297   4.114   8.382  0.0505 -0.4050  0.1179
  104OSM   H17F10659   2.203   4.137   8.328 -0.4775 -1.8335  0.3927
  104OSM   H17G10660   2.359   4.036   8.332 -2.2407 -1.7100 -0.8216
  104OSM   C18F10661   2.387   4.241   8.405 -0.4405 -0.0781 -0.0654
  104OSM   H18F10662   2.432   4.283   8.312 -2.8960  2.0252 -0.4504
  104OSM   H18G10663   2.470   4.222   8.476 -0.3520 -0.9036 -0.3860
  104OSM   H18H10664   2.325   4.323   8.450  0.0532 -0.4958  1.4414
  105OSM      N10665   1.356   3.712  10.417 -0.3682 -0.5679  0.2070
  105OSM    C1510666   1.272   3.588  10.425  0.2693  1.2843 -0.4034
  105OSM   H15A10667   1.276   3.544  10.524 -0.6657  0.4276 -0.7420
  105OSM   H15B10668   1.313   3.522  10.350 -0.2213 -0.1650  0.5605
  105OSM   H15C10669   1.168   3.605  10.405  0.2211  1.3052 -0.1455
  105OSM    C1410670   1.322   3.811  10.521 -0.1905 -1.2475  0.0583
  105OSM   H14A10671   1.392   3.894  10.526 -1.8237  0.2890 -1.1120
  105OSM   H14B10672   1.311   3.759  10.615 -1.1019 -1.3740 -0.1050
  105OSM   H14C10673   1.233   3.867  10.495  0.9379 -1.1915 -4.6270
  105OSM    C1310674   1.499   3.666  10.435 -0.0588 -0.2883 -0.3987
  105OSM   H13A10675   1.562   3.753  10.434  1.1325 -1.0685  1.6465
  105OSM   H13B10676   1.535   3.608  10.351  2.8838  0.0625  0.5222
  105OSM   H13C10677   1.512   3.606  10.523 -0.4943 -0.3322 -0.3627
  105OSM    C1210678   1.332   3.766  10.281  0.4554  0.0327 -0.3448
  105OSM   H12A10679   1.367   3.868  10.287 -0.5559  0.3869 -0.1277
  105OSM   H12B10680   1.225   3.783  10.275  0.2232 -0.7449  1.1699
  105OSM    C1110681   1.383   3.687  10.160  0.3169  0.9972  0.3475
  105OSM   H11A10682   1.491   3.668  10.179 -0.0837 -3.3113 -0.7066
  105OSM   H11B10683   1.375   3.748  10.068 -0.5671  2.7301  1.5139
  105OSM      P10684   1.197   3.533  10.072  0.4812  0.1085 -0.1232
  105OSM    O1310685   1.122   3.423  10.141  0.3769 -0.1514 -0.2608
  105OSM    O1410686   1.122   3.662  10.053  0.0167  0.0668  0.2013
  105OSM    O1110687   1.252   3.484   9.934 -0.0354  0.7670  0.3360
  105OSM    O1210688   1.322   3.555  10.155 -0.1369 -0.2774 -0.0384
  105OSM    C1S10689   1.377   3.417   9.905 -0.5942 -0.6979 -0.4322
  105OSM    H1S10690   1.374   3.322   9.962 -2.5304  0.5986  1.8171
  105OSM    H1T10691   1.467   3.472   9.942 -2.0654  1.3218  0.3340
  105OSM     NF10692   1.518   3.309   9.745 -0.9386  0.3256 -0.7188
  105OSM    HNF10693   1.606   3.343   9.714 -0.6666 -0.5823 -0.9634
  105OSM    C2S10694   1.404   3.399   9.754 -0.4102  0.1539  0.4853
  105OSM    H2S10695   1.322   3.344   9.702  1.4154 -0.7195 -1.6036
  105OSM    C3S10696   1.428   3.533   9.678  0.7296  0.2056 -0.4035
  105OSM    H3S10697   1.508   3.589   9.730  0.3808 -0.3002  0.7210
  105OSM     O310698   1.309   3.613   9.670 -0.2947 -0.1280 -0.8563
  105OSM    HO310699   1.282   3.631   9.761  2.6370  1.4648 -0.1742
  105OSM    C4S10700   1.473   3.514   9.535  0.0932 -0.0497 -0.5334
  105OSM    H4S10701   1.413   3.437   9.485  1.0807 -1.5098  0.4281
  105OSM    C5S10702   1.588   3.570   9.479 -0.0625  0.0171 -0.7114
  105OSM    H5S10703   1.662   3.623   9.539 -2.3822  0.9880  1.4857
  105OSM    C6S10704   1.646   3.522   9.347  0.5395  0.8539 -1.1891
  105OSM    H6S10705   1.718   3.438   9.362 -0.0927  0.6690  1.3239
  105OSM    H6T10706   1.706   3.606   9.306  1.8300  0.4617 -0.2075
  105OSM    C7S10707   1.540   3.463   9.254  0.0850  0.0889 -0.1114
  105OSM    H7S10708   1.469   3.539   9.215  0.1367 -0.2650 -0.9042
  105OSM    H7T10709   1.488   3.382   9.308  2.3439 -0.9401  0.6484
  105OSM    C8S10710   1.606   3.398   9.131 -0.0509 -0.0306  0.5013
  105OSM    H8S10711   1.683   3.327   9.169  1.4994  2.0480  1.5080
  105OSM    H8T10712   1.653   3.464   9.055 -2.8286 -0.4846 -1.7723
  105OSM    C9S10713   1.502   3.328   9.041 -0.2173  0.5207  0.0002
  105OSM    H9S10714   1.414   3.395   9.029 -0.6895 -0.1521 -0.3891
  105OSM    H9T10715   1.482   3.244   9.110  0.0992  1.4688  1.2822
  105OSM   C10S10716   1.560   3.287   8.902  0.2207  0.6794 -0.0200
  105OSM   H10S10717   1.639   3.211   8.922 -0.9566 -0.5106  0.2131
  105OSM   H10T10718   1.604   3.379   8.857 -1.9548  1.0805 -1.4816
  105OSM   C11S10719   1.461   3.226   8.803  0.3956 -0.0872  0.7844
  105OSM   H11S10720   1.381   3.302   8.788  0.6457  0.1479  0.6233
  105OSM   H11T10721   1.409   3.132   8.830  0.1431 -0.1110  0.2285
  105OSM   C12S10722   1.521   3.198   8.664 -0.1138  0.2959 -0.5733
  105OSM   H12S10723   1.593   3.114   8.672 -0.1433  0.2215 -1.0984
  105OSM   H12T10724   1.578   3.276   8.610  1.5958 -0.7321 -0.3270
  105OSM   C13S10725   1.424   3.162   8.552 -0.1300 -0.4823 -0.0252
  105OSM   H13S10726   1.333   3.224   8.535  0.8603  0.8089 -0.7207
  105OSM   H13T10727   1.367   3.069   8.575  0.8410 -1.0756  0.0325
  105OSM   C14S10728   1.478   3.156   8.408  0.3293 -0.4133 -0.1950
  105OSM   H14S10729   1.572   3.098   8.396  0.3451 -0.1370 -1.6050
  105OSM   H14T10730   1.516   3.258   8.383  2.0188 -0.8669  0.4155
  105OSM   C15S10731   1.374   3.126   8.298  0.7778  0.2171 -0.6270
  105OSM   H15S10732   1.269   3.134   8.335  1.6668 -0.5778  2.3614
  105OSM   H15T10733   1.378   3.015   8.292 -2.0462  0.0462 -1.1220
  105OSM   C16S10734   1.402   3.195   8.170 -0.1728 -0.3513  0.0217
  105OSM   H16S10735   1.415   3.304   8.188 -0.2098 -0.1612 -1.0045
  105OSM   H16T10736   1.308   3.188   8.110  0.0912  2.4703 -0.8765
  105OSM   C17S10737   1.515   3.148   8.078 -0.5048  0.4640 -0.3543
  105OSM   H17S10738   1.506   3.038   8.064  1.4825  0.2362 -0.1524
  105OSM   H17T10739   1.612   3.162   8.130 -0.6059 -2.7190  0.8871
  105OSM   C18S10740   1.522   3.218   7.941 -0.4300 -0.9934  0.1758
  105OSM   H18S10741   1.564   3.321   7.943 -1.8350 -0.3313 -1.4008
  105OSM   H18T10742   1.422   3.233   7.895 -1.1259 -1.0539  1.6413
  105OSM   H18U10743   1.589   3.161   7.873 -0.6038 -1.7750  0.6534
  105OSM    C1F10744   1.506   3.184   9.765 -0.6559  0.0116 -0.3547
  105OSM     OF10745   1.396   3.133   9.770 -0.4970 -0.0234 -1.0456
  105OSM    C2F10746   1.628   3.097   9.762 -0.2121  0.4947 -0.2671
  105OSM    H2F10747   1.620   3.027   9.848  1.4436  0.3345 -0.2111
  105OSM    H2G10748   1.727   3.147   9.772  0.4938 -0.6855 -1.1854
  105OSM    C3F10749   1.647   3.008   9.634  0.2872 -0.7590  0.0117
  105OSM    H3F10750   1.549   2.959   9.619 -1.4158  1.3798  3.1149
  105OSM    H3G10751   1.723   2.928   9.649  0.7688 -0.5470 -1.1036
  105OSM    C4F10752   1.695   3.081   9.510  0.3046  0.3948 -0.2766
  105OSM    H4F10753   1.751   3.173   9.539 -2.3306  1.5740  1.5048
  105OSM    H4G10754   1.612   3.121   9.449 -1.1651 -0.2890  1.2053
  105OSM    C5F10755   1.777   2.989   9.412 -0.3707 -0.3365 -0.7128
  105OSM    H5F10756   1.868   2.942   9.455 -0.7953 -0.4481  0.0807
  105OSM    H5G10757   1.805   3.055   9.327 -2.1155  0.5430 -0.6501
  105OSM    C6F10758   1.680   2.882   9.352 -0.5137 -0.4578 -0.6814
  105OSM    H6F10759   1.609   2.955   9.306 -0.1872  0.9484  0.9025
  105OSM    H6G10760   1.618   2.843   9.436  0.7361 -0.7009  0.1402
  105OSM    C7F10761   1.753   2.792   9.258  0.3152  1.0576 -0.1454
  105OSM    H7F10762   1.832   2.738   9.313  2.3927  0.2861 -3.6079
  105OSM    H7G10763   1.806   2.850   9.180  1.2651  1.0815  0.5022
  105OSM    C8F10764   1.655   2.679   9.202 -0.1927 -0.0851 -0.2589
  105OSM    H8F10765   1.614   2.630   9.293  1.3888 -1.7716 -0.4093
  105OSM    H8G10766   1.720   2.610   9.145  1.5137  1.5907 -0.4552
  105OSM    C9F10767   1.554   2.749   9.124  0.2581 -0.3979  0.3195
  105OSM    H9F10768   1.496   2.819   9.186  1.1147 -2.1022  3.2534
  105OSM   C10F10769   1.528   2.731   8.996  0.1416 -0.0321 -0.2398
  105OSM   H10F10770   1.442   2.781   8.949  0.6074 -0.4777 -1.6345
  105OSM   C11F10771   1.599   2.636   8.900 -0.8893 -0.0337 -0.7885
  105OSM   H11F10772   1.559   2.533   8.909  0.7979 -0.5926  1.4736
  105OSM   H11G10773   1.698   2.609   8.944 -0.7213  2.8641  0.9085
  105OSM   C12F10774   1.595   2.683   8.752 -0.1495  0.1356 -0.3862
  105OSM   H12F10775   1.648   2.609   8.689  0.0202  0.6229 -0.8286
  105OSM   H12G10776   1.655   2.775   8.737  0.3753 -0.1670 -0.1528
  105OSM   C13F10777   1.448   2.707   8.705  0.1902 -0.1175  0.4015
  105OSM   H13F10778   1.411   2.803   8.748  1.7399  1.4003 -1.4609
  105OSM   H13G10779   1.397   2.618   8.746  1.7779 -1.1071  0.3048
  105OSM   C14F10780   1.431   2.719   8.551  0.3808 -0.8875  1.0176
  105OSM   H14F10781   1.493   2.788   8.490 -1.2038 -0.2541  0.0473
  105OSM   H14G10782   1.328   2.759   8.539  0.0759 -1.1965  2.4117
  105OSM   C15F10783   1.430   2.580   8.493  0.7888 -0.5443  0.2245
  105OSM   H15F10784   1.352   2.531   8.555 -1.7301  2.0558 -0.6838
  105OSM   H15G10785   1.532   2.538   8.504  1.2920  0.0074 -1.8952
  105OSM   C16F10786   1.380   2.575   8.347 -0.5012  0.2201 -0.9994
  105OSM   H16F10787   1.419   2.666   8.296 -1.3041  1.6793  0.8745
  105OSM   H16G10788   1.269   2.576   8.343 -0.5075 -0.4000 -0.9983
  105OSM   C17F10789   1.411   2.445   8.274  0.1312  0.2342  0.9305
  105OSM   H17F10790   1.345   2.372   8.325 -0.7549  0.3395 -0.0257
  105OSM   H17G10791   1.518   2.421   8.289  1.2334  2.5978 -2.1433
  105OSM   C18F10792   1.376   2.451   8.122  0.2719  0.2160  0.1273
  105OSM   H18F10793   1.385   2.352   8.072  0.8167 -0.2415  1.1023
  105OSM   H18G10794   1.447   2.526   8.080  2.3478 -0.8069  1.6453
  105OSM   H18H10795   1.271   2.485   8.104 -0.1052 -1.4446 -1.0533
  106OSM      N10796   2.737   1.711  10.426  0.1262 -0.4167  1.0919
  106OSM    C1510797   2.878   1.725  10.457 -0.2982  0.0424 -0.0639
  106OSM   H15A10798   2.894   1.822  10.501 -1.2415  0.0579  0.2559
  106OSM   H15B10799   2.942   1.723  10.370  0.5726 -0.5317  0.5677
  106OSM   H15C10800   2.908   1.637  10.513 -0.0365 -1.4365 -2.3831
  106OSM    C1410801   2.702   1.570  10.407  0.6421 -0.7758  0.0100
  106OSM   H14A10802   2.605   1.557  10.361  0.6219  0.2595 -0.2504
  106OSM   H14B10803   2.694   1.515  10.500  3.5064 -1.6944 -0.1790
  106OSM   H14C10804   2.759   1.511  10.337  1.4388  1.5600 -1.4135
  106OSM    C1310805   2.651   1.764  10.540 -0.0910  0.3550  0.4791
  106OSM   H13A10806   2.676   1.868  10.554 -1.0050  0.7456 -0.6694
  106OSM   H13B10807   2.674   1.704  10.627  0.4420 -2.6211 -1.5662
  106OSM   H13C10808   2.545   1.762  10.518  0.3337 -0.5326 -1.7808
  106OSM    C1210809   2.708   1.795  10.296 -0.3588  0.1239  0.4719
  106OSM   H12A10810   2.725   1.898  10.321  0.7671  0.1542 -0.3449
  106OSM   H12B10811   2.603   1.777  10.281 -0.6088  0.3629  1.8055
  106OSM    C1110812   2.793   1.774  10.161  0.2473 -0.4993  0.3073
  106OSM   H11A10813   2.893   1.823  10.165  0.2645 -0.3713 -1.1547
  106OSM   H11B10814   2.740   1.839  10.088 -0.7090  0.3421  1.7004
  106OSM      P10815   2.914   1.546  10.089  0.3627  0.4371 -0.1988
  106OSM    O1310816   3.041   1.599  10.146 -0.5745  0.0316  0.2338
  106OSM    O1410817   2.873   1.415  10.152 -0.5382 -0.6487 -0.0122
  106OSM    O1110818   2.918   1.515   9.931 -0.2083 -0.9463  0.3019
  106OSM    O1210819   2.788   1.639  10.122 -0.7151 -0.1147  0.2794
  106OSM    C1S10820   2.792   1.519   9.866 -0.3238  0.3503  0.8684
  106OSM    H1S10821   2.733   1.611   9.884  1.7466  1.9364  0.0103
  106OSM    H1T10822   2.724   1.437   9.897 -1.1518  0.2814 -0.9850
  106OSM     NF10823   2.712   1.553   9.635 -0.7096  0.2285 -0.5570
  106OSM    HNF10824   2.647   1.486   9.600 -0.8488 -0.6811  1.3294
  106OSM    C2S10825   2.822   1.497   9.711 -0.2931 -0.1288  0.0612
  106OSM    H2S10826   2.909   1.562   9.689  0.1727 -0.5497  0.6327
  106OSM    C3S10827   2.854   1.353   9.666 -0.1875  0.2555  0.1241
  106OSM    H3S10828   2.761   1.296   9.688 -0.6808  0.8799 -0.2777
  106OSM     O310829   2.951   1.297   9.748  0.5678  0.2587 -0.1715
  106OSM    HO310830   2.944   1.354   9.825 -0.2729  1.5730 -1.1846
  106OSM    C4S10831   2.892   1.341   9.523  0.8370 -0.1736 -0.2821
  106OSM    H4S10832   2.814   1.312   9.450  2.9367  0.2630 -2.8797
  106OSM    C5S10833   3.008   1.375   9.460 -0.6249 -0.2064  0.0363
  106OSM    H5S10834   3.085   1.418   9.526  0.7808 -1.4656 -0.7377
  106OSM    C6S10835   3.048   1.348   9.316 -0.1192 -0.3634  0.5944
  106OSM    H6S10836   2.984   1.275   9.262  0.6788  0.2225 -1.2357
  106OSM    H6T10837   3.151   1.307   9.311  0.2918  0.7179 -0.2613
  106OSM    C7S10838   3.046   1.487   9.238 -0.3301 -0.0364 -0.3659
  106OSM    H7S10839   3.084   1.465   9.136 -1.9798 -0.4265 -0.9336
  106OSM    H7T10840   3.118   1.557   9.285 -1.0211 -0.3925  1.2771
  106OSM    C8S10841   2.910   1.553   9.213  0.7496 -1.4262  0.1976
  106OSM    H8S10842   2.852   1.562   9.308  3.6879  1.8884  1.8973
  106OSM    H8T10843   2.846   1.491   9.147  0.7021  0.4016 -1.5744
  106OSM    C9S10844   2.924   1.684   9.137 -0.2388  0.2836 -0.3352
  106OSM    H9S10845   3.005   1.731   9.196  0.3209 -0.9136 -0.1124
  106OSM    H9T10846   2.827   1.738   9.149 -0.3378 -0.0969  0.6633
  106OSM   C10S10847   2.982   1.684   8.995  0.4844  0.4109 -0.6229
  106OSM   H10S10848   3.076   1.625   8.995  1.1431  1.3708  1.3876
  106OSM   H10T10849   2.997   1.790   8.965  1.1586  0.7000  0.6660
  106OSM   C11S10850   2.888   1.634   8.877 -0.2413  0.4138  0.6976
  106OSM   H11S10851   2.863   1.529   8.905  2.0443 -0.9940 -1.9908
  106OSM   H11T10852   2.962   1.629   8.794 -0.6426 -0.9564  0.4028
  106OSM   C12S10853   2.765   1.721   8.845 -0.0071  0.2179 -0.4340
  106OSM   H12S10854   2.804   1.823   8.826 -1.5099  1.2101  1.4784
  106OSM   H12T10855   2.700   1.721   8.935  1.6161  2.1461  0.8180
  106OSM   C13S10856   2.702   1.680   8.706  0.4714  0.1059 -0.7194
  106OSM   H13S10857   2.594   1.701   8.720  0.9827  1.1616  2.5126
  106OSM   H13T10858   2.696   1.570   8.695 -0.5634 -0.0084  0.6951
  106OSM   C14S10859   2.764   1.752   8.584  0.5189  0.1149  0.5078
  106OSM   H14S10860   2.863   1.707   8.561  0.0241 -0.1755 -1.2251
  106OSM   H14T10861   2.790   1.857   8.607  0.9730 -0.2088  1.5567
  106OSM   C15S10862   2.683   1.749   8.455  0.5057  0.2058 -0.6089
  106OSM   H15S10863   2.611   1.833   8.462  0.8878  0.4780  0.1369
  106OSM   H15T10864   2.637   1.647   8.454  1.0250 -0.1280  1.7461
  106OSM   C16S10865   2.766   1.759   8.330 -0.1271  0.0075 -0.3639
  106OSM   H16S10866   2.848   1.685   8.340  1.1921  1.4586  0.0613
  106OSM   H16T10867   2.827   1.852   8.333  0.2511 -0.2468  0.0066
  106OSM   C17S10868   2.697   1.726   8.191 -0.0651 -0.0824 -0.7582
  106OSM   H17S10869   2.655   1.624   8.205 -1.1177  0.5151  0.7615
  106OSM   H17T10870   2.783   1.720   8.121 -0.1187  0.3997 -0.8734
  106OSM   C18S10871   2.589   1.834   8.161 -0.0377  0.8332  0.6773
  106OSM   H18S10872   2.517   1.823   8.244 -0.1538  1.7617  0.7028
  106OSM   H18T10873   2.535   1.828   8.064 -1.0749 -1.1875  1.3211
  106OSM   H18U10874   2.640   1.933   8.162  1.6298  0.0765 -1.1178
  106OSM    C1F10875   2.682   1.677   9.605 -0.5199  0.8207  0.4964
  106OSM     OF10876   2.738   1.775   9.659  0.0556  0.1046 -0.4905
  106OSM    C2F10877   2.576   1.680   9.493  0.0226 -0.0230 -0.0675
  106OSM    H2F10878   2.472   1.678   9.533  0.3602  0.2156  0.8495
  106OSM    H2G10879   2.587   1.592   9.427 -1.1357 -2.1135  2.3626
  106OSM    C3F10880   2.600   1.801   9.405 -0.1167  0.5657  0.4749
  106OSM    H3F10881   2.703   1.804   9.363 -0.0525  1.6331  0.6845
  106OSM    H3G10882   2.601   1.903   9.448  1.9085  1.1745 -0.8808
  106OSM    C4F10883   2.511   1.794   9.281  0.9751  0.8849 -0.0228
  106OSM    H4F10884   2.404   1.813   9.305  0.3659  1.8811 -3.1212
  106OSM    H4G10885   2.524   1.688   9.248  3.0214  0.2718  2.4788
  106OSM    C5F10886   2.535   1.887   9.159  0.3951 -1.0260  0.7539
  106OSM    H5F10887   2.634   1.861   9.115  1.0662 -1.2539  2.3222
  106OSM    H5G10888   2.560   1.989   9.195 -0.7602 -0.5276  0.1910
  106OSM    C6F10889   2.428   1.892   9.058  0.3606  0.5780 -0.3780
  106OSM    H6F10890   2.335   1.899   9.117  1.9341  0.7262  2.2709
  106OSM    H6G10891   2.429   1.800   8.996 -3.2046  0.6015 -0.6510
  106OSM    C7F10892   2.448   2.022   8.976  0.3877  0.1355 -0.5441
  106OSM    H7F10893   2.552   2.033   8.941  0.0832  0.6340 -1.3173
  106OSM    H7G10894   2.429   2.107   9.046 -2.0404  0.3233 -1.3373
  106OSM    C8F10895   2.336   2.034   8.869  0.2127 -0.3014 -1.0061
  106OSM    H8F10896   2.360   2.127   8.814  2.7299 -1.9882 -2.9947
  106OSM    H8G10897   2.237   2.060   8.912 -0.6339 -0.4745 -2.7631
  106OSM    C9F10898   2.319   1.913   8.779 -0.7855 -0.1815 -0.1616
  106OSM    H9F10899   2.299   1.822   8.838 -1.1938  0.3319  0.5150
  106OSM   C10F10900   2.329   1.908   8.643  0.2080  0.4114 -0.6305
  106OSM   H10F10901   2.318   1.817   8.581 -0.4922  0.5109 -0.6539
  106OSM   C11F10902   2.369   2.030   8.560  0.9327 -0.8076 -0.2056
  106OSM   H11F10903   2.417   1.985   8.471  0.9224 -0.0870 -0.5741
  106OSM   H11G10904   2.449   2.086   8.613  1.7574 -0.9567 -1.2523
  106OSM   C12F10905   2.254   2.124   8.526  0.1200 -0.8426  0.4632
  106OSM   H12F10906   2.292   2.227   8.513 -1.4184 -0.3308 -0.2382
  106OSM   H12G10907   2.176   2.116   8.605 -0.8290 -1.9107 -0.5404
  106OSM   C13F10908   2.164   2.098   8.400 -0.5136  0.5366 -0.2125
  106OSM   H13F10909   2.078   2.168   8.391 -0.0204  1.3155  0.8948
  106OSM   H13G10910   2.127   1.993   8.405 -0.2886  0.4747  0.2426
  106OSM   C14F10911   2.247   2.108   8.270  0.1817  0.2761  0.3320
  106OSM   H14F10912   2.332   2.043   8.302  0.0597  0.5511  1.2432
  106OSM   H14G10913   2.290   2.207   8.243 -1.1830  0.5455 -0.9959
  106OSM   C15F10914   2.178   2.044   8.147 -0.4469 -0.2867 -0.3815
  106OSM   H15F10915   2.149   1.936   8.148 -0.3258 -0.4012 -3.2778
  106OSM   H15G10916   2.255   2.049   8.068  1.6650  3.7462  1.6412
  106OSM   C16F10917   2.052   2.123   8.092  0.0890  0.4399 -0.4860
  106OSM   H16F10918   2.071   2.231   8.078  0.0807  0.6469  0.9604
  106OSM   H16G10919   1.968   2.100   8.161  0.5119  0.0039 -0.1043
  106OSM   C17F10920   2.008   2.065   7.958 -0.6695 -0.2871 -0.9595
  106OSM   H17F10921   1.898   2.081   7.963 -0.6918 -0.8663  1.5826
  106OSM   H17G10922   2.016   1.954   7.954 -1.7839 -0.5045  1.1296
  106OSM   C18F10923   2.062   2.130   7.826  0.7403 -0.2453  0.2134
  106OSM   H18F10924   2.022   2.234   7.826  3.1007  0.7355 -0.4797
  106OSM   H18G10925   2.002   2.089   7.742  0.4707 -1.0412  0.7804
  106OSM   H18H10926   2.173   2.128   7.819  1.0452 -0.3526  3.3982
  107OSM      N10927   3.360   6.007  10.263 -0.3662  0.2216 -0.1911
  107OSM    C1510928   3.225   6.065  10.217  0.1565  0.3702 -0.3116
  107OSM   H15A10929   3.230   6.161  10.168 -0.9147  0.7490  0.2859
  107OSM   H15B10930   3.163   6.071  10.306  1.0176 -1.9069  0.5041
  107OSM   H15C10931   3.166   5.995  10.159 -2.3397  0.8070  1.5100
  107OSM    C1410932   3.426   6.118  10.342 -0.4559  0.4691 -0.9897
  107OSM   H14A10933   3.532   6.098  10.352 -1.0353 -4.0922 -1.6723
  107OSM   H14B10934   3.381   6.133  10.439 -0.2384  2.1425 -1.1277
  107OSM   H14C10935   3.414   6.211  10.290 -0.4075  1.0844  0.0699
  107OSM    C1310936   3.333   5.887  10.349  0.1708 -0.4793  0.1321
  107OSM   H13A10937   3.417   5.832  10.388 -0.7572  0.1611  3.2953
  107OSM   H13B10938   3.266   5.826  10.289 -0.7597  1.4859 -0.9144
  107OSM   H13C10939   3.277   5.919  10.436  0.3176  0.8855 -0.2617
  107OSM    C1210940   3.445   5.970  10.143  0.2394  0.1839  0.7040
  107OSM   H12A10941   3.548   5.946  10.169  1.2013  1.9785 -1.2083
  107OSM   H12B10942   3.468   6.059  10.087 -0.8908  0.7192  1.0666
  107OSM    C1110943   3.394   5.874  10.030 -0.4941  0.4810  0.4880
  107OSM   H11A10944   3.360   5.779  10.076  1.0449 -0.4809 -0.2590
  107OSM   H11B10945   3.482   5.848   9.967  0.4234  4.5896 -0.2389
  107OSM      P10946   3.336   6.064   9.867  0.1564 -0.3187  0.5012
  107OSM    O1310947   3.206   6.128   9.824  0.1739  0.7423 -0.3159
  107OSM    O1410948   3.443   6.151   9.930 -0.1353  0.2418  0.1434
  107OSM    O1110949   3.394   6.002   9.734 -0.7458 -0.6714 -0.6446
  107OSM    O1210950   3.295   5.939   9.957 -0.3987  0.4471 -0.1986
  107OSM    C1S10951   3.317   5.899   9.675  0.2500 -0.1646  0.4153
  107OSM    H1S10952   3.232   5.951   9.624 -0.5795  1.2327  3.0212
  107OSM    H1T10953   3.277   5.824   9.747  0.3241 -0.4551  0.1585
  107OSM     NF10954   3.316   5.738   9.487  0.0356  0.0550  0.1016
  107OSM    HNF10955   3.299   5.644   9.518  0.8502 -0.0639  0.2253
  107OSM    C2S10956   3.403   5.818   9.571  0.0992 -0.0299 -0.0277
  107OSM    H2S10957   3.450   5.889   9.500  0.6887 -1.3032 -0.9396
  107OSM    C3S10958   3.521   5.739   9.641 -0.2717  0.6756  0.4561
  107OSM    H3S10959   3.483   5.676   9.725 -2.3646 -0.4570 -1.2327
  107OSM     O310960   3.625   5.821   9.703  0.0340  0.0491  0.0285
  107OSM    HO310961   3.596   5.913   9.703  0.1488  0.0869  0.3833
  107OSM    C4S10962   3.589   5.661   9.537 -0.8155 -0.3253  0.0984
  107OSM    H4S10963   3.536   5.566   9.523 -2.7593  0.7810 -0.5491
  107OSM    C5S10964   3.694   5.688   9.458  0.4041 -0.6841  0.9372
  107OSM    H5S10965   3.749   5.783   9.462  1.6031 -1.1050 -2.1981
  107OSM    C6S10966   3.756   5.598   9.347  0.0825  0.6222  0.4406
  107OSM    H6S10967   3.832   5.526   9.386 -1.0809 -0.4097  0.8710
  107OSM    H6T10968   3.801   5.668   9.274 -2.0918  1.9416  0.2714
  107OSM    C7S10969   3.650   5.520   9.268  0.2676  0.0863 -0.5201
  107OSM    H7S10970   3.604   5.446   9.337  3.4761 -0.7849  0.8520
  107OSM    H7T10971   3.702   5.443   9.207  1.3066  0.9167 -0.6954
  107OSM    C8S10972   3.555   5.602   9.180  0.0192  0.0519 -0.1514
  107OSM    H8S10973   3.613   5.635   9.091  1.1459 -0.1731  0.4797
  107OSM    H8T10974   3.525   5.696   9.231 -1.7396  1.0372 -2.7750
  107OSM    C9S10975   3.427   5.530   9.137  0.2023  0.3943 -0.5068
  107OSM    H9S10976   3.358   5.586   9.072 -2.4332 -2.5783 -0.4953
  107OSM    H9T10977   3.369   5.511   9.230  2.6792  0.9807  1.2889
  107OSM   C10S10978   3.460   5.398   9.059 -0.4632  0.3287 -0.6301
  107OSM   H10S10979   3.377   5.326   9.074  2.3111 -2.6848  1.5272
  107OSM   H10T10980   3.549   5.346   9.101 -1.3272 -2.1257 -1.6565
  107OSM   C11S10981   3.479   5.427   8.904 -0.3972  0.2451 -0.8221
  107OSM   H11S10982   3.555   5.508   8.907 -1.5897  1.3710 -0.0746
  107OSM   H11T10983   3.384   5.470   8.868 -0.0772  3.1001  1.4237
  107OSM   C12S10984   3.516   5.295   8.834 -0.6455 -0.2502  0.8163
  107OSM   H12S10985   3.445   5.216   8.868 -1.1115  0.0013  0.4361
  107OSM   H12T10986   3.618   5.272   8.872  0.0382 -0.1097 -0.8558
  107OSM   C13S10987   3.533   5.295   8.678 -0.1471 -0.9746 -0.5285
  107OSM   H13S10988   3.625   5.349   8.648  0.2853 -0.4170  1.6635
  107OSM   H13T10989   3.446   5.349   8.634 -0.5180 -0.2718  1.0279
  107OSM   C14S10990   3.536   5.152   8.627 -0.0618 -0.4801 -0.0019
  107OSM   H14S10991   3.435   5.113   8.606 -0.3098  0.7131 -1.1082
  107OSM   H14T10992   3.584   5.086   8.704 -0.8734 -0.9121  0.1413
  107OSM   C15S10993   3.629   5.126   8.506 -0.2413  0.6202  0.0721
  107OSM   H15S10994   3.645   5.016   8.515 -0.1792  0.7077  1.1030
  107OSM   H15T10995   3.727   5.180   8.505  0.7289 -1.0730 -0.5007
  107OSM   C16S10996   3.564   5.176   8.373 -0.1369  0.2157 -0.5023
  107OSM   H16S10997   3.525   5.279   8.387 -1.3883 -0.5801  2.7205
  107OSM   H16T10998   3.477   5.112   8.347 -0.1743 -0.3911  1.0547
  107OSM   C17S10999   3.660   5.181   8.257  0.6628 -0.8402 -0.4515
  107OSM   H17S11000   3.755   5.228   8.289 -0.7790  0.8113  1.7698
  107OSM   H17T11001   3.621   5.240   8.172 -0.4079  1.5226  1.5516
  107OSM   C18S11002   3.704   5.040   8.216  0.2785  0.1483 -0.5995
  107OSM   H18S11003   3.621   4.975   8.180 -0.0792 -1.4793  2.8334
  107OSM   H18T11004   3.760   4.981   8.291  1.5684 -1.6957 -2.8437
  107OSM   H18U11005   3.778   5.049   8.133  1.4348  1.9559  0.5646
  107OSM    C1F11006   3.238   5.793   9.394  0.3503 -0.3612 -0.5234
  107OSM     OF11007   3.258   5.910   9.358 -0.4131 -0.2080 -0.0467
  107OSM    C2F11008   3.136   5.718   9.327 -0.2642 -0.2238  0.1894
  107OSM    H2F11009   3.089   5.649   9.401 -2.0410 -0.7669 -1.3623
  107OSM    H2G11010   3.184   5.658   9.247  0.3989 -0.6870  0.9190
  107OSM    C3F11011   3.036   5.817   9.271  0.0108  0.0526  1.1066
  107OSM    H3F11012   3.082   5.849   9.175 -1.2560 -1.9401 -0.2443
  107OSM    H3G11013   3.019   5.900   9.343  0.7124  0.5496  0.7105
  107OSM    C4F11014   2.899   5.753   9.236  0.2022  0.0176  0.1231
  107OSM    H4F11015   2.834   5.839   9.207 -0.2290  0.2062  1.5627
  107OSM    H4G11016   2.852   5.689   9.314 -0.1442 -0.9996 -0.9046
  107OSM    C5F11017   2.907   5.665   9.105  0.3395 -0.0480 -0.6278
  107OSM    H5F11018   2.819   5.600   9.083 -0.8077  0.4924  1.9914
  107OSM    H5G11019   2.998   5.603   9.122  0.0249 -0.3377  0.0400
  107OSM    C6F11020   2.921   5.747   8.980 -0.7163  0.2999 -0.2836
  107OSM    H6F11021   2.999   5.825   8.993 -1.5520  0.8603  1.8057
  107OSM    H6G11022   2.822   5.797   8.971 -0.6470  0.3115 -1.0344
  107OSM    C7F11023   2.946   5.665   8.851  0.0718  0.2281 -0.0558
  107OSM    H7F11024   2.902   5.718   8.764 -1.6051  1.4653  1.4775
  107OSM    H7G11025   2.889   5.570   8.850 -0.7036  0.6958 -0.2051
  107OSM    C8F11026   3.095   5.634   8.820 -0.5597  0.4267  0.2133
  107OSM    H8F11027   3.141   5.578   8.904  0.8621  0.3272 -0.5863
  107OSM    H8G11028   3.159   5.725   8.828  0.0064 -0.0726  1.8145
  107OSM    C9F11029   3.128   5.551   8.698  0.0201 -0.3281  0.2772
  107OSM    H9F11030   3.120   5.443   8.713  0.7691 -0.1923  1.8638
  107OSM   C10F11031   3.144   5.586   8.572 -0.0798  0.3986  0.0860
  107OSM   H10F11032   3.184   5.508   8.505  0.6866 -0.4349  1.4712
  107OSM   C11F11033   3.144   5.725   8.521 -0.3746 -0.6105  0.3769
  107OSM   H11F11034   3.220   5.742   8.442 -0.4566  0.7826  0.5799
  107OSM   H11G11035   3.162   5.800   8.601 -0.1971  0.1373 -0.3645
  107OSM   C12F11036   3.016   5.779   8.458 -0.7899 -0.7075  0.2879
  107OSM   H12F11037   3.019   5.875   8.402  0.5436 -1.9266 -1.8804
  107OSM   H12G11038   2.937   5.780   8.536 -0.7967 -1.4864  0.2968
  107OSM   C13F11039   2.942   5.680   8.365  0.1022 -0.0403 -0.5051
  107OSM   H13F11040   2.902   5.590   8.417 -0.3727 -0.2593 -1.2447
  107OSM   H13G11041   3.022   5.640   8.300  2.0676 -2.9404  3.2818
  107OSM   C14F11042   2.822   5.746   8.284 -0.8828 -0.6969 -0.1250
  107OSM   H14F11043   2.864   5.838   8.237 -0.6867  0.2900  1.8869
  107OSM   H14G11044   2.734   5.776   8.345 -1.5260  0.2461 -1.4612
  107OSM   C15F11045   2.779   5.639   8.178  0.5620 -0.1493  0.2755
  107OSM   H15F11046   2.746   5.548   8.233 -0.7370 -0.2071 -0.5442
  107OSM   H15G11047   2.866   5.613   8.113  1.0128 -0.9474  1.1761
  107OSM   C16F11048   2.665   5.707   8.096 -0.3096 -0.6121  0.0636
  107OSM   H16F11049   2.606   5.764   8.170  1.5521  0.1147  1.0579
  107OSM   H16G11050   2.588   5.641   8.050 -1.5128  0.3529  0.6423
  107OSM   C17F11051   2.720   5.800   7.987 -0.0940 -0.3309  0.5233
  107OSM   H17F11052   2.767   5.752   7.898 -0.4367 -0.5955  0.4852
  107OSM   H17G11053   2.789   5.871   8.037  1.4555 -1.6942  0.4172
  107OSM   C18F11054   2.597   5.876   7.927 -0.1624 -0.0879 -0.2565
  107OSM   H18F11055   2.520   5.808   7.884 -0.6493 -0.5118  1.2405
  107OSM   H18G11056   2.620   5.939   7.839  0.4079 -1.8418 -1.4167
  107OSM   H18H11057   2.550   5.929   8.013 -0.1707 -0.6844  0.1115
  108OSM      N11058   1.210   2.952   9.983  0.2443 -1.0502 -0.6294
  108OSM    C1511059   1.150   2.873  10.103 -0.5657  0.2559  0.0571
  108OSM   H15A11060   1.045   2.889  10.123 -0.5144  1.0292 -0.2403
  108OSM   H15B11061   1.203   2.892  10.195 -0.2658  0.8477 -0.2256
  108OSM   H15C11062   1.151   2.768  10.080  0.4052  0.2904 -0.0911
  108OSM    C1411063   1.122   2.939   9.860 -0.1183 -0.1398 -0.7481
  108OSM   H14A11064   1.175   2.999   9.787  1.8224 -0.2086  0.5229
  108OSM   H14B11065   1.032   2.997   9.875  0.6147  0.8566 -0.0244
  108OSM   H14C11066   1.121   2.838   9.822  0.1024 -0.4681  0.0914
  108OSM    C1311067   1.215   3.097  10.027  0.5805  0.7003 -0.1956
  108OSM   H13A11068   1.258   3.108  10.125  0.3925 -1.0600  0.1148
  108OSM   H13B11069   1.116   3.141  10.022  0.6306  0.7384 -1.0641
  108OSM   H13C11070   1.276   3.148   9.955 -2.0036 -0.0018 -3.1041
  108OSM    C1211071   1.351   2.909   9.963  0.5234  0.7032 -0.7126
  108OSM   H12A11072   1.393   2.957   9.876  0.0260 -0.9445 -1.9347
  108OSM   H12B11073   1.341   2.807   9.927  1.3254  0.7344 -1.0441
  108OSM    C1111074   1.443   2.902  10.094 -0.3347 -0.2874  0.3857
  108OSM   H11A11075   1.435   2.996  10.152  0.9560  2.4973 -3.4955
  108OSM   H11B11076   1.547   2.905  10.054 -0.8571 -0.4732 -1.0479
  108OSM      P11077   1.484   2.643  10.090  0.1637 -0.3423 -0.2727
  108OSM    O1311078   1.612   2.626  10.162 -0.3378 -0.6014 -0.0523
  108OSM    O1411079   1.381   2.533  10.098  0.0530  0.2415  0.0453
  108OSM    O1111080   1.508   2.675   9.933 -0.3846 -0.4048 -0.0324
  108OSM    O1211081   1.422   2.769  10.157  0.2123 -0.4211  0.4483
  108OSM    C1S11082   1.485   2.569   9.839  0.0592  0.6557 -0.3589
  108OSM    H1S11083   1.378   2.540   9.826 -0.7185  2.0158  2.1576
  108OSM    H1T11084   1.533   2.472   9.865 -0.3494  0.7720  0.9071
  108OSM     NF11085   1.505   2.518   9.598 -0.2722  0.4378  0.1690
  108OSM    HNF11086   1.546   2.435   9.562 -0.0147  0.1776  1.0484
  108OSM    C2S11087   1.555   2.595   9.706 -0.4397 -0.4899  0.0354
  108OSM    H2S11088   1.541   2.703   9.685 -2.2612 -0.3255  1.7655
  108OSM    C3S11089   1.707   2.563   9.740  0.1029  0.0030  0.0909
  108OSM    H3S11090   1.708   2.457   9.775  0.4730 -0.6404 -1.7261
  108OSM     O311091   1.750   2.650   9.843  0.2947  0.2240 -0.4638
  108OSM    HO311092   1.667   2.663   9.889  0.4396 -1.5089  0.3834
  108OSM    C4S11093   1.796   2.579   9.621  0.3863  0.1417  0.3058
  108OSM    H4S11094   1.805   2.687   9.606 -0.0661  0.3458  1.4509
  108OSM    C5S11095   1.869   2.488   9.555 -0.5916  0.2563  0.3371
  108OSM    H5S11096   1.858   2.383   9.585 -0.1636 -0.3189 -1.4212
  108OSM    C6S11097   1.964   2.504   9.434  0.3235 -0.1193 -0.0536
  108OSM    H6S11098   2.066   2.466   9.457 -0.1535 -1.6711 -0.4085
  108OSM    H6T11099   1.964   2.600   9.378  1.5063 -1.1885 -2.0171
  108OSM    C7S11100   1.893   2.404   9.333 -0.7345  0.2409  0.0197
  108OSM    H7S11101   1.785   2.428   9.323 -0.5664  1.9262  1.6301
  108OSM    H7T11102   1.899   2.302   9.376 -1.7206  0.6000  1.0824
  108OSM    C8S11103   1.950   2.408   9.198 -0.2461 -0.1241  1.3735
  108OSM    H8S11104   2.061   2.413   9.200 -0.2314 -0.3581  1.1534
  108OSM    H8T11105   1.918   2.501   9.148  0.0518 -1.2903 -1.1445
  108OSM    C9S11106   1.893   2.290   9.115 -0.5286  0.1609 -0.0852
  108OSM    H9S11107   1.783   2.301   9.119 -0.4290  1.1012  0.2348
  108OSM    H9T11108   1.941   2.200   9.158  0.3134 -1.0063 -3.1385
  108OSM   C10S11109   1.942   2.303   8.971 -0.5415 -0.4313 -0.3158
  108OSM   H10S11110   2.047   2.267   8.966 -0.1434  0.8222 -1.6959
  108OSM   H10T11111   1.946   2.411   8.946 -0.3582 -0.0246  1.3181
  108OSM   C11S11112   1.857   2.242   8.868 -0.3296 -0.1770  0.1030
  108OSM   H11S11113   1.757   2.287   8.880 -0.9095 -1.3632 -0.1032
  108OSM   H11T11114   1.848   2.131   8.880 -0.0389 -0.4142 -1.6724
  108OSM   C12S11115   1.912   2.279   8.726 -0.5007 -0.1488  0.9840
  108OSM   H12S11116   2.018   2.247   8.712 -0.9384 -2.0399  1.6881
  108OSM   H12T11117   1.915   2.389   8.710  1.2554 -0.4815 -1.4845
  108OSM   C13S11118   1.839   2.224   8.614 -0.5443  0.3986  0.5020
  108OSM   H13S11119   1.829   2.116   8.640  0.9856 -0.0860 -0.7775
  108OSM   H13T11120   1.900   2.227   8.522  0.1664  0.5695  0.9741
  108OSM   C14S11121   1.686   2.265   8.590 -0.1242  0.1872  0.2498
  108OSM   H14S11122   1.689   2.373   8.564  1.3592  0.5200  1.6773
  108OSM   H14T11123   1.632   2.255   8.686  1.3581  2.0256  1.3487
  108OSM   C15S11124   1.622   2.193   8.473  0.2917 -0.7895  0.6311
  108OSM   H15S11125   1.659   2.222   8.373 -0.2878 -0.6689  0.4530
  108OSM   H15T11126   1.513   2.214   8.466  0.2744 -0.4999  1.5911
  108OSM   C16S11127   1.634   2.041   8.490 -0.4490 -0.1724  0.5182
  108OSM   H16S11128   1.598   2.034   8.595 -1.9495  0.2708  0.0565
  108OSM   H16T11129   1.741   2.010   8.490 -0.0777  1.0502  0.6077
  108OSM   C17S11130   1.537   1.969   8.405  0.1029 -0.5088  0.3519
  108OSM   H17S11131   1.579   1.971   8.302 -0.5211 -0.3319  0.0985
  108OSM   H17T11132   1.432   2.005   8.407 -0.2125 -1.2261 -1.4118
  108OSM   C18S11133   1.532   1.825   8.455 -0.1105  0.3241 -0.3569
  108OSM   H18S11134   1.510   1.818   8.564 -2.4463 -0.3278 -0.8096
  108OSM   H18T11135   1.624   1.766   8.437 -0.2249 -0.2464  0.7956
  108OSM   H18U11136   1.444   1.792   8.396  1.4703 -4.3292 -0.5354
  108OSM    C1F11137   1.391   2.547   9.542  0.6314  0.0341 -0.3686
  108OSM     OF11138   1.308   2.619   9.604  0.1576  0.7378 -0.2339
  108OSM    C2F11139   1.360   2.487   9.406  0.0339 -0.1823  0.4109
  108OSM    H2F11140   1.339   2.378   9.410 -2.2347  0.1980  0.6397
  108OSM    H2G11141   1.454   2.491   9.348 -0.4418  0.3262 -0.3339
  108OSM    C3F11142   1.249   2.575   9.338 -0.3706  0.0210 -1.0542
  108OSM    H3F11143   1.273   2.683   9.333  2.8435 -0.4696  0.8161
  108OSM    H3G11144   1.156   2.550   9.393  0.9782  0.1689  1.4073
  108OSM    C4F11145   1.223   2.537   9.189  0.2667  0.2834 -0.2721
  108OSM    H4F11146   1.177   2.437   9.181 -0.6699  0.4630  2.1192
  108OSM    H4G11147   1.321   2.532   9.137  0.9131  2.9975  0.5188
  108OSM    C5F11148   1.126   2.631   9.117 -0.2924 -0.1575  0.1263
  108OSM    H5F11149   1.138   2.737   9.147  1.3393  0.1060 -1.3049
  108OSM    H5G11150   1.023   2.595   9.134  0.2410 -1.0669  1.6182
  108OSM    C6F11151   1.165   2.616   8.971  0.0049  0.0335 -0.1525
  108OSM    H6F11152   1.187   2.513   8.935 -0.6797 -0.4131  0.6776
  108OSM    H6G11153   1.251   2.685   8.964 -1.1334  1.4253 -0.7941
  108OSM    C7F11154   1.050   2.649   8.871 -0.0052  0.6858 -0.2166
  108OSM    H7F11155   1.001   2.745   8.897 -1.3911  0.2498 -1.1389
  108OSM    H7G11156   0.971   2.571   8.878 -1.3852  1.9907 -0.7209
  108OSM    C8F11157   1.102   2.659   8.731  0.0865 -0.0779 -0.2716
  108OSM    H8F11158   1.169   2.575   8.701 -0.5064 -0.6028 -0.1535
  108OSM    H8G11159   1.170   2.745   8.714 -0.8402  0.8527  0.6396
  108OSM    C9F11160   0.996   2.654   8.627 -0.7939 -0.4433  0.3102
  108OSM    H9F11161   0.963   2.550   8.613 -1.2188 -0.2644 -0.0739
  108OSM   C10F11162   0.963   2.751   8.535  0.4694  0.0787 -0.0322
  108OSM   H10F11163   0.922   2.731   8.435 -1.0254 -0.8690  0.7210
  108OSM   C11F11164   1.026   2.889   8.539 -0.2261  0.1172 -0.3243
  108OSM   H11F11165   1.131   2.894   8.574 -0.3302 -1.7031  0.3848
  108OSM   H11G11166   0.959   2.959   8.595 -1.1705 -0.7374 -0.3420
  108OSM   C12F11167   1.035   2.959   8.399 -0.1861  0.3369 -1.0762
  108OSM   H12F11168   1.071   3.062   8.417 -0.5864  0.2905  0.0844
  108OSM   H12G11169   0.931   2.964   8.360 -1.2383  0.9061  1.5394
  108OSM   C13F11170   1.129   2.886   8.309  0.3195 -0.0844 -0.3670
  108OSM   H13F11171   1.102   2.778   8.308 -2.2564  0.4906 -2.5253
  108OSM   H13G11172   1.231   2.901   8.352  0.0339  0.1209  0.2473
  108OSM   C14F11173   1.130   2.931   8.162  0.2436  0.4784 -0.0574
  108OSM   H14F11174   1.157   3.039   8.153 -0.4941  0.6047 -0.8189
  108OSM   H14G11175   1.035   2.917   8.107  0.5985 -0.1800 -0.5232
  108OSM   C15F11176   1.238   2.855   8.073  0.1035  1.1878  0.4757
  108OSM   H15F11177   1.199   2.751   8.079 -0.4491  1.3442 -0.1823
  108OSM   H15G11178   1.337   2.860   8.123  0.1722  2.1450  0.2697
  108OSM   C16F11179   1.253   2.897   7.932  0.4196 -0.1593 -0.2746
  108OSM   H16F11180   1.270   3.007   7.928 -0.7110  0.0293  0.0321
  108OSM   H16G11181   1.158   2.870   7.882  0.7698  0.4526 -1.3146
  108OSM   C17F11182   1.368   2.824   7.864 -0.3481 -0.2325 -0.1133
  108OSM   H17F11183   1.326   2.724   7.837 -2.1036  0.2849  0.5750
  108OSM   H17G11184   1.445   2.795   7.938 -0.7540 -1.3447 -0.1006
  108OSM   C18F11185   1.440   2.896   7.747 -0.8094 -0.9865 -0.3450
  108OSM   H18F11186   1.512   2.830   7.694  0.5686  0.9060 -0.9520
  108OSM   H18G11187   1.496   2.984   7.786  0.8507 -2.1800  0.0963
  108OSM   H18H11188   1.371   2.939   7.671  0.0008 -0.2274 -0.6750
  109OSM      N11189   0.616   4.230   9.838 -0.2626 -0.1762 -0.4965
  109OSM    C1511190   0.655   4.356   9.776  0.2182  0.1855 -0.3063
  109OSM   H15A11191   0.579   4.432   9.768  0.8000  0.8354  0.1992
  109OSM   H15B11192   0.677   4.325   9.675 -5.0082  1.6447 -2.2073
  109OSM   H15C11193   0.751   4.394   9.809  1.5248 -2.1067 -1.2433
  109OSM    C1411194   0.606   4.250   9.986 -0.3297  0.5656  0.5724
  109OSM   H14A11195   0.702   4.275  10.029  1.9891  1.3347 -4.4376
  109OSM   H14B11196   0.576   4.155  10.028  0.1423  0.4775  0.7255
  109OSM   H14C11197   0.534   4.326  10.011 -0.2777  0.4775  0.9973
  109OSM    C1311198   0.480   4.187   9.790  0.2010 -0.1378  0.9163
  109OSM   H13A11199   0.407   4.263   9.815  0.8614  1.1155 -0.7268
  109OSM   H13B11200   0.447   4.092   9.828 -0.8238 -0.6904 -1.1879
  109OSM   H13C11201   0.478   4.185   9.682 -0.0437  2.9787  0.7595
  109OSM    C1211202   0.728   4.132   9.819  0.2192  0.3329 -0.0821
  109OSM   H12A11203   0.750   4.126   9.713  2.9451 -0.0901  0.4245
  109OSM   H12B11204   0.691   4.035   9.849  0.4131 -0.5924 -2.5376
  109OSM    C1111205   0.868   4.154   9.881 -0.3758  0.0009  0.3025
  109OSM   H11A11206   0.931   4.064   9.864  0.2041  0.7662 -1.9087
  109OSM   H11B11207   0.852   4.160   9.991 -3.0304 -1.1415  0.0427
  109OSM      P11208   1.002   4.293   9.699  0.3521  0.2594 -0.4839
  109OSM    O1311209   0.909   4.227   9.601  0.6361  0.1257 -0.5409
  109OSM    O1411210   1.038   4.431   9.685  0.4129  0.3240 -0.1309
  109OSM    O1111211   1.134   4.202   9.694 -0.1792 -0.0267  0.3688
  109OSM    O1211212   0.934   4.275   9.839  0.1316  0.3142 -0.7857
  109OSM    C1S11213   1.131   4.058   9.674  0.1340 -0.7526 -0.0591
  109OSM    H1S11214   1.030   4.025   9.643 -0.4732  2.3523 -1.9202
  109OSM    H1T11215   1.146   4.015   9.775 -2.1690 -2.0401 -0.1950
  109OSM     NF11216   1.194   3.862   9.543 -0.5079 -0.1556 -0.1334
  109OSM    HNF11217   1.260   3.790   9.563 -0.3675 -1.2706 -3.8645
  109OSM    C2S11218   1.227   4.003   9.571  0.2974  0.1148 -0.3089
  109OSM    H2S11219   1.208   4.068   9.483 -0.7064  0.3789  0.0925
  109OSM    C3S11220   1.371   4.032   9.609 -0.4584 -0.3313 -0.5957
  109OSM    H3S11221   1.397   3.965   9.694 -2.0295 -0.4216 -0.1668
  109OSM     O311222   1.387   4.166   9.653 -0.1464 -0.0585 -0.1833
  109OSM    HO311223   1.298   4.199   9.663  0.0809  0.5228  0.0255
  109OSM    C4S11224   1.464   3.987   9.505  0.3555 -0.1395  0.2755
  109OSM    H4S11225   1.517   3.892   9.521  1.2933  0.0932 -1.2880
  109OSM    C5S11226   1.491   4.068   9.395 -0.2027  0.0599 -0.2886
  109OSM    H5S11227   1.452   4.171   9.397  1.5489  0.7566  0.6829
  109OSM    C6S11228   1.570   4.031   9.277  0.2131  0.1726  0.9803
  109OSM    H6S11229   1.674   4.006   9.308  1.3452  0.3591 -2.2784
  109OSM    H6T11230   1.577   4.121   9.212  2.4812 -0.9349 -0.4665
  109OSM    C7S11231   1.517   3.903   9.206  0.1273  0.2126 -0.4873
  109OSM    H7S11232   1.429   3.917   9.139 -0.7891 -1.3826  0.3263
  109OSM    H7T11233   1.479   3.840   9.289 -0.5789  1.6604  0.3150
  109OSM    C8S11234   1.628   3.840   9.128  0.1284  0.4982  0.9946
  109OSM    H8S11235   1.605   3.738   9.092  0.0733  0.5054  1.0104
  109OSM    H8T11236   1.730   3.841   9.173 -0.9962 -0.2492  3.7927
  109OSM    C9S11237   1.642   3.921   8.991  0.5284 -0.7990  0.3279
  109OSM    H9S11238   1.678   4.025   9.007 -2.7133  0.2982  1.2022
  109OSM    H9T11239   1.539   3.935   8.952  0.2944 -0.8256  0.9342
  109OSM   C10S11240   1.721   3.863   8.877 -0.6772  0.2168  0.1804
  109OSM   H10S11241   1.683   3.759   8.861  0.9386 -0.3273 -0.3182
  109OSM   H10T11242   1.825   3.861   8.916 -0.1680  1.7813 -1.0146
  109OSM   C11S11243   1.725   3.942   8.748  0.0857 -0.4630  0.3051
  109OSM   H11S11244   1.768   4.044   8.756 -1.6101  0.2230  1.3457
  109OSM   H11T11245   1.618   3.955   8.718  0.3981  0.1693 -0.5790
  109OSM   C12S11246   1.798   3.865   8.637 -0.2868  0.5114 -0.2972
  109OSM   H12S11247   1.761   3.761   8.646  3.7972 -0.9221  3.3959
  109OSM   H12T11248   1.907   3.862   8.655 -0.5453 -0.3969  1.2495
  109OSM   C13S11249   1.772   3.933   8.504  0.5012  1.4756 -0.3408
  109OSM   H13S11250   1.811   4.037   8.513 -0.9934  2.1055 -0.9696
  109OSM   H13T11251   1.662   3.933   8.495  0.2730 -0.0345  1.6444
  109OSM   C14S11252   1.849   3.875   8.383 -0.4637 -0.1557 -0.6255
  109OSM   H14S11253   1.808   3.772   8.377  1.0827 -0.9084  0.9366
  109OSM   H14T11254   1.956   3.864   8.411 -0.3387 -0.0331 -1.0374
  109OSM   C15S11255   1.828   3.938   8.252  0.3112  0.6314  0.2052
  109OSM   H15S11256   1.731   3.990   8.267 -0.2547 -0.1188 -0.7248
  109OSM   H15T11257   1.837   3.867   8.167 -0.3398  0.6642  0.1045
  109OSM   C16S11258   1.921   4.056   8.226 -0.0853 -0.6901  0.3966
  109OSM   H16S11259   2.022   4.012   8.235 -0.2504 -0.7577  2.2482
  109OSM   H16T11260   1.901   4.137   8.299  0.4251 -1.4771  1.4322
  109OSM   C17S11261   1.904   4.114   8.081  0.0528  0.8532 -0.1968
  109OSM   H17S11262   1.896   4.022   8.019 -0.1614  0.2709  0.6685
  109OSM   H17T11263   1.988   4.178   8.047 -1.0202  1.5642 -1.6070
  109OSM   C18S11264   1.783   4.199   8.066 -0.5450  0.0093  0.1323
  109OSM   H18S11265   1.690   4.141   8.086  0.1152 -1.4058 -0.7537
  109OSM   H18T11266   1.781   4.241   7.963  1.2022  0.8235  0.3955
  109OSM   H18U11267   1.794   4.287   8.133  1.9770  0.3344 -0.6390
  109OSM    C1F11268   1.081   3.831   9.470 -0.4321  0.1349  0.3604
  109OSM     OF11269   1.002   3.916   9.424 -0.1075 -0.0887  0.3502
  109OSM    C2F11270   1.066   3.686   9.444 -0.9445 -0.3281 -0.0848
  109OSM    H2F11271   0.986   3.642   9.508 -1.8769  2.7774  1.0615
  109OSM    H2G11272   1.161   3.630   9.460 -1.3363 -1.2875 -0.9908
  109OSM    C3F11273   1.034   3.661   9.293 -0.2860  0.0138  0.3687
  109OSM    H3F11274   0.957   3.725   9.245  1.1841 -0.1052 -2.4093
  109OSM    H3G11275   1.013   3.552   9.285  1.0918 -0.3422  1.3245
  109OSM    C4F11276   1.162   3.691   9.201  0.1804  0.1268 -0.2156
  109OSM    H4F11277   1.235   3.617   9.239  1.0294 -0.8953 -3.5300
  109OSM    H4G11278   1.184   3.798   9.218  0.3920  0.5651 -2.8430
  109OSM    C5F11279   1.137   3.668   9.055 -1.0887 -0.1057 -0.6780
  109OSM    H5F11280   1.068   3.748   9.021 -1.3042  0.1421  0.3198
  109OSM    H5G11281   1.099   3.567   9.026  2.0139 -1.5793  0.0270
  109OSM    C6F11282   1.279   3.688   8.984 -0.1600 -0.2363  0.1705
  109OSM    H6F11283   1.346   3.659   9.067 -0.4687 -0.8000  0.2274
  109OSM    H6G11284   1.308   3.785   8.938  0.0295  0.3467  1.4779
  109OSM    C7F11285   1.310   3.581   8.876 -0.0501  1.1544  0.7286
  109OSM    H7F11286   1.253   3.489   8.900  0.7443  0.8148  1.3857
  109OSM    H7G11287   1.418   3.555   8.884 -0.0772 -0.0730 -1.8264
  109OSM    C8F11288   1.284   3.629   8.734 -0.0554  0.7832  0.2582
  109OSM    H8F11289   1.182   3.669   8.713 -0.0011  1.0404  0.4680
  109OSM    H8G11290   1.282   3.541   8.668 -0.8004 -1.2010  2.7735
  109OSM    C9F11291   1.383   3.737   8.682 -0.6438  0.7062  0.1409
  109OSM    H9F11292   1.394   3.836   8.729 -0.0005  0.8270 -0.2487
  109OSM   C10F11293   1.448   3.718   8.565 -0.9649 -0.1047  0.5043
  109OSM   H10F11294   1.492   3.812   8.529 -2.1292 -0.6377 -2.5870
  109OSM   C11F11295   1.471   3.598   8.486  0.2943  0.0217  0.5268
  109OSM   H11F11296   1.466   3.502   8.543  0.3841 -1.4629 -1.8348
  109OSM   H11G11297   1.577   3.605   8.454  1.2810  1.0750  3.6898
  109OSM   C12F11298   1.377   3.586   8.362 -0.0701  0.0828 -0.0700
  109OSM   H12F11299   1.274   3.607   8.398 -0.1497 -2.5762  1.4590
  109OSM   H12G11300   1.380   3.477   8.341 -2.9940 -0.2796  0.9341
  109OSM   C13F11301   1.430   3.676   8.251 -0.2599  0.6130 -0.2349
  109OSM   H13F11302   1.537   3.650   8.236 -0.2129 -0.2774  1.3806
  109OSM   H13G11303   1.416   3.785   8.268 -2.3347  0.5474 -1.1922
  109OSM   C14F11304   1.345   3.649   8.128 -0.6844  0.2795  0.5533
  109OSM   H14F11305   1.243   3.654   8.170  0.3489 -0.7283  3.4491
  109OSM   H14G11306   1.356   3.544   8.092 -1.5496  0.4886 -0.3465
  109OSM   C15F11307   1.369   3.751   8.019  0.3002  0.4654  0.6291
  109OSM   H15F11308   1.336   3.850   8.058 -2.2565  0.3777 -1.0339
  109OSM   H15G11309   1.303   3.732   7.931  1.1706 -0.2317  0.1055
  109OSM   C16F11310   1.524   3.761   7.980  0.3556  0.0430  0.2697
  109OSM   H16F11311   1.551   3.665   7.931 -0.8980  0.4952 -1.4179
  109OSM   H16G11312   1.577   3.779   8.075 -0.1529 -1.3736  0.8508
  109OSM   C17F11313   1.551   3.868   7.880  0.1144 -0.2486 -0.0409
  109OSM   H17F11314   1.527   3.970   7.917  0.7905 -0.0212 -0.2137
  109OSM   H17G11315   1.481   3.860   7.794  0.9084 -0.2707 -0.6998
  109OSM   C18F11316   1.693   3.870   7.830 -0.2426  0.4514  0.6549
  109OSM   H18F11317   1.730   3.780   7.776 -1.3298  0.5819 -0.3365
  109OSM   H18G11318   1.768   3.886   7.910 -0.6147  1.6670  0.7769
  109OSM   H18H11319   1.702   3.952   7.756  0.6965 -0.2301 -0.0138
  110OSM      N11320   1.222   5.089  10.191  0.3071 -0.2062  0.0705
  110OSM    C1511321   1.318   5.202  10.183 -0.3093 -0.4056  0.2976
  110OSM   H15A11322   1.338   5.251  10.277  1.9733  2.2884 -1.4518
  110OSM   H15B11323   1.283   5.279  10.116 -0.0027  1.4496  2.1433
  110OSM   H15C11324   1.417   5.166  10.159 -0.3041  0.1737 -0.5617
  110OSM    C1411325   1.242   5.004  10.314 -0.3844 -0.0336  0.1783
  110OSM   H14A11326   1.331   4.947  10.293 -1.5063 -2.3192  1.3256
  110OSM   H14B11327   1.158   4.939  10.333 -0.0587 -1.8897 -3.7542
  110OSM   H14C11328   1.265   5.072  10.395 -0.5910  5.0827 -3.5048
  110OSM    C1311329   1.080   5.147  10.197  0.0716  0.0824  0.0924
  110OSM   H13A11330   1.011   5.068  10.220 -0.8370  0.7340 -0.3551
  110OSM   H13B11331   1.055   5.199  10.106  1.4103 -1.1056 -1.0078
  110OSM   H13C11332   1.070   5.218  10.278  0.5078  0.9129 -0.5514
  110OSM    C1211333   1.234   4.999  10.063 -0.3030 -0.9464  0.3949
  110OSM   H12A11334   1.174   5.051   9.990 -0.1194 -1.6245 -0.2540
  110OSM   H12B11335   1.182   4.906  10.078  1.2849 -1.7332  1.3591
  110OSM    C1111336   1.383   4.965  10.008  0.2195  0.5053  0.7242
  110OSM   H11A11337   1.438   5.060   9.993  1.0238 -0.4455 -3.3200
  110OSM   H11B11338   1.392   4.907   9.914  0.9348  1.7716 -0.0201
  110OSM      P11339   1.450   4.740  10.125 -0.1618  0.3130 -0.6822
  110OSM    O1311340   1.538   4.690  10.239 -0.5262 -0.4685  0.0032
  110OSM    O1411341   1.311   4.700  10.143 -0.5033 -0.2569  0.4385
  110OSM    O1111342   1.490   4.697   9.981 -0.7728 -0.6208 -0.0007
  110OSM    O1211343   1.455   4.897  10.112  0.5644 -0.1674 -0.2302
  110OSM    C1S11344   1.614   4.726   9.924 -0.3344  0.2666  0.3844
  110OSM    H1S11345   1.702   4.668   9.961 -0.6347 -1.2440 -1.1417
  110OSM    H1T11346   1.631   4.836   9.926 -2.2050  0.5627  1.0429
  110OSM     NF11347   1.739   4.760   9.711  0.6488  0.3014 -0.1072
  110OSM    HNF11348   1.710   4.835   9.652 -3.3680 -0.0755  1.0846
  110OSM    C2S11349   1.623   4.684   9.765  0.6587  0.3967  0.7775
  110OSM    H2S11350   1.632   4.574   9.755 -2.6156 -0.3209  3.6538
  110OSM    C3S11351   1.495   4.724   9.689 -0.5604  0.2446 -0.9512
  110OSM    H3S11352   1.503   4.835   9.697 -0.2423  0.0827  2.5279
  110OSM     O311353   1.370   4.683   9.750  0.2389 -0.1707 -0.1440
  110OSM    HO311354   1.392   4.676   9.843 -1.9227 -0.0300  0.4342
  110OSM    C4S11355   1.499   4.684   9.546  0.2249  0.1307 -0.2070
  110OSM    H4S11356   1.501   4.765   9.471 -1.9461 -0.1610 -0.6415
  110OSM    C5S11357   1.472   4.558   9.509  0.0377 -0.6293 -0.0887
  110OSM    H5S11358   1.464   4.484   9.589  0.0777 -1.1657 -0.5719
  110OSM    C6S11359   1.449   4.505   9.369 -0.0883 -0.2743 -0.8241
  110OSM    H6S11360   1.341   4.493   9.350 -0.8122  0.3362  2.4062
  110OSM    H6T11361   1.484   4.400   9.368 -2.3355 -1.1139  0.6471
  110OSM    C7S11362   1.539   4.581   9.263 -0.3326 -1.0048  0.7148
  110OSM    H7S11363   1.642   4.571   9.304 -0.9489 -1.2135  2.3168
  110OSM    H7T11364   1.500   4.685   9.266 -0.2683 -0.9914  3.0015
  110OSM    C8S11365   1.525   4.511   9.125  0.4899  0.1883  0.0719
  110OSM    H8S11366   1.550   4.596   9.058  1.5179  1.8275  2.3735
  110OSM    H8T11367   1.416   4.489   9.114  0.1669  0.8796  1.5330
  110OSM    C9S11368   1.617   4.388   9.103 -0.4979  0.1100 -0.1596
  110OSM    H9S11369   1.582   4.329   9.016 -1.2221  1.0543 -0.5260
  110OSM    H9T11370   1.602   4.328   9.195 -2.9669 -1.5495 -1.5522
  110OSM   C10S11371   1.764   4.394   9.061  0.2687 -0.1410 -0.5733
  110OSM   H10S11372   1.805   4.294   9.035  1.6318  0.5106 -1.0489
  110OSM   H10T11373   1.830   4.433   9.142  0.6200 -0.5716 -0.6526
  110OSM   C11S11374   1.791   4.477   8.934 -0.3080 -0.6583 -0.3164
  110OSM   H11S11375   1.885   4.535   8.943 -0.6355 -0.1882  0.1928
  110OSM   H11T11376   1.716   4.560   8.933  0.9630  0.5868  1.1987
  110OSM   C12S11377   1.790   4.387   8.813 -0.3413  0.4622  0.1738
  110OSM   H12S11378   1.687   4.349   8.796 -0.0609  0.3229 -1.3033
  110OSM   H12T11379   1.849   4.295   8.837 -0.5781  0.3688  0.4041
  110OSM   C13S11380   1.858   4.452   8.692  0.4177 -0.0951 -0.8678
  110OSM   H13S11381   1.957   4.484   8.730 -0.3454  0.7203  0.4836
  110OSM   H13T11382   1.786   4.532   8.663 -1.1482 -0.7238  1.0716
  110OSM   C14S11383   1.855   4.354   8.573 -0.4906 -0.3245 -0.3367
  110OSM   H14S11384   1.750   4.318   8.564 -0.6478 -1.5988  4.1373
  110OSM   H14T11385   1.912   4.261   8.593 -2.4562 -1.5218  0.0850
  110OSM   C15S11386   1.898   4.416   8.441  0.4052 -0.2337  0.1275
  110OSM   H15S11387   1.847   4.514   8.430  1.0581  0.2374  1.0745
  110OSM   H15T11388   1.856   4.349   8.363 -1.1102 -0.8748  1.4408
  110OSM   C16S11389   2.047   4.445   8.423  0.2095  0.5877  0.7880
  110OSM   H16S11390   2.108   4.380   8.490 -0.5571  0.4809  1.3945
  110OSM   H16T11391   2.078   4.547   8.452  1.3118  0.0568  1.5654
  110OSM   C17S11392   2.109   4.427   8.277  0.1028 -0.2909 -0.1152
  110OSM   H17S11393   2.066   4.334   8.235 -0.9848  0.4104 -0.6090
  110OSM   H17T11394   2.218   4.422   8.298 -0.4299 -1.6092  2.7560
  110OSM   C18S11395   2.079   4.539   8.178 -0.1042 -0.5586 -0.7819
  110OSM   H18S11396   2.127   4.632   8.217 -0.9969 -0.1038 -0.7251
  110OSM   H18T11397   1.970   4.558   8.167 -0.2891 -1.5686 -0.7893
  110OSM   H18U11398   2.113   4.508   8.077  2.5119  0.8489 -0.4070
  110OSM    C1F11399   1.861   4.723   9.733 -0.8001  0.4125  0.3734
  110OSM     OF11400   1.889   4.629   9.813 -0.1223 -0.7412 -0.3173
  110OSM    C2F11401   1.981   4.793   9.667  0.4810 -1.0490 -0.6537
  110OSM    H2F11402   2.047   4.826   9.751 -1.3258 -2.0909  1.2771
  110OSM    H2G11403   1.944   4.882   9.612  0.2844 -1.2368 -0.8278
  110OSM    C3F11404   2.058   4.705   9.572 -0.0845 -0.3461  0.0866
  110OSM    H3F11405   2.094   4.612   9.621  1.5098  0.4353  0.4628
  110OSM    H3G11406   2.148   4.768   9.552  0.1738 -0.4765  0.8102
  110OSM    C4F11407   1.985   4.673   9.438 -0.4768  0.0113  0.0861
  110OSM    H4F11408   1.897   4.608   9.455 -0.4690 -0.6189 -1.9995
  110OSM    H4G11409   2.054   4.611   9.378  0.3414 -0.7084  1.6973
  110OSM    C5F11410   1.942   4.802   9.358  0.3263  0.1111 -0.3690
  110OSM    H5F11411   2.024   4.877   9.360 -0.7060  1.2573 -0.0031
  110OSM    H5G11412   1.854   4.848   9.407  0.5098  0.9086 -0.7734
  110OSM    C6F11413   1.911   4.769   9.213 -0.0773  0.2776  0.0157
  110OSM    H6F11414   1.814   4.714   9.207 -0.2620  0.6354 -0.3457
  110OSM    H6G11415   1.974   4.683   9.184 -1.8743 -1.2447  0.3916
  110OSM    C7F11416   1.932   4.890   9.121 -0.0642 -0.1991  0.1903
  110OSM    H7F11417   2.039   4.914   9.100 -0.5078  1.1080 -0.7447
  110OSM    H7G11418   1.880   4.977   9.166 -0.9430 -0.4983 -0.2226
  110OSM    C8F11419   1.855   4.870   8.982 -0.6559  0.3688 -0.6275
  110OSM    H8F11420   1.749   4.903   8.995 -0.8975  0.2985 -2.2763
  110OSM    H8G11421   1.844   4.761   8.967 -0.9137 -0.0553  2.0358
  110OSM    C9F11422   1.906   4.954   8.863  0.3157 -0.1160 -0.4117
  110OSM    H9F11423   1.891   5.062   8.875  0.3947 -0.0984 -0.4666
  110OSM   C10F11424   1.981   4.914   8.757 -0.3767  0.0447  0.6763
  110OSM   H10F11425   2.004   4.992   8.684  0.9514 -1.5462 -0.6958
  110OSM   C11F11426   2.051   4.775   8.735 -0.0250  0.1646 -0.0580
  110OSM   H11F11427   2.039   4.743   8.629  0.3188  3.3229 -1.1677
  110OSM   H11G11428   1.998   4.703   8.800  0.7455  1.2912  1.9011
  110OSM   C12F11429   2.197   4.786   8.774 -0.5512 -0.0513 -0.2277
  110OSM   H12F11430   2.238   4.688   8.742 -0.5535 -0.1651  0.1150
  110OSM   H12G11431   2.203   4.801   8.884  0.8678  2.1392 -0.5300
  110OSM   C13F11432   2.282   4.883   8.689 -0.8191 -0.9598  0.6342
  110OSM   H13F11433   2.274   4.991   8.715  1.5205 -0.2610 -1.1921
  110OSM   H13G11434   2.255   4.870   8.582 -1.1138  1.8381  0.2754
  110OSM   C14F11435   2.434   4.854   8.691 -1.2438  0.5290 -0.6420
  110OSM   H14F11436   2.475   4.862   8.588 -2.1165  0.2789 -1.0181
  110OSM   H14G11437   2.450   4.749   8.724 -1.5081  1.1035  1.5238
  110OSM   C15F11438   2.498   4.954   8.783  0.3961 -0.2064  0.4852
  110OSM   H15F11439   2.457   4.934   8.884  3.2965  1.1143  2.0590
  110OSM   H15G11440   2.473   5.056   8.747 -3.0187 -1.6049 -1.5348
  110OSM   C16F11441   2.650   4.941   8.798  0.2175  0.0200  0.0243
  110OSM   H16F11442   2.673   5.019   8.874 -0.3646  0.4586 -0.2381
  110OSM   H16G11443   2.704   4.971   8.706  1.0248 -1.6006 -0.0527
  110OSM   C17F11444   2.701   4.808   8.855  0.6516 -0.3368 -0.3037
  110OSM   H17F11445   2.708   4.741   8.767  1.8730  0.1476 -0.6045
  110OSM   H17G11446   2.625   4.769   8.926 -1.5688  0.1084 -2.2938
  110OSM   C18F11447   2.833   4.821   8.925  0.3393  0.5472  0.0869
  110OSM   H18F11448   2.877   4.719   8.921 -1.4698 -0.2423 -1.5065
  110OSM   H18G11449   2.824   4.850   9.032  4.1997  1.1370  0.4099
  110OSM   H18H11450   2.891   4.895   8.866  0.7999 -0.5043 -0.8199
  111OSM      N11451   4.458   1.457  10.114 -0.0980 -0.1251  0.9487
  111OSM    C1511452   4.337   1.439  10.030 -0.2327  0.5004  0.1918
  111OSM   H15A11453   4.354   1.404   9.929  2.0422 -0.2609  0.7917
  111OSM   H15B11454   4.286   1.533  10.018 -1.2678 -0.2363 -1.5337
  111OSM   H15C11455   4.259   1.384  10.080 -0.1068  0.0446 -0.1081
  111OSM    C1411456   4.537   1.332  10.118 -0.2057 -0.1702 -0.1587
  111OSM   H14A11457   4.479   1.244  10.141 -0.5131  0.0973  0.1194
  111OSM   H14B11458   4.612   1.349  10.194 -0.7515  2.1765 -0.0602
  111OSM   H14C11459   4.590   1.320  10.025 -0.8054  0.3631 -0.5761
  111OSM    C1311460   4.548   1.569  10.051  0.1145  0.3746  0.2641
  111OSM   H13A11461   4.606   1.543   9.964 -1.0479  0.7430 -0.6447
  111OSM   H13B11462   4.626   1.600  10.120  0.1605 -0.3014  0.5213
  111OSM   H13C11463   4.505   1.667  10.032  1.3084  0.2807 -4.0158
  111OSM    C1211464   4.407   1.496  10.253 -0.3120 -0.5857  0.8308
  111OSM   H12A11465   4.351   1.588  10.248  0.9549  0.2138  0.8403
  111OSM   H12B11466   4.490   1.544  10.303 -0.6644  0.7965  0.1223
  111OSM    C1111467   4.340   1.398  10.343  0.4406  0.2435 -0.1602
  111OSM   H11A11468   4.312   1.440  10.442 -4.8612 -1.6746 -0.5431
  111OSM   H11B11469   4.408   1.313  10.366 -1.1035 -0.7196  1.0105
  111OSM      P11470   4.179   1.198  10.271  0.1524  0.5489 -0.5550
  111OSM    O1311471   4.292   1.110  10.237 -0.2084 -0.1403 -0.3946
  111OSM    O1411472   4.091   1.152  10.385 -0.6335 -0.0469  0.3097
  111OSM    O1111473   4.092   1.187  10.138 -0.4855 -0.6010 -0.1365
  111OSM    O1211474   4.217   1.352  10.288 -0.7663  0.0250  0.1346
  111OSM    C1S11475   4.001   1.292  10.093  0.1154  0.5379  0.0339
  111OSM    H1S11476   4.056   1.389  10.098  0.4119  0.3432  0.8010
  111OSM    H1T11477   3.912   1.297  10.160 -0.0246 -0.0045 -0.1115
  111OSM     NF11478   3.844   1.383   9.918  0.3989 -0.1128 -0.1748
  111OSM    HNF11479   3.746   1.362   9.921  0.5650 -0.7739  1.6814
  111OSM    C2S11480   3.947   1.278   9.945  0.5293 -0.1967  0.6571
  111OSM    H2S11481   4.029   1.290   9.871  0.5564 -2.7450  0.1811
  111OSM    C3S11482   3.908   1.126   9.910  0.4551 -0.4955 -0.4982
  111OSM    H3S11483   3.820   1.096   9.972 -2.3472 -1.6733 -4.6299
  111OSM     O311484   4.010   1.028   9.928 -0.2116  0.4106 -0.3219
  111OSM    HO311485   4.067   1.077   9.988  2.5333 -3.3303  0.4857
  111OSM    C4S11486   3.861   1.132   9.771  0.4352 -0.0774  0.6388
  111OSM    H4S11487   3.776   1.200   9.764  1.2556  0.7881 -3.7018
  111OSM    C5S11488   3.915   1.079   9.660 -0.5519  0.3072  0.0310
  111OSM    H5S11489   4.014   1.032   9.668  0.3362  2.3096  1.5438
  111OSM    C6S11490   3.855   1.113   9.524  0.3790  0.0281 -0.0971
  111OSM    H6S11491   3.900   1.208   9.489  3.0430 -1.2460 -0.3621
  111OSM    H6T11492   3.746   1.124   9.543  0.8294 -0.0764  3.0756
  111OSM    C7S11493   3.898   1.003   9.425  0.5321  0.2864  0.4272
  111OSM    H7S11494   3.884   0.903   9.473  1.1197  0.1135  0.2528
  111OSM    H7T11495   4.008   1.014   9.412  0.5391 -0.8623 -0.6913
  111OSM    C8S11496   3.827   1.014   9.291  0.6265  0.2030 -0.7581
  111OSM    H8S11497   3.878   1.101   9.245  1.1756 -0.5956 -1.7004
  111OSM    H8T11498   3.721   1.043   9.307  0.8656  0.1693  1.0336
  111OSM    C9S11499   3.854   0.884   9.207  0.0868  0.0550 -0.0965
  111OSM    H9S11500   3.819   0.797   9.267 -0.9733  1.0841  0.8366
  111OSM    H9T11501   3.962   0.866   9.187 -0.3099 -2.8670  0.0050
  111OSM   C10S11502   3.782   0.881   9.079  0.3278 -0.5012  0.7568
  111OSM   H10S11503   3.679   0.921   9.085  0.0948 -0.4536 -2.1151
  111OSM   H10T11504   3.774   0.780   9.033 -0.4056 -0.5248  0.9219
  111OSM   C11S11505   3.842   0.972   8.971  0.3854  0.2304  0.1447
  111OSM   H11S11506   3.943   0.929   8.951  0.7637  0.7611  0.8873
  111OSM   H11T11507   3.843   1.075   9.011 -3.8212 -0.0525  1.4982
  111OSM   C12S11508   3.755   0.987   8.848 -0.2481 -0.3237  0.1440
  111OSM   H12S11509   3.669   1.049   8.880  1.6109  2.2783  0.5411
  111OSM   H12T11510   3.729   0.889   8.803 -0.1445 -0.0433 -0.5477
  111OSM   C13S11511   3.827   1.066   8.733  0.4345  0.4814 -0.0493
  111OSM   H13S11512   3.861   1.160   8.782  3.4798  0.1828 -1.3244
  111OSM   H13T11513   3.747   1.090   8.659  0.3519  0.9353  0.1786
  111OSM   C14S11514   3.954   0.993   8.678  0.5594  0.0179 -0.1562
  111OSM   H14S11515   3.931   0.884   8.677  2.3297 -0.3718 -0.4901
  111OSM   H14T11516   4.036   1.016   8.749  0.1706  1.6746 -0.1992
  111OSM   C15S11517   3.990   1.035   8.540  0.1763 -0.1315  0.1518
  111OSM   H15S11518   3.918   1.003   8.461  1.1183  0.6620 -1.0810
  111OSM   H15T11519   4.087   0.989   8.514  0.9504  1.1772  0.6180
  111OSM   C16S11520   4.024   1.179   8.513 -0.9623 -0.6625 -0.0481
  111OSM   H16S11521   3.934   1.244   8.512 -1.6673 -1.6026  0.6670
  111OSM   H16T11522   4.071   1.182   8.412 -0.3756  0.5065  0.2499
  111OSM   C17S11523   4.125   1.243   8.607 -0.1688 -0.1358 -0.0983
  111OSM   H17S11524   4.204   1.165   8.607 -0.4757 -0.4694  1.1214
  111OSM   H17T11525   4.075   1.256   8.705 -1.4204  0.1180 -0.7436
  111OSM   C18S11526   4.202   1.372   8.562 -0.2977 -0.4882  0.0456
  111OSM   H18S11527   4.131   1.443   8.515 -0.5614 -1.2611 -0.7483
  111OSM   H18T11528   4.270   1.352   8.477 -0.6495  0.6768 -0.5316
  111OSM   H18U11529   4.263   1.424   8.639 -3.2242 -1.0547  3.0194
  111OSM    C1F11530   3.867   1.509   9.909 -0.5748 -0.5124 -0.0188
  111OSM     OF11531   3.977   1.552   9.933  0.6734 -0.7464  0.1822
  111OSM    C2F11532   3.748   1.583   9.855 -0.3669  0.3354 -0.6622
  111OSM    H2F11533   3.744   1.689   9.887 -1.2517  0.7398 -2.0507
  111OSM    H2G11534   3.650   1.542   9.887 -0.1438  1.3454  1.4978
  111OSM    C3F11535   3.767   1.585   9.704  0.1243  0.5262  0.4258
  111OSM    H3F11536   3.668   1.634   9.687  1.3987  3.5965  1.1022
  111OSM    H3G11537   3.786   1.490   9.650  0.0583  0.0398  1.2486
  111OSM    C4F11538   3.870   1.684   9.647 -0.8304 -0.3749  0.5478
  111OSM    H4F11539   3.966   1.630   9.663 -0.0958  0.8963  0.6054
  111OSM    H4G11540   3.861   1.779   9.704  1.0592  1.4058 -1.8942
  111OSM    C5F11541   3.835   1.719   9.504 -0.3303 -0.4508  0.7567
  111OSM    H5F11542   3.744   1.779   9.527 -0.0943 -0.5237  1.9478
  111OSM    H5G11543   3.812   1.628   9.445  0.9605  0.6631 -1.6244
  111OSM    C6F11544   3.938   1.806   9.434 -0.7935 -0.2078 -0.0047
  111OSM    H6F11545   4.030   1.754   9.401 -0.2928  0.3125  0.5365
  111OSM    H6G11546   3.964   1.894   9.498 -0.4623 -0.0593 -0.3364
  111OSM    C7F11547   3.869   1.879   9.322  0.2244 -0.5786  0.2976
  111OSM    H7F11548   3.773   1.917   9.362  1.2240  2.5648 -0.0446
  111OSM    H7G11549   3.851   1.799   9.247  1.3080 -1.8365  1.3045
  111OSM    C8F11550   3.938   2.003   9.267  0.0935  0.7235  1.0457
  111OSM    H8F11551   3.898   2.088   9.326 -0.0287  0.6998  0.9979
  111OSM    H8G11552   3.891   2.029   9.169  1.2918  1.8963  0.7604
  111OSM    C9F11553   4.093   2.019   9.260  0.5761 -0.0188  0.4291
  111OSM    H9F11554   4.135   2.043   9.359 -0.8788  1.7164  0.6717
  111OSM   C10F11555   4.174   2.014   9.158 -1.1333  0.3694 -0.6881
  111OSM   H10F11556   4.282   2.012   9.175 -0.8857 -1.1125 -2.1948
  111OSM   C11F11557   4.131   1.991   9.015 -0.2205  0.0441  0.0729
  111OSM   H11F11558   4.199   2.049   8.949 -2.4389  2.3677 -0.3387
  111OSM   H11G11559   4.023   2.018   9.004  0.3047  2.3977  0.1448
  111OSM   C12F11560   4.147   1.844   8.976 -0.3623  0.1339 -0.3492
  111OSM   H12F11561   4.083   1.786   9.046  0.4396 -1.7253 -1.0956
  111OSM   H12G11562   4.251   1.823   9.007  0.0948  1.9382 -0.5762
  111OSM   C13F11563   4.117   1.808   8.834  0.0593  0.4884 -0.2565
  111OSM   H13F11564   4.045   1.879   8.789  1.3126  0.5650 -2.2500
  111OSM   H13G11565   4.065   1.710   8.839 -0.1397  0.5619 -0.8495
  111OSM   C14F11566   4.236   1.799   8.739  0.3530 -0.4028  0.1853
  111OSM   H14F11567   4.304   1.725   8.788  0.2309 -0.7068 -0.1010
  111OSM   H14G11568   4.291   1.895   8.732  3.3369 -1.7193  2.7275
  111OSM   C15F11569   4.198   1.745   8.602  0.6967 -0.8634  0.0252
  111OSM   H15F11570   4.129   1.659   8.615 -0.0512 -0.3438 -0.4355
  111OSM   H15G11571   4.298   1.714   8.562  1.5631  0.7503  0.8398
  111OSM   C16F11572   4.123   1.851   8.519  0.2965 -0.1472 -0.1177
  111OSM   H16F11573   4.182   1.944   8.506  1.5883 -0.9859 -0.3726
  111OSM   H16G11574   4.033   1.887   8.575 -1.1468 -3.0386 -0.4070
  111OSM   C17F11575   4.085   1.796   8.378  0.2726  0.1583 -0.4288
  111OSM   H17F11576   4.014   1.869   8.332  1.0385 -1.1137 -3.9376
  111OSM   H17G11577   4.026   1.704   8.397 -1.4004  1.5138  1.4465
  111OSM   C18F11578   4.199   1.765   8.286  0.7680  0.6681  0.3667
  111OSM   H18F11579   4.251   1.680   8.336  0.0873  0.9507  1.5762
  111OSM   H18G11580   4.282   1.839   8.284  1.6205 -0.2588 -0.6721
  111OSM   H18H11581   4.158   1.741   8.186 -0.1411  1.5139  0.5289
  112OSM      N11582   2.530   5.953   9.718  0.2250  0.1509 -0.0073
  112OSM    C1511583   2.472   5.862   9.607  0.0804  0.6356  0.3004
  112OSM   H15A11584   2.552   5.834   9.540 -0.5058 -2.7070  0.7955
  112OSM   H15B11585   2.397   5.913   9.548 -0.0321 -2.4964 -2.5739
  112OSM   H15C11586   2.420   5.780   9.655  0.9626 -0.0470  0.1315
  112OSM    C1411587   2.644   5.897   9.793  0.3668  0.1565  0.6081
  112OSM   H14A11588   2.617   5.804   9.841  2.8366 -0.3158  1.2556
  112OSM   H14B11589   2.684   5.970   9.862  1.1796  1.0032 -0.7201
  112OSM   H14C11590   2.723   5.873   9.723 -1.2917 -1.2209 -0.8906
  112OSM    C1311591   2.582   6.070   9.641 -0.4289 -0.1402  1.0481
  112OSM   H13A11592   2.638   6.139   9.702 -0.4820 -1.0344  2.1298
  112OSM   H13B11593   2.502   6.123   9.590  0.7833  0.1944 -0.5773
  112OSM   H13C11594   2.644   6.033   9.561 -1.7209 -0.2438  0.0458
  112OSM    C1211595   2.427   5.998   9.818  0.6381 -0.1271  0.3698
  112OSM   H12A11596   2.337   6.024   9.763  0.2330 -1.4359  0.3662
  112OSM   H12B11597   2.455   6.096   9.854  0.7312  0.3628 -0.9632
  112OSM    C1111598   2.372   5.904   9.917 -0.9367 -0.2706 -0.5634
  112OSM   H11A11599   2.286   5.949   9.971 -0.6383  1.4285 -1.4225
  112OSM   H11B11600   2.446   5.884   9.997 -1.1751 -1.8462 -0.7053
  112OSM      P11601   2.237   5.678   9.910  0.3180 -0.4051 -0.0176
  112OSM    O1311602   2.273   5.546   9.849  0.1205 -0.3776  0.3848
  112OSM    O1411603   2.212   5.683  10.055 -0.6282  0.4609 -0.3350
  112OSM    O1111604   2.100   5.730   9.831 -0.3339  0.0915  0.0533
  112OSM    O1211605   2.332   5.786   9.860 -0.3855  0.9455 -0.2624
  112OSM    C1S11606   2.101   5.764   9.693 -0.0214 -0.1226 -0.1202
  112OSM    H1S11607   2.203   5.783   9.654  0.5802 -0.7173  1.1148
  112OSM    H1T11608   2.046   5.860   9.681 -0.7773 -0.8360 -3.0287
  112OSM     NF11609   2.042   5.693   9.470 -0.2869 -0.2668 -0.2588
  112OSM    HNF11610   1.960   5.737   9.435 -1.5872 -2.1275  0.3249
  112OSM    C2S11611   2.031   5.657   9.606 -0.3262  0.2961  0.3163
  112OSM    H2S11612   2.078   5.557   9.616  1.0863  0.8311 -0.5388
  112OSM    C3S11613   1.879   5.635   9.654  0.0908 -0.2434 -0.3844
  112OSM    H3S11614   1.838   5.737   9.642  2.0678  0.6965  0.3412
  112OSM     O311615   1.869   5.606   9.793  0.3516 -0.7208 -0.7480
  112OSM    HO311616   1.956   5.623   9.830 -0.9280  0.2993  2.1013
  112OSM    C4S11617   1.806   5.536   9.575 -0.0227 -0.0171 -0.2106
  112OSM    H4S11618   1.855   5.437   9.572  1.1393  0.5697 -1.0022
  112OSM    C5S11619   1.706   5.554   9.486 -0.5728  0.0686 -0.1880
  112OSM    H5S11620   1.661   5.654   9.486  2.2194  1.4230  0.6059
  112OSM    C6S11621   1.657   5.440   9.398 -0.3738  0.4422 -0.7979
  112OSM    H6S11622   1.550   5.418   9.419 -0.1096 -0.1399 -0.0171
  112OSM    H6T11623   1.708   5.344   9.423  0.4332 -0.1190 -4.1218
  112OSM    C7S11624   1.673   5.469   9.246 -0.4455  0.2141  0.5136
  112OSM    H7S11625   1.782   5.470   9.227 -0.3505  1.7068  0.9703
  112OSM    H7T11626   1.629   5.569   9.222  3.4520  1.3556 -2.9788
  112OSM    C8S11627   1.606   5.366   9.161  1.1498  0.3233  0.0080
  112OSM    H8S11628   1.496   5.381   9.166  1.1207  0.5798 -1.1685
  112OSM    H8T11629   1.625   5.267   9.208 -1.5244 -0.7291 -0.9412
  112OSM    C9S11630   1.646   5.360   9.013  0.0818 -0.1834  0.1358
  112OSM    H9S11631   1.755   5.338   9.020  0.6211  1.9589 -0.6457
  112OSM    H9T11632   1.635   5.453   8.953 -0.6922  0.4749  1.2355
  112OSM   C10S11633   1.567   5.242   8.956  0.0461 -0.0086  0.9173
  112OSM   H10S11634   1.458   5.267   8.954  0.0342 -0.0587  0.9315
  112OSM   H10T11635   1.577   5.153   9.022  1.4292 -0.9571 -0.5210
  112OSM   C11S11636   1.614   5.212   8.811 -0.6950  0.5380  0.4772
  112OSM   H11S11637   1.540   5.135   8.782  0.0332 -0.6558  1.6708
  112OSM   H11T11638   1.717   5.170   8.807 -0.7333  0.4830 -2.6194
  112OSM   C12S11639   1.620   5.327   8.706  0.0830  0.3995 -0.3370
  112OSM   H12S11640   1.702   5.397   8.731 -0.2645  0.8877 -0.5506
  112OSM   H12T11641   1.530   5.390   8.722  0.6981  1.0068  0.8553
  112OSM   C13S11642   1.609   5.265   8.572 -0.6730  0.1672 -0.0034
  112OSM   H13S11643   1.538   5.179   8.578 -0.6576  0.0498 -1.2624
  112OSM   H13T11644   1.711   5.239   8.537 -0.3665  0.1581  0.8750
  112OSM   C14S11645   1.548   5.368   8.473  1.0395 -0.0813 -0.7867
  112OSM   H14S11646   1.455   5.408   8.519  1.5689 -0.9768  1.1547
  112OSM   H14T11647   1.515   5.321   8.378  2.0063 -3.1072  0.2549
  112OSM   C15S11648   1.641   5.481   8.430 -0.1596  0.2794 -0.1130
  112OSM   H15S11649   1.695   5.516   8.521  0.1202  1.9646 -0.8896
  112OSM   H15T11650   1.592   5.573   8.391  3.1959  1.7974 -1.0807
  112OSM   C16S11651   1.741   5.418   8.324 -0.7181 -0.4173 -0.2265
  112OSM   H16S11652   1.685   5.354   8.252 -1.5026  1.4375 -1.3655
  112OSM   H16T11653   1.807   5.350   8.381  0.5194  0.2424 -0.8438
  112OSM   C17S11654   1.826   5.525   8.251 -0.6215 -0.6606  0.0360
  112OSM   H17S11655   1.755   5.591   8.197  2.3295  1.6162 -1.3801
  112OSM   H17T11656   1.887   5.474   8.173 -1.6935  0.8148 -1.8263
  112OSM   C18S11657   1.927   5.606   8.334  0.3153 -0.0227  0.0425
  112OSM   H18S11658   2.013   5.544   8.369  0.8060  0.7695  0.2513
  112OSM   H18T11659   1.876   5.654   8.420  0.3344 -1.2261  0.7591
  112OSM   H18U11660   1.965   5.688   8.270  0.7953  0.1979  0.5998
  112OSM    C1F11661   2.157   5.685   9.394  0.8365  0.1409  0.7575
  112OSM     OF11662   2.258   5.628   9.440  0.2623  0.2582 -0.6151
  112OSM    C2F11663   2.146   5.736   9.252  0.7691  0.5778 -0.7935
  112OSM    H2F11664   2.112   5.841   9.261 -2.6814 -0.4860  0.1321
  112OSM    H2G11665   2.064   5.677   9.205  0.6783 -0.6220  0.7951
  112OSM    C3F11666   2.278   5.714   9.179  0.7379 -0.2207  0.0285
  112OSM    H3F11667   2.297   5.604   9.177  0.6400 -0.2957 -3.3033
  112OSM    H3G11668   2.371   5.754   9.226 -0.5488  0.7249  1.8839
  112OSM    C4F11669   2.280   5.757   9.026  0.1327 -0.8118  0.5605
  112OSM    H4F11670   2.242   5.862   9.025 -1.3200 -1.2976  1.4146
  112OSM    H4G11671   2.215   5.689   8.967  1.9576 -1.2592 -1.0047
  112OSM    C5F11672   2.418   5.759   8.958  0.5369 -0.4708 -0.0679
  112OSM    H5F11673   2.445   5.653   8.943 -0.0528 -0.6992  0.4499
  112OSM    H5G11674   2.479   5.814   9.034 -1.0595 -0.2384  1.1017
  112OSM    C6F11675   2.420   5.836   8.825  0.0242 -0.6768  0.3290
  112OSM    H6F11676   2.390   5.936   8.865 -0.1985 -0.7981  0.4628
  112OSM    H6G11677   2.341   5.811   8.751  0.8005 -2.0968 -0.0515
  112OSM    C7F11678   2.554   5.815   8.755  0.0041  0.2048 -0.6052
  112OSM    H7F11679   2.566   5.706   8.739 -1.5741  0.1655 -1.6947
  112OSM    H7G11680   2.638   5.856   8.816 -0.5765 -0.9806  1.0583
  112OSM    C8F11681   2.556   5.883   8.614 -0.1808  0.3813  0.2722
  112OSM    H8F11682   2.661   5.882   8.577 -0.6713 -0.2271 -1.1985
  112OSM    H8G11683   2.513   5.985   8.618 -1.8373 -0.2478 -0.4758
  112OSM    C9F11684   2.492   5.800   8.511  0.4331  0.4683  0.6838
  112OSM    H9F11685   2.516   5.693   8.518 -1.6749 -0.0724  0.3325
  112OSM   C10F11686   2.408   5.843   8.412  0.4001  0.0671  0.4144
  112OSM   H10F11687   2.379   5.770   8.334  0.2474 -2.6187  2.8202
  112OSM   C11F11688   2.341   5.977   8.396  0.0930 -0.1369  0.3276
  112OSM   H11F11689   2.342   6.028   8.494 -0.8043  0.5123  0.0111
  112OSM   H11G11690   2.235   5.962   8.368 -0.4564  3.5974 -0.1390
  112OSM   C12F11691   2.411   6.045   8.280 -0.2114 -0.0573 -0.1352
  112OSM   H12F11692   2.424   5.984   8.188 -0.1726  0.7510 -0.6746
  112OSM   H12G11693   2.510   6.088   8.309 -0.7090  0.0734  1.4702
  112OSM   C13F11694   2.324   6.154   8.221 -0.5580 -0.2197  0.2405
  112OSM   H13F11695   2.324   6.234   8.297  0.0491 -0.3437  0.3706
  112OSM   H13G11696   2.224   6.109   8.199  0.0943 -0.3216 -3.1719
  112OSM   C14F11697   2.378   6.208   8.090 -0.1905  0.0886  0.0384
  112OSM   H14F11698   2.398   6.126   8.018 -0.3049 -0.4204  0.5760
  112OSM   H14G11699   2.481   6.246   8.106 -0.3304  0.1238  0.9035
  112OSM   C15F11700   2.292   6.318   8.037 -0.3839  0.3427 -0.7000
  112OSM   H15F11701   2.299   6.401   8.110  0.3514 -1.0755  0.8811
  112OSM   H15G11702   2.186   6.284   8.034 -1.1467  2.5267 -0.3426
  112OSM   C16F11703   2.337   6.352   7.892  0.2447  0.3743 -0.5931
  112OSM   H16F11704   2.269   6.419   7.835  2.0680  2.4147 -0.5022
  112OSM   H16G11705   2.354   6.255   7.840  1.4598 -0.4075  1.1704
  112OSM   C17F11706   2.464   6.436   7.889  0.0866 -0.0040 -0.2417
  112OSM   H17F11707   2.537   6.381   7.825  1.3502 -0.7879  1.7680
  112OSM   H17G11708   2.514   6.433   7.988 -2.8221 -2.1566  1.3110
  112OSM   C18F11709   2.461   6.577   7.841  0.7136 -0.2493 -0.3672
  112OSM   H18F11710   2.561   6.625   7.836 -0.1174  1.6387  0.2959
  112OSM   H18G11711   2.396   6.640   7.904  0.8997 -0.0125 -0.4118
  112OSM   H18H11712   2.402   6.565   7.747 -2.5250  1.7528  1.2390
  113OSM      N11713   1.480   2.262  10.320  0.2983  0.4531  0.3330
  113OSM    C1511714   1.615   2.195  10.339  0.1582 -0.0924 -0.2538
  113OSM   H15A11715   1.603   2.095  10.299 -1.6817 -0.2243  0.5327
  113OSM   H15B11716   1.646   2.180  10.441  1.9541 -2.5534 -1.0518
  113OSM   H15C11717   1.692   2.260  10.300  0.8572 -0.8270 -0.1187
  113OSM    C1411718   1.382   2.185  10.413  0.3726 -0.2192  0.3479
  113OSM   H14A11719   1.283   2.225  10.397 -0.1738 -1.0366  1.5135
  113OSM   H14B11720   1.406   2.197  10.517  0.6939 -2.2367  0.5577
  113OSM   H14C11721   1.377   2.082  10.380  0.8410 -0.1386  0.0166
  113OSM    C1311722   1.484   2.406  10.355  0.6828  0.2110 -0.3565
  113OSM   H13A11723   1.555   2.456  10.291  3.2637 -2.3334  0.3199
  113OSM   H13B11724   1.507   2.407  10.461 -0.2813 -3.3903 -0.0038
  113OSM   H13C11725   1.387   2.448  10.333 -0.2241  0.0097  2.7107
  113OSM    C1211726   1.441   2.251  10.175  0.1754 -0.3872 -0.5294
  113OSM   H12A11727   1.513   2.308  10.119  0.8831 -1.3175 -0.5894
  113OSM   H12B11728   1.345   2.302  10.169 -1.6425 -3.1446  2.2176
  113OSM    C1111729   1.422   2.108  10.113  0.4603 -0.7714 -0.2690
  113OSM   H11A11730   1.511   2.041  10.117  1.1078  0.1418  1.7629
  113OSM   H11B11731   1.404   2.122  10.004 -1.1496  0.3772  0.1040
  113OSM      P11732   1.287   1.880  10.155  0.1958  0.0071 -0.1036
  113OSM    O1311733   1.394   1.803  10.218  0.0814  0.0360 -0.0413
  113OSM    O1411734   1.147   1.850  10.195  0.0085 -0.2345  0.0211
  113OSM    O1111735   1.288   1.871   9.996 -0.0467 -0.3750  0.2570
  113OSM    O1211736   1.310   2.042  10.167  0.1596 -0.0414  0.0227
  113OSM    C1S11737   1.178   1.842   9.915  0.4361  0.3311  0.3559
  113OSM    H1S11738   1.090   1.899   9.950  0.4598  1.3787 -1.2124
  113OSM    H1T11739   1.163   1.732   9.907  1.0036  0.3667 -1.7205
  113OSM     NF11740   1.082   1.869   9.686  1.3764 -0.6023  0.4106
  113OSM    HNF11741   1.080   1.792   9.622 -0.0442  0.3383 -0.7529
  113OSM    C2S11742   1.199   1.886   9.764  0.4312 -0.1960  0.1467
  113OSM    H2S11743   1.229   1.992   9.780  1.1262 -0.5060  1.0429
  113OSM    C3S11744   1.336   1.828   9.704  0.2469 -0.5273 -0.2255
  113OSM    H3S11745   1.340   1.719   9.723  1.8213 -0.4160  0.3130
  113OSM     O311746   1.443   1.871   9.785 -0.2972 -0.0516  0.4803
  113OSM    HO311747   1.394   1.885   9.866 -1.3317  0.6245 -0.2245
  113OSM    C4S11748   1.362   1.875   9.558  0.0343  0.2425  0.2668
  113OSM    H4S11749   1.386   1.981   9.545  0.8138 -0.2628 -3.1293
  113OSM    C5S11750   1.362   1.797   9.453  0.0280 -0.0477 -0.7715
  113OSM    H5S11751   1.334   1.692   9.469  1.3154 -0.4518 -0.9970
  113OSM    C6S11752   1.388   1.834   9.314  0.6564 -0.3298  0.8273
  113OSM    H6S11753   1.295   1.806   9.259 -0.5017 -1.5049  3.1756
  113OSM    H6T11754   1.475   1.775   9.279  2.7362  1.8592  2.0577
  113OSM    C7S11755   1.411   1.984   9.272 -0.0488  0.0460  0.1198
  113OSM    H7S11756   1.496   2.039   9.317 -0.0231  0.0868  0.0221
  113OSM    H7T11757   1.315   2.038   9.288  0.1239  0.1569  0.7725
  113OSM    C8S11758   1.432   1.989   9.116 -1.1732  0.0982  0.3206
  113OSM    H8S11759   1.344   1.965   9.052  0.5180 -2.0445 -1.3929
  113OSM    H8T11760   1.509   1.910   9.103  0.6461  1.6476  1.2738
  113OSM    C9S11761   1.497   2.121   9.065 -0.8314 -1.2461  0.0956
  113OSM    H9S11762   1.534   2.095   8.963 -1.3104 -0.8608 -0.1741
  113OSM    H9T11763   1.586   2.140   9.129 -0.7239 -1.6319  0.0690
  113OSM   C10S11764   1.399   2.243   9.051 -0.4230  0.0740 -0.3465
  113OSM   H10S11765   1.454   2.338   9.034 -2.3685  1.8223  2.3612
  113OSM   H10T11766   1.357   2.255   9.153 -0.7721  1.8643 -0.6595
  113OSM   C11S11767   1.283   2.224   8.945  0.2734  0.1892 -0.1373
  113OSM   H11S11768   1.207   2.304   8.958 -0.6069 -0.9126  1.8787
  113OSM   H11T11769   1.220   2.135   8.967  1.8040 -0.5379  1.5775
  113OSM   C12S11770   1.310   2.239   8.794 -0.5800 -0.2697  0.1498
  113OSM   H12S11771   1.401   2.180   8.768 -1.2927 -0.1644 -3.0225
  113OSM   H12T11772   1.343   2.344   8.780  0.2326 -0.5694 -0.2362
  113OSM   C13S11773   1.190   2.210   8.710  0.3605  0.0823 -0.6045
  113OSM   H13S11774   1.110   2.278   8.747  0.8824 -0.4064  1.5688
  113OSM   H13T11775   1.145   2.109   8.723 -0.3890  0.2545 -1.6880
  113OSM   C14S11776   1.204   2.220   8.559 -0.4215 -0.2304 -0.5528
  113OSM   H14S11777   1.268   2.138   8.521  0.3131  1.2625 -2.7509
  113OSM   H14T11778   1.255   2.318   8.549 -2.0902  0.9078  1.4627
  113OSM   C15S11779   1.074   2.240   8.484  1.3363 -0.2209 -0.4033
  113OSM   H15S11780   1.004   2.305   8.540  1.0620 -1.2514  0.4997
  113OSM   H15T11781   1.030   2.140   8.465  1.3482 -0.3219  0.0744
  113OSM   C16S11782   1.095   2.299   8.344 -0.3268  0.1613 -0.2446
  113OSM   H16S11783   1.166   2.233   8.290 -1.9859 -0.6894 -1.4808
  113OSM   H16T11784   1.156   2.391   8.362 -3.2306  2.0204  0.8047
  113OSM   C17S11785   0.970   2.322   8.261  0.6511  0.1154  0.4182
  113OSM   H17S11786   0.894   2.245   8.285 -0.6770  1.2271 -0.0574
  113OSM   H17T11787   0.992   2.309   8.153 -1.0872 -3.0302  0.3317
  113OSM   C18S11788   0.898   2.457   8.294 -0.0502  0.0484  0.3273
  113OSM   H18S11789   0.863   2.448   8.399  0.6433 -0.6799  0.5094
  113OSM   H18T11790   0.807   2.463   8.232  0.6040 -1.9015 -0.9214
  113OSM   H18U11791   0.967   2.543   8.279  1.2926 -1.3346 -2.0795
  113OSM    C1F11792   0.975   1.947   9.701  0.1355  0.1563  0.0984
  113OSM     OF11793   0.976   2.036   9.787  0.1533  0.2855 -0.4618
  113OSM    C2F11794   0.847   1.910   9.635 -0.2470 -0.3005 -0.3119
  113OSM    H2F11795   0.776   1.878   9.715 -0.6287 -0.2490 -0.6276
  113OSM    H2G11796   0.871   1.827   9.566 -2.5920 -1.7337  0.4943
  113OSM    C3F11797   0.786   2.029   9.556 -0.3879  0.3431 -0.3196
  113OSM    H3F11798   0.858   2.049   9.474  1.9952 -1.4051  1.1899
  113OSM    H3G11799   0.794   2.112   9.630 -1.3913 -0.7548  1.0925
  113OSM    C4F11800   0.644   2.017   9.505  0.0044  0.4606 -0.5274
  113OSM    H4F11801   0.600   2.116   9.480 -2.3043 -0.1915  0.6569
  113OSM    H4G11802   0.580   1.982   9.589  2.6528 -0.7645  1.1264
  113OSM    C5F11803   0.623   1.914   9.393  0.1425  0.5935 -0.5257
  113OSM    H5F11804   0.590   1.818   9.438 -0.0478  0.7418 -0.3492
  113OSM    H5G11805   0.723   1.910   9.344  0.8075  0.9990  0.7613
  113OSM    C6F11806   0.516   1.962   9.295  0.5165  0.1729  0.4027
  113OSM    H6F11807   0.500   1.891   9.211  1.3284 -1.9783  1.9885
  113OSM    H6G11808   0.543   2.060   9.248  0.0404 -0.3233 -0.9583
  113OSM    C7F11809   0.382   1.988   9.361 -0.3841 -0.3114  0.2317
  113OSM    H7F11810   0.398   2.060   9.445 -0.7781 -0.4478  0.4263
  113OSM    H7G11811   0.346   1.892   9.405  0.0980 -0.0281  1.3011
  113OSM    C8F11812   0.279   2.037   9.260  0.5597  0.0822  0.0780
  113OSM    H8F11813   0.175   2.017   9.293  0.9126 -0.9463  0.5923
  113OSM    H8G11814   0.288   1.979   9.166 -0.1717 -0.7627  0.5167
  113OSM    C9F11815   0.294   2.183   9.238  0.0377 -0.2707  0.3680
  113OSM    H9F11816   0.242   2.239   9.317  0.1090  0.9159 -0.3958
  113OSM   C10F11817   0.345   2.250   9.131  0.9231 -0.0289  0.6908
  113OSM   H10F11818   0.353   2.359   9.141  0.4629 -0.0332  1.1315
  113OSM   C11F11819   0.413   2.191   9.012  0.0935  0.6212  0.1434
  113OSM   H11F11820   0.473   2.103   9.043  0.8946  0.9199 -0.5256
  113OSM   H11G11821   0.487   2.264   8.972  3.0431 -2.5450 -0.7509
  113OSM   C12F11822   0.319   2.143   8.905  0.7874 -0.4790  0.1351
  113OSM   H12F11823   0.257   2.232   8.879 -0.0750 -1.3756 -0.9460
  113OSM   H12G11824   0.257   2.059   8.943 -0.5777  1.0019  1.3479
  113OSM   C13F11825   0.377   2.090   8.777  0.7131  0.1233  0.4971
  113OSM   H13F11826   0.426   1.995   8.807 -0.6759 -0.8351 -0.1673
  113OSM   H13G11827   0.451   2.162   8.735 -1.0110  1.1762 -0.8854
  113OSM   C14F11828   0.273   2.053   8.665 -0.3924 -0.1458  0.2084
  113OSM   H14F11829   0.227   2.148   8.628  0.6840  0.6893  0.9347
  113OSM   H14G11830   0.203   1.978   8.707 -0.0312  0.0062  1.1003
  113OSM   C15F11831   0.344   1.996   8.545 -0.5877  0.7372  0.2679
  113OSM   H15F11832   0.272   1.945   8.478 -0.1686  1.5985 -0.8729
  113OSM   H15G11833   0.429   1.932   8.577  1.4102  2.2517 -1.7233
  113OSM   C16F11834   0.425   2.105   8.462 -0.1815 -0.3321  0.4589
  113OSM   H16F11835   0.501   2.157   8.524  2.8858  2.1340 -4.6603
  113OSM   H16G11836   0.351   2.185   8.439 -0.3895 -1.0317 -1.4947
  113OSM   C17F11837   0.476   2.052   8.330 -0.1548 -0.2226  0.3568
  113OSM   H17F11838   0.384   2.015   8.278 -0.9185  3.1975 -0.9709
  113OSM   H17G11839   0.549   1.968   8.338 -0.1724 -0.5778 -2.1543
  113OSM   C18F11840   0.544   2.166   8.251 -0.5194 -1.0023 -0.3937
  113OSM   H18F11841   0.633   2.206   8.303 -1.1469 -0.7880  0.5503
  113OSM   H18G11842   0.481   2.255   8.229  1.7530  1.2073  1.4293
  113OSM   H18H11843   0.579   2.119   8.157  1.1134 -0.4716 -0.0831
  114OSM      N11844   0.486   5.202  10.051 -0.2167 -0.2800 -0.4530
  114OSM    C1511845   0.431   5.282  10.165 -0.2164 -0.1991  1.6242
  114OSM   H15A11846   0.332   5.319  10.146  1.3097  2.9026 -1.3161
  114OSM   H15B11847   0.494   5.368  10.184  0.3623 -0.0516 -0.6877
  114OSM   H15C11848   0.419   5.222  10.254 -0.6667 -1.3254  0.8215
  114OSM    C1411849   0.394   5.085  10.034  0.1995 -0.3666  0.4188
  114OSM   H14A11850   0.290   5.114  10.037 -0.7036 -3.1531 -0.9311
  114OSM   H14B11851   0.405   5.006  10.106 -1.5640 -0.1347  0.9937
  114OSM   H14C11852   0.402   5.042   9.936 -1.0417 -2.4302  1.1691
  114OSM    C1311853   0.487   5.287   9.931  0.4180 -0.2504 -0.3998
  114OSM   H13A11854   0.385   5.316   9.909  0.4371  0.3939  0.3242
  114OSM   H13B11855   0.533   5.235   9.848  3.0957  0.1909  0.7109
  114OSM   H13C11856   0.550   5.375   9.936 -1.5674  1.2611 -0.4693
  114OSM    C1211857   0.621   5.137  10.087  0.7807 -1.0709  0.0174
  114OSM   H12A11858   0.598   5.056  10.155  1.9479 -1.2818  0.1725
  114OSM   H12B11859   0.691   5.202  10.137  0.6532 -2.4710  2.1153
  114OSM    C1111860   0.694   5.074   9.966 -0.2551 -0.1808  0.2383
  114OSM   H11A11861   0.639   4.986   9.927  1.2821 -1.1055  0.0721
  114OSM   H11B11862   0.784   5.022  10.007  0.7321  1.5384  0.3566
  114OSM      P11863   0.882   5.233   9.853 -0.0454  0.1037 -0.2907
  114OSM    O1311864   0.907   5.300   9.723  0.1573  0.3994  0.2732
  114OSM    O1411865   0.909   5.319   9.970  0.4125 -0.0074  0.5908
  114OSM    O1111866   0.985   5.112   9.856 -0.0254  0.6423 -0.1176
  114OSM    O1211867   0.732   5.173   9.862  0.3028 -0.0110  0.1225
  114OSM    C1S11868   0.974   4.985   9.773  0.2369 -0.4706 -0.8220
  114OSM    H1S11869   0.866   4.962   9.767  0.1401  0.1382 -1.7054
  114OSM    H1T11870   1.018   4.899   9.828 -1.7720 -2.4089 -2.0691
  114OSM     NF11871   0.998   4.876   9.556 -0.3558 -0.4056 -0.8084
  114OSM    HNF11872   1.061   4.799   9.551  0.8547  0.6149 -2.3602
  114OSM    C2S11873   1.045   4.988   9.636 -1.1429 -0.1164 -0.2046
  114OSM    H2S11874   1.014   5.084   9.589  1.1222  0.9465  0.3212
  114OSM    C3S11875   1.198   4.995   9.652 -0.6731  0.2492 -0.0850
  114OSM    H3S11876   1.227   4.902   9.707 -1.5527 -0.2969 -0.5261
  114OSM     O311877   1.229   5.105   9.740 -0.3030  0.2311 -0.3899
  114OSM    HO311878   1.144   5.120   9.782  0.5064  0.3883  1.2902
  114OSM    C4S11879   1.277   4.994   9.526  0.2821  0.4037 -0.5606
  114OSM    H4S11880   1.281   4.894   9.481 -0.4235  1.2134 -2.5552
  114OSM    C5S11881   1.331   5.099   9.461  0.0861 -0.1435  0.3292
  114OSM    H5S11882   1.315   5.198   9.504 -0.6027  0.8294 -2.0062
  114OSM    C6S11883   1.402   5.085   9.328 -0.2522  0.0891  0.2335
  114OSM    H6S11884   1.480   5.006   9.335 -1.1738 -0.7653  1.1301
  114OSM    H6T11885   1.441   5.186   9.303 -0.1186 -0.2928 -1.1433
  114OSM    C7S11886   1.316   5.039   9.215  0.1707  0.5860 -0.3722
  114OSM    H7S11887   1.274   4.938   9.239 -0.7349  1.1614  0.5484
  114OSM    H7T11888   1.392   5.022   9.137  0.0629 -0.2321 -0.3168
  114OSM    C8S11889   1.212   5.134   9.152 -0.6693 -0.7002 -0.5377
  114OSM    H8S11890   1.250   5.238   9.149 -1.6822 -0.3015 -0.1473
  114OSM    H8T11891   1.113   5.125   9.203  0.6143 -2.6777  1.7962
  114OSM    C9S11892   1.195   5.099   9.011  0.5858  0.4726  0.3130
  114OSM    H9S11893   1.163   4.994   8.995 -3.1589  1.3416  1.1739
  114OSM    H9T11894   1.290   5.122   8.959  1.1234 -1.6525  0.2635
  114OSM   C10S11895   1.102   5.192   8.930  0.1935  0.6645  0.7121
  114OSM   H10S11896   1.162   5.285   8.927 -0.6901  1.3035  1.8663
  114OSM   H10T11897   1.009   5.228   8.981 -0.5513  0.9177 -0.7705
  114OSM   C11S11898   1.059   5.141   8.789 -0.3324 -0.4289  0.0465
  114OSM   H11S11899   0.966   5.194   8.761 -0.5105 -0.5299  0.4442
  114OSM   H11T11900   1.035   5.033   8.796  0.1137 -0.4850  0.7771
  114OSM   C12S11901   1.161   5.184   8.677  0.7738  0.3633 -0.2692
  114OSM   H12S11902   1.263   5.141   8.689 -0.2292 -2.3170 -0.6694
  114OSM   H12T11903   1.170   5.294   8.686  1.5717  0.5185 -2.3293
  114OSM   C13S11904   1.111   5.150   8.535 -0.9383 -0.0091  0.7569
  114OSM   H13S11905   1.189   5.187   8.465 -0.8881 -0.5070  0.5463
  114OSM   H13T11906   1.017   5.204   8.512 -1.7191 -1.1724  1.1316
  114OSM   C14S11907   1.089   4.996   8.503  0.4442  0.2673  0.3004
  114OSM   H14S11908   1.044   4.979   8.403 -0.7955 -1.7669  1.1335
  114OSM   H14T11909   1.008   4.944   8.560 -2.2350  1.6232 -2.0208
  114OSM   C15S11910   1.226   4.920   8.510  0.2542 -0.4997  0.6059
  114OSM   H15S11911   1.258   4.933   8.616 -0.3554  0.5310  0.6798
  114OSM   H15T11912   1.300   4.964   8.439  0.8434 -0.0279  1.4880
  114OSM   C16S11913   1.219   4.768   8.487  0.0955 -0.4332 -0.2063
  114OSM   H16S11914   1.132   4.734   8.547 -1.3117 -0.4684 -2.1762
  114OSM   H16T11915   1.309   4.716   8.525 -0.9764 -1.2524  1.2877
  114OSM   C17S11916   1.189   4.726   8.343 -0.2881  1.0386  0.2354
  114OSM   H17S11917   1.101   4.782   8.305 -0.1687  0.6919 -0.5724
  114OSM   H17T11918   1.167   4.617   8.338 -1.0355  1.2221 -1.0872
  114OSM   C18S11919   1.304   4.754   8.244  0.1555  0.4898  0.0424
  114OSM   H18S11920   1.408   4.732   8.276  0.5890  0.3468 -1.3937
  114OSM   H18T11921   1.298   4.858   8.204  0.4763  0.8274  0.8566
  114OSM   H18U11922   1.272   4.705   8.150  0.1637  0.1213  0.2299
  114OSM    C1F11923   0.874   4.880   9.515 -0.4324  0.4638  0.0261
  114OSM     OF11924   0.809   4.984   9.523 -0.1434  0.5839 -0.4736
  114OSM    C2F11925   0.807   4.761   9.452  0.2868  0.3107  0.0612
  114OSM    H2F11926   0.696   4.767   9.462 -0.4531 -0.2015 -5.1568
  114OSM    H2G11927   0.849   4.664   9.486  1.5865  1.6564  2.5692
  114OSM    C3F11928   0.828   4.767   9.300 -0.5804 -0.3680  0.2359
  114OSM    H3F11929   0.811   4.870   9.261 -0.1942 -0.4145 -0.0727
  114OSM    H3G11930   0.774   4.698   9.233  0.2223 -0.3235 -0.4842
  114OSM    C4F11931   0.973   4.737   9.259 -0.1609  0.2224 -0.3401
  114OSM    H4F11932   1.001   4.636   9.297 -0.6734  0.4498  0.6629
  114OSM    H4G11933   1.034   4.817   9.306 -0.4952  0.3307 -0.0958
  114OSM    C5F11934   0.999   4.746   9.108  0.0598  0.8014  0.2192
  114OSM    H5F11935   0.959   4.846   9.078 -0.0201  0.7834  0.2621
  114OSM    H5G11936   0.932   4.677   9.052 -0.2703  1.6242 -0.4461
  114OSM    C6F11937   1.145   4.714   9.064 -0.0346 -0.6454  0.6505
  114OSM    H6F11938   1.173   4.613   9.101 -0.6727 -1.0334  0.0970
  114OSM    H6G11939   1.219   4.777   9.119 -0.5927  1.0815 -0.4755
  114OSM    C7F11940   1.164   4.715   8.910 -0.5619  0.3388  0.2051
  114OSM    H7F11941   1.117   4.810   8.876  2.5348  1.9635  0.1355
  114OSM    H7G11942   1.109   4.622   8.883  1.4846 -0.6348 -0.8112
  114OSM    C8F11943   1.306   4.690   8.856 -0.1698 -0.3360 -0.7412
  114OSM    H8F11944   1.320   4.690   8.746  1.0668  0.1754 -0.5982
  114OSM    H8G11945   1.329   4.588   8.894 -1.8051 -0.7802 -0.8742
  114OSM    C9F11946   1.402   4.795   8.907 -0.8243  0.0020 -0.4342
  114OSM    H9F11947   1.368   4.854   8.993 -0.5585 -1.5736  0.8009
  114OSM   C10F11948   1.522   4.828   8.848 -0.3349 -0.1136 -1.0705
  114OSM   H10F11949   1.584   4.905   8.896  0.3218 -2.5840  2.4481
  114OSM   C11F11950   1.584   4.776   8.723 -0.8039 -0.3758  0.6748
  114OSM   H11F11951   1.531   4.686   8.684  0.7854  0.6232 -4.4354
  114OSM   H11G11952   1.690   4.753   8.745 -0.1788  0.9896 -0.7789
  114OSM   C12F11953   1.587   4.886   8.613 -0.9995 -0.1168 -0.0343
  114OSM   H12F11954   1.640   4.973   8.657 -1.3365  0.3344 -0.5276
  114OSM   H12G11955   1.488   4.923   8.581 -0.6644 -1.0056 -2.2603
  114OSM   C13F11956   1.661   4.831   8.489  0.6129  0.9174  0.0431
  114OSM   H13F11957   1.599   4.754   8.437  0.4403  1.3425 -0.3874
  114OSM   H13G11958   1.760   4.787   8.511  1.5134  1.7635 -2.0684
  114OSM   C14F11959   1.679   4.942   8.385 -0.1487  0.1516  0.1753
  114OSM   H14F11960   1.734   5.023   8.436  1.2473 -1.7861  1.9373
  114OSM   H14G11961   1.586   4.975   8.335  0.2086  0.8372 -0.0388
  114OSM   C15F11962   1.760   4.894   8.266 -1.1534 -0.3437  0.6509
  114OSM   H15F11963   1.866   4.891   8.298 -1.4114  1.0009  1.7555
  114OSM   H15G11964   1.747   4.964   8.181 -0.9459 -1.5938 -0.4435
  114OSM   C16F11965   1.709   4.767   8.195  0.6571 -0.2318 -0.2268
  114OSM   H16F11966   1.600   4.776   8.178  0.6171 -0.9975 -0.4398
  114OSM   H16G11967   1.722   4.680   8.263 -3.5731 -1.7280 -1.0570
  114OSM   C17F11968   1.769   4.739   8.057 -0.1183 -0.2954 -0.0888
  114OSM   H17F11969   1.879   4.730   8.063  0.0670  0.5103 -1.7427
  114OSM   H17G11970   1.743   4.825   7.991 -2.6855  0.1863  1.4131
  114OSM   C18F11971   1.713   4.608   8.002 -0.8475  0.5411 -0.0782
  114OSM   H18F11972   1.613   4.622   7.958  0.3858  1.4296 -2.7978
  114OSM   H18G11973   1.736   4.530   8.077  0.7566  1.2149  0.1827
  114OSM   H18H11974   1.770   4.574   7.913  0.0392 -0.7837  0.9549
  115OSM      N11975   5.689   3.896   9.817  0.0307 -0.0782  0.1252
  115OSM    C1511976   5.637   3.905   9.682  0.3232 -0.4918  1.0075
  115OSM   H15A11977   5.531   3.886   9.685  0.4266 -0.9918  2.0061
  115OSM   H15B11978   5.680   3.841   9.606  0.2435  0.1168  0.4415
  115OSM   H15C11979   5.644   4.004   9.641  2.3179 -1.0557 -0.1810
  115OSM    C1411980   5.614   3.996   9.905 -0.2784  0.2777 -0.1312
  115OSM   H14A11981   5.622   4.100   9.877  1.8353  0.4506  0.9580
  115OSM   H14B11982   5.640   3.995  10.010 -1.3088  0.4573  0.1365
  115OSM   H14C11983   5.508   3.978   9.894 -0.4952  1.9162 -1.0130
  115OSM    C1311984   5.658   3.760   9.868  0.1860  0.1243  0.5991
  115OSM   H13A11985   5.691   3.680   9.803 -1.3504  0.6683 -0.9378
  115OSM   H13B11986   5.550   3.750   9.869  0.1146  0.1491 -1.5487
  115OSM   H13C11987   5.691   3.740   9.968  1.6175 -2.5101 -0.2945
  115OSM    C1211988   5.838   3.910   9.827 -0.1767 -0.1687 -0.1336
  115OSM   H12A11989   5.856   3.908   9.934 -2.4227 -0.1932  0.2943
  115OSM   H12B11990   5.877   4.003   9.788  1.4992 -1.3371 -1.4168
  115OSM    C1111991   5.915   3.799   9.760  0.6382 -0.0990  0.6310
  115OSM   H11A11992   5.873   3.788   9.658 -2.1395 -1.4108  1.8303
  115OSM   H11B11993   5.904   3.706   9.820  1.6363 -0.8932 -0.3466
  115OSM      P11994   6.170   3.742   9.775  0.0596 -0.3297 -0.0351
  115OSM    O1311995   6.289   3.819   9.813 -0.0597 -0.2006 -0.0515
  115OSM    O1411996   6.128   3.623   9.854 -0.1153 -0.9023 -0.3516
  115OSM    O1111997   6.211   3.684   9.635  0.1554  0.1520 -0.3446
  115OSM    O1211998   6.050   3.844   9.746  0.0967 -0.0872  0.0377
  115OSM    C1S11999   6.180   3.749   9.518  1.0048 -0.0601  0.1555
  115OSM    H1S12000   6.210   3.856   9.514 -0.3489  0.2955 -2.8360
  115OSM    H1T12001   6.074   3.738   9.488  0.8578 -1.1560  0.9977
  115OSM     NF12002   6.254   3.763   9.290  0.1779 -0.3048 -0.1553
  115OSM    HNF12003   6.209   3.747   9.202  0.1596  2.8372 -0.8483
  115OSM    C2S12004   6.242   3.680   9.401 -0.2491  0.6869 -1.0299
  115OSM    H2S12005   6.347   3.666   9.433 -0.5469  0.2711 -0.2154
  115OSM    C3S12006   6.187   3.539   9.374 -0.0234  0.6324 -0.2115
  115OSM    H3S12007   6.085   3.551   9.331 -0.0943  0.6203 -0.0478
  115OSM     O312008   6.162   3.456   9.487  0.0229 -0.5472  0.5788
  115OSM    HO312009   6.197   3.509   9.558 -0.7983  1.5027 -0.4533
  115OSM    C4S12010   6.267   3.467   9.276  0.5245  0.9707  0.6880
  115OSM    H4S12011   6.233   3.468   9.171  0.4887 -1.6417  0.5990
  115OSM    C5S12012   6.376   3.393   9.299  0.4956 -0.2663 -0.5445
  115OSM    H5S12013   6.431   3.381   9.394 -0.3344 -1.2182 -0.1671
  115OSM    C6S12014   6.452   3.317   9.194 -0.4343 -0.0941 -0.4711
  115OSM    H6S12015   6.431   3.208   9.201 -1.5947  0.1675  0.3597
  115OSM    H6T12016   6.561   3.319   9.216 -0.4786 -0.4374 -0.2016
  115OSM    C7S12017   6.435   3.348   9.039  0.2239  0.5566 -0.2195
  115OSM    H7S12018   6.481   3.443   9.003  0.0318  0.2528 -1.3081
  115OSM    H7T12019   6.328   3.333   9.012  0.1073  1.6671 -0.4251
  115OSM    C8S12020   6.511   3.246   8.949  0.5142  0.3809  0.7929
  115OSM    H8S12021   6.466   3.147   8.971  1.1979  0.1523  1.1817
  115OSM    H8T12022   6.619   3.243   8.975  0.7238 -1.7521 -0.0665
  115OSM    C9S12023   6.500   3.268   8.796  0.0997 -0.0219 -0.0712
  115OSM    H9S12024   6.398   3.245   8.760 -0.8934  1.2420  1.8063
  115OSM    H9T12025   6.557   3.189   8.741 -0.5918 -1.3002  0.9833
  115OSM   C10S12026   6.541   3.409   8.743  0.1700  0.5017  0.9960
  115OSM   H10S12027   6.645   3.436   8.771  0.1652  0.7893  0.7302
  115OSM   H10T12028   6.461   3.478   8.780 -2.0271 -1.2588 -0.1787
  115OSM   C11S12029   6.531   3.423   8.588  0.1406  0.6277  0.5754
  115OSM   H11S12030   6.442   3.363   8.559  1.8771 -0.3555 -3.2747
  115OSM   H11T12031   6.615   3.364   8.547 -1.8578 -1.8404 -0.2382
  115OSM   C12S12032   6.539   3.567   8.550 -0.1987  0.6323  0.2120
  115OSM   H12S12033   6.614   3.633   8.598  0.6829  0.3221 -0.6950
  115OSM   H12T12034   6.440   3.614   8.564 -0.5879  0.5731 -1.9618
  115OSM   C13S12035   6.568   3.588   8.397  0.1550 -0.6778 -0.0854
  115OSM   H13S12036   6.492   3.539   8.333  2.2140 -0.8322 -2.6152
  115OSM   H13T12037   6.672   3.557   8.373  0.3589 -0.0934  0.0179
  115OSM   C14S12038   6.568   3.744   8.356  0.6431 -0.0797  0.2799
  115OSM   H14S12039   6.639   3.799   8.422 -0.4757  0.3086  1.1913
  115OSM   H14T12040   6.473   3.797   8.377  1.0571  0.3849  1.0226
  115OSM   C15S12041   6.623   3.775   8.211 -0.5441  0.2069 -0.5087
  115OSM   H15S12042   6.543   3.738   8.143  0.1361 -2.1767 -0.1201
  115OSM   H15T12043   6.710   3.710   8.183 -0.5874  0.1912 -0.6071
  115OSM   C16S12044   6.685   3.913   8.199 -0.1712  0.0713  0.0927
  115OSM   H16S12045   6.794   3.905   8.221 -0.2418 -0.0942  0.3814
  115OSM   H16T12046   6.648   3.976   8.283 -0.7433 -1.2387  0.8503
  115OSM   C17S12047   6.644   3.981   8.064 -0.4999  0.4022  0.3029
  115OSM   H17S12048   6.658   3.904   7.985 -1.8963  0.0432  0.3808
  115OSM   H17T12049   6.707   4.071   8.046 -0.7500  0.5645  0.2365
  115OSM   C18S12050   6.499   4.015   8.044  0.1390 -0.7547 -0.8292
  115OSM   H18S12051   6.472   4.063   8.141  1.6163 -0.0565 -0.7392
  115OSM   H18T12052   6.445   3.919   8.033  0.2189 -1.1648  1.7265
  115OSM   H18U12053   6.489   4.071   7.948  1.6010 -1.4546 -1.4167
  115OSM    C1F12054   6.315   3.881   9.300  0.5826  0.0872 -0.5809
  115OSM     OF12055   6.404   3.902   9.383 -0.5572  0.0934  0.0005
  115OSM    C2F12056   6.275   3.987   9.204  0.3760 -0.9740 -0.1412
  115OSM    H2F12057   6.256   4.080   9.263 -0.1671  0.4508 -2.4279
  115OSM    H2G12058   6.179   3.963   9.154  0.2676 -0.0864 -0.3816
  115OSM    C3F12059   6.367   4.008   9.085  0.4140  0.7029  0.7331
  115OSM    H3F12060   6.464   4.039   9.131  0.1943  2.3035  0.1956
  115OSM    H3G12061   6.332   4.098   9.030  0.6490  1.4916  1.8527
  115OSM    C4F12062   6.391   3.890   8.993  0.0598 -1.1017 -0.6139
  115OSM    H4F12063   6.294   3.850   8.958 -0.4918 -0.2593 -0.0845
  115OSM    H4G12064   6.445   3.806   9.041 -0.3320 -1.1215 -0.2078
  115OSM    C5F12065   6.480   3.920   8.869 -0.0661 -0.0050 -0.3917
  115OSM    H5F12066   6.514   3.824   8.822 -1.5751 -0.3896 -0.7493
  115OSM    H5G12067   6.565   3.985   8.899  0.5878 -1.2786  0.6436
  115OSM    C6F12068   6.394   3.995   8.764  0.5423 -0.4790 -0.0824
  115OSM    H6F12069   6.435   4.098   8.756  1.7047 -0.8168  1.2317
  115OSM    H6G12070   6.289   3.998   8.800  0.3875  0.1732 -0.5553
  115OSM    C7F12071   6.416   3.955   8.623  0.5166  0.1890 -0.0707
  115OSM    H7F12072   6.394   3.847   8.609  1.4605 -0.0981  0.6275
  115OSM    H7G12073   6.526   3.967   8.613  0.5029 -0.9601 -2.4541
  115OSM    C8F12074   6.333   4.030   8.513 -0.0484  0.4912  0.0258
  115OSM    H8F12075   6.376   4.012   8.412  0.6242  0.1018  0.3729
  115OSM    H8G12076   6.335   4.140   8.530  0.8608  0.6600 -1.0825
  115OSM    C9F12077   6.184   3.996   8.517 -0.0436 -0.4858 -0.0460
  115OSM    H9F12078   6.159   3.930   8.602 -0.8624 -0.2013 -0.0626
  115OSM   C10F12079   6.089   4.037   8.431  0.3766  0.2843  0.0457
  115OSM   H10F12080   5.987   3.998   8.443  1.1528 -1.6477  0.7266
  115OSM   C11F12081   6.116   4.115   8.303 -0.2467 -0.1466 -0.3570
  115OSM   H11F12082   6.213   4.166   8.289 -1.1099  2.1780  1.4887
  115OSM   H11G12083   6.036   4.191   8.291  0.8137  0.8644 -1.2140
  115OSM   C12F12084   6.099   4.015   8.187  0.3238 -0.3305  0.7032
  115OSM   H12F12085   5.999   3.966   8.195 -0.8669  1.6861 -0.6761
  115OSM   H12G12086   6.180   3.940   8.197  0.2659 -0.4340  0.4090
  115OSM   C13F12087   6.084   4.077   8.045 -0.3213 -0.1267  0.7354
  115OSM   H13F12088   6.117   4.010   7.963  0.8227 -0.7922  1.7085
  115OSM   H13G12089   6.141   4.171   8.036  1.3309 -0.9869  1.7854
  115OSM   C14F12090   5.937   4.114   8.006  0.5201 -0.1897  0.2781
  115OSM   H14F12091   5.885   4.171   8.086  1.8939  0.7984  0.5020
  115OSM   H14G12092   5.868   4.027   8.002 -3.0193  2.3659  1.0551
  115OSM   C15F12093   5.918   4.196   7.876 -0.1781 -0.2106  0.1815
  115OSM   H15F12094   5.962   4.135   7.795 -1.6648 -1.0722 -0.0085
  115OSM   H15G12095   5.979   4.290   7.872 -1.6163  0.7461 -3.3056
  115OSM   C16F12096   5.770   4.213   7.844  0.7936  0.0845 -0.3137
  115OSM   H16F12097   5.714   4.251   7.933  2.7494 -0.7498  1.3363
  115OSM   H16G12098   5.722   4.114   7.830 -1.2723  0.4024  3.2169
  115OSM   C17F12099   5.747   4.312   7.734 -0.0461 -0.1052 -0.5311
  115OSM   H17F12100   5.808   4.289   7.644 -0.8619 -0.3940 -1.0219
  115OSM   H17G12101   5.768   4.416   7.767 -1.5143 -0.0126  0.1624
  115OSM   C18F12102   5.598   4.309   7.690 -0.6112  0.0487 -0.1184
  115OSM   H18F12103   5.527   4.362   7.757 -0.0433  0.6309  0.0400
  115OSM   H18G12104   5.569   4.205   7.663 -0.2969  0.1510 -0.8724
  115OSM   H18H12105   5.582   4.364   7.594 -2.2430  0.9715  0.6397
  116OSM      N12106   2.634   0.090  10.009  0.2219 -0.6785 -0.8370
  116OSM    C1512107   2.585   0.048  10.145 -0.2959  0.8964  0.1938
  116OSM   H15A12108   2.657   0.058  10.225  1.3154 -1.3493 -0.8548
  116OSM   H15B12109   2.553  -0.055  10.151  1.5939  0.0817 -2.1825
  116OSM   H15C12110   2.502   0.109  10.175 -1.0444  0.2079 -0.4389
  116OSM    C1412111   2.524   0.093   9.909  0.1036  0.2579 -0.0419
  116OSM   H14A12112   2.471   0.002   9.887 -1.5540  0.1967  3.4614
  116OSM   H14B12113   2.563   0.134   9.817 -1.7300  0.5862 -0.7200
  116OSM   H14C12114   2.442   0.153   9.944  1.3799  0.4519  2.9218
  116OSM    C1312115   2.700   0.227  10.032 -0.6906 -0.1384  0.3150
  116OSM   H13A12116   2.766   0.238   9.947 -0.8048  1.0449  0.3670
  116OSM   H13B12117   2.763   0.230  10.120  0.5904 -1.8335 -0.4890
  116OSM   H13C12118   2.636   0.313  10.043  0.1900  0.2611  3.2002
  116OSM    C1212119   2.744  -0.005   9.970 -0.2589 -0.2270  0.4762
  116OSM   H12A12120   2.701  -0.104   9.962 -2.0833  0.2840  2.8992
  116OSM   H12B12121   2.812  -0.013  10.054 -0.0344 -0.1471  0.3017
  116OSM    C1112122   2.825   0.024   9.846 -0.5188  0.0864 -0.4730
  116OSM   H11A12123   2.768   0.063   9.759 -0.1281 -0.2270 -0.8756
  116OSM   H11B12124   2.887  -0.065   9.821 -0.6436 -0.7860  2.0159
  116OSM      P12125   3.027   0.183   9.779  0.1822  0.1884  0.0786
  116OSM    O1312126   3.147   0.213   9.861  0.1083 -0.0168  0.0391
  116OSM    O1412127   3.051   0.082   9.669 -0.3437 -0.3757 -0.3923
  116OSM    O1112128   2.958   0.307   9.716  0.3857 -0.2877  0.4815
  116OSM    O1212129   2.925   0.126   9.877  0.5066  0.1115  0.0481
  116OSM    C1S12130   3.010   0.390   9.614  0.3815  0.2683 -0.6467
  116OSM    H1S12131   3.112   0.367   9.575  1.4241  3.4807 -0.1511
  116OSM    H1T12132   3.019   0.490   9.660 -0.9036 -0.0321  0.3070
  116OSM     NF12133   2.971   0.506   9.409 -0.4332 -0.2144  0.0317
  116OSM    HNF12134   2.950   0.603   9.421  0.2450  0.1095 -1.2409
  116OSM    C2S12135   2.908   0.409   9.495 -0.0339 -0.3122  0.0389
  116OSM    H2S12136   2.889   0.318   9.434 -2.3410 -0.7667  1.3077
  116OSM    C3S12137   2.768   0.458   9.542 -0.2227 -0.0542 -0.5971
  116OSM    H3S12138   2.779   0.542   9.614 -1.9734  0.2780 -0.6849
  116OSM     O312139   2.709   0.349   9.615  0.3921  0.1916 -0.5750
  116OSM    HO312140   2.787   0.306   9.650 -0.5836 -0.2787  1.1576
  116OSM    C4S12141   2.686   0.501   9.437  0.6598  0.1272  0.3894
  116OSM    H4S12142   2.725   0.596   9.397  0.1240  0.1553 -0.0882
  116OSM    C5S12143   2.580   0.438   9.382 -0.0086 -0.1303 -0.0935
  116OSM    H5S12144   2.551   0.336   9.412  0.2588 -0.1529  0.0956
  116OSM    C6S12145   2.500   0.483   9.265  0.1260 -0.0685  0.1863
  116OSM    H6S12146   2.517   0.591   9.248 -1.1294 -0.0364 -1.0442
  116OSM    H6T12147   2.392   0.471   9.291  0.4875  1.0148  2.5425
  116OSM    C7S12148   2.539   0.399   9.146 -0.1740 -0.1943  0.3148
  116OSM    H7S12149   2.536   0.290   9.165 -0.2375 -0.3612 -0.5786
  116OSM    H7T12150   2.643   0.428   9.119 -0.5891  0.1335 -1.0375
  116OSM    C8S12151   2.449   0.427   9.027  0.0553 -0.0859  0.5007
  116OSM    H8S12152   2.420   0.534   9.022 -1.0840 -0.4146 -0.3904
  116OSM    H8T12153   2.343   0.396   9.043  0.4306 -1.8623 -0.2419
  116OSM    C9S12154   2.503   0.368   8.894  0.2785 -1.1939 -0.5762
  116OSM    H9S12155   2.550   0.271   8.920  0.1039 -1.4873 -1.3126
  116OSM    H9T12156   2.576   0.440   8.851 -1.5520  2.1011  1.4502
  116OSM   C10S12157   2.396   0.351   8.779 -0.5368 -0.3152  0.7560
  116OSM   H10S12158   2.346   0.447   8.757  3.1030  1.2432 -1.6574
  116OSM   H10T12159   2.313   0.285   8.813 -1.1307 -1.4115 -2.5229
  116OSM   C11S12160   2.439   0.270   8.658  0.1042  0.0382 -0.3522
  116OSM   H11S12161   2.459   0.163   8.676  2.0117  0.2572 -0.8676
  116OSM   H11T12162   2.534   0.320   8.627  1.0060 -0.3101  1.7077
  116OSM   C12S12163   2.341   0.281   8.538  0.0596 -0.6367  0.3370
  116OSM   H12S12164   2.311   0.386   8.517 -2.0506 -1.2846 -0.0980
  116OSM   H12T12165   2.248   0.234   8.575 -0.3115 -0.5092 -0.4070
  116OSM   C13S12166   2.391   0.216   8.411  0.5405  0.4779 -0.3326
  116OSM   H13S12167   2.408   0.111   8.443  1.8512  1.1580  1.3003
  116OSM   H13T12168   2.490   0.264   8.391  0.6010  0.1152 -0.9381
  116OSM   C14S12169   2.286   0.228   8.293 -0.3120 -0.5743 -0.1591
  116OSM   H14S12170   2.275   0.339   8.292 -0.7233 -0.5930  0.9975
  116OSM   H14T12171   2.190   0.175   8.310  1.3152 -3.3728  0.9604
  116OSM   C15S12172   2.354   0.186   8.161 -0.0994 -0.0049 -0.0208
  116OSM   H15S12173   2.442   0.250   8.139  1.3094 -2.1071 -0.7853
  116OSM   H15T12174   2.289   0.193   8.071 -0.1983 -0.8580 -0.0251
  116OSM   C16S12175   2.386   0.032   8.154 -0.2862  0.1766 -0.5482
  116OSM   H16S12176   2.302  -0.038   8.170 -0.8589  0.7928 -0.7889
  116OSM   H16T12177   2.461   0.009   8.233 -1.1348  1.4240  0.6691
  116OSM   C17S12178   2.444  -0.012   8.020 -0.2948  0.2777 -0.1928
  116OSM   H17S12179   2.524   0.063   8.002 -1.5100  1.2291 -1.8529
  116OSM   H17T12180   2.369  -0.009   7.938 -0.7841 -0.3966  0.2179
  116OSM   C18S12181   2.508  -0.155   8.031  0.2590 -0.0397 -0.5098
  116OSM   H18S12182   2.558  -0.187   7.937  0.7683 -0.0361 -0.2452
  116OSM   H18T12183   2.437  -0.236   8.057 -0.5647 -0.4261 -3.5807
  116OSM   H18U12184   2.574  -0.150   8.121 -1.0509  0.9806  0.4441
  116OSM    C1F12185   3.072   0.463   9.328  0.7774 -0.1198  0.4738
  116OSM     OF12186   3.092   0.351   9.296  0.7460  0.2154 -0.2749
  116OSM    C2F12187   3.160   0.571   9.274 -0.0999  0.1635 -0.5092
  116OSM    H2F12188   3.228   0.605   9.355 -0.4927 -0.1404 -0.0454
  116OSM    H2G12189   3.089   0.654   9.250  1.9231  1.7516 -1.3320
  116OSM    C3F12190   3.234   0.530   9.148  0.1529  0.4827  0.3143
  116OSM    H3F12191   3.171   0.465   9.084  0.8223 -0.4273  0.5516
  116OSM    H3G12192   3.320   0.465   9.177 -0.9323 -0.2804  2.0230
  116OSM    C4F12193   3.276   0.644   9.054 -0.3251 -0.0459 -0.5048
  116OSM    H4F12194   3.331   0.591   8.974 -0.2562 -3.9011  1.8451
  116OSM    H4G12195   3.346   0.713   9.106  1.4210 -1.2187 -1.2067
  116OSM    C5F12196   3.170   0.720   8.985 -0.5043 -0.3414  0.4273
  116OSM    H5F12197   3.094   0.760   9.055 -1.2351 -3.3180  1.5184
  116OSM    H5G12198   3.105   0.649   8.929 -2.2786  0.0018  1.9406
  116OSM    C6F12199   3.214   0.835   8.892 -0.0590  0.5512  0.1476
  116OSM    H6F12200   3.282   0.908   8.940 -0.7572  1.2772  0.0566
  116OSM    H6G12201   3.119   0.890   8.877 -0.3459 -0.2140 -0.9930
  116OSM    C7F12202   3.264   0.799   8.755  0.1838 -0.3205 -0.0131
  116OSM    H7F12203   3.215   0.704   8.723  0.3472 -0.6117  0.5752
  116OSM    H7G12204   3.370   0.764   8.763  0.4109  0.0124 -1.3381
  116OSM    C8F12205   3.244   0.913   8.654 -0.1793  0.6174  0.1867
  116OSM    H8F12206   3.144   0.960   8.669 -0.9924 -0.7469 -0.6884
  116OSM    H8G12207   3.236   0.872   8.551  1.9482  1.3953 -0.3392
  116OSM    C9F12208   3.356   1.014   8.667  0.3156  0.1378 -0.3879
  116OSM    H9F12209   3.356   1.072   8.761 -0.9293 -1.5700  0.7271
  116OSM   C10F12210   3.447   1.047   8.576  0.5956  0.1760 -0.2270
  116OSM   H10F12211   3.535   1.104   8.608  1.0940 -0.2882 -0.7390
  116OSM   C11F12212   3.470   0.997   8.438  0.2821  0.2239 -0.3585
  116OSM   H11F12213   3.450   1.083   8.371 -0.0408 -0.4317 -1.1176
  116OSM   H11G12214   3.395   0.924   8.400  0.8970 -0.6871  0.1428
  116OSM   C12F12215   3.618   0.965   8.425 -0.3843  0.3359  0.1299
  116OSM   H12F12216   3.634   0.865   8.473  2.5275  0.2405 -0.8524
  116OSM   H12G12217   3.681   1.040   8.478  2.4174 -0.6000 -1.6334
  116OSM   C13F12218   3.667   0.956   8.282  0.2484  0.0446 -0.0902
  116OSM   H13F12219   3.589   0.898   8.228  0.8362 -0.1624 -0.7444
  116OSM   H13G12220   3.761   0.897   8.273  0.8867  1.0736 -0.4419
  116OSM   C14F12221   3.688   1.098   8.225 -0.5645  0.0176 -0.3115
  116OSM   H14F12222   3.755   1.149   8.298 -1.3385 -0.3008  0.6442
  116OSM   H14G12223   3.596   1.158   8.237  0.6743  1.6387  1.5708
  116OSM   C15F12224   3.728   1.107   8.079 -0.4121  0.3900  0.0905
  116OSM   H15F12225   3.713   1.211   8.043  0.1806 -0.0946 -1.6284
  116OSM   H15G12226   3.668   1.046   8.008  2.7378 -3.0615  0.0810
  116OSM   C16F12227   3.879   1.069   8.050  1.0900 -0.1084 -0.5628
  116OSM   H16F12228   3.890   0.963   8.084  0.9434 -0.2562 -0.9718
  116OSM   H16G12229   3.933   1.132   8.123 -1.1189  1.5702 -0.2807
  116OSM   C17F12230   3.930   1.084   7.907 -0.3871 -0.0403  0.0782
  116OSM   H17F12231   3.911   1.188   7.874 -2.1088 -0.7614 -1.3369
  116OSM   H17G12232   3.871   1.014   7.844 -0.1533  0.3966 -0.6394
  116OSM   C18F12233   4.079   1.045   7.878  0.0218  0.3331 -0.5870
  116OSM   H18F12234   4.110   1.052   7.772  2.5781  0.3033  0.0814
  116OSM   H18G12235   4.103   0.941   7.909 -2.9414 -0.6255 -1.2136
  116OSM   H18H12236   4.144   1.108   7.943  0.0735  2.3103 -2.4583
  117OSM      N12237   1.654   1.560   9.847  0.2219  0.1552  1.2457
  117OSM    C1512238   1.640   1.419   9.884 -0.2002  0.5268 -0.7395
  117OSM   H15A12239   1.675   1.349   9.810 -0.7008 -0.1874 -0.3118
  117OSM   H15B12240   1.546   1.393   9.930  0.3078  0.9522  0.5988
  117OSM   H15C12241   1.706   1.398   9.967  0.1944 -0.9563 -1.3991
  117OSM    C1412242   1.597   1.660   9.946 -0.3373  0.4201  0.5985
  117OSM   H14A12243   1.605   1.763   9.913 -2.8341  0.5461  0.2015
  117OSM   H14B12244   1.653   1.653  10.038 -0.9071 -2.1077  0.8154
  117OSM   H14C12245   1.492   1.643   9.959 -1.4938  1.2860 -4.8815
  117OSM    C1312246   1.802   1.586   9.836  0.0640  1.0090  0.1898
  117OSM   H13A12247   1.842   1.625   9.928  0.2324 -1.2287  1.1232
  117OSM   H13B12248   1.829   1.642   9.748  0.4190 -0.9405 -1.0124
  117OSM   H13C12249   1.850   1.490   9.823 -0.3756  0.6983  0.8414
  117OSM    C1212250   1.605   1.590   9.703  0.6998  0.1475 -0.2872
  117OSM   H12A12251   1.628   1.688   9.664 -1.3061  1.1806  0.9888
  117OSM   H12B12252   1.497   1.586   9.714  0.4164  2.0894 -1.8686
  117OSM    C1112253   1.636   1.493   9.587  0.3362 -0.1156  0.0262
  117OSM   H11A12254   1.746   1.477   9.580  0.1016 -1.7489 -0.3334
  117OSM   H11B12255   1.605   1.528   9.487 -2.2569 -2.2819 -0.0631
  117OSM      P12256   1.414   1.353   9.567 -0.3141  0.0587 -0.1915
  117OSM    O1312257   1.360   1.218   9.606  0.1735  0.5540 -0.5161
  117OSM    O1412258   1.346   1.472   9.622 -0.0743 -0.8365 -0.1332
  117OSM    O1112259   1.440   1.365   9.412 -0.2504 -0.3022  0.0552
  117OSM    O1212260   1.572   1.362   9.615  0.3133 -0.4448 -0.1008
  117OSM    C1S12261   1.523   1.271   9.352 -0.3885  1.0881 -0.0480
  117OSM    H1S12262   1.503   1.174   9.402 -3.3479  2.2461  1.2232
  117OSM    H1T12263   1.625   1.309   9.374 -0.2742  2.4036 -2.4696
  117OSM     NF12264   1.579   1.134   9.160 -0.7444  0.2036  0.2918
  117OSM    HNF12265   1.672   1.148   9.128  0.0181  2.0235  3.0564
  117OSM    C2S12266   1.513   1.261   9.199 -0.2160  0.4264 -0.1046
  117OSM    H2S12267   1.405   1.259   9.175 -0.3601  0.8748  0.4959
  117OSM    C3S12268   1.577   1.385   9.132 -0.2952 -0.0041 -0.1034
  117OSM    H3S12269   1.688   1.392   9.136 -0.3901  2.1676  0.7779
  117OSM     O312270   1.526   1.511   9.178  0.3104  0.2733  0.1103
  117OSM    HO312271   1.465   1.496   9.250 -0.9302 -0.2633 -1.0033
  117OSM    C4S12272   1.558   1.368   8.991  0.4639  0.4024 -0.1412
  117OSM    H4S12273   1.451   1.369   8.967  0.2516  0.5451  0.7974
  117OSM    C5S12274   1.640   1.343   8.889  0.1379 -0.3366  0.3620
  117OSM    H5S12275   1.747   1.325   8.910  0.1994 -0.0095  0.3233
  117OSM    C6S12276   1.592   1.324   8.749 -0.1406  0.0822  0.1232
  117OSM    H6S12277   1.488   1.287   8.740  0.1320 -0.4604 -0.9074
  117OSM    H6T12278   1.668   1.250   8.716  0.4231 -0.0984  1.7195
  117OSM    C7S12279   1.602   1.456   8.677 -0.5119 -0.8463  0.0844
  117OSM    H7S12280   1.707   1.491   8.682 -0.7736 -0.0021 -0.2605
  117OSM    H7T12281   1.543   1.535   8.728  1.6592  1.4336 -0.7740
  117OSM    C8S12282   1.583   1.459   8.527 -0.5946  0.0943  0.1383
  117OSM    H8S12283   1.634   1.547   8.483 -1.3726 -0.4691 -2.0007
  117OSM    H8T12284   1.478   1.460   8.489 -0.1467  0.1134 -1.1425
  117OSM    C9S12285   1.644   1.333   8.456  0.5091  0.2260 -0.1386
  117OSM    H9S12286   1.597   1.249   8.512  0.9200 -0.3343 -0.6224
  117OSM    H9T12287   1.750   1.319   8.486  0.1112 -1.7691  0.4662
  117OSM   C10S12288   1.623   1.304   8.305  0.0642  0.1330  0.4904
  117OSM   H10S12289   1.518   1.299   8.271 -0.1920 -0.3298  1.3262
  117OSM   H10T12290   1.671   1.208   8.278  0.2272 -0.0128  1.2609
  117OSM   C11S12291   1.706   1.408   8.213  0.5371 -0.0992  0.2010
  117OSM   H11S12292   1.811   1.410   8.247 -0.3911  2.4806  3.4305
  117OSM   H11T12293   1.673   1.511   8.236  0.9690 -0.0129  0.4390
  117OSM   C12S12294   1.701   1.363   8.067 -0.3320 -0.3436 -0.6460
  117OSM   H12S12295   1.597   1.331   8.048 -0.7591 -1.1784  2.5964
  117OSM   H12T12296   1.772   1.278   8.053 -1.2534 -1.7430  2.3061
  117OSM   C13S12297   1.741   1.483   7.974 -0.1427  0.3396  0.4544
  117OSM   H13S12298   1.849   1.500   7.996  0.6980 -2.1588 -1.1937
  117OSM   H13T12299   1.681   1.571   8.003 -0.7557 -0.5817  2.1076
  117OSM   C14S12300   1.728   1.465   7.815  1.0108  0.4270  0.2428
  117OSM   H14S12301   1.625   1.460   7.773  1.3065 -0.8835 -0.3910
  117OSM   H14T12302   1.768   1.365   7.789 -0.6827 -0.0138 -0.8411
  117OSM   C15S12303   1.822   1.566   7.739  0.9402  0.6476  0.1637
  117OSM   H15S12304   1.831   1.522   7.638  1.4298  0.2194  0.3840
  117OSM   H15T12305   1.925   1.551   7.779  0.6606 -0.4340  0.5095
  117OSM   C16S12306   1.789   1.710   7.757  0.3812 -0.0588  0.7123
  117OSM   H16S12307   1.808   1.751   7.859 -1.2623  1.5066  0.4474
  117OSM   H16T12308   1.681   1.722   7.732  0.5682  1.0087  0.4001
  117OSM   C17S12309   1.844   1.798   7.651 -0.1085  0.0322 -0.1031
  117OSM   H17S12310   1.810   1.903   7.665 -0.1802 -0.0710  0.5181
  117OSM   H17T12311   1.813   1.775   7.546  2.5200  0.7851 -1.1234
  117OSM   C18S12312   1.996   1.810   7.650 -0.4387  0.2450 -0.4127
  117OSM   H18S12313   2.048   1.712   7.660  2.9151  2.0117  1.6073
  117OSM   H18T12314   2.021   1.872   7.739 -0.5382 -0.0871 -0.1520
  117OSM   H18U12315   2.020   1.844   7.547 -0.1058 -1.5492 -0.9575
  117OSM    C1F12316   1.519   1.015   9.174 -0.0964  0.0290  0.3078
  117OSM     OF12317   1.419   1.007   9.239 -0.6918 -0.8824 -0.0510
  117OSM    C2F12318   1.569   0.907   9.095 -0.1335 -0.4306 -0.1792
  117OSM    H2F12319   1.578   0.818   9.162  1.3152 -0.0792  0.1243
  117OSM    H2G12320   1.661   0.933   9.039 -0.8036  1.0461 -0.6463
  117OSM    C3F12321   1.459   0.872   8.989 -0.1250 -0.5263  0.0646
  117OSM    H3F12322   1.416   0.959   8.934 -0.5971 -1.5962 -1.3247
  117OSM    H3G12323   1.374   0.827   9.044 -1.7020 -0.2540 -2.0208
  117OSM    C4F12324   1.516   0.788   8.868 -0.3950 -0.0172  0.4321
  117OSM    H4F12325   1.436   0.722   8.830 -1.4537  2.2306 -1.5420
  117OSM    H4G12326   1.597   0.720   8.901  1.6390  2.9991  2.1412
  117OSM    C5F12327   1.552   0.874   8.738  0.5088  0.3434  0.0000
  117OSM    H5F12328   1.658   0.908   8.735  0.5049  0.2982 -1.0115
  117OSM    H5G12329   1.497   0.970   8.741  1.9897  1.2195  0.3388
  117OSM    C6F12330   1.529   0.806   8.604  0.1402  0.0584  1.0856
  117OSM    H6F12331   1.432   0.753   8.606  0.8215 -1.1970  1.6534
  117OSM    H6G12332   1.612   0.732   8.600  0.1674  0.1355 -0.1346
  117OSM    C7F12333   1.531   0.902   8.485  0.2576 -0.2014 -0.1084
  117OSM    H7F12334   1.624   0.962   8.475 -0.3344  0.6835 -0.3800
  117OSM    H7G12335   1.459   0.981   8.514  0.3344 -0.4854  0.9018
  117OSM    C8F12336   1.497   0.838   8.353  0.0336  0.2626  0.0853
  117OSM    H8F12337   1.401   0.783   8.364 -0.0859 -0.2636 -2.9552
  117OSM    H8G12338   1.574   0.760   8.339  0.0769 -0.0550  1.8495
  117OSM    C9F12339   1.508   0.946   8.242  0.3456  0.2815  0.0847
  117OSM    H9F12340   1.610   0.986   8.232  0.5571  0.5418  2.7122
  117OSM   C10F12341   1.405   1.010   8.179  0.2984 -0.0660 -0.7146
  117OSM   H10F12342   1.430   1.094   8.113  1.2336  0.9988  0.9075
  117OSM   C11F12343   1.268   0.969   8.207 -0.0161 -0.5073 -0.9616
  117OSM   H11F12344   1.240   0.989   8.313  1.2017  2.1111 -1.0525
  117OSM   H11G12345   1.260   0.861   8.184  1.2039 -0.6922 -0.5637
  117OSM   C12F12346   1.182   1.039   8.095 -0.2092 -0.0037 -0.0551
  117OSM   H12F12347   1.194   1.148   8.082  0.8103  0.0216  0.9452
  117OSM   H12G12348   1.081   1.029   8.142  0.0927  2.2905  1.2178
  117OSM   C13F12349   1.195   0.966   7.960  0.4769  0.7258 -0.4453
  117OSM   H13F12350   1.198   0.856   7.980  1.0091  0.7415 -0.4292
  117OSM   H13G12351   1.291   0.989   7.910  1.5484 -0.4126  1.0165
  117OSM   C14F12352   1.071   1.009   7.867 -0.0854  0.1076  0.0897
  117OSM   H14F12353   0.976   0.984   7.920 -0.5998 -0.1759 -0.9261
  117OSM   H14G12354   1.081   0.940   7.780 -0.5758 -1.3321  1.1346
  117OSM   C15F12355   1.064   1.152   7.825  0.0645  0.1019  0.0763
  117OSM   H15F12356   1.034   1.209   7.916  3.5610 -1.1257  2.1890
  117OSM   H15G12357   0.974   1.153   7.760 -0.8268  1.7756  1.2508
  117OSM   C16F12358   1.200   1.201   7.766  0.2353 -0.3673 -0.3974
  117OSM   H16F12359   1.250   1.107   7.734 -1.2676 -2.4481  2.7704
  117OSM   H16G12360   1.255   1.240   7.855  2.3021 -0.4295 -1.5784
  117OSM   C17F12361   1.184   1.297   7.645 -0.5316 -0.4474 -0.4629
  117OSM   H17F12362   1.152   1.396   7.685  0.7732 -0.3984  0.5243
  117OSM   H17G12363   1.096   1.265   7.586 -0.9051  0.1533 -0.2495
  117OSM   C18F12364   1.315   1.326   7.578 -0.4874 -0.1368  0.0708
  117OSM   H18F12365   1.360   1.240   7.522 -2.4523 -1.9277  1.0811
  117OSM   H18G12366   1.387   1.361   7.654 -1.3775  0.5344  0.6122
  117OSM   H18H12367   1.302   1.410   7.506 -2.0025 -0.9339 -0.6304
  118OSM      N12368   0.200   1.869   9.856  0.1853 -0.0422  0.1943
  118OSM    C1512369   0.197   1.723   9.828 -0.4880  0.0530 -0.2873
  118OSM   H15A12370   0.224   1.678   9.922 -0.3070 -0.1057 -0.4155
  118OSM   H15B12371   0.280   1.698   9.763  1.3010 -0.4582  2.0570
  118OSM   H15C12372   0.104   1.707   9.775  0.4228 -1.9023 -1.4077
  118OSM    C1412373   0.103   1.906   9.969 -0.4885  0.2692  0.0469
  118OSM   H14A12374   0.131   1.855  10.060 -0.0116  0.8960  0.2512
  118OSM   H14B12375   0.002   1.876   9.942  0.0952 -0.8367 -0.9772
  118OSM   H14C12376   0.100   2.011   9.991 -0.1399  0.0096  1.3904
  118OSM    C1312377   0.338   1.903   9.912 -0.9010 -0.1756 -0.5133
  118OSM   H13A12378   0.350   1.859  10.010 -1.9224 -2.8604 -1.4959
  118OSM   H13B12379   0.347   2.010   9.908  1.6295 -0.3432 -1.9893
  118OSM   H13C12380   0.418   1.864   9.851 -0.0289  0.8878 -0.0788
  118OSM    C1212381   0.162   1.945   9.733  0.3734 -1.2182 -0.2259
  118OSM   H12A12382   0.072   1.908   9.685 -0.0263 -0.0145 -0.4289
  118OSM   H12B12383   0.244   1.940   9.663  1.3206 -0.2835  0.7893
  118OSM    C1112384   0.131   2.100   9.749  0.0674 -0.1758 -0.2682
  118OSM   H11A12385   0.034   2.117   9.802 -0.3475 -0.3107 -0.9750
  118OSM   H11B12386   0.113   2.120   9.642 -0.4218  1.2552  0.0616
  118OSM      P12387   0.226   2.266   9.928  0.2130  0.1291 -0.2358
  118OSM    O1312388   0.110   2.213  10.014 -0.3676 -0.2849  0.3757
  118OSM    O1412389   0.359   2.279   9.989  1.2798 -0.2357 -0.1384
  118OSM    O1112390   0.176   2.405   9.861 -0.4144  0.1825  0.3494
  118OSM    O1212391   0.241   2.178   9.798  0.1260  0.1012  0.3408
  118OSM    C1S12392   0.257   2.474   9.762 -0.0312 -0.6717 -0.1464
  118OSM    H1S12393   0.365   2.449   9.775  0.2746 -0.2277 -1.6281
  118OSM    H1T12394   0.256   2.584   9.772  0.3113 -0.6868  0.0831
  118OSM     NF12395   0.325   2.476   9.522  0.1989 -0.1135 -0.2552
  118OSM    HNF12396   0.306   2.556   9.465  0.8977 -0.9882 -1.7701
  118OSM    C2S12397   0.227   2.431   9.615  0.2368  0.5462 -0.2499
  118OSM    H2S12398   0.237   2.320   9.612  2.0409  0.6905 -0.7490
  118OSM    C3S12399   0.084   2.465   9.579 -0.8447  0.0325 -0.9161
  118OSM    H3S12400   0.072   2.569   9.617  1.5788  0.1500 -0.3299
  118OSM     O312401  -0.010   2.380   9.652 -0.5058 -0.1006  0.2645
  118OSM    HO312402   0.043   2.348   9.726 -0.8327 -2.2808 -0.3671
  118OSM    C4S12403   0.049   2.468   9.434 -0.2391 -0.2523 -0.3393
  118OSM    H4S12404   0.066   2.565   9.386  2.0223 -0.2025  0.4324
  118OSM    C5S12405   0.014   2.356   9.361  0.4692 -0.4055  0.3481
  118OSM    H5S12406   0.016   2.261   9.416  0.7054 -0.3445  0.4458
  118OSM    C6S12407  -0.018   2.351   9.210 -0.0180 -0.0091 -0.2936
  118OSM    H6S12408  -0.127   2.328   9.207 -0.6440  2.7031 -0.9824
  118OSM    H6T12409   0.033   2.262   9.167 -2.1944 -2.0230  0.9787
  118OSM    C7S12410   0.009   2.472   9.118 -0.4115  0.4895  0.6101
  118OSM    H7S12411   0.119   2.489   9.114 -0.4223  0.4848  0.3127
  118OSM    H7T12412  -0.039   2.554   9.175  0.2644  1.9612 -0.8483
  118OSM    C8S12413  -0.060   2.453   8.980  0.0734 -0.2325  0.4930
  118OSM    H8S12414  -0.166   2.423   8.991 -0.2304  0.9627  0.8790
  118OSM    H8T12415  -0.007   2.372   8.925 -0.1321 -0.8925  1.2467
  118OSM    C9S12416  -0.057   2.582   8.891  0.9678  0.5960 -0.4815
  118OSM    H9S12417   0.045   2.604   8.854  0.3048  2.1143 -1.5166
  118OSM    H9T12418  -0.105   2.663   8.950 -1.0474 -0.6150 -0.3493
  118OSM   C10S12419  -0.153   2.554   8.774  0.4813  0.1094  0.3896
  118OSM   H10S12420  -0.198   2.651   8.747  0.1719 -0.2409 -0.3802
  118OSM   H10T12421  -0.240   2.494   8.809  2.1518 -2.3603  0.6171
  118OSM   C11S12422  -0.083   2.487   8.658 -0.1363 -0.1306  0.5177
  118OSM   H11S12423  -0.045   2.385   8.681  1.0737  0.0905 -0.4231
  118OSM   H11T12424   0.008   2.546   8.634  1.6864 -2.2734  1.7327
  118OSM   C12S12425  -0.175   2.486   8.531  0.5956  0.0975  0.2445
  118OSM   H12S12426  -0.210   2.591   8.520  1.5507  0.6741  2.2064
  118OSM   H12T12427  -0.263   2.418   8.537  0.7629 -0.0305  1.5243
  118OSM   C13S12428  -0.101   2.453   8.405 -0.5123 -0.4191  0.9127
  118OSM   H13S12429   0.003   2.489   8.420 -0.6320 -0.5870  2.2292
  118OSM   H13T12430  -0.147   2.507   8.320 -1.4536  0.0695  1.7114
  118OSM   C14S12431  -0.096   2.300   8.370 -0.0318 -0.4101 -0.4963
  118OSM   H14S12432  -0.187   2.287   8.309 -0.0172  1.1562 -0.9173
  118OSM   H14T12433  -0.106   2.249   8.468 -3.0190  2.0340  0.6534
  118OSM   C15S12434   0.036   2.258   8.301  0.3199 -0.2367 -0.1095
  118OSM   H15S12435   0.062   2.153   8.329  1.0772  0.3362  1.4479
  118OSM   H15T12436   0.120   2.321   8.335  1.8474 -2.5672  0.6809
  118OSM   C16S12437   0.028   2.265   8.144 -0.6930  0.8654  0.6660
  118OSM   H16S12438   0.015   2.369   8.105  1.6670  0.8169 -0.4104
  118OSM   H16T12439  -0.044   2.184   8.119  0.1505 -0.0589  1.1961
  118OSM   C17S12440   0.153   2.214   8.078 -0.3974 -0.3415  0.3783
  118OSM   H17S12441   0.248   2.251   8.122 -1.4313  0.4049  2.0925
  118OSM   H17T12442   0.155   2.255   7.975  0.5781  1.0575  0.9173
  118OSM   C18S12443   0.162   2.060   8.079  0.1802  0.0426  0.9403
  118OSM   H18S12444   0.236   2.025   8.005 -1.5509 -0.1999 -0.7460
  118OSM   H18T12445   0.068   2.010   8.047  0.2513  0.8853 -0.7114
  118OSM   H18U12446   0.190   2.017   8.178 -1.4339 -2.3583  0.4289
  118OSM    C1F12447   0.455   2.427   9.523  0.0402 -0.2533 -0.2721
  118OSM     OF12448   0.480   2.341   9.606 -0.4464 -0.8211 -0.6878
  118OSM    C2F12449   0.565   2.488   9.436  0.4139 -0.0538 -0.4576
  118OSM    H2F12450   0.633   2.544   9.504  1.9204  1.4223 -3.0165
  118OSM    H2G12451   0.535   2.566   9.363 -0.3158 -0.7990 -0.9839
  118OSM    C3F12452   0.646   2.382   9.361 -0.6697 -0.0082 -0.3218
  118OSM    H3F12453   0.567   2.327   9.305 -1.1759  0.0736  0.2981
  118OSM    H3G12454   0.698   2.316   9.433 -0.2989 -1.6319 -2.0096
  118OSM    C4F12455   0.749   2.438   9.260  0.1228 -0.1922  0.4524
  118OSM    H4F12456   0.790   2.532   9.304  1.5493 -0.2061 -0.7623
  118OSM    H4G12457   0.714   2.457   9.156  1.3344  0.0370  0.0740
  118OSM    C5F12458   0.866   2.343   9.235 -0.2261 -0.0720  0.0109
  118OSM    H5F12459   0.908   2.297   9.327  0.1293 -0.5520 -0.3804
  118OSM    H5G12460   0.953   2.405   9.204  0.7562 -1.8055 -0.9017
  118OSM    C6F12461   0.842   2.235   9.136  0.1551  0.6079 -0.5324
  118OSM    H6F12462   0.809   2.277   9.039 -1.1632 -2.2655 -1.4464
  118OSM    H6G12463   0.757   2.172   9.171 -1.1874  1.9142 -1.3340
  118OSM    C7F12464   0.965   2.137   9.121  0.0392  0.0233 -0.4257
  118OSM    H7F12465   0.986   2.088   9.219 -1.0384 -1.2393 -0.7862
  118OSM    H7G12466   1.055   2.198   9.102  0.8188 -1.4263 -1.5475
  118OSM    C8F12467   0.945   2.032   9.013 -0.1315 -0.7183 -1.1917
  118OSM    H8F12468   1.036   1.968   9.011  0.4852 -0.0448  1.4187
  118OSM    H8G12469   0.942   2.073   8.910  1.7425 -1.3658 -1.5592
  118OSM    C9F12470   0.836   1.937   9.048  0.7444 -0.1425 -0.2345
  118OSM    H9F12471   0.824   1.914   9.155 -1.5779  2.7632  0.2816
  118OSM   C10F12472   0.739   1.893   8.966  0.1327  0.8829 -0.2862
  118OSM   H10F12473   0.658   1.828   9.003 -1.0619  1.0371 -2.4886
  118OSM   C11F12474   0.724   1.930   8.816  0.0001 -0.1970  0.5928
  118OSM   H11F12475   0.746   2.038   8.802 -1.6254  0.1508  0.5064
  118OSM   H11G12476   0.616   1.915   8.796  0.6757 -0.6539 -3.3365
  118OSM   C12F12477   0.796   1.839   8.709 -0.5231  0.4732 -0.3926
  118OSM   H12F12478   0.768   1.867   8.605  1.7266  1.2552 -0.8361
  118OSM   H12G12479   0.775   1.733   8.732 -1.8467  1.0333  1.2102
  118OSM   C13F12480   0.945   1.852   8.700 -0.0138 -0.2472 -0.2876
  118OSM   H13F12481   0.983   1.802   8.792 -1.6238  1.3481  1.3403
  118OSM   H13G12482   0.975   1.959   8.705 -1.1919  0.0525  1.4923
  118OSM   C14F12483   1.012   1.775   8.582  0.0527  0.4547 -0.2947
  118OSM   H14F12484   0.965   1.802   8.485  1.6494 -2.7664 -2.1308
  118OSM   H14G12485   1.013   1.665   8.594 -0.6831  0.6986  2.8100
  118OSM   C15F12486   1.148   1.825   8.564 -0.2729  0.0598 -0.2900
  118OSM   H15F12487   1.154   1.933   8.585 -0.3783 -0.0844  0.5169
  118OSM   H15G12488   1.187   1.814   8.460 -0.5728 -1.5664 -0.2601
  118OSM   C16F12489   1.242   1.756   8.660 -0.2683 -0.2650 -0.7312
  118OSM   H16F12490   1.320   1.699   8.604  1.3464  0.7624  0.3867
  118OSM   H16G12491   1.182   1.693   8.729  1.0708  1.2882  2.0312
  118OSM   C17F12492   1.324   1.852   8.750  0.1020 -0.2069  0.3741
  118OSM   H17F12493   1.249   1.892   8.822  1.1321 -1.0663  1.9915
  118OSM   H17G12494   1.365   1.935   8.688 -0.3010 -0.7524 -0.6462
  118OSM   C18F12495   1.434   1.785   8.833 -0.1584  0.3905  0.3131
  118OSM   H18F12496   1.500   1.855   8.889  1.5616 -1.6350  0.9613
  118OSM   H18G12497   1.500   1.707   8.789 -0.5593  0.4732 -0.4524
  118OSM   H18H12498   1.383   1.734   8.917 -1.7154 -1.4085 -1.6401
  119OSM      N12499   1.756   1.041   9.646 -1.0187  0.4510  0.1866
  119OSM    C1512500   1.809   1.175   9.632 -0.5110 -1.0675 -0.3003
  119OSM   H15A12501   1.907   1.173   9.586  0.1625  1.6444  0.8002
  119OSM   H15B12502   1.842   1.201   9.732  0.7310 -1.0275 -0.7056
  119OSM   H15C12503   1.745   1.256   9.600 -1.6052 -1.2711  1.2306
  119OSM    C1412504   1.640   1.052   9.746  0.1072 -0.0626  0.1262
  119OSM   H14A12505   1.555   1.106   9.708  0.3406  1.2709  1.4233
  119OSM   H14B12506   1.665   1.087   9.845 -0.3424 -0.0316  0.2331
  119OSM   H14C12507   1.600   0.952   9.757  0.3171 -0.0442  1.1414
  119OSM    C1312508   1.695   0.988   9.520 -0.0429 -0.0961 -0.3032
  119OSM   H13A12509   1.648   0.893   9.540 -2.5362  0.8324 -1.2842
  119OSM   H13B12510   1.772   0.967   9.447  1.0798 -0.6938  1.0114
  119OSM   H13C12511   1.610   1.049   9.492 -1.2182 -1.6673 -0.2727
  119OSM    C1212512   1.859   0.942   9.702  0.3810 -0.4983 -0.4767
  119OSM   H12A12513   1.813   0.848   9.731 -2.9201  1.9360  3.1896
  119OSM   H12B12514   1.888   0.973   9.801 -2.3662 -1.8601  0.8727
  119OSM    C1112515   1.981   0.929   9.612  0.0421  0.3557  0.2191
  119OSM   H11A12516   2.014   1.031   9.582  2.9568 -0.7805 -0.7404
  119OSM   H11B12517   1.959   0.866   9.524 -0.5859 -1.9083  1.8962
  119OSM      P12518   2.158   0.740   9.677  0.3189  0.1983  0.1315
  119OSM    O1312519   2.292   0.754   9.741  0.5686 -0.4299 -0.4759
  119OSM    O1412520   2.067   0.632   9.722 -0.6265  0.0156  0.3356
  119OSM    O1112521   2.177   0.736   9.523  0.1041  0.1254  0.1111
  119OSM    O1212522   2.083   0.877   9.694  0.0498  0.5327  0.0099
  119OSM    C1S12523   2.208   0.634   9.428  0.7464 -0.2742  0.5887
  119OSM    H1S12524   2.234   0.541   9.482  3.1103  0.2400  0.4678
  119OSM    H1T12525   2.303   0.672   9.384 -0.4757 -0.1035 -2.1279
  119OSM     NF12526   2.129   0.506   9.238  0.5574  0.5984  0.3441
  119OSM    HNF12527   2.178   0.502   9.151 -1.9366  0.4538 -1.1512
  119OSM    C2S12528   2.109   0.634   9.305  0.3901  0.2277 -0.8108
  119OSM    H2S12529   2.009   0.637   9.352  1.0777 -1.3904  0.8620
  119OSM    C3S12530   2.131   0.755   9.221 -0.1438 -0.0039  0.3876
  119OSM    H3S12531   2.240   0.769   9.204 -0.1908  0.7491  0.6708
  119OSM     O312532   2.113   0.876   9.290 -0.3831 -0.4307  0.0358
  119OSM    HO312533   2.114   0.847   9.381 -1.1871  1.4089  0.6909
  119OSM    C4S12534   2.044   0.753   9.099 -0.1539 -0.3108  0.0740
  119OSM    H4S12535   1.958   0.689   9.124 -0.9645  0.9405  0.5360
  119OSM    C5S12536   2.059   0.812   8.977  0.0076 -0.3018  0.1436
  119OSM    H5S12537   2.155   0.862   8.958  0.6356  0.7112  4.7581
  119OSM    C6S12538   1.968   0.796   8.863 -0.0943  0.2934  0.1243
  119OSM    H6S12539   2.017   0.792   8.764 -2.1080 -0.6924 -0.8931
  119OSM    H6T12540   1.897   0.881   8.869 -1.0848 -0.5489  0.5595
  119OSM    C7S12541   1.871   0.674   8.853 -0.1193  0.4605  0.8946
  119OSM    H7S12542   1.807   0.683   8.762 -0.3140 -1.4290  0.8065
  119OSM    H7T12543   1.802   0.678   8.940  0.0846  1.1379  1.0308
  119OSM    C8S12544   1.937   0.526   8.843 -0.0247 -0.1879  0.1591
  119OSM    H8S12545   1.854   0.455   8.824 -1.7642  1.8444 -0.2559
  119OSM    H8T12546   1.974   0.508   8.946 -1.5133 -0.1105  0.7403
  119OSM    C9S12547   2.039   0.531   8.724  0.4536  0.2747  0.4626
  119OSM    H9S12548   2.073   0.425   8.727 -3.1285 -1.0033  1.9206
  119OSM    H9T12549   2.127   0.595   8.746  0.4150  0.2742  0.6203
  119OSM   C10S12550   1.989   0.555   8.581  0.4025 -0.1262 -0.2356
  119OSM   H10S12551   2.077   0.552   8.513 -0.9689  1.9682 -2.2182
  119OSM   H10T12552   1.939   0.652   8.565  0.8759  0.2192  0.3517
  119OSM   C11S12553   1.893   0.442   8.535  0.2867 -0.2124  0.3926
  119OSM   H11S12554   1.816   0.420   8.612  0.5436  0.8658  0.9907
  119OSM   H11T12555   1.945   0.349   8.506 -0.9139 -0.0607 -2.5549
  119OSM   C12S12556   1.825   0.487   8.395 -0.0668 -0.2017 -0.6346
  119OSM   H12S12557   1.768   0.581   8.408  1.5810  0.7398 -0.0163
  119OSM   H12T12558   1.752   0.405   8.375  0.7470 -1.0741 -0.1077
  119OSM   C13S12559   1.934   0.494   8.281  0.8834 -0.2416 -0.3803
  119OSM   H13S12560   1.977   0.392   8.268 -1.0501 -0.9464 -1.7739
  119OSM   H13T12561   2.014   0.568   8.301  0.0016  0.4083  0.8972
  119OSM   C14S12562   1.870   0.522   8.147  0.4602 -0.1470 -0.1936
  119OSM   H14S12563   1.851   0.629   8.127 -0.7938 -0.3812 -0.3830
  119OSM   H14T12564   1.774   0.469   8.126  1.5209 -1.4406 -2.0993
  119OSM   C15S12565   1.970   0.487   8.026  0.0534  0.1869  0.1838
  119OSM   H15S12566   1.978   0.377   8.011 -0.1506  0.3749 -1.5044
  119OSM   H15T12567   2.069   0.532   8.049  0.4507 -0.4938 -0.2008
  119OSM   C16S12568   1.932   0.550   7.895 -0.2975  0.4310  0.7518
  119OSM   H16S12569   2.015   0.531   7.824 -0.9189 -0.3352  0.1985
  119OSM   H16T12570   1.927   0.657   7.921  1.3212  0.1500  2.4232
  119OSM   C17S12571   1.805   0.480   7.835  0.2087  0.5110 -0.1521
  119OSM   H17S12572   1.713   0.511   7.890 -0.5301  1.1743 -1.7081
  119OSM   H17T12573   1.835   0.374   7.851 -1.2129  0.2040  0.6540
  119OSM   C18S12574   1.780   0.494   7.682 -0.2850 -0.3632  0.8260
  119OSM   H18S12575   1.707   0.416   7.650  0.6803 -0.5458 -1.0520
  119OSM   H18T12576   1.874   0.471   7.628 -1.1748  1.0544 -1.4964
  119OSM   H18U12577   1.747   0.590   7.635  1.1806 -1.4346 -2.7545
  119OSM    C1F12578   2.074   0.395   9.285 -0.2639 -0.1728 -0.4344
  119OSM     OF12579   2.001   0.398   9.379  0.4623  0.2059  1.0580
  119OSM    C2F12580   2.094   0.270   9.219 -0.2218  0.8462  0.4176
  119OSM    H2F12581   2.042   0.185   9.269 -2.5784  1.3120 -1.0705
  119OSM    H2G12582   2.202   0.248   9.206 -0.0226 -0.4841  3.4773
  119OSM    C3F12583   2.034   0.271   9.071 -0.4299 -0.2988 -0.0464
  119OSM    H3F12584   2.099   0.343   9.016  2.0087 -2.3223 -0.0370
  119OSM    H3G12585   1.929   0.305   9.077 -0.8385 -1.2709 -1.2468
  119OSM    C4F12586   2.051   0.138   8.995  0.4721  0.4574 -0.0296
  119OSM    H4F12587   2.013   0.155   8.892 -2.1964  1.9379  1.1020
  119OSM    H4G12588   1.979   0.063   9.035  2.3972 -1.8637 -0.6235
  119OSM    C5F12589   2.184   0.066   8.993 -0.8065  0.6685 -0.2026
  119OSM    H5F12590   2.222   0.053   9.097 -2.0888 -0.3710  0.1623
  119OSM    H5G12591   2.258   0.134   8.946 -0.1971 -0.8186 -1.4638
  119OSM    C6F12592   2.188  -0.068   8.913 -0.0617  0.1611 -0.0121
  119OSM    H6F12593   2.154  -0.058   8.808 -0.1987 -2.7150 -0.3010
  119OSM    H6G12594   2.133  -0.134   8.983 -0.8232  2.0285  1.2421
  119OSM    C7F12595   2.329  -0.124   8.901 -0.5069  0.1526  0.3576
  119OSM    H7F12596   2.366  -0.133   9.006 -0.0288 -0.9741  0.1123
  119OSM    H7G12597   2.387  -0.062   8.830  0.2804 -2.8495 -1.8428
  119OSM    C8F12598   2.330  -0.257   8.830 -0.8471 -0.1241 -0.2481
  119OSM    H8F12599   2.293  -0.235   8.728  1.1334 -1.1647 -1.2455
  119OSM    H8G12600   2.250  -0.321   8.872  1.0460 -2.5181 -0.0399
  119OSM    C9F12601   2.462  -0.329   8.829  0.4749  0.4874  0.7243
  119OSM    H9F12602   2.497  -0.382   8.919 -0.1125  1.8250  1.7706
  119OSM   C10F12603   2.557  -0.314   8.739  0.4863  0.8022  0.1981
  119OSM   H10F12604   2.650  -0.371   8.753  0.0077 -0.2396 -0.6466
  119OSM   C11F12605   2.544  -0.233   8.616  0.1866 -0.7096  0.0390
  119OSM   H11F12606   2.462  -0.158   8.622  1.9610  1.4722 -1.2556
  119OSM   H11G12607   2.526  -0.303   8.531  0.3385  0.6884 -1.1972
  119OSM   C12F12608   2.668  -0.148   8.589 -0.1186  0.0408 -0.3494
  119OSM   H12F12609   2.766  -0.201   8.587  0.5001  1.0943  0.8384
  119OSM   H12G12610   2.669  -0.063   8.660 -0.0860 -0.1679 -0.0984
  119OSM   C13F12611   2.666  -0.068   8.460  0.2775  0.2897 -0.1117
  119OSM   H13F12612   2.589   0.012   8.456  1.1942  1.2280  0.5735
  119OSM   H13G12613   2.654  -0.136   8.373  1.5222  1.2754 -1.0940
  119OSM   C14F12614   2.800  -0.005   8.424 -0.0094 -0.1382  0.0287
  119OSM   H14F12615   2.888  -0.072   8.415  0.4672  0.7225 -4.7564
  119OSM   H14G12616   2.819   0.068   8.505 -0.8357 -0.7693  0.8089
  119OSM   C15F12617   2.781   0.072   8.289 -0.0336  0.0958  0.0203
  119OSM   H15F12618   2.676   0.055   8.254  0.0722  0.3202 -0.4181
  119OSM   H15G12619   2.844   0.025   8.210  0.9366  2.1574 -0.5083
  119OSM   C16F12620   2.838   0.217   8.292  0.3402  0.6627 -0.2449
  119OSM   H16F12621   2.944   0.203   8.321  0.2182 -1.8151 -0.7677
  119OSM   H16G12622   2.783   0.274   8.371  0.2204 -2.8071  2.4223
  119OSM   C17F12623   2.853   0.289   8.162  0.8803  0.1201 -0.2234
  119OSM   H17F12624   2.931   0.240   8.098  1.1430  1.4817 -0.9869
  119OSM   H17G12625   2.885   0.392   8.187  2.0040 -0.3743  0.5078
  119OSM   C18F12626   2.726   0.304   8.076 -0.2589  0.1495  0.2686
  119OSM   H18F12627   2.731   0.369   7.986 -1.1125 -1.7500 -1.2280
  119OSM   H18G12628   2.651   0.334   8.152  3.5568  2.5815  3.4091
  119OSM   H18H12629   2.696   0.204   8.037  1.4890 -0.7191  1.0648
  120OSM      N12630   0.726   6.408   9.968  0.0332 -0.0738 -0.4118
  120OSM    C1512631   0.849   6.350  10.038  0.0702 -0.2731  0.8316
  120OSM   H15A12632   0.819   6.312  10.134  0.2717 -2.5829  0.0647
  120OSM   H15B12633   0.919   6.425  10.073  0.1074 -0.1903  0.5825
  120OSM   H15C12634   0.901   6.273   9.981 -1.3955 -1.3660  0.9181
  120OSM    C1412635   0.676   6.517  10.050 -0.1928  0.9057 -0.2805
  120OSM   H14A12636   0.755   6.585  10.080  1.4851 -0.9489 -0.2533
  120OSM   H14B12637   0.643   6.478  10.145  1.6625 -1.0240 -0.3704
  120OSM   H14C12638   0.591   6.574  10.015 -1.7238 -0.4423  1.1123
  120OSM    C1312639   0.778   6.464   9.840  0.2180  0.1919 -0.2016
  120OSM   H13A12640   0.793   6.398   9.756  0.4984 -0.5699  0.4299
  120OSM   H13B12641   0.872   6.516   9.856 -0.8565  3.3044 -2.9070
  120OSM   H13C12642   0.720   6.550   9.813  0.1985  0.5552  0.9264
  120OSM    C1212643   0.628   6.291   9.944  0.0892  0.8086  0.0038
  120OSM   H12A12644   0.538   6.330   9.898  0.8005 -0.2579 -2.4589
  120OSM   H12B12645   0.611   6.248  10.042  2.4833  0.8376  0.4797
  120OSM    C1112646   0.674   6.177   9.851 -0.2285  0.8177  0.1785
  120OSM   H11A12647   0.776   6.140   9.872  0.1007  0.2134 -2.2042
  120OSM   H11B12648   0.689   6.221   9.750 -1.2221 -0.7345 -0.6912
  120OSM      P12649   0.438   6.097   9.783 -0.2134 -0.0670  0.0157
  120OSM    O1312650   0.356   5.974   9.787 -0.0567 -0.3166 -0.5032
  120OSM    O1412651   0.380   6.221   9.847  0.5059  0.5430  0.3497
  120OSM    O1112652   0.477   6.133   9.639 -0.4080 -0.3006  0.5481
  120OSM    O1212653   0.580   6.072   9.853  0.0173 -0.4711 -0.5269
  120OSM    C1S12654   0.548   6.045   9.542  0.8254  0.2974  0.4439
  120OSM    H1S12655   0.576   5.946   9.583 -0.1696  0.6849  2.1461
  120OSM    H1T12656   0.643   6.086   9.501  1.7808 -0.7806  1.5073
  120OSM     NF12657   0.546   5.951   9.333  0.6989  0.2009  0.1106
  120OSM    HNF12658   0.616   5.995   9.277  2.2640 -2.4742 -0.2233
  120OSM    C2S12659   0.455   6.025   9.415 -0.0416  0.8660  0.2260
  120OSM    H2S12660   0.373   5.952   9.434  1.7389 -1.2740  0.0159
  120OSM    C3S12661   0.395   6.161   9.364 -0.7875  0.7639 -0.1410
  120OSM    H3S12662   0.476   6.233   9.341  2.3801 -2.6670 -0.7576
  120OSM     O312663   0.301   6.217   9.456 -0.2935 -0.0069  0.3478
  120OSM    HO312664   0.315   6.175   9.541  0.3931 -0.6787 -0.0842
  120OSM    C4S12665   0.313   6.146   9.234 -0.5719  0.1739  0.0400
  120OSM    H4S12666   0.222   6.085   9.244 -1.2721  1.3799  1.4305
  120OSM    C5S12667   0.340   6.198   9.116 -0.2071 -0.0246 -0.3229
  120OSM    H5S12668   0.422   6.271   9.107 -0.0512 -0.2160 -0.4620
  120OSM    C6S12669   0.255   6.160   8.998  0.0725 -0.1011 -0.6749
  120OSM    H6S12670   0.220   6.251   8.944  0.7563  1.4801  1.3846
  120OSM    H6T12671   0.161   6.107   9.026  0.7122 -1.3019 -0.7471
  120OSM    C7S12672   0.325   6.070   8.898  0.4312 -0.4817  0.2678
  120OSM    H7S12673   0.256   6.008   8.837  0.0425  1.2162 -1.1030
  120OSM    H7T12674   0.376   5.987   8.952  1.7664  0.3448  0.3271
  120OSM    C8S12675   0.418   6.136   8.800  0.2541 -0.0026 -0.3875
  120OSM    H8S12676   0.508   6.178   8.851 -0.9353  1.5237  0.5332
  120OSM    H8T12677   0.361   6.218   8.753  1.3714  0.4016 -1.0860
  120OSM    C9S12678   0.476   6.035   8.693 -0.3208 -0.5877 -0.5505
  120OSM    H9S12679   0.388   5.975   8.661  1.0322 -1.2115 -3.4192
  120OSM    H9T12680   0.552   5.963   8.731  0.4917 -1.2920 -3.2959
  120OSM   C10S12681   0.529   6.120   8.581  0.3637  0.8672  0.5524
  120OSM   H10S12682   0.612   6.179   8.626  0.0854  2.2372 -0.6472
  120OSM   H10T12683   0.449   6.188   8.544  0.5732  0.5642 -0.4823
  120OSM   C11S12684   0.580   6.043   8.458 -0.9871 -0.1982 -0.8462
  120OSM   H11S12685   0.658   5.974   8.498  1.1002  1.6582 -1.4892
  120OSM   H11T12686   0.627   6.104   8.378 -0.1042 -1.5738 -1.4310
  120OSM   C12S12687   0.463   5.964   8.398 -0.1405 -1.3934  0.3898
  120OSM   H12S12688   0.384   6.031   8.358  1.3700  0.1080 -0.1809
  120OSM   H12T12689   0.429   5.897   8.480  2.3454 -2.0803  0.9291
  120OSM   C13S12690   0.509   5.874   8.289 -0.3743 -0.1305 -0.2734
  120OSM   H13S12691   0.424   5.809   8.259 -1.5013  0.6147  1.1650
  120OSM   H13T12692   0.598   5.815   8.319  1.9543  2.2876 -1.9879
  120OSM   C14S12693   0.554   5.955   8.173  0.1145 -0.1514 -0.9619
  120OSM   H14S12694   0.644   6.014   8.201 -0.8186  1.2554 -0.8354
  120OSM   H14T12695   0.479   6.022   8.127  1.6452  0.7362 -2.2500
  120OSM   C15S12696   0.605   5.866   8.057 -0.2994  0.7006  0.0811
  120OSM   H15S12697   0.511   5.838   8.005  0.1797 -1.7595  0.4191
  120OSM   H15T12698   0.654   5.769   8.080  0.4597  0.4802 -2.2198
  120OSM   C16S12699   0.700   5.956   7.969  0.1411 -0.2134  0.0876
  120OSM   H16S12700   0.789   5.993   8.025  1.1305 -0.7245 -1.0839
  120OSM   H16T12701   0.655   6.049   7.928 -1.0286 -0.9583 -0.3940
  120OSM   C17S12702   0.765   5.874   7.854 -0.4301  0.1874 -0.0196
  120OSM   H17S12703   0.745   5.768   7.880 -1.8322 -0.0462 -1.8113
  120OSM   H17T12704   0.873   5.900   7.853 -0.6176  1.0225  0.4756
  120OSM   C18S12705   0.681   5.897   7.728  0.1546 -0.1876  0.1078
  120OSM   H18S12706   0.587   5.837   7.727  0.0637 -0.0730  0.8114
  120OSM   H18T12707   0.732   5.869   7.634 -0.6945 -2.9438  0.3899
  120OSM   H18U12708   0.660   6.006   7.723  0.9549  0.1452  2.6427
  120OSM    C1F12709   0.570   5.820   9.353  0.4308  0.0513 -0.4741
  120OSM     OF12710   0.504   5.762   9.441 -0.5333  0.3325  0.0647
  120OSM    C2F12711   0.687   5.757   9.275  0.0528 -0.3180 -0.3143
  120OSM    H2F12712   0.701   5.653   9.312  0.9412 -0.4588 -1.0055
  120OSM    H2G12713   0.778   5.817   9.300 -0.5458  0.4248  0.1221
  120OSM    C3F12714   0.662   5.759   9.124  0.5561 -0.4820  0.6768
  120OSM    H3F12715   0.736   5.689   9.080  0.2153 -0.8210  0.6378
  120OSM    H3G12716   0.659   5.862   9.080 -0.8545 -0.8984 -0.2820
  120OSM    C4F12717   0.525   5.698   9.091  0.0342  0.1870 -0.6478
  120OSM    H4F12718   0.441   5.746   9.146  0.4641  1.7324 -1.2719
  120OSM    H4G12719   0.527   5.591   9.119 -1.7696  0.1479 -0.5312
  120OSM    C5F12720   0.492   5.709   8.940  0.4449 -0.1907 -0.1015
  120OSM    H5F12721   0.526   5.809   8.906  4.0822 -1.5998 -1.1719
  120OSM    H5G12722   0.383   5.696   8.924  0.7291  0.3713 -3.0828
  120OSM    C6F12723   0.548   5.597   8.840 -0.3463 -0.0033  0.5677
  120OSM    H6F12724   0.510   5.503   8.884 -1.4220  0.2202  0.1415
  120OSM    H6G12725   0.659   5.597   8.844 -0.3623  1.1370  1.8962
  120OSM    C7F12726   0.493   5.609   8.690  0.4840 -0.1341 -0.2333
  120OSM    H7F12727   0.544   5.701   8.654  1.4723 -0.1057  1.1536
  120OSM    H7G12728   0.383   5.622   8.701  0.0914 -1.8397 -1.8165
  120OSM    C8F12729   0.502   5.487   8.598 -0.1029 -0.3416  0.4660
  120OSM    H8F12730   0.442   5.416   8.659  0.7847 -1.8833 -0.3620
  120OSM    H8G12731   0.608   5.455   8.586  0.4580  1.0134  1.6027
  120OSM    C9F12732   0.442   5.490   8.453 -0.2922  0.1334 -0.4544
  120OSM    H9F12733   0.351   5.552   8.449 -2.0263 -2.2339  0.1353
  120OSM   C10F12734   0.481   5.410   8.354  0.7564  0.6577 -0.0915
  120OSM   H10F12735   0.422   5.412   8.261 -0.1037 -1.1196  0.3814
  120OSM   C11F12736   0.597   5.312   8.370 -0.0693  0.5135  0.5797
  120OSM   H11F12737   0.621   5.277   8.473 -1.5468 -1.2329  0.3872
  120OSM   H11G12738   0.693   5.349   8.327  0.8161 -0.9756  1.1769
  120OSM   C12F12739   0.571   5.189   8.284  0.7424 -0.5337  0.1490
  120OSM   H12F12740   0.525   5.226   8.190 -1.1719  0.9110  1.5675
  120OSM   H12G12741   0.478   5.147   8.328 -0.2256  0.0250 -1.2755
  120OSM   C13F12742   0.683   5.093   8.277 -0.5793  0.1484 -0.6787
  120OSM   H13F12743   0.705   5.042   8.373  1.2802  0.3708 -0.9555
  120OSM   H13G12744   0.776   5.143   8.244  0.8943 -0.4529  2.2419
  120OSM   C14F12745   0.659   4.980   8.184  0.0880 -0.0166 -0.0112
  120OSM   H14F12746   0.656   5.019   8.080  0.7383  1.7672  0.5841
  120OSM   H14G12747   0.556   4.943   8.201 -0.7439  0.4781 -3.2748
  120OSM   C15F12748   0.759   4.866   8.193 -0.2260 -1.0017 -0.3162
  120OSM   H15F12749   0.778   4.849   8.302  1.2476 -1.2939 -0.5937
  120OSM   H15G12750   0.860   4.892   8.154 -0.7362 -0.1186 -1.0846
  120OSM   C16F12751   0.718   4.747   8.113  0.1446  0.8726  0.4614
  120OSM   H16F12752   0.703   4.772   8.005  0.9994 -0.6707 -0.0403
  120OSM   H16G12753   0.622   4.701   8.146 -1.3922  0.8821 -3.4561
  120OSM   C17F12754   0.818   4.632   8.101 -0.1558  0.6381  0.0532
  120OSM   H17F12755   0.852   4.602   8.203  1.2416  0.2340 -0.5070
  120OSM   H17G12756   0.908   4.671   8.048  1.0391  0.0443  1.5433
  120OSM   C18F12757   0.758   4.521   8.012 -0.5122  0.3873 -0.3273
  120OSM   H18F12758   0.722   4.570   7.918  1.0381 -1.8711 -2.2240
  120OSM   H18G12759   0.672   4.472   8.063  2.2395 -1.9706  2.4540
  120OSM   H18H12760   0.824   4.438   7.978 -1.0526 -1.0841  1.9805
  121OSM      N12761   6.824   1.375   9.887 -0.3360  0.5143  0.0536
  121OSM    C1512762   6.777   1.415   9.753 -0.4144  0.1494 -0.0274
  121OSM   H15A12763   6.711   1.500   9.753 -2.0907 -0.9693  3.5325
  121OSM   H15B12764   6.740   1.326   9.704  1.1794  0.3533 -1.7294
  121OSM   H15C12765   6.868   1.448   9.706 -0.2091  0.9319  0.8973
  121OSM    C1412766   6.703   1.341   9.967  0.0267  0.3048 -0.2102
  121OSM   H14A12767   6.636   1.284   9.905 -1.4223 -0.9847  2.3450
  121OSM   H14B12768   6.655   1.426  10.014  1.9593  1.0265  0.5381
  121OSM   H14C12769   6.733   1.275  10.048  0.6041  0.9798  0.1361
  121OSM    C1312770   6.911   1.259   9.870 -0.1779  0.4725  0.0782
  121OSM   H13A12771   7.007   1.273   9.823 -0.4921  1.5064 -0.2884
  121OSM   H13B12772   6.854   1.180   9.824  1.2044 -1.3087  1.3028
  121OSM   H13C12773   6.944   1.229   9.968  1.0247  1.2630 -0.0623
  121OSM    C1212774   6.906   1.482   9.955  0.1083 -0.5196 -0.5998
  121OSM   H12A12775   6.976   1.433  10.022 -0.7761  2.1809  2.6208
  121OSM   H12B12776   6.829   1.528  10.015 -0.0617 -0.7874 -0.6150
  121OSM    C1112777   6.973   1.587   9.862  0.0849  0.3741 -0.3611
  121OSM   H11A12778   7.034   1.530   9.789  1.2021  0.7714  0.2507
  121OSM   H11B12779   7.035   1.653   9.926 -1.7821  0.5333  1.4186
  121OSM      P12780   6.897   1.824   9.769  0.1568  0.1249  0.3283
  121OSM    O1312781   6.767   1.875   9.713 -0.2776  0.1686  1.1553
  121OSM    O1412782   6.952   1.890   9.892 -0.6115 -0.4739 -0.3812
  121OSM    O1112783   7.010   1.815   9.652  0.6097  0.0030 -0.0933
  121OSM    O1212784   6.868   1.673   9.802  0.3629 -0.1425 -0.5783
  121OSM    C1S12785   7.005   1.718   9.547 -0.4346  0.3978 -0.8793
  121OSM    H1S12786   6.947   1.629   9.579 -3.8607  2.4805 -0.7701
  121OSM    H1T12787   7.107   1.678   9.531 -1.2835 -3.6372  2.0612
  121OSM     NF12788   6.960   1.658   9.314 -0.8092  0.1814 -0.3994
  121OSM    HNF12789   7.031   1.653   9.245  0.6085 -0.6767  1.0746
  121OSM    C2S12790   6.963   1.769   9.410  0.0502  0.3415 -0.5231
  121OSM    H2S12791   6.861   1.811   9.414 -0.5498 -1.0436  3.9180
  121OSM    C3S12792   7.061   1.891   9.368  0.0962  0.3911  0.5170
  121OSM    H3S12793   7.155   1.842   9.336 -0.1731  1.0536 -1.3964
  121OSM     O312794   7.105   1.980   9.470  0.0398  0.8638  0.0187
  121OSM    HO312795   7.083   1.928   9.547 -1.4413 -0.2504 -1.1013
  121OSM    C4S12796   7.013   1.961   9.243  0.2057  0.1103 -0.2541
  121OSM    H4S12797   6.905   1.973   9.256  0.2905  0.2451  0.3864
  121OSM    C5S12798   7.081   1.973   9.127 -0.3426  0.1574  0.2621
  121OSM    H5S12799   7.179   1.924   9.122 -0.5965 -0.2463 -1.1368
  121OSM    C6S12800   7.040   2.026   8.991 -0.1969  0.2566 -0.1276
  121OSM    H6S12801   7.049   1.945   8.915 -1.1428 -2.1930  2.2140
  121OSM    H6T12802   7.126   2.091   8.964  3.6541 -3.7061  1.3844
  121OSM    C7S12803   6.903   2.098   8.993 -0.3492  0.0791  0.1614
  121OSM    H7S12804   6.906   2.183   9.064 -0.2267  0.7962 -0.6839
  121OSM    H7T12805   6.815   2.035   9.018 -1.3885  0.7120 -1.6744
  121OSM    C8S12806   6.859   2.149   8.853  0.1420  0.1732 -0.1877
  121OSM    H8S12807   6.947   2.197   8.805  1.1656 -0.0086  1.4280
  121OSM    H8T12808   6.784   2.230   8.864  2.3301  2.0292  2.4009
  121OSM    C9S12809   6.814   2.027   8.770 -0.3811 -0.1146  0.4281
  121OSM    H9S12810   6.713   2.003   8.809  0.6918 -2.5346  1.9449
  121OSM    H9T12811   6.876   1.940   8.798  1.2166  1.0679  0.7374
  121OSM   C10S12812   6.809   2.063   8.619  0.4044  0.1450 -0.0640
  121OSM   H10S12813   6.852   1.976   8.564 -0.8102  1.2855 -3.0276
  121OSM   H10T12814   6.873   2.153   8.612 -0.9180  1.5420  3.4193
  121OSM   C11S12815   6.669   2.094   8.576  0.7694  0.0950 -0.1159
  121OSM   H11S12816   6.627   2.189   8.616  0.8689  1.0922 -2.2286
  121OSM   H11T12817   6.592   2.020   8.605  1.3985 -0.1876  0.8680
  121OSM   C12S12818   6.672   2.115   8.424  0.4628 -0.2271  0.0630
  121OSM   H12S12819   6.734   2.205   8.405  1.0779 -0.8162 -0.8112
  121OSM   H12T12820   6.570   2.140   8.389  0.4094 -2.7511 -1.8602
  121OSM   C13S12821   6.721   1.996   8.339 -0.7351 -0.1556  0.4549
  121OSM   H13S12822   6.665   1.906   8.372  0.7413 -1.5275 -0.6417
  121OSM   H13T12823   6.825   1.974   8.371 -0.2308  0.4423 -0.7298
  121OSM   C14S12824   6.711   1.998   8.181  0.5854  0.4604  0.1460
  121OSM   H14S12825   6.784   2.072   8.142 -0.3295  1.2601 -0.0849
  121OSM   H14T12826   6.608   2.024   8.148  1.4918  2.9300 -0.9716
  121OSM   C15S12827   6.767   1.867   8.119  0.4449  0.0776  0.3297
  121OSM   H15S12828   6.702   1.788   8.162 -0.9446  0.2150 -1.4200
  121OSM   H15T12829   6.874   1.856   8.150  0.9123  0.6563 -1.0442
  121OSM   C16S12830   6.760   1.865   7.964  0.0606  0.4056  0.4734
  121OSM   H16S12831   6.828   1.949   7.940  1.0460 -0.1181  1.3086
  121OSM   H16T12832   6.657   1.884   7.928 -0.2031 -2.6571 -0.7084
  121OSM   C17S12833   6.825   1.747   7.889 -0.8746 -0.0712  0.8230
  121OSM   H17S12834   6.789   1.647   7.923  1.7910 -0.7850  1.8436
  121OSM   H17T12835   6.932   1.734   7.916 -0.0762  0.9277 -1.5852
  121OSM   C18S12836   6.809   1.743   7.737 -0.1884 -0.4508 -0.1691
  121OSM   H18S12837   6.841   1.652   7.682 -1.0630  0.1118 -1.6683
  121OSM   H18T12838   6.854   1.826   7.679 -1.5920 -0.5551 -1.4516
  121OSM   H18U12839   6.702   1.743   7.706 -0.3617 -1.4916  0.3679
  121OSM    C1F12840   6.876   1.552   9.323  0.4102  0.1610  0.5485
  121OSM     OF12841   6.786   1.555   9.398 -0.2149 -0.1531 -0.2769
  121OSM    C2F12842   6.892   1.431   9.239 -0.0936  0.1242 -0.3579
  121OSM    H2F12843   6.913   1.343   9.304  0.2012  0.8346  0.5359
  121OSM    H2G12844   6.967   1.449   9.159 -0.6352 -1.5794 -1.2842
  121OSM    C3F12845   6.765   1.378   9.164 -0.6241 -0.2215 -0.1079
  121OSM    H3F12846   6.687   1.362   9.242  0.6804 -1.4363  0.9963
  121OSM    H3G12847   6.789   1.279   9.120  0.0734  1.0451 -2.8037
  121OSM    C4F12848   6.735   1.461   9.040 -0.4430  0.0745  0.3463
  121OSM    H4F12849   6.758   1.567   9.064 -1.9352  0.6359 -0.5843
  121OSM    H4G12850   6.632   1.465   8.999  0.1497 -0.2860 -1.2618
  121OSM    C5F12851   6.823   1.427   8.922 -0.3731 -0.3862  0.2243
  121OSM    H5F12852   6.782   1.348   8.856 -1.4802  0.4052 -0.0590
  121OSM    H5G12853   6.922   1.394   8.959  0.7611 -0.8847 -2.9611
  121OSM    C6F12854   6.850   1.548   8.831 -0.2280  0.3245  0.1896
  121OSM    H6F12855   6.922   1.606   8.893  0.2596 -0.5834  0.5073
  121OSM    H6G12856   6.758   1.606   8.811 -1.2433 -0.8699  1.1687
  121OSM    C7F12857   6.902   1.496   8.695 -0.2678 -0.2636  0.0372
  121OSM    H7F12858   6.833   1.416   8.660 -0.6624  0.4116 -0.7633
  121OSM    H7G12859   7.001   1.451   8.719 -1.1026 -1.3691  1.6182
  121OSM    C8F12860   6.913   1.609   8.590  0.6024  0.2338 -0.0673
  121OSM    H8F12861   6.814   1.658   8.600  0.0633 -1.0200  0.8913
  121OSM    H8G12862   6.917   1.559   8.491 -2.2194  0.0706 -0.1815
  121OSM    C9F12863   7.027   1.704   8.604  0.3621 -0.4768  0.3102
  121OSM    H9F12864   7.039   1.752   8.702 -0.2661  0.5071 -0.0770
  121OSM   C10F12865   7.116   1.739   8.514 -0.1447  0.0132 -0.2824
  121OSM   H10F12866   7.194   1.813   8.539 -1.0557 -0.0254  3.2639
  121OSM   C11F12867   7.123   1.669   8.384 -0.0484  0.3523 -0.0265
  121OSM   H11F12868   7.025   1.678   8.333  1.4441  2.1105 -2.8956
  121OSM   H11G12869   7.154   1.563   8.393 -0.2336  0.3166  0.1802
  121OSM   C12F12870   7.216   1.736   8.279 -0.3193 -0.2974  0.1736
  121OSM   H12F12871   7.317   1.717   8.320  0.3167  1.5171 -0.4810
  121OSM   H12G12872   7.204   1.845   8.265  0.3378 -0.1019  1.0888
  121OSM   C13F12873   7.203   1.673   8.137 -0.1366 -0.1253 -0.1351
  121OSM   H13F12874   7.103   1.688   8.089 -0.4985 -2.4191 -0.2153
  121OSM   H13G12875   7.208   1.563   8.150  1.7816  0.0409  0.8529
  121OSM   C14F12876   7.312   1.710   8.035 -0.1586 -0.6765  0.5986
  121OSM   H14F12877   7.410   1.717   8.086  0.6305 -0.1185 -0.9258
  121OSM   H14G12878   7.308   1.809   7.985  2.6569  0.3419  2.2000
  121OSM   C15F12879   7.321   1.603   7.929  1.0721  0.0038  0.3478
  121OSM   H15F12880   7.239   1.605   7.854  1.0062  1.2846  0.4451
  121OSM   H15G12881   7.311   1.504   7.980  0.9843 -0.8391 -1.2535
  121OSM   C16F12882   7.452   1.609   7.856  0.0464  0.4305  0.5042
  121OSM   H16F12883   7.533   1.585   7.928 -0.9769 -0.2089  1.4765
  121OSM   H16G12884   7.465   1.710   7.812  0.1185  0.5067  0.6990
  121OSM   C17F12885   7.460   1.498   7.751  0.8891 -0.0764 -0.2542
  121OSM   H17F12886   7.548   1.507   7.684  1.1566 -0.9999 -0.0451
  121OSM   H17G12887   7.375   1.501   7.679  1.0182 -2.1327 -0.5684
  121OSM   C18F12888   7.463   1.348   7.799 -0.0429 -0.0320 -0.1902
  121OSM   H18F12889   7.496   1.281   7.717  1.2222  2.2963 -1.6965
  121OSM   H18G12890   7.371   1.307   7.846  0.7099 -2.4462 -0.6778
  121OSM   H18H12891   7.538   1.336   7.880  0.1768  0.8588 -0.2510
  122OSM      N12892   6.364   0.788  10.081  0.5372 -0.2934  0.4552
  122OSM    C1512893   6.331   0.938  10.063 -0.2727  0.1233 -0.4551
  122OSM   H15A12894   6.230   0.942  10.024 -0.7622 -2.1601  0.3885
  122OSM   H15B12895   6.404   0.992  10.005  2.1883 -2.2483  0.2553
  122OSM   H15C12896   6.330   0.984  10.160 -3.9429 -0.1600 -0.2117
  122OSM    C1412897   6.495   0.780  10.148 -0.3245 -0.5104  0.3212
  122OSM   H14A12898   6.568   0.774  10.068 -1.4949 -1.6626 -0.7210
  122OSM   H14B12899   6.503   0.689  10.206 -1.1659 -0.0464  1.1793
  122OSM   H14C12900   6.512   0.868  10.209 -0.4829  0.6631 -1.2636
  122OSM    C1312901   6.276   0.729  10.186 -0.5341 -0.3567  0.2604
  122OSM   H13A12902   6.170   0.745  10.170 -0.8205 -0.7792  1.6194
  122OSM   H13B12903   6.287   0.782  10.279 -0.6787  2.6421 -1.2892
  122OSM   H13C12904   6.284   0.622  10.192 -0.6844 -0.5711 -2.1734
  122OSM    C1212905   6.351   0.711   9.948  0.2734  0.2297  0.5726
  122OSM   H12A12906   6.248   0.689   9.925  0.6937  0.1813 -1.4657
  122OSM   H12B12907   6.393   0.611   9.956  1.0720  0.5699  0.8024
  122OSM    C1112908   6.418   0.770   9.822  0.2269  0.6475 -0.7204
  122OSM   H11A12909   6.371   0.870   9.808 -0.6431  0.3742  0.1388
  122OSM   H11B12910   6.394   0.707   9.734 -1.1789 -0.0897  0.1479
  122OSM      P12911   6.657   0.665   9.846 -0.0549  0.0333  0.3866
  122OSM    O1312912   6.789   0.707   9.899 -0.1302  0.0338  0.5227
  122OSM    O1412913   6.598   0.551   9.916 -0.3222  0.0243  0.5555
  122OSM    O1112914   6.674   0.627   9.692  0.6261 -0.2144  0.3212
  122OSM    O1212915   6.556   0.787   9.843 -0.1025  0.5422  0.4526
  122OSM    C1S12916   6.805   0.587   9.651 -0.2017  0.8800  0.2787
  122OSM    H1S12917   6.821   0.482   9.685  0.8258  0.6923 -0.7166
  122OSM    H1T12918   6.889   0.638   9.701 -1.3006  0.5114  2.6328
  122OSM     NF12919   6.957   0.519   9.458  0.2659  0.1774  0.2957
  122OSM    HNF12920   7.036   0.570   9.424  0.8378 -1.5131 -1.0863
  122OSM    C2S12921   6.828   0.573   9.489  0.3355 -0.0270  0.3087
  122OSM    H2S12922   6.749   0.507   9.449 -1.4722  1.3560  1.4463
  122OSM    C3S12923   6.811   0.708   9.418  0.5263 -0.0664  0.4150
  122OSM    H3S12924   6.895   0.775   9.446 -1.0982  2.3826 -0.2425
  122OSM     O312925   6.696   0.790   9.440  0.0983  0.3463  0.1744
  122OSM    HO312926   6.661   0.742   9.515  2.0042 -0.6252  0.5029
  122OSM    C4S12927   6.809   0.676   9.274 -0.2506 -0.2249 -0.1186
  122OSM    H4S12928   6.723   0.616   9.242 -0.1553 -0.6836  0.4782
  122OSM    C5S12929   6.897   0.727   9.173 -0.2998  0.0476  0.4884
  122OSM    H5S12930   6.974   0.801   9.199 -0.8899  1.1489 -0.7567
  122OSM    C6S12931   6.868   0.688   9.029 -0.0111  0.0978 -0.0192
  122OSM    H6S12932   6.910   0.587   9.011  1.1515  0.6664 -0.5650
  122OSM    H6T12933   6.925   0.755   8.961  1.0060 -2.1569 -1.4849
  122OSM    C7S12934   6.721   0.696   8.985  0.2822 -0.2280 -0.2835
  122OSM    H7S12935   6.689   0.802   8.985 -1.3129 -0.6680 -1.2156
  122OSM    H7T12936   6.656   0.632   9.050  0.7768 -1.5963 -1.0903
  122OSM    C8S12937   6.698   0.631   8.846  0.0356 -0.6516 -0.2500
  122OSM    H8S12938   6.587   0.620   8.836 -0.2029  2.1323 -1.8675
  122OSM    H8T12939   6.740   0.529   8.845  0.9359 -0.2860 -0.2192
  122OSM    C9S12940   6.768   0.718   8.741  0.0590  0.6937 -0.0305
  122OSM    H9S12941   6.875   0.689   8.739 -0.1573 -1.2168  4.4537
  122OSM    H9T12942   6.765   0.819   8.786 -0.5202  0.4924  0.4014
  122OSM   C10S12943   6.709   0.709   8.602  0.3013  0.1764 -0.0088
  122OSM   H10S12944   6.761   0.790   8.547  0.4217  0.0296 -0.1125
  122OSM   H10T12945   6.598   0.716   8.605  0.2969  0.1367 -0.1006
  122OSM   C11S12946   6.740   0.581   8.537  0.4234  0.2291 -0.3289
  122OSM   H11S12947   6.664   0.508   8.572  0.8938  0.4702  1.2827
  122OSM   H11T12948   6.840   0.549   8.573  0.4939  0.2047 -0.5441
  122OSM   C12S12949   6.742   0.597   8.382 -0.0120 -0.6012  0.0925
  122OSM   H12S12950   6.788   0.502   8.347  0.4646 -0.0743 -0.7501
  122OSM   H12T12951   6.811   0.676   8.343  0.5397 -2.2400 -2.4857
  122OSM   C13S12952   6.599   0.613   8.332  0.8515  0.0417  0.6730
  122OSM   H13S12953   6.549   0.697   8.385  0.1414  1.2118 -1.7232
  122OSM   H13T12954   6.540   0.522   8.357  0.4379  0.2979  0.6226
  122OSM   C14S12955   6.592   0.609   8.176 -0.6220 -0.1719  0.2969
  122OSM   H14S12956   6.634   0.513   8.140 -0.2237  0.2908 -0.5081
  122OSM   H14T12957   6.653   0.696   8.141  0.1555 -2.0951 -3.6635
  122OSM   C15S12958   6.450   0.636   8.113 -0.4979  0.2767 -0.1719
  122OSM   H15S12959   6.404   0.724   8.163  0.1055  0.7155 -0.3772
  122OSM   H15T12960   6.381   0.549   8.115  0.3537 -0.4223 -0.3723
  122OSM   C16S12961   6.463   0.669   7.965  1.0046 -0.6171  0.3816
  122OSM   H16S12962   6.514   0.593   7.902 -0.3892 -0.1199 -1.4249
  122OSM   H16T12963   6.533   0.755   7.954 -1.5623  1.5570 -0.0346
  122OSM   C17S12964   6.330   0.698   7.890  0.2746  0.3485  0.3548
  122OSM   H17S12965   6.362   0.748   7.796 -0.0489 -0.5421 -0.2425
  122OSM   H17T12966   6.265   0.761   7.954  1.5841  0.5806  1.5290
  122OSM   C18S12967   6.241   0.572   7.860 -0.7635  0.2612  0.3208
  122OSM   H18S12968   6.303   0.494   7.813  1.0038  1.4662  0.5596
  122OSM   H18T12969   6.159   0.595   7.789  0.1019  2.5918  0.0102
  122OSM   H18U12970   6.191   0.524   7.948 -0.5463 -1.1807 -0.3108
  122OSM    C1F12971   6.983   0.390   9.481  0.2025  0.0689  0.1221
  122OSM     OF12972   6.894   0.312   9.511 -0.2988 -0.0085  0.2682
  122OSM    C2F12973   7.123   0.347   9.454  0.1060 -0.8790  0.0841
  122OSM    H2F12974   7.184   0.386   9.538 -1.7741  2.1424  0.1989
  122OSM    H2G12975   7.166   0.397   9.364 -0.6748 -0.4709 -0.0671
  122OSM    C3F12976   7.134   0.196   9.459 -0.3647  0.2896 -0.5913
  122OSM    H3F12977   7.070   0.138   9.390  3.6669 -3.1780 -1.8771
  122OSM    H3G12978   7.133   0.179   9.569  4.0228  2.1538 -0.0499
  122OSM    C4F12979   7.278   0.148   9.429  0.8151 -0.6443  0.0411
  122OSM    H4F12980   7.351   0.214   9.481 -0.0578  0.3000  0.1066
  122OSM    H4G12981   7.320   0.156   9.327 -1.2887  1.6357 -0.7602
  122OSM    C5F12982   7.318   0.010   9.486  0.0345 -0.0092  0.4068
  122OSM    H5F12983   7.274  -0.079   9.437  0.9397  0.5811 -1.5566
  122OSM    H5G12984   7.291   0.009   9.594  1.4320  0.0364  0.7774
  122OSM    C6F12985   7.465  -0.012   9.469 -0.3354  0.2947  0.3460
  122OSM    H6F12986   7.520   0.058   9.536 -0.1868  0.4921  0.0200
  122OSM    H6G12987   7.505   0.016   9.369 -0.7008 -0.3707  0.0060
  122OSM    C7F12988   7.517  -0.158   9.497  0.7771  0.0413  0.1894
  122OSM    H7F12989   7.434  -0.227   9.473  1.0613 -0.9634  1.9638
  122OSM    H7G12990   7.547  -0.173   9.603 -0.1202 -2.6066  0.1170
  122OSM    C8F12991   7.640  -0.200   9.411 -0.1830 -0.4917  0.2521
  122OSM    H8F12992   7.617  -0.204   9.303  2.5109  1.9061 -0.5123
  122OSM    H8G12993   7.674  -0.301   9.445  3.8625 -0.3576 -2.7316
  122OSM    C9F12994   7.750  -0.098   9.432 -0.7029  0.6977  0.2311
  122OSM    H9F12995   7.796  -0.110   9.531 -2.6337 -1.2060  0.9751
  122OSM   C10F12996   7.792  -0.015   9.333 -0.0570  0.3592 -0.1593
  122OSM   H10F12997   7.868   0.063   9.351 -0.7896  1.0892 -0.1668
  122OSM   C11F12998   7.750   0.011   9.189  0.4841  0.2551  0.7180
  122OSM   H11F12999   7.734   0.120   9.175 -2.3985 -0.4471 -3.5819
  122OSM   H11G13000   7.648  -0.034   9.185  0.8607 -0.5659 -0.0758
  122OSM   C12F13001   7.831  -0.056   9.076 -0.7346  0.2025  0.4569
  122OSM   H12F13002   7.841  -0.166   9.086  1.6333  0.0019 -2.6940
  122OSM   H12G13003   7.938  -0.030   9.091  0.0181 -2.7624  0.7882
  122OSM   C13F13004   7.799  -0.003   8.937 -0.5942 -0.1111  0.2490
  122OSM   H13F13005   7.872  -0.052   8.869  0.0398  0.5397  0.4511
  122OSM   H13G13006   7.825   0.105   8.936  1.1483 -0.4876  1.1769
  122OSM   C14F13007   7.655  -0.035   8.889  0.4473  0.3162 -1.2644
  122OSM   H14F13008   7.578   0.028   8.939  1.0837 -0.2018  0.4117
  122OSM   H14G13009   7.650  -0.139   8.926 -1.0478  1.8532  3.5763
  122OSM   C15F13010   7.642  -0.025   8.736  0.3069  0.7404  0.2992
  122OSM   H15F13011   7.659  -0.125   8.693  0.7107  1.5666 -1.5476
  122OSM   H15G13012   7.727   0.037   8.701  3.1543 -2.4849  0.9821
  122OSM   C16F13013   7.507   0.036   8.694 -0.0638 -0.0249  0.5373
  122OSM   H16F13014   7.476   0.112   8.769 -0.1394  2.1643 -1.5953
  122OSM   H16G13015   7.433  -0.046   8.688  1.6642 -1.4923 -2.5878
  122OSM   C17F13016   7.516   0.103   8.560  0.2215  0.3034  0.1373
  122OSM   H17F13017   7.562   0.029   8.491  0.7889  0.8008 -0.0225
  122OSM   H17G13018   7.587   0.188   8.572  1.3095 -0.5484 -0.2120
  122OSM   C18F13019   7.390   0.165   8.493  0.2945 -0.5593  0.0141
  122OSM   H18F13020   7.356   0.258   8.543 -1.2137 -1.4252  0.6709
  122OSM   H18G13021   7.314   0.084   8.484  1.4556 -1.6685 -0.2289
  122OSM   H18H13022   7.413   0.178   8.386 -0.3257 -0.3338 -0.0951
  123OSM      N13023   2.639   4.647   5.628 -0.1954 -0.6163  0.4185
  123OSM    C1513024   2.521   4.725   5.587  0.1027 -0.0842 -0.7906
  123OSM   H15A13025   2.529   4.737   5.480 -3.2079 -0.2479 -1.1497
  123OSM   H15B13026   2.512   4.822   5.633 -0.2672 -0.4640 -0.0644
  123OSM   H15C13027   2.439   4.657   5.602 -0.0952  0.1075 -0.9958
  123OSM    C1413028   2.685   4.555   5.519  0.2635 -0.2254 -0.1799
  123OSM   H14A13029   2.622   4.468   5.503  0.8332 -0.8577  0.9133
  123OSM   H14B13030   2.785   4.520   5.539 -0.2923 -2.0504 -0.4426
  123OSM   H14C13031   2.680   4.608   5.424 -2.7638  0.9162  0.4837
  123OSM    C1313032   2.752   4.743   5.673  0.1666  0.5874 -0.3441
  123OSM   H13A13033   2.724   4.821   5.743  0.4310  0.4450 -0.0760
  123OSM   H13B13034   2.810   4.779   5.590 -0.9782 -0.5660 -1.6915
  123OSM   H13C13035   2.821   4.676   5.723 -0.4085 -0.3355 -0.7622
  123OSM    C1213036   2.609   4.572   5.756 -0.1103 -0.8014  0.5970
  123OSM   H12A13037   2.544   4.488   5.737  1.9625 -2.4036  0.2503
  123OSM   H12B13038   2.568   4.644   5.826  0.8366 -0.3858  0.7390
  123OSM    C1113039   2.731   4.521   5.838  0.0745  0.7011  0.0118
  123OSM   H11A13040   2.690   4.470   5.927  1.6251  0.2707  0.5152
  123OSM   H11B13041   2.789   4.607   5.880  1.6927  0.2412 -1.1644
  123OSM      P13042   2.959   4.412   5.778 -0.3559 -0.4278 -0.3465
  123OSM    O1313043   3.004   4.329   5.668 -0.0809  0.2707  0.1955
  123OSM    O1413044   3.022   4.543   5.786 -0.2200  0.1725  0.1894
  123OSM    O1113045   2.984   4.334   5.914 -0.0131  0.1333  0.3229
  123OSM    O1213046   2.802   4.426   5.764  0.2052  0.5546  0.2232
  123OSM    C1S13047   2.921   4.208   5.937 -0.6728 -0.0720  0.2895
  123OSM    H1S13048   2.997   4.135   5.901 -0.3534 -0.0914  0.9892
  123OSM    H1T13049   2.831   4.185   5.876  0.0302 -0.4542 -0.6205
  123OSM     NF13050   2.807   4.053   6.104  0.3664  0.1065  0.6821
  123OSM    HNF13051   2.710   4.077   6.104  0.4168  0.3511 -0.6340
  123OSM    C2S13052   2.895   4.171   6.089 -0.3548 -0.2623 -0.0368
  123OSM    H2S13053   2.993   4.139   6.131 -0.1743  1.9568  1.3851
  123OSM    C3S13054   2.852   4.297   6.175  0.0168  0.2863 -0.0564
  123OSM    H3S13055   2.748   4.320   6.143 -0.3794  0.0484  1.0376
  123OSM     O313056   2.923   4.416   6.148  0.0529  0.2709  1.0068
  123OSM    HO313057   2.954   4.390   6.060 -0.8062  0.0834  0.7494
  123OSM    C4S13058   2.848   4.269   6.321  0.2702  0.4450  0.0674
  123OSM    H4S13059   2.752   4.228   6.356  0.5816 -1.4694 -1.1902
  123OSM    C5S13060   2.952   4.256   6.403  0.3653 -0.2373  0.1829
  123OSM    H5S13061   3.050   4.266   6.353  0.2145  1.1984  0.1374
  123OSM    C6S13062   2.956   4.219   6.549 -0.6126 -0.5395 -0.1058
  123OSM    H6S13063   3.020   4.131   6.570 -0.0178 -0.1427 -0.2280
  123OSM    H6T13064   2.855   4.214   6.594 -0.5587  1.5809  0.3576
  123OSM    C7S13065   3.036   4.330   6.611  0.0664 -0.0799 -0.3621
  123OSM    H7S13066   3.012   4.436   6.585 -2.2800  0.3007  2.7479
  123OSM    H7T13067   3.142   4.298   6.602 -0.7167 -3.2476  0.7143
  123OSM    C8S13068   3.014   4.345   6.764  0.1502 -0.4516 -0.2801
  123OSM    H8S13069   2.909   4.328   6.794 -0.2441 -1.3816 -2.0279
  123OSM    H8T13070   3.039   4.452   6.784  1.7365 -0.3507 -2.4458
  123OSM    C9S13071   3.115   4.257   6.844  0.2668  0.0367  0.1274
  123OSM    H9S13072   3.217   4.257   6.801  0.4704  0.9408  0.5893
  123OSM    H9T13073   3.079   4.152   6.840 -1.2729  0.5240  0.5331
  123OSM   C10S13074   3.101   4.309   6.987  0.8734 -0.4475  0.1087
  123OSM   H10S13075   2.996   4.326   7.019  0.7626  1.4854 -1.1749
  123OSM   H10T13076   3.159   4.403   6.987 -0.6699  0.5414 -0.1950
  123OSM   C11S13077   3.172   4.221   7.093 -0.4689 -0.6886  0.3960
  123OSM   H11S13078   3.273   4.206   7.050 -0.0685  0.4651  0.8803
  123OSM   H11T13079   3.114   4.128   7.111 -1.6422 -0.6538 -2.7073
  123OSM   C12S13080   3.183   4.284   7.240 -0.4079 -0.1595 -0.0217
  123OSM   H12S13081   3.080   4.320   7.262  0.0358  0.0828  1.8588
  123OSM   H12T13082   3.255   4.369   7.237 -1.6508  0.9311  0.0593
  123OSM   C13S13083   3.237   4.185   7.340  0.1537 -0.1869  0.2823
  123OSM   H13S13084   3.339   4.151   7.312  0.7812  0.2074  1.9711
  123OSM   H13T13085   3.169   4.099   7.326 -0.6483  0.3512  0.7947
  123OSM   C14S13086   3.248   4.228   7.491  0.1102 -0.2984 -0.4108
  123OSM   H14S13087   3.150   4.239   7.543  1.5159 -1.1103  2.6864
  123OSM   H14T13088   3.300   4.327   7.491  2.3196 -1.2891  2.3601
  123OSM   C15S13089   3.338   4.139   7.568  0.7011 -0.1036  0.2437
  123OSM   H15S13090   3.424   4.111   7.503 -0.5910 -0.4798 -1.3662
  123OSM   H15T13091   3.298   4.039   7.595  2.0038 -0.8274 -0.4252
  123OSM   C16S13092   3.399   4.197   7.698 -0.6405  0.2400  0.2846
  123OSM   H16S13093   3.466   4.281   7.668  0.9291 -1.1375 -0.2217
  123OSM   H16T13094   3.467   4.115   7.730 -0.1046 -0.3956 -2.2555
  123OSM   C17S13095   3.312   4.247   7.811  0.2203 -0.7296  0.0419
  123OSM   H17S13096   3.264   4.339   7.770  3.2389  1.0246  0.1990
  123OSM   H17T13097   3.377   4.288   7.891  0.8081 -0.8180 -0.3821
  123OSM   C18S13098   3.209   4.149   7.853 -0.1749  0.4312 -0.5325
  123OSM   H18S13099   3.139   4.127   7.769  2.2153 -0.1688 -2.4836
  123OSM   H18T13100   3.146   4.192   7.934  0.2319  0.2612 -0.1199
  123OSM   H18U13101   3.258   4.054   7.883  1.2003  1.0117 -0.8506
  123OSM    C1F13102   2.861   3.930   6.091  0.6098 -0.7627 -0.5931
  123OSM     OF13103   2.970   3.922   6.036 -0.9765 -0.0309 -0.1146
  123OSM    C2F13104   2.775   3.807   6.125  0.6189 -0.0166 -0.0258
  123OSM    H2F13105   2.851   3.729   6.146 -2.7131 -4.3104 -2.3900
  123OSM    H2G13106   2.723   3.778   6.032  0.8906  0.4823 -0.3380
  123OSM    C3F13107   2.676   3.830   6.236 -0.0463 -0.4204 -0.3139
  123OSM    H3F13108   2.626   3.734   6.262  0.3770 -0.7443 -0.6790
  123OSM    H3G13109   2.604   3.912   6.215  1.6023  1.6082  1.5207
  123OSM    C4F13110   2.746   3.885   6.368  0.1502  0.8173 -0.6096
  123OSM    H4F13111   2.772   3.991   6.350 -0.9719  1.3670  0.8250
  123OSM    H4G13112   2.841   3.829   6.376 -0.9419 -0.8275  3.3805
  123OSM    C5F13113   2.652   3.864   6.482 -0.1568 -0.0837  0.0544
  123OSM    H5F13114   2.619   3.758   6.477 -0.3927  0.0138 -0.4751
  123OSM    H5G13115   2.562   3.924   6.456 -0.1607  0.1051  0.4858
  123OSM    C6F13116   2.708   3.914   6.612  0.0815 -0.6358  0.5650
  123OSM    H6F13117   2.729   4.023   6.600  0.6634 -0.7358  0.6599
  123OSM    H6G13118   2.804   3.862   6.630  0.7041  0.0354 -0.6923
  123OSM    C7F13119   2.606   3.872   6.727  0.2661  0.0962  0.2315
  123OSM    H7F13120   2.605   3.761   6.721  0.5369  0.1129 -0.1495
  123OSM    H7G13121   2.511   3.925   6.704 -0.3531 -0.1880  1.9747
  123OSM    C8F13122   2.647   3.916   6.866 -0.1491  0.3636 -0.5505
  123OSM    H8F13123   2.662   4.027   6.869 -0.3029  0.3921 -0.8036
  123OSM    H8G13124   2.737   3.861   6.899  1.5406  3.0226 -0.3959
  123OSM    C9F13125   2.533   3.899   6.953  0.2471  0.7120  0.1723
  123OSM    H9F13126   2.450   3.970   6.947 -0.7516 -0.4470 -0.0096
  123OSM   C10F13127   2.531   3.807   7.045 -0.2675  0.6397  0.3059
  123OSM   H10F13128   2.440   3.816   7.106  0.0250 -0.1875  0.8837
  123OSM   C11F13129   2.617   3.692   7.087  0.0966 -0.0084  0.1257
  123OSM   H11F13130   2.702   3.657   7.024 -1.0719 -0.4087 -1.2883
  123OSM   H11G13131   2.548   3.606   7.105 -1.7723  1.2311 -0.8873
  123OSM   C12F13132   2.692   3.712   7.222 -0.3640 -0.5887  0.6187
  123OSM   H12F13133   2.761   3.626   7.239  1.4925  0.1128 -2.5311
  123OSM   H12G13134   2.624   3.724   7.309  0.2347 -0.7433  1.1234
  123OSM   C13F13135   2.793   3.830   7.224 -0.1788  0.0263  0.0141
  123OSM   H13F13136   2.742   3.920   7.184 -0.7533 -0.8097 -1.1891
  123OSM   H13G13137   2.861   3.805   7.140  0.7792  0.3873  0.6667
  123OSM   C14F13138   2.854   3.840   7.364 -0.5366 -0.5609 -0.1504
  123OSM   H14F13139   2.948   3.898   7.347 -0.0366 -1.1129  0.6346
  123OSM   H14G13140   2.897   3.742   7.395 -1.6376 -0.5555  1.4785
  123OSM   C15F13141   2.775   3.907   7.472  0.6892 -0.4021  0.3382
  123OSM   H15F13142   2.688   3.956   7.424 -0.3532 -2.6315 -0.1601
  123OSM   H15G13143   2.832   3.981   7.533  0.6169  0.1410 -0.2424
  123OSM   C16F13144   2.721   3.813   7.584 -0.0002 -0.6355 -0.1845
  123OSM   H16F13145   2.809   3.782   7.644  2.7057  2.8761 -1.9815
  123OSM   H16G13146   2.668   3.724   7.541 -1.5597 -0.1370  0.6450
  123OSM   C17F13147   2.613   3.869   7.685 -0.7314 -0.2727  1.0329
  123OSM   H17F13148   2.673   3.923   7.761  1.1100  1.3870 -1.4622
  123OSM   H17G13149   2.564   3.777   7.723 -2.5019 -0.8045 -2.2201
  123OSM   C18F13150   2.510   3.968   7.620  0.3732  0.3920  0.2431
  123OSM   H18F13151   2.558   4.058   7.577 -0.4997  0.0684 -1.4850
  123OSM   H18G13152   2.435   3.994   7.698 -1.5482 -0.3798 -1.2644
  123OSM   H18H13153   2.463   3.910   7.538  0.4949  1.4909 -0.6233
  124OSM      N13154   5.574   2.896   5.137 -0.0922  1.0641 -0.7735
  124OSM    C1513155   5.694   2.868   5.054 -0.6707 -0.4005  0.8519
  124OSM   H15A13156   5.783   2.925   5.076 -0.9601  0.9343 -1.1593
  124OSM   H15B13157   5.679   2.886   4.949 -0.9438 -2.4958  0.4884
  124OSM   H15C13158   5.709   2.761   5.055  0.6055 -0.2493 -0.0527
  124OSM    C1413159   5.536   3.038   5.118 -0.4963  0.9955  0.2976
  124OSM   H14A13160   5.516   3.056   5.013 -1.6639 -0.2709  0.2792
  124OSM   H14B13161   5.621   3.100   5.143 -2.2169  3.2313  1.0178
  124OSM   H14C13162   5.446   3.067   5.170 -1.6872 -1.3096 -0.3459
  124OSM    C1313163   5.460   2.816   5.085  0.2325 -0.6488 -0.6571
  124OSM   H13A13164   5.377   2.800   5.153  1.5914 -1.5076  0.8741
  124OSM   H13B13165   5.496   2.717   5.061 -0.5366 -2.0078  3.1054
  124OSM   H13C13166   5.422   2.863   4.996  1.2709  1.7882  0.1307
  124OSM    C1213167   5.612   2.857   5.279 -1.4025 -0.2465  0.6821
  124OSM   H12A13168   5.710   2.895   5.303 -1.0836 -0.4771 -0.2454
  124OSM   H12B13169   5.621   2.750   5.284 -2.4693 -0.4253 -0.6546
  124OSM    C1113170   5.524   2.911   5.396 -0.1584 -0.3906 -0.0941
  124OSM   H11A13171   5.520   3.022   5.395  1.0757 -0.3320 -0.5071
  124OSM   H11B13172   5.573   2.889   5.493 -0.1434 -0.9574 -0.2217
  124OSM      P13173   5.365   2.710   5.429  0.1989  0.3148 -0.0689
  124OSM    O1313174   5.225   2.679   5.404 -0.2742  0.6529  0.1949
  124OSM    O1413175   5.460   2.612   5.365  0.4520 -0.6532  0.0197
  124OSM    O1113176   5.373   2.717   5.582 -0.4271 -0.3599 -0.1980
  124OSM    O1213177   5.393   2.861   5.386  0.0032  0.2182  0.0663
  124OSM    C1S13178   5.296   2.818   5.646  0.1486 -0.0723  0.0644
  124OSM    H1S13179   5.190   2.785   5.648  0.6037 -1.5644  1.3476
  124OSM    H1T13180   5.321   2.920   5.610 -2.0089  0.5899  0.2966
  124OSM     NF13181   5.254   2.917   5.861 -0.2622 -0.3123  0.0936
  124OSM    HNF13182   5.281   3.013   5.862 -0.4914 -0.2154 -1.3623
  124OSM    C2S13183   5.350   2.832   5.793 -0.1810  0.3991  0.0835
  124OSM    H2S13184   5.351   2.734   5.845 -2.8190  1.7046  2.9724
  124OSM    C3S13185   5.498   2.890   5.796  0.2597 -0.6306  0.1685
  124OSM    H3S13186   5.509   2.987   5.742  1.0721 -1.1992 -0.7251
  124OSM     O313187   5.582   2.799   5.722  0.0428  0.4229  0.0922
  124OSM    HO313188   5.522   2.734   5.684 -0.0871  0.7341 -0.2472
  124OSM    C4S13189   5.536   2.911   5.943  0.4380  0.4103 -0.0934
  124OSM    H4S13190   5.523   3.014   5.982  2.2895  1.1522 -1.2821
  124OSM    C5S13191   5.566   2.803   6.028  0.3701 -0.1615 -0.9178
  124OSM    H5S13192   5.560   2.698   5.998 -0.7396 -0.3963  0.0257
  124OSM    C6S13193   5.602   2.829   6.177 -0.6913 -0.2448  0.7455
  124OSM    H6S13194   5.543   2.913   6.221  0.8988 -0.4842  3.5133
  124OSM    H6T13195   5.711   2.846   6.184 -0.7119 -0.2671  1.1280
  124OSM    C7S13196   5.581   2.701   6.259 -0.4173 -0.0876  1.2419
  124OSM    H7S13197   5.638   2.621   6.207 -1.0607  0.0952  0.2288
  124OSM    H7T13198   5.474   2.674   6.249  0.1130 -1.4491 -1.7846
  124OSM    C8S13199   5.633   2.728   6.406  0.2222  0.1637 -0.3791
  124OSM    H8S13200   5.585   2.821   6.442  1.2248  1.3221 -1.9468
  124OSM    H8T13201   5.742   2.746   6.398  0.0696  1.2946  0.0152
  124OSM    C9S13202   5.605   2.614   6.501 -0.0077  0.1306 -0.3951
  124OSM    H9S13203   5.644   2.522   6.452  0.0610  0.2304 -0.5257
  124OSM    H9T13204   5.495   2.601   6.514 -0.0759 -0.2866 -1.3269
  124OSM   C10S13205   5.678   2.634   6.640 -0.1092  0.0911  0.2773
  124OSM   H10S13206   5.636   2.732   6.672 -1.0507  0.1212 -0.9569
  124OSM   H10T13207   5.787   2.637   6.621 -0.1193  1.3041  0.3085
  124OSM   C11S13208   5.646   2.534   6.740  0.0536  0.0490  0.5200
  124OSM   H11S13209   5.663   2.441   6.681  0.0070  1.1375 -1.2818
  124OSM   H11T13210   5.540   2.532   6.774  0.1406  1.0728  0.8548
  124OSM   C12S13211   5.740   2.536   6.863 -0.1547 -0.0067  0.0873
  124OSM   H12S13212   5.850   2.535   6.849 -0.0017  3.1155  0.3820
  124OSM   H12T13213   5.701   2.444   6.913 -3.4290  0.4307 -1.3869
  124OSM   C13S13214   5.706   2.652   6.970  0.1990  0.2633 -0.4011
  124OSM   H13S13215   5.596   2.664   6.980  0.2558 -0.8345  2.7554
  124OSM   H13T13216   5.736   2.748   6.923 -0.5130 -0.5121 -2.5766
  124OSM   C14S13217   5.764   2.629   7.107 -0.5464 -0.0863 -0.2462
  124OSM   H14S13218   5.737   2.709   7.178  1.1408 -0.9013  1.3907
  124OSM   H14T13219   5.873   2.615   7.092 -0.8470 -0.7102 -2.2855
  124OSM   C15S13220   5.717   2.500   7.175  0.0680  0.1138 -0.1849
  124OSM   H15S13221   5.755   2.424   7.104  1.5216 -1.5998  2.2816
  124OSM   H15T13222   5.607   2.488   7.178  0.0759  0.1568  2.6315
  124OSM   C16S13223   5.768   2.460   7.315 -0.1628 -0.9289 -0.3774
  124OSM   H16S13224   5.709   2.518   7.389  0.7110  0.2189 -0.5555
  124OSM   H16T13225   5.873   2.496   7.314 -0.5858  0.3871 -0.1355
  124OSM   C17S13226   5.756   2.317   7.344 -0.8089 -0.3777  0.0017
  124OSM   H17S13227   5.794   2.261   7.256 -0.4313  1.1870 -0.8544
  124OSM   H17T13228   5.649   2.288   7.349 -0.0067 -3.7112  0.6110
  124OSM   C18S13229   5.838   2.275   7.471  0.9367 -0.1022 -0.1822
  124OSM   H18S13230   5.784   2.326   7.554 -1.5700 -0.7598 -1.3023
  124OSM   H18T13231   5.942   2.311   7.457  0.9223 -0.6897 -2.0593
  124OSM   H18U13232   5.830   2.169   7.501  2.0161  0.3507  1.8963
  124OSM    C1F13233   5.125   2.891   5.888  0.1596 -0.1651  0.4003
  124OSM     OF13234   5.095   2.770   5.897 -0.3170 -0.1520 -0.4870
  124OSM    C2F13235   5.027   3.001   5.904 -0.2842 -0.3731  0.2198
  124OSM    H2F13236   4.993   3.044   5.807  0.8502  2.5948  1.0082
  124OSM    H2G13237   5.092   3.084   5.939  1.2051 -1.1395 -0.6439
  124OSM    C3F13238   4.908   2.957   5.989 -0.1132 -0.0268  0.0586
  124OSM    H3F13239   4.864   2.863   5.948  1.0591 -0.1124 -1.0585
  124OSM    H3G13240   4.832   3.036   5.975 -1.0492 -0.7779  0.7719
  124OSM    C4F13241   4.949   2.948   6.136  0.0414 -0.0531  0.5565
  124OSM    H4F13242   5.001   3.043   6.160  3.2238 -1.3600 -0.6603
  124OSM    H4G13243   5.034   2.877   6.141  0.3446  0.3920  2.6068
  124OSM    C5F13244   4.842   2.902   6.241 -0.3140  0.4548 -0.0368
  124OSM    H5F13245   4.809   2.801   6.209  2.2669 -2.1087  4.3308
  124OSM    H5G13246   4.745   2.957   6.238  0.0822  1.1788  0.3174
  124OSM    C6F13247   4.895   2.890   6.387  0.0591 -0.0337  0.8168
  124OSM    H6F13248   4.934   2.984   6.431  1.4651 -0.6682  0.9691
  124OSM    H6G13249   4.976   2.814   6.388  0.7861  0.5474 -2.5041
  124OSM    C7F13250   4.784   2.847   6.489 -0.3150 -0.5925  0.4759
  124OSM    H7F13251   4.747   2.750   6.451  2.7333 -0.9776 -1.9660
  124OSM    H7G13252   4.699   2.919   6.479 -1.4707 -2.1244 -1.4733
  124OSM    C8F13253   4.835   2.835   6.631  0.3554 -0.4392 -0.3411
  124OSM    H8F13254   4.892   2.928   6.651 -1.0969  0.1818  1.1045
  124OSM    H8G13255   4.912   2.755   6.642 -0.4681 -1.1653  0.3214
  124OSM    C9F13256   4.713   2.807   6.722 -0.5913 -1.0667  0.2230
  124OSM    H9F13257   4.614   2.791   6.678 -1.2706  1.5344  0.6231
  124OSM   C10F13258   4.712   2.796   6.857 -0.0727 -0.5690  0.1232
  124OSM   H10F13259   4.612   2.782   6.901  0.1379  2.6603  1.9124
  124OSM   C11F13260   4.836   2.796   6.943  0.6738  0.3342 -0.4443
  124OSM   H11F13261   4.802   2.855   7.031 -0.8312 -1.3344  0.1598
  124OSM   H11G13262   4.921   2.838   6.885  1.5153 -0.1763  0.3989
  124OSM   C12F13263   4.876   2.660   7.007 -0.2301  0.1321 -0.6832
  124OSM   H12F13264   4.963   2.627   6.945 -0.3883  0.6159 -1.1754
  124OSM   H12G13265   4.794   2.587   6.990  0.6834 -0.8199 -1.1304
  124OSM   C13F13266   4.917   2.669   7.156  0.0944  0.0761 -0.0194
  124OSM   H13F13267   4.828   2.710   7.208  1.1043  0.8808  1.1521
  124OSM   H13G13268   5.002   2.738   7.171  0.5846 -0.6500  0.6597
  124OSM   C14F13269   4.953   2.545   7.237 -0.6025 -0.3144  0.1034
  124OSM   H14F13270   5.037   2.550   7.310  1.4706 -4.8535 -1.6003
  124OSM   H14G13271   5.003   2.480   7.162 -3.6624 -2.6245 -0.0934
  124OSM   C15F13272   4.828   2.487   7.306 -0.1497 -0.9588  0.5436
  124OSM   H15F13273   4.743   2.470   7.237 -2.1949  0.8980  2.4201
  124OSM   H15G13274   4.783   2.552   7.384  0.7634 -0.3709  0.6013
  124OSM   C16F13275   4.843   2.355   7.384 -0.5777 -0.2261  0.3295
  124OSM   H16F13276   4.878   2.287   7.303  2.9218  1.4473  0.2320
  124OSM   H16G13277   4.746   2.316   7.420 -0.5887  0.9597  1.6724
  124OSM   C17F13278   4.939   2.359   7.506 -0.3692  0.4211  0.3397
  124OSM   H17F13279   4.907   2.457   7.547 -1.6982  1.9962 -3.9247
  124OSM   H17G13280   5.043   2.374   7.471 -1.4518 -0.3600 -3.6592
  124OSM   C18F13281   4.922   2.252   7.610 -0.7068  0.4406  0.3349
  124OSM   H18F13282   4.922   2.152   7.561  0.3405  0.9204 -0.7123
  124OSM   H18G13283   4.825   2.259   7.664 -0.2606 -0.9820  1.3759
  124OSM   H18H13284   5.007   2.256   7.681  1.0545 -1.4921 -1.5230
  125OSM      N13285   5.589   3.922   5.590  0.8997 -0.1422 -0.9148
  125OSM    C1513286   5.509   3.992   5.485 -0.4656  0.5160 -0.1066
  125OSM   H15A13287   5.442   3.925   5.434  1.0154  0.3578 -1.9954
  125OSM   H15B13288   5.576   4.038   5.413 -1.0840  1.7916  0.1120
  125OSM   H15C13289   5.453   4.072   5.529 -0.5922  1.1335 -1.3481
  125OSM    C1413290   5.671   3.823   5.529  0.0118  0.5916  0.1204
  125OSM   H14A13291   5.744   3.872   5.467 -1.6244  0.7796 -1.7778
  125OSM   H14B13292   5.607   3.768   5.461  0.0193  1.4473 -0.5912
  125OSM   H14C13293   5.718   3.752   5.595 -0.6535  0.6806  0.7111
  125OSM    C1313294   5.678   4.015   5.662 -0.3032  0.6683 -0.7201
  125OSM   H13A13295   5.616   4.089   5.711 -0.7861 -2.2399  3.7305
  125OSM   H13B13296   5.753   4.059   5.598  1.8062 -1.0236  0.4410
  125OSM   H13C13297   5.727   3.956   5.738 -1.0452  1.1159  0.1357
  125OSM    C1213298   5.482   3.853   5.685  0.5118 -0.0668 -0.0107
  125OSM   H12A13299   5.537   3.794   5.757  0.7131  0.7081  0.4781
  125OSM   H12B13300   5.415   3.793   5.625  1.0787 -1.5759  0.8133
  125OSM    C1113301   5.398   3.930   5.786  0.4094 -0.4330  0.7743
  125OSM   H11A13302   5.342   3.853   5.843 -1.6813 -1.0619 -1.9218
  125OSM   H11B13303   5.323   3.987   5.727 -0.6276 -2.3550  0.1828
  125OSM      P13304   5.555   3.970   5.990 -0.3387 -0.0264  0.0683
  125OSM    O1313305   5.617   3.843   5.946  0.4490 -0.2894  0.1619
  125OSM    O1413306   5.646   4.074   6.046 -0.2725 -0.7205  0.2728
  125OSM    O1113307   5.448   3.935   6.086  0.1401 -0.3856  0.0734
  125OSM    O1213308   5.469   4.018   5.872 -0.2906  0.0092 -0.2361
  125OSM    C1S13309   5.339   4.020   6.120 -0.3921  0.0272 -0.0346
  125OSM    H1S13310   5.332   4.096   6.040 -1.1326 -2.6097 -2.6835
  125OSM    H1T13311   5.360   4.063   6.220 -0.0025 -1.9216  0.7812
  125OSM     NF13312   5.094   4.015   6.165 -0.5726  0.5642 -0.0176
  125OSM    HNF13313   5.032   3.980   6.234 -1.5566 -0.5137 -1.3982
  125OSM    C2S13314   5.201   3.939   6.118 -0.3718 -0.2673  0.6584
  125OSM    H2S13315   5.186   3.938   6.007 -2.1162  2.0042  0.7854
  125OSM    C3S13316   5.211   3.794   6.176  0.1751  0.5373 -0.4775
  125OSM    H3S13317   5.290   3.743   6.118  0.7807 -2.9067  2.9607
  125OSM     O313318   5.099   3.706   6.146  0.0534  0.0155  0.1357
  125OSM    HO313319   5.031   3.772   6.132 -0.9263 -0.6429  1.5811
  125OSM    C4S13320   5.243   3.788   6.322  0.2711  0.9793  0.1415
  125OSM    H4S13321   5.348   3.772   6.352  0.2611  0.4912 -0.0786
  125OSM    C5S13322   5.149   3.807   6.417  0.5021  0.3374 -0.6027
  125OSM    H5S13323   5.043   3.818   6.391  0.3306 -1.1437 -0.5898
  125OSM    C6S13324   5.165   3.797   6.566  0.5248  0.2328  0.0155
  125OSM    H6S13325   5.064   3.790   6.612  1.4718 -1.4306  2.0120
  125OSM    H6T13326   5.220   3.891   6.590 -0.3305  0.8130 -0.2474
  125OSM    C7S13327   5.243   3.671   6.618 -0.1964 -0.9761 -0.1041
  125OSM    H7S13328   5.347   3.676   6.579 -0.3037  1.0346 -0.1923
  125OSM    H7T13329   5.198   3.571   6.596  0.9491 -1.7781  1.0448
  125OSM    C8S13330   5.240   3.667   6.775 -0.0463 -0.2958  0.8828
  125OSM    H8S13331   5.142   3.618   6.795 -0.4661  0.1643  0.0184
  125OSM    H8T13332   5.240   3.773   6.807  1.2705  0.6817 -1.9600
  125OSM    C9S13333   5.355   3.584   6.823 -0.2315 -0.2744 -0.1527
  125OSM    H9S13334   5.451   3.638   6.812  0.9862 -2.2205  0.4445
  125OSM    H9T13335   5.378   3.495   6.762  0.0110  0.2227 -0.7941
  125OSM   C10S13336   5.333   3.541   6.970  0.1029  0.3302 -0.2397
  125OSM   H10S13337   5.426   3.491   7.004  0.4474  0.9824 -0.2033
  125OSM   H10T13338   5.247   3.471   6.971 -0.3785  0.8831  1.9425
  125OSM   C11S13339   5.299   3.646   7.072  0.3179 -0.2367 -0.2854
  125OSM   H11S13340   5.211   3.705   7.040  1.7616  1.4474 -1.3635
  125OSM   H11T13341   5.376   3.726   7.064 -1.1594  1.1264 -2.0016
  125OSM   C12S13342   5.271   3.582   7.214  0.5096  0.2118 -0.2933
  125OSM   H12S13343   5.287   3.654   7.297 -0.4449 -0.1243  0.2069
  125OSM   H12T13344   5.333   3.490   7.222 -3.4452 -2.6507  1.5483
  125OSM   C13S13345   5.118   3.542   7.226  0.3048  0.5555  0.5087
  125OSM   H13S13346   5.090   3.490   7.132  0.2419  2.1701 -0.3902
  125OSM   H13T13347   5.045   3.625   7.234 -1.6847 -1.1879  1.5920
  125OSM   C14S13348   5.099   3.434   7.344 -0.3191 -0.1098  0.3224
  125OSM   H14S13349   5.185   3.364   7.347  0.1404  0.4655  1.5811
  125OSM   H14T13350   5.012   3.365   7.338  1.1920 -2.0812  0.0389
  125OSM   C15S13351   5.108   3.489   7.489 -0.6054  0.1514 -0.8281
  125OSM   H15S13352   5.017   3.550   7.511 -0.7143 -0.7577  1.4545
  125OSM   H15T13353   5.194   3.557   7.508  1.3218 -1.0319 -4.4015
  125OSM   C16S13354   5.107   3.376   7.594 -0.2656  0.2998  0.1005
  125OSM   H16S13355   5.195   3.310   7.608  1.0764  2.5863  4.5728
  125OSM   H16T13356   5.022   3.308   7.573  1.1615 -1.8386  0.9546
  125OSM   C17S13357   5.077   3.419   7.737  0.5097 -0.1684 -0.0887
  125OSM   H17S13358   5.038   3.522   7.754 -0.4701 -0.2141 -1.8256
  125OSM   H17T13359   5.164   3.423   7.807  1.3452 -0.3741 -1.0993
  125OSM   C18S13360   4.978   3.330   7.808  0.6252 -0.0889  0.3299
  125OSM   H18S13361   4.941   3.374   7.903  1.5920  0.4757  0.4580
  125OSM   H18T13362   5.033   3.237   7.831  2.1602  1.1650  2.1043
  125OSM   H18U13363   4.895   3.300   7.741  0.6936  0.2263  0.1002
  125OSM    C1F13364   5.062   4.136   6.121 -0.0700  0.3953  0.4349
  125OSM     OF13365   5.121   4.191   6.034 -0.3369 -0.4775 -0.0064
  125OSM    C2F13366   4.940   4.203   6.173 -0.0908 -0.0697 -0.1234
  125OSM    H2F13367   4.889   4.122   6.229  1.0524 -2.0584 -1.7975
  125OSM    H2G13368   4.870   4.232   6.091  2.3322  0.5363 -2.1113
  125OSM    C3F13369   4.972   4.332   6.252 -0.0511 -0.2078 -0.7731
  125OSM    H3F13370   4.880   4.387   6.282  0.2944 -0.8686  1.6861
  125OSM    H3G13371   5.029   4.400   6.185 -0.5597 -1.3287 -2.4350
  125OSM    C4F13372   5.077   4.304   6.368 -0.5404 -0.1188 -0.0301
  125OSM    H4F13373   5.112   4.404   6.402  1.4576 -0.6791 -0.2882
  125OSM    H4G13374   5.167   4.257   6.322 -1.0245  1.4784 -2.8581
  125OSM    C5F13375   5.013   4.227   6.480  0.4411  0.6335  0.2675
  125OSM    H5F13376   4.972   4.134   6.434  0.3464  0.4439  0.7349
  125OSM    H5G13377   4.923   4.284   6.510  0.4580  0.8996 -0.1698
  125OSM    C6F13378   5.117   4.204   6.598 -0.2412  0.0392 -0.5413
  125OSM    H6F13379   5.185   4.290   6.612  1.0479 -1.1140  0.5770
  125OSM    H6G13380   5.191   4.122   6.588  1.0719 -0.0536  5.6545
  125OSM    C7F13381   5.053   4.186   6.736 -0.0291  0.6029  0.2955
  125OSM    H7F13382   4.949   4.224   6.735  0.1535  1.1117 -0.5500
  125OSM    H7G13383   5.100   4.253   6.812 -2.6387 -0.2757  2.8776
  125OSM    C8F13384   5.036   4.044   6.788  0.0988  0.0206  0.5488
  125OSM    H8F13385   5.141   4.007   6.790 -0.0485 -0.4634  3.4158
  125OSM    H8G13386   4.973   3.978   6.725  0.3868  0.4165 -0.1636
  125OSM    C9F13387   4.973   4.053   6.927  0.5603  0.2239  1.1047
  125OSM    H9F13388   4.873   4.099   6.922  0.5058  0.0301 -2.9411
  125OSM   C10F13389   5.028   4.038   7.049 -0.4928  0.6259  0.4157
  125OSM   H10F13390   4.968   4.068   7.136 -0.5488  0.9649  0.2629
  125OSM   C11F13391   5.176   3.987   7.082  0.8609  0.0539 -0.1154
  125OSM   H11F13392   5.193   3.894   7.024 -0.4680 -0.8786  0.9059
  125OSM   H11G13393   5.161   3.956   7.188 -0.4870  1.0100  0.0079
  125OSM   C12F13394   5.285   4.094   7.066  0.1854  0.2502  0.6208
  125OSM   H12F13395   5.269   4.190   7.120 -0.0621  0.7308 -0.2860
  125OSM   H12G13396   5.278   4.120   6.959 -0.7784 -0.3017  0.5315
  125OSM   C13F13397   5.424   4.047   7.092  0.2044 -0.4706  0.1303
  125OSM   H13F13398   5.490   4.099   7.019  1.0924 -2.4560 -0.5393
  125OSM   H13G13399   5.427   3.939   7.070 -1.7741 -0.7411  1.0112
  125OSM   C14F13400   5.469   4.075   7.235  0.1220 -0.2904 -0.0008
  125OSM   H14F13401   5.457   4.184   7.255  0.4483  0.5019 -3.4095
  125OSM   H14G13402   5.578   4.058   7.244  0.0461  0.0463  1.9553
  125OSM   C15F13403   5.382   4.006   7.343  0.6141  0.1184 -0.0513
  125OSM   H15F13404   5.347   3.908   7.303 -1.0511  0.2599  0.9217
  125OSM   H15G13405   5.286   4.062   7.352 -1.4341 -3.1157  0.1331
  125OSM   C16F13406   5.462   3.993   7.476  0.4390 -0.3182  0.2033
  125OSM   H16F13407   5.484   4.096   7.510 -1.0144  0.0241  0.1557
  125OSM   H16G13408   5.561   3.946   7.457 -0.3892 -1.7748 -0.6681
  125OSM   C17F13409   5.385   3.908   7.575  0.6691  0.0880 -0.3379
  125OSM   H17F13410   5.371   3.805   7.537  0.6476 -0.5997  1.4429
  125OSM   H17G13411   5.279   3.940   7.577  0.4449 -0.6331 -0.5558
  125OSM   C18F13412   5.442   3.901   7.720 -0.3965 -0.2291  0.2278
  125OSM   H18F13413   5.376   3.846   7.790 -0.4195  0.5860  0.8660
  125OSM   H18G13414   5.453   4.003   7.762  1.6970  0.1062 -1.0268
  125OSM   H18H13415   5.544   3.858   7.715 -0.2697  0.1379 -0.5973
  126OSM      N13416   1.920   2.713   5.613  0.0745 -0.2957  0.4393
  126OSM    C1513417   1.791   2.787   5.592 -0.3146 -0.4049  0.2041
  126OSM   H15A13418   1.801   2.892   5.618 -1.7524  0.3627 -1.9772
  126OSM   H15B13419   1.712   2.741   5.649 -0.0551 -1.4144 -0.2418
  126OSM   H15C13420   1.741   2.793   5.496 -0.9412  0.2407  0.5549
  126OSM    C1413421   1.955   2.705   5.760  0.1575 -0.7332 -0.6890
  126OSM   H14A13422   2.058   2.676   5.773  0.0828 -1.4653 -1.6394
  126OSM   H14B13423   1.888   2.639   5.812  1.1358 -1.0793  0.1769
  126OSM   H14C13424   1.944   2.802   5.807 -2.9110 -2.5866  2.9518
  126OSM    C1313425   1.898   2.575   5.564  0.4511  0.8090 -0.4774
  126OSM   H13A13426   1.806   2.536   5.604  1.7555 -1.8853  0.1327
  126OSM   H13B13427   1.988   2.516   5.577  0.0118  0.3308  0.4652
  126OSM   H13C13428   1.884   2.586   5.457 -1.5075 -0.3439 -0.3893
  126OSM    C1213429   2.029   2.790   5.539  0.0258  1.0498  0.6700
  126OSM   H12A13430   2.036   2.891   5.574  0.3573  1.2642 -0.0022
  126OSM   H12B13431   1.992   2.790   5.437 -0.4136  1.3897  0.8238
  126OSM    C1113432   2.168   2.732   5.542 -0.7705  0.3029 -0.0696
  126OSM   H11A13433   2.228   2.783   5.464  2.4403 -2.5623  0.2913
  126OSM   H11B13434   2.176   2.623   5.524 -1.6007  0.1938  0.1793
  126OSM      P13435   2.269   2.891   5.714  0.1991  0.6936  0.0719
  126OSM    O1313436   2.413   2.899   5.698 -0.0368  0.4250 -0.0239
  126OSM    O1413437   2.188   2.995   5.647 -0.3722  0.0809  0.3162
  126OSM    O1113438   2.238   2.896   5.870  0.4111 -0.0794 -0.3299
  126OSM    O1213439   2.231   2.750   5.669 -0.1762  0.6099  0.2936
  126OSM    C1S13440   2.282   2.793   5.955  0.5818 -0.6285 -0.0027
  126OSM    H1S13441   2.391   2.792   5.975  0.5991  0.1046 -0.0312
  126OSM    H1T13442   2.256   2.691   5.920 -2.6404  0.1670 -0.2760
  126OSM     NF13443   2.285   2.691   6.185  0.8146  0.6847  0.4838
  126OSM    HNF13444   2.226   2.621   6.223  1.2419 -1.2969 -2.2473
  126OSM    C2S13445   2.223   2.801   6.101  0.3378  0.0137  0.5624
  126OSM    H2S13446   2.254   2.896   6.148  1.7457 -0.9984  1.7608
  126OSM    C3S13447   2.068   2.805   6.090  0.3270  0.0090 -0.4195
  126OSM    H3S13448   2.024   2.708   6.058 -0.7576 -0.1726  1.4330
  126OSM     O313449   2.016   2.909   6.011  0.3865 -0.7160 -0.1865
  126OSM    HO313450   2.083   2.928   5.945 -1.0356 -1.6186 -1.9686
  126OSM    C4S13451   2.011   2.834   6.228 -0.1000 -0.2214  0.4565
  126OSM    H4S13452   2.045   2.935   6.256 -1.4781 -0.0976  1.7940
  126OSM    C5S13453   1.935   2.763   6.312 -0.9916 -0.2986  0.0731
  126OSM    H5S13454   1.903   2.661   6.287 -1.4615 -0.5948  1.7820
  126OSM    C6S13455   1.894   2.817   6.446 -0.8082 -0.1181 -0.1649
  126OSM    H6S13456   1.863   2.738   6.518  0.8515 -0.2255  0.4908
  126OSM    H6T13457   1.810   2.889   6.436 -1.1144 -0.4038  0.3164
  126OSM    C7S13458   2.002   2.904   6.518 -0.3904  0.8021  0.5473
  126OSM    H7S13459   2.020   2.992   6.453  0.5349  0.1113 -0.1563
  126OSM    H7T13460   2.100   2.852   6.530  0.6238  2.0762 -1.6392
  126OSM    C8S13461   1.947   2.955   6.651 -0.2404 -0.7382  0.1120
  126OSM    H8S13462   1.871   3.032   6.625  2.5539  2.7034  1.3609
  126OSM    H8T13463   2.023   3.011   6.709  0.2551 -0.6650 -0.6010
  126OSM    C9S13464   1.886   2.861   6.746  0.1347  0.1196 -0.1261
  126OSM    H9S13465   1.788   2.825   6.706 -1.8147  0.5701  3.8098
  126OSM    H9T13466   1.849   2.910   6.839 -1.1362  1.8497 -1.4660
  126OSM   C10S13467   1.973   2.737   6.792 -0.0014 -0.3332 -0.8190
  126OSM   H10S13468   2.061   2.770   6.852 -0.2242 -1.3138  0.0771
  126OSM   H10T13469   1.995   2.667   6.709  1.7399 -1.5868  0.6284
  126OSM   C11S13470   1.907   2.654   6.904 -0.2256 -0.0231 -0.1283
  126OSM   H11S13471   1.831   2.582   6.867 -0.3147 -0.1110  0.2227
  126OSM   H11T13472   1.856   2.713   6.983 -1.6049  0.6510 -1.4981
  126OSM   C12S13473   2.023   2.579   6.979 -1.1981  0.1942  0.2981
  126OSM   H12S13474   2.092   2.655   7.021 -0.3047 -0.7654  0.6061
  126OSM   H12T13475   2.082   2.515   6.909  1.5324  2.2558  0.5611
  126OSM   C13S13476   1.969   2.484   7.089  0.2376 -0.6616 -0.3509
  126OSM   H13S13477   1.902   2.409   7.041 -2.2907  2.4514 -2.0737
  126OSM   H13T13478   1.915   2.539   7.169  2.4356 -0.9414  1.4032
  126OSM   C14S13479   2.076   2.416   7.171 -0.3673  0.8510  0.1358
  126OSM   H14S13480   2.147   2.493   7.206  1.1347 -0.9154  1.1454
  126OSM   H14T13481   2.129   2.336   7.114 -2.7592 -1.2816  0.6806
  126OSM   C15S13482   2.022   2.348   7.298  0.1408 -0.0487  0.3477
  126OSM   H15S13483   1.980   2.430   7.361  0.4574  0.5452 -0.1992
  126OSM   H15T13484   2.108   2.305   7.353  0.2982 -1.9351 -1.2455
  126OSM   C16S13485   1.923   2.237   7.279  1.3434  0.3610 -0.0039
  126OSM   H16S13486   1.994   2.156   7.251  1.6285  0.3749  0.6641
  126OSM   H16T13487   1.844   2.247   7.201 -0.6795  0.6180  1.9544
  126OSM   C17S13488   1.851   2.214   7.419 -0.3904  0.1624  0.8354
  126OSM   H17S13489   1.762   2.280   7.425 -0.8421 -0.0296 -2.3336
  126OSM   H17T13490   1.916   2.261   7.496  0.5292  4.4749 -2.1601
  126OSM   C18S13491   1.807   2.070   7.445  0.0486 -0.2659  0.3899
  126OSM   H18S13492   1.891   2.003   7.474 -0.2224  0.3438  2.8076
  126OSM   H18T13493   1.749   2.027   7.361  1.7136 -2.3356  0.2154
  126OSM   H18U13494   1.746   2.080   7.537 -0.1180 -0.5816  0.3173
  126OSM    C1F13495   2.415   2.687   6.218  0.3013  1.0899  0.7640
  126OSM     OF13496   2.484   2.784   6.196 -0.0381 -0.0273 -0.6001
  126OSM    C2F13497   2.466   2.555   6.273 -0.2730  0.4798 -0.4293
  126OSM    H2F13498   2.520   2.496   6.196  1.4085 -1.1781  1.8712
  126OSM    H2G13499   2.385   2.485   6.302  1.1352 -0.0976  2.5340
  126OSM    C3F13500   2.554   2.578   6.397  0.6971  0.4329 -0.2893
  126OSM    H3F13501   2.630   2.659   6.390  0.4822  0.8090  1.3175
  126OSM    H3G13502   2.597   2.478   6.418 -2.2005 -0.5226  1.7339
  126OSM    C4F13503   2.471   2.625   6.521 -0.5005 -0.1894 -0.8700
  126OSM    H4F13504   2.392   2.549   6.535  0.2602 -0.5213  2.5409
  126OSM    H4G13505   2.434   2.729   6.516 -2.0325 -0.5476  1.6140
  126OSM    C5F13506   2.550   2.618   6.650 -0.0474  0.0419  0.0832
  126OSM    H5F13507   2.633   2.691   6.662 -0.0918 -0.0962  1.4090
  126OSM    H5G13508   2.590   2.515   6.664  0.3323  0.0939 -0.5786
  126OSM    C6F13509   2.465   2.636   6.771 -0.8197  0.2966  0.1222
  126OSM    H6F13510   2.387   2.558   6.782 -0.6300 -0.1769 -1.6667
  126OSM    H6G13511   2.411   2.733   6.764 -2.2851 -0.4513  0.4720
  126OSM    C7F13512   2.555   2.634   6.895 -0.1293  0.3933  0.2438
  126OSM    H7F13513   2.642   2.699   6.874  0.9506 -1.1211 -0.0831
  126OSM    H7G13514   2.590   2.529   6.900  1.8067  0.8138 -2.3303
  126OSM    C8F13515   2.477   2.673   7.023  0.3259  0.6609  0.3066
  126OSM    H8F13516   2.402   2.593   7.040  0.5111 -0.1566 -2.2618
  126OSM    H8G13517   2.424   2.769   7.009 -2.8130 -0.9072  0.6081
  126OSM    C9F13518   2.581   2.676   7.133  0.1263 -0.3577  0.3200
  126OSM    H9F13519   2.667   2.741   7.113 -0.3136 -0.5775 -2.7884
  126OSM   C10F13520   2.583   2.596   7.243  0.2084  0.1329 -0.1417
  126OSM   H10F13521   2.673   2.596   7.307 -0.5205 -0.4397  0.9028
  126OSM   C11F13522   2.478   2.501   7.301  0.2037  0.0548  0.2595
  126OSM   H11F13523   2.526   2.401   7.312 -0.7390 -0.5499 -0.9565
  126OSM   H11G13524   2.391   2.490   7.233 -0.7635 -0.2696  1.4927
  126OSM   C12F13525   2.433   2.550   7.431 -0.6181  0.4509  0.3331
  126OSM   H12F13526   2.398   2.655   7.438  1.2163  1.0143  1.9995
  126OSM   H12G13527   2.522   2.555   7.498  0.0610  0.9625 -0.5864
  126OSM   C13F13528   2.331   2.469   7.500  0.1439 -0.2075  0.5167
  126OSM   H13F13529   2.371   2.366   7.497  0.2562 -0.1696 -3.2895
  126OSM   H13G13530   2.235   2.466   7.444  0.1634 -0.8433  0.5167
  126OSM   C14F13531   2.307   2.520   7.644 -0.4688  0.3529  0.0584
  126OSM   H14F13532   2.323   2.629   7.635 -1.7968  0.5749  0.0813
  126OSM   H14G13533   2.384   2.482   7.714 -1.4617 -0.8067  0.5775
  126OSM   C15F13534   2.170   2.500   7.699 -0.0974 -0.1796  0.4695
  126OSM   H15F13535   2.149   2.391   7.695 -0.7617 -0.0924  1.2266
  126OSM   H15G13536   2.090   2.561   7.652  1.7809  2.1389  0.1350
  126OSM   C16F13537   2.158   2.548   7.848 -0.4487 -0.4943 -0.4680
  126OSM   H16F13538   2.054   2.533   7.885 -0.0413 -2.0071  0.1422
  126OSM   H16G13539   2.191   2.654   7.848 -0.8116 -0.3815 -0.3952
  126OSM   C17F13540   2.260   2.473   7.940  0.2800 -0.2468  0.2372
  126OSM   H17F13541   2.364   2.496   7.910  0.4371  0.9660  1.6104
  126OSM   H17G13542   2.245   2.363   7.937 -0.2825 -0.2619  2.2999
  126OSM   C18F13543   2.234   2.509   8.089 -0.3834  0.3829  0.0128
  126OSM   H18F13544   2.125   2.506   8.112 -0.0038  0.3692  1.9808
  126OSM   H18G13545   2.271   2.610   8.115 -0.8841 -0.0751  2.9179
  126OSM   H18H13546   2.276   2.430   8.155  1.9406  1.0426 -0.6048
  127OSM      N13547   5.126   2.234   5.485 -0.0651 -0.5595  0.0316
  127OSM    C1513548   5.232   2.153   5.409  0.1085  0.2253  0.1778
  127OSM   H15A13549   5.253   2.214   5.322  0.1098 -0.8074 -0.5574
  127OSM   H15B13550   5.199   2.057   5.373 -2.4150  0.8510  0.5842
  127OSM   H15C13551   5.325   2.137   5.461  1.4548  0.6558 -1.9474
  127OSM    C1413552   5.191   2.371   5.506  0.3335  0.1947 -0.2446
  127OSM   H14A13553   5.263   2.377   5.587 -0.5007  1.9337  0.4131
  127OSM   H14B13554   5.115   2.446   5.520  1.3673  1.0625  0.9795
  127OSM   H14C13555   5.252   2.396   5.420  2.4413  1.8560  1.5903
  127OSM    C1313556   5.011   2.253   5.386  0.9932 -0.1911  0.2932
  127OSM   H13A13557   5.051   2.279   5.290 -0.4578  2.3641  0.2944
  127OSM   H13B13558   4.940   2.326   5.424  0.1819 -0.8728  0.1320
  127OSM   H13C13559   4.950   2.164   5.376  0.9865 -0.4156  2.0517
  127OSM    C1213560   5.074   2.170   5.606  0.2386  0.4366 -0.0967
  127OSM   H12A13561   5.160   2.137   5.662 -0.1027 -0.7528 -0.2547
  127OSM   H12B13562   5.023   2.079   5.578  0.7128  0.0934  0.1330
  127OSM    C1113563   4.978   2.251   5.693 -0.0906 -0.5726  0.4506
  127OSM   H11A13564   5.022   2.347   5.727 -1.2357 -0.1754  0.8721
  127OSM   H11B13565   4.957   2.181   5.776 -0.0750 -2.3942 -1.0307
  127OSM      P13566   4.721   2.203   5.626 -0.3281  0.0019  0.2883
  127OSM    O1313567   4.610   2.282   5.573 -0.4112 -0.7231 -0.2368
  127OSM    O1413568   4.748   2.066   5.571 -0.2250 -0.4245 -0.6483
  127OSM    O1113569   4.709   2.190   5.783 -0.2871 -0.4026 -0.5894
  127OSM    O1213570   4.856   2.286   5.622 -0.1227 -0.4375  0.4962
  127OSM    C1S13571   4.599   2.121   5.860  0.3386 -0.7779 -0.0821
  127OSM    H1S13572   4.537   2.066   5.787 -3.9721  2.0022  1.0989
  127OSM    H1T13573   4.527   2.196   5.900 -1.1793 -2.2560  0.0501
  127OSM     NF13574   4.565   1.950   6.037  0.0699  0.1689 -0.3485
  127OSM    HNF13575   4.506   1.985   6.110 -0.3677 -0.3115 -0.4614
  127OSM    C2S13576   4.657   2.041   5.977 -0.7049 -0.6027 -0.0353
  127OSM    H2S13577   4.731   1.976   5.926  2.0425  1.2151  1.4485
  127OSM    C3S13578   4.732   2.134   6.069 -0.3149 -0.0190 -1.1199
  127OSM    H3S13579   4.664   2.209   6.115  1.0315  1.8951 -2.1170
  127OSM     O313580   4.835   2.207   6.014  0.2276 -0.2653 -0.6027
  127OSM    HO313581   4.803   2.225   5.925  0.6852  1.9600 -0.3757
  127OSM    C4S13582   4.794   2.066   6.189 -0.0544 -0.7499  0.0722
  127OSM    H4S13583   4.862   1.983   6.165 -1.3385 -1.6184 -0.6942
  127OSM    C5S13584   4.757   2.087   6.320  0.1313  0.6083 -0.4346
  127OSM    H5S13585   4.664   2.144   6.330 -1.3490 -1.5419 -1.3076
  127OSM    C6S13586   4.793   2.012   6.443 -0.2521  0.9094  0.1255
  127OSM    H6S13587   4.746   2.054   6.535 -1.6829 -0.1321 -0.0915
  127OSM    H6T13588   4.903   2.001   6.447 -0.4625 -1.6640  0.3728
  127OSM    C7S13589   4.732   1.864   6.427  0.5365 -0.3821  0.1831
  127OSM    H7S13590   4.775   1.823   6.332  0.6230 -0.6233  0.3235
  127OSM    H7T13591   4.623   1.886   6.424  0.4764 -0.4100  1.5081
  127OSM    C8S13592   4.768   1.780   6.548  0.4969  0.5264 -0.4339
  127OSM    H8S13593   4.697   1.796   6.632  1.9576 -3.6975  1.9104
  127OSM    H8T13594   4.869   1.803   6.589  0.3141  0.0444  0.2885
  127OSM    C9S13595   4.781   1.628   6.528  0.0228  1.0663  0.2797
  127OSM    H9S13596   4.862   1.611   6.453 -1.7416 -0.7949 -1.3375
  127OSM    H9T13597   4.695   1.583   6.475  0.7939  1.6248 -1.5261
  127OSM   C10S13598   4.808   1.546   6.653  0.8612  0.2293  0.1005
  127OSM   H10S13599   4.708   1.539   6.702 -1.0778 -0.2922 -3.5263
  127OSM   H10T13600   4.872   1.599   6.726  0.5559 -1.9312  2.0783
  127OSM   C11S13601   4.858   1.409   6.617 -0.2504  0.6727  0.6933
  127OSM   H11S13602   4.969   1.413   6.616 -0.1344 -1.1078 -0.8358
  127OSM   H11T13603   4.831   1.380   6.513 -1.8810 -2.0054  1.7501
  127OSM   C12S13604   4.808   1.305   6.722 -0.2430  0.9257  0.1179
  127OSM   H12S13605   4.832   1.205   6.678  1.2977  1.7690 -1.0838
  127OSM   H12T13606   4.700   1.311   6.746 -0.1881 -2.0656  1.6263
  127OSM   C13S13607   4.894   1.311   6.851  0.2023 -0.2898 -0.4592
  127OSM   H13S13608   4.867   1.403   6.907 -1.7465 -0.1550 -1.5309
  127OSM   H13T13609   5.000   1.325   6.819 -0.2514  1.2112 -1.3813
  127OSM   C14S13610   4.878   1.176   6.925 -0.1278 -0.9680  0.0277
  127OSM   H14S13611   4.903   1.096   6.852  0.3596 -0.6045 -0.2117
  127OSM   H14T13612   4.770   1.169   6.949 -0.6990  3.2981 -0.4571
  127OSM   C15S13613   4.969   1.171   7.053  0.5025 -0.8776  0.4609
  127OSM   H15S13614   5.048   1.247   7.033 -1.8033  1.0097 -2.3262
  127OSM   H15T13615   5.008   1.069   7.072 -0.5855 -1.0361  2.0495
  127OSM   C16S13616   4.892   1.218   7.175 -0.0265 -0.2950  0.5762
  127OSM   H16S13617   4.788   1.178   7.185 -0.5410  1.4751  3.7139
  127OSM   H16T13618   4.874   1.327   7.170 -0.2797 -0.3754 -0.4946
  127OSM   C17S13619   4.965   1.205   7.305  0.5886 -0.5371  0.0761
  127OSM   H17S13620   5.043   1.283   7.320  0.1686 -0.3984  1.8537
  127OSM   H17T13621   5.012   1.105   7.318  3.2470  0.9025  3.1019
  127OSM   C18S13622   4.861   1.227   7.419 -0.3193 -0.1397  0.8732
  127OSM   H18S13623   4.783   1.300   7.389  2.1999  1.9157 -1.2800
  127OSM   H18T13624   4.922   1.264   7.505 -0.5705  4.0087 -0.4776
  127OSM   H18U13625   4.816   1.127   7.430 -1.8423  0.4355  0.1517
  127OSM    C1F13626   4.520   1.838   5.987 -0.0158  0.5762 -0.4894
  127OSM     OF13627   4.548   1.807   5.874 -0.0749  0.3846 -0.4950
  127OSM    C2F13628   4.437   1.751   6.078  0.7314 -0.9782  0.2969
  127OSM    H2F13629   4.452   1.643   6.055 -2.9554 -2.0931  2.4506
  127OSM    H2G13630   4.329   1.769   6.063  0.5024 -1.7133  1.0200
  127OSM    C3F13631   4.457   1.775   6.226 -0.1518  0.3214 -0.4121
  127OSM    H3F13632   4.450   1.879   6.264  1.6088 -0.3898  2.1582
  127OSM    H3G13633   4.556   1.738   6.261 -0.9440  1.2915  3.2969
  127OSM    C4F13634   4.349   1.690   6.308  0.4896 -0.4672  0.1061
  127OSM    H4F13635   4.340   1.592   6.255 -0.1920 -0.2387 -0.2223
  127OSM    H4G13636   4.251   1.741   6.299  0.4540 -0.5899 -0.2583
  127OSM    C5F13637   4.363   1.667   6.463  0.2261  0.3679 -0.3408
  127OSM    H5F13638   4.469   1.645   6.485  0.2442  1.0703  0.3151
  127OSM    H5G13639   4.297   1.583   6.495 -0.6055  1.2541  0.3026
  127OSM    C6F13640   4.335   1.791   6.543 -0.3238 -0.5537  0.2623
  127OSM    H6F13641   4.232   1.828   6.527 -0.5227 -0.2869  1.9137
  127OSM    H6G13642   4.406   1.870   6.510  1.0019 -1.6072  0.4927
  127OSM    C7F13643   4.336   1.758   6.690  0.0824  0.0480 -0.2711
  127OSM    H7F13644   4.366   1.850   6.744  0.8621 -0.4770  0.2143
  127OSM    H7G13645   4.404   1.675   6.720 -2.2327 -1.6582  0.5628
  127OSM    C8F13646   4.192   1.733   6.742  0.3929 -0.7569  0.4363
  127OSM    H8F13647   4.149   1.681   6.654  1.7098 -1.7511  0.3365
  127OSM    H8G13648   4.125   1.821   6.752  0.4383 -0.6161 -0.4413
  127OSM    C9F13649   4.197   1.661   6.873 -0.2837  0.5522  0.0897
  127OSM    H9F13650   4.247   1.565   6.854 -1.5310  0.0497 -0.8756
  127OSM   C10F13651   4.142   1.701   6.993 -0.2667 -0.9176 -0.3708
  127OSM   H10F13652   4.160   1.642   7.083 -0.4326  0.5861  0.6888
  127OSM   C11F13653   4.062   1.832   7.018 -0.0768  0.4783  0.2900
  127OSM   H11F13654   3.953   1.815   7.032 -0.3887  0.6222 -1.7791
  127OSM   H11G13655   4.067   1.904   6.934  0.2379 -0.4058 -0.4576
  127OSM   C12F13656   4.107   1.905   7.150 -0.3506  0.4642 -0.4370
  127OSM   H12F13657   4.025   1.974   7.180  0.8910  0.6548  2.9390
  127OSM   H12G13658   4.197   1.967   7.130 -1.2525  2.1877  0.6284
  127OSM   C13F13659   4.153   1.819   7.263  0.0622  0.1884 -0.0592
  127OSM   H13F13660   4.243   1.759   7.237  1.4317  2.1519 -0.0796
  127OSM   H13G13661   4.069   1.749   7.279  2.7706 -3.3933 -0.2749
  127OSM   C14F13662   4.168   1.894   7.396  0.3063 -0.2403  0.7710
  127OSM   H14F13663   4.076   1.953   7.411 -1.6057 -3.0445  0.8217
  127OSM   H14G13664   4.258   1.959   7.394  0.1152 -0.0072 -0.3132
  127OSM   C15F13665   4.156   1.807   7.522  0.1040  0.2361  0.0653
  127OSM   H15F13666   4.227   1.722   7.510 -0.7097 -0.3168 -0.9954
  127OSM   H15G13667   4.056   1.757   7.523  0.4562 -0.4741  0.8638
  127OSM   C16F13668   4.152   1.887   7.647 -0.2395 -0.3793 -0.0044
  127OSM   H16F13669   4.080   1.970   7.629  0.4507 -0.1368 -1.8506
  127OSM   H16G13670   4.253   1.931   7.662 -1.9558  3.4527  1.3876
  127OSM   C17F13671   4.096   1.806   7.770  0.1612 -0.2096  0.3975
  127OSM   H17F13672   4.125   1.699   7.772  0.4706 -0.1285  0.4266
  127OSM   H17G13673   3.986   1.807   7.760  0.2089 -1.4380 -0.5719
  127OSM   C18F13674   4.143   1.875   7.898  0.1832  1.0258 -0.8718
  127OSM   H18F13675   4.235   1.823   7.931 -1.2757 -0.9526  0.2400
  127OSM   H18G13676   4.083   1.856   7.989  0.1692  2.0111 -0.6576
  127OSM   H18H13677   4.141   1.986   7.901  3.9763  1.2084  1.6177
  128OSM      N13678   4.532   5.867   5.647  1.1807 -0.2151 -0.5888
  128OSM    C1513679   4.559   5.844   5.502 -0.2384  0.9971 -0.5135
  128OSM   H15A13680   4.475   5.883   5.446 -1.7045 -2.0205 -0.5817
  128OSM   H15B13681   4.565   5.740   5.476 -0.6846  0.9734 -0.5260
  128OSM   H15C13682   4.650   5.894   5.471  1.1060  0.0583  1.6384
  128OSM    C1413683   4.638   5.828   5.736  0.2969  0.5684 -0.1031
  128OSM   H14A13684   4.665   5.724   5.733 -0.2287  0.4393 -0.4568
  128OSM   H14B13685   4.626   5.838   5.843  3.1706  0.1859  0.3303
  128OSM   H14C13686   4.724   5.894   5.735  1.3758 -0.7712  0.0515
  128OSM    C1313687   4.510   6.016   5.669  0.1170 -0.1816 -0.2333
  128OSM   H13A13688   4.435   6.066   5.609 -0.7591  1.5248  2.1446
  128OSM   H13B13689   4.598   6.073   5.643 -1.3211  1.1983 -2.4865
  128OSM   H13C13690   4.489   6.037   5.773  2.8123  0.5564  0.2284
  128OSM    C1213691   4.403   5.792   5.695  1.0011 -0.3501 -0.6739
  128OSM   H12A13692   4.313   5.833   5.652  0.6372 -0.2039  0.2067
  128OSM   H12B13693   4.391   5.797   5.802 -1.3993 -0.0044 -0.9032
  128OSM    C1113694   4.398   5.641   5.663  0.2225  0.0159  0.0421
  128OSM   H11A13695   4.417   5.613   5.558 -1.8837 -2.4662  0.2164
  128OSM   H11B13696   4.294   5.606   5.679 -0.0199 -0.2682 -1.9661
  128OSM      P13697   4.559   5.442   5.739 -0.3456  0.3853 -0.3211
  128OSM    O1313698   4.472   5.325   5.754  0.3161  1.0199  0.5567
  128OSM    O1413699   4.636   5.448   5.613 -0.1182 -0.7121 -0.0478
  128OSM    O1113700   4.669   5.448   5.863  0.2989  0.3582 -0.6798
  128OSM    O1213701   4.484   5.582   5.759 -0.1641 -0.3041  0.2195
  128OSM    C1S13702   4.613   5.443   5.994  0.1213 -0.3538 -0.3405
  128OSM    H1S13703   4.582   5.338   6.012  1.2025 -1.0547 -2.3560
  128OSM    H1T13704   4.523   5.507   6.004 -1.0643 -1.0457 -4.7678
  128OSM     NF13705   4.671   5.456   6.229 -0.5062 -0.0031 -0.6817
  128OSM    HNF13706   4.644   5.539   6.276  0.2149  0.2027 -0.6192
  128OSM    C2S13707   4.725   5.477   6.099  0.0633 -0.4621 -0.7831
  128OSM    H2S13708   4.813   5.410   6.090  0.2201 -0.3332 -0.2707
  128OSM    C3S13709   4.777   5.618   6.089 -0.0930 -0.2985  0.2568
  128OSM    H3S13710   4.691   5.690   6.091 -2.4465 -2.8601 -1.3502
  128OSM     O313711   4.835   5.636   5.960 -0.0460 -0.2817 -0.0687
  128OSM    HO313712   4.800   5.562   5.910  4.2744 -2.5563 -0.2777
  128OSM    C4S13713   4.888   5.653   6.187  0.8220  0.2579 -0.2822
  128OSM    H4S13714   4.981   5.597   6.172  0.6652  0.6504 -3.3253
  128OSM    C5S13715   4.873   5.732   6.299  1.0468  0.2189 -0.2926
  128OSM    H5S13716   4.771   5.763   6.328  1.0747  0.9466 -0.9332
  128OSM    C6S13717   4.969   5.752   6.405 -0.4189 -0.3418  0.1786
  128OSM    H6S13718   4.972   5.854   6.449 -0.7107 -0.0307 -0.5029
  128OSM    H6T13719   5.071   5.743   6.360 -0.5094  0.8069 -0.2965
  128OSM    C7S13720   4.950   5.657   6.524  0.8648  0.6825  1.2395
  128OSM    H7S13721   5.035   5.676   6.593  1.0100  1.1877  0.9219
  128OSM    H7T13722   4.964   5.551   6.491  1.2018  1.0610  0.1226
  128OSM    C8S13723   4.823   5.695   6.602 -0.4970  0.2615 -0.0808
  128OSM    H8S13724   4.738   5.719   6.535 -0.5896 -2.1261 -0.9184
  128OSM    H8T13725   4.857   5.784   6.659  2.3149  0.0386 -1.2451
  128OSM    C9S13726   4.772   5.583   6.692 -0.2214  0.4512 -0.7930
  128OSM    H9S13727   4.765   5.489   6.633  1.3416  0.8396 -1.6761
  128OSM    H9T13728   4.674   5.610   6.736  0.2051  0.0098  0.4668
  128OSM   C10S13729   4.864   5.566   6.815 -1.0443 -0.2090 -0.0284
  128OSM   H10S13730   4.867   5.655   6.881 -1.2856  0.6304 -1.1235
  128OSM   H10T13731   4.966   5.548   6.775 -0.8673 -1.1374  0.8256
  128OSM   C11S13732   4.831   5.443   6.902 -0.3457  0.8400 -0.4680
  128OSM   H11S13733   4.907   5.442   6.982 -1.3546 -0.6788  0.5352
  128OSM   H11T13734   4.833   5.342   6.855  2.8894  0.8968 -0.6272
  128OSM   C12S13735   4.696   5.448   6.976  0.3483 -0.0277 -1.0341
  128OSM   H12S13736   4.620   5.467   6.898 -1.7396 -0.5529  0.7838
  128OSM   H12T13737   4.700   5.537   7.042  0.5188  0.0463 -1.1430
  128OSM   C13S13738   4.650   5.318   7.046 -0.6404 -0.4748  0.4821
  128OSM   H13S13739   4.668   5.234   6.975  1.7725  0.2386  0.1723
  128OSM   H13T13740   4.543   5.323   7.075 -0.9317 -0.0665 -0.6096
  128OSM   C14S13741   4.725   5.292   7.170  0.0952  0.0309 -0.3003
  128OSM   H14S13742   4.711   5.365   7.253  0.7673 -1.4727  1.2225
  128OSM   H14T13743   4.835   5.283   7.153 -0.0683 -1.2867 -0.7672
  128OSM   C15S13744   4.686   5.152   7.225 -0.4365 -0.1399  0.6807
  128OSM   H15S13745   4.708   5.074   7.148 -1.8273 -2.3843  2.4300
  128OSM   H15T13746   4.576   5.144   7.238 -0.2118 -3.6025  1.4264
  128OSM   C16S13747   4.763   5.114   7.356 -0.4253  0.1085  0.9519
  128OSM   H16S13748   4.857   5.173   7.353 -1.4687  1.7792 -0.4478
  128OSM   H16T13749   4.782   5.005   7.351  0.5234  0.1989  1.9980
  128OSM   C17S13750   4.695   5.149   7.487  0.2360  0.6301  0.0597
  128OSM   H17S13751   4.647   5.245   7.458 -0.6405  0.2446  0.1898
  128OSM   H17T13752   4.777   5.164   7.560  1.5489 -0.7408 -1.0467
  128OSM   C18S13753   4.599   5.041   7.551  0.4990 -0.4372 -0.2348
  128OSM   H18S13754   4.513   5.029   7.481 -0.4927  0.0603  0.8663
  128OSM   H18T13755   4.564   5.077   7.650  0.4407  0.3123 -0.5211
  128OSM   H18U13756   4.658   4.947   7.562  0.8711 -0.2707 -0.7716
  128OSM    C1F13757   4.622   5.340   6.281 -0.2039  0.0214 -0.3100
  128OSM     OF13758   4.637   5.230   6.232 -0.0274  0.5964  0.3754
  128OSM    C2F13759   4.542   5.350   6.407  0.0593 -0.7439  0.5004
  128OSM    H2F13760   4.441   5.394   6.393  0.3639  1.2370  3.4124
  128OSM    H2G13761   4.605   5.412   6.475  0.8625 -0.4264 -0.5060
  128OSM    C3F13762   4.532   5.214   6.476  0.7585  0.0332 -0.0336
  128OSM    H3F13763   4.622   5.149   6.472 -0.5273 -1.7779 -0.6308
  128OSM    H3G13764   4.451   5.166   6.417 -0.4816  1.5844  0.3351
  128OSM    C4F13765   4.482   5.224   6.619 -0.6193  0.0247 -1.0062
  128OSM    H4F13766   4.397   5.297   6.621 -2.1587 -1.6169 -2.6721
  128OSM    H4G13767   4.563   5.258   6.687 -2.6096 -2.9166  3.2620
  128OSM    C5F13768   4.433   5.085   6.671  0.2224  0.4982 -0.1136
  128OSM    H5F13769   4.503   5.000   6.656  1.6818  1.4148  1.1399
  128OSM    H5G13770   4.345   5.057   6.610  0.9840  0.3759 -1.1991
  128OSM    C6F13771   4.403   5.094   6.821  0.2501  0.0306  0.1933
  128OSM    H6F13772   4.442   5.187   6.867 -1.5330  0.2397  1.3529
  128OSM    H6G13773   4.447   5.007   6.875 -0.3290  1.6180  3.4215
  128OSM    C7F13774   4.264   5.104   6.867  0.6469 -0.1995  0.6010
  128OSM    H7F13775   4.199   5.033   6.811 -0.6608 -0.5008  2.4029
  128OSM    H7G13776   4.212   5.199   6.843  1.1062  0.0698  0.6743
  128OSM    C8F13777   4.244   5.077   7.023  0.3201  0.2254  0.5283
  128OSM    H8F13778   4.304   5.153   7.076  0.5403  1.0495 -0.8510
  128OSM    H8G13779   4.295   4.980   7.038  0.5132  0.3915  0.9428
  128OSM    C9F13780   4.105   5.065   7.080 -0.8820 -0.8759  0.6007
  128OSM    H9F13781   4.025   5.066   7.004  1.7554  2.0364 -2.4464
  128OSM   C10F13782   4.080   5.048   7.209 -0.2549  0.0015 -0.2551
  128OSM   H10F13783   3.978   5.017   7.236  0.9646 -2.7749  1.5482
  128OSM   C11F13784   4.180   5.053   7.326 -0.0192 -0.3209  0.8077
  128OSM   H11F13785   4.132   5.111   7.407 -2.6540 -0.7178 -0.3751
  128OSM   H11G13786   4.277   5.104   7.303 -0.3698  0.0890  0.2141
  128OSM   C12F13787   4.206   4.904   7.379 -0.1399  0.5232  0.0251
  128OSM   H12F13788   4.283   4.908   7.459 -0.6239 -0.5304  0.5516
  128OSM   H12G13789   4.246   4.854   7.288 -1.5716  2.1481 -1.5951
  128OSM   C13F13790   4.079   4.823   7.423 -0.4044 -0.3292  0.0549
  128OSM   H13F13791   4.022   4.789   7.334 -0.7238  0.5778 -0.0939
  128OSM   H13G13792   4.026   4.888   7.495  1.3062  0.7650  0.3848
  128OSM   C14F13793   4.118   4.699   7.505  0.2651  0.2351  0.1710
  128OSM   H14F13794   4.181   4.726   7.592 -1.0512 -3.8956  2.6777
  128OSM   H14G13795   4.172   4.614   7.457 -1.4620 -0.8740  0.0731
  128OSM   C15F13796   4.001   4.640   7.580  0.6190  0.6492 -0.1139
  128OSM   H15F13797   3.926   4.594   7.512  0.4536  1.6060 -0.5938
  128OSM   H15G13798   3.942   4.717   7.635 -1.2001  0.4780 -1.7280
  128OSM   C16F13799   4.037   4.521   7.672  0.9453 -0.3155 -0.1481
  128OSM   H16F13800   4.095   4.562   7.758  0.0861 -1.2008  0.8883
  128OSM   H16G13801   4.111   4.456   7.621  1.5124 -0.1861  0.4928
  128OSM   C17F13802   3.917   4.444   7.725  0.4915  0.1244  0.9204
  128OSM   H17F13803   3.949   4.351   7.776  2.4553 -0.0578 -0.5440
  128OSM   H17G13804   3.864   4.403   7.636  0.3888  0.3492  0.8773
  128OSM   C18F13805   3.815   4.532   7.803 -0.1918  0.1207 -0.9277
  128OSM   H18F13806   3.790   4.624   7.746  0.0767  1.2566  0.7243
  128OSM   H18G13807   3.863   4.565   7.897 -2.5058  0.2877  0.2738
  128OSM   H18H13808   3.715   4.484   7.819 -1.1579  1.9878 -1.0831
  129OSM      N13809   2.871   2.111   5.397 -0.1576  0.5640  0.1097
  129OSM    C1513810   2.967   2.224   5.378 -0.2919 -0.6976 -0.1599
  129OSM   H15A13811   2.932   2.301   5.446 -0.5724 -0.9332 -0.0392
  129OSM   H15B13812   2.974   2.269   5.280 -0.1268 -0.8828 -0.2345
  129OSM   H15C13813   3.068   2.198   5.405 -0.6587 -1.0074  0.9654
  129OSM    C1413814   2.734   2.154   5.358 -0.5463 -0.7614 -1.1572
  129OSM   H14A13815   2.711   2.248   5.407 -1.5834 -2.0391  0.9585
  129OSM   H14B13816   2.666   2.080   5.397  1.2795 -1.9294 -0.0401
  129OSM   H14C13817   2.718   2.162   5.252  0.0403 -1.6002 -1.3209
  129OSM    C1313818   2.905   1.992   5.303  0.3850  0.0925  0.7597
  129OSM   H13A13819   2.941   2.032   5.210 -0.0072  0.4317  0.7489
  129OSM   H13B13820   2.814   1.935   5.289  0.8110 -0.6806  1.0736
  129OSM   H13C13821   2.980   1.930   5.350 -0.2066 -1.3143 -0.0685
  129OSM    C1213822   2.862   2.051   5.533  0.1058 -0.2205  1.2232
  129OSM   H12A13823   2.788   1.973   5.533 -0.5770  0.3939  0.0179
  129OSM   H12B13824   2.818   2.128   5.595 -0.7556 -1.4932  2.2256
  129OSM    C1113825   2.992   1.998   5.598 -0.7710 -0.3160 -0.6347
  129OSM   H11A13826   2.955   1.984   5.702  0.9980  1.3764  0.2889
  129OSM   H11B13827   3.066   2.081   5.592 -0.0125 -0.9068  0.3122
  129OSM      P13828   2.987   1.729   5.532  0.1815  0.0392 -0.1567
  129OSM    O1313829   2.867   1.712   5.451  0.0646 -0.5898  0.5824
  129OSM    O1413830   3.094   1.641   5.492 -0.3434  0.3660  0.0895
  129OSM    O1113831   2.956   1.701   5.681  0.3355  0.1567  0.0726
  129OSM    O1213832   3.040   1.881   5.533 -0.3011 -0.5797  0.4220
  129OSM    C1S13833   3.044   1.717   5.792 -0.6165 -0.1064  0.2475
  129OSM    H1S13834   3.038   1.817   5.841  0.0956  0.6668 -1.1613
  129OSM    H1T13835   3.150   1.703   5.764 -0.4876 -1.9932  1.5037
  129OSM     NF13836   3.144   1.646   5.998 -0.3978 -0.0523  0.0865
  129OSM    HNF13837   3.222   1.584   6.003 -1.0304 -1.0226 -1.3505
  129OSM    C2S13838   3.027   1.619   5.907  0.2013 -0.2659  0.1082
  129OSM    H2S13839   2.934   1.644   5.962  0.2511 -1.0364  0.5587
  129OSM    C3S13840   3.027   1.473   5.858 -0.0555  0.6014  0.3555
  129OSM    H3S13841   3.128   1.454   5.816 -0.9027  0.7347 -1.8640
  129OSM     O313842   2.938   1.442   5.754 -0.1319  0.0191  0.8499
  129OSM    HO313843   2.926   1.527   5.712 -1.0559 -0.7682 -0.5632
  129OSM    C4S13844   2.983   1.386   5.965  0.2172  0.6096  0.0512
  129OSM    H4S13845   2.876   1.390   5.989  0.0453 -3.2808  0.6546
  129OSM    C5S13846   3.063   1.307   6.035 -0.5548  0.0775  0.1603
  129OSM    H5S13847   3.169   1.293   6.010 -0.2851  0.9136  0.7753
  129OSM    C6S13848   3.027   1.221   6.152  0.3728 -0.3706 -0.0634
  129OSM    H6S13849   3.023   1.118   6.111  0.1058 -0.1995 -0.4703
  129OSM    H6T13850   2.925   1.245   6.190 -0.4943 -1.7931 -1.3992
  129OSM    C7S13851   3.131   1.222   6.267 -0.0379  0.8062  0.1308
  129OSM    H7S13852   3.173   1.322   6.293  0.3677  0.9019 -0.8378
  129OSM    H7T13853   3.218   1.157   6.245 -0.4035  1.0368 -2.2965
  129OSM    C8S13854   3.059   1.174   6.390 -0.2087 -0.4534 -0.2864
  129OSM    H8S13855   3.017   1.072   6.374 -2.3013  0.4943 -1.1278
  129OSM    H8T13856   2.974   1.244   6.406  0.0840 -0.3550  0.9701
  129OSM    C9S13857   3.142   1.175   6.518 -1.3178  0.5691 -0.4008
  129OSM    H9S13858   3.199   1.268   6.534 -1.0954  0.6486 -1.5739
  129OSM    H9T13859   3.212   1.090   6.526 -1.1725  0.8602  2.5822
  129OSM   C10S13860   3.060   1.157   6.645  0.5863 -0.0178 -0.0303
  129OSM   H10S13861   3.015   1.056   6.634  1.0883 -0.5260  2.2528
  129OSM   H10T13862   2.987   1.241   6.637  0.4659 -0.2598 -2.0016
  129OSM   C11S13863   3.148   1.160   6.761  0.6880  0.2132 -1.4086
  129OSM   H11S13864   3.209   1.252   6.768 -0.1064  0.6089  2.3405
  129OSM   H11T13865   3.213   1.070   6.764  0.7791  0.3026 -0.1275
  129OSM   C12S13866   3.063   1.133   6.889 -0.8265  0.4606 -0.7151
  129OSM   H12S13867   3.036   1.025   6.884  1.8692 -0.2141 -2.6714
  129OSM   H12T13868   2.979   1.204   6.873 -1.1775  0.7198  1.8166
  129OSM   C13S13869   3.137   1.157   7.021  0.4505 -0.3216 -0.3203
  129OSM   H13S13870   3.199   1.248   7.008  0.1952  0.1089  1.2624
  129OSM   H13T13871   3.202   1.074   7.057 -0.3705 -0.2830  1.3558
  129OSM   C14S13872   3.037   1.179   7.136 -0.2407 -0.5509  0.5219
  129OSM   H14S13873   3.004   1.074   7.150 -4.5876  0.4826 -0.5779
  129OSM   H14T13874   2.950   1.241   7.106 -0.4549 -0.1095  1.9876
  129OSM   C15S13875   3.097   1.233   7.268 -0.1761 -0.4435 -0.1416
  129OSM   H15S13876   3.151   1.329   7.255  1.3093 -1.3034 -0.4783
  129OSM   H15T13877   3.177   1.164   7.301 -2.1727 -2.9913 -0.2848
  129OSM   C16S13878   2.993   1.218   7.384 -0.5614  0.3315  0.6574
  129OSM   H16S13879   2.967   1.111   7.368  0.3293  0.5733 -3.7471
  129OSM   H16T13880   2.919   1.300   7.368  1.7105  2.1934 -0.9344
  129OSM   C17S13881   3.077   1.244   7.513 -0.4347  0.3220  0.1586
  129OSM   H17S13882   3.170   1.184   7.503  0.4447  1.6688  0.0435
  129OSM   H17T13883   3.013   1.195   7.589 -0.6148  2.0171  1.1260
  129OSM   C18S13884   3.102   1.386   7.549  0.0171 -0.7818 -0.2821
  129OSM   H18S13885   3.006   1.441   7.554 -0.7632 -2.1511  0.4522
  129OSM   H18T13886   3.167   1.440   7.477  2.2751 -1.0062  1.4445
  129OSM   H18U13887   3.147   1.383   7.651 -0.1789  1.7043 -0.0602
  129OSM    C1F13888   3.162   1.760   6.077  0.2986 -0.9477  0.7174
  129OSM     OF13889   3.082   1.860   6.084 -0.5625  0.3481 -0.2332
  129OSM    C2F13890   3.290   1.764   6.157 -0.0555  0.0879  0.5662
  129OSM    H2F13891   3.357   1.831   6.098  0.3289  0.2363  1.1605
  129OSM    H2G13892   3.353   1.672   6.168  1.2522  1.0843  1.7711
  129OSM    C3F13893   3.265   1.815   6.304  0.2555 -1.0672 -0.2788
  129OSM    H3F13894   3.207   1.907   6.282  2.0557  0.7189  1.9273
  129OSM    H3G13895   3.361   1.839   6.354  2.0817 -1.4016 -3.4298
  129OSM    C4F13896   3.163   1.722   6.375 -0.5622  0.3788  0.0023
  129OSM    H4F13897   3.094   1.684   6.297  1.4817 -0.4728 -1.5076
  129OSM    H4G13898   3.094   1.778   6.441 -0.5226 -0.4769  0.7813
  129OSM    C5F13899   3.232   1.608   6.451 -0.2399  0.0389 -0.2929
  129OSM    H5F13900   3.320   1.580   6.390  0.2549  1.0077 -0.0582
  129OSM    H5G13901   3.170   1.519   6.472  1.4756 -0.8323  1.4368
  129OSM    C6F13902   3.279   1.659   6.589  0.4465 -0.0506  0.0148
  129OSM    H6F13903   3.334   1.755   6.578 -0.7786  0.5366 -1.2190
  129OSM    H6G13904   3.347   1.589   6.644  0.7458 -0.2040 -0.5393
  129OSM    C7F13905   3.154   1.667   6.681 -0.1041  0.2750  0.0829
  129OSM    H7F13906   3.066   1.709   6.629  0.3572 -1.8721 -2.7291
  129OSM    H7G13907   3.185   1.723   6.771  2.0194  0.9924 -1.0191
  129OSM    C8F13908   3.112   1.529   6.740  0.3652  0.0182 -0.2901
  129OSM    H8F13909   3.200   1.474   6.778 -0.0161 -1.2952 -1.2297
  129OSM    H8G13910   3.086   1.473   6.648  2.3894  2.2977 -2.4106
  129OSM    C9F13911   2.991   1.522   6.827  0.5427 -0.2117 -0.0807
  129OSM    H9F13912   2.891   1.489   6.796 -0.5381  2.4063  0.3617
  129OSM   C10F13913   2.984   1.563   6.953 -0.3289 -0.1337  0.0369
  129OSM   H10F13914   2.883   1.566   6.996 -0.9983  1.4027 -1.5480
  129OSM   C11F13915   3.098   1.635   7.027 -0.1406  0.5744 -0.2465
  129OSM   H11F13916   3.092   1.742   6.998  0.4456  0.6453 -0.1088
  129OSM   H11G13917   3.194   1.594   6.989 -0.9398  0.7491 -2.5961
  129OSM   C12F13918   3.097   1.629   7.182  0.1196  0.0235 -0.0072
  129OSM   H12F13919   3.204   1.619   7.210  0.9425 -2.0834 -3.2367
  129OSM   H12G13920   3.054   1.531   7.212  2.7078 -1.0881  0.3919
  129OSM   C13F13921   3.024   1.750   7.241  0.4690  0.4441  0.2314
  129OSM   H13F13922   2.926   1.757   7.189  1.1872  0.4971 -1.1441
  129OSM   H13G13923   3.078   1.845   7.220  1.2854 -0.0295  0.1278
  129OSM   C14F13924   2.995   1.728   7.387  0.1028 -0.3833  0.0681
  129OSM   H14F13925   3.041   1.636   7.429  1.6038  0.8103  1.1452
  129OSM   H14G13926   2.887   1.720   7.410  0.0497  0.6772  0.2233
  129OSM   C15F13927   3.049   1.836   7.479 -0.1650 -0.0803 -0.5870
  129OSM   H15F13928   2.985   1.926   7.462 -2.4579 -1.5923 -0.4612
  129OSM   H15G13929   3.152   1.859   7.444 -0.5286  1.2490 -0.8733
  129OSM   C16F13930   3.074   1.794   7.628  0.3346  0.5740 -0.0498
  129OSM   H16F13931   3.146   1.855   7.686  1.6574 -1.8472  1.0078
  129OSM   H16G13932   3.118   1.692   7.623 -1.8885 -0.5334  1.5374
  129OSM   C17F13933   2.944   1.789   7.712  0.0933 -0.3811 -0.3425
  129OSM   H17F13934   2.864   1.777   7.637  0.1776  0.5169 -0.5850
  129OSM   H17G13935   2.925   1.887   7.761 -1.6546 -0.8153 -0.1000
  129OSM   C18F13936   2.961   1.663   7.805  0.4292 -0.0375  0.1962
  129OSM   H18F13937   2.867   1.626   7.850 -0.1382 -0.6822 -1.4365
  129OSM   H18G13938   3.035   1.691   7.883 -0.6644  0.9048  0.9128
  129OSM   H18H13939   3.002   1.584   7.738  1.8947  0.6604  0.2149
  130OSM      N13940   5.943   4.817   5.558 -0.1371 -0.2724 -0.0996
  130OSM    C1513941   5.810   4.750   5.554  0.7832  0.0905 -0.0892
  130OSM   H15A13942   5.833   4.645   5.559  1.8207  0.3650  2.8489
  130OSM   H15B13943   5.754   4.765   5.463 -0.4231 -1.2850  0.3749
  130OSM   H15C13944   5.749   4.773   5.640  0.9037 -0.3662  0.1194
  130OSM    C1413945   6.039   4.727   5.627 -0.1262 -0.1148  0.6166
  130OSM   H14A13946   5.989   4.700   5.719  0.2998 -1.5385  0.4613
  130OSM   H14B13947   6.137   4.765   5.648  0.3416 -1.6067  1.2931
  130OSM   H14C13948   6.044   4.637   5.567 -2.9824  0.5998 -0.8712
  130OSM    C1313949   5.997   4.840   5.420 -0.2655 -0.2594  0.6054
  130OSM   H13A13950   5.937   4.917   5.373  0.1512 -1.2417 -1.6854
  130OSM   H13B13951   5.999   4.747   5.365  1.3197 -0.9011  1.7069
  130OSM   H13C13952   6.097   4.875   5.400 -0.6989 -0.1235 -1.6279
  130OSM    C1213953   5.930   4.960   5.620  0.1053  0.3369 -0.7559
  130OSM   H12A13954   5.854   5.012   5.564 -0.1151 -0.4981 -1.2515
  130OSM   H12B13955   6.025   5.004   5.595  2.4904 -2.1081  2.9459
  130OSM    C1113956   5.907   4.975   5.770  0.3285 -0.7909 -0.9500
  130OSM   H11A13957   5.936   5.075   5.809  3.2838 -0.6721 -3.1139
  130OSM   H11B13958   5.988   4.913   5.814  1.8879  1.1875 -0.8909
  130OSM      P13959   5.652   5.018   5.753  0.1552 -0.2522 -0.1106
  130OSM    O1313960   5.674   5.088   5.623  0.3072 -0.0740 -0.0076
  130OSM    O1413961   5.529   4.940   5.767  0.5928 -0.2063 -0.1622
  130OSM    O1113962   5.638   5.123   5.870 -0.1179 -0.0139 -0.7736
  130OSM    O1213963   5.778   4.931   5.798  0.2075  0.4302  0.1995
  130OSM    C1S13964   5.642   5.077   6.003  0.3011  0.0586 -0.3294
  130OSM    H1S13965   5.653   4.966   6.003  1.3015  0.1391 -1.4273
  130OSM    H1T13966   5.552   5.111   6.057  0.0221  0.5120 -1.0650
  130OSM     NF13967   5.726   5.060   6.225 -0.8209 -0.2697  0.0882
  130OSM    HNF13968   5.688   5.119   6.295  1.8157  1.7292  0.0015
  130OSM    C2S13969   5.764   5.116   6.094  0.2671 -0.2477  0.7025
  130OSM    H2S13970   5.864   5.077   6.066  0.7932  1.9846 -0.7656
  130OSM    C3S13971   5.771   5.272   6.091 -0.5451 -0.1284  0.2968
  130OSM    H3S13972   5.668   5.308   6.113 -0.4665 -0.4056  1.1735
  130OSM     O313973   5.802   5.332   5.965  0.1881 -0.6467  0.2336
  130OSM    HO313974   5.759   5.281   5.896  1.7631 -1.1248 -0.4306
  130OSM    C4S13975   5.863   5.317   6.190  0.4491  0.7945  0.1654
  130OSM    H4S13976   5.966   5.279   6.180 -0.1445 -0.9124  0.1579
  130OSM    C5S13977   5.819   5.389   6.294 -0.7816  0.3617  0.0988
  130OSM    H5S13978   5.714   5.418   6.310 -0.2084  2.1550  0.7947
  130OSM    C6S13979   5.915   5.417   6.405 -0.0222 -0.9120  0.8055
  130OSM    H6S13980   5.929   5.528   6.405  0.0371 -0.8799 -1.2359
  130OSM    H6T13981   6.018   5.376   6.395 -0.0592 -0.5191 -2.2796
  130OSM    C7S13982   5.866   5.366   6.544 -0.8214 -0.5390 -0.4719
  130OSM    H7S13983   5.768   5.417   6.558  1.1500  3.4494  0.4919
  130OSM    H7T13984   5.924   5.420   6.622 -1.1906  0.2800 -0.7472
  130OSM    C8S13985   5.887   5.214   6.558 -1.2394  0.3501  0.4052
  130OSM    H8S13986   5.979   5.205   6.496 -0.8336  1.0522  0.8874
  130OSM    H8T13987   5.808   5.153   6.510  0.0876 -0.3821 -0.9537
  130OSM    C9S13988   5.911   5.164   6.705 -0.3077  0.5336  0.0235
  130OSM    H9S13989   5.969   5.242   6.758 -1.0130  0.5637  0.7729
  130OSM    H9T13990   5.957   5.063   6.703  1.8374  1.4535 -1.6429
  130OSM   C10S13991   5.778   5.159   6.774  0.2880  0.2922  0.0553
  130OSM   H10S13992   5.704   5.105   6.711  0.2961  0.2856  0.0516
  130OSM   H10T13993   5.738   5.263   6.783 -0.6274 -0.0087 -0.4044
  130OSM   C11S13994   5.784   5.094   6.908 -0.0071 -0.4876  0.4060
  130OSM   H11S13995   5.854   5.148   6.975 -0.5003  0.1513  0.4197
  130OSM   H11T13996   5.830   4.994   6.898  2.7723  0.8334 -1.2011
  130OSM   C12S13997   5.651   5.091   6.982 -0.2988  0.1856  0.3222
  130OSM   H12S13998   5.560   5.071   6.921 -0.9962  0.4853  1.2466
  130OSM   H12T13999   5.642   5.184   7.042  1.2879  0.0583  0.8084
  130OSM   C13S14000   5.659   4.990   7.098 -0.0257 -0.1962 -1.0522
  130OSM   H13S14001   5.732   5.027   7.173 -0.6202 -0.5459 -0.2893
  130OSM   H13T14002   5.691   4.890   7.061  0.7253  0.2511 -1.6383
  130OSM   C14S14003   5.526   4.960   7.166  0.4067 -0.4919  0.1788
  130OSM   H14S14004   5.543   4.900   7.258  1.5134  0.9987  0.9938
  130OSM   H14T14005   5.462   4.896   7.101  0.4135  0.2750 -0.5928
  130OSM   C15S14006   5.438   5.082   7.210  0.2333  0.7242 -0.1146
  130OSM   H15S14007   5.429   5.160   7.132  0.3249 -0.2600 -1.1243
  130OSM   H15T14008   5.506   5.115   7.292  0.9564  0.6412 -0.6772
  130OSM   C16S14009   5.302   5.042   7.266 -0.0680 -0.6737  0.9487
  130OSM   H16S14010   5.320   4.956   7.334 -0.3748 -2.0989 -0.6910
  130OSM   H16T14011   5.233   5.002   7.189  1.3866 -0.5529 -0.4823
  130OSM   C17S14012   5.241   5.147   7.358  0.0773  0.2180  0.6476
  130OSM   H17S14013   5.218   5.244   7.308  0.2057  0.1036  0.3618
  130OSM   H17T14014   5.318   5.172   7.434  1.0198 -2.1393  0.5574
  130OSM   C18S14015   5.113   5.094   7.418 -0.3384 -0.0402 -0.4837
  130OSM   H18S14016   5.049   5.054   7.337 -0.5828 -3.0357  1.0705
  130OSM   H18T14017   5.058   5.180   7.462 -1.3804 -0.2146 -1.4081
  130OSM   H18U14018   5.117   5.024   7.504 -3.9597 -0.1223 -0.2141
  130OSM    C1F14019   5.753   4.932   6.257  0.8731 -0.9584 -0.2915
  130OSM     OF14020   5.773   4.845   6.179  0.2809  0.4161  0.0090
  130OSM    C2F14021   5.753   4.902   6.403 -0.5897 -0.4893 -0.2475
  130OSM    H2F14022   5.662   4.946   6.450 -0.5197 -0.0318 -0.5352
  130OSM    H2G14023   5.847   4.950   6.439 -0.1783 -0.6639 -1.0750
  130OSM    C3F14024   5.760   4.747   6.428 -0.0117 -0.2352 -0.5942
  130OSM    H3F14025   5.862   4.703   6.420  0.2625  0.4541 -1.0122
  130OSM    H3G14026   5.689   4.696   6.361 -1.2046  0.3500  0.1852
  130OSM    C4F14027   5.723   4.705   6.577  1.0144  0.5483  0.0851
  130OSM    H4F14028   5.714   4.596   6.557  1.4483  0.8896 -2.2546
  130OSM    H4G14029   5.623   4.754   6.582  1.0419  0.5910  0.2382
  130OSM    C5F14030   5.818   4.754   6.685 -0.2174 -0.0473 -0.1265
  130OSM    H5F14031   5.841   4.860   6.661  0.3558 -0.4887 -1.6344
  130OSM    H5G14032   5.906   4.687   6.680 -0.7293 -0.8270  0.9712
  130OSM    C6F14033   5.757   4.744   6.826  0.0205  0.3357 -0.0318
  130OSM    H6F14034   5.665   4.806   6.829 -1.4972 -1.8443  1.2253
  130OSM    H6G14035   5.831   4.780   6.901 -0.0077  1.5394 -0.5661
  130OSM    C7F14036   5.716   4.605   6.877 -0.3844 -1.1160  0.2461
  130OSM    H7F14037   5.799   4.534   6.856  0.8084 -0.3913  2.3414
  130OSM    H7G14038   5.628   4.581   6.813  1.2917 -0.1524 -2.6392
  130OSM    C8F14039   5.685   4.597   7.028  0.4284 -0.4331  0.8478
  130OSM    H8F14040   5.587   4.650   7.031 -0.1521 -1.4732  0.5464
  130OSM    H8G14041   5.766   4.645   7.087 -1.1784  1.6781  1.4951
  130OSM    C9F14042   5.671   4.455   7.074  0.5051  0.3964 -0.6516
  130OSM    H9F14043   5.648   4.383   6.994  1.4645 -1.3145  0.5513
  130OSM   C10F14044   5.687   4.413   7.207  0.2813  0.1007 -0.0343
  130OSM   H10F14045   5.665   4.312   7.246  0.2673  0.9394  2.3043
  130OSM   C11F14046   5.709   4.514   7.319 -0.4478 -0.6848 -0.1346
  130OSM   H11F14047   5.807   4.564   7.304 -1.9320  2.2268 -0.9439
  130OSM   H11G14048   5.722   4.473   7.421  1.6966  1.5950  0.6016
  130OSM   C12F14049   5.605   4.635   7.339 -0.6984  0.4209 -0.0311
  130OSM   H12F14050   5.540   4.632   7.249  0.0727 -0.9850 -0.5653
  130OSM   H12G14051   5.662   4.730   7.348  0.6837 -0.4847  1.5606
  130OSM   C13F14052   5.510   4.621   7.460 -1.2438  0.3532 -0.4262
  130OSM   H13F14053   5.575   4.625   7.550 -0.6912  1.5876 -0.8516
  130OSM   H13G14054   5.467   4.519   7.450  0.2628 -0.4676  0.9533
  130OSM   C14F14055   5.399   4.725   7.473 -0.4627  0.5363 -0.7212
  130OSM   H14F14056   5.362   4.743   7.370  0.0983 -0.5150 -1.1298
  130OSM   H14G14057   5.432   4.812   7.533  0.5113 -0.4512  0.2247
  130OSM   C15F14058   5.285   4.656   7.540  0.8159  0.4582 -0.1218
  130OSM   H15F14059   5.316   4.636   7.645 -0.3346 -1.6548 -0.1256
  130OSM   H15G14060   5.247   4.559   7.502 -0.8736 -0.3258  3.1437
  130OSM   C16F14061   5.175   4.757   7.539 -0.1013 -0.0603 -0.2481
  130OSM   H16F14062   5.131   4.768   7.438  2.1346  1.0411 -1.1798
  130OSM   H16G14063   5.214   4.857   7.568 -1.2350  0.0498  0.9548
  130OSM   C17F14064   5.055   4.732   7.630  1.0334  0.4238  0.8602
  130OSM   H17F14065   5.085   4.718   7.736 -0.4425 -2.4258  0.9816
  130OSM   H17G14066   5.015   4.633   7.601  0.1741  1.0674 -0.1967
  130OSM   C18F14067   4.939   4.831   7.605  0.1097 -0.7990  0.2925
  130OSM   H18F14068   4.929   4.841   7.495  0.5312 -2.3198  0.0910
  130OSM   H18G14069   4.951   4.927   7.659  0.6307 -1.7804  2.0089
  130OSM   H18H14070   4.843   4.783   7.636 -0.8622 -0.4446 -2.0117
  131OSM      N14071   3.201   1.354   5.358  0.1586  0.9384  1.0423
  131OSM    C1514072   3.077   1.381   5.277  0.2099  0.5744 -0.1501
  131OSM   H15A14073   3.097   1.371   5.171  0.9454 -0.0797  0.0324
  131OSM   H15B14074   3.033   1.479   5.286  0.7051  0.8097 -0.2309
  131OSM   H15C14075   3.005   1.310   5.314  1.2632 -0.4300  0.0509
  131OSM    C1414076   3.249   1.220   5.318  0.4127  0.2214 -0.2386
  131OSM   H14A14077   3.274   1.241   5.215 -1.1791  1.1792 -0.4726
  131OSM   H14B14078   3.175   1.141   5.317 -0.2673  0.8327 -1.5926
  131OSM   H14C14079   3.340   1.195   5.370  0.5260 -1.1726 -1.0622
  131OSM    C1314080   3.297   1.459   5.323  0.2198  0.3688 -0.2673
  131OSM   H13A14081   3.383   1.448   5.388  0.1212 -2.6348 -0.4979
  131OSM   H13B14082   3.248   1.554   5.311  2.6894  1.5815 -1.5611
  131OSM   H13C14083   3.334   1.446   5.222  1.8891 -0.1089  0.3616
  131OSM    C1214084   3.168   1.365   5.508 -0.1521 -0.2145  0.2662
  131OSM   H12A14085   3.072   1.320   5.525 -1.4552  2.1881 -0.2928
  131OSM   H12B14086   3.150   1.470   5.524 -2.5726 -0.2933 -1.3610
  131OSM    C1114087   3.273   1.311   5.610  0.0234 -0.8581  0.2189
  131OSM   H11A14088   3.288   1.207   5.576  2.7177  0.8492 -4.6743
  131OSM   H11B14089   3.241   1.318   5.717 -0.2985  1.2805  0.0299
  131OSM      P14090   3.538   1.316   5.568  0.3837 -0.5086 -0.3338
  131OSM    O1314091   3.552   1.263   5.438 -0.4773 -0.0408  0.0165
  131OSM    O1414092   3.631   1.424   5.607 -0.4613  0.3308 -0.1189
  131OSM    O1114093   3.543   1.204   5.673 -0.0844 -0.0174 -0.3652
  131OSM    O1214094   3.393   1.380   5.596  0.2785 -0.6258  0.1285
  131OSM    C1S14095   3.671   1.174   5.739  0.2848  0.3866  0.0102
  131OSM    H1S14096   3.756   1.238   5.704 -0.1615  1.5021  0.9027
  131OSM    H1T14097   3.704   1.070   5.721 -1.2205 -0.1975  0.4649
  131OSM     NF14098   3.790   1.125   5.947  0.1655 -0.5942 -0.1071
  131OSM    HNF14099   3.782   1.035   5.989 -1.1144 -0.1136  0.7481
  131OSM    C2S14100   3.663   1.181   5.900 -0.5005 -0.1887 -0.1228
  131OSM    H2S14101   3.657   1.287   5.933  0.6139 -0.5167  1.2781
  131OSM    C3S14102   3.524   1.114   5.959 -0.0037  0.4809 -0.2523
  131OSM    H3S14103   3.514   1.007   5.932 -4.3572  1.1463 -2.0700
  131OSM     O314104   3.410   1.192   5.913  0.0210 -0.3378 -0.3434
  131OSM    HO314105   3.440   1.244   5.837 -1.3312  2.7073  1.0283
  131OSM    C4S14106   3.528   1.122   6.110  0.3354 -0.9226 -0.2680
  131OSM    H4S14107   3.501   1.219   6.155 -0.0948 -1.5909  0.9467
  131OSM    C5S14108   3.568   1.022   6.186 -0.1104  0.3764  0.0139
  131OSM    H5S14109   3.596   0.923   6.148 -1.9048  0.8119 -2.8058
  131OSM    C6S14110   3.582   1.022   6.329  0.6476  0.3558  0.3512
  131OSM    H6S14111   3.681   0.982   6.359  0.4979 -0.0820  0.2592
  131OSM    H6T14112   3.500   0.960   6.371  0.2320  0.3376 -0.4797
  131OSM    C7S14113   3.565   1.151   6.411  1.1745 -0.4427 -0.6445
  131OSM    H7S14114   3.466   1.198   6.390  2.1356  0.4799 -3.6325
  131OSM    H7T14115   3.644   1.228   6.401  0.2334  0.7997  0.9722
  131OSM    C8S14116   3.572   1.125   6.566  0.0033  0.1045 -0.2677
  131OSM    H8S14117   3.675   1.089   6.593 -0.3062 -0.3113  0.4095
  131OSM    H8T14118   3.501   1.042   6.584 -0.9857  0.3973 -2.6072
  131OSM    C9S14119   3.544   1.246   6.651 -0.1642  0.6549  0.1869
  131OSM    H9S14120   3.451   1.293   6.612 -0.1890 -1.7651 -3.0754
  131OSM    H9T14121   3.624   1.319   6.627  0.9242 -0.6708 -0.2871
  131OSM   C10S14122   3.540   1.203   6.791  0.0680  0.3746 -0.0775
  131OSM   H10S14123   3.623   1.134   6.815 -1.0748 -0.3348  2.1718
  131OSM   H10T14124   3.449   1.143   6.814  0.4106 -0.4086 -0.7439
  131OSM   C11S14125   3.535   1.322   6.884  0.7251 -0.8741  0.3336
  131OSM   H11S14126   3.450   1.383   6.846  1.7302 -0.0157 -0.6022
  131OSM   H11T14127   3.626   1.385   6.880  0.1551  0.1171  2.1996
  131OSM   C12S14128   3.499   1.275   7.023  0.4746 -0.0204 -0.1587
  131OSM   H12S14129   3.578   1.206   7.060 -0.7931 -1.0399  0.7080
  131OSM   H12T14130   3.402   1.222   7.025  0.1875  0.4880 -0.3997
  131OSM   C13S14131   3.499   1.386   7.132 -1.1603  0.7174  0.2230
  131OSM   H13S14132   3.411   1.450   7.110 -1.8943 -0.9755 -2.2890
  131OSM   H13T14133   3.587   1.450   7.111  1.0626 -2.4547 -0.8271
  131OSM   C14S14134   3.502   1.344   7.283 -0.0459  0.5727 -0.1052
  131OSM   H14S14135   3.598   1.288   7.283 -0.9243 -0.9933  0.8939
  131OSM   H14T14136   3.419   1.274   7.304  0.2297  0.5592  0.9713
  131OSM   C15S14137   3.493   1.457   7.382  0.0956  0.6067 -0.2625
  131OSM   H15S14138   3.397   1.512   7.381  0.3611  1.1184  0.8248
  131OSM   H15T14139   3.571   1.531   7.355 -0.0257  1.2440  1.0540
  131OSM   C16S14140   3.516   1.422   7.524 -0.7387  0.3545  0.0555
  131OSM   H16S14141   3.441   1.350   7.565 -0.6441 -0.5093 -1.2297
  131OSM   H16T14142   3.499   1.509   7.591  0.9684  1.3408 -0.7245
  131OSM   C17S14143   3.658   1.364   7.557 -0.4626 -0.0102 -0.0013
  131OSM   H17S14144   3.725   1.423   7.491 -0.0283 -2.0030 -1.4360
  131OSM   H17T14145   3.670   1.258   7.527 -0.5133 -0.1999  0.6296
  131OSM   C18S14146   3.708   1.387   7.701 -0.2919  0.6157  0.0056
  131OSM   H18S14147   3.801   1.327   7.715  0.0924  1.2528  0.2703
  131OSM   H18T14148   3.631   1.343   7.768 -0.0468  3.0157  2.0106
  131OSM   H18U14149   3.727   1.495   7.719 -1.2030  0.8781 -0.5522
  131OSM    C1F14150   3.906   1.190   5.951 -0.6507  0.1365 -0.1583
  131OSM     OF14151   3.908   1.311   5.917 -0.6209 -0.1948 -0.4558
  131OSM    C2F14152   4.027   1.121   6.005  0.1728  0.7704  0.2177
  131OSM    H2F14153   4.053   1.044   5.930 -1.1198 -1.8257  2.2435
  131OSM    H2G14154   3.986   1.073   6.097  1.6124 -1.0855 -0.0599
  131OSM    C3F14155   4.143   1.217   6.041  0.3612 -0.0732 -0.9673
  131OSM    H3F14156   4.168   1.278   5.952 -2.0769  0.0294 -1.6756
  131OSM    H3G14157   4.230   1.152   6.063  0.2538  0.6992  2.0924
  131OSM    C4F14158   4.117   1.307   6.158 -0.0593 -1.0754 -0.3459
  131OSM    H4F14159   4.057   1.390   6.115  1.2422 -1.1150 -2.3336
  131OSM    H4G14160   4.213   1.351   6.190 -1.0279  1.5721 -0.8048
  131OSM    C5F14161   4.045   1.242   6.280 -0.6482 -0.1579  0.3836
  131OSM    H5F14162   4.079   1.141   6.308 -0.9706 -0.5247 -0.5158
  131OSM    H5G14163   3.938   1.219   6.263 -0.5166 -1.5847  1.3523
  131OSM    C6F14164   4.065   1.320   6.406 -0.2287 -0.6461  0.1893
  131OSM    H6F14165   4.033   1.425   6.391  1.1599 -0.5151 -2.3929
  131OSM    H6G14166   4.171   1.322   6.439  0.0918  0.3127 -0.8264
  131OSM    C7F14167   3.991   1.254   6.524 -0.0505 -0.1333 -0.1424
  131OSM    H7F14168   4.031   1.150   6.527 -3.7866 -1.7313  0.8918
  131OSM    H7G14169   3.886   1.243   6.488 -0.6438 -0.6947  1.6439
  131OSM    C8F14170   4.014   1.311   6.658  0.0593 -0.5579 -0.5038
  131OSM    H8F14171   3.986   1.418   6.664 -1.1451 -0.9277  1.6336
  131OSM    H8G14172   4.123   1.300   6.674 -0.1215 -0.2288  1.1225
  131OSM    C9F14173   3.945   1.231   6.770 -0.2422 -0.1877  0.5612
  131OSM    H9F14174   3.919   1.128   6.740 -0.5946 -1.0666  3.5556
  131OSM   C10F14175   3.930   1.272   6.895 -0.3964  0.2188 -0.0470
  131OSM   H10F14176   3.875   1.208   6.965 -0.3078 -2.0872 -1.9423
  131OSM   C11F14177   3.975   1.404   6.948 -0.8092  0.4140  0.1979
  131OSM   H11F14178   3.897   1.481   6.927 -1.4208  0.3733  2.1148
  131OSM   H11G14179   4.078   1.418   6.909 -0.5701 -0.3660  0.5301
  131OSM   C12F14180   3.988   1.388   7.103  0.1299 -0.6255  0.3395
  131OSM   H12F14181   3.886   1.383   7.146  0.3714 -0.0310  1.0067
  131OSM   H12G14182   4.027   1.486   7.139 -2.8590  1.0749 -0.6762
  131OSM   C13F14183   4.085   1.280   7.153 -0.2006 -0.1093 -0.2758
  131OSM   H13F14184   4.179   1.295   7.095  0.4417 -0.6940  0.5796
  131OSM   H13G14185   4.047   1.179   7.127  0.3051 -0.3283 -0.1821
  131OSM   C14F14186   4.115   1.287   7.303 -0.4596 -0.3445  0.0688
  131OSM   H14F14187   4.182   1.208   7.343 -0.5141  1.0790  3.2878
  131OSM   H14G14188   4.023   1.268   7.363 -0.0716 -1.1198  0.4390
  131OSM   C15F14189   4.163   1.427   7.354 -0.2073 -0.7946 -0.7917
  131OSM   H15F14190   4.081   1.501   7.345  0.0150 -0.6774 -2.0315
  131OSM   H15G14191   4.248   1.446   7.284  0.8763 -1.0126  0.4260
  131OSM   C16F14192   4.214   1.423   7.497  0.5621  0.4573  0.0796
  131OSM   H16F14193   4.257   1.521   7.528  0.8105  0.4346 -0.1885
  131OSM   H16G14194   4.303   1.358   7.496  1.2825  1.3838  1.3578
  131OSM   C17F14195   4.105   1.373   7.585 -0.2272  0.3548 -0.5494
  131OSM   H17F14196   4.075   1.268   7.562  1.8079 -0.2455 -0.6780
  131OSM   H17G14197   4.022   1.444   7.569 -0.4670 -0.2456 -2.1689
  131OSM   C18F14198   4.144   1.372   7.736  0.3440 -0.0771 -0.1127
  131OSM   H18F14199   4.232   1.307   7.753 -1.5011 -2.5231  0.8097
  131OSM   H18G14200   4.060   1.326   7.793  0.0624 -0.9814 -1.2175
  131OSM   H18H14201   4.159   1.476   7.771 -1.5723  0.2528 -0.1651
  132OSM      N14202   5.441   1.501   5.480  1.0461  0.1372 -1.2013
  132OSM    C1514203   5.468   1.413   5.359 -0.9721  0.0873  0.3043
  132OSM   H15A14204   5.382   1.418   5.294 -0.7716  2.6932  0.1139
  132OSM   H15B14205   5.486   1.311   5.389 -2.6875  0.2178  1.8752
  132OSM   H15C14206   5.552   1.459   5.308 -1.1197  1.2271  1.0688
  132OSM    C1414207   5.299   1.461   5.540 -0.0486  0.5192  0.5880
  132OSM   H14A14208   5.270   1.533   5.616  1.7735 -0.8881  2.7729
  132OSM   H14B14209   5.297   1.367   5.593  0.4600 -0.6152 -1.3125
  132OSM   H14C14210   5.222   1.455   5.465 -1.2673  0.7129  1.7854
  132OSM    C1314211   5.543   1.462   5.586 -0.0510  0.1822  0.1650
  132OSM   H13A14212   5.531   1.370   5.641  0.0203  0.5781  0.8605
  132OSM   H13B14213   5.555   1.542   5.658  0.2960 -0.0375  0.3535
  132OSM   H13C14214   5.640   1.455   5.539 -0.4329  1.0232 -0.7693
  132OSM    C1214215   5.440   1.647   5.445  0.4290 -0.1586 -0.1642
  132OSM   H12A14216   5.373   1.667   5.362  1.4644  3.0335 -0.3610
  132OSM   H12B14217   5.541   1.671   5.416  0.3419  0.5889  0.1374
  132OSM    C1114218   5.396   1.754   5.554 -0.2340  0.1669  0.2564
  132OSM   H11A14219   5.425   1.859   5.530 -0.5079 -0.0126 -0.9621
  132OSM   H11B14220   5.446   1.720   5.647  1.0764  0.7808 -0.2031
  132OSM      P14221   5.159   1.790   5.466  0.1462 -0.4759  0.1572
  132OSM    O1314222   5.227   1.886   5.374  0.2137  0.1684 -0.8832
  132OSM    O1414223   5.079   1.686   5.405  1.5480  0.3630  0.6056
  132OSM    O1114224   5.067   1.880   5.566 -0.1296 -0.3205  0.2528
  132OSM    O1214225   5.258   1.736   5.578 -0.1215  0.4335  0.2530
  132OSM    C1S14226   4.974   1.818   5.655  0.2712 -0.5350  0.4810
  132OSM    H1S14227   4.937   1.718   5.625 -1.1030 -0.6808  2.4537
  132OSM    H1T14228   4.890   1.890   5.667  2.0178  1.8109 -0.5246
  132OSM     NF14229   4.951   1.741   5.887  0.2796 -0.1226  0.6868
  132OSM    HNF14230   4.903   1.798   5.953 -1.3130 -0.2075 -0.3335
  132OSM    C2S14231   5.046   1.801   5.794  0.2815  0.9636 -0.0053
  132OSM    H2S14232   5.124   1.724   5.778 -1.8171 -1.7536  1.7634
  132OSM    C3S14233   5.122   1.928   5.843  0.5653 -0.3282  0.2331
  132OSM    H3S14234   5.046   2.009   5.840 -4.3712 -4.3454  2.5356
  132OSM     O314235   5.228   1.971   5.760 -0.2373 -0.6284  0.8145
  132OSM    HO314236   5.223   1.899   5.696 -0.6501 -1.1767  1.4568
  132OSM    C4S14237   5.163   1.923   5.988  0.4590  0.5741 -0.3465
  132OSM    H4S14238   5.190   1.821   6.018  2.1236  1.0070 -0.2882
  132OSM    C5S14239   5.159   2.017   6.086 -0.5191 -0.2260 -0.2596
  132OSM    H5S14240   5.126   2.118   6.061  1.0890  0.8326  1.5928
  132OSM    C6S14241   5.191   2.007   6.236 -0.1809  0.0593 -0.4028
  132OSM    H6S14242   5.092   2.027   6.284  0.2935  2.6948 -0.3880
  132OSM    H6T14243   5.257   2.093   6.259  1.6705 -0.6975 -2.5696
  132OSM    C7S14244   5.244   1.875   6.298 -0.0922  0.3039 -0.8619
  132OSM    H7S14245   5.337   1.846   6.244  1.9787  0.4382  2.3955
  132OSM    H7T14246   5.167   1.795   6.303  2.6037 -2.4069  0.6941
  132OSM    C8S14247   5.287   1.900   6.444 -0.3051 -0.2063 -0.6797
  132OSM    H8S14248   5.316   2.005   6.466 -1.6928  0.5229 -2.1293
  132OSM    H8T14249   5.378   1.836   6.449 -1.3382 -1.6493  0.4262
  132OSM    C9S14250   5.192   1.843   6.550 -0.0063 -0.0525  0.6385
  132OSM    H9S14251   5.150   1.746   6.516  0.4366  0.0431 -0.2029
  132OSM    H9T14252   5.103   1.909   6.562  1.4460  2.1167  0.0615
  132OSM   C10S14253   5.257   1.808   6.683 -0.0805 -0.7244 -0.1949
  132OSM   H10S14254   5.321   1.894   6.709  1.2732 -1.7318 -0.0852
  132OSM   H10T14255   5.313   1.712   6.690  1.5501  0.1915 -0.1983
  132OSM   C11S14256   5.149   1.777   6.784  1.1140 -0.1830 -0.5131
  132OSM   H11S14257   5.072   1.712   6.736  0.5993  2.1308 -3.1126
  132OSM   H11T14258   5.087   1.866   6.809  0.2921 -0.3111 -1.9637
  132OSM   C12S14259   5.218   1.729   6.914 -0.2771  0.2334  0.0093
  132OSM   H12S14260   5.287   1.814   6.934  1.6142 -1.3910  0.8383
  132OSM   H12T14261   5.287   1.643   6.895 -0.4967  0.1697 -0.5204
  132OSM   C13S14262   5.121   1.702   7.030  0.3313 -0.0073  0.0312
  132OSM   H13S14263   5.058   1.621   6.985  1.1000  0.9031 -2.9186
  132OSM   H13T14264   5.057   1.790   7.052  0.9454  0.4738 -0.0841
  132OSM   C14S14265   5.203   1.659   7.154  0.3779  0.2972  0.0300
  132OSM   H14S14266   5.261   1.746   7.191 -1.0031  0.4030  2.1090
  132OSM   H14T14267   5.274   1.577   7.128  0.5203  1.0528 -2.1107
  132OSM   C15S14268   5.111   1.616   7.269  0.2937  0.2667 -0.4695
  132OSM   H15S14269   5.056   1.526   7.233 -0.9473  0.6569  0.4069
  132OSM   H15T14270   5.036   1.691   7.299  0.5935 -0.0614  1.1747
  132OSM   C16S14271   5.195   1.586   7.395  0.3659  0.1810 -0.1399
  132OSM   H16S14272   5.266   1.669   7.413 -0.1822  0.7576 -0.6309
  132OSM   H16T14273   5.246   1.487   7.382  1.3125  0.1793  2.8639
  132OSM   C17S14274   5.102   1.570   7.518  0.2672 -0.2092 -0.1102
  132OSM   H17S14275   5.029   1.490   7.492  0.6445 -0.2625 -1.0270
  132OSM   H17T14276   5.039   1.659   7.541  0.0091 -0.4145 -0.0214
  132OSM   C18S14277   5.183   1.536   7.640 -0.0769  0.5167 -0.0754
  132OSM   H18S14278   5.258   1.456   7.620 -0.0320  1.3181 -3.7855
  132OSM   H18T14279   5.120   1.518   7.730 -0.7449 -0.2864 -0.6936
  132OSM   H18U14280   5.249   1.623   7.660 -1.2582  2.0149 -2.2938
  132OSM    C1F14281   4.908   1.617   5.872  0.0599  0.0236  0.3270
  132OSM     OF14282   4.950   1.531   5.795  0.2922 -0.0023  0.3086
  132OSM    C2F14283   4.798   1.580   5.965  0.6403 -1.1087 -0.1763
  132OSM    H2F14284   4.718   1.519   5.918 -2.0303  1.9011  0.1446
  132OSM    H2G14285   4.744   1.666   6.011 -1.1270 -1.8689 -0.7420
  132OSM    C3F14286   4.866   1.493   6.071  0.7606  0.6435  0.2361
  132OSM    H3F14287   4.872   1.398   6.012  0.0878  1.2543 -0.8466
  132OSM    H3G14288   4.795   1.460   6.149 -0.4832 -0.2451 -1.2176
  132OSM    C4F14289   4.993   1.538   6.134  0.0789 -0.0110  0.4171
  132OSM    H4F14290   4.978   1.640   6.175 -0.1077 -0.6367  2.0020
  132OSM    H4G14291   5.071   1.543   6.055  1.0697  1.4496  1.4366
  132OSM    C5F14292   5.049   1.447   6.242 -0.0533  0.2564  0.3533
  132OSM    H5F14293   4.961   1.418   6.304 -0.2000  1.4802  0.7553
  132OSM    H5G14294   5.120   1.502   6.307  3.2822 -0.9328 -2.0298
  132OSM    C6F14295   5.112   1.310   6.195 -0.0416 -0.1608  0.3242
  132OSM    H6F14296   5.203   1.276   6.249 -0.6501 -0.2490  1.3267
  132OSM    H6G14297   5.143   1.325   6.089 -0.9594 -0.1781  0.0464
  132OSM    C7F14298   5.014   1.191   6.201 -0.3358 -0.2612  0.0699
  132OSM    H7F14299   5.064   1.097   6.171 -0.4846 -0.2010 -0.3725
  132OSM    H7G14300   4.936   1.212   6.125  1.4516  2.9849 -1.0747
  132OSM    C8F14301   4.952   1.151   6.340 -0.7921  0.7820  0.1355
  132OSM    H8F14302   4.901   1.053   6.327 -0.4748  0.1235  3.1421
  132OSM    H8G14303   4.873   1.225   6.366 -0.7078  1.1331 -0.5757
  132OSM    C9F14304   5.050   1.136   6.453 -0.2787 -0.0109 -0.0918
  132OSM    H9F14305   5.106   1.229   6.463  1.3926 -0.7352 -1.8922
  132OSM   C10F14306   5.065   1.033   6.537  0.3288  0.2745 -0.4326
  132OSM   H10F14307   5.142   1.063   6.610  0.5846  1.2562 -1.0884
  132OSM   C11F14308   5.005   0.895   6.540 -0.0852 -0.6379  0.3762
  132OSM   H11F14309   5.020   0.845   6.442 -0.3648 -0.7229  0.3779
  132OSM   H11G14310   4.895   0.901   6.550 -0.1702  0.3765 -0.8273
  132OSM   C12F14311   5.067   0.804   6.639  0.5739  0.0020  0.2807
  132OSM   H12F14312   5.176   0.795   6.618  0.5161  1.3743 -0.7594
  132OSM   H12G14313   5.021   0.703   6.630 -1.4042  0.8286  0.6944
  132OSM   C13F14314   5.042   0.842   6.787  0.2933  0.0936 -0.4635
  132OSM   H13F14315   4.937   0.868   6.813  0.1574 -0.3748 -0.5205
  132OSM   H13G14316   5.109   0.928   6.803 -0.7056  0.9396 -0.7245
  132OSM   C14F14317   5.090   0.735   6.888 -0.1973  0.7540  0.5780
  132OSM   H14F14318   5.191   0.710   6.851 -1.1095 -1.3546 -0.7020
  132OSM   H14G14319   5.025   0.644   6.885 -0.8521  1.0993  2.5924
  132OSM   C15F14320   5.099   0.789   7.029 -0.1847  0.6925 -0.2026
  132OSM   H15F14321   5.007   0.848   7.051 -1.7223 -0.3736 -3.1093
  132OSM   H15G14322   5.178   0.867   7.028  2.0063 -1.4239 -1.5808
  132OSM   C16F14323   5.114   0.690   7.147  0.3559  0.2054  0.0001
  132OSM   H16F14324   5.221   0.659   7.142  0.7521  1.5853 -0.3216
  132OSM   H16G14325   5.049   0.599   7.145 -0.1341  0.5614 -0.5393
  132OSM   C17F14326   5.083   0.762   7.282 -0.0776 -0.0763  0.7467
  132OSM   H17F14327   4.983   0.811   7.278  0.4534  1.0133 -2.5038
  132OSM   H17G14328   5.149   0.852   7.288  1.4901 -1.1702  0.5564
  132OSM   C18F14329   5.104   0.683   7.406 -0.3772 -0.1225  0.2452
  132OSM   H18F14330   5.212   0.656   7.395  0.1119  1.1169  1.6140
  132OSM   H18G14331   5.054   0.586   7.388 -1.0506  0.3864 -0.6862
  132OSM   H18H14332   5.072   0.723   7.504 -0.3781 -1.6558  0.9040
  133OSM      N14333   5.548   2.000   4.868 -0.3540 -0.3483 -0.2499
  133OSM    C1514334   5.689   1.971   4.853  1.1231  0.3888 -0.1448
  133OSM   H15A14335   5.733   2.063   4.819  0.0236  1.7572  1.8781
  133OSM   H15B14336   5.705   1.892   4.781 -0.0060 -0.9743  1.0333
  133OSM   H15C14337   5.737   1.935   4.943  2.1456  0.4629 -0.6543
  133OSM    C1414338   5.488   2.057   4.741  0.4018  0.7126 -0.5102
  133OSM   H14A14339   5.530   2.002   4.658  1.5583 -1.7157  1.5334
  133OSM   H14B14340   5.526   2.156   4.719  0.8120  0.3735 -1.3550
  133OSM   H14C14341   5.380   2.057   4.742  0.3678  0.0433  1.3321
  133OSM    C1314342   5.468   1.879   4.895 -0.0825  0.4667 -0.8159
  133OSM   H13A14343   5.472   1.802   4.820 -3.9558 -0.3643 -0.3827
  133OSM   H13B14344   5.362   1.896   4.912 -0.0547 -0.1087 -0.0191
  133OSM   H13C14345   5.505   1.827   4.982  0.3531 -0.6032 -1.6202
  133OSM    C1214346   5.534   2.102   4.983  0.4717  0.4355 -0.5788
  133OSM   H12A14347   5.433   2.140   4.982  0.6395  0.9450  0.3125
  133OSM   H12B14348   5.589   2.192   4.961  3.1069 -0.5757  1.3273
  133OSM    C1114349   5.559   2.053   5.123 -0.2546  0.6877 -0.4776
  133OSM   H11A14350   5.470   1.992   5.148  0.0279  0.3517 -0.2817
  133OSM   H11B14351   5.536   2.135   5.195  1.4852  1.3616 -0.6494
  133OSM      P14352   5.800   2.081   5.215 -0.1735 -0.4193 -0.2547
  133OSM    O1314353   5.918   1.991   5.227 -0.3113  0.5960 -0.0592
  133OSM    O1414354   5.823   2.204   5.135  0.2547 -0.0018  0.3055
  133OSM    O1114355   5.740   2.123   5.355 -0.0138 -0.4780  0.2904
  133OSM    O1214356   5.680   1.989   5.157 -0.5809 -0.3079 -0.4196
  133OSM    C1S14357   5.758   2.030   5.461 -0.6231  0.0212  0.4558
  133OSM    H1S14358   5.865   2.005   5.474 -0.2429  1.8477  1.0164
  133OSM    H1T14359   5.707   1.931   5.453  0.7129 -0.6205 -0.3346
  133OSM     NF14360   5.738   2.041   5.708 -0.1576 -0.6129  0.4735
  133OSM    HNF14361   5.674   1.977   5.750  1.2902 -2.0852  0.5634
  133OSM    C2S14362   5.707   2.109   5.588 -0.2341  0.3715  0.6297
  133OSM    H2S14363   5.764   2.204   5.590  0.7115 -0.1919  1.6130
  133OSM    C3S14364   5.558   2.151   5.558  0.2784 -0.4977 -0.2061
  133OSM    H3S14365   5.509   2.056   5.529  0.0348 -0.8057  1.1294
  133OSM     O314366   5.533   2.244   5.451 -0.2948 -0.2514  0.7022
  133OSM    HO314367   5.612   2.247   5.396 -1.1267  0.3817 -0.5114
  133OSM    C4S14368   5.494   2.207   5.683  0.4531  0.5750 -0.1401
  133OSM    H4S14369   5.419   2.139   5.726 -1.3197  0.7337 -2.7387
  133OSM    C5S14370   5.503   2.331   5.730 -0.4276 -0.2812 -0.1428
  133OSM    H5S14371   5.576   2.393   5.676  0.6381 -1.5606 -0.2351
  133OSM    C6S14372   5.435   2.385   5.854 -0.1086 -0.2095  0.3800
  133OSM    H6S14373   5.341   2.333   5.880 -0.0648  0.2326  1.4744
  133OSM    H6T14374   5.398   2.485   5.822  0.9325 -0.1197 -0.6146
  133OSM    C7S14375   5.520   2.387   5.979 -0.1051 -0.4686  0.7871
  133OSM    H7S14376   5.456   2.425   6.061 -2.0391 -2.2890  0.2154
  133OSM    H7T14377   5.601   2.461   5.963 -0.5586  0.4457  2.4993
  133OSM    C8S14378   5.577   2.250   6.011 -0.0795  0.3102  0.5655
  133OSM    H8S14379   5.669   2.231   5.951 -0.9020 -3.4122  0.2203
  133OSM    H8T14380   5.497   2.175   5.995 -0.6413  0.9977  0.1272
  133OSM    C9S14381   5.619   2.224   6.156  0.4199  0.1096  0.0475
  133OSM    H9S14382   5.567   2.293   6.226  1.4830 -0.2531  1.2068
  133OSM    H9T14383   5.727   2.245   6.169  0.4306  1.3665 -1.6313
  133OSM   C10S14384   5.595   2.078   6.209 -0.0960 -0.3510 -0.2846
  133OSM   H10S14385   5.670   2.010   6.162 -2.3130 -2.4217 -1.0719
  133OSM   H10T14386   5.497   2.048   6.165 -0.3330 -0.1937  0.1326
  133OSM   C11S14387   5.603   2.064   6.359  0.2160  0.2350 -0.3146
  133OSM   H11S14388   5.599   1.954   6.376 -0.1609  0.0406 -1.5504
  133OSM   H11T14389   5.511   2.115   6.396  0.2098 -0.1026  0.1399
  133OSM   C12S14390   5.725   2.117   6.420 -1.1874  0.2245 -0.2081
  133OSM   H12S14391   5.723   2.227   6.437 -4.5019  0.7575 -2.8731
  133OSM   H12T14392   5.807   2.082   6.354 -2.1398 -1.6490 -0.4800
  133OSM   C13S14393   5.752   2.046   6.556  0.1334 -0.3175  0.2284
  133OSM   H13S14394   5.853   2.084   6.584  0.3268 -1.1469  0.6914
  133OSM   H13T14395   5.756   1.938   6.532 -1.0144 -0.5166  0.8641
  133OSM   C14S14396   5.640   2.061   6.658  0.1234  0.2386  1.0226
  133OSM   H14S14397   5.541   2.042   6.611  0.8395 -0.5830 -0.2252
  133OSM   H14T14398   5.646   2.166   6.695  1.6470  0.6247 -0.1805
  133OSM   C15S14399   5.673   1.963   6.772 -0.5514 -0.5224  0.1438
  133OSM   H15S14400   5.612   2.007   6.854  0.1870  1.4149 -0.2916
  133OSM   H15T14401   5.775   1.972   6.813 -0.5991 -0.4931  0.2567
  133OSM   C16S14402   5.638   1.816   6.748  0.2343 -0.2149 -0.6731
  133OSM   H16S14403   5.706   1.763   6.678  1.2033 -0.3392  0.3365
  133OSM   H16T14404   5.532   1.801   6.720 -0.7793  1.5292  1.8713
  133OSM   C17S14405   5.664   1.744   6.884 -0.2237  0.6546 -0.3749
  133OSM   H17S14406   5.589   1.774   6.960 -0.1430 -1.2914  0.5522
  133OSM   H17T14407   5.767   1.763   6.920  0.1833  3.6890 -2.7347
  133OSM   C18S14408   5.647   1.599   6.865  0.7425  0.1454 -0.3054
  133OSM   H18S14409   5.539   1.577   6.848  0.7510  1.8826 -3.1369
  133OSM   H18T14410   5.671   1.532   6.951  1.4852  0.0870 -0.5560
  133OSM   H18U14411   5.711   1.564   6.782 -0.4894  0.3020 -1.3591
  133OSM    C1F14412   5.861   2.041   5.764 -0.0695 -0.2031  0.5853
  133OSM     OF14413   5.947   2.118   5.722 -0.3875  0.5947 -0.4931
  133OSM    C2F14414   5.892   1.946   5.878  0.0919  0.2327 -0.2204
  133OSM    H2F14415   5.900   1.845   5.833  1.5870  0.8006 -1.3351
  133OSM    H2G14416   5.811   1.956   5.953  0.2272 -0.8427  0.0888
  133OSM    C3F14417   6.034   1.976   5.932 -0.5254 -0.5018  0.2004
  133OSM    H3F14418   6.045   2.084   5.957  2.2065 -0.6857  0.0588
  133OSM    H3G14419   6.110   1.964   5.852 -0.0858 -0.9372  0.6720
  133OSM    C4F14420   6.076   1.897   6.058 -0.8319  0.0141  0.7249
  133OSM    H4F14421   6.174   1.939   6.089 -0.3823 -0.6354  0.2046
  133OSM    H4G14422   6.096   1.789   6.046 -0.5275 -0.0365  1.5846
  133OSM    C5F14423   5.975   1.912   6.172  0.6054 -0.1916 -0.4531
  133OSM    H5F14424   5.873   1.889   6.135  1.4626 -0.3462 -2.9098
  133OSM    H5G14425   5.971   2.023   6.185  1.3899 -0.3666  1.6178
  133OSM    C6F14426   6.014   1.854   6.307 -0.6607  0.3577 -0.3267
  133OSM    H6F14427   6.033   1.745   6.296 -0.4781  0.3543  0.0104
  133OSM    H6G14428   5.935   1.875   6.382  0.4132 -1.6463  1.4785
  133OSM    C7F14429   6.139   1.921   6.366  0.4757 -0.5865 -0.1363
  133OSM    H7F14430   6.134   2.020   6.317 -2.0960 -0.3591  0.4295
  133OSM    H7G14431   6.231   1.861   6.355 -1.1945 -4.0438  2.5976
  133OSM    C8F14432   6.112   1.955   6.513 -0.1505  0.0231  0.3791
  133OSM    H8F14433   6.014   2.006   6.512 -0.2276 -0.1280 -0.5185
  133OSM    H8G14434   6.190   2.021   6.557 -0.1610 -0.9046  1.8550
  133OSM    C9F14435   6.093   1.836   6.600 -0.6033  0.1607 -0.2600
  133OSM    H9F14436   6.108   1.739   6.550  0.6761 -0.8396  1.8840
  133OSM   C10F14437   6.089   1.832   6.734 -0.3898  0.1444  0.2517
  133OSM   H10F14438   6.100   1.731   6.776 -0.3610 -0.0313 -0.1713
  133OSM   C11F14439   6.081   1.943   6.828  0.3881  0.5703 -0.1341
  133OSM   H11F14440   5.971   1.955   6.839 -0.0914 -2.0052 -1.4688
  133OSM   H11G14441   6.112   2.040   6.783 -0.8124  0.6899 -0.7469
  133OSM   C12F14442   6.146   1.932   6.965 -0.2885  0.3722  0.5410
  133OSM   H12F14443   6.110   1.837   7.011  0.2428 -0.1679 -0.1283
  133OSM   H12G14444   6.113   2.013   7.034  1.1528 -0.5954  2.4894
  133OSM   C13F14445   6.298   1.933   6.970 -0.4256  0.2591  0.1111
  133OSM   H13F14446   6.346   2.015   6.912 -1.0366 -0.8427 -2.0428
  133OSM   H13G14447   6.322   1.837   6.921  0.0151  0.6868 -0.5251
  133OSM   C14F14448   6.346   1.929   7.116 -0.1557 -0.3337 -0.1128
  133OSM   H14F14449   6.298   1.846   7.172  0.9460 -0.6436  0.4011
  133OSM   H14G14450   6.320   2.030   7.154  0.3096  0.1118 -0.9560
  133OSM   C15F14451   6.497   1.907   7.135  0.2303  0.1234  0.2258
  133OSM   H15F14452   6.542   1.982   7.068 -1.0885  0.9086  0.1957
  133OSM   H15G14453   6.528   1.803   7.108 -0.1543  0.0685 -0.0134
  133OSM   C16F14454   6.534   1.912   7.282 -0.1800  0.4617 -0.5695
  133OSM   H16F14455   6.508   1.815   7.330  2.1433 -0.4339 -0.9627
  133OSM   H16G14456   6.482   1.986   7.346 -0.4516 -0.2183  0.0071
  133OSM   C17F14457   6.681   1.933   7.300 -0.3044  0.2092  0.4684
  133OSM   H17F14458   6.718   2.032   7.264  3.2246 -0.9819  0.3668
  133OSM   H17G14459   6.741   1.864   7.237 -0.4501  0.5905 -0.1056
  133OSM   C18F14460   6.721   1.920   7.444 -0.0531  0.5173  0.1840
  133OSM   H18F14461   6.741   1.817   7.480  1.1351  1.1398  1.4082
  133OSM   H18G14462   6.640   1.956   7.513  0.3668 -1.5476  1.8456
  133OSM   H18H14463   6.811   1.985   7.453 -0.1856  0.7777 -0.3565
  134OSM      N14464   6.342   5.442   5.904  0.0921 -0.1733 -0.0178
  134OSM    C1514465   6.374   5.546   5.804  1.2268 -0.1976  0.1529
  134OSM   H15A14466   6.438   5.618   5.852 -0.4377  1.5465 -0.1110
  134OSM   H15B14467   6.289   5.606   5.774  0.8977 -0.4298  0.5964
  134OSM   H15C14468   6.429   5.505   5.720  2.9087  1.1397  0.5529
  134OSM    C1414469   6.475   5.400   5.948 -0.2032  0.0689 -0.2234
  134OSM   H14A14470   6.462   5.313   6.010  0.9494 -2.4994 -3.3103
  134OSM   H14B14471   6.520   5.471   6.016  0.2858 -1.7648  1.4236
  134OSM   H14C14472   6.538   5.366   5.867  0.1920  1.8224 -0.7118
  134OSM    C1314473   6.264   5.499   6.014  0.2418  0.5740  0.2683
  134OSM   H13A14474   6.178   5.543   5.966 -0.7812  1.6713  2.9098
  134OSM   H13B14475   6.308   5.583   6.067  0.6339  0.2463  0.4654
  134OSM   H13C14476   6.234   5.438   6.098  0.1545  1.8982  1.2421
  134OSM    C1214477   6.277   5.333   5.826  0.5696  0.1683 -0.2335
  134OSM   H12A14478   6.354   5.287   5.766  0.4107  0.4398 -0.6472
  134OSM   H12B14479   6.199   5.366   5.759  0.0872 -2.8303 -1.3269
  134OSM    C1114480   6.208   5.214   5.907  0.2773 -0.2943  0.3335
  134OSM   H11A14481   6.142   5.147   5.848 -1.4809  1.5109  0.1758
  134OSM   H11B14482   6.126   5.258   5.968  0.2629  1.1726 -0.6954
  134OSM      P14483   6.388   5.027   5.929  0.1612  0.1933  0.1658
  134OSM    O1314484   6.337   4.992   5.796 -0.2992  0.1601  0.2255
  134OSM    O1414485   6.535   5.053   5.935  0.5650  0.4267  0.7408
  134OSM    O1114486   6.353   4.904   6.023  0.8044  0.1962  0.0139
  134OSM    O1214487   6.302   5.144   5.994  0.5609 -0.0666 -0.2426
  134OSM    C1S14488   6.334   4.910   6.162 -0.2518 -0.1426  0.2774
  134OSM    H1S14489   6.326   5.013   6.203  0.1741  0.5766 -1.3651
  134OSM    H1T14490   6.421   4.860   6.209 -1.2579 -0.9782  1.3207
  134OSM     NF14491   6.214   4.816   6.360 -0.6535 -0.1645  0.1617
  134OSM    HNF14492   6.266   4.748   6.412 -0.5402  1.9427  3.0928
  134OSM    C2S14493   6.219   4.814   6.214  0.4253 -0.2751  0.2730
  134OSM    H2S14494   6.122   4.857   6.181 -0.1800  0.7722  3.0973
  134OSM    C3S14495   6.235   4.674   6.148  0.5116 -0.1879  0.2431
  134OSM    H3S14496   6.337   4.632   6.161  0.9771  0.3706 -1.3514
  134OSM     O314497   6.222   4.673   6.003 -0.1060  0.5319 -1.0319
  134OSM    HO314498   6.253   4.758   5.970 -3.8793  2.0027 -1.2640
  134OSM    C4S14499   6.128   4.590   6.200 -0.0509 -0.0075 -0.0230
  134OSM    H4S14500   6.032   4.640   6.177  0.4842  1.0391 -0.0331
  134OSM    C5S14501   6.137   4.482   6.283 -0.3112  0.0959 -0.8339
  134OSM    H5S14502   6.236   4.443   6.311 -0.4514 -0.0265 -0.5050
  134OSM    C6S14503   6.021   4.416   6.343  0.8721  0.1923 -0.6405
  134OSM    H6S14504   6.031   4.307   6.323  2.4458 -0.0460  1.2331
  134OSM    H6T14505   5.930   4.444   6.285 -0.3352 -0.8371  0.6937
  134OSM    C7S14506   5.974   4.427   6.495  0.0604  0.1940  0.4645
  134OSM    H7S14507   5.873   4.380   6.490 -0.9597  2.3824 -2.0745
  134OSM    H7T14508   5.969   4.537   6.511 -1.8865  0.2431 -0.2387
  134OSM    C8S14509   6.063   4.367   6.601  0.0282  0.6015 -0.2638
  134OSM    H8S14510   6.172   4.388   6.595  0.2059 -0.1952  0.0184
  134OSM    H8T14511   6.048   4.259   6.585 -0.4923  0.2287  2.2400
  134OSM    C9S14512   6.006   4.381   6.738  0.6059 -0.0804 -0.1166
  134OSM    H9S14513   5.895   4.369   6.731  0.3456  0.5787  2.0373
  134OSM    H9T14514   6.023   4.484   6.775  0.1486 -0.2189  0.5057
  134OSM   C10S14515   6.071   4.285   6.836 -0.4347  0.1627  0.5135
  134OSM   H10S14516   6.181   4.298   6.844 -0.5123  2.5882 -1.3483
  134OSM   H10T14517   6.053   4.187   6.788  2.3115  0.1895 -0.7680
  134OSM   C11S14518   6.007   4.313   6.971 -0.2857 -0.2098  0.3021
  134OSM   H11S14519   5.897   4.307   6.962 -0.4296  0.3196  1.5697
  134OSM   H11T14520   6.025   4.415   7.010  1.9431  0.1893 -1.5047
  134OSM   C12S14521   6.053   4.219   7.085  0.0613  0.0603  0.0657
  134OSM   H12S14522   6.163   4.214   7.077  0.0763  1.2482 -0.7968
  134OSM   H12T14523   6.019   4.114   7.072 -1.6712  0.6123 -0.2242
  134OSM   C13S14524   6.018   4.260   7.225 -0.0463 -0.0100 -0.6057
  134OSM   H13S14525   5.908   4.248   7.230 -0.2523  1.2776 -1.5224
  134OSM   H13T14526   6.032   4.369   7.237 -2.7928  0.2254  1.4398
  134OSM   C14S14527   6.102   4.182   7.328 -0.1454  0.0324 -0.0656
  134OSM   H14S14528   6.110   4.255   7.412  0.3488  1.5510 -1.3720
  134OSM   H14T14529   6.205   4.168   7.289  0.0668  1.2421  0.0221
  134OSM   C15S14530   6.056   4.040   7.368  0.0148 -0.0732  0.4144
  134OSM   H15S14531   6.142   3.990   7.419 -0.5582 -0.6109  0.8599
  134OSM   H15T14532   6.018   3.993   7.275 -1.8380  1.1462  0.5149
  134OSM   C16S14533   5.946   4.044   7.471 -0.6853  0.1170 -0.7341
  134OSM   H16S14534   5.855   4.079   7.418  0.1610  0.1510 -2.2068
  134OSM   H16T14535   5.991   4.111   7.548 -0.5242  0.6318 -1.2671
  134OSM   C17S14536   5.918   3.902   7.538  0.6249 -0.2047 -0.9161
  134OSM   H17S14537   6.016   3.855   7.559  0.6716  0.0358 -0.5927
  134OSM   H17T14538   5.867   3.839   7.461 -0.4475 -2.5391  1.5538
  134OSM   C18S14539   5.830   3.908   7.651  0.5760  0.9511 -0.2590
  134OSM   H18S14540   5.889   3.948   7.737 -1.4405 -0.5042  1.9051
  134OSM   H18T14541   5.795   3.813   7.697  1.1748  0.8307 -0.0437
  134OSM   H18U14542   5.739   3.965   7.623 -0.0754 -0.7796 -1.9459
  134OSM    C1F14543   6.173   4.925   6.425 -0.1194  0.0195 -0.1050
  134OSM     OF14544   6.131   5.025   6.368  0.5263 -0.2918  0.4917
  134OSM    C2F14545   6.193   4.916   6.575  0.3219  0.2113 -0.3180
  134OSM    H2F14546   6.098   4.951   6.622 -0.5293 -2.0402 -0.2462
  134OSM    H2G14547   6.270   4.986   6.614 -1.0407  1.4375  0.2412
  134OSM    C3F14548   6.232   4.776   6.642  0.3886 -0.2529 -0.0820
  134OSM    H3F14549   6.338   4.760   6.614  0.1361  1.1571 -2.0396
  134OSM    H3G14550   6.178   4.688   6.603  1.8108 -0.5849 -1.3837
  134OSM    C4F14551   6.222   4.784   6.796 -0.5743  0.8515 -0.2221
  134OSM    H4F14552   6.118   4.792   6.835 -0.5585 -1.0158  0.2764
  134OSM    H4G14553   6.284   4.870   6.829  1.3363 -0.4467 -0.2957
  134OSM    C5F14554   6.293   4.665   6.866  0.2317  0.0084 -0.3005
  134OSM    H5F14555   6.398   4.653   6.833 -0.4303 -1.0331 -2.1918
  134OSM    H5G14556   6.237   4.578   6.827  1.2820 -0.8591  0.0897
  134OSM    C6F14557   6.297   4.675   7.022  0.0177  0.1879  0.1896
  134OSM    H6F14558   6.196   4.712   7.052  0.0233  0.4261 -0.0802
  134OSM    H6G14559   6.371   4.753   7.051  1.4138 -0.3745 -1.7032
  134OSM    C7F14560   6.327   4.542   7.094 -0.2997  0.0131 -0.2211
  134OSM    H7F14561   6.425   4.500   7.062  0.0172  0.6134 -0.0574
  134OSM    H7G14562   6.240   4.481   7.064 -0.7332 -0.5723  2.0270
  134OSM    C8F14563   6.335   4.549   7.247 -0.1486  0.1100  0.1933
  134OSM    H8F14564   6.358   4.451   7.294 -2.0605 -0.0172  0.9660
  134OSM    H8G14565   6.229   4.562   7.279  0.0481  1.0924  0.4951
  134OSM    C9F14566   6.430   4.651   7.295  0.3705 -0.1851  0.1705
  134OSM    H9F14567   6.381   4.750   7.295 -1.3797 -0.9962  1.0186
  134OSM   C10F14568   6.546   4.633   7.357  0.3364 -0.6667 -0.4698
  134OSM   H10F14569   6.590   4.725   7.400 -0.8749  1.1464 -2.8573
  134OSM   C11F14570   6.616   4.503   7.390 -0.1104  0.7412  0.3502
  134OSM   H11F14571   6.553   4.417   7.358 -1.4430  2.0772 -0.7810
  134OSM   H11G14572   6.635   4.495   7.499 -0.1252 -0.4980  0.2761
  134OSM   C12F14573   6.755   4.505   7.326 -0.4869  0.5483 -0.1198
  134OSM   H12F14574   6.788   4.399   7.330 -1.9436  0.0849  0.5096
  134OSM   H12G14575   6.814   4.567   7.397  1.4535  1.1935 -2.1814
  134OSM   C13F14576   6.763   4.558   7.186 -0.1495 -0.1058 -0.0277
  134OSM   H13F14577   6.724   4.662   7.185  0.1032  0.0110  1.3201
  134OSM   H13G14578   6.696   4.490   7.129  0.8180 -0.7275 -0.4565
  134OSM   C14F14579   6.899   4.559   7.120  0.6527  0.2952 -0.4971
  134OSM   H14F14580   6.938   4.455   7.130 -0.2580  0.1569  3.9912
  134OSM   H14G14581   6.964   4.624   7.182  1.3246  0.5415 -1.4438
  134OSM   C15F14582   6.901   4.623   6.976 -0.3059  0.0283 -0.4304
  134OSM   H15F14583   7.008   4.640   6.952 -0.1551  0.3999  0.4868
  134OSM   H15G14584   6.863   4.727   6.980  1.0958  0.5286  0.2757
  134OSM   C16F14585   6.839   4.545   6.862  0.2080 -0.1916 -0.9197
  134OSM   H16F14586   6.730   4.526   6.877  0.0515 -0.5664 -2.3614
  134OSM   H16G14587   6.893   4.448   6.858  0.8826  0.1547 -0.3725
  134OSM   C17F14588   6.852   4.613   6.718  0.5778 -0.1849 -0.5225
  134OSM   H17F14589   6.962   4.623   6.708  0.6890  0.6562  1.2376
  134OSM   H17G14590   6.804   4.713   6.710  0.6650 -0.1869 -1.1296
  134OSM   C18F14591   6.794   4.533   6.604 -0.8827 -0.5639  0.1410
  134OSM   H18F14592   6.683   4.528   6.611 -1.0153  0.4812 -0.8793
  134OSM   H18G14593   6.841   4.433   6.610  0.8987  0.1915 -0.6129
  134OSM   H18H14594   6.822   4.580   6.507  3.0151 -0.2292  1.2420
  135OSM      N14595   5.340   5.287   5.875  0.0464  0.3868  0.4179
  135OSM    C1514596   5.431   5.312   5.756  0.2017  0.0748  0.0096
  135OSM   H15A14597   5.525   5.267   5.783 -0.1518 -0.4670  0.3427
  135OSM   H15B14598   5.456   5.416   5.743  0.6160 -0.1572 -1.0909
  135OSM   H15C14599   5.399   5.271   5.662  1.1979  0.6479 -0.5952
  135OSM    C1414600   5.210   5.356   5.840  0.6826  0.7109  0.4471
  135OSM   H14A14601   5.221   5.462   5.826 -0.2650  0.4984 -2.7907
  135OSM   H14B14602   5.137   5.328   5.914  0.7236 -0.9104 -0.0892
  135OSM   H14C14603   5.162   5.317   5.751  1.0721 -2.0501  1.3351
  135OSM    C1314604   5.311   5.139   5.891  0.1394  0.1679 -0.1321
  135OSM   H13A14605   5.398   5.077   5.881 -1.2158 -1.6913 -1.0625
  135OSM   H13B14606   5.237   5.099   5.823 -0.4201 -0.0156  0.5660
  135OSM   H13C14607   5.270   5.122   5.990  0.9272  1.1399  0.3733
  135OSM    C1214608   5.412   5.343   5.995  0.1424  0.6804 -0.5333
  135OSM   H12A14609   5.491   5.273   6.020 -0.5367 -0.8403 -2.3437
  135OSM   H12B14610   5.355   5.346   6.086 -1.0977  1.1344 -1.3101
  135OSM    C1114611   5.478   5.483   5.978  0.5472 -0.0940  0.8189
  135OSM   H11A14612   5.575   5.456   5.930  0.9859  1.5854  0.7015
  135OSM   H11B14613   5.498   5.527   6.077  0.1398 -0.9337  1.2878
  135OSM      P14614   5.477   5.689   5.831  0.4418 -0.6587  0.2058
  135OSM    O1314615   5.537   5.628   5.707 -0.2022 -0.3055 -0.8758
  135OSM    O1414616   5.396   5.809   5.804  0.8234  0.9369  0.3918
  135OSM    O1114617   5.590   5.726   5.938  0.0374  0.8718  0.2015
  135OSM    O1214618   5.390   5.576   5.906 -0.3743  0.0449 -0.0973
  135OSM    C1S14619   5.551   5.782   6.066 -0.7536  0.8247  0.4344
  135OSM    H1S14620   5.475   5.713   6.110 -0.6263 -1.0090 -2.0292
  135OSM    H1T14621   5.506   5.884   6.056 -2.2046  0.1768  0.0408
  135OSM     NF14622   5.636   5.813   6.300  0.1751 -0.3927 -0.0432
  135OSM    HNF14623   5.693   5.885   6.338  1.1618 -1.5343  0.7178
  135OSM    C2S14624   5.672   5.772   6.164 -0.0868  0.4028 -0.4023
  135OSM    H2S14625   5.681   5.661   6.168 -0.9412  0.3597  2.3334
  135OSM    C3S14626   5.807   5.831   6.111  0.3834  0.9069 -0.0664
  135OSM    H3S14627   5.807   5.941   6.098  0.8221  0.7956 -1.2187
  135OSM     O314628   5.840   5.804   5.974 -0.2192  0.2815  0.1623
  135OSM    HO314629   5.753   5.776   5.945 -0.8651  2.5669 -0.3433
  135OSM    C4S14630   5.929   5.791   6.185 -0.3961 -0.3373  0.4888
  135OSM    H4S14631   5.957   5.688   6.158 -0.8609 -0.2830 -0.2268
  135OSM    C5S14632   5.992   5.881   6.264 -0.1605 -0.5987 -0.0130
  135OSM    H5S14633   5.954   5.981   6.290  0.9460 -0.1102 -0.1899
  135OSM    C6S14634   6.126   5.851   6.337  0.5093  0.1187 -0.2886
  135OSM    H6S14635   6.138   5.911   6.430 -0.2826  2.1239 -1.4224
  135OSM    H6T14636   6.206   5.881   6.266  2.6163  1.7210  2.5714
  135OSM    C7S14637   6.140   5.702   6.380 -0.0362 -0.6590 -0.0082
  135OSM    H7S14638   6.096   5.625   6.313  0.3945 -0.4351 -0.5596
  135OSM    H7T14639   6.082   5.705   6.474  0.6421  0.8064  0.3878
  135OSM    C8S14640   6.284   5.662   6.419  0.1637 -0.2447 -0.8299
  135OSM    H8S14641   6.319   5.737   6.493  0.4820 -0.0466 -1.1784
  135OSM    H8T14642   6.349   5.672   6.329  2.2615 -0.8141  0.5417
  135OSM    C9S14643   6.315   5.518   6.470 -0.2551 -0.0636  0.4080
  135OSM    H9S14644   6.425   5.497   6.471  0.1015  1.6512  0.5077
  135OSM    H9T14645   6.254   5.450   6.408  0.1485 -2.0005  2.0154
  135OSM   C10S14646   6.274   5.505   6.622 -0.0691 -0.2135  0.1385
  135OSM   H10S14647   6.168   5.534   6.640 -0.5356 -1.5703 -0.3282
  135OSM   H10T14648   6.326   5.574   6.693 -0.1568  0.0709 -0.0733
  135OSM   C11S14649   6.293   5.369   6.681 -0.1571 -0.2115  0.1531
  135OSM   H11S14650   6.394   5.323   6.671 -0.2695 -0.4027 -0.1326
  135OSM   H11T14651   6.229   5.296   6.625 -1.5229  0.4287  0.8371
  135OSM   C12S14652   6.238   5.370   6.825  0.2900  0.8543 -0.3494
  135OSM   H12S14653   6.143   5.426   6.839  0.4385  0.6478  1.8959
  135OSM   H12T14654   6.304   5.433   6.888  1.1909 -0.5078  0.1150
  135OSM   C13S14655   6.242   5.235   6.902 -0.3044  0.4163  0.0901
  135OSM   H13S14656   6.349   5.217   6.924 -0.1092 -1.0528 -1.8169
  135OSM   H13T14657   6.203   5.143   6.854  0.0268 -0.0591  0.7188
  135OSM   C14S14658   6.160   5.245   7.033 -0.5026 -0.0350  0.6015
  135OSM   H14S14659   6.057   5.279   7.011  0.0911  0.2184 -2.1707
  135OSM   H14T14660   6.204   5.318   7.105 -1.2087  1.6278 -0.6023
  135OSM   C15S14661   6.166   5.105   7.097  0.2155 -0.0958 -0.1740
  135OSM   H15S14662   6.272   5.074   7.115  0.6734  1.9007  0.9050
  135OSM   H15T14663   6.134   5.036   7.016  1.3515  0.6357 -1.2794
  135OSM   C16S14664   6.083   5.092   7.222  0.6308  0.2850 -0.0837
  135OSM   H16S14665   5.975   5.109   7.202  0.7209  0.7875 -0.1630
  135OSM   H16T14666   6.108   5.168   7.299 -3.1069 -0.1406  1.8001
  135OSM   C17S14667   6.085   4.959   7.290 -0.2898 -0.2128  0.2828
  135OSM   H17S14668   6.091   4.879   7.213 -1.4474  0.2299 -0.2907
  135OSM   H17T14669   5.981   4.958   7.330 -0.2287  0.8498  0.4921
  135OSM   C18S14670   6.184   4.938   7.406 -0.1517 -0.1510 -0.1323
  135OSM   H18S14671   6.174   4.834   7.444  0.3592 -0.1181  0.0994
  135OSM   H18T14672   6.171   5.005   7.494  2.7133  1.6011 -0.9301
  135OSM   H18U14673   6.283   4.965   7.364 -1.0754  0.1533 -2.2494
  135OSM    C1F14674   5.537   5.759   6.366 -0.4448 -0.8998  0.3581
  135OSM     OF14675   5.486   5.653   6.343  0.2648  0.0878  0.7660
  135OSM    C2F14676   5.493   5.830   6.488  0.0862  0.3226  0.6030
  135OSM    H2F14677   5.497   5.938   6.464  1.0405  0.0249 -0.6567
  135OSM    H2G14678   5.559   5.806   6.574  0.5391  0.9531  0.4361
  135OSM    C3F14679   5.343   5.809   6.514  0.8163  0.7574  0.0242
  135OSM    H3F14680   5.322   5.701   6.529 -0.8115  0.8935 -1.1279
  135OSM    H3G14681   5.285   5.832   6.423  0.6487 -0.6300 -0.2451
  135OSM    C4F14682   5.287   5.889   6.631 -0.1875 -0.2367 -0.6872
  135OSM    H4F14683   5.178   5.892   6.614 -0.1334  3.6104 -1.1427
  135OSM    H4G14684   5.318   5.996   6.632 -1.3372  0.1349  1.5638
  135OSM    C5F14685   5.311   5.818   6.760  0.1303  0.3609  0.0323
  135OSM    H5F14686   5.419   5.833   6.782 -0.5598  1.4934  3.1432
  135OSM    H5G14687   5.290   5.709   6.755  3.0280 -0.3408  0.8578
  135OSM    C6F14688   5.229   5.873   6.882 -0.6467 -0.5248 -0.9800
  135OSM    H6F14689   5.121   5.874   6.855 -1.0313 -0.2873  0.4746
  135OSM    H6G14690   5.248   5.982   6.880 -1.0308 -0.4283  0.0178
  135OSM    C7F14691   5.270   5.831   7.021 -0.3912 -0.2850 -0.8300
  135OSM    H7F14692   5.239   5.905   7.098 -0.0852  2.2123 -2.9869
  135OSM    H7G14693   5.380   5.840   7.020 -0.5494  3.2761 -3.4610
  135OSM    C8F14694   5.223   5.688   7.046  0.1041 -0.1772  0.0409
  135OSM    H8F14695   5.258   5.633   6.957  1.0227  1.1272 -0.4404
  135OSM    H8G14696   5.112   5.695   7.042  0.1740  0.3673 -2.4542
  135OSM    C9F14697   5.267   5.622   7.177  0.4725  0.1666 -0.2292
  135OSM    H9F14698   5.366   5.656   7.211  0.6651  0.7546 -1.3394
  135OSM   C10F14699   5.186   5.550   7.258  0.5117  0.0920  0.7928
  135OSM   H10F14700   5.238   5.507   7.345  0.3785  2.0997  1.9413
  135OSM   C11F14701   5.043   5.504   7.247  0.5687  0.4135 -0.5945
  135OSM   H11F14702   5.033   5.394   7.235 -1.3462  0.5841 -0.8517
  135OSM   H11G14703   4.989   5.549   7.161 -0.2914  1.9425  0.7050
  135OSM   C12F14704   4.959   5.550   7.370  0.0050  0.1523  0.5595
  135OSM   H12F14705   5.005   5.522   7.467  2.9356 -0.5419 -0.9357
  135OSM   H12G14706   4.860   5.498   7.368  0.7217 -1.2739  0.4239
  135OSM   C13F14707   4.935   5.707   7.381 -0.1113  1.0823  0.8600
  135OSM   H13F14708   4.882   5.730   7.286  1.3234 -0.1748 -0.3101
  135OSM   H13G14709   5.036   5.753   7.377 -0.1557  1.1647  0.6492
  135OSM   C14F14710   4.835   5.744   7.500 -0.4011 -0.4263  0.3205
  135OSM   H14F14711   4.779   5.653   7.532 -0.4725 -0.5881 -0.2496
  135OSM   H14G14712   4.779   5.831   7.460 -0.1076 -0.5648 -0.4222
  135OSM   C15F14713   4.918   5.790   7.622  0.3402 -0.4925  0.1116
  135OSM   H15F14714   4.968   5.883   7.588  1.9333 -1.3053  0.1041
  135OSM   H15G14715   4.998   5.716   7.646 -0.5849 -1.5857 -0.0526
  135OSM   C16F14716   4.823   5.814   7.739 -0.0974 -0.4436  0.5649
  135OSM   H16F14717   4.773   5.719   7.767 -1.4211  0.9780  3.4099
  135OSM   H16G14718   4.738   5.883   7.720  0.9921  0.7481 -0.2118
  135OSM   C17F14719   4.894   5.870   7.858  0.2912 -0.5060 -1.1256
  135OSM   H17F14720   4.976   5.798   7.881 -0.0851 -0.7607 -0.5558
  135OSM   H17G14721   4.836   5.875   7.953  2.5241  0.7552  0.2835
  135OSM   C18F14722   4.962   6.004   7.831 -0.4390  0.4538 -0.6011
  135OSM   H18F14723   4.896   6.092   7.848  0.7594  1.2430  0.1219
  135OSM   H18G14724   5.001   6.014   7.728  0.9273  3.3003  0.0966
  135OSM   H18H14725   5.048   6.023   7.900 -1.7738  0.7463  1.0633
  136OSM      N14726   3.817   6.964   5.874 -0.4028 -0.6028 -0.5135
  136OSM    C1514727   3.814   7.080   5.973 -0.4117  0.7157 -0.4016
  136OSM   H15A14728   3.784   7.045   6.071  1.1471  1.3536  0.3230
  136OSM   H15B14729   3.741   7.155   5.945  0.0547  1.5135  0.4806
  136OSM   H15C14730   3.913   7.122   5.981 -0.4851  0.7697  0.3218
  136OSM    C1414731   3.670   6.931   5.846 -0.3083 -0.1700  0.0254
  136OSM   H14A14732   3.661   6.849   5.776 -1.8333 -0.9110  1.0401
  136OSM   H14B14733   3.621   7.012   5.794 -1.4813 -0.3127  0.8679
  136OSM   H14C14734   3.624   6.899   5.938  3.4425 -1.7432  1.5601
  136OSM    C1314735   3.877   7.001   5.747  0.4142  0.1355  0.2071
  136OSM   H13A14736   3.808   7.053   5.682 -0.0636 -3.3093 -2.3194
  136OSM   H13B14737   3.899   6.909   5.695  1.1151  0.8721 -0.8458
  136OSM   H13C14738   3.971   7.054   5.758 -0.2991  1.3598  0.5280
  136OSM    C1214739   3.895   6.845   5.932 -0.0779 -0.6383  0.0568
  136OSM   H12A14740   3.873   6.818   6.035  2.4576  0.5854  1.0001
  136OSM   H12B14741   4.000   6.870   5.935  0.4068 -2.5605  0.6683
  136OSM    C1114742   3.903   6.718   5.841 -0.2747 -0.1481 -0.3427
  136OSM   H11A14743   3.820   6.702   5.769  1.0875  1.1244 -2.3130
  136OSM   H11B14744   3.928   6.632   5.907  0.5643 -0.5651 -1.1736
  136OSM      P14745   4.149   6.672   5.755  0.0864  0.2126 -0.0004
  136OSM    O1314746   4.142   6.555   5.675 -0.2757  0.1502 -0.5595
  136OSM    O1414747   4.258   6.769   5.732 -0.2291  0.2186 -0.2956
  136OSM    O1114748   4.149   6.630   5.904  0.5695  0.0641  0.0625
  136OSM    O1214749   4.009   6.746   5.749  0.0943  0.4152 -0.6699
  136OSM    C1S14750   4.199   6.723   6.003 -0.2626 -0.8207  0.4684
  136OSM    H1S14751   4.153   6.824   6.001  1.9950  0.2517  0.1596
  136OSM    H1T14752   4.305   6.749   5.983 -0.7501  0.3994 -0.6105
  136OSM     NF14753   4.215   6.752   6.249 -0.1279  0.8694  0.0904
  136OSM    HNF14754   4.300   6.756   6.301 -0.1112  0.1620  0.1323
  136OSM    C2S14755   4.204   6.652   6.142 -0.1623 -0.0876  0.4781
  136OSM    H2S14756   4.104   6.604   6.143  0.6878 -1.9175  1.7335
  136OSM    C3S14757   4.308   6.542   6.142  0.1063  0.0629  0.0931
  136OSM    H3S14758   4.406   6.582   6.108 -0.8383 -1.2313 -4.9478
  136OSM     O314759   4.287   6.448   6.038 -0.0779 -0.3834 -0.5582
  136OSM    HO314760   4.219   6.485   5.981 -1.7924 -1.2690  0.8027
  136OSM    C4S14761   4.313   6.479   6.286  1.3167  0.2023 -0.1754
  136OSM    H4S14762   4.355   6.541   6.366 -0.2716  2.6969 -1.1302
  136OSM    C5S14763   4.256   6.366   6.328  0.0690  0.4717  0.3717
  136OSM    H5S14764   4.215   6.307   6.245  1.9115 -0.7695  0.2931
  136OSM    C6S14765   4.238   6.306   6.463  0.3928  0.3352  0.7275
  136OSM    H6S14766   4.323   6.234   6.469  1.0643  0.3988 -3.9829
  136OSM    H6T14767   4.153   6.235   6.471 -0.8177  1.5965 -0.4745
  136OSM    C7S14768   4.220   6.407   6.570  0.6881 -0.5499 -0.0499
  136OSM    H7S14769   4.116   6.445   6.559  0.6485  0.0453  2.0204
  136OSM    H7T14770   4.295   6.489   6.565  0.4058 -0.1930  1.2058
  136OSM    C8S14771   4.235   6.345   6.711  0.3898 -0.1798  0.7648
  136OSM    H8S14772   4.337   6.300   6.713  1.1856  1.4571 -0.2998
  136OSM    H8T14773   4.155   6.268   6.714 -0.8720  0.8222 -2.4281
  136OSM    C9S14774   4.210   6.448   6.820  0.1306  0.2847  0.6072
  136OSM    H9S14775   4.294   6.521   6.815  0.4048  0.0522  1.6934
  136OSM    H9T14776   4.209   6.394   6.917 -0.3954  0.7974  0.8935
  136OSM   C10S14777   4.073   6.509   6.811  0.0283  0.0224 -0.1612
  136OSM   H10S14778   3.995   6.430   6.810  0.7873 -0.7531  0.6043
  136OSM   H10T14779   4.061   6.577   6.724  0.8241  2.3770  1.4693
  136OSM   C11S14780   4.033   6.585   6.940  0.0465  0.2756  0.3854
  136OSM   H11S14781   4.011   6.522   7.029 -0.0017 -0.9937 -0.4999
  136OSM   H11T14782   3.942   6.642   6.913 -0.4752 -0.0737  1.3858
  136OSM   C12S14783   4.132   6.692   6.987 -0.3265 -0.3555 -0.2564
  136OSM   H12S14784   4.150   6.762   6.902  1.0564 -1.0167 -0.5413
  136OSM   H12T14785   4.238   6.659   6.998 -0.3589 -0.1174  0.7909
  136OSM   C13S14786   4.088   6.773   7.108  0.1952  0.1598  0.3673
  136OSM   H13S14787   3.982   6.797   7.084  0.4013 -0.4794 -1.3160
  136OSM   H13T14788   4.150   6.863   7.128  2.3310 -1.6106  2.3709
  136OSM   C14S14789   4.090   6.690   7.235 -0.0788  0.1342 -0.2998
  136OSM   H14S14790   4.187   6.696   7.288 -0.8111 -1.5796  1.3994
  136OSM   H14T14791   4.074   6.584   7.205 -0.4624  0.8809 -2.9512
  136OSM   C15S14792   3.984   6.724   7.340  0.2338  1.1131 -0.8740
  136OSM   H15S14793   3.890   6.728   7.282  0.9487  1.6684 -2.0312
  136OSM   H15T14794   4.001   6.828   7.376  1.1194  0.1065  1.8587
  136OSM   C16S14795   3.978   6.620   7.451  0.3803  0.2233 -0.3315
  136OSM   H16S14796   4.079   6.604   7.494  0.7949  0.9115 -1.0139
  136OSM   H16T14797   3.965   6.520   7.404  0.5276  0.0216  0.0518
  136OSM   C17S14798   3.876   6.650   7.565  0.2936  0.1919  1.0224
  136OSM   H17S14799   3.770   6.646   7.531  1.0217 -0.7883 -1.3578
  136OSM   H17T14800   3.899   6.751   7.605  2.8395  0.2805 -0.4347
  136OSM   C18S14801   3.883   6.556   7.686  0.4924 -0.0138  0.5217
  136OSM   H18S14802   3.825   6.604   7.768 -1.3342  0.9013 -1.2190
  136OSM   H18T14803   3.987   6.534   7.719  0.9521  0.8182 -0.3509
  136OSM   H18U14804   3.837   6.459   7.655 -0.1301  0.7926 -1.2031
  136OSM    C1F14805   4.114   6.829   6.286 -0.2619  0.6046 -0.5151
  136OSM     OF14806   4.008   6.840   6.222  0.7191 -0.6890 -0.1908
  136OSM    C2F14807   4.134   6.903   6.415  0.4088 -0.5899  0.0371
  136OSM    H2F14808   4.178   7.002   6.393 -0.4535  0.5505  2.9626
  136OSM    H2G14809   4.220   6.864   6.474  2.4059  2.0103 -0.9422
  136OSM    C3F14810   4.001   6.904   6.500 -0.0049 -0.2620 -0.0243
  136OSM    H3F14811   3.972   6.798   6.515 -0.5448 -0.1036  0.0774
  136OSM    H3G14812   3.922   6.966   6.451  1.9694  2.6950  0.2754
  136OSM    C4F14813   4.032   6.966   6.635  0.1282 -0.4858 -0.0141
  136OSM    H4F14814   4.072   7.068   6.621  0.3751 -0.5528  0.1894
  136OSM    H4G14815   4.114   6.908   6.683 -0.5902 -0.3050  1.4974
  136OSM    C5F14816   3.917   6.958   6.731  0.0373 -0.2619 -0.0278
  136OSM    H5F14817   3.901   6.853   6.764 -0.7704  0.3038  1.4426
  136OSM    H5G14818   3.830   6.991   6.670  1.5268  0.6844 -1.7362
  136OSM    C6F14819   3.930   7.037   6.862 -0.5854 -0.2900 -0.1467
  136OSM    H6F14820   3.973   7.137   6.842 -1.9080  0.3628  0.1530
  136OSM    H6G14821   3.994   6.976   6.929 -0.2310 -0.9534 -1.0574
  136OSM    C7F14822   3.797   7.041   6.935 -0.1990 -0.7238  0.2242
  136OSM    H7F14823   3.773   6.940   6.974 -3.9841 -0.0080  0.1679
  136OSM    H7G14824   3.718   7.064   6.861  0.7205 -0.4660 -0.6955
  136OSM    C8F14825   3.797   7.151   7.046 -1.0289 -0.1883 -0.6241
  136OSM    H8F14826   3.689   7.154   7.070 -0.6685 -1.0282  1.3183
  136OSM    H8G14827   3.828   7.251   7.010 -3.8211  1.3429  0.9211
  136OSM    C9F14828   3.879   7.116   7.164 -0.4914  0.5410 -0.3266
  136OSM    H9F14829   3.987   7.121   7.144 -0.3100 -3.7748 -1.4503
  136OSM   C10F14830   3.847   7.078   7.292 -0.0104  0.0714 -0.3163
  136OSM   H10F14831   3.934   7.058   7.357 -1.0234 -1.3217  0.6585
  136OSM   C11F14832   3.706   7.055   7.337 -0.2793 -0.1302 -0.2383
  136OSM   H11F14833   3.632   7.095   7.263  0.8868  0.5842 -1.0502
  136OSM   H11G14834   3.686   7.112   7.430  1.0449  0.5984 -0.3702
  136OSM   C12F14835   3.672   6.906   7.375  0.0652 -0.4571  0.6917
  136OSM   H12F14836   3.727   6.874   7.466  0.0085 -3.2509 -0.1558
  136OSM   H12G14837   3.701   6.830   7.299 -3.6755 -2.6680  1.2269
  136OSM   C13F14838   3.524   6.882   7.394  0.1831  0.0326 -0.0380
  136OSM   H13F14839   3.480   6.899   7.293  0.1045 -1.4935 -0.2920
  136OSM   H13G14840   3.466   6.944   7.466 -1.3493 -1.2040 -0.1347
  136OSM   C14F14841   3.489   6.740   7.441  0.5089  0.4075 -0.0732
  136OSM   H14F14842   3.522   6.722   7.545 -0.2263 -3.2451 -0.3349
  136OSM   H14G14843   3.533   6.662   7.375  1.3232 -1.3035  2.3802
  136OSM   C15F14844   3.335   6.711   7.438  0.4088 -0.7250  0.0903
  136OSM   H15F14845   3.279   6.764   7.358 -0.4941 -1.7621  0.0103
  136OSM   H15G14846   3.299   6.748   7.536 -0.8447  2.5183 -1.4462
  136OSM   C16F14847   3.304   6.559   7.443 -0.7036 -0.7164  0.1021
  136OSM   H16F14848   3.353   6.492   7.516 -0.1142 -1.3387 -0.8360
  136OSM   H16G14849   3.348   6.524   7.347  1.2294  1.3292  0.1519
  136OSM   C17F14850   3.154   6.524   7.452  0.1840 -0.0504 -0.5548
  136OSM   H17F14851   3.102   6.586   7.528 -0.3856  1.4774 -2.1395
  136OSM   H17G14852   3.132   6.420   7.486  0.7959  0.2342  0.8006
  136OSM   C18F14853   3.079   6.538   7.321  0.2749 -0.7177  0.1755
  136OSM   H18F14854   2.971   6.515   7.329 -0.3755  1.2070 -2.0569
  136OSM   H18G14855   3.134   6.490   7.238  0.9558  2.5632 -1.4218
  136OSM   H18H14856   3.100   6.644   7.296  1.6500 -0.4356  2.2257
  137OSM      N14857   0.575   4.525   5.606  0.0863 -0.0353 -0.6240
  137OSM    C1514858   0.489   4.544   5.727 -0.5671 -0.5453 -0.2294
  137OSM   H15A14859   0.551   4.517   5.811 -0.9109 -2.9481 -0.6618
  137OSM   H15B14860   0.402   4.479   5.732  0.0651 -1.2975  1.7861
  137OSM   H15C14861   0.446   4.643   5.727 -1.0567 -0.7546  0.7990
  137OSM    C1414862   0.644   4.395   5.609  0.0286 -0.0734  0.4807
  137OSM   H14A14863   0.564   4.324   5.592 -0.4638  0.2844  1.2716
  137OSM   H14B14864   0.702   4.401   5.699  3.2705  1.6787 -1.5223
  137OSM   H14C14865   0.716   4.376   5.531 -0.9828 -2.0717 -0.0526
  137OSM    C1314866   0.481   4.539   5.489 -0.0195 -0.3233 -0.4436
  137OSM   H13A14867   0.522   4.547   5.390  0.1779  0.6201 -0.2956
  137OSM   H13B14868   0.426   4.631   5.502  1.4589  0.7827 -1.6569
  137OSM   H13C14869   0.410   4.457   5.487 -0.0424 -0.3185 -0.0703
  137OSM    C1214870   0.681   4.639   5.596 -0.1311 -0.3624 -1.1293
  137OSM   H12A14871   0.624   4.730   5.608 -1.5228 -1.3615  0.3354
  137OSM   H12B14872   0.718   4.641   5.495 -3.5773  0.3950 -2.5356
  137OSM    C1114873   0.807   4.646   5.684 -0.0398  0.8602  0.0139
  137OSM   H11A14874   0.862   4.554   5.654  0.0729  1.6008 -2.2020
  137OSM   H11B14875   0.779   4.639   5.791  2.5028  0.5939  0.7252
  137OSM      P14876   0.988   4.769   5.552 -0.1163 -0.1275  0.0491
  137OSM    O1314877   0.967   4.670   5.443 -0.2358 -0.3326 -0.3537
  137OSM    O1414878   1.033   4.905   5.508  0.2573  0.4509 -0.1316
  137OSM    O1114879   1.106   4.707   5.641  0.4955  0.1742 -0.0473
  137OSM    O1214880   0.866   4.775   5.649  0.1270  0.9221 -0.0900
  137OSM    C1S14881   1.154   4.790   5.747 -0.7811 -0.7454  0.0732
  137OSM    H1S14882   1.139   4.899   5.732  1.6496 -0.0487  1.9767
  137OSM    H1T14883   1.265   4.779   5.753 -0.3526  1.6170 -1.9319
  137OSM     NF14884   1.151   4.853   5.986 -0.1439  0.2444 -0.1664
  137OSM    HNF14885   1.234   4.831   6.037 -0.0123 -0.2455 -0.5737
  137OSM    C2S14886   1.102   4.757   5.886 -0.1182 -0.2070  0.5219
  137OSM    H2S14887   0.991   4.756   5.879 -0.1532  1.7229  0.3334
  137OSM    C3S14888   1.134   4.613   5.929 -0.2314 -0.2436 -0.4980
  137OSM    H3S14889   1.242   4.606   5.954 -0.0305  0.6778 -1.0802
  137OSM     O314890   1.114   4.515   5.825  0.3114 -0.2702 -0.1776
  137OSM    HO314891   1.126   4.559   5.740 -1.8669 -2.6892 -1.8947
  137OSM    C4S14892   1.067   4.569   6.059  0.3091 -0.1809  0.0410
  137OSM    H4S14893   0.957   4.562   6.057  0.2877 -0.0164  0.5521
  137OSM    C5S14894   1.128   4.506   6.166 -0.1405  0.7557  0.4734
  137OSM    H5S14895   1.238   4.499   6.167 -0.1038  0.8108 -0.9251
  137OSM    C6S14896   1.041   4.455   6.281 -0.1199 -1.0820  0.4864
  137OSM    H6S14897   1.110   4.419   6.360  1.0645  2.1039  1.0654
  137OSM    H6T14898   0.976   4.376   6.238 -0.6910 -0.5420  0.3455
  137OSM    C7S14899   0.940   4.553   6.339 -0.2413 -0.6252  0.3080
  137OSM    H7S14900   0.873   4.593   6.259  0.8653 -1.2524 -0.9547
  137OSM    H7T14901   0.994   4.644   6.373  0.6456  0.2148 -3.0100
  137OSM    C8S14902   0.848   4.498   6.446 -0.3398 -0.5810  0.3532
  137OSM    H8S14903   0.778   4.422   6.405 -0.2993 -0.0104 -0.8282
  137OSM    H8T14904   0.779   4.581   6.474  1.3111  1.0386 -0.1566
  137OSM    C9S14905   0.921   4.456   6.581 -0.4818  0.1247  0.3870
  137OSM    H9S14906   0.996   4.533   6.609 -2.0476  1.4065  1.2841
  137OSM    H9T14907   0.991   4.371   6.571  1.6259  1.8005  0.1866
  137OSM   C10S14908   0.836   4.416   6.701  0.1009 -0.7994 -0.0245
  137OSM   H10S14909   0.763   4.340   6.666 -0.3731 -0.4328  0.1581
  137OSM   H10T14910   0.772   4.498   6.738 -1.8612 -2.7490  1.1675
  137OSM   C11S14911   0.924   4.351   6.816 -0.4173 -0.1088  0.3367
  137OSM   H11S14912   1.002   4.423   6.850  2.7309 -1.8444 -2.5668
  137OSM   H11T14913   0.984   4.263   6.782  1.3337 -0.0018  2.8452
  137OSM   C12S14914   0.845   4.305   6.944  0.2181  0.5314  0.3090
  137OSM   H12S14915   0.751   4.256   6.911 -0.1493  0.7118  1.0763
  137OSM   H12T14916   0.816   4.387   7.013 -2.2026 -0.5252  0.6287
  137OSM   C13S14917   0.923   4.197   7.025  0.7404  0.1972  0.0315
  137OSM   H13S14918   1.017   4.237   7.069 -0.2150  3.1631 -0.3687
  137OSM   H13T14919   0.948   4.110   6.961 -3.1434 -2.0858  1.2951
  137OSM   C14S14920   0.834   4.151   7.148  0.7493 -0.0907 -0.5726
  137OSM   H14S14921   0.735   4.111   7.117  0.9455 -1.7922  0.8514
  137OSM   H14T14922   0.808   4.239   7.210  2.3793  0.8872 -1.2206
  137OSM   C15S14923   0.904   4.055   7.246 -0.1557  0.2120 -0.8997
  137OSM   H15S14924   0.997   4.109   7.276 -1.7486  2.0049  1.1229
  137OSM   H15T14925   0.918   3.956   7.198  2.8772  0.2362 -0.2784
  137OSM   C16S14926   0.827   4.030   7.378 -0.4299  0.1891  0.0231
  137OSM   H16S14927   0.747   3.962   7.343  1.4869 -0.3620 -3.8906
  137OSM   H16T14928   0.794   4.125   7.423  0.1972  1.6289 -2.3702
  137OSM   C17S14929   0.923   3.961   7.480  0.4775  0.6132 -0.3011
  137OSM   H17S14930   0.997   4.037   7.516  1.1820 -1.0009  1.8580
  137OSM   H17T14931   0.976   3.874   7.436 -2.5526  0.3012 -3.7628
  137OSM   C18S14932   0.856   3.925   7.603 -0.0681 -0.6360 -0.1954
  137OSM   H18S14933   0.790   3.837   7.586  1.4254 -1.7644 -0.3381
  137OSM   H18T14934   0.801   4.010   7.649  0.4873 -0.2951 -0.1554
  137OSM   H18U14935   0.932   3.888   7.675 -0.1659 -2.3489 -0.9039
  137OSM    C1F14936   1.099   4.976   6.004  0.6570  0.2331  0.1009
  137OSM     OF14937   0.991   4.998   5.950 -0.7920 -0.4589  0.0184
  137OSM    C2F14938   1.180   5.068   6.089 -0.2243  0.9164  0.8261
  137OSM    H2F14939   1.184   5.170   6.044 -0.7470  0.6326  0.1080
  137OSM    H2G14940   1.280   5.021   6.095 -0.3314  0.2037 -1.6144
  137OSM    C3F14941   1.114   5.088   6.224  0.1269 -0.1304  0.5820
  137OSM    H3F14942   1.005   5.104   6.231 -0.4136 -3.1381  0.6722
  137OSM    H3G14943   1.165   5.176   6.268  0.4700 -0.8395  1.6613
  137OSM    C4F14944   1.141   4.969   6.314  0.2619 -1.0079  0.6841
  137OSM    H4F14945   1.249   4.992   6.326  0.1642  0.1218 -0.2974
  137OSM    H4G14946   1.137   4.868   6.268 -0.5147 -0.1650 -1.1997
  137OSM    C5F14947   1.076   4.989   6.451  0.2640  0.1119 -0.4027
  137OSM    H5F14948   0.967   4.970   6.437  0.1546  0.2899  0.1412
  137OSM    H5G14949   1.079   5.091   6.494  0.6029 -0.3764  0.7737
  137OSM    C6F14950   1.127   4.883   6.555  0.2730 -0.2425 -0.3029
  137OSM    H6F14951   1.234   4.896   6.582 -0.2129 -1.6242  2.6934
  137OSM    H6G14952   1.101   4.780   6.524  0.7420 -0.8046  1.1066
  137OSM    C7F14953   1.053   4.907   6.692  1.0568 -0.2487 -0.3417
  137OSM    H7F14954   0.942   4.910   6.683  1.0353  0.2400  0.0604
  137OSM    H7G14955   1.069   5.008   6.733 -0.1825  0.1289 -0.7510
  137OSM    C8F14956   1.095   4.802   6.795 -0.6794 -0.5898 -0.7387
  137OSM    H8F14957   1.083   4.702   6.748 -0.8789 -0.3878 -1.1182
  137OSM    H8G14958   1.033   4.805   6.887  3.8110 -0.6276  2.6611
  137OSM    C9F14959   1.236   4.834   6.850  0.0575  0.5951 -0.2249
  137OSM    H9F14960   1.324   4.808   6.789 -0.7167 -0.0514 -1.0987
  137OSM   C10F14961   1.261   4.871   6.975 -0.0323 -0.0561  0.1251
  137OSM   H10F14962   1.363   4.869   7.016 -0.1205 -0.6955  0.3287
  137OSM   C11F14963   1.156   4.901   7.078 -0.0180 -1.0908 -0.9483
  137OSM   H11F14964   1.066   4.948   7.034 -1.2134 -1.6898  0.7262
  137OSM   H11G14965   1.196   4.986   7.137 -0.2309 -2.1449  0.7965
  137OSM   C12F14966   1.124   4.800   7.193 -0.3665 -0.0643 -0.3596
  137OSM   H12F14967   1.078   4.848   7.282 -0.7770 -2.8323  1.0222
  137OSM   H12G14968   1.213   4.746   7.233 -1.5389 -0.9517  1.1595
  137OSM   C13F14969   1.023   4.696   7.142 -0.0337  0.5593  0.5613
  137OSM   H13F14970   1.056   4.659   7.043 -1.9916 -2.5485  0.9368
  137OSM   H13G14971   0.919   4.730   7.122  0.0594 -0.8530 -2.9488
  137OSM   C14F14972   1.010   4.571   7.225 -0.0272  0.1789 -0.0700
  137OSM   H14F14973   1.066   4.484   7.184  0.6241  1.0774 -1.1596
  137OSM   H14G14974   0.905   4.536   7.214 -0.5944  1.0427  2.1471
  137OSM   C15F14975   1.029   4.583   7.371 -0.3880 -0.0534  0.0879
  137OSM   H15F14976   0.952   4.653   7.410 -0.2448  1.1695 -1.6983
  137OSM   H15G14977   1.127   4.622   7.406 -0.5278 -1.3170  2.0627
  137OSM   C16F14978   1.004   4.444   7.430  0.2144  0.2135  0.3309
  137OSM   H16F14979   1.094   4.379   7.421  0.1883 -0.0244  1.5860
  137OSM   H16G14980   0.922   4.396   7.372  0.4690 -0.3538  0.4338
  137OSM   C17F14981   0.963   4.445   7.580 -0.2328 -0.1127  0.2145
  137OSM   H17F14982   0.868   4.501   7.588  0.5470  1.3192 -0.2853
  137OSM   H17G14983   1.041   4.498   7.637 -1.0598 -0.9857  2.2447
  137OSM   C18F14984   0.949   4.311   7.645  0.0913  0.6053  0.1079
  137OSM   H18F14985   0.866   4.258   7.594  2.3843 -1.4255 -1.7959
  137OSM   H18G14986   0.929   4.322   7.754  3.4195  0.3729  0.8570
  137OSM   H18H14987   1.038   4.246   7.633 -1.0718 -1.1247  0.5362
  138OSM      N14988   1.270   5.590   5.144 -0.4821  0.3891  0.4400
  138OSM    C1514989   1.302   5.442   5.120  0.6358 -1.0045  0.2162
  138OSM   H15A14990   1.218   5.378   5.140  0.4648  0.1693  4.3180
  138OSM   H15B14991   1.368   5.408   5.199  1.0904  1.3345  0.9331
  138OSM   H15C14992   1.345   5.411   5.026 -0.0872 -1.7700  0.1304
  138OSM    C1414993   1.193   5.637   5.020  0.3451 -0.1935 -0.0738
  138OSM   H14A14994   1.111   5.571   4.998  1.6971 -1.7999 -0.5238
  138OSM   H14B14995   1.256   5.622   4.934  0.6511 -0.5320  0.2034
  138OSM   H14C14996   1.154   5.737   5.027 -1.4038 -0.7189 -1.5146
  138OSM    C1314997   1.171   5.611   5.258  0.1791 -0.6976 -0.4695
  138OSM   H13A14998   1.130   5.711   5.263 -2.0381 -1.4941 -1.5649
  138OSM   H13B14999   1.222   5.588   5.351 -0.9293 -1.3644 -0.0065
  138OSM   H13C15000   1.087   5.544   5.248 -0.4331  0.0264 -0.2952
  138OSM    C1215001   1.387   5.681   5.161 -0.5666  0.7232  0.5034
  138OSM   H12A15002   1.355   5.784   5.162  0.6143  1.1215  1.6055
  138OSM   H12B15003   1.452   5.668   5.076 -2.6380 -1.2064 -0.9214
  138OSM    C1115004   1.470   5.648   5.292  0.5851 -0.1164 -0.2483
  138OSM   H11A15005   1.566   5.703   5.287 -0.4838  1.9036  0.3274
  138OSM   H11B15006   1.499   5.540   5.295  2.9061  0.4772  0.0943
  138OSM      P15007   1.395   5.828   5.459 -0.1412 -0.1672 -0.2024
  138OSM    O1315008   1.528   5.889   5.468  0.7813 -0.3489 -0.0200
  138OSM    O1415009   1.297   5.900   5.367 -0.6467  0.4175 -0.2582
  138OSM    O1115010   1.348   5.810   5.607 -0.3779  0.7798 -0.7424
  138OSM    O1215011   1.398   5.678   5.412 -0.8254  0.3767  0.0616
  138OSM    C1S15012   1.440   5.754   5.704  0.3815 -0.5676  0.6111
  138OSM    H1S15013   1.533   5.707   5.666  1.1959  1.8934 -0.6573
  138OSM    H1T15014   1.385   5.677   5.762 -0.0095 -0.3202  0.5755
  138OSM     NF15015   1.567   5.779   5.908 -0.5810  0.0901 -1.2488
  138OSM    HNF15016   1.514   5.747   5.987  0.5343  0.9901 -0.0901
  138OSM    C2S15017   1.490   5.854   5.815 -0.2843 -0.4260  0.1533
  138OSM    H2S15018   1.554   5.928   5.764 -0.4823 -0.7533 -0.5899
  138OSM    C3S15019   1.367   5.927   5.875  0.2623  0.2277 -0.0118
  138OSM    H3S15020   1.285   5.864   5.914  0.1164 -0.5916 -1.5692
  138OSM     O315021   1.284   6.000   5.789  0.0116 -0.2898  0.3391
  138OSM    HO315022   1.283   5.943   5.712  0.8285 -0.5434  0.5001
  138OSM    C4S15023   1.421   6.020   5.980  0.1827  0.3432 -0.2559
  138OSM    H4S15024   1.479   6.106   5.943  1.9293 -1.0900 -1.0082
  138OSM    C5S15025   1.397   6.000   6.113  0.2757  0.4031  0.3759
  138OSM    H5S15026   1.348   5.909   6.150 -0.9767  0.4961 -0.9432
  138OSM    C6S15027   1.448   6.093   6.226  0.7255  0.4835  0.2775
  138OSM    H6S15028   1.367   6.165   6.248 -0.2514 -0.0661 -1.3907
  138OSM    H6T15029   1.533   6.148   6.178  0.8566 -0.1966 -0.2810
  138OSM    C7S15030   1.504   6.014   6.343  0.0426  0.4726  0.1373
  138OSM    H7S15031   1.574   6.070   6.409 -0.0901 -1.0056  1.5896
  138OSM    H7T15032   1.559   5.923   6.312  1.7893  0.4291  3.0057
  138OSM    C8S15033   1.393   5.964   6.440  0.2503 -0.1517  0.5032
  138OSM    H8S15034   1.346   5.878   6.387  3.4002 -0.7692 -1.5576
  138OSM    H8T15035   1.322   6.048   6.456  1.5346  1.0264  0.0871
  138OSM    C9S15036   1.449   5.910   6.572  0.1355 -0.9866  0.5020
  138OSM    H9S15037   1.503   5.995   6.619  0.5479 -0.1020 -1.4585
  138OSM    H9T15038   1.528   5.833   6.562 -0.3932 -1.5190  0.4073
  138OSM   C10S15039   1.349   5.863   6.674 -0.7965  0.2532  0.1300
  138OSM   H10S15040   1.283   5.781   6.639 -1.1573  1.0302 -1.0887
  138OSM   H10T15041   1.279   5.947   6.699 -1.8545 -0.5372 -0.0864
  138OSM   C11S15042   1.414   5.814   6.801 -0.2587  0.1085  0.1640
  138OSM   H11S15043   1.470   5.904   6.832 -1.0195  1.2894 -1.7476
  138OSM   H11T15044   1.488   5.731   6.789 -0.7845 -0.7420  2.3638
  138OSM   C12S15045   1.311   5.765   6.906  0.1596 -0.2918 -0.1889
  138OSM   H12S15046   1.254   5.674   6.876 -0.3380 -0.0451 -0.0040
  138OSM   H12T15047   1.237   5.843   6.935  0.3412 -0.6884  1.4548
  138OSM   C13S15048   1.388   5.726   7.028  0.2122  0.2599  0.2669
  138OSM   H13S15049   1.454   5.808   7.064 -1.0826  1.1000  0.7781
  138OSM   H13T15050   1.459   5.645   6.998 -1.3882 -1.6219  1.3405
  138OSM   C14S15051   1.298   5.668   7.145  0.2230  0.4222  0.0932
  138OSM   H14S15052   1.369   5.612   7.210 -0.0426 -0.0956 -0.0578
  138OSM   H14T15053   1.219   5.602   7.102 -0.2745 -0.2734  1.9281
  138OSM   C15S15054   1.220   5.770   7.225 -0.0847  0.5340 -0.3496
  138OSM   H15S15055   1.169   5.842   7.158  0.3833  1.4149  0.2300
  138OSM   H15T15056   1.288   5.845   7.271 -1.4610  1.3674  0.3662
  138OSM   C16S15057   1.135   5.702   7.334 -1.0820 -0.2409 -0.5977
  138OSM   H16S15058   1.098   5.602   7.301  0.0449 -0.9961  0.3647
  138OSM   H16T15059   1.040   5.757   7.354 -0.2342  1.4449 -0.9889
  138OSM   C17S15060   1.211   5.686   7.469  1.0149 -0.1620 -1.0087
  138OSM   H17S15061   1.263   5.780   7.497  0.0754  0.3596 -0.9951
  138OSM   H17T15062   1.292   5.612   7.452  0.8676 -0.3265 -0.9958
  138OSM   C18S15063   1.105   5.649   7.576  0.1671  0.1825 -0.3489
  138OSM   H18S15064   1.157   5.659   7.674  0.1182  0.0237 -0.3078
  138OSM   H18T15065   1.067   5.545   7.572  1.1589 -0.2139  0.1413
  138OSM   H18U15066   1.031   5.730   7.559  1.0565  0.6824 -2.0800
  138OSM    C1F15067   1.691   5.741   5.880  0.3319 -0.3131 -0.4638
  138OSM     OF15068   1.746   5.767   5.773 -0.4839  0.0240 -0.3865
  138OSM    C2F15069   1.764   5.670   5.985 -0.2106 -0.1651  0.2300
  138OSM    H2F15070   1.797   5.572   5.944 -3.6874 -1.4290  0.1473
  138OSM    H2G15071   1.684   5.639   6.054 -2.0680  0.3599 -1.5879
  138OSM    C3F15072   1.874   5.750   6.051 -0.5555 -0.0088 -0.1101
  138OSM    H3F15073   1.835   5.848   6.085  0.8212  0.3284  0.5812
  138OSM    H3G15074   1.957   5.768   5.979 -1.8348 -0.3300 -1.7298
  138OSM    C4F15075   1.940   5.677   6.169 -0.2600  0.2207 -0.0399
  138OSM    H4F15076   2.047   5.701   6.182 -0.2690 -0.6803  2.0048
  138OSM    H4G15077   1.923   5.567   6.166  0.9504  0.0057  0.6764
  138OSM    C5F15078   1.862   5.710   6.302 -0.5553 -0.2621  0.9377
  138OSM    H5F15079   1.761   5.665   6.294 -0.8732  0.3528  1.4382
  138OSM    H5G15080   1.857   5.819   6.323 -0.3090 -0.4964  2.3716
  138OSM    C6F15081   1.939   5.659   6.423 -0.5194 -0.1691 -0.6815
  138OSM    H6F15082   2.038   5.705   6.445  0.2432 -1.9075 -0.2707
  138OSM    H6G15083   1.973   5.554   6.409 -2.7637 -0.9217 -0.8371
  138OSM    C7F15084   1.852   5.681   6.548 -0.5575  0.4617  0.0138
  138OSM    H7F15085   1.751   5.636   6.537 -1.3366  2.3991 -1.3981
  138OSM    H7G15086   1.838   5.790   6.560  2.0553  0.9786 -1.0447
  138OSM    C8F15087   1.914   5.618   6.677 -0.3751  0.4948 -0.1018
  138OSM    H8F15088   2.019   5.647   6.699 -0.5346 -0.0213  1.4755
  138OSM    H8G15089   1.921   5.508   6.660 -0.7503  0.6183 -1.1130
  138OSM    C9F15090   1.827   5.627   6.796  1.0044  0.2033 -0.5895
  138OSM    H9F15091   1.732   5.575   6.776  1.0232 -0.1879  0.2511
  138OSM   C10F15092   1.854   5.683   6.915  0.4914  0.3356 -0.0706
  138OSM   H10F15093   1.772   5.682   6.988 -0.7730 -2.0461 -1.4083
  138OSM   C11F15094   1.978   5.750   6.963 -0.0149  0.5930  0.2061
  138OSM   H11F15095   1.968   5.858   6.985 -1.5554  0.3568  0.7611
  138OSM   H11G15096   2.054   5.740   6.882  0.1075  1.1345  0.2483
  138OSM   C12F15097   2.030   5.676   7.088  0.1167  0.1279  0.2529
  138OSM   H12F15098   2.043   5.567   7.072  0.1315  0.1655  0.0109
  138OSM   H12G15099   1.953   5.692   7.167  0.0994 -0.7576  0.4296
  138OSM   C13F15100   2.163   5.736   7.136 -0.8913 -0.3626 -0.5177
  138OSM   H13F15101   2.133   5.840   7.161  0.6272  0.1709 -0.7969
  138OSM   H13G15102   2.219   5.738   7.040 -2.2316  0.7238 -1.3238
  138OSM   C14F15103   2.227   5.676   7.263 -0.1538 -0.1182  0.3837
  138OSM   H14F15104   2.235   5.566   7.260 -2.0380 -0.2641 -1.2562
  138OSM   H14G15105   2.157   5.702   7.345 -0.0680 -0.8895  0.7125
  138OSM   C15F15106   2.363   5.738   7.288 -0.7857  0.3028 -0.7900
  138OSM   H15F15107   2.340   5.843   7.316 -0.6725  0.0430  0.3019
  138OSM   H15G15108   2.433   5.735   7.202  0.5195 -0.4074  0.2603
  138OSM   C16F15109   2.437   5.654   7.395  0.0605 -0.1922 -0.0461
  138OSM   H16F15110   2.546   5.676   7.387  0.0817 -0.3689 -0.2445
  138OSM   H16G15111   2.428   5.548   7.362 -0.3645 -0.1523 -0.0649
  138OSM   C17F15112   2.400   5.682   7.537  0.0522 -0.4900 -0.0702
  138OSM   H17F15113   2.292   5.659   7.551  0.3534 -2.1454 -0.2249
  138OSM   H17G15114   2.398   5.792   7.551 -2.2176 -0.3487 -1.0654
  138OSM   C18F15115   2.490   5.618   7.644 -0.4826  0.0552  0.5509
  138OSM   H18F15116   2.593   5.661   7.636 -0.4695 -0.2571 -1.3044
  138OSM   H18G15117   2.499   5.509   7.624 -1.3809  0.0348  0.2408
  138OSM   H18H15118   2.451   5.633   7.747 -0.5901 -0.1858  0.5456
  139OSM      N15119   5.216   6.246   5.389 -0.0634  0.0022  0.3717
  139OSM    C1515120   5.252   6.382   5.338  0.0029  0.0360  0.7314
  139OSM   H15A15121   5.182   6.459   5.367  0.2960  1.3190 -1.7172
  139OSM   H15B15122   5.268   6.373   5.232  0.7985 -1.7529  0.9629
  139OSM   H15C15123   5.351   6.409   5.374 -0.1491 -1.2140  2.1868
  139OSM    C1415124   5.075   6.213   5.356  0.0247  0.0820  0.3348
  139OSM   H14A15125   5.058   6.201   5.250 -2.5089  1.3973  0.4929
  139OSM   H14B15126   5.006   6.282   5.405 -0.3829 -1.1743  1.6055
  139OSM   H14C15127   5.046   6.118   5.400 -2.7308  0.8350  0.3754
  139OSM    C1315128   5.296   6.143   5.316  0.1561  0.0513  0.0036
  139OSM   H13A15129   5.397   6.157   5.350  0.3244  0.5458 -0.6900
  139OSM   H13B15130   5.290   6.151   5.209  2.1442 -1.2984 -0.2515
  139OSM   H13C15131   5.256   6.045   5.340 -0.4325 -0.4363 -2.6910
  139OSM    C1215132   5.237   6.235   5.531  0.0703  0.3745 -0.5887
  139OSM   H12A15133   5.340   6.256   5.557 -0.0104  1.3528 -1.0033
  139OSM   H12B15134   5.228   6.133   5.564 -1.2745  1.3076  2.3074
  139OSM    C1115135   5.144   6.307   5.641  0.9768 -1.0942 -0.0200
  139OSM   H11A15136   5.187   6.290   5.742  1.5860 -0.7211 -0.2101
  139OSM   H11B15137   5.044   6.259   5.653  1.0240 -1.0482  0.5823
  139OSM      P15138   5.212   6.555   5.667  0.1595  0.0920 -0.3375
  139OSM    O1315139   5.326   6.576   5.575 -0.3259 -0.5689  0.3308
  139OSM    O1415140   5.128   6.672   5.709  0.0230 -0.2007  0.0565
  139OSM    O1115141   5.280   6.491   5.791 -0.0876  0.5295  0.1031
  139OSM    O1215142   5.120   6.443   5.600 -0.2518 -0.5495  0.0590
  139OSM    C1S15143   5.390   6.539   5.868  0.4236  0.7190  0.7164
  139OSM    H1S15144   5.486   6.545   5.811  0.4739 -1.1201  0.5555
  139OSM    H1T15145   5.411   6.461   5.944 -0.0161 -1.7891 -1.5557
  139OSM     NF15146   5.499   6.731   5.982  0.0570 -0.4308 -0.2288
  139OSM    HNF15147   5.520   6.719   6.078  1.0549  0.4490 -0.3153
  139OSM    C2S15148   5.360   6.677   5.941 -0.3314  0.3826  0.9240
  139OSM    H2S15149   5.321   6.752   5.869  0.0531  0.3741  0.7018
  139OSM    C3S15150   5.257   6.651   6.054 -0.8558 -0.0366 -0.1758
  139OSM    H3S15151   5.305   6.567   6.109  1.5546  0.9935 -0.5525
  139OSM     O315152   5.121   6.616   6.011  0.2503 -0.3719 -0.0644
  139OSM    HO315153   5.134   6.583   5.922 -0.6202  1.1363 -0.8019
  139OSM    C4S15154   5.250   6.776   6.140 -0.2740 -0.6367 -0.1062
  139OSM    H4S15155   5.228   6.864   6.078  1.4025 -1.8028 -2.5339
  139OSM    C5S15156   5.277   6.781   6.276  0.5362 -0.5510 -0.4975
  139OSM    H5S15157   5.298   6.687   6.329  0.2289 -2.1585 -3.0504
  139OSM    C6S15158   5.267   6.902   6.358  0.5719  0.7884  0.3557
  139OSM    H6S15159   5.179   6.892   6.424  1.2862  1.9749  1.5427
  139OSM    H6T15160   5.248   6.995   6.300 -0.2318  1.0129  0.9684
  139OSM    C7S15161   5.393   6.926   6.435 -0.1616  0.4385 -0.6492
  139OSM    H7S15162   5.370   7.027   6.474  1.0570  0.7401 -0.6616
  139OSM    H7T15163   5.480   6.928   6.366  0.6529 -0.1152  0.3440
  139OSM    C8S15164   5.417   6.826   6.551 -0.1459 -0.1317  0.4527
  139OSM    H8S15165   5.417   6.731   6.493 -1.8464 -0.5195  1.0184
  139OSM    H8T15166   5.331   6.834   6.621 -1.7585 -1.6504 -1.2221
  139OSM    C9S15167   5.544   6.852   6.629 -0.7306 -0.3532  0.0410
  139OSM    H9S15168   5.526   6.953   6.673 -0.0158 -0.5620  0.8210
  139OSM    H9T15169   5.626   6.873   6.556  0.1641  0.3967  1.2260
  139OSM   C10S15170   5.555   6.756   6.753  0.6255  0.3077  0.2406
  139OSM   H10S15171   5.607   6.659   6.734  3.4679  1.9796 -1.3520
  139OSM   H10T15172   5.449   6.739   6.781  0.4604  0.8222 -0.0665
  139OSM   C11S15173   5.623   6.835   6.869  0.5583 -0.2955 -0.0435
  139OSM   H11S15174   5.568   6.930   6.879 -0.4573 -0.7978 -0.6895
  139OSM   H11T15175   5.731   6.853   6.849  1.8532 -1.9073  4.2549
  139OSM   C12S15176   5.615   6.764   7.006  0.0540 -0.3010  0.0345
  139OSM   H12S15177   5.649   6.659   7.005 -1.4205 -0.8211  1.0419
  139OSM   H12T15178   5.509   6.765   7.040 -0.3129 -0.7345 -1.0482
  139OSM   C13S15179   5.697   6.849   7.109  0.1766 -0.0156 -0.0575
  139OSM   H13S15180   5.636   6.941   7.125  0.5577 -0.0112  1.6207
  139OSM   H13T15181   5.796   6.864   7.060  0.8739  1.8880  1.7311
  139OSM   C14S15182   5.722   6.796   7.252  0.7956 -0.6669 -0.0557
  139OSM   H14S15183   5.797   6.714   7.245  0.7872 -0.5905 -1.1252
  139OSM   H14T15184   5.634   6.746   7.297  0.4882  0.9171  1.1798
  139OSM   C15S15185   5.769   6.911   7.348 -0.1543 -0.2111  0.1525
  139OSM   H15S15186   5.825   6.982   7.284  0.4188 -0.3113  0.5309
  139OSM   H15T15187   5.832   6.858   7.423 -0.6734 -1.3707 -0.2043
  139OSM   C16S15188   5.650   6.980   7.413  0.2945  0.5520 -0.1385
  139OSM   H16S15189   5.610   6.930   7.504 -1.0179 -0.6930 -1.3331
  139OSM   H16T15190   5.574   6.966   7.333  0.1523 -3.6346  0.4613
  139OSM   C17S15191   5.673   7.131   7.411 -0.1216  0.4038  0.1508
  139OSM   H17S15192   5.712   7.157   7.310 -0.2392 -0.1969 -0.0553
  139OSM   H17T15193   5.753   7.153   7.484 -1.5491 -0.5196  2.0854
  139OSM   C18S15194   5.548   7.212   7.431 -0.3910  0.3910 -0.6571
  139OSM   H18S15195   5.469   7.164   7.369  0.1244 -2.4063  0.7295
  139OSM   H18T15196   5.566   7.314   7.390 -0.6121  0.3738 -0.7973
  139OSM   H18U15197   5.506   7.205   7.534 -3.7145  0.8154 -1.8376
  139OSM    C1F15198   5.577   6.798   5.904  0.4931  0.1042  0.3543
  139OSM     OF15199   5.539   6.832   5.794  0.1510  0.6178  0.0574
  139OSM    C2F15200   5.720   6.816   5.944 -0.3354  0.3693  0.4067
  139OSM    H2F15201   5.781   6.777   5.859  1.0580  0.1328  1.4831
  139OSM    H2G15202   5.745   6.750   6.029 -0.3019 -0.0095  0.1030
  139OSM    C3F15203   5.750   6.968   5.978  0.7907 -0.3748 -0.6549
  139OSM    H3F15204   5.714   7.041   5.903 -0.3480  0.0566  0.2685
  139OSM    H3G15205   5.859   6.973   6.000 -0.0011  1.5513  4.3550
  139OSM    C4F15206   5.686   7.005   6.112  0.6009  0.6976  0.5238
  139OSM    H4F15207   5.733   6.939   6.188 -0.2494 -0.1817  0.3016
  139OSM    H4G15208   5.576   6.989   6.116  0.7521 -3.2787 -3.3517
  139OSM    C5F15209   5.714   7.156   6.154  0.9172  0.2249  0.2310
  139OSM    H5F15210   5.684   7.218   6.066  0.1538 -0.7450 -0.2192
  139OSM    H5G15211   5.823   7.174   6.164  1.3761 -1.5495 -1.0463
  139OSM    C6F15212   5.642   7.173   6.293 -0.2663  0.0425  0.3191
  139OSM    H6F15213   5.672   7.084   6.353 -0.0118  0.8253  1.3941
  139OSM    H6G15214   5.532   7.170   6.281 -0.0951 -1.0598 -1.2678
  139OSM    C7F15215   5.672   7.303   6.370 -0.7001  1.1330  1.0010
  139OSM    H7F15216   5.621   7.386   6.317  1.3150  0.7576 -1.7104
  139OSM    H7G15217   5.782   7.306   6.359 -0.5890 -1.1567  0.9767
  139OSM    C8F15218   5.656   7.299   6.523 -0.3899  0.6255  0.2840
  139OSM    H8F15219   5.694   7.389   6.577 -0.7906  0.0744  1.5093
  139OSM    H8G15220   5.730   7.221   6.552  1.4040  1.7936 -0.8774
  139OSM    C9F15221   5.523   7.278   6.595 -0.2759 -0.7895  0.3694
  139OSM    H9F15222   5.431   7.298   6.539  0.0029 -1.1978 -0.2363
  139OSM   C10F15223   5.514   7.239   6.721 -0.0532  0.3254 -0.0055
  139OSM   H10F15224   5.413   7.225   6.762  0.2595  1.3816  1.1979
  139OSM   C11F15225   5.634   7.223   6.815 -0.2472  0.0098 -0.8119
  139OSM   H11F15226   5.730   7.227   6.759  1.0903  0.2112  1.3802
  139OSM   H11G15227   5.630   7.123   6.863 -1.6991  0.0091 -0.8758
  139OSM   C12F15228   5.641   7.342   6.912  0.2593  0.7553  0.5768
  139OSM   H12F15229   5.539   7.355   6.955 -0.2808  1.0214 -0.7294
  139OSM   H12G15230   5.678   7.437   6.867  0.1123 -0.1267 -1.5041
  139OSM   C13F15231   5.735   7.312   7.029 -0.2653  0.2052  0.5673
  139OSM   H13F15232   5.835   7.271   7.003  0.0194  0.4222  1.2750
  139OSM   H13G15233   5.703   7.236   7.104  0.2516 -1.6774 -1.0283
  139OSM   C14F15234   5.774   7.442   7.108 -0.5455 -0.3916 -0.0704
  139OSM   H14F15235   5.685   7.462   7.171 -0.7322 -1.6025  0.0682
  139OSM   H14G15236   5.794   7.519   7.031  2.2469 -0.5696  0.3912
  139OSM   C15F15237   5.896   7.431   7.191 -0.2945  0.5763  0.4200
  139OSM   H15F15238   5.981   7.393   7.131  1.7738  1.0027  2.8766
  139OSM   H15G15239   5.884   7.351   7.267  1.4088 -0.0690  0.0709
  139OSM   C16F15240   5.932   7.566   7.254  0.4988  0.2347 -0.4960
  139OSM   H16F15241   5.864   7.638   7.204 -1.3224 -2.2216 -1.7991
  139OSM   H16G15242   6.039   7.582   7.227 -0.0771  0.0431 -3.1809
  139OSM   C17F15243   5.922   7.567   7.412 -0.1756  0.6833  0.4563
  139OSM   H17F15244   5.976   7.655   7.454 -1.8581  0.5958  3.0838
  139OSM   H17G15245   5.976   7.476   7.446 -0.7500 -0.1824 -0.8742
  139OSM   C18F15246   5.783   7.560   7.469  0.0676 -0.1607  0.2295
  139OSM   H18F15247   5.797   7.575   7.578  1.2353 -2.3352  0.4403
  139OSM   H18G15248   5.741   7.459   7.449  1.2936 -0.5119 -0.7747
  139OSM   H18H15249   5.707   7.632   7.432  0.2841 -0.9571 -1.8963
  140OSM      N15250   1.576   1.754   5.351  0.2154 -0.2454  0.0566
  140OSM    C1515251   1.633   1.875   5.289 -0.3286 -0.7018  0.0158
  140OSM   H15A15252   1.570   1.935   5.225  1.1280  2.3224  1.2053
  140OSM   H15B15253   1.708   1.837   5.220  0.8729  0.2827  0.7258
  140OSM   H15C15254   1.681   1.937   5.364 -0.3077 -0.9912  0.2427
  140OSM    C1415255   1.489   1.678   5.258  0.1960  0.3232 -0.2210
  140OSM   H14A15256   1.546   1.666   5.167  1.4252  1.9925  0.2801
  140OSM   H14B15257   1.406   1.738   5.224 -0.0909 -1.2304 -2.4853
  140OSM   H14C15258   1.457   1.583   5.297 -1.8313  0.0546 -2.2979
  140OSM    C1315259   1.690   1.673   5.404 -0.0172  0.4725 -0.0510
  140OSM   H13A15260   1.741   1.725   5.483 -0.0677  1.2092 -0.4898
  140OSM   H13B15261   1.754   1.645   5.322  0.8780 -0.6545  0.9960
  140OSM   H13C15262   1.663   1.575   5.441 -0.4529 -0.6017 -2.9069
  140OSM    C1215263   1.495   1.797   5.471 -0.1082  0.0476 -0.0808
  140OSM   H12A15264   1.402   1.844   5.439  0.4439  1.0023 -0.3240
  140OSM   H12B15265   1.548   1.876   5.523 -2.7347  1.3293  0.8649
  140OSM    C1115266   1.447   1.694   5.584 -0.1822  0.2003  0.2442
  140OSM   H11A15267   1.416   1.594   5.546 -0.7557 -0.2921  1.9469
  140OSM   H11B15268   1.357   1.737   5.633 -1.6499  1.6568 -3.3547
  140OSM      P15269   1.590   1.790   5.780  0.1147 -0.2100 -0.1624
  140OSM    O1315270   1.701   1.745   5.866 -0.7760 -0.3645 -0.5227
  140OSM    O1415271   1.602   1.919   5.710 -0.0013  0.4001 -0.0889
  140OSM    O1115272   1.449   1.785   5.858 -0.4146 -0.2371  0.1783
  140OSM    O1215273   1.559   1.678   5.672 -0.1598  0.3003  0.0826
  140OSM    C1S15274   1.395   1.660   5.899  0.3476  0.3942  0.3640
  140OSM    H1S15275   1.479   1.587   5.899  0.0241 -0.1604 -3.0550
  140OSM    H1T15276   1.332   1.608   5.824 -0.3379 -0.5908  1.6054
  140OSM     NF15277   1.324   1.524   6.092  0.7642  0.2314 -0.2238
  140OSM    HNF15278   1.237   1.475   6.088  0.8831 -0.1149  1.1638
  140OSM    C2S15279   1.325   1.662   6.037 -0.3079  0.6744 -0.8428
  140OSM    H2S15280   1.399   1.714   6.102 -0.2661  0.1202 -0.4378
  140OSM    C3S15281   1.194   1.736   6.029  1.0032  0.0672  0.1665
  140OSM    H3S15282   1.133   1.668   5.965  0.1348  0.8608  0.1166
  140OSM     O315283   1.211   1.862   5.965 -0.3230 -0.1820 -0.0032
  140OSM    HO315284   1.291   1.855   5.914 -0.3106  0.2350 -0.0481
  140OSM    C4S15285   1.122   1.750   6.157 -0.3042  0.4865 -0.7496
  140OSM    H4S15286   1.080   1.652   6.184 -2.5722  1.4884 -0.4063
  140OSM    C5S15287   1.104   1.853   6.243  1.0053  0.0803  0.3524
  140OSM    H5S15288   1.139   1.954   6.220  3.9670 -0.5265  1.7481
  140OSM    C6S15289   1.015   1.844   6.370  0.3724  0.6319  0.2770
  140OSM    H6S15290   0.939   1.924   6.358  2.3130  2.6530  0.7892
  140OSM    H6T15291   1.068   1.871   6.464 -1.9657  1.5918  1.4149
  140OSM    C7S15292   0.930   1.721   6.389  0.2889  1.3827 -0.0736
  140OSM    H7S15293   0.993   1.631   6.375 -0.5726  0.7860 -0.2505
  140OSM    H7T15294   0.845   1.715   6.317 -0.4790  1.1953  0.8178
  140OSM    C8S15295   0.856   1.716   6.521 -0.7152 -0.7423  0.3652
  140OSM    H8S15296   0.822   1.613   6.544  1.2681 -1.3560  0.7903
  140OSM    H8T15297   0.763   1.775   6.505 -1.4366 -2.1794 -1.0246
  140OSM    C9S15298   0.944   1.749   6.642 -0.0048  1.2665 -0.3850
  140OSM    H9S15299   0.972   1.857   6.650  1.7722  0.7331  2.0566
  140OSM    H9T15300   1.035   1.687   6.627 -1.3042 -0.4828 -1.3790
  140OSM   C10S15301   0.880   1.703   6.773  0.7309  0.3386 -0.0443
  140OSM   H10S15302   0.898   1.594   6.783  0.8314  0.5648  3.9095
  140OSM   H10T15303   0.772   1.726   6.755  1.2109  3.1540  0.2251
  140OSM   C11S15304   0.951   1.767   6.888  0.3213 -0.2846  0.0013
  140OSM   H11S15305   0.949   1.877   6.874 -1.2827 -0.2803  0.1128
  140OSM   H11T15306   1.055   1.729   6.901 -0.7103 -2.5966  2.5990
  140OSM   C12S15307   0.886   1.741   7.030  0.2411 -0.0848 -0.6529
  140OSM   H12S15308   0.925   1.650   7.079  1.8206  0.9702  0.1198
  140OSM   H12T15309   0.776   1.728   7.017 -0.1301  0.7641  1.3241
  140OSM   C13S15310   0.894   1.883   7.103  0.5170 -0.1123  0.1728
  140OSM   H13S15311   0.830   1.949   7.041  1.1486  1.9559  1.6153
  140OSM   H13T15312   0.997   1.926   7.099 -0.0633  1.2075 -1.2924
  140OSM   C14S15313   0.842   1.879   7.250 -1.0463  0.0596  0.7904
  140OSM   H14S15314   0.832   1.985   7.282 -0.0091  0.1931  0.7105
  140OSM   H14T15315   0.916   1.825   7.313  0.1942 -0.6546 -1.1920
  140OSM   C15S15316   0.698   1.821   7.247 -0.8278  0.5451  0.7568
  140OSM   H15S15317   0.695   1.714   7.215  0.6208  1.7114 -3.9940
  140OSM   H15T15318   0.636   1.885   7.181 -0.3314 -0.8793 -1.1871
  140OSM   C16S15319   0.638   1.831   7.390 -0.5896  0.9669 -0.4027
  140OSM   H16S15320   0.644   1.933   7.435  1.0731 -0.0065  1.7086
  140OSM   H16T15321   0.682   1.765   7.467 -0.0770  1.3141 -0.3944
  140OSM   C17S15322   0.479   1.807   7.384  0.0766  0.1936 -0.7342
  140OSM   H17S15323   0.442   1.846   7.287 -1.4351 -2.3626 -1.2595
  140OSM   H17T15324   0.443   1.874   7.465  0.4582 -1.0748  0.5093
  140OSM   C18S15325   0.435   1.670   7.409 -0.0650  0.4200  0.1011
  140OSM   H18S15326   0.479   1.619   7.498  1.8214 -0.2943 -1.1775
  140OSM   H18T15327   0.470   1.600   7.330  0.7940  1.5879 -0.5664
  140OSM   H18U15328   0.326   1.652   7.419  0.0278 -0.8202 -0.8494
  140OSM    C1F15329   1.434   1.457   6.131  0.7010 -0.0895 -0.1797
  140OSM     OF15330   1.538   1.517   6.113  0.0733 -0.4688  0.3729
  140OSM    C2F15331   1.417   1.322   6.199  0.1108 -0.0658  0.1695
  140OSM    H2F15332   1.475   1.239   6.153  0.1820 -0.7143  1.3909
  140OSM    H2G15333   1.310   1.294   6.188 -0.4644  1.8185  0.6154
  140OSM    C3F15334   1.455   1.338   6.350  0.7060 -0.3897  0.2440
  140OSM    H3F15335   1.562   1.366   6.358  0.1997  1.5442  0.9801
  140OSM    H3G15336   1.452   1.243   6.408 -0.6726 -0.0342  0.8074
  140OSM    C4F15337   1.367   1.434   6.434  0.2676  0.0001 -0.7379
  140OSM    H4F15338   1.267   1.449   6.388 -0.1318 -0.8791 -0.1955
  140OSM    H4G15339   1.427   1.524   6.458 -0.0925 -0.1198  0.7318
  140OSM    C5F15340   1.333   1.376   6.574  0.4757  0.4256 -0.6203
  140OSM    H5F15341   1.424   1.346   6.631  0.2689 -1.0057 -1.0065
  140OSM    H5G15342   1.263   1.290   6.563 -0.7490  1.1725  0.8358
  140OSM    C6F15343   1.253   1.482   6.650  0.3137  0.4619  0.3327
  140OSM    H6F15344   1.193   1.540   6.576  0.2644  0.6599  0.5275
  140OSM    H6G15345   1.335   1.552   6.678  1.7821 -1.3952  0.8538
  140OSM    C7F15346   1.182   1.429   6.776 -0.1554  0.0296  1.1900
  140OSM    H7F15347   1.127   1.338   6.746  1.3194 -0.4237 -0.2535
  140OSM    H7G15348   1.114   1.512   6.806 -1.5648  0.1286 -1.8966
  140OSM    C8F15349   1.276   1.381   6.888  0.4102  0.6410  0.6665
  140OSM    H8F15350   1.356   1.457   6.893 -0.6011  1.7809 -0.0026
  140OSM    H8G15351   1.310   1.279   6.859 -0.9636  0.2093  0.5132
  140OSM    C9F15352   1.207   1.378   7.023 -0.0859  0.3860  0.6211
  140OSM    H9F15353   1.139   1.461   7.042 -0.0113  0.1422  2.0761
  140OSM   C10F15354   1.226   1.287   7.122  0.1629 -0.2810 -0.3150
  140OSM   H10F15355   1.169   1.303   7.215 -0.4424 -0.1085 -0.7118
  140OSM   C11F15356   1.308   1.158   7.123  0.3763 -0.4697 -0.1776
  140OSM   H11F15357   1.417   1.178   7.129  0.0637  0.9053  1.9794
  140OSM   H11G15358   1.295   1.104   7.027  1.0795  0.5255 -0.8515
  140OSM   C12F15359   1.250   1.063   7.232 -0.4327  0.5154  0.8665
  140OSM   H12F15360   1.148   1.042   7.196 -0.8676 -1.4465  3.0063
  140OSM   H12G15361   1.222   1.113   7.328 -3.3825 -0.1344  0.4296
  140OSM   C13F15362   1.333   0.934   7.245 -0.6942 -1.2359  0.8522
  140OSM   H13F15363   1.368   0.908   7.142 -3.1693  0.5163 -0.5439
  140OSM   H13G15364   1.277   0.844   7.277 -0.8365 -1.3747  0.2331
  140OSM   C14F15365   1.460   0.962   7.324 -0.1719  0.4925 -0.0203
  140OSM   H14F15366   1.433   0.995   7.426 -1.7743  1.6305 -0.7730
  140OSM   H14G15367   1.507   1.047   7.270  1.5490 -1.1117 -1.2083
  140OSM   C15F15368   1.570   0.856   7.316  0.0651  0.2890  0.2773
  140OSM   H15F15369   1.587   0.846   7.206 -0.8068 -2.1569  0.2966
  140OSM   H15G15370   1.544   0.750   7.334  3.3527 -0.7419 -0.4232
  140OSM   C16F15371   1.708   0.908   7.370  0.2412  0.1646  0.3142
  140OSM   H16F15372   1.697   0.966   7.464  0.7618  1.4034 -0.3664
  140OSM   H16G15373   1.744   0.973   7.287 -2.0825  0.0635 -0.8455
  140OSM   C17F15374   1.795   0.792   7.410 -0.0187  0.7796 -0.5926
  140OSM   H17F15375   1.732   0.728   7.474 -0.0182 -0.7042 -2.0251
  140OSM   H17G15376   1.889   0.816   7.465  0.5467 -1.9789 -0.2325
  140OSM   C18F15377   1.840   0.690   7.294  0.1268 -0.6417  0.6300
  140OSM   H18F15378   1.885   0.594   7.327 -0.0973 -1.5241 -1.4917
  140OSM   H18G15379   1.911   0.748   7.232  0.4452 -0.4723  1.1505
  140OSM   H18H15380   1.754   0.669   7.226  1.5672  1.4516 -2.0499
  141OSM      N15381   0.132   5.419   5.536 -0.8963  0.4693  0.2009
  141OSM    C1515382   0.158   5.453   5.395 -0.1580  0.1370  0.3552
  141OSM   H15A15383   0.082   5.506   5.339  0.2501  2.0236  1.4951
  141OSM   H15B15384   0.174   5.373   5.323 -1.8434  2.2811 -2.6252
  141OSM   H15C15385   0.241   5.522   5.391 -1.1955  1.3832 -0.5923
  141OSM    C1415386   0.099   5.541   5.610  0.0659 -0.1634 -0.4439
  141OSM   H14A15387   0.065   5.523   5.711 -1.8512  0.1775 -0.9814
  141OSM   H14B15388   0.018   5.595   5.562 -2.6307  0.0503  3.8053
  141OSM   H14C15389   0.185   5.605   5.622 -0.1547  0.1280 -0.4017
  141OSM    C1315390   0.015   5.331   5.537 -0.2800 -0.0172 -0.6296
  141OSM   H13A15391   0.031   5.233   5.496 -2.6187 -0.2812 -1.0568
  141OSM   H13B15392  -0.067   5.376   5.483 -1.2596  1.4062  1.9038
  141OSM   H13C15393  -0.015   5.318   5.640  2.2511  0.8352  0.2960
  141OSM    C1215394   0.250   5.352   5.598  0.3029  0.8098 -0.0625
  141OSM   H12A15395   0.332   5.419   5.580  0.7212  0.1883 -0.5141
  141OSM   H12B15396   0.277   5.259   5.550 -0.5035  1.1305 -1.2099
  141OSM    C1115397   0.230   5.321   5.750  0.0014 -0.1566  0.7253
  141OSM   H11A15398   0.195   5.404   5.816  1.0558  2.0939 -1.4174
  141OSM   H11B15399   0.331   5.288   5.784 -0.6188 -0.8254  1.9929
  141OSM      P15400   0.173   5.065   5.753 -0.1904  0.3432 -0.0360
  141OSM    O1315401   0.049   4.982   5.753 -0.3630 -0.0384  0.8085
  141OSM    O1415402   0.264   5.057   5.633 -0.7366 -0.1772 -0.6370
  141OSM    O1115403   0.252   5.027   5.888  0.7593  0.1140  0.0833
  141OSM    O1215404   0.133   5.212   5.771  0.2494  0.2599 -0.4465
  141OSM    C1S15405   0.211   5.086   6.013  0.2675 -0.3192 -0.3093
  141OSM    H1S15406   0.108   5.054   6.041  0.2261 -0.1732 -0.2925
  141OSM    H1T15407   0.208   5.197   6.014  1.3329 -0.2930  0.4834
  141OSM     NF15408   0.216   5.034   6.252  0.0625  0.2323 -0.6019
  141OSM    HNF15409   0.262   5.100   6.310  1.5905 -1.4360  0.2023
  141OSM    C2S15410   0.293   5.030   6.126  0.0046 -0.0726 -0.6399
  141OSM    H2S15411   0.315   4.923   6.102 -1.2667 -0.5023 -0.0019
  141OSM    C3S15412   0.435   5.107   6.126  0.1623  0.6003  0.1734
  141OSM    H3S15413   0.422   5.216   6.144  1.6654  0.9546 -0.7719
  141OSM     O315414   0.512   5.095   6.007 -0.1903 -0.1367  0.1550
  141OSM    HO315415   0.442   5.046   5.965 -0.9727  0.8719  0.2557
  141OSM    C4S15416   0.516   5.061   6.242 -0.4095 -0.0390 -0.4293
  141OSM    H4S15417   0.525   4.952   6.252 -1.8718 -0.3230 -1.7071
  141OSM    C5S15418   0.576   5.142   6.338 -0.5424 -0.1144  0.9145
  141OSM    H5S15419   0.551   5.249   6.345 -2.1523 -0.4345  0.5147
  141OSM    C6S15420   0.663   5.096   6.449  0.2767  0.3646 -0.2596
  141OSM    H6S15421   0.765   5.136   6.467  1.0788 -2.2555  1.7108
  141OSM    H6T15422   0.675   4.985   6.449  0.9478  0.4321 -0.4308
  141OSM    C7S15423   0.591   5.100   6.585  0.0586 -0.3626 -0.0829
  141OSM    H7S15424   0.490   5.055   6.574 -0.5583  0.9662 -0.1431
  141OSM    H7T15425   0.553   5.200   6.617 -3.4435 -1.6787  0.3088
  141OSM    C8S15426   0.665   5.025   6.703 -0.2409  0.2101 -0.3025
  141OSM    H8S15427   0.760   5.082   6.701 -1.5489  2.5513  0.5756
  141OSM    H8T15428   0.682   4.917   6.683  1.0408  0.1134  1.1578
  141OSM    C9S15429   0.593   5.042   6.834 -0.0558  0.1738  0.1496
  141OSM    H9S15430   0.488   5.006   6.838 -1.1026  2.8779 -0.6044
  141OSM    H9T15431   0.587   5.150   6.860  0.5999  0.7491 -1.8885
  141OSM   C10S15432   0.680   4.964   6.939 -0.4446  0.3659  0.2852
  141OSM   H10S15433   0.786   4.993   6.922 -1.0992  1.3569 -2.5493
  141OSM   H10T15434   0.671   4.858   6.907  1.7198  0.0774  0.5050
  141OSM   C11S15435   0.623   4.992   7.069  0.4862 -0.3551  0.0902
  141OSM   H11S15436   0.521   4.950   7.076  1.1050 -1.7869  1.0686
  141OSM   H11T15437   0.624   5.101   7.087  0.0994 -0.6944  2.4264
  141OSM   C12S15438   0.713   4.931   7.178 -0.2326  0.2389 -0.6675
  141OSM   H12S15439   0.820   4.952   7.158 -0.4007  1.3860 -0.4190
  141OSM   H12T15440   0.703   4.821   7.168  0.0982  0.2907 -1.7614
  141OSM   C13S15441   0.691   4.969   7.326  0.1194 -0.1947 -0.1875
  141OSM   H13S15442   0.588   4.935   7.351 -0.2485  1.4740  0.6800
  141OSM   H13T15443   0.696   5.079   7.338 -1.7202 -0.0823 -0.1284
  141OSM   C14S15444   0.786   4.895   7.428 -0.9240  0.1856  0.0316
  141OSM   H14S15445   0.892   4.923   7.412 -0.4772 -1.3650  0.1766
  141OSM   H14T15446   0.784   4.786   7.411  0.4374  0.2364 -0.5727
  141OSM   C15S15447   0.752   4.920   7.573  0.2155 -0.0814 -0.0709
  141OSM   H15S15448   0.847   4.923   7.631  1.3893  0.3365 -1.9354
  141OSM   H15T15449   0.688   4.838   7.611 -1.2866  0.3644 -1.5061
  141OSM   C16S15450   0.694   5.058   7.610  0.2358 -0.2383  0.5993
  141OSM   H16S15451   0.607   5.085   7.546  1.8524  2.0099 -0.8231
  141OSM   H16T15452   0.757   5.140   7.569 -0.2426 -0.7108 -1.1682
  141OSM   C17S15453   0.664   5.071   7.757  1.0215 -0.8801 -0.3274
  141OSM   H17S15454   0.628   5.175   7.778 -0.6580 -1.1470 -1.6838
  141OSM   H17T15455   0.756   5.039   7.810  1.1138 -2.1927 -1.2288
  141OSM   C18S15456   0.546   4.988   7.803  0.3598  1.2089 -0.8430
  141OSM   H18S15457   0.459   5.008   7.737  0.0298 -1.5399 -1.3676
  141OSM   H18T15458   0.518   4.996   7.910 -3.6953  1.3122 -1.7745
  141OSM   H18U15459   0.584   4.884   7.792  1.7727  1.2912  2.1584
  141OSM    C1F15460   0.113   4.953   6.281 -0.2587  0.0422 -0.0327
  141OSM     OF15461   0.067   4.870   6.201  0.2088 -0.5272 -0.2918
  141OSM    C2F15462   0.057   4.964   6.416  0.5401 -0.4972  0.4038
  141OSM    H2F15463   0.041   5.069   6.450 -0.4449 -0.7100  0.6184
  141OSM    H2G15464   0.133   4.922   6.486  0.1834  0.6731  1.5310
  141OSM    C3F15465  -0.063   4.871   6.449  0.1434  1.1709 -0.5480
  141OSM    H3F15466  -0.025   4.767   6.464 -2.7134  0.2116  0.7295
  141OSM    H3G15467  -0.142   4.873   6.371 -2.1507  2.0796  1.6762
  141OSM    C4F15468  -0.134   4.926   6.585 -0.4073 -0.1465 -0.2767
  141OSM    H4F15469  -0.234   4.881   6.605  0.1544 -0.7339  1.2932
  141OSM    H4G15470  -0.147   5.036   6.569  0.1790 -0.1135 -0.5355
  141OSM    C5F15471  -0.039   4.907   6.705 -0.5073  0.4129  0.9331
  141OSM    H5F15472   0.050   4.970   6.680 -0.1148  0.2456  1.8872
  141OSM    H5G15473  -0.008   4.801   6.717  0.2614  0.3916 -0.8208
  141OSM    C6F15474  -0.103   4.963   6.838 -0.5706  0.1879 -0.2061
  141OSM    H6F15475  -0.161   4.875   6.875  0.7886 -1.9683 -2.7908
  141OSM    H6G15476  -0.170   5.049   6.823 -1.2500 -0.3438 -0.2753
  141OSM    C7F15477   0.001   5.008   6.942  0.1545  0.5393  0.7600
  141OSM    H7F15478  -0.052   5.029   7.037 -0.4430  2.8589 -0.0243
  141OSM    H7G15479   0.042   5.107   6.914 -0.7608  0.2424 -1.8671
  141OSM    C8F15480   0.121   4.916   6.958 -0.0343  0.3174 -0.0968
  141OSM    H8F15481   0.167   4.890   6.860  3.4543  1.8302  0.9651
  141OSM    H8G15482   0.082   4.818   6.993  0.4244  0.7819  1.8279
  141OSM    C9F15483   0.238   4.965   7.040 -0.2027  0.1797  0.0614
  141OSM    H9F15484   0.325   4.989   6.977 -1.4960  1.2748 -1.3911
  141OSM   C10F15485   0.262   4.958   7.174  0.2223  0.2975  0.1377
  141OSM   H10F15486   0.359   4.999   7.207  1.2622 -2.7519  1.2598
  141OSM   C11F15487   0.159   4.930   7.285  0.4111  0.4040  0.3060
  141OSM   H11F15488   0.111   5.016   7.336 -0.8772  0.6329 -1.2266
  141OSM   H11G15489   0.211   4.874   7.366 -0.5400  2.0323  2.1354
  141OSM   C12F15490   0.042   4.833   7.252 -0.1284  0.1024 -0.0427
  141OSM   H12F15491   0.076   4.752   7.183 -0.2387  1.6736 -2.0465
  141OSM   H12G15492  -0.033   4.896   7.200 -0.4452 -0.4405 -0.2414
  141OSM   C13F15493  -0.024   4.782   7.382 -0.1858  0.0978 -0.0147
  141OSM   H13F15494   0.038   4.702   7.429 -3.0471 -3.1088 -1.2381
  141OSM   H13G15495  -0.108   4.713   7.357  0.3808 -0.9927  0.9698
  141OSM   C14F15496  -0.060   4.887   7.486 -0.6871  0.1589  0.0689
  141OSM   H14F15497  -0.126   4.963   7.438  1.1673  1.2502 -0.8955
  141OSM   H14G15498   0.034   4.938   7.517  0.1296 -1.3460  0.1585
  141OSM   C15F15499  -0.125   4.829   7.613 -0.1216  0.7951  0.3118
  141OSM   H15F15500  -0.058   4.753   7.657  0.1736  0.8411 -0.0505
  141OSM   H15G15501  -0.214   4.777   7.574 -0.6035  1.6317  0.2711
  141OSM   C16F15502  -0.163   4.934   7.720 -0.3496  0.0494  0.1778
  141OSM   H16F15503  -0.236   5.001   7.669 -0.5873 -0.7370 -0.5486
  141OSM   H16G15504  -0.073   4.989   7.754 -0.9687  0.6435  0.8752
  141OSM   C17F15505  -0.230   4.890   7.852  0.2544  0.4989 -0.0181
  141OSM   H17F15506  -0.316   4.823   7.832  0.5698 -0.1368  0.7266
  141OSM   H17G15507  -0.278   4.972   7.910  0.2896 -0.3234  1.2165
  141OSM   C18F15508  -0.131   4.808   7.945  0.7890 -0.4208  0.7935
  141OSM   H18F15509  -0.040   4.865   7.975  1.5987 -1.7710  0.9725
  141OSM   H18G15510  -0.095   4.714   7.899 -0.0122 -0.4419  0.1923
  141OSM   H18H15511  -0.186   4.777   8.037 -1.8493 -2.0457 -1.1981
  142OSM      N15512   0.270   6.031   5.713  0.1434 -0.5098  0.2169
  142OSM    C1515513   0.393   5.971   5.762  0.6124  0.0365 -0.0975
  142OSM   H15A15514   0.457   5.926   5.689  0.1010 -0.6040 -0.1628
  142OSM   H15B15515   0.360   5.890   5.825 -2.1689  2.4799  1.8779
  142OSM   H15C15516   0.456   6.043   5.813  0.4385  0.1563 -0.0470
  142OSM    C1415517   0.316   6.151   5.636 -0.3804 -0.3621  0.5047
  142OSM   H14A15518   0.378   6.214   5.697  0.8887 -0.4665 -0.6295
  142OSM   H14B15519   0.233   6.216   5.608  0.0122 -0.5625 -1.2751
  142OSM   H14C15520   0.373   6.127   5.547 -0.3451  0.4076  0.3092
  142OSM    C1315521   0.200   5.938   5.620  0.8565  0.2216 -0.2338
  142OSM   H13A15522   0.257   5.933   5.529  0.7954 -0.6405 -0.2267
  142OSM   H13B15523   0.101   5.977   5.600  1.7355  2.5686 -0.3733
  142OSM   H13C15524   0.192   5.842   5.668 -1.2972  0.3888 -0.1540
  142OSM    C1215525   0.189   6.075   5.829 -0.5528 -0.1692 -0.3511
  142OSM   H12A15526   0.105   6.127   5.784  1.3128  0.7784 -2.9713
  142OSM   H12B15527   0.258   6.138   5.883 -0.2585 -0.4336 -0.4174
  142OSM    C1115528   0.132   5.967   5.927 -0.1753 -0.4044 -0.2816
  142OSM   H11A15529   0.084   6.030   6.005  1.7063 -0.8517  1.3305
  142OSM   H11B15530   0.230   5.932   5.967  1.7077  1.6485 -2.7200
  142OSM      P15531   0.076   5.719   5.899  0.2521 -0.0477  0.5061
  142OSM    O1315532  -0.055   5.656   5.869  0.3809  0.5053 -0.0122
  142OSM    O1415533   0.195   5.678   5.826  0.3100  0.4164 -0.2120
  142OSM    O1115534   0.102   5.721   6.053  0.6945  0.0691  0.1279
  142OSM    O1215535   0.047   5.868   5.867 -0.6295 -0.1151  0.1661
  142OSM    C1S15536  -0.009   5.682   6.138 -0.1343  0.5162 -1.0852
  142OSM    H1S15537  -0.044   5.580   6.114  0.0058 -0.4574  2.3816
  142OSM    H1T15538  -0.101   5.741   6.119 -1.2905 -1.0087 -0.3683
  142OSM     NF15539  -0.062   5.581   6.368 -0.4638  0.3065 -0.6860
  142OSM    HNF15540  -0.129   5.602   6.439  1.5465  0.6282  1.2195
  142OSM    C2S15541   0.018   5.685   6.296  0.0461 -0.5732  0.9021
  142OSM    H2S15542   0.123   5.656   6.318  0.1727 -0.2149  0.7759
  142OSM    C3S15543  -0.000   5.834   6.345  1.3365  0.3419 -0.4654
  142OSM    H3S15544  -0.107   5.859   6.329  0.3652 -1.8600  1.8934
  142OSM     O315545   0.079   5.931   6.282  0.7193 -0.5909  0.1213
  142OSM    HO315546   0.111   5.887   6.202  0.0552 -2.4977  0.8427
  142OSM    C4S15547   0.020   5.837   6.500 -0.4945  0.2973 -0.0776
  142OSM    H4S15548   0.119   5.803   6.534 -0.2305  0.6987 -0.4410
  142OSM    C5S15549  -0.067   5.885   6.591  0.5526  0.4327  0.0523
  142OSM    H5S15550  -0.166   5.907   6.549  1.1600 -0.1082 -1.7564
  142OSM    C6S15551  -0.050   5.891   6.738  0.2441  0.0520 -0.1510
  142OSM    H6S15552  -0.028   5.996   6.765 -0.8268  0.2805 -0.1349
  142OSM    H6T15553   0.044   5.841   6.772 -0.7651 -0.8469  1.4107
  142OSM    C7S15554  -0.173   5.833   6.817  0.4376 -0.4998 -0.7543
  142OSM    H7S15555  -0.206   5.734   6.779  0.3050 -0.7775  0.0770
  142OSM    H7T15556  -0.255   5.907   6.806  0.9788  0.4925  1.3419
  142OSM    C8S15557  -0.116   5.815   6.964 -0.3795 -1.1767 -0.7054
  142OSM    H8S15558  -0.074   5.911   6.998 -2.6701 -0.4448  0.2687
  142OSM    H8T15559  -0.031   5.745   6.970  0.0144 -0.5780  1.0248
  142OSM    C9S15560  -0.225   5.764   7.059  0.0647 -0.2042 -0.1776
  142OSM    H9S15561  -0.179   5.722   7.151  1.6100 -1.0659 -1.2843
  142OSM    H9T15562  -0.280   5.688   6.999 -2.7823  0.1413  1.8361
  142OSM   C10S15563  -0.332   5.872   7.099 -0.6809 -0.7642 -0.0323
  142OSM   H10S15564  -0.424   5.816   7.127 -1.0880  0.1486  0.4904
  142OSM   H10T15565  -0.352   5.938   7.012  0.1495 -1.1163 -0.5012
  142OSM   C11S15566  -0.298   5.972   7.210  0.3943 -0.2427 -0.1012
  142OSM   H11S15567  -0.388   6.034   7.228  2.0446  1.4281  3.2661
  142OSM   H11T15568  -0.215   6.040   7.180  0.1517  0.4820  0.8302
  142OSM   C12S15569  -0.270   5.893   7.345 -0.3376 -0.4224  0.1081
  142OSM   H12S15570  -0.187   5.819   7.336  0.6870  0.5285  1.2530
  142OSM   H12T15571  -0.360   5.832   7.368 -1.8585  1.8922  0.6110
  142OSM   C13S15572  -0.231   5.997   7.462  0.5748 -1.0242  0.0689
  142OSM   H13S15573  -0.155   6.069   7.425 -0.1121 -0.4273 -0.1863
  142OSM   H13T15574  -0.188   5.949   7.553 -0.6286 -1.1520  0.5841
  142OSM   C14S15575  -0.346   6.084   7.526 -0.1957 -0.3277 -0.6618
  142OSM   H14S15576  -0.401   6.013   7.591  1.2032 -0.4288  0.4543
  142OSM   H14T15577  -0.414   6.118   7.445  1.8703  2.4621 -1.3939
  142OSM   C15S15578  -0.304   6.209   7.617  0.7032  0.5741  0.1948
  142OSM   H15S15579  -0.246   6.280   7.554  0.5861 -0.5521 -1.2453
  142OSM   H15T15580  -0.225   6.176   7.688 -0.6209  0.7495  1.8029
  142OSM   C16S15581  -0.430   6.266   7.688 -0.7603  0.2772  0.9846
  142OSM   H16S15582  -0.503   6.186   7.713 -1.9505  0.9261 -0.3125
  142OSM   H16T15583  -0.480   6.328   7.611 -1.7523 -0.8192  0.7113
  142OSM   C17S15584  -0.411   6.355   7.815 -0.6219 -0.8009  0.4063
  142OSM   H17S15585  -0.394   6.295   7.907 -1.3459 -1.1894  0.2992
  142OSM   H17T15586  -0.507   6.404   7.840  0.0978 -0.5002  2.8232
  142OSM   C18S15587  -0.301   6.457   7.804 -0.5426 -0.6833 -0.2234
  142OSM   H18S15588  -0.303   6.512   7.901 -2.1510 -0.4786 -0.3415
  142OSM   H18T15589  -0.315   6.531   7.723 -2.6935  1.4506  1.9209
  142OSM   H18U15590  -0.203   6.405   7.796  0.0765  0.1431  1.3893
  142OSM    C1F15591  -0.031   5.452   6.348  0.1339  0.5938  0.5331
  142OSM     OF15592   0.045   5.410   6.259 -0.1693 -0.2395  0.0837
  142OSM    C2F15593  -0.098   5.355   6.438  0.0841  0.1932 -0.2258
  142OSM    H2F15594  -0.108   5.258   6.386  1.4786  0.1435 -0.4173
  142OSM    H2G15595  -0.202   5.389   6.459  0.3505  1.2972 -0.6271
  142OSM    C3F15596  -0.027   5.331   6.575  0.5312  0.8331  0.3605
  142OSM    H3F15597   0.071   5.283   6.552  0.6268  1.2651 -0.1524
  142OSM    H3G15598  -0.096   5.262   6.628  0.5698  1.1994  0.8972
  142OSM    C4F15599  -0.007   5.459   6.645 -0.0999 -0.3220 -0.9289
  142OSM    H4F15600  -0.107   5.504   6.665  0.6307 -0.1011  2.9597
  142OSM    H4G15601   0.058   5.526   6.585 -0.5976  1.0893  0.0251
  142OSM    C5F15602   0.057   5.450   6.785  0.2732 -0.4522  0.6099
  142OSM    H5F15603   0.110   5.546   6.800  0.0852 -0.5493  1.9497
  142OSM    H5G15604   0.136   5.372   6.778  0.0490 -0.6542  0.2977
  142OSM    C6F15605  -0.046   5.416   6.893 -0.3476  0.8390  0.1611
  142OSM    H6F15606  -0.100   5.322   6.867 -2.3014  1.6912  0.8960
  142OSM    H6G15607  -0.127   5.491   6.906 -0.6667  0.2328  2.0870
  142OSM    C7F15608   0.019   5.378   7.026  0.0963  0.1586  0.2577
  142OSM    H7F15609   0.074   5.467   7.064 -1.5111  0.4452  2.0412
  142OSM    H7G15610   0.089   5.293   7.012 -1.0596 -0.8289  0.2641
  142OSM    C8F15611  -0.091   5.347   7.131 -0.3306 -0.6872  0.3956
  142OSM    H8F15612  -0.153   5.276   7.071  0.7524 -1.8957  0.6470
  142OSM    H8G15613  -0.158   5.436   7.136 -0.6468 -0.8683 -0.3434
  142OSM    C9F15614  -0.026   5.293   7.255 -0.1006 -0.6573  0.0987
  142OSM    H9F15615   0.046   5.212   7.233 -1.9132 -1.6647 -2.6412
  142OSM   C10F15616  -0.078   5.315   7.382  0.2364  0.2337  0.5367
  142OSM   H10F15617  -0.041   5.255   7.466 -1.1652 -0.2860  0.8160
  142OSM   C11F15618  -0.200   5.413   7.407 -0.2035  0.3432 -0.4416
  142OSM   H11F15619  -0.262   5.353   7.477  1.0242 -1.8338 -1.1305
  142OSM   H11G15620  -0.268   5.435   7.322  0.2056 -0.0662 -0.8773
  142OSM   C12F15621  -0.176   5.554   7.457  0.2071 -0.0986 -0.0959
  142OSM   H12F15622  -0.281   5.591   7.467 -0.2973 -1.5782  0.4036
  142OSM   H12G15623  -0.119   5.612   7.381  3.2030 -1.5032  0.9432
  142OSM   C13F15624  -0.106   5.548   7.590  0.2590  0.4820 -0.3929
  142OSM   H13F15625  -0.017   5.482   7.602  1.2250  1.5380 -1.5009
  142OSM   H13G15626  -0.181   5.513   7.664  1.9047 -2.0894  0.1627
  142OSM   C14F15627  -0.075   5.703   7.626  0.1114 -1.0504 -0.2972
  142OSM   H14F15628  -0.175   5.749   7.624  0.4794 -0.2544 -0.7045
  142OSM   H14G15629  -0.014   5.752   7.547 -0.5756  2.2310  1.0543
  142OSM   C15F15630  -0.019   5.731   7.769 -0.7107 -0.4478  0.3321
  142OSM   H15F15631   0.081   5.684   7.781  0.3351  1.4775 -0.5396
  142OSM   H15G15632  -0.083   5.681   7.845 -1.3043  1.6022  1.2490
  142OSM   C16F15633   0.002   5.880   7.797  0.3725  0.0649 -0.2429
  142OSM   H16F15634  -0.098   5.918   7.829  0.3095  0.7042 -1.1638
  142OSM   H16G15635   0.013   5.952   7.713  0.5765  0.2351 -0.0702
  142OSM   C17F15636   0.092   5.912   7.920 -0.3141 -0.0937 -0.6785
  142OSM   H17F15637   0.069   5.854   8.011  1.2335  0.9190  0.4025
  142OSM   H17G15638   0.073   6.019   7.942  2.1433  0.0402  1.2137
  142OSM   C18F15639   0.237   5.898   7.889  0.5385  0.3011 -0.3681
  142OSM   H18F15640   0.296   5.924   7.980  0.2599  2.1123 -0.6655
  142OSM   H18G15641   0.264   5.976   7.815 -0.0868  1.7934  0.9217
  142OSM   H18H15642   0.279   5.797   7.875  3.6811  1.0126  2.6095
  143OSM      N15643   1.293   6.766   5.680  0.3521  0.1640 -0.3834
  143OSM    C1515644   1.365   6.722   5.555 -0.2370 -0.6795  0.4326
  143OSM   H15A15645   1.306   6.758   5.473 -1.0830 -0.3414  1.1761
  143OSM   H15B15646   1.375   6.614   5.562  0.7687 -0.4993  2.7174
  143OSM   H15C15647   1.467   6.756   5.548  0.2781 -2.3539 -0.9163
  143OSM    C1415648   1.361   6.706   5.800 -0.1043 -0.2130  0.2732
  143OSM   H14A15649   1.356   6.598   5.802 -0.4899 -0.2070  2.7630
  143OSM   H14B15650   1.291   6.738   5.876 -0.8369  3.5662 -1.7429
  143OSM   H14C15651   1.454   6.757   5.818 -0.6050  0.1943  1.8918
  143OSM    C1315652   1.310   6.916   5.698 -0.6469  0.4914 -0.3369
  143OSM   H13A15653   1.415   6.936   5.718 -0.2160 -1.4589 -0.5108
  143OSM   H13B15654   1.256   6.953   5.784  2.8473  0.8285  1.9229
  143OSM   H13C15655   1.290   6.967   5.605  0.1828  0.5610 -0.4914
  143OSM    C1215656   1.141   6.729   5.669 -0.3422  0.1459 -0.4208
  143OSM   H12A15657   1.133   6.622   5.654  2.1688  0.0008 -1.1533
  143OSM   H12B15658   1.103   6.772   5.577  3.8667  2.8412 -1.1885
  143OSM    C1115659   1.045   6.762   5.791  0.2351  0.2281 -0.0587
  143OSM   H11A15660   1.066   6.868   5.817  0.1327  0.5645 -1.3070
  143OSM   H11B15661   1.073   6.698   5.877 -1.2811 -0.5625 -0.1279
  143OSM      P15662   0.805   6.653   5.840  0.4510 -0.1371  0.2308
  143OSM    O1315663   0.673   6.661   5.781 -0.0202 -0.2333 -0.0908
  143OSM    O1415664   0.855   6.511   5.849  0.6301  0.1799 -0.2293
  143OSM    O1115665   0.811   6.731   5.979  0.3056  0.4677 -0.3204
  143OSM    O1215666   0.912   6.737   5.753 -0.3741 -0.5043  0.8416
  143OSM    C1S15667   0.771   6.867   5.989 -0.1959  0.6923 -0.1123
  143OSM    H1S15668   0.663   6.875   5.968 -0.1014  0.3406 -0.7498
  143OSM    H1T15669   0.818   6.931   5.911  1.9433  0.0453  0.5533
  143OSM     NF15670   0.756   7.064   6.130 -0.8960  0.3048  0.0230
  143OSM    HNF15671   0.812   7.143   6.106  0.2533 -0.7821 -1.0449
  143OSM    C2S15672   0.797   6.925   6.129 -0.0828  0.2498  0.4166
  143OSM    H2S15673   0.736   6.857   6.193  0.8411 -2.3026 -1.2450
  143OSM    C3S15674   0.947   6.905   6.171  0.0369  0.7603 -0.6696
  143OSM    H3S15675   1.012   6.974   6.115  0.9274  1.2509  0.9175
  143OSM     O315676   1.008   6.777   6.150 -1.1672  0.5328 -0.5077
  143OSM    HO315677   0.947   6.726   6.096  0.0987 -1.2723 -0.3511
  143OSM    C4S15678   0.962   6.954   6.318  0.3734  0.4553 -0.5261
  143OSM    H4S15679   0.888   6.907   6.384  1.1247  0.5368  0.3892
  143OSM    C5S15680   1.043   7.055   6.371 -0.7527  0.8080  0.7864
  143OSM    H5S15681   1.119   7.104   6.309  1.4215 -1.4283  1.5311
  143OSM    C6S15682   1.041   7.097   6.515 -0.3271 -0.4981 -0.5908
  143OSM    H6S15683   0.989   7.195   6.522 -0.0077 -0.2847 -1.1079
  143OSM    H6T15684   1.142   7.126   6.548 -0.8380 -0.2737  0.8340
  143OSM    C7S15685   0.990   6.993   6.617  0.0291 -0.0778 -0.1640
  143OSM    H7S15686   1.041   6.898   6.594 -1.8126 -0.7845 -1.5875
  143OSM    H7T15687   0.883   6.980   6.591  0.1518  0.4275 -0.9392
  143OSM    C8S15688   1.000   7.037   6.758 -0.2111  0.2166 -0.4291
  143OSM    H8S15689   0.949   7.135   6.766 -1.9958 -0.7820  1.4741
  143OSM    H8T15690   1.104   7.071   6.775  0.5367 -2.1197 -0.0164
  143OSM    C9S15691   0.942   6.947   6.876 -0.6309 -0.2216  0.5084
  143OSM    H9S15692   0.959   6.996   6.974  1.0765  1.0430 -0.3635
  143OSM    H9T15693   0.995   6.850   6.873 -0.7631 -0.2880  0.2644
  143OSM   C10S15694   0.789   6.919   6.864 -0.8040 -0.5213  0.4767
  143OSM   H10S15695   0.765   6.835   6.794  1.4872 -1.1878  0.4102
  143OSM   H10T15696   0.745   7.016   6.835 -1.4717 -1.0275 -0.2558
  143OSM   C11S15697   0.734   6.863   6.997 -0.2415  0.4604  0.3875
  143OSM   H11S15698   0.624   6.870   7.007 -0.8202 -3.8966 -0.8735
  143OSM   H11T15699   0.787   6.923   7.074  1.6062 -0.3467 -0.1857
  143OSM   C12S15700   0.764   6.712   7.002  0.1972 -0.0355  0.1612
  143OSM   H12S15701   0.866   6.683   6.969 -0.7270 -0.3633 -2.6085
  143OSM   H12T15702   0.696   6.659   6.933 -0.7168  0.9737  0.2555
  143OSM   C13S15703   0.721   6.661   7.139 -0.9095  0.6708  0.8185
  143OSM   H13S15704   0.629   6.708   7.178 -0.6959  0.5187  1.5146
  143OSM   H13T15705   0.804   6.689   7.208  1.5549  0.2022 -1.7608
  143OSM   C14S15706   0.688   6.509   7.151  0.3004  0.2578 -0.2638
  143OSM   H14S15707   0.755   6.460   7.078  0.7576  1.4544 -0.6693
  143OSM   H14T15708   0.586   6.503   7.108  0.1512  3.3578 -0.5626
  143OSM   C15S15709   0.684   6.445   7.292  0.3082  0.6677  0.4260
  143OSM   H15S15710   0.601   6.488   7.352 -1.2092  0.8376 -1.6847
  143OSM   H15T15711   0.782   6.473   7.337 -0.0098  1.3035  0.7291
  143OSM   C16S15712   0.660   6.292   7.281  0.4919  0.1190  0.1615
  143OSM   H16S15713   0.703   6.242   7.370 -1.4971 -1.9061  0.0797
  143OSM   H16T15714   0.711   6.259   7.188  0.1779  0.3209 -0.0866
  143OSM   C17S15715   0.510   6.250   7.286 -0.4658  0.4786  0.2619
  143OSM   H17S15716   0.441   6.289   7.209  1.1277  3.2601  0.1092
  143OSM   H17T15717   0.475   6.288   7.384  1.8171 -0.4603  1.5102
  143OSM   C18S15718   0.506   6.090   7.273 -0.8340 -0.6128  0.2451
  143OSM   H18S15719   0.406   6.055   7.304 -0.7748 -1.5297 -0.5579
  143OSM   H18T15720   0.586   6.037   7.329 -0.6979 -0.5112  0.1487
  143OSM   H18U15721   0.526   6.055   7.169 -0.5123 -4.0144  1.3367
  143OSM    C1F15722   0.626   7.091   6.139 -0.2492  0.4314 -0.1274
  143OSM     OF15723   0.537   7.011   6.144 -0.1412 -0.1485  0.0213
  143OSM    C2F15724   0.593   7.234   6.153  0.3283 -0.3280 -0.5332
  143OSM    H2F15725   0.507   7.263   6.091  0.1401 -1.0595 -0.6212
  143OSM    H2G15726   0.675   7.307   6.134 -2.0235  2.5153 -0.4529
  143OSM    C3F15727   0.553   7.262   6.303  0.2287 -0.1096 -0.4512
  143OSM    H3F15728   0.467   7.199   6.334  0.7846 -0.1337  1.1302
  143OSM    H3G15729   0.526   7.370   6.311  0.8668  0.1770 -1.8897
  143OSM    C4F15730   0.671   7.237   6.404 -0.2539 -0.0242 -0.4671
  143OSM    H4F15731   0.743   7.321   6.401 -0.2343 -0.0027  0.4146
  143OSM    H4G15732   0.725   7.144   6.377 -0.6020 -0.0269 -1.2123
  143OSM    C5F15733   0.633   7.237   6.559  0.0533  0.4370  0.9888
  143OSM    H5F15734   0.552   7.312   6.570 -0.7967 -0.3065 -0.0141
  143OSM    H5G15735   0.719   7.236   6.629  0.2602 -1.5682  0.7550
  143OSM    C6F15736   0.574   7.106   6.594  0.5682 -0.4596  1.0842
  143OSM    H6F15737   0.664   7.042   6.585  1.9112  1.5639 -1.3417
  143OSM    H6G15738   0.508   7.061   6.517  1.0433  0.2291  0.2565
  143OSM    C7F15739   0.512   7.102   6.733 -0.3170 -0.1766  0.9289
  143OSM    H7F15740   0.435   7.179   6.752 -0.4556 -0.7556  3.0354
  143OSM    H7G15741   0.587   7.126   6.812  1.4063 -0.1337 -0.6657
  143OSM    C8F15742   0.450   6.960   6.772  0.0763  0.1252 -0.1079
  143OSM    H8F15743   0.437   6.957   6.882  0.7766 -0.9856 -0.0371
  143OSM    H8G15744   0.535   6.895   6.742 -1.2571 -0.7840 -2.0969
  143OSM    C9F15745   0.323   6.926   6.698  0.0717 -0.7557 -0.9833
  143OSM    H9F15746   0.332   6.971   6.598  1.3972  2.1943  0.3226
  143OSM   C10F15747   0.220   6.850   6.738  0.5386  0.0152  0.0520
  143OSM   H10F15748   0.140   6.816   6.671  0.0750 -1.2714  1.2107
  143OSM   C11F15749   0.218   6.765   6.859 -0.1713 -0.0781  0.3810
  143OSM   H11F15750   0.185   6.817   6.951  1.4834  1.3341  0.2268
  143OSM   H11G15751   0.328   6.750   6.872 -0.0440 -2.0336 -2.1745
  143OSM   C12F15752   0.145   6.631   6.842 -0.7555 -0.2159 -0.5521
  143OSM   H12F15753   0.217   6.554   6.807 -2.1906 -1.7721 -0.2274
  143OSM   H12G15754   0.062   6.641   6.768 -1.2451  0.5565  0.0930
  143OSM   C13F15755   0.086   6.580   6.972  0.2928 -0.2372  0.2537
  143OSM   H13F15756   0.053   6.478   6.945 -2.5013  1.2186 -2.5221
  143OSM   H13G15757  -0.005   6.641   6.994  0.7161  0.1485  0.9565
  143OSM   C14F15758   0.177   6.585   7.094  0.0505  0.4074 -0.2800
  143OSM   H14F15759   0.183   6.687   7.139  0.0478  0.7910 -1.1389
  143OSM   H14G15760   0.278   6.546   7.071 -0.3731  0.2295 -1.8951
  143OSM   C15F15761   0.135   6.481   7.200  0.1125  0.1562  0.0207
  143OSM   H15F15762   0.147   6.377   7.162  0.2762  0.0427  0.3855
  143OSM   H15G15763   0.030   6.494   7.234 -0.3611  0.3153 -1.4105
  143OSM   C16F15764   0.226   6.494   7.325 -0.4191 -0.6495  0.3365
  143OSM   H16F15765   0.189   6.581   7.383 -1.7055 -0.2923 -0.9738
  143OSM   H16G15766   0.334   6.502   7.298 -0.3316 -1.3011  0.4764
  143OSM   C17F15767   0.225   6.373   7.415  0.4505 -0.3974  0.1765
  143OSM   H17F15768   0.313   6.383   7.482 -0.0162 -3.8319  1.5229
  143OSM   H17G15769   0.256   6.279   7.365  2.6316 -0.5675  1.7149
  143OSM   C18F15770   0.098   6.350   7.498 -0.1239 -0.3009 -0.3126
  143OSM   H18F15771   0.124   6.257   7.552  2.8178 -1.3906 -3.2578
  143OSM   H18G15772   0.009   6.334   7.432 -0.9184  3.5051 -0.4290
  143OSM   H18H15773   0.082   6.439   7.563 -0.1379  0.1092 -0.8681
  144OSM      N15774   6.712   0.426   5.595  0.2593  0.4236  0.2982
  144OSM    C1515775   6.638   0.310   5.514  0.2206 -0.7465  0.0876
  144OSM   H15A15776   6.703   0.224   5.513  2.1940  0.6793  0.0580
  144OSM   H15B15777   6.600   0.343   5.419 -3.4958  2.5559  2.3803
  144OSM   H15C15778   6.550   0.284   5.573 -0.7546  0.8523 -0.5983
  144OSM    C1415779   6.770   0.360   5.720 -0.3865 -0.1175  0.3526
  144OSM   H14A15780   6.839   0.287   5.682 -0.5421 -0.7724  1.3007
  144OSM   H14B15781   6.694   0.312   5.780  0.4711 -1.7468  0.1780
  144OSM   H14C15782   6.829   0.430   5.779  0.5884 -0.3153 -0.3580
  144OSM    C1315783   6.820   0.458   5.497  0.3696  0.4945 -0.1641
  144OSM   H13A15784   6.774   0.494   5.406 -1.4195 -0.4461  0.3296
  144OSM   H13B15785   6.882   0.373   5.473  0.6227  0.4080  0.7827
  144OSM   H13C15786   6.866   0.548   5.535 -3.8762  2.8171  0.0375
  144OSM    C1215787   6.613   0.538   5.630 -0.6198  0.3747  0.4349
  144OSM   H12A15788   6.521   0.497   5.669 -1.6466  2.0840 -0.0935
  144OSM   H12B15789   6.597   0.592   5.537 -0.2278  0.2911  0.3174
  144OSM    C1115790   6.684   0.632   5.732  0.1410  0.1625 -0.1182
  144OSM   H11A15791   6.704   0.585   5.831  0.6638 -0.0205 -0.3053
  144OSM   H11B15792   6.612   0.706   5.774 -0.3283 -1.1295  1.4614
  144OSM      P15793   6.790   0.824   5.584 -0.1462 -0.2583  0.4222
  144OSM    O1315794   6.851   0.770   5.456  0.0070  0.0216  0.0823
  144OSM    O1415795   6.645   0.862   5.578  0.1564  0.2156  0.0595
  144OSM    O1115796   6.888   0.927   5.648 -0.0101  0.0516  0.1302
  144OSM    O1215797   6.804   0.703   5.681 -0.3481  0.9087  0.5233
  144OSM    C1S15798   6.850   1.022   5.751  0.0451 -0.6628  0.2015
  144OSM    H1S15799   6.748   1.061   5.731 -0.5978 -1.9319  0.9104
  144OSM    H1T15800   6.908   1.117   5.752 -3.9496  2.0059 -0.4830
  144OSM     NF15801   6.784   1.071   5.979 -0.7868 -0.1447  0.0374
  144OSM    HNF15802   6.854   1.120   6.031 -0.4014 -0.6311 -0.0110
  144OSM    C2S15803   6.848   0.966   5.895  0.3234  0.1482 -0.6072
  144OSM    H2S15804   6.780   0.878   5.905  0.0231  0.5897  1.6885
  144OSM    C3S15805   6.992   0.934   5.932 -0.3641  0.1601 -0.7214
  144OSM    H3S15806   7.053   1.027   5.939  1.2736 -0.9042 -0.2985
  144OSM     O315807   7.059   0.855   5.831 -0.4832 -0.1560 -0.1158
  144OSM    HO315808   7.011   0.855   5.749 -1.6306  0.0571  0.5389
  144OSM    C4S15809   7.004   0.885   6.073 -0.0130  0.1876 -0.4031
  144OSM    H4S15810   7.052   0.955   6.142 -0.8056  0.6309 -0.2915
  144OSM    C5S15811   6.942   0.774   6.117  0.3053  0.6900 -0.4035
  144OSM    H5S15812   6.889   0.717   6.039 -0.8222 -0.0308  0.8444
  144OSM    C6S15813   6.953   0.711   6.253  0.0816  0.0564  1.3915
  144OSM    H6S15814   7.000   0.610   6.250  0.1569  0.1011 -0.6822
  144OSM    H6T15815   6.850   0.697   6.291 -0.8878  1.4966 -0.5192
  144OSM    C7S15816   7.041   0.797   6.352 -0.0774 -0.1476 -0.0194
  144OSM    H7S15817   6.999   0.900   6.355 -0.3432 -0.1955 -1.5628
  144OSM    H7T15818   7.133   0.814   6.292 -1.3347  1.0698 -1.7025
  144OSM    C8S15819   7.054   0.738   6.496  0.9214 -0.5795  1.1029
  144OSM    H8S15820   7.081   0.631   6.481  1.3935 -0.1698 -1.6144
  144OSM    H8T15821   6.959   0.754   6.552  1.5824  1.7343  1.6535
  144OSM    C9S15822   7.157   0.799   6.582 -0.4427 -0.6324  0.0054
  144OSM    H9S15823   7.126   0.905   6.600 -1.3774 -0.9870  0.5367
  144OSM    H9T15824   7.248   0.793   6.518  0.2068 -1.1956  0.9688
  144OSM   C10S15825   7.187   0.727   6.706 -0.0474 -0.5059  0.0878
  144OSM   H10S15826   7.295   0.747   6.725 -0.1606  1.7094 -1.2823
  144OSM   H10T15827   7.163   0.620   6.685  0.7236 -0.7848  0.5621
  144OSM   C11S15828   7.102   0.784   6.825 -0.1517  0.1465  0.2536
  144OSM   H11S15829   6.995   0.762   6.803 -0.5326  1.1151  1.0724
  144OSM   H11T15830   7.123   0.893   6.831  1.7216  0.0797 -2.9397
  144OSM   C12S15831   7.139   0.716   6.957 -0.6726  0.0579 -0.4877
  144OSM   H12S15832   7.205   0.634   6.921 -0.4821  0.4298 -1.0040
  144OSM   H12T15833   7.055   0.666   7.008  0.3788 -1.8319 -0.5101
  144OSM   C13S15834   7.213   0.800   7.061 -0.2961  0.2521 -0.6610
  144OSM   H13S15835   7.141   0.869   7.110  0.2623  0.7154 -0.4734
  144OSM   H13T15836   7.292   0.867   7.020  1.5539 -0.1464  1.9893
  144OSM   C14S15837   7.292   0.727   7.170  0.4052 -0.7502 -0.0914
  144OSM   H14S15838   7.325   0.799   7.248  2.8490 -0.6654 -1.1080
  144OSM   H14T15839   7.376   0.675   7.119  0.0645  0.7703 -2.3774
  144OSM   C15S15840   7.218   0.606   7.244 -0.1277 -0.1776  0.4667
  144OSM   H15S15841   7.305   0.560   7.295  0.5632  0.6202  0.0215
  144OSM   H15T15842   7.177   0.540   7.164 -1.0077 -1.9046  2.2307
  144OSM   C16S15843   7.112   0.646   7.353  0.0498  0.2095  0.5116
  144OSM   H16S15844   7.048   0.732   7.322 -1.4425 -1.0088  0.0505
  144OSM   H16T15845   7.170   0.685   7.439  0.2458 -0.0560  0.4969
  144OSM   C17S15846   7.028   0.530   7.391  0.1618 -0.3604 -0.3762
  144OSM   H17S15847   6.997   0.481   7.297  0.0693  0.5532 -0.8298
  144OSM   H17T15848   6.935   0.575   7.432  0.5489  0.8214 -0.7538
  144OSM   C18S15849   7.100   0.439   7.493  0.5399  0.0061 -0.4902
  144OSM   H18S15850   7.203   0.412   7.464  1.6349  1.6234  1.6307
  144OSM   H18T15851   7.036   0.348   7.502 -0.7716  0.9822  0.5922
  144OSM   H18U15852   7.097   0.488   7.593 -0.2503 -2.3301  0.7038
  144OSM    C1F15853   6.653   1.099   5.991 -0.3857  0.2971 -0.1831
  144OSM     OF15854   6.570   1.028   5.942 -0.1414  0.0440 -0.6275
  144OSM    C2F15855   6.618   1.217   6.077  0.1393 -0.5357  0.3351
  144OSM    H2F15856   6.509   1.240   6.074  0.7026  2.4721 -0.0205
  144OSM    H2G15857   6.674   1.304   6.037  0.0008 -1.5235 -2.2078
  144OSM    C3F15858   6.663   1.192   6.226  0.0569 -0.1699 -0.1816
  144OSM    H3F15859   6.765   1.148   6.231 -0.2493 -0.8082  0.8498
  144OSM    H3G15860   6.591   1.124   6.276 -1.2750 -0.0852 -1.8757
  144OSM    C4F15861   6.668   1.324   6.302  0.1106  0.0167 -0.0299
  144OSM    H4F15862   6.579   1.385   6.276 -1.6425 -2.5533 -0.4226
  144OSM    H4G15863   6.754   1.380   6.259  0.1233 -1.5487 -2.1844
  144OSM    C5F15864   6.676   1.307   6.453 -0.6772 -0.2064  0.2981
  144OSM    H5F15865   6.596   1.234   6.477 -0.8352 -0.2588 -0.3554
  144OSM    H5G15866   6.664   1.405   6.503 -0.4858 -0.0624  0.0669
  144OSM    C6F15867   6.809   1.248   6.503  0.2138  0.4505 -0.0861
  144OSM    H6F15868   6.881   1.330   6.524 -0.2862  1.0596 -0.7257
  144OSM    H6G15869   6.848   1.186   6.419  2.1926  2.7194 -0.9433
  144OSM    C7F15870   6.795   1.156   6.623 -0.2344 -0.5619 -0.1931
  144OSM    H7F15871   6.709   1.087   6.612  2.4262 -4.2763  0.1670
  144OSM    H7G15872   6.768   1.232   6.699  1.6626  1.5940 -1.5558
  144OSM    C8F15873   6.924   1.087   6.679  0.6003 -0.0498 -0.1343
  144OSM    H8F15874   6.943   1.006   6.606  0.3087  2.0525 -2.7143
  144OSM    H8G15875   6.900   1.052   6.781 -2.3194  1.8768 -0.0604
  144OSM    C9F15876   7.048   1.178   6.689  0.3827 -0.3675 -0.3726
  144OSM    H9F15877   7.084   1.199   6.587 -2.3381 -0.3343 -1.4004
  144OSM   C10F15878   7.071   1.260   6.794  0.4003  0.0922 -0.4051
  144OSM   H10F15879   7.165   1.317   6.798  0.7878 -0.5984  1.1656
  144OSM   C11F15880   6.999   1.264   6.926  0.7197  0.5948 -0.3032
  144OSM   H11F15881   6.970   1.158   6.942  0.3495  0.5035 -1.4410
  144OSM   H11G15882   6.901   1.316   6.933 -0.1193 -1.0325  0.5868
  144OSM   C12F15883   7.101   1.316   7.038  0.8083  0.2333  0.0856
  144OSM   H12F15884   7.117   1.424   7.017 -1.3067  0.1001 -2.9072
  144OSM   H12G15885   7.201   1.271   7.021  0.7727  0.4661 -0.8111
  144OSM   C13F15886   7.044   1.286   7.176  0.1716 -0.5278 -0.8006
  144OSM   H13F15887   7.070   1.178   7.187 -1.2627 -0.7122  1.2224
  144OSM   H13G15888   6.933   1.294   7.176  0.1760 -0.3182  0.2999
  144OSM   C14F15889   7.105   1.362   7.295  0.2204  0.0881 -0.1549
  144OSM   H14F15890   7.060   1.464   7.284 -2.9476 -1.2974 -1.3824
  144OSM   H14G15891   7.213   1.382   7.281  0.6471  0.1678  2.6048
  144OSM   C15F15892   7.079   1.299   7.433 -0.5443  0.4613  0.2127
  144OSM   H15F15893   7.107   1.192   7.425 -0.2867  0.5506 -0.0816
  144OSM   H15G15894   6.971   1.305   7.457 -0.7962  1.0255 -0.9932
  144OSM   C16F15895   7.164   1.369   7.536 -0.0878 -0.7051 -0.6146
  144OSM   H16F15896   7.167   1.475   7.504 -1.0798 -0.8024 -1.0500
  144OSM   H16G15897   7.270   1.337   7.524  0.3324  0.8034 -1.1355
  144OSM   C17F15898   7.101   1.371   7.682 -0.4513  0.3492  0.0778
  144OSM   H17F15899   6.993   1.395   7.690 -0.2866  1.3813 -0.5261
  144OSM   H17G15900   7.155   1.453   7.734  0.8750  0.1071 -0.8721
  144OSM   C18F15901   7.116   1.231   7.751  0.5501  0.0805 -0.3128
  144OSM   H18F15902   7.224   1.205   7.744  1.3646  3.3815 -2.2351
  144OSM   H18G15903   7.051   1.157   7.698 -0.2309  1.8474 -1.9313
  144OSM   H18H15904   7.071   1.242   7.852 -0.8319 -1.1351 -0.7496
  145SAPE     N15905   2.081   3.049  10.066  0.5289  0.1616 -0.2809
  145SAPE   HN115906   1.993   3.060  10.120  0.6054  0.0744 -0.1383
  145SAPE   HN215907   2.113   2.954  10.095  1.3188 -0.1753 -2.1159
  145SAPE   HN315908   2.156   3.105  10.112  1.0869  0.4878 -1.5272
  145SAPE   C1215909   2.068   3.070   9.917  0.1376  0.1307 -0.9526
  145SAPE  H12A15910   2.029   3.174   9.914  0.0008  0.0596 -2.4591
  145SAPE  H12B15911   2.000   2.994   9.872 -1.0598  1.3677 -1.3041
  145SAPE   C1115912   2.207   3.043   9.855  0.0168  0.0555 -0.5962
  145SAPE  H11A15913   2.200   3.062   9.746  2.0529 -0.1627 -0.8103
  145SAPE  H11B15914   2.242   2.937   9.864 -1.1939 -0.2688  0.7364
  145SAPE     P15915   2.457   3.105   9.855  0.0206  0.3649 -0.2205
  145SAPE   O1315916   2.553   3.175   9.934 -0.4666 -0.4102  0.1600
  145SAPE   O1415917   2.479   2.963   9.838 -0.1240  0.7251  0.2433
  145SAPE   O1215918   2.305   3.139   9.905 -0.7473 -0.3765  0.4686
  145SAPE   O1115919   2.444   3.188   9.713 -0.4509 -0.1803  0.0959
  145SAPE    C115920   2.557   3.258   9.672 -0.0940 -0.0477  0.4736
  145SAPE    HA15921   2.560   3.362   9.709  0.4307  0.2598 -0.4085
  145SAPE    HB15922   2.646   3.195   9.692  0.1775  1.0445  3.1319
  145SAPE    C215923   2.549   3.269   9.509  1.0528 -0.2346  0.2358
  145SAPE    HS15924   2.653   3.267   9.469  0.8903 -0.8686 -0.1755
  145SAPE   O2115925   2.482   3.396   9.487  0.3753 -0.0648 -0.2787
  145SAPE   C2115926   2.498   3.440   9.362 -0.7216 -0.0104  0.1247
  145SAPE   O2215927   2.579   3.396   9.284  0.3683 -0.2561  0.3066
  145SAPE   C2215928   2.394   3.545   9.335  0.5153  0.3954  0.6335
  145SAPE   H2R15929   2.296   3.493   9.340  1.9041 -2.3752  1.5427
  145SAPE   H2S15930   2.394   3.613   9.422 -1.1663  0.6153  0.4901
  145SAPE    C315931   2.474   3.145   9.454  0.0434  0.0992  0.2904
  145SAPE    HX15932   2.373   3.163   9.497 -0.0100  2.3561 -0.6370
  145SAPE    HY15933   2.512   3.051   9.497  0.0121  1.0556  2.5523
  145SAPE   O3115934   2.452   3.140   9.317 -0.5452  0.1507  0.1238
  145SAPE   C3115935   2.562   3.121   9.239 -0.0972 -0.7148 -0.9150
  145SAPE   O3215936   2.678   3.103   9.281  0.1165  0.2947 -0.2756
  145SAPE   C3215937   2.528   3.136   9.092  0.4810  1.1394 -0.6405
  145SAPE   H2X15938   2.562   3.234   9.053  1.0714  0.3435 -2.2097
  145SAPE   H2Y15939   2.418   3.133   9.075  0.2517  2.0291  0.5349
  145SAPE   C2315940   2.431   3.624   9.204 -0.1439 -0.1648  0.0072
  145SAPE   H3R15941   2.541   3.640   9.205 -0.0175 -0.7647  2.4314
  145SAPE   H3S15942   2.374   3.720   9.207 -0.5702 -0.4219  0.1511
  145SAPE   C2415943   2.400   3.533   9.082  0.2341 -0.9550 -0.7312
  145SAPE   H4R15944   2.340   3.446   9.115 -0.7372 -0.5300 -1.3319
  145SAPE   H4S15945   2.496   3.486   9.052  0.2336 -0.9406 -0.7558
  145SAPE   C2515946   2.326   3.612   8.981 -0.2291  0.6458 -0.1520
  145SAPE   H5R15947   2.271   3.701   9.016  0.4316  1.1579 -0.4057
  145SAPE   C2615948   2.327   3.592   8.850  0.5464  0.3867  0.5262
  145SAPE   H6R15949   2.257   3.654   8.792  1.1191 -0.1112 -0.7267
  145SAPE   C2715950   2.392   3.489   8.763 -0.2580  0.0951  0.2510
  145SAPE   H7R15951   2.467   3.427   8.816 -0.4131  0.4973  0.9664
  145SAPE   H7S15952   2.432   3.542   8.674 -2.1349  0.5743 -0.3578
  145SAPE   C2815953   2.285   3.396   8.715  0.1560 -0.4425 -0.2787
  145SAPE   H8R15954   2.210   3.375   8.793 -1.1952  0.2317 -1.3523
  145SAPE   C2915955   2.256   3.358   8.588  0.5011  0.6155  0.2207
  145SAPE   H9R15956   2.172   3.288   8.582  1.6760 -1.1258  2.4606
  145SAPE  C21015957   2.344   3.379   8.465 -0.3380 -0.0850 -0.2939
  145SAPE  H10R15958   2.386   3.282   8.433  2.0692  0.5057  0.8436
  145SAPE  H10S15959   2.433   3.441   8.491 -1.4082  0.9970  0.9415
  145SAPE  C21115960   2.265   3.447   8.360  1.0774 -0.1517  0.4062
  145SAPE  H11R15961   2.189   3.392   8.302 -1.1324  2.6313  0.4511
  145SAPE  C21215962   2.259   3.583   8.342  0.1115 -0.3609 -0.2597
  145SAPE  H12R15963   2.197   3.617   8.258 -0.0548  1.3271  0.5078
  145SAPE  C21315964   2.335   3.691   8.418 -0.2931  0.6638  0.8478
  145SAPE  H13R15965   2.336   3.660   8.525 -1.4351 -0.4206  0.5673
  145SAPE  H13S15966   2.285   3.789   8.425 -1.8556 -0.2154  2.9825
  145SAPE  C21415967   2.470   3.715   8.345  0.0865 -0.3001 -0.4396
  145SAPE  H14R15968   2.557   3.667   8.392  0.5134  0.5227 -0.3621
  145SAPE  C21515969   2.496   3.796   8.238  0.0339 -0.3357  0.0051
  145SAPE  H15R15970   2.597   3.803   8.195  0.4496  1.3031  1.1283
  145SAPE  C21615971   2.384   3.865   8.158  0.0774  0.6745 -0.6320
  145SAPE  H16R15972   2.404   3.974   8.146 -0.6927  1.1343  1.7340
  145SAPE  H16S15973   2.291   3.859   8.218  1.1141 -1.4228  0.9356
  145SAPE  C21715974   2.363   3.795   8.025  0.2534 -0.0186 -1.0219
  145SAPE  H17R15975   2.343   3.691   8.059 -0.1162  0.4610  0.2996
  145SAPE  H17S15976   2.460   3.807   7.972  0.9800  0.7666  0.4095
  145SAPE  C21815977   2.249   3.845   7.942 -0.0064  0.5370  0.2706
  145SAPE  H18R15978   2.265   3.948   7.905  2.3312  0.4563  0.8859
  145SAPE  H18S15979   2.155   3.838   8.002  0.2916 -2.1713  0.5649
  145SAPE  C21915980   2.223   3.773   7.812 -0.0829  0.0658 -0.0181
  145SAPE  H19R15981   2.251   3.667   7.825 -0.3489  0.0863  0.7949
  145SAPE  H19S15982   2.285   3.829   7.738  1.2538  0.4511  1.3551
  145SAPE  C22015983   2.082   3.775   7.750  0.5492  0.2697 -0.1637
  145SAPE  H20R15984   2.037   3.874   7.725  2.5426  1.0663 -0.7713
  145SAPE  H20S15985   2.017   3.725   7.825  1.0708  0.0276  0.1335
  145SAPE  H20T15986   2.096   3.717   7.656  0.3552 -1.1183  0.6307
  145SAPE   C3315987   2.593   3.024   9.004 -0.3476  0.4055 -0.3872
  145SAPE   H3X15988   2.592   2.928   9.060  0.0866 -0.5294 -1.9249
  145SAPE   H3Y15989   2.697   3.057   8.985  0.1066  1.1354  2.8049
  145SAPE   C3415990   2.517   3.016   8.870  0.4040 -0.4305  0.4681
  145SAPE   H4X15991   2.491   3.116   8.828  3.7815 -0.6682 -2.8440
  145SAPE   H4Y15992   2.425   2.956   8.878 -2.3018  2.6954 -3.1153
  145SAPE   C3515993   2.602   2.939   8.768 -1.2158 -0.5549 -0.2682
  145SAPE   H5X15994   2.629   2.837   8.801  0.7421 -0.4521 -1.3840
  145SAPE   H5Y15995   2.692   3.001   8.745 -3.3537  2.5397 -1.0165
  145SAPE   C3615996   2.534   2.913   8.630 -0.1499 -0.1070 -0.4693
  145SAPE   H6X15997   2.427   2.885   8.645 -0.4919 -0.6299 -3.3614
  145SAPE   H6Y15998   2.584   2.833   8.571 -0.8012 -0.8042 -0.1062
  145SAPE   C3715999   2.546   3.039   8.543  0.2501  0.1293  0.3898
  145SAPE   H7X16000   2.653   3.064   8.530  0.6989 -1.5461  0.5332
  145SAPE   H7Y16001   2.492   3.123   8.591  0.2865  0.3198  0.0991
  145SAPE   C3816002   2.470   3.017   8.410 -0.0674  0.4233  0.1550
  145SAPE   H8X16003   2.509   2.938   8.342 -0.8138 -0.2902  0.5340
  145SAPE   H8Y16004   2.488   3.102   8.341  0.5417  0.8758  0.8731
  145SAPE   C3916005   2.315   2.991   8.419  0.2789  0.3347  0.2346
  145SAPE   H9X16006   2.264   3.080   8.462 -3.4852 -2.0044  1.1204
  145SAPE   H9Y16007   2.286   2.910   8.489 -0.1101 -0.1435 -0.4646
  145SAPE  C31016008   2.239   2.953   8.285 -0.4260 -0.2475  0.0286
  145SAPE  H10X16009   2.150   2.899   8.324  0.5584 -0.8543  1.5012
  145SAPE  H10Y16010   2.298   2.875   8.232  1.4739  2.1715 -1.7299
  145SAPE  C31116011   2.211   3.069   8.194 -0.0999 -0.6167 -0.4818
  145SAPE  H11X16012   2.294   3.111   8.133  0.4156 -2.8319 -1.3918
  145SAPE  H11Y16013   2.179   3.150   8.263  1.7397  0.4374 -0.8020
  145SAPE  C31216014   2.089   3.038   8.106  0.4506  0.7311  0.5173
  145SAPE  H12X16015   2.008   3.046   8.181 -0.4098  4.6040 -0.5706
  145SAPE  H12Y16016   2.088   2.930   8.082 -0.1356  0.8441 -0.0155
  145SAPE  C31316017   2.056   3.136   7.991 -0.3690 -0.0244  0.3751
  145SAPE  H13X16018   2.141   3.141   7.921 -0.6675  2.4367  0.1024
  145SAPE  H13Y16019   2.048   3.241   8.026 -2.2290  0.6561 -1.8097
  145SAPE  C31416020   1.929   3.097   7.910 -0.0635 -0.1190  0.0913
  145SAPE  H14X16021   1.895   3.168   7.832 -1.4424  0.8848  1.5311
  145SAPE  H14Y16022   1.845   3.095   7.982 -0.3541  2.1094 -0.1149
  145SAPE  C31516023   1.949   2.951   7.854  0.0739  0.0114 -0.0455
  145SAPE  H15X16024   1.961   2.881   7.939 -0.0341 -0.6070 -0.5265
  145SAPE  H15Y16025   2.044   2.930   7.799 -0.1795 -0.9411 -0.1441
  145SAPE  C31616026   1.830   2.902   7.770 -0.5519  0.5050  0.0136
  145SAPE  H16X16027   1.822   2.963   7.677 -0.0073 -0.9408 -1.0145
  145SAPE  H16Y16028   1.739   2.922   7.831 -2.0182  1.9155 -2.4747
  145SAPE  C31716029   1.831   2.753   7.733  0.4601 -0.1594  0.9576
  145SAPE  H17X16030   1.936   2.735   7.701  1.3501  0.6589  3.2647
  145SAPE  H17Y16031   1.759   2.728   7.652  3.0439 -1.8665 -0.9754
  145SAPE  C31816032   1.791   2.665   7.848  0.5945  0.0549 -0.7456
  145SAPE  H18X16033   1.859   2.680   7.935 -0.8766  3.0235  0.0482
  145SAPE  H18Y16034   1.801   2.558   7.819  4.6683  0.9494 -3.4846
  145SAPE  H18Z16035   1.688   2.685   7.883  0.6838 -2.1660  1.0429
  146SAPE     N16036   2.649   2.455   9.817 -0.2759 -0.4008 -0.4346
  146SAPE   HN116037   2.644   2.399   9.729  0.3012 -1.4811  0.2116
  146SAPE   HN216038   2.598   2.545   9.801  1.8179  1.3909  2.1599
  146SAPE   HN316039   2.749   2.471   9.840 -0.4343 -1.2547  0.9031
  146SAPE   C1216040   2.594   2.366   9.920 -0.1510  0.7924 -0.4904
  146SAPE  H12A16041   2.625   2.261   9.898 -2.4418  0.4564 -2.5091
  146SAPE  H12B16042   2.485   2.367   9.902  0.1927  0.8045 -2.9838
  146SAPE   C1116043   2.639   2.418  10.056 -0.2382  0.1491 -0.2316
  146SAPE  H11A16044   2.750   2.417  10.048 -0.3269  0.0020 -1.7814
  146SAPE  H11B16045   2.616   2.353  10.143  0.4449  0.2148  0.0000
  146SAPE     P16046   2.476   2.592  10.169 -0.1309  0.3861 -0.0820
  146SAPE   O1316047   2.487   2.509  10.291 -0.2672 -0.2958 -0.4661
  146SAPE   O1416048   2.468   2.739  10.180  0.6422  0.1257 -0.2457
  146SAPE   O1216049   2.593   2.554  10.076 -0.3018  0.4040  0.0071
  146SAPE   O1116050   2.350   2.544  10.086 -0.4555 -0.0887 -0.6493
  146SAPE    C116051   2.324   2.600   9.960 -0.2682  0.0127  0.9662
  146SAPE    HA16052   2.337   2.711   9.954  2.3760 -0.2990 -2.3248
  146SAPE    HB16053   2.397   2.563   9.885 -1.2695  1.0434 -0.5828
  146SAPE    C216054   2.178   2.564   9.925 -0.1498 -0.0885  1.0829
  146SAPE    HS16055   2.114   2.582  10.014 -0.1179 -1.1117  1.3148
  146SAPE   O2116056   2.187   2.427   9.883 -0.0104 -0.0791 -0.1012
  146SAPE   C2116057   2.070   2.361   9.899 -0.0774 -0.3834  0.5372
  146SAPE   O2216058   1.968   2.408   9.937  0.0668 -0.3127 -0.2002
  146SAPE   C2216059   2.078   2.227   9.831  0.0411  0.7830  0.3295
  146SAPE   H2R16060   2.103   2.144   9.900 -1.4937 -0.0443 -0.0638
  146SAPE   H2S16061   1.976   2.220   9.786  0.4215 -3.4785 -0.2823
  146SAPE    C316062   2.115   2.663   9.820 -1.0800 -0.2860 -0.1037
  146SAPE    HX16063   2.118   2.756   9.881 -0.0348  0.2887 -1.0179
  146SAPE    HY16064   2.008   2.632   9.813 -1.3920 -0.8944  4.3011
  146SAPE   O3116065   2.204   2.677   9.709 -0.3781  0.3723  0.0933
  146SAPE   C3116066   2.153   2.777   9.627 -0.1933  0.1036 -0.0433
  146SAPE   O3216067   2.055   2.845   9.660 -0.3236 -0.0187 -0.5148
  146SAPE   C3216068   2.233   2.801   9.493 -0.4833  0.1361 -0.1201
  146SAPE   H2X16069   2.227   2.912   9.483 -1.5453 -0.0150 -1.4705
  146SAPE   H2Y16070   2.176   2.760   9.406 -0.8744  3.5867 -1.6669
  146SAPE   C2316071   2.181   2.220   9.707 -0.1740 -0.6971  0.6700
  146SAPE   H3R16072   2.280   2.254   9.747 -0.3840  0.5941  0.1546
  146SAPE   H3S16073   2.144   2.291   9.630  2.0758 -0.2988 -0.1131
  146SAPE   C2416074   2.217   2.077   9.654  0.3923  0.3796 -0.1151
  146SAPE   H4R16075   2.125   2.020   9.628 -1.4448  2.3008  1.7380
  146SAPE   H4S16076   2.253   2.020   9.742  0.7221  2.3392  1.0773
  146SAPE   C2516077   2.316   2.086   9.547 -0.1822  0.5144 -0.4484
  146SAPE   H5R16078   2.419   2.097   9.582  0.1986 -2.8350 -0.1372
  146SAPE   C2616079   2.294   2.081   9.414 -0.2751  0.2248  0.9942
  146SAPE   H6R16080   2.380   2.101   9.349 -0.5958 -0.6904  0.2619
  146SAPE   C2716081   2.160   2.064   9.347  0.5732 -0.0713 -0.1412
  146SAPE   H7R16082   2.177   2.083   9.239  3.4772 -1.9921 -0.1109
  146SAPE   H7S16083   2.088   2.138   9.390 -0.6372 -1.8885  1.1046
  146SAPE   C2816084   2.093   1.933   9.373  0.1869 -0.1494  0.0170
  146SAPE   H8R16085   2.091   1.901   9.478  0.1101  2.2774  0.8010
  146SAPE   C2916086   2.025   1.860   9.279 -0.0958 -0.2270  0.5072
  146SAPE   H9R16087   1.975   1.764   9.302  1.5563 -1.1242  0.5067
  146SAPE  C21016088   2.000   1.895   9.134 -0.0972 -0.0722 -0.1461
  146SAPE  H10R16089   2.059   1.813   9.086 -1.3423 -0.9655 -0.2169
  146SAPE  H10S16090   2.052   1.989   9.106 -0.5487  0.0723 -0.5179
  146SAPE  C21116091   1.856   1.897   9.095 -0.4542 -0.5406 -0.0867
  146SAPE  H11R16092   1.801   1.964   9.163  1.7413  0.5957  0.6607
  146SAPE  C21216093   1.800   1.828   8.995  0.2893  0.3650  0.0560
  146SAPE  H12R16094   1.693   1.844   8.974 -0.0083 -0.6090  0.7819
  146SAPE  C21316095   1.869   1.747   8.888  0.2779  0.0594  0.0489
  146SAPE  H13R16096   1.854   1.640   8.913  1.0824  0.2126  1.2753
  146SAPE  H13S16097   1.979   1.755   8.900  0.2011 -1.5576  2.4340
  146SAPE  C21416098   1.813   1.785   8.754 -0.1082 -0.5118 -0.0917
  146SAPE  H14R16099   1.719   1.842   8.756 -0.7247 -1.5289  1.2093
  146SAPE  C21516100   1.871   1.749   8.634  0.3241  0.2433 -0.2754
  146SAPE  H15R16101   1.811   1.762   8.543  0.1981  0.8278 -0.1125
  146SAPE  C21616102   1.998   1.671   8.611  1.0424  0.0678  0.4253
  146SAPE  H16R16103   2.014   1.585   8.679  1.2902 -0.6191 -0.4889
  146SAPE  H16S16104   2.080   1.745   8.625  0.5874  0.6755 -0.0681
  146SAPE  C21716105   2.021   1.619   8.468 -0.0048  0.7436 -0.0669
  146SAPE  H17R16106   1.934   1.556   8.439 -0.6410  1.5710  0.0301
  146SAPE  H17S16107   2.114   1.557   8.473 -1.6981 -1.9632  0.2496
  146SAPE  C21816108   2.036   1.721   8.349 -0.3334 -0.5459 -0.8026
  146SAPE  H18R16109   2.138   1.763   8.359 -0.6381 -0.0241  0.3399
  146SAPE  H18S16110   1.962   1.802   8.366  0.3337  0.2989 -1.8238
  146SAPE  C21916111   2.019   1.668   8.205 -0.1065 -0.4371  0.9992
  146SAPE  H19R16112   2.051   1.740   8.127 -0.5075 -2.0995 -0.7815
  146SAPE  H19S16113   1.913   1.647   8.182 -1.1054  2.7279  2.1813
  146SAPE  C22016114   2.099   1.538   8.173  0.9235 -0.8575 -0.3266
  146SAPE  H20R16115   2.208   1.558   8.176  0.9026 -0.8607  1.7649
  146SAPE  H20S16116   2.072   1.488   8.077 -3.2946 -2.5767  1.5134
  146SAPE  H20T16117   2.068   1.451   8.235 -0.6333 -1.0762 -1.3252
  146SAPE   C3316118   2.382   2.757   9.474 -0.2442 -0.6302  0.5366
  146SAPE   H3X16119   2.432   2.788   9.568  1.0093  1.4603 -0.7335
  146SAPE   H3Y16120   2.438   2.823   9.404  0.5668  0.4898  2.1709
  146SAPE   C3416121   2.408   2.616   9.435 -0.2487  0.2193  0.2677
  146SAPE   H4X16122   2.354   2.556   9.511 -1.1239 -0.1635 -0.6175
  146SAPE   H4Y16123   2.518   2.611   9.448 -0.4179 -0.0241  1.7830
  146SAPE   C3516124   2.357   2.569   9.293 -0.4927 -0.4115 -0.7050
  146SAPE   H5X16125   2.403   2.645   9.227 -1.2274  1.7838  1.1887
  146SAPE   H5Y16126   2.246   2.577   9.283 -1.0741 -0.3743  3.7852
  146SAPE   C3616127   2.408   2.435   9.253 -0.3538 -0.3072 -0.1153
  146SAPE   H6X16128   2.352   2.414   9.159  2.1834 -1.1548 -1.5483
  146SAPE   H6Y16129   2.377   2.357   9.325 -0.0648 -0.4234 -0.1140
  146SAPE   C3716130   2.565   2.424   9.232  0.4647 -0.0623  1.2163
  146SAPE   H7X16131   2.604   2.392   9.332  1.0484  1.3984  1.4750
  146SAPE   H7Y16132   2.608   2.526   9.227  1.9349 -0.7354 -1.6642
  146SAPE   C3816133   2.610   2.351   9.108 -0.1781 -0.2332 -0.3641
  146SAPE   H8X16134   2.605   2.242   9.130  0.5299  0.0500  1.3341
  146SAPE   H8Y16135   2.718   2.375   9.098 -0.6113  2.4465  0.5555
  146SAPE   C3916136   2.539   2.409   8.984  0.1095 -0.2220  0.0274
  146SAPE   H9X16137   2.545   2.520   8.990  3.7214 -0.1862 -1.6566
  146SAPE   H9Y16138   2.436   2.370   8.967  0.4421 -1.0763 -0.0663
  146SAPE  C31016139   2.611   2.365   8.854  0.9327 -0.3393  0.4125
  146SAPE  H10X16140   2.634   2.258   8.836  0.3032 -0.4323  0.1163
  146SAPE  H10Y16141   2.712   2.411   8.856  0.5206  0.6867 -0.9575
  146SAPE  C31116142   2.535   2.406   8.720 -0.0807  0.3160  0.2308
  146SAPE  H11X16143   2.527   2.517   8.714 -0.3531  0.2068 -2.8658
  146SAPE  H11Y16144   2.433   2.365   8.706  1.7288 -4.3120 -1.2771
  146SAPE  C31216145   2.621   2.369   8.587 -0.1042 -1.1498  0.1870
  146SAPE  H12X16146   2.641   2.259   8.585  2.5284 -0.7300 -0.7698
  146SAPE  H12Y16147   2.715   2.427   8.582  0.5450 -2.2271 -3.7064
  146SAPE  C31316148   2.542   2.420   8.463  0.2676 -0.0860 -0.9137
  146SAPE  H13X16149   2.512   2.524   8.488  1.4289  0.1868 -0.6110
  146SAPE  H13Y16150   2.458   2.350   8.445  0.0390  0.0263 -0.2982
  146SAPE  C31416151   2.612   2.416   8.329 -0.7362  0.0160 -0.5261
  146SAPE  H14X16152   2.709   2.463   8.355 -2.3100  1.8609  2.6841
  146SAPE  H14Y16153   2.550   2.482   8.265 -0.9220 -0.5356 -0.9240
  146SAPE  C31516154   2.617   2.281   8.256 -0.0351  0.2688  0.4249
  146SAPE  H15X16155   2.515   2.246   8.232 -0.2477  0.5520  0.9010
  146SAPE  H15Y16156   2.663   2.205   8.323 -0.9769  1.4194  2.4858
  146SAPE  C31616157   2.708   2.286   8.132 -0.3338  0.2034  0.1172
  146SAPE  H16X16158   2.774   2.197   8.125 -1.0227 -0.2692 -0.6817
  146SAPE  H16Y16159   2.773   2.374   8.148 -0.4668  0.3910 -0.3427
  146SAPE  C31716160   2.633   2.326   8.003 -0.5086 -0.0200 -0.0784
  146SAPE  H17X16161   2.701   2.340   7.916  0.1075 -3.1873 -0.2087
  146SAPE  H17Y16162   2.582   2.423   8.024 -0.1269  0.6594 -2.0575
  146SAPE  C31816163   2.524   2.229   7.956 -0.1012 -0.1325 -0.4566
  146SAPE  H18X16164   2.577   2.131   7.945  0.8345  0.6161 -3.9204
  146SAPE  H18Y16165   2.472   2.255   7.862 -1.7585  1.7263  0.9198
  146SAPE  H18Z16166   2.458   2.214   8.044 -0.6495  1.3493 -0.6007
  147SAPE     N16167   4.535   5.763  10.017 -0.0960  0.7382 -0.7797
  147SAPE   HN116168   4.485   5.687   9.968  1.9322  0.4606 -2.5883
  147SAPE   HN216169   4.613   5.791   9.953  1.6792 -0.2589  0.8485
  147SAPE   HN316170   4.589   5.725  10.097 -1.2160 -0.0607 -0.3841
  147SAPE   C1216171   4.450   5.880  10.049 -0.3149 -0.2008 -0.4538
  147SAPE  H12A16172   4.524   5.963  10.052 -0.1290 -0.3688 -0.3732
  147SAPE  H12B16173   4.401   5.868  10.148 -0.5831 -0.7835 -0.6542
  147SAPE   C1116174   4.350   5.902   9.933  0.8034 -0.1868 -0.3069
  147SAPE  H11A16175   4.261   5.836   9.939  0.3163  0.2915 -1.6366
  147SAPE  H11B16176   4.397   5.863   9.840 -0.1431 -2.6971  0.1938
  147SAPE     P16177   4.385   6.143   9.854 -0.4855 -0.2649 -0.1763
  147SAPE   O1316178   4.304   6.262   9.825 -0.4525 -0.1704 -0.0050
  147SAPE   O1416179   4.517   6.162   9.928 -0.1711  0.5315  0.3945
  147SAPE   O1216180   4.300   6.039   9.927  0.0342 -0.6794 -0.2814
  147SAPE   O1116181   4.407   6.061   9.719  0.4513 -0.7549 -0.7625
  147SAPE    C116182   4.292   6.048   9.632  0.4666 -0.0272  0.2363
  147SAPE    HA16183   4.201   6.030   9.693  0.8214  1.6813  1.3475
  147SAPE    HB16184   4.275   6.137   9.568 -0.2218 -0.5201 -0.2751
  147SAPE    C216185   4.318   5.935   9.531 -0.5466  0.4720 -0.2179
  147SAPE    HS16186   4.406   5.880   9.569  0.5825  0.8868 -2.0973
  147SAPE   O2116187   4.357   5.992   9.406 -0.7631 -0.0172 -0.0596
  147SAPE   C2116188   4.393   5.912   9.310  0.0434 -0.1710 -0.1894
  147SAPE   O2216189   4.421   5.795   9.322 -0.2811  0.8985  0.2071
  147SAPE   C2216190   4.388   5.980   9.173  0.0967  0.0467  0.4982
  147SAPE   H2R16191   4.290   6.031   9.163 -1.5293 -2.9142  0.0701
  147SAPE   H2S16192   4.473   6.051   9.179 -0.0717  0.1331  3.6393
  147SAPE    C316193   4.198   5.842   9.530 -0.4928  0.1840 -0.6507
  147SAPE    HX16194   4.201   5.795   9.630 -1.5849 -3.2676 -2.0908
  147SAPE    HY16195   4.218   5.749   9.472  0.1924 -0.5640  0.7297
  147SAPE   O3116196   4.073   5.913   9.506  0.5475 -0.1162  0.0046
  147SAPE   C3116197   4.048   5.917   9.379 -0.6067 -1.2133 -0.4049
  147SAPE   O3216198   4.116   5.867   9.295 -0.5587  0.8337 -0.1505
  147SAPE   C3216199   3.920   6.001   9.371 -0.5572 -0.1991 -0.3975
  147SAPE   H2X16200   3.943   6.098   9.420 -1.2147 -0.9746  1.5416
  147SAPE   H2Y16201   3.841   5.960   9.437 -0.0113  2.0776  1.8633
  147SAPE   C2316202   4.395   5.875   9.066  0.1085  0.4648  0.0074
  147SAPE   H3R16203   4.335   5.787   9.098  1.1787 -0.0369  0.6992
  147SAPE   H3S16204   4.494   5.824   9.069  1.4296  2.7484 -1.5782
  147SAPE   C2416205   4.360   5.933   8.928 -0.0877 -0.2810 -0.3926
  147SAPE   H4R16206   4.451   5.994   8.909  1.1403 -0.5281  3.7411
  147SAPE   H4S16207   4.285   6.014   8.936  2.7745  2.7504 -1.8547
  147SAPE   C2516208   4.331   5.838   8.814 -0.0983  0.1884  0.0899
  147SAPE   H5R16209   4.425   5.801   8.770 -0.2733  0.1931 -0.2884
  147SAPE   C2616210   4.222   5.839   8.733  0.4503 -0.9418 -0.4514
  147SAPE   H6R16211   4.213   5.759   8.657  1.7341 -0.7534 -0.8358
  147SAPE   C2716212   4.103   5.925   8.771 -0.4042 -0.1073 -0.4206
  147SAPE   H7R16213   4.135   6.031   8.781 -1.1918 -0.0194  1.9400
  147SAPE   H7S16214   4.061   5.896   8.870  0.2605 -0.3912 -0.2190
  147SAPE   C2816215   4.001   5.908   8.668  0.4930  0.8778 -0.6590
  147SAPE   H8R16216   3.913   5.849   8.699  1.1824 -0.8484 -1.8812
  147SAPE   C2916217   3.999   5.957   8.546 -0.6125  0.1268  0.1979
  147SAPE   H9R16218   3.928   5.923   8.469  0.8635 -1.1762 -0.6459
  147SAPE  C21016219   4.111   6.045   8.495 -0.2164  0.1291  0.2319
  147SAPE  H10R16220   4.169   5.985   8.422 -0.9281 -0.8869  0.4929
  147SAPE  H10S16221   4.193   6.049   8.570  0.8225 -0.4482 -0.8499
  147SAPE  C21116222   4.075   6.185   8.455  0.2687 -0.1503 -0.6119
  147SAPE  H11R16223   4.006   6.241   8.519 -1.0575 -1.7578 -0.5795
  147SAPE  C21216224   4.132   6.250   8.348  0.2886 -0.7029  0.0571
  147SAPE  H12R16225   4.098   6.353   8.333 -2.4686 -1.4404  0.6559
  147SAPE  C21316226   4.234   6.190   8.249 -0.0525 -0.5370 -0.1723
  147SAPE  H13R16227   4.187   6.147   8.159  0.6983 -0.5228 -0.5769
  147SAPE  H13S16228   4.283   6.098   8.287 -0.3333 -1.5639 -2.1890
  147SAPE  C21416229   4.327   6.304   8.226  0.1192  0.3912 -0.0541
  147SAPE  H14R16230   4.380   6.348   8.312  1.4474 -0.6545 -0.3077
  147SAPE  C21516231   4.367   6.358   8.102 -0.3456  0.0858 -0.2150
  147SAPE  H15R16232   4.445   6.435   8.093  0.1870 -0.5104 -0.8228
  147SAPE  C21616233   4.296   6.333   7.969 -0.5756 -0.1487  0.9356
  147SAPE  H16R16234   4.275   6.432   7.923 -0.7445 -1.0565 -1.0643
  147SAPE  H16S16235   4.199   6.281   7.980 -1.2714  0.5121 -1.5139
  147SAPE  C21716236   4.387   6.267   7.866  0.3178  0.3312 -0.2099
  147SAPE  H17R16237   4.432   6.170   7.898  2.4410  2.0529  2.4499
  147SAPE  H17S16238   4.471   6.337   7.846  0.0165  1.0774  1.0266
  147SAPE  C21816239   4.307   6.233   7.735 -0.2846  0.1831 -0.0618
  147SAPE  H18R16240   4.241   6.316   7.701  0.3563  1.2788  1.2263
  147SAPE  H18S16241   4.236   6.149   7.752 -1.9911  1.2898 -1.3693
  147SAPE  C21916242   4.396   6.195   7.618 -0.0532  0.3244  0.3503
  147SAPE  H19R16243   4.433   6.291   7.576  0.3971 -0.4075 -0.9719
  147SAPE  H19S16244   4.343   6.147   7.533  2.3390 -0.1007 -0.9949
  147SAPE  C22016245   4.528   6.109   7.651  0.8140 -0.4317  0.0787
  147SAPE  H20R16246   4.603   6.161   7.713  1.4429 -0.6187 -0.5102
  147SAPE  H20S16247   4.571   6.069   7.556  0.3256 -0.9721  0.0767
  147SAPE  H20T16248   4.493   6.026   7.717  0.1286  0.3288  0.6875
  147SAPE   C3316249   3.872   6.021   9.221  0.2070  0.6468 -0.1443
  147SAPE   H3X16250   3.766   6.055   9.230 -0.4194 -0.7176 -1.8402
  147SAPE   H3Y16251   3.873   5.928   9.161 -0.4565  1.2471 -1.1181
  147SAPE   C3416252   3.963   6.125   9.161 -0.4183 -0.3734  0.0457
  147SAPE   H4X16253   4.069   6.102   9.182 -0.0829  2.8568  2.6855
  147SAPE   H4Y16254   3.947   6.228   9.200 -1.4547  0.0835 -1.4923
  147SAPE   C3516255   3.936   6.137   9.011 -1.1883  0.5606  0.3902
  147SAPE   H5X16256   3.953   6.035   8.970 -0.2290  1.1147 -0.6603
  147SAPE   H5Y16257   4.016   6.194   8.958  0.0781 -2.4916 -1.2322
  147SAPE   C3616258   3.804   6.203   8.959  0.2913 -0.0938 -0.7137
  147SAPE   H6X16259   3.805   6.306   9.001 -0.5403 -0.1935 -0.4477
  147SAPE   H6Y16260   3.709   6.150   8.979 -0.6480  0.7995 -2.5744
  147SAPE   C3716261   3.807   6.216   8.809 -0.3354 -0.1932 -0.0505
  147SAPE   H7X16262   3.837   6.122   8.758  2.5121  0.0436  1.0008
  147SAPE   H7Y16263   3.890   6.281   8.774  0.1773 -0.9330 -0.2297
  147SAPE   C3816264   3.673   6.260   8.752  0.3047  0.2616  0.7582
  147SAPE   H8X16265   3.617   6.326   8.821 -0.0154  0.3715  0.3981
  147SAPE   H8Y16266   3.611   6.169   8.736  2.9952 -1.8981  1.8741
  147SAPE   C3916267   3.690   6.323   8.605  1.1688 -0.0919 -0.5843
  147SAPE   H9X16268   3.753   6.249   8.551  1.9854  0.3004 -0.1918
  147SAPE   H9Y16269   3.749   6.417   8.618 -0.1142  0.7137 -0.4194
  147SAPE  C31016270   3.565   6.335   8.515 -0.2126  0.5697  0.0218
  147SAPE  H10X16271   3.537   6.442   8.515  3.1125  1.6248  2.9268
  147SAPE  H10Y16272   3.478   6.279   8.555 -2.3640  4.0694  0.6375
  147SAPE  C31116273   3.601   6.307   8.361  0.1641 -0.2278  0.3597
  147SAPE  H11X16274   3.615   6.197   8.349 -0.8074 -0.2109 -1.1816
  147SAPE  H11Y16275   3.690   6.368   8.336 -1.2132  0.8299 -2.4889
  147SAPE  C31216276   3.489   6.345   8.265  0.2421 -0.0007 -0.5680
  147SAPE  H12X16277   3.435   6.438   8.296  0.4274 -1.0636  3.6127
  147SAPE  H12Y16278   3.408   6.269   8.269 -0.7174  1.0365  1.8130
  147SAPE  C31316279   3.553   6.359   8.128 -0.0398 -0.0996  0.2798
  147SAPE  H13X16280   3.604   6.265   8.097 -0.1019  0.0688 -0.3473
  147SAPE  H13Y16281   3.636   6.432   8.122  1.3659 -1.7257 -1.4928
  147SAPE  C31416282   3.449   6.398   8.018  0.4183 -0.4614  0.0895
  147SAPE  H14X16283   3.385   6.486   8.039  3.1684  1.1712  2.3244
  147SAPE  H14Y16284   3.388   6.306   8.008  0.0469 -0.0623 -1.6172
  147SAPE  C31516285   3.520   6.428   7.889 -0.0151 -0.2440 -0.1872
  147SAPE  H15X16286   3.581   6.337   7.869 -0.5993 -0.7829  0.4151
  147SAPE  H15Y16287   3.587   6.516   7.901  0.8713 -0.7475 -1.2260
  147SAPE  C31616288   3.418   6.438   7.774  0.1450 -0.8577  0.1379
  147SAPE  H16X16289   3.469   6.468   7.680  0.7073 -1.8201  0.1227
  147SAPE  H16Y16290   3.341   6.513   7.803  0.8745 -0.8364  2.2301
  147SAPE  C31716291   3.351   6.306   7.733 -1.0110  0.0694  0.0309
  147SAPE  H17X16292   3.260   6.320   7.671 -1.1051  3.6879  0.7494
  147SAPE  H17Y16293   3.325   6.252   7.827  1.9534 -2.0000 -0.2001
  147SAPE  C31816294   3.450   6.201   7.666  0.1877  0.5778 -0.9394
  147SAPE  H18X16295   3.495   6.229   7.567  0.1582 -0.7668 -1.3437
  147SAPE  H18Y16296   3.384   6.116   7.639  0.6497 -0.5335  1.2766
  147SAPE  H18Z16297   3.530   6.165   7.734 -0.6913 -0.4668 -0.4396
  148SAPE     N16298   3.679   1.567  10.328 -0.8506 -0.1469  0.6853
  148SAPE   HN116299   3.746   1.627  10.381  1.8564 -0.9049 -1.6134
  148SAPE   HN216300   3.702   1.588  10.228  0.7570 -3.5712  0.1823
  148SAPE   HN316301   3.582   1.598  10.350 -1.8817 -2.4977 -0.1782
  148SAPE   C1216302   3.707   1.422  10.350  0.2992  0.0809 -0.2727
  148SAPE  H12A16303   3.700   1.397  10.458  1.1460 -0.1520 -0.2667
  148SAPE  H12B16304   3.809   1.394  10.316  0.0632 -0.9978 -0.1410
  148SAPE   C1116305   3.591   1.343  10.278 -0.3753  0.1933  0.2691
  148SAPE  H11A16306   3.494   1.395  10.291 -0.5928 -0.0335 -0.3906
  148SAPE  H11B16307   3.589   1.242  10.326 -1.9943 -0.5098 -1.1827
  148SAPE     P16308   3.526   1.251  10.053 -0.1158 -0.2188 -0.2735
  148SAPE   O1316309   3.558   1.106  10.062  0.5410  0.0949 -0.0825
  148SAPE   O1416310   3.383   1.286  10.071 -0.6055 -0.1667  0.2501
  148SAPE   O1216311   3.622   1.335  10.135 -0.4264  0.0524 -0.1903
  148SAPE   O1116312   3.579   1.301   9.914 -0.3299  0.2129  0.0246
  148SAPE    C116313   3.489   1.346   9.808  0.0214 -0.2564 -0.1096
  148SAPE    HA16314   3.427   1.433   9.842  2.4757  1.2899  0.6539
  148SAPE    HB16315   3.550   1.389   9.726 -3.0778  0.3675 -2.2563
  148SAPE    C216316   3.395   1.247   9.749 -0.0650 -0.0890 -0.4582
  148SAPE    HS16317   3.332   1.214   9.835  0.8032 -0.5481  0.0216
  148SAPE   O2116318   3.473   1.136   9.700 -0.1392  0.0271  0.8076
  148SAPE   C2116319   3.405   1.021   9.671 -0.0138 -0.3723 -0.4353
  148SAPE   O2216320   3.292   1.000   9.710  0.0771  0.4446 -0.6645
  148SAPE   C2216321   3.502   0.926   9.607  1.0074  0.1245  0.2661
  148SAPE   H2R16322   3.574   0.985   9.546 -1.3976  3.2068  0.0968
  148SAPE   H2S16323   3.550   0.874   9.691 -0.9212 -0.6550  0.9487
  148SAPE    C316324   3.296   1.298   9.637  0.6491 -0.7473  0.3693
  148SAPE    HX16325   3.220   1.367   9.679  1.2130 -1.3158  2.4606
  148SAPE    HY16326   3.230   1.212   9.611  0.1378 -0.2657  0.0676
  148SAPE   O3116327   3.365   1.345   9.516  0.3353 -0.1085  0.1284
  148SAPE   C3116328   3.366   1.478   9.503 -0.3370  0.2317 -0.0426
  148SAPE   O3216329   3.300   1.555   9.569  0.0954  0.2054  0.0800
  148SAPE   C3216330   3.464   1.513   9.389  0.9234 -0.3240 -0.0116
  148SAPE   H2X16331   3.479   1.416   9.338  1.3853  0.8882 -2.3119
  148SAPE   H2Y16332   3.563   1.545   9.429 -0.5076  1.7217  2.2002
  148SAPE   C2316333   3.443   0.807   9.531 -0.4396  0.3451  0.0739
  148SAPE   H3R16334   3.352   0.766   9.578  0.7014 -3.3046 -0.5881
  148SAPE   H3S16335   3.517   0.724   9.529 -0.7348  0.0355  1.4038
  148SAPE   C2416336   3.427   0.843   9.387  0.9168 -0.3801 -0.2855
  148SAPE   H4R16337   3.432   0.745   9.334 -0.8540 -0.3649 -0.5229
  148SAPE   H4S16338   3.513   0.901   9.348 -1.8238  3.8337 -0.6869
  148SAPE   C2516339   3.303   0.916   9.352  0.1281 -0.2089 -0.1744
  148SAPE   H5R16340   3.207   0.868   9.378  0.2724 -0.0418  0.6922
  148SAPE   C2616341   3.284   1.038   9.302  0.1012 -0.2444  0.2796
  148SAPE   H6R16342   3.179   1.068   9.284  0.9032  1.2585 -2.5359
  148SAPE   C2716343   3.386   1.153   9.273  0.2153  0.1621 -0.5854
  148SAPE   H7R16344   3.450   1.157   9.363 -0.2682  0.1097 -0.2325
  148SAPE   H7S16345   3.339   1.253   9.266  1.2586  0.5466 -3.1773
  148SAPE   C2816346   3.481   1.140   9.159  0.3681  0.7450  1.2832
  148SAPE   H8R16347   3.561   1.070   9.187  0.6844  0.7037  0.3196
  148SAPE   C2916348   3.474   1.204   9.040 -0.6310 -0.3111  0.7247
  148SAPE   H9R16349   3.553   1.193   8.963  0.9572  1.2870  2.0232
  148SAPE  C21016350   3.360   1.294   8.998  0.3687 -0.4357 -0.0170
  148SAPE  H10R16351   3.351   1.367   9.081 -0.3130 -1.4183  0.7973
  148SAPE  H10S16352   3.263   1.239   8.996  1.3627 -2.3931  1.4037
  148SAPE  C21116353   3.371   1.372   8.867  0.3853  0.1171 -0.1329
  148SAPE  H11R16354   3.459   1.438   8.864  0.0230  0.5840 -0.5839
  148SAPE  C21216355   3.285   1.380   8.767 -0.3547  0.0001  0.6823
  148SAPE  H12R16356   3.305   1.439   8.677 -0.5059 -1.8648 -0.6099
  148SAPE  C21316357   3.152   1.301   8.749 -0.4821  0.3130  0.1408
  148SAPE  H13R16358   3.110   1.280   8.849 -0.5908  1.7653  0.4167
  148SAPE  H13S16359   3.172   1.201   8.704  2.1174  0.7691  0.1327
  148SAPE  C21416360   3.054   1.375   8.665  0.6148  0.1906 -0.7179
  148SAPE  H14R16361   3.004   1.462   8.710 -1.3077 -0.8574 -0.7238
  148SAPE  C21516362   2.987   1.326   8.560 -0.1262  0.0708 -0.4106
  148SAPE  H15R16363   2.907   1.388   8.516 -0.8760  0.2828  1.1917
  148SAPE  C21616364   3.028   1.207   8.485 -0.3870 -0.2590  0.5037
  148SAPE  H16R16365   3.011   1.117   8.548  0.9687 -0.2811  0.8702
  148SAPE  H16S16366   3.139   1.212   8.479 -0.4566  0.3664 -0.4292
  148SAPE  C21716367   2.959   1.196   8.345 -0.2550  0.8233  0.9714
  148SAPE  H17R16368   2.849   1.193   8.362 -0.0590 -0.9549  2.1163
  148SAPE  H17S16369   3.001   1.101   8.306  1.4675  1.7221  0.5747
  148SAPE  C21816370   3.000   1.310   8.252 -0.5082 -0.2022 -0.5962
  148SAPE  H18R16371   3.111   1.320   8.243 -0.3609 -0.2890  0.8988
  148SAPE  H18S16372   2.955   1.407   8.284 -0.1494  0.0451 -0.8285
  148SAPE  C21916373   2.941   1.294   8.113  0.7312  0.5558  0.5727
  148SAPE  H19R16374   2.832   1.282   8.130  0.7521 -1.4495 -0.4131
  148SAPE  H19S16375   2.969   1.191   8.081  0.0666 -0.1861  2.2339
  148SAPE  C22016376   2.970   1.395   8.005  0.9810 -0.1674 -0.4922
  148SAPE  H20R16377   3.079   1.393   7.984  1.7277  1.7402  2.5322
  148SAPE  H20S16378   2.933   1.495   8.037 -0.8731 -1.4606  1.7412
  148SAPE  H20T16379   2.911   1.361   7.918  0.3209 -1.6170  0.4820
  148SAPE   C3316380   3.424   1.621   9.283  0.0770 -0.0284 -0.8458
  148SAPE   H3X16381   3.319   1.648   9.305  0.3081 -2.1053  4.2127
  148SAPE   H3Y16382   3.433   1.579   9.181 -1.4203 -1.4914 -0.4133
  148SAPE   C3416383   3.503   1.746   9.295 -0.4912 -1.3494  0.0186
  148SAPE   H4X16384   3.601   1.737   9.243 -0.4530 -1.5484  0.1215
  148SAPE   H4Y16385   3.503   1.773   9.403 -1.8901 -1.4214  0.0539
  148SAPE   C3516386   3.435   1.866   9.235 -0.3637 -0.1305 -0.3388
  148SAPE   H5X16387   3.494   1.947   9.284  0.2460  0.8476 -2.5731
  148SAPE   H5Y16388   3.328   1.883   9.261 -1.5342 -3.5666 -2.3237
  148SAPE   C3616389   3.444   1.878   9.087 -0.3616  0.0719  1.1025
  148SAPE   H6X16390   3.388   1.797   9.036  3.3477 -1.8752 -0.2951
  148SAPE   H6Y16391   3.548   1.851   9.057 -0.5589  2.1214 -1.7798
  148SAPE   C3716392   3.387   2.006   9.022  0.3071 -0.3070  1.0802
  148SAPE   H7X16393   3.441   2.093   9.065  1.3089 -1.4183  2.1797
  148SAPE   H7Y16394   3.279   2.010   9.047  0.7287  0.6318  2.8742
  148SAPE   C3816395   3.405   2.005   8.867 -0.2511 -0.0171  0.2422
  148SAPE   H8X16396   3.511   1.997   8.834 -0.0778  1.5527  0.3628
  148SAPE   H8Y16397   3.370   2.098   8.818 -2.6477 -1.0680 -0.2050
  148SAPE   C3916398   3.333   1.892   8.796  0.5804  0.9268  0.5262
  148SAPE   H9X16399   3.229   1.885   8.834 -0.6918 -0.8621 -2.8379
  148SAPE   H9Y16400   3.373   1.794   8.828  0.4999  0.4658 -0.7330
  148SAPE  C31016401   3.329   1.903   8.647 -0.9486 -0.6817  0.3970
  148SAPE  H10X16402   3.429   1.926   8.605 -0.8148 -0.7996  0.6555
  148SAPE  H10Y16403   3.270   1.990   8.609  0.5172 -0.1112 -0.6294
  148SAPE  C31116404   3.274   1.780   8.578  0.1869  0.6309  1.1507
  148SAPE  H11X16405   3.168   1.766   8.606  0.2731 -0.1338  1.1195
  148SAPE  H11Y16406   3.323   1.683   8.602 -0.8643 -0.6943 -1.7180
  148SAPE  C31216407   3.278   1.789   8.426  0.4850 -0.5994 -0.0887
  148SAPE  H12X16408   3.378   1.756   8.389  0.6683 -1.3679  1.0482
  148SAPE  H12Y16409   3.265   1.898   8.410  1.2046 -0.5553 -0.4230
  148SAPE  C31316410   3.171   1.714   8.347  0.0251  0.3350 -0.0430
  148SAPE  H13X16411   3.074   1.724   8.400 -0.6744 -1.6097 -0.8475
  148SAPE  H13Y16412   3.215   1.614   8.366  0.2877  0.7368  1.6607
  148SAPE  C31416413   3.167   1.742   8.200 -0.4820  0.2207  0.6419
  148SAPE  H14X16414   3.135   1.846   8.180 -0.8846  0.7203  3.4558
  148SAPE  H14Y16415   3.095   1.676   8.147 -0.6534  0.6932  0.2754
  148SAPE  C31516416   3.296   1.690   8.129  0.2444  0.3654 -0.5107
  148SAPE  H15X16417   3.316   1.582   8.144 -0.3778  0.1828 -0.9470
  148SAPE  H15Y16418   3.377   1.748   8.178  0.0762 -0.1506  0.4123
  148SAPE  C31616419   3.301   1.716   7.981 -0.3267  0.1457  0.0212
  148SAPE  H16X16420   3.264   1.817   7.953  1.1581  0.6343 -0.2881
  148SAPE  H16Y16421   3.255   1.644   7.909  5.2858 -2.1381 -1.8632
  148SAPE  C31716422   3.452   1.716   7.929  0.4790 -0.2773  0.6936
  148SAPE  H17X16423   3.501   1.621   7.961  0.3017 -0.4721  0.4027
  148SAPE  H17Y16424   3.511   1.796   7.977 -2.3898  1.6687  1.1814
  148SAPE  C31816425   3.466   1.759   7.781 -0.4556 -0.3497 -0.1588
  148SAPE  H18X16426   3.390   1.706   7.719 -1.2178  0.7641 -0.1858
  148SAPE  H18Y16427   3.569   1.745   7.740 -0.1734 -4.6200  1.4265
  148SAPE  H18Z16428   3.431   1.863   7.769  0.3546 -0.2672 -2.3695
  149SAPE     N16429   7.126   3.859   9.888 -0.0413 -0.4112  0.1439
  149SAPE   HN116430   7.205   3.850   9.821 -0.7813  1.1301 -0.9971
  149SAPE   HN216431   7.035   3.827   9.848 -0.9010  0.3367  1.4236
  149SAPE   HN316432   7.115   3.961   9.905 -1.7689 -0.7806  1.4766
  149SAPE   C1216433   7.168   3.801  10.020 -0.4443  0.5547  0.1771
  149SAPE  H12A16434   7.103   3.844  10.099 -0.0696 -1.1498  1.4576
  149SAPE  H12B16435   7.272   3.824  10.053 -0.9138  0.6023  1.6698
  149SAPE   C1116436   7.164   3.640  10.017 -0.3081 -0.8932  0.0367
  149SAPE  H11A16437   7.061   3.601  10.003 -0.6840 -0.4880  1.4468
  149SAPE  H11B16438   7.197   3.605  10.118  1.4967  0.1069 -0.1688
  149SAPE     P16439   7.385   3.518   9.948  0.0411 -0.2562  0.1525
  149SAPE   O1316440   7.456   3.610  10.044 -0.7273  1.0522 -0.3476
  149SAPE   O1416441   7.346   3.386   9.997  0.5410  0.3121 -0.2428
  149SAPE   O1216442   7.251   3.587   9.913  0.2205  0.0510  0.0461
  149SAPE   O1116443   7.459   3.516   9.808 -0.2997 -0.5881  0.4490
  149SAPE    C116444   7.594   3.562   9.792 -0.6847 -0.0223  0.0188
  149SAPE    HA16445   7.607   3.600   9.688 -0.2155 -0.2209  0.0056
  149SAPE    HB16446   7.627   3.646   9.857 -1.7115 -0.0288  0.5613
  149SAPE    C216447   7.694   3.447   9.816  0.1497  0.2440 -0.4951
  149SAPE    HS16448   7.678   3.409   9.919 -2.8111 -1.7888 -1.5602
  149SAPE   O2116449   7.822   3.501   9.780  0.3829 -0.0172 -0.9180
  149SAPE   C2116450   7.915   3.409   9.809 -0.2492 -0.0155  0.1260
  149SAPE   O2216451   7.904   3.332   9.901  0.1151  0.0163 -0.8245
  149SAPE   C2216452   8.023   3.409   9.704 -0.0631 -0.4810 -0.1336
  149SAPE   H2R16453   7.984   3.425   9.601  0.0178  0.1961 -0.0612
  149SAPE   H2S16454   8.078   3.503   9.727  1.1516 -0.8572 -1.3825
  149SAPE    C316455   7.645   3.318   9.735 -0.3458  0.2369  0.0559
  149SAPE    HX16456   7.548   3.283   9.774  0.6911 -1.6798  1.0513
  149SAPE    HY16457   7.715   3.233   9.747  1.6746  1.6268 -1.0519
  149SAPE   O3116458   7.624   3.351   9.600  0.4693 -0.2507  0.0943
  149SAPE   C3116459   7.718   3.312   9.511  0.0691  0.1300 -0.3551
  149SAPE   O3216460   7.821   3.261   9.541 -0.8584  0.2788 -0.7550
  149SAPE   C3216461   7.674   3.341   9.365  0.6264  0.2345 -0.3290
  149SAPE   H2X16462   7.668   3.451   9.348  0.6217  0.2770 -0.0693
  149SAPE   H2Y16463   7.570   3.303   9.360  0.4321  0.8207 -0.8243
  149SAPE   C2316464   8.100   3.280   9.707  0.3949 -0.0368  1.1347
  149SAPE   H3R16465   8.042   3.191   9.674  0.1588 -0.6505  3.0739
  149SAPE   H3S16466   8.119   3.255   9.814 -2.6192 -0.0424  1.7739
  149SAPE   C2416467   8.226   3.295   9.625  0.8041 -0.1937  0.4888
  149SAPE   H4R16468   8.281   3.201   9.651 -2.4532 -2.5204 -0.3447
  149SAPE   H4S16469   8.275   3.386   9.666  0.7692 -0.7027  1.7241
  149SAPE   C2516470   8.201   3.302   9.476 -0.2476 -1.0441  0.6024
  149SAPE   H5R16471   8.113   3.360   9.445 -0.3775 -1.4499  0.1962
  149SAPE   C2616472   8.282   3.243   9.386 -0.3666 -0.0448  0.7000
  149SAPE   H6R16473   8.241   3.241   9.284 -0.2174 -1.2889  0.6500
  149SAPE   C2716474   8.409   3.168   9.403  0.0948 -0.2833 -0.0500
  149SAPE   H7R16475   8.428   3.169   9.512 -2.3960  0.2380  0.4323
  149SAPE   H7S16476   8.488   3.224   9.347 -1.3284 -1.3474 -3.4090
  149SAPE   C2816477   8.425   3.029   9.344  0.3349  0.3831 -1.0675
  149SAPE   H8R16478   8.465   2.957   9.417 -0.6641  1.0542  0.1945
  149SAPE   C2916479   8.408   2.975   9.220  0.0659 -0.1558 -0.2718
  149SAPE   H9R16480   8.445   2.872   9.207  1.4134 -0.2229  3.0840
  149SAPE  C21016481   8.360   3.043   9.091 -0.4824 -0.2331 -0.2267
  149SAPE  H10R16482   8.416   2.996   9.007  0.1714  1.4927 -0.7943
  149SAPE  H10S16483   8.388   3.150   9.099  1.2658 -0.6632 -0.1364
  149SAPE  C21116484   8.213   3.020   9.080  0.1307  0.1064  0.2934
  149SAPE  H11R16485   8.154   2.967   9.157 -1.4801  2.0838  0.4905
  149SAPE  C21216486   8.135   3.065   8.977  0.1650 -0.0422 -0.6148
  149SAPE  H12R16487   8.026   3.053   8.983  0.0839  0.6200 -0.7221
  149SAPE  C21316488   8.178   3.137   8.858  0.3268  0.3253 -0.0305
  149SAPE  H13R16489   8.113   3.105   8.774 -0.1595 -0.2560  0.5580
  149SAPE  H13S16490   8.278   3.092   8.837 -0.1036 -0.7913  0.2616
  149SAPE  C21416491   8.195   3.286   8.866  0.2623 -0.4882 -0.3870
  149SAPE  H14R16492   8.244   3.313   8.961 -1.5092  0.5250  0.2963
  149SAPE  C21516493   8.174   3.377   8.777  0.4039 -0.0336 -0.0876
  149SAPE  H15R16494   8.164   3.486   8.791 -0.4782 -0.2004  0.6901
  149SAPE  C21616495   8.105   3.345   8.647 -0.3066  0.3313 -0.0711
  149SAPE  H16R16496   7.999   3.378   8.650 -0.2389  0.5325  1.6328
  149SAPE  H16S16497   8.111   3.238   8.621  1.5819  0.2034  0.7035
  149SAPE  C21716498   8.176   3.420   8.535 -0.1605  0.4292 -0.3519
  149SAPE  H17R16499   8.287   3.425   8.532 -0.1214  0.0078  0.3041
  149SAPE  H17S16500   8.149   3.527   8.534  0.2588  0.5630 -2.6895
  149SAPE  C21816501   8.117   3.365   8.402 -0.6749 -0.6707 -0.3175
  149SAPE  H18R16502   8.009   3.389   8.398 -0.4657  0.3735  0.0957
  149SAPE  H18S16503   8.138   3.256   8.413  1.1401 -0.3701 -0.5631
  149SAPE  C21916504   8.198   3.413   8.275 -0.6257 -0.3726  0.2242
  149SAPE  H19R16505   8.303   3.379   8.283 -1.1265 -2.3851 -0.9745
  149SAPE  H19S16506   8.183   3.523   8.267 -0.2418 -0.2553  0.9988
  149SAPE  C22016507   8.137   3.366   8.144  0.0656 -0.0637 -0.6661
  149SAPE  H20R16508   8.143   3.256   8.128  1.8640 -0.2057  0.6940
  149SAPE  H20S16509   8.184   3.408   8.053  1.1222 -0.3129 -0.2482
  149SAPE  H20T16510   8.030   3.396   8.133 -0.2699 -0.1087  1.8877
  149SAPE   C3316511   7.770   3.287   9.252 -0.1070  0.0597 -0.2732
  149SAPE   H3X16512   7.819   3.193   9.284 -1.4521 -0.0841  1.5696
  149SAPE   H3Y16513   7.859   3.345   9.220  0.7102 -1.0689 -0.0782
  149SAPE   C3416514   7.683   3.264   9.125 -0.4070  0.6603  0.7603
  149SAPE   H4X16515   7.628   3.356   9.093 -1.4670 -1.0475 -2.9563
  149SAPE   H4Y16516   7.606   3.185   9.141  0.5882 -1.1819 -2.5370
  149SAPE   C3516517   7.773   3.215   9.009 -0.1727 -0.1232  0.4779
  149SAPE   H5X16518   7.804   3.111   9.033 -0.6429 -0.4412 -0.2563
  149SAPE   H5Y16519   7.856   3.288   9.001  0.9552 -1.2482  1.3790
  149SAPE   C3616520   7.706   3.222   8.874  0.2323  0.2616 -0.8285
  149SAPE   H6X16521   7.677   3.326   8.846 -1.2884  0.1926  0.3783
  149SAPE   H6Y16522   7.606   3.174   8.877 -0.5683  1.8521  1.9502
  149SAPE   C3716523   7.805   3.170   8.769 -0.5894  0.1279 -0.1475
  149SAPE   H7X16524   7.820   3.062   8.791  0.9500  0.3797  0.1141
  149SAPE   H7Y16525   7.905   3.218   8.775 -0.3000 -0.4679 -0.1898
  149SAPE   C3816526   7.749   3.172   8.623  0.1079 -0.2255 -0.5821
  149SAPE   H8X16527   7.748   3.277   8.588  0.7957  0.7288  2.0035
  149SAPE   H8Y16528   7.644   3.137   8.617 -0.6086  1.9874 -1.6105
  149SAPE   C3916529   7.839   3.093   8.526  0.5278  0.3357  0.1721
  149SAPE   H9X16530   7.873   3.012   8.594  0.3184  2.4859  3.0552
  149SAPE   H9Y16531   7.933   3.143   8.496  1.3914  0.6675  3.1243
  149SAPE  C31016532   7.759   3.042   8.403  0.0380 -0.2687  0.0683
  149SAPE  H10X16533   7.654   3.020   8.433  0.0689  0.9847  1.1819
  149SAPE  H10Y16534   7.817   2.949   8.386 -1.6374 -1.1087 -1.3400
  149SAPE  C31116535   7.777   3.136   8.279  0.2420  0.1897  0.2471
  149SAPE  H11X16536   7.881   3.171   8.290  0.3324 -0.2063  0.6753
  149SAPE  H11Y16537   7.705   3.220   8.288  0.5018  0.3763  0.6471
  149SAPE  C31216538   7.742   3.061   8.143  0.1781 -0.4289 -0.3254
  149SAPE  H12X16539   7.729   3.136   8.062 -0.7557 -0.1292  0.0920
  149SAPE  H12Y16540   7.649   3.001   8.147  0.1009 -0.3882 -1.2747
  149SAPE  C31316541   7.857   2.966   8.081  0.6489  0.1478  0.0929
  149SAPE  H13X16542   7.879   2.888   8.157 -2.8270 -0.4728  0.6346
  149SAPE  H13Y16543   7.950   3.020   8.054  1.2950 -2.0247 -2.3764
  149SAPE  C31416544   7.807   2.899   7.948 -0.2707  0.2395 -0.7459
  149SAPE  H14X16545   7.767   2.979   7.883  0.0314  1.4629  0.5371
  149SAPE  H14Y16546   7.720   2.834   7.971 -0.8282  0.7147 -1.4550
  149SAPE  C31516547   7.926   2.824   7.874 -0.0140 -0.1331 -0.8904
  149SAPE  H15X16548   8.007   2.898   7.857  2.0256 -1.7752  1.0242
  149SAPE  H15Y16549   7.884   2.803   7.773  0.1362 -2.4002 -0.5541
  149SAPE  C31616550   7.970   2.690   7.930 -0.6117 -0.1821  0.1997
  149SAPE  H16X16551   7.882   2.622   7.932 -1.6617  1.1650  0.8023
  149SAPE  H16Y16552   8.016   2.698   8.031 -1.2571 -1.6176  0.6443
  149SAPE  C31716553   8.070   2.632   7.834  0.0468 -0.5154 -0.3548
  149SAPE  H17X16554   8.155   2.704   7.836 -0.0729 -0.3091 -1.7002
  149SAPE  H17Y16555   8.032   2.622   7.730 -3.0634 -1.4818  0.7782
  149SAPE  C31816556   8.123   2.493   7.878 -0.0268 -0.4300 -0.5870
  149SAPE  H18X16557   8.149   2.509   7.985  1.4924  2.9003 -1.3127
  149SAPE  H18Y16558   8.224   2.488   7.833  1.2966  0.1529  2.0965
  149SAPE  H18Z16559   8.055   2.407   7.863  0.6122 -0.6639 -2.3816
  150SAPE     N16560   2.269   1.288  10.008  0.1983  0.1928 -0.3587
  150SAPE   HN116561   2.191   1.355  10.021 -0.3877 -0.2644 -1.4315
  150SAPE   HN216562   2.232   1.200   9.968 -0.5129  1.1512 -1.9226
  150SAPE   HN316563   2.302   1.278  10.106 -1.1885  0.1838  0.1276
  150SAPE   C1216564   2.380   1.338   9.923  0.9989  0.0960 -0.1263
  150SAPE  H12A16565   2.463   1.267   9.904  2.4063  2.1201 -1.9439
  150SAPE  H12B16566   2.410   1.432   9.974 -2.0643  1.4868 -0.6343
  150SAPE   C1116567   2.316   1.393   9.789  0.9247  0.2559  0.5209
  150SAPE  H11A16568   2.405   1.424   9.731  0.9121 -0.5185  0.0757
  150SAPE  H11B16569   2.247   1.473   9.826  0.2407 -0.9527  1.9690
  150SAPE     P16570   2.168   1.337   9.586 -0.3261 -0.1213  0.1107
  150SAPE   O1316571   2.112   1.222   9.505  0.9696  0.0703  0.5655
  150SAPE   O1416572   2.070   1.444   9.623 -0.0159  0.0544  0.1133
  150SAPE   O1216573   2.241   1.293   9.718 -0.2899  0.5889 -0.1613
  150SAPE   O1116574   2.280   1.408   9.502  0.0959 -0.4915  0.1111
  150SAPE    C116575   2.247   1.503   9.400  0.5236  0.0555  0.7620
  150SAPE    HA16576   2.143   1.542   9.409  0.5087  0.1999  0.0247
  150SAPE    HB16577   2.327   1.580   9.411  2.7340 -2.0580  0.3078
  150SAPE    C216578   2.257   1.439   9.260 -0.1077 -0.2020 -0.8135
  150SAPE    HS16579   2.188   1.352   9.264 -0.6070  0.2197  0.0273
  150SAPE   O2116580   2.392   1.399   9.238 -0.0034  0.3856 -0.6075
  150SAPE   C2116581   2.418   1.320   9.143  0.1354  0.5286  0.4167
  150SAPE   O2216582   2.344   1.246   9.078  0.0376  0.5856  0.1234
  150SAPE   C2216583   2.571   1.299   9.147  0.7049 -0.6962  0.5427
  150SAPE   H2R16584   2.619   1.397   9.168 -0.2238  0.1221 -0.9933
  150SAPE   H2S16585   2.584   1.236   9.238 -0.5532  0.0100  1.2273
  150SAPE    C316586   2.191   1.532   9.151  0.7004 -0.1093 -0.0879
  150SAPE    HX16587   2.237   1.633   9.162 -1.1410  0.7305  0.2730
  150SAPE    HY16588   2.086   1.560   9.172  0.8699  0.5826 -0.1459
  150SAPE   O3116589   2.213   1.494   9.019 -0.0491  0.1967 -0.9016
  150SAPE   C3116590   2.113   1.421   8.956  0.1567  0.2347  0.1408
  150SAPE   O3216591   1.995   1.413   8.997 -0.7294  0.3127  0.0647
  150SAPE   C3216592   2.167   1.374   8.822 -0.0253  0.1690 -0.3600
  150SAPE   H2X16593   2.246   1.296   8.826 -0.9921 -0.8306 -0.4888
  150SAPE   H2Y16594   2.217   1.464   8.781  0.6636  0.2309  0.5683
  150SAPE   C2316595   2.627   1.239   9.015  0.4049  0.1277  0.0218
  150SAPE   H3R16596   2.564   1.153   8.985 -0.6002  0.8917 -0.0744
  150SAPE   H3S16597   2.737   1.222   9.025  0.4530 -1.2410 -2.1410
  150SAPE   C2416598   2.612   1.340   8.899 -0.0108 -0.9912 -0.3739
  150SAPE   H4R16599   2.649   1.436   8.941 -0.9388  0.5805 -2.9265
  150SAPE   H4S16600   2.507   1.362   8.871 -0.2302 -1.1705  0.2743
  150SAPE   C2516601   2.689   1.305   8.783  0.5893 -0.1966 -0.4435
  150SAPE   H5R16602   2.797   1.282   8.782  0.5947 -0.3556 -2.8369
  150SAPE   C2616603   2.636   1.279   8.661  0.0437  0.1580 -0.1442
  150SAPE   H6R16604   2.701   1.258   8.574  0.4274  2.0601 -0.3524
  150SAPE   C2716605   2.492   1.279   8.616 -0.7205  0.2108 -0.0916
  150SAPE   H7R16606   2.427   1.277   8.706 -0.5651  1.7245  0.0819
  150SAPE   H7S16607   2.472   1.189   8.554  4.0603  0.6249 -2.7353
  150SAPE   C2816608   2.483   1.401   8.535 -0.0174  0.3457  0.6223
  150SAPE   H8R16609   2.508   1.495   8.587 -1.1976  0.7575  0.4865
  150SAPE   C2916610   2.433   1.401   8.407  0.5533  0.5071  0.0143
  150SAPE   H9R16611   2.426   1.501   8.362 -1.2875  0.9920  1.2774
  150SAPE  C21016612   2.378   1.283   8.327 -0.0255 -0.0073 -0.4286
  150SAPE  H10R16613   2.309   1.328   8.252  0.5471 -1.6528 -2.0224
  150SAPE  H10S16614   2.318   1.213   8.390  1.0714 -1.2009 -0.6641
  150SAPE  C21116615   2.491   1.214   8.250  0.3390 -0.1440 -0.0409
  150SAPE  H11R16616   2.512   1.116   8.296  0.8134  0.0132  0.0845
  150SAPE  C21216617   2.538   1.236   8.124 -0.2393  0.2659 -0.1295
  150SAPE  H12R16618   2.623   1.174   8.091 -0.1989  0.3657 -0.2134
  150SAPE  C21316619   2.476   1.341   8.035  0.9917 -0.2590  0.2541
  150SAPE  H13R16620   2.547   1.418   7.998 -1.5332  1.1142 -2.0887
  150SAPE  H13S16621   2.403   1.409   8.083  1.9422  0.2450  1.0095
  150SAPE  C21416622   2.392   1.280   7.918 -0.6554  0.7170 -0.5569
  150SAPE  H14R16623   2.366   1.174   7.922  0.9829  0.2696 -1.0886
  150SAPE  C21516624   2.392   1.333   7.794  1.2592  0.3240  0.4532
  150SAPE  H15R16625   2.349   1.272   7.713  1.2098  1.4088 -0.3547
  150SAPE  C21616626   2.438   1.466   7.743  0.4311  0.2023 -0.3983
  150SAPE  H16R16627   2.444   1.535   7.830 -0.4593  0.2453 -0.3649
  150SAPE  H16S16628   2.356   1.507   7.682 -2.0537 -1.5806  1.5441
  150SAPE  C21716629   2.559   1.475   7.653 -0.0390  0.0412  0.2540
  150SAPE  H17R16630   2.638   1.426   7.713 -1.1703 -0.5335  1.3245
  150SAPE  H17S16631   2.577   1.584   7.635 -0.9648 -0.0276 -1.2644
  150SAPE  C21816632   2.554   1.413   7.513  0.3537  0.3305  0.7940
  150SAPE  H18R16633   2.465   1.456   7.464 -0.5443 -2.4630 -0.2357
  150SAPE  H18S16634   2.544   1.302   7.506 -0.5450  0.4064  0.8445
  150SAPE  C21916635   2.668   1.463   7.419  0.7559  0.0028 -0.5711
  150SAPE  H19R16636   2.763   1.435   7.470 -0.0015 -0.8617  0.4147
  150SAPE  H19S16637   2.659   1.571   7.395  3.5672  0.2438 -0.8253
  150SAPE  C22016638   2.666   1.388   7.285  0.6885 -0.2063 -0.5938
  150SAPE  H20R16639   2.700   1.283   7.302  0.0876 -0.3749 -0.4048
  150SAPE  H20S16640   2.732   1.435   7.209  1.2400 -1.6358 -1.0439
  150SAPE  H20T16641   2.561   1.377   7.252  1.2955 -0.3824 -2.6201
  150SAPE   C3316642   2.060   1.317   8.731  0.5254  0.1248  0.0638
  150SAPE   H3X16643   2.111   1.304   8.633  0.9155 -0.1070  0.2936
  150SAPE   H3Y16644   1.978   1.389   8.713 -1.1248 -1.8185 -0.5565
  150SAPE   C3416645   2.016   1.178   8.768  0.5783 -0.3573 -0.9309
  150SAPE   H4X16646   1.946   1.189   8.854  1.5441  3.2305 -0.4400
  150SAPE   H4Y16647   2.106   1.117   8.787  2.7997  2.0016 -3.1499
  150SAPE   C3516648   1.921   1.112   8.659 -0.2556 -0.2884 -0.5569
  150SAPE   H5X16649   1.859   1.193   8.615  0.3965  0.8949  0.6025
  150SAPE   H5Y16650   1.859   1.028   8.697 -1.4662  1.2081  0.9644
  150SAPE   C3616651   2.004   1.040   8.549  0.9371 -0.4044  0.0076
  150SAPE   H6X16652   2.068   0.966   8.601 -2.0075 -2.3641  1.0796
  150SAPE   H6Y16653   2.069   1.102   8.482 -0.4285  0.2631 -0.7376
  150SAPE   C3716654   1.907   0.969   8.460  0.3413 -0.2495  0.0318
  150SAPE   H7X16655   1.844   1.049   8.415  2.1435  0.0936 -2.0314
  150SAPE   H7Y16656   1.850   0.906   8.531 -0.5571  1.6055  1.0105
  150SAPE   C3816657   1.974   0.879   8.351  0.2821  0.9745  0.4956
  150SAPE   H8X16658   1.878   0.857   8.299 -1.1902 -2.6684  4.2273
  150SAPE   H8Y16659   2.030   0.797   8.400 -0.2823  0.6666  0.6223
  150SAPE   C3916660   2.060   0.946   8.240 -0.2574 -0.4962 -0.4295
  150SAPE   H9X16661   2.097   0.870   8.167  2.1015  0.4696 -0.3213
  150SAPE   H9Y16662   2.153   0.994   8.277 -0.2218 -0.3281 -0.7376
  150SAPE  C31016663   1.979   1.057   8.182  0.2967 -0.5822 -0.0781
  150SAPE  H10X16664   1.959   1.134   8.260  2.5132  1.1983 -1.1193
  150SAPE  H10Y16665   1.879   1.033   8.141  0.0516  0.7980 -0.3622
  150SAPE  C31116666   2.063   1.118   8.064  0.7733 -0.5119  0.2014
  150SAPE  H11X16667   2.167   1.147   8.089  0.5199 -0.3044  1.0338
  150SAPE  H11Y16668   2.008   1.206   8.025  0.1475 -0.6808  0.6918
  150SAPE  C31216669   2.070   1.016   7.947  0.2029  0.5168  0.2347
  150SAPE  H12X16670   1.978   0.954   7.947  0.3876  0.2408  0.3503
  150SAPE  H12Y16671   2.150   0.940   7.959  0.1915 -0.1273 -2.9128
  150SAPE  C31316672   2.061   1.080   7.811 -0.0668 -0.0524 -0.0109
  150SAPE  H13X16673   2.156   1.131   7.784 -0.8514  0.7678 -1.3119
  150SAPE  H13Y16674   1.990   1.165   7.799  1.0750  0.9452  0.0790
  150SAPE  C31416675   2.038   0.977   7.699 -0.2567 -0.8328 -0.2120
  150SAPE  H14X16676   1.929   0.964   7.679 -1.3693  3.9983  1.2248
  150SAPE  H14Y16677   2.063   0.879   7.744 -1.7691 -0.3066  1.9795
  150SAPE  C31516678   2.100   1.008   7.565 -0.2767 -0.6971  0.2529
  150SAPE  H15X16679   2.086   0.918   7.501  0.4065  1.0296 -2.5290
  150SAPE  H15Y16680   2.210   1.022   7.572 -0.0857 -1.5641 -0.7238
  150SAPE  C31616681   2.031   1.135   7.503 -0.4474  0.3066 -0.1810
  150SAPE  H16X16682   2.059   1.231   7.553 -1.8288  0.8089 -0.3041
  150SAPE  H16Y16683   1.921   1.123   7.520 -0.1190 -0.3020  1.9020
  150SAPE  C31716684   2.061   1.167   7.353  0.1743 -0.6256 -0.2392
  150SAPE  H17X16685   2.040   1.272   7.323  2.1488 -0.4570 -1.1426
  150SAPE  H17Y16686   2.001   1.105   7.281 -1.0631 -0.0570  0.2764
  150SAPE  C31816687   2.205   1.167   7.301 -0.2955  1.1207 -0.2391
  150SAPE  H18X16688   2.275   1.107   7.363 -1.2353 -1.6303 -1.6759
  150SAPE  H18Y16689   2.242   1.270   7.285  1.8491  0.3984 -0.2437
  150SAPE  H18Z16690   2.214   1.116   7.203 -0.6238  0.7162 -0.0662
  151SAPE     N16691   6.143   5.819   9.744  0.4987 -0.3161 -0.5722
  151SAPE   HN116692   6.093   5.907   9.769 -3.5484 -3.6293  5.5395
  151SAPE   HN216693   6.089   5.758   9.807  0.0591  2.0751  1.5333
  151SAPE   HN316694   6.242   5.814   9.776 -0.4508 -2.8751  2.4092
  151SAPE   C1216695   6.137   5.792   9.598 -0.1116 -0.5533  0.0085
  151SAPE  H12A16696   6.227   5.843   9.557  0.5282  0.2187  2.2436
  151SAPE  H12B16697   6.040   5.829   9.558 -0.2034 -0.5374  0.2464
  151SAPE   C1116698   6.135   5.640   9.572 -0.3208  0.1495  0.5221
  151SAPE  H11A16699   6.124   5.616   9.464  0.7942 -0.2182  0.4762
  151SAPE  H11B16700   6.039   5.601   9.612  0.3669 -0.8640  1.2227
  151SAPE     P16701   6.379   5.535   9.541 -0.1282  0.0200 -0.6018
  151SAPE   O1316702   6.454   5.661   9.514  1.2468  0.6000  0.0501
  151SAPE   O1416703   6.453   5.440   9.626 -0.1554  0.0823 -0.0355
  151SAPE   O1216704   6.247   5.575   9.620 -0.5212 -0.3559  0.0674
  151SAPE   O1116705   6.325   5.452   9.416  0.2897 -0.1816 -0.0056
  151SAPE    C116706   6.405   5.377   9.318 -0.2043  0.5557 -0.5634
  151SAPE    HA16707   6.486   5.443   9.280  0.0774  0.5908  0.0856
  151SAPE    HB16708   6.457   5.293   9.369  2.4949  3.0713  1.2296
  151SAPE    C216709   6.325   5.332   9.187 -0.1922  0.3363 -0.2535
  151SAPE    HS16710   6.249   5.412   9.174 -0.0097  0.9080  1.7356
  151SAPE   O2116711   6.258   5.219   9.232  0.1492  0.0386  0.5735
  151SAPE   C2116712   6.146   5.185   9.156 -0.0135  0.0844  0.8313
  151SAPE   O2216713   6.107   5.249   9.062  0.0059  0.5170  0.0703
  151SAPE   C2216714   6.068   5.077   9.225  0.4048 -0.3776 -0.3141
  151SAPE   H2R16715   6.122   4.982   9.204 -3.0853 -2.5613 -0.2894
  151SAPE   H2S16716   6.073   5.109   9.331 -1.1107 -2.1390  0.3427
  151SAPE    C316717   6.416   5.306   9.056 -0.2270  0.3340  0.1946
  151SAPE    HX16718   6.451   5.410   9.037 -2.2058  1.0045  0.0061
  151SAPE    HY16719   6.363   5.280   8.962  0.5933  0.5204 -0.3339
  151SAPE   O3116720   6.524   5.215   9.086  0.3531 -0.6285 -0.6196
  151SAPE   C3116721   6.592   5.191   8.983 -0.3994  0.0400  0.1808
  151SAPE   O3216722   6.586   5.248   8.875  0.5536  0.4789  0.1967
  151SAPE   C3216723   6.684   5.075   9.015  0.2182  0.8511  0.0350
  151SAPE   H2X16724   6.736   5.095   9.111 -1.2884 -2.1375  1.6240
  151SAPE   H2Y16725   6.760   5.064   8.934  1.8379 -0.2854  1.6093
  151SAPE   C2316726   5.923   5.071   9.179 -0.1461 -0.2771 -0.8855
  151SAPE   H3R16727   5.928   5.021   9.080  1.6050 -0.4645 -0.7228
  151SAPE   H3S16728   5.869   5.168   9.174 -0.8410 -0.6234 -0.3166
  151SAPE   C2416729   5.825   4.988   9.274 -0.7351 -0.4494  0.4575
  151SAPE   H4R16730   5.727   4.973   9.223 -0.7488 -0.3701  0.4593
  151SAPE   H4S16731   5.810   5.045   9.369 -0.3770 -1.1049  0.9185
  151SAPE   C2516732   5.882   4.857   9.319  0.0155  0.1058  0.5666
  151SAPE   H5R16733   5.958   4.851   9.398 -0.3822 -1.2609  0.8832
  151SAPE   C2616734   5.845   4.738   9.267 -0.4513  0.1307  0.0521
  151SAPE   H6R16735   5.895   4.647   9.302  0.4094 -0.3145 -2.1801
  151SAPE   C2716736   5.748   4.715   9.158  0.2473  0.8852  0.1590
  151SAPE   H7R16737   5.795   4.650   9.081  0.1089  1.9370 -0.8387
  151SAPE   H7S16738   5.721   4.805   9.099 -1.9788 -1.0485 -1.9896
  151SAPE   C2816739   5.629   4.647   9.209  0.9981 -0.3179 -0.2849
  151SAPE   H8R16740   5.641   4.577   9.294  0.2606  1.6676  1.5317
  151SAPE   C2916741   5.504   4.650   9.161  0.1238 -0.1354  0.2073
  151SAPE   H9R16742   5.419   4.606   9.214  0.0537 -1.8211 -1.1996
  151SAPE  C21016743   5.454   4.738   9.051 -0.3418  0.1605 -0.1624
  151SAPE  H10R16744   5.366   4.687   9.005 -0.9441 -1.3470  2.4741
  151SAPE  H10S16745   5.535   4.734   8.976  0.3331 -0.9159  0.6011
  151SAPE  C21116746   5.411   4.879   9.092 -0.0826 -0.4069  1.0324
  151SAPE  H11R16747   5.357   4.900   9.185 -1.4520 -0.1211  0.1992
  151SAPE  C21216748   5.469   4.980   9.031  0.2124 -0.4070  0.0194
  151SAPE  H12R16749   5.423   5.077   9.057 -0.2188 -0.9349  1.2724
  151SAPE  C21316750   5.568   4.996   8.918  0.1688  0.4135 -0.4774
  151SAPE  H13R16751   5.667   4.953   8.943  1.0642  2.1582 -0.8406
  151SAPE  H13S16752   5.576   5.106   8.903  0.4954  0.4443 -0.0885
  151SAPE  C21416753   5.508   4.930   8.794  0.5943 -1.1023 -0.0207
  151SAPE  H14R16754   5.405   4.892   8.800  0.0658  0.4684  1.3820
  151SAPE  C21516755   5.554   4.949   8.667 -0.1768  0.7590 -1.2827
  151SAPE  H15R16756   5.497   4.905   8.584 -1.2943 -1.8254  0.7206
  151SAPE  C21616757   5.668   5.035   8.631 -0.7908 -0.1873  1.3785
  151SAPE  H16R16758   5.745   4.969   8.585  0.0452  1.1006  0.8897
  151SAPE  H16S16759   5.717   5.091   8.713 -0.2242 -0.4810  1.2491
  151SAPE  C21716760   5.637   5.143   8.516 -0.2207  0.2969 -0.1272
  151SAPE  H17R16761   5.727   5.208   8.514 -0.9984  1.4005 -2.4405
  151SAPE  H17S16762   5.549   5.206   8.543  0.5519  2.1711 -1.7556
  151SAPE  C21816763   5.624   5.077   8.381 -0.9805 -0.6375 -0.1607
  151SAPE  H18R16764   5.536   5.009   8.384  0.4843 -2.5848  1.0523
  151SAPE  H18S16765   5.713   5.016   8.357  0.0751  0.7123  0.1807
  151SAPE  C21916766   5.621   5.176   8.269  0.5944  0.3746  0.3276
  151SAPE  H19R16767   5.602   5.122   8.173  3.8596 -0.9998  0.3121
  151SAPE  H19S16768   5.720   5.225   8.257 -0.6453  2.7419 -1.0032
  151SAPE  C22016769   5.520   5.291   8.297  0.0984 -0.2430  0.2218
  151SAPE  H20R16770   5.422   5.260   8.339 -1.7993 -0.0211 -3.6500
  151SAPE  H20S16771   5.501   5.353   8.207 -0.4858 -1.1613 -0.3003
  151SAPE  H20T16772   5.556   5.356   8.380  2.4067 -2.6851  1.2919
  151SAPE   C3316773   6.612   4.938   9.028  0.8247  0.3479  0.5235
  151SAPE   H3X16774   6.552   4.947   9.121 -3.2804  3.1491 -2.0717
  151SAPE   H3Y16775   6.687   4.856   9.037 -0.7950 -1.3981 -1.0635
  151SAPE   C3416776   6.517   4.905   8.912 -0.0435  0.8576  0.1826
  151SAPE   H4X16777   6.439   4.984   8.914  0.6582  1.5937  3.0513
  151SAPE   H4Y16778   6.473   4.804   8.928  1.9920  0.0156  0.8462
  151SAPE   C3516779   6.584   4.911   8.772  0.8609  1.1846 -0.1331
  151SAPE   H5X16780   6.599   5.016   8.740 -0.0117  1.0656 -0.9763
  151SAPE   H5Y16781   6.505   4.864   8.710 -1.0933  0.8859  2.4314
  151SAPE   C3616782   6.712   4.830   8.757  0.7801  0.1915 -0.2831
  151SAPE   H6X16783   6.700   4.727   8.797 -0.5705  0.8387  1.1028
  151SAPE   H6Y16784   6.792   4.873   8.820  0.2369 -1.4042  1.5851
  151SAPE   C3716785   6.763   4.820   8.607  0.0989  0.4708  1.1899
  151SAPE   H7X16786   6.689   4.754   8.557 -0.9071  2.3657  0.0582
  151SAPE   H7Y16787   6.857   4.763   8.623  0.2647  1.1917  3.1186
  151SAPE   C3816788   6.801   4.946   8.540 -0.9989  0.2453  0.0907
  151SAPE   H8X16789   6.900   4.981   8.576 -1.0149 -0.4775  0.8659
  151SAPE   H8Y16790   6.729   5.029   8.558 -2.3999 -1.1047  0.8460
  151SAPE   C3916791   6.815   4.928   8.384 -0.1739  0.3032  0.2719
  151SAPE   H9X16792   6.882   4.843   8.360  0.0598 -0.2363  2.6454
  151SAPE   H9Y16793   6.864   5.019   8.342  0.3559  0.3399  0.9496
  151SAPE  C31016794   6.675   4.921   8.316 -0.0759 -0.3753 -1.2320
  151SAPE  H10X16795   6.618   5.004   8.363  0.5487 -0.1271 -0.8975
  151SAPE  H10Y16796   6.618   4.832   8.350 -1.2953  1.7241  2.7792
  151SAPE  C31116797   6.670   4.928   8.162 -0.5315  0.2921  0.3492
  151SAPE  H11X16798   6.718   4.831   8.134 -1.9953 -0.6569  1.0020
  151SAPE  H11Y16799   6.731   5.015   8.128  0.5130 -0.5369  0.0202
  151SAPE  C31216800   6.528   4.921   8.114  1.2730 -0.2227 -0.8411
  151SAPE  H12X16801   6.468   4.848   8.172 -1.0763  1.6168 -0.7870
  151SAPE  H12Y16802   6.528   4.890   8.008  1.3479 -1.3228 -0.5335
  151SAPE  C31316803   6.464   5.059   8.117  0.0171 -0.1706 -0.1863
  151SAPE  H13X16804   6.543   5.130   8.085 -0.3914  0.5220  0.3140
  151SAPE  H13Y16805   6.438   5.086   8.221  1.1025  0.3711 -0.0474
  151SAPE  C31416806   6.330   5.065   8.032  0.0931  0.2371  0.1807
  151SAPE  H14X16807   6.364   5.039   7.930  1.4581 -0.9619  0.8985
  151SAPE  H14Y16808   6.291   5.169   8.036  0.9739  0.5995 -0.4360
  151SAPE  C31516809   6.221   4.980   8.092  0.1352  0.1030  0.2458
  151SAPE  H15X16810   6.237   4.872   8.071 -0.2695  0.0572  0.1698
  151SAPE  H15Y16811   6.130   5.004   8.033  0.0240  0.3994  0.5376
  151SAPE  C31616812   6.182   4.997   8.238  0.6304  0.2767 -0.8017
  151SAPE  H16X16813   6.264   4.966   8.307 -0.3603 -3.0630 -0.9507
  151SAPE  H16Y16814   6.093   4.934   8.260  0.6095  1.1958  2.1897
  151SAPE  C31716815   6.131   5.137   8.286  0.0321  0.0567  0.6759
  151SAPE  H17X16816   6.217   5.207   8.295 -0.2390  1.1332 -3.3501
  151SAPE  H17Y16817   6.097   5.129   8.392 -0.0112  3.2382  1.0247
  151SAPE  C31816818   6.018   5.196   8.201 -0.0600  0.4725 -0.3259
  151SAPE  H18X16819   5.991   5.295   8.243 -4.2730  0.0864 -1.6467
  151SAPE  H18Y16820   5.921   5.142   8.197  0.9573 -1.3528 -1.5492
  151SAPE  H18Z16821   6.053   5.214   8.097 -0.9417  1.0187 -0.5368
  152SAPE     N16822   6.796   5.060  10.160  0.1952 -0.2465  0.5691
  152SAPE   HN116823   6.729   5.092  10.088  1.6586  0.6102 -0.4572
  152SAPE   HN216824   6.739   5.020  10.237  1.7648  1.1109  2.5561
  152SAPE   HN316825   6.847   5.143  10.196  1.4361 -1.2444  1.1800
  152SAPE   C1216826   6.877   4.947  10.102  0.2294 -1.2670 -0.3589
  152SAPE  H12A16827   6.808   4.886  10.039 -1.1226 -0.9054  0.7134
  152SAPE  H12B16828   6.920   4.892  10.189  1.1000  0.9444  0.6942
  152SAPE   C1116829   6.993   5.016  10.025 -0.0548  0.0569  1.0838
  152SAPE  H11A16830   6.939   5.072   9.946  1.6308 -0.4426 -0.4968
  152SAPE  H11B16831   7.049   4.936   9.972 -0.3350  0.9845 -0.6879
  152SAPE     P16832   7.158   5.216  10.050  0.0812  0.0961 -0.2001
  152SAPE   O1316833   7.077   5.323   9.993  0.1665 -0.3831 -0.0776
  152SAPE   O1416834   7.266   5.269  10.136  0.0946  0.5508  0.1250
  152SAPE   O1216835   7.066   5.104  10.118 -0.2338 -0.4819  0.5646
  152SAPE   O1116836   7.227   5.133   9.937 -0.3912 -0.2215  0.6528
  152SAPE    C116837   7.249   5.198   9.809  0.0402 -1.2220 -0.1230
  152SAPE    HA16838   7.148   5.217   9.767 -0.4743  0.9208  1.8767
  152SAPE    HB16839   7.298   5.297   9.822  0.2880 -1.4073  0.3721
  152SAPE    C216840   7.325   5.106   9.721 -0.2128  0.3494  0.1805
  152SAPE    HS16841   7.432   5.096   9.750 -0.3023 -0.8199  0.1724
  152SAPE   O2116842   7.316   5.161   9.588  0.1601 -0.0352  0.8166
  152SAPE   C2116843   7.411   5.244   9.556 -0.0540  0.1261  0.6598
  152SAPE   O2216844   7.495   5.290   9.632 -0.3714  0.4034  0.1405
  152SAPE   C2216845   7.385   5.287   9.406 -0.2751 -0.1675 -0.1401
  152SAPE   H2R16846   7.312   5.217   9.361 -1.2351  1.0645 -0.5580
  152SAPE   H2S16847   7.337   5.385   9.424  1.5165  0.5588  0.9896
  152SAPE    C316848   7.262   4.963   9.715 -0.3199  0.4488 -0.7997
  152SAPE    HX16849   7.161   4.970   9.669  0.0659  2.6203 -1.3929
  152SAPE    HY16850   7.244   4.931   9.820 -0.7508 -2.2929 -1.6253
  152SAPE   O3116851   7.347   4.861   9.655 -0.2186 -0.1900 -0.0491
  152SAPE   C3116852   7.317   4.832   9.529 -0.4830  0.2951 -0.1491
  152SAPE   O3216853   7.216   4.862   9.470  0.3198  0.1571  0.0740
  152SAPE   C3216854   7.441   4.766   9.461  0.0834  0.9497  0.0313
  152SAPE   H2X16855   7.431   4.659   9.490  0.0791 -0.1147 -3.4105
  152SAPE   H2Y16856   7.536   4.806   9.502  2.1047 -1.5825 -1.8300
  152SAPE   C2316857   7.524   5.281   9.336  0.1044  0.0185  0.5484
  152SAPE   H3R16858   7.597   5.334   9.400 -0.2292  0.8555  0.2514
  152SAPE   H3S16859   7.511   5.329   9.237  0.3434 -3.3810 -1.2793
  152SAPE   C2416860   7.574   5.133   9.314  0.4056 -0.7638 -0.6612
  152SAPE   H4R16861   7.495   5.081   9.254  0.4486 -2.9323  1.0207
  152SAPE   H4S16862   7.597   5.072   9.404  4.6564 -0.2639 -1.2218
  152SAPE   C2516863   7.707   5.154   9.242  0.7179  1.2557 -0.5186
  152SAPE   H5R16864   7.792   5.163   9.311  0.6548 -0.0388 -0.2503
  152SAPE   C2616865   7.726   5.151   9.104  0.8208  0.2865 -1.0013
  152SAPE   H6R16866   7.823   5.193   9.071  1.3433  0.5754  0.8071
  152SAPE   C2716867   7.621   5.104   8.998  0.1965 -0.3559  0.0943
  152SAPE   H7R16868   7.528   5.161   9.019  0.8695  1.4210 -1.4531
  152SAPE   H7S16869   7.599   4.995   9.007 -3.5215  0.2815  0.0113
  152SAPE   C2816870   7.672   5.137   8.857 -0.5320  0.0815  0.3822
  152SAPE   H8R16871   7.728   5.231   8.847  0.4224 -0.2394  2.2117
  152SAPE   C2916872   7.646   5.081   8.739  1.3296  0.5367 -0.0471
  152SAPE   H9R16873   7.674   5.141   8.651 -0.4683  2.9189  0.8717
  152SAPE  C21016874   7.555   4.967   8.722  0.4691  0.4344 -0.3942
  152SAPE  H10R16875   7.460   5.021   8.700  0.7620  2.0911  2.0850
  152SAPE  H10S16876   7.534   4.923   8.822  1.8439 -0.1754 -0.3582
  152SAPE  C21116877   7.576   4.859   8.618 -0.8073 -0.0173 -0.4994
  152SAPE  H11R16878   7.665   4.867   8.554 -2.2576  1.5850 -2.4384
  152SAPE  C21216879   7.479   4.768   8.589  0.4636 -0.3477  0.4884
  152SAPE  H12R16880   7.487   4.710   8.496 -1.2863  1.2978 -0.7820
  152SAPE  C21316881   7.354   4.752   8.671  0.8732 -0.2823  0.1835
  152SAPE  H13R16882   7.366   4.809   8.765  1.1442  0.7958 -0.4860
  152SAPE  H13S16883   7.343   4.646   8.701  2.2902 -0.2026  1.0813
  152SAPE  C21416884   7.233   4.804   8.603 -1.1313 -0.0659 -0.1367
  152SAPE  H14R16885   7.234   4.914   8.605  0.6409  0.0521 -2.4813
  152SAPE  C21516886   7.134   4.737   8.544  0.2144 -0.1145 -0.0836
  152SAPE  H15R16887   7.070   4.802   8.482  0.4325  0.5099  0.3452
  152SAPE  C21616888   7.119   4.584   8.532  0.3423  0.0721  0.6859
  152SAPE  H16R16889   7.012   4.566   8.556  1.1044 -1.2311  3.4098
  152SAPE  H16S16890   7.190   4.530   8.597  1.2923  0.0210 -0.3533
  152SAPE  C21716891   7.150   4.541   8.384 -0.3858  0.5381 -0.4337
  152SAPE  H17R16892   7.078   4.564   8.303  1.5169 -0.4779 -2.5220
  152SAPE  H17S16893   7.141   4.431   8.398 -0.7724  0.7399  1.0424
  152SAPE  C21816894   7.294   4.572   8.345 -0.5134 -0.1285  0.0602
  152SAPE  H18R16895   7.350   4.568   8.441 -3.6805 -2.1435  2.0055
  152SAPE  H18S16896   7.307   4.677   8.309  2.2534 -0.2287  0.5444
  152SAPE  C21916897   7.355   4.476   8.243  0.3613 -0.4819 -0.7658
  152SAPE  H19R16898   7.282   4.461   8.160 -0.3383  0.7989 -0.4100
  152SAPE  H19S16899   7.367   4.383   8.303 -0.9503 -0.9168 -1.1376
  152SAPE  C22016900   7.492   4.524   8.209  0.8337 -0.1954 -0.3986
  152SAPE  H20R16901   7.543   4.489   8.302 -0.6537  0.9030  0.8995
  152SAPE  H20S16902   7.482   4.635   8.199 -0.0896 -0.3099 -0.8657
  152SAPE  H20T16903   7.528   4.476   8.116 -0.4012 -2.6843  0.3302
  152SAPE   C3316904   7.429   4.779   9.303  1.1668  0.0203  0.8407
  152SAPE   H3X16905   7.399   4.878   9.263  0.5189 -1.7063 -3.4385
  152SAPE   H3Y16906   7.348   4.706   9.283 -2.3262  3.0696  2.5578
  152SAPE   C3416907   7.561   4.739   9.245  0.9702 -0.2758 -0.2178
  152SAPE   H4X16908   7.585   4.639   9.285 -1.7304 -1.4821 -1.3725
  152SAPE   H4Y16909   7.639   4.815   9.269  1.6474 -0.1183 -2.6482
  152SAPE   C3516910   7.556   4.708   9.098 -0.8537 -0.4176  0.8268
  152SAPE   H5X16911   7.530   4.798   9.039 -0.2237 -0.1191  1.0037
  152SAPE   H5Y16912   7.474   4.635   9.078  0.6798 -1.4429 -2.2520
  152SAPE   C3616913   7.693   4.660   9.048  0.0620 -0.1510 -0.6216
  152SAPE   H6X16914   7.729   4.569   9.101 -0.7554 -0.2363 -0.1990
  152SAPE   H6Y16915   7.767   4.739   9.074  0.5201 -0.5930 -0.5612
  152SAPE   C3716916   7.708   4.638   8.895  0.3316 -0.2532 -0.1464
  152SAPE   H7X16917   7.682   4.737   8.851 -0.4855 -0.5127 -0.2682
  152SAPE   H7Y16918   7.635   4.564   8.857 -0.0393  0.0156  0.0312
  152SAPE   C3816919   7.851   4.598   8.862  0.3482 -0.4388  0.5971
  152SAPE   H8X16920   7.882   4.505   8.914  0.9444 -0.9464 -0.6373
  152SAPE   H8Y16921   7.910   4.680   8.908  0.4397 -0.6893  0.9300
  152SAPE   C3916922   7.884   4.597   8.713  0.1953 -0.5028 -0.7377
  152SAPE   H9X16923   7.862   4.695   8.664 -0.0653 -0.8761 -1.3863
  152SAPE   H9Y16924   7.818   4.526   8.659 -0.5499 -1.6320  1.5604
  152SAPE  C31016925   8.033   4.562   8.692  0.2530 -0.3904  0.2416
  152SAPE  H10X16926   8.054   4.477   8.760  0.2979 -0.1075  0.5837
  152SAPE  H10Y16927   8.104   4.642   8.723  0.2346 -0.8863  1.6680
  152SAPE  C31116928   8.072   4.508   8.554  0.0372 -0.3338 -0.3443
  152SAPE  H11X16929   8.178   4.476   8.553  0.5131  1.1841 -0.4298
  152SAPE  H11Y16930   8.049   4.584   8.476  0.3671  0.2405  0.1147
  152SAPE  C31216931   7.994   4.381   8.522 -0.2194 -0.6089 -0.1501
  152SAPE  H12X16932   7.899   4.420   8.480  0.4214  2.1506  0.7163
  152SAPE  H12Y16933   7.967   4.326   8.614  0.0073  0.0994  0.3517
  152SAPE  C31316934   8.057   4.286   8.417 -0.9777 -0.1077  0.2079
  152SAPE  H13X16935   8.081   4.186   8.460 -0.7724  0.7835  2.2445
  152SAPE  H13Y16936   8.160   4.320   8.394 -0.5360 -1.2459  0.4225
  152SAPE  C31416937   7.996   4.281   8.269  0.0132  0.0158 -0.3027
  152SAPE  H14X16938   7.984   4.388   8.241  0.7745 -0.1332 -1.2358
  152SAPE  H14Y16939   7.890   4.246   8.275 -0.8513  2.4039 -0.2881
  152SAPE  C31516940   8.087   4.206   8.171 -0.5845  0.3658  0.2670
  152SAPE  H15X16941   8.189   4.251   8.167 -0.1482 -0.3282  2.4036
  152SAPE  H15Y16942   8.058   4.223   8.065 -0.1087  2.1972  0.3910
  152SAPE  C31616943   8.102   4.052   8.199 -0.0406  0.4656 -0.0042
  152SAPE  H16X16944   8.003   4.001   8.200  0.0511  0.2357 -1.0751
  152SAPE  H16Y16945   8.141   4.056   8.303 -0.2274  0.4982  0.0651
  152SAPE  C31716946   8.196   3.985   8.100 -0.2283  0.1491 -0.0098
  152SAPE  H17X16947   8.197   3.877   8.124 -1.8339 -0.1545 -1.1266
  152SAPE  H17Y16948   8.298   4.029   8.103  0.1987 -0.6099 -2.0750
  152SAPE  C31816949   8.149   3.987   7.950 -0.1883  0.1377  0.5044
  152SAPE  H18X16950   8.163   4.084   7.897  1.1168  0.3088  1.1329
  152SAPE  H18Y16951   8.039   3.970   7.948 -0.2440  0.4632  0.7628
  152SAPE  H18Z16952   8.198   3.917   7.879  0.4166  1.0976 -0.0573
  153SAPE     N16953   6.472   1.742   9.697 -0.0331 -1.3581  0.2656
  153SAPE   HN116954   6.392   1.792   9.653  1.0923  3.2261  2.8017
  153SAPE   HN216955   6.558   1.799   9.682 -1.4983  1.0824  0.6351
  153SAPE   HN316956   6.486   1.653   9.645  3.5921 -0.5601 -0.4639
  153SAPE   C1216957   6.435   1.715   9.836 -0.3391 -0.5715  0.4447
  153SAPE  H12A16958   6.362   1.791   9.871 -0.0657 -0.7717  1.4825
  153SAPE  H12B16959   6.517   1.712   9.911  0.2651  0.1574 -0.1651
  153SAPE   C1116960   6.358   1.575   9.842 -0.0967  0.2029 -0.3869
  153SAPE  H11A16961   6.262   1.588   9.788 -0.6308  0.4776  0.6073
  153SAPE  H11B16962   6.344   1.557   9.951  0.7904 -1.1871 -0.4801
  153SAPE     P16963   6.368   1.328   9.767  0.6688  0.1084  0.2465
  153SAPE   O1316964   6.477   1.226   9.767 -0.0722 -0.7655 -0.2849
  153SAPE   O1416965   6.256   1.315   9.864 -0.7385  0.2875 -0.0595
  153SAPE   O1216966   6.433   1.473   9.780  0.3524 -0.4007 -0.7285
  153SAPE   O1116967   6.303   1.343   9.621  0.0076  0.4903  0.1058
  153SAPE    C116968   6.214   1.244   9.576 -0.1045 -0.0796 -0.2921
  153SAPE    HA16969   6.143   1.213   9.656 -0.2416  2.5872  0.7361
  153SAPE    HB16970   6.156   1.283   9.489 -1.3042 -1.0173  0.0572
  153SAPE    C216971   6.290   1.116   9.520 -0.5011  0.2968  1.3180
  153SAPE    HS16972   6.395   1.120   9.555  0.4930 -3.1664 -0.7741
  153SAPE   O2116973   6.295   1.104   9.376  0.3641 -0.2427 -0.1297
  153SAPE   C2116974   6.362   1.200   9.322 -0.2903 -0.2168  0.8942
  153SAPE   O2216975   6.444   1.274   9.375 -0.0588  0.1516 -0.9656
  153SAPE   C2216976   6.325   1.202   9.176 -0.0661  0.2273 -0.1416
  153SAPE   H2R16977   6.335   1.099   9.138  0.0873  0.2279 -0.1036
  153SAPE   H2S16978   6.224   1.246   9.161 -0.7667 -0.5875  1.8170
  153SAPE    C316979   6.242   0.979   9.575 -0.1965 -0.1348 -0.3018
  153SAPE    HX16980   6.263   0.987   9.683  2.3546 -2.3121 -0.5331
  153SAPE    HY16981   6.312   0.905   9.530  0.5491  1.3186 -1.6343
  153SAPE   O3116982   6.103   0.945   9.551  0.3956  0.7585  0.0014
  153SAPE   C3116983   6.061   0.832   9.606  0.3898  0.1669  0.0823
  153SAPE   O3216984   6.125   0.758   9.677 -0.1388  0.1705  0.1994
  153SAPE   C3216985   5.918   0.797   9.563 -0.3466 -0.6668 -0.2403
  153SAPE   H2X16986   5.845   0.818   9.645 -0.0714  0.1272 -0.1881
  153SAPE   H2Y16987   5.915   0.687   9.548  3.0893 -0.7205 -1.2115
  153SAPE   C2316988   6.427   1.295   9.102 -0.3763  0.4842 -0.1394
  153SAPE   H3R16989   6.528   1.254   9.121 -0.0859  0.0777 -2.3195
  153SAPE   H3S16990   6.421   1.402   9.134 -0.6679  0.9018 -1.5207
  153SAPE   C2416991   6.412   1.288   8.943  0.0202  0.2465 -0.5146
  153SAPE   H4R16992   6.480   1.367   8.905  0.9982 -0.0240  0.6109
  153SAPE   H4S16993   6.308   1.322   8.924 -0.8418 -2.1655 -0.5219
  153SAPE   C2516994   6.436   1.155   8.876  0.3755 -0.2688  0.7061
  153SAPE   H5R16995   6.437   1.063   8.937  0.9036 -1.3223 -0.8428
  153SAPE   C2616996   6.487   1.138   8.753  0.0529 -0.3115  0.1553
  153SAPE   H6R16997   6.507   1.037   8.716 -4.6719 -0.9229 -1.4865
  153SAPE   C2716998   6.527   1.250   8.658  0.5750  0.2367 -0.5810
  153SAPE   H7R16999   6.634   1.233   8.634  0.4969 -0.9447 -0.1299
  153SAPE   H7S17000   6.504   1.352   8.695 -3.3682 -1.3201  1.8593
  153SAPE   C2817001   6.445   1.254   8.528  0.3365  0.2173 -0.2665
  153SAPE   H8R17002   6.386   1.347   8.532 -0.6060 -0.3964  1.8314
  153SAPE   C2917003   6.424   1.151   8.438  0.2156  0.0335 -0.5294
  153SAPE   H9R17004   6.367   1.171   8.347  0.2666  1.1603 -0.3292
  153SAPE  C21017005   6.504   1.026   8.426 -0.2804  0.0977 -0.4987
  153SAPE  H10R17006   6.458   0.934   8.469  2.0465 -1.2955 -0.7582
  153SAPE  H10S17007   6.580   1.028   8.507 -0.8669 -1.5324  0.1404
  153SAPE  C21117008   6.570   0.990   8.296  0.3709  0.2733 -0.0866
  153SAPE  H11R17009   6.524   0.909   8.238  2.4851 -0.7969 -0.3489
  153SAPE  C21217010   6.675   1.049   8.246 -0.1650  0.5297 -0.0969
  153SAPE  H12R17011   6.715   1.017   8.149 -0.0121 -0.1744  0.1989
  153SAPE  C21317012   6.741   1.169   8.304  0.0358  0.1546 -0.1591
  153SAPE  H13R17013   6.834   1.135   8.353 -0.4911 -1.9340 -0.5074
  153SAPE  H13S17014   6.687   1.212   8.391 -3.1185 -1.1612 -1.3147
  153SAPE  C21417015   6.782   1.273   8.199  0.4698  0.1073 -0.3686
  153SAPE  H14R17016   6.889   1.296   8.200 -0.1076  3.9265 -3.0243
  153SAPE  C21517017   6.709   1.345   8.114 -0.3438  0.0335  0.0698
  153SAPE  H15R17018   6.762   1.409   8.041  2.5657  0.7876  2.6225
  153SAPE  C21617019   6.561   1.340   8.099 -0.0411  0.1482  0.0932
  153SAPE  H16R17020   6.527   1.440   8.062  1.9324  0.3535 -1.3242
  153SAPE  H16S17021   6.519   1.319   8.200  1.5918  1.6603  1.1415
  153SAPE  C21717022   6.505   1.232   7.992 -0.6441  0.0122 -0.0100
  153SAPE  H17R17023   6.541   1.130   8.017 -0.3598  0.0718 -0.1647
  153SAPE  H17S17024   6.555   1.254   7.895  0.1465 -0.5130  0.2670
  153SAPE  C21817025   6.360   1.241   7.990 -0.7765  0.3283 -0.0498
  153SAPE  H18R17026   6.328   1.346   7.978 -3.5989 -0.3593  0.7247
  153SAPE  H18S17027   6.311   1.208   8.084  0.6603 -0.2804  0.5044
  153SAPE  C21917028   6.297   1.163   7.868 -0.5766  0.1775 -0.0402
  153SAPE  H19R17029   6.334   1.059   7.877 -1.2028  0.1091  2.6813
  153SAPE  H19S17030   6.325   1.189   7.764  0.9697  1.2729  0.6076
  153SAPE  C22017031   6.144   1.161   7.881 -0.5861  0.0448 -0.1839
  153SAPE  H20R17032   6.115   1.265   7.908  1.3978  0.3459  0.9835
  153SAPE  H20S17033   6.114   1.097   7.967 -0.1920  1.0348  0.7164
  153SAPE  H20T17034   6.097   1.134   7.784 -1.9333  0.4839  0.3238
  153SAPE   C3317035   5.867   0.860   9.436  0.3548  0.2797  0.3856
  153SAPE   H3X17036   5.886   0.969   9.434  1.9097  0.0724  1.8009
  153SAPE   H3Y17037   5.759   0.846   9.412  0.4354  0.9997 -0.4574
  153SAPE   C3417038   5.943   0.812   9.312 -0.5569 -0.7469  0.6349
  153SAPE   H4X17039   5.918   0.706   9.293 -0.6485 -0.1052 -4.1603
  153SAPE   H4Y17040   6.053   0.825   9.305 -0.7849  0.5510 -1.7559
  153SAPE   C3517041   5.893   0.887   9.187 -0.3101 -0.2878 -0.2831
  153SAPE   H5X17042   5.910   0.996   9.197 -0.8727 -0.3924  3.2290
  153SAPE   H5Y17043   5.783   0.873   9.182 -0.2939 -0.1365 -1.3028
  153SAPE   C3617044   5.950   0.837   9.051  0.2185 -0.2164  0.1020
  153SAPE   H6X17045   5.959   0.727   9.054 -0.5860 -0.2743  2.5388
  153SAPE   H6Y17046   6.051   0.880   9.036 -1.7867  4.4113 -2.0364
  153SAPE   C3717047   5.868   0.869   8.923 -0.0552  0.6833 -0.1411
  153SAPE   H7X17048   5.839   0.977   8.924  0.3954  0.8422  2.5755
  153SAPE   H7Y17049   5.781   0.801   8.913  1.0623 -0.7887 -0.1082
  153SAPE   C3817050   5.950   0.843   8.789  0.2898 -0.1763  1.0229
  153SAPE   H8X17051   5.997   0.744   8.806 -0.8407 -0.8386  0.3866
  153SAPE   H8Y17052   6.033   0.917   8.794  0.8705 -0.6945 -0.5128
  153SAPE   C3917053   5.869   0.849   8.655  0.4679 -0.3087 -0.5149
  153SAPE   H9X17054   5.764   0.815   8.669  0.5930 -1.1671 -1.5429
  153SAPE   H9Y17055   5.911   0.784   8.575 -1.8226 -0.3935 -1.7559
  153SAPE  C31017056   5.874   0.978   8.578 -0.3844  0.1205  0.4188
  153SAPE  H10X17057   5.982   1.001   8.569 -0.4458  0.6421  0.9356
  153SAPE  H10Y17058   5.827   1.057   8.641  0.5302  0.3736  0.8020
  153SAPE  C31117059   5.824   0.978   8.434 -0.1057 -0.5085 -0.4402
  153SAPE  H11X17060   5.721   0.938   8.424  0.4638 -1.6121 -2.4810
  153SAPE  H11Y17061   5.886   0.912   8.369  0.1201  0.3204 -1.0868
  153SAPE  C31217062   5.802   1.115   8.380 -0.2345 -0.7113  0.6684
  153SAPE  H12X17063   5.884   1.186   8.404 -1.1238  1.0891 -1.2399
  153SAPE  H12Y17064   5.716   1.160   8.434 -0.0118  0.3089  0.2087
  153SAPE  C31317065   5.767   1.121   8.231 -0.7563 -0.3272  0.4639
  153SAPE  H13X17066   5.706   1.033   8.201 -2.1195  0.5269  0.6417
  153SAPE  H13Y17067   5.869   1.113   8.188  0.8980 -0.1088  3.9684
  153SAPE  C31417068   5.711   1.246   8.166 -0.0011  1.0119 -1.1388
  153SAPE  H14X17069   5.752   1.335   8.217 -0.0169 -0.0012  0.7366
  153SAPE  H14Y17070   5.605   1.232   8.199  0.9643 -2.1831  1.0849
  153SAPE  C31517071   5.726   1.249   8.012  0.9029 -0.5641  0.4117
  153SAPE  H15X17072   5.688   1.153   7.970  1.1965  0.0807 -1.4115
  153SAPE  H15Y17073   5.830   1.263   7.976  0.5697 -1.1632 -0.8391
  153SAPE  C31617074   5.626   1.354   7.946 -0.7377  0.0684  0.1022
  153SAPE  H16X17075   5.630   1.453   7.998 -1.5775  0.8426 -1.2591
  153SAPE  H16Y17076   5.525   1.308   7.942 -0.5865 -0.2409 -0.1226
  153SAPE  C31717077   5.673   1.387   7.801  0.2986  0.4184 -0.0620
  153SAPE  H17X17078   5.680   1.296   7.739 -0.9771  0.1519  0.1600
  153SAPE  H17Y17079   5.770   1.441   7.800  0.7751 -0.4240 -0.9519
  153SAPE  C31817080   5.563   1.473   7.733  0.0096  0.7169 -0.3522
  153SAPE  H18X17081   5.542   1.567   7.789  0.9542  0.6877  0.0734
  153SAPE  H18Y17082   5.470   1.413   7.745  0.5980  0.2768  3.2737
  153SAPE  H18Z17083   5.587   1.495   7.627 -0.4874  0.2022 -0.5770
  154SAPE     N17084   1.031   0.889   9.560 -0.4255 -0.5586 -0.0278
  154SAPE   HN117085   1.026   0.803   9.618 -0.5706 -0.3946  0.2066
  154SAPE   HN217086   1.100   0.861   9.487 -0.0060  0.5040 -0.0631
  154SAPE   HN317087   1.067   0.971   9.614 -0.0001 -0.4131 -0.5165
  154SAPE   C1217088   0.894   0.920   9.513  0.2359 -0.9833 -0.3582
  154SAPE  H12A17089   0.908   1.001   9.438  0.0945 -1.3656 -0.8114
  154SAPE  H12B17090   0.846   0.963   9.603 -1.1762  1.2177 -2.0596
  154SAPE   C1117091   0.830   0.789   9.458 -0.0929 -0.2612 -0.7285
  154SAPE  H11A17092   0.885   0.768   9.364  0.1011 -1.7851 -0.3018
  154SAPE  H11B17093   0.723   0.798   9.430 -0.8271 -0.9954  1.6203
  154SAPE     P17094   0.853   0.537   9.517  0.2396  0.0437 -0.3629
  154SAPE   O1317095   0.926   0.454   9.619 -0.6876  0.2699 -0.0624
  154SAPE   O1417096   0.716   0.501   9.475  0.0532  0.0412 -0.7519
  154SAPE   O1217097   0.842   0.690   9.561 -0.1315 -0.6014  0.7972
  154SAPE   O1117098   0.956   0.548   9.396 -0.9021 -0.4018  0.0614
  154SAPE    C117099   0.998   0.423   9.328 -0.1761 -0.8039 -0.2563
  154SAPE    HA17100   1.109   0.415   9.336  0.2208 -1.4396 -4.3397
  154SAPE    HB17101   0.962   0.330   9.379  1.6400 -1.0089  0.7365
  154SAPE    C217102   0.953   0.413   9.179 -0.5685  1.1701  0.2778
  154SAPE    HS17103   1.021   0.338   9.133  0.0625  0.7667  1.8084
  154SAPE   O2117104   0.963   0.538   9.111  0.3794  0.1850 -0.1369
  154SAPE   C2117105   1.090   0.570   9.069  0.3888 -0.9060  0.0255
  154SAPE   O2217106   1.190   0.501   9.074 -0.2169 -1.1507 -0.4972
  154SAPE   C2217107   1.076   0.706   9.004  0.8574  0.2839  0.2012
  154SAPE   H2R17108   1.004   0.773   9.057 -0.1706  0.1173 -0.9325
  154SAPE   H2S17109   1.178   0.750   9.005  0.4245  1.3444  1.8518
  154SAPE    C317110   0.813   0.345   9.153 -0.0163  0.0042  0.1658
  154SAPE    HX17111   0.741   0.402   9.216 -0.9079  2.0356 -2.5324
  154SAPE    HY17112   0.825   0.247   9.205 -0.7315 -0.6877 -0.9340
  154SAPE   O3117113   0.776   0.313   9.025 -0.2403 -0.5264  0.6647
  154SAPE   C3117114   0.703   0.398   8.958  0.4982  1.0124  0.2532
  154SAPE   O3217115   0.653   0.498   8.999  0.0614 -0.4144  0.2424
  154SAPE   C3217116   0.669   0.350   8.819  0.5564 -0.5174  0.5719
  154SAPE   H2X17117   0.566   0.308   8.817  1.7506 -3.7701  1.1061
  154SAPE   H2Y17118   0.743   0.277   8.780  1.4669  0.1208  1.0942
  154SAPE   C2317119   1.018   0.690   8.863  0.4766  0.6579  0.9912
  154SAPE   H3R17120   0.984   0.792   8.834 -0.5138 -0.7229 -3.5331
  154SAPE   H3S17121   0.925   0.629   8.861 -0.8039  2.5399  0.0107
  154SAPE   C2417122   1.098   0.619   8.759  0.4747 -0.2189 -0.3262
  154SAPE   H4R17123   1.029   0.562   8.694  2.6325 -0.2382 -2.7424
  154SAPE   H4S17124   1.171   0.555   8.812 -0.1971  0.7442  1.9097
  154SAPE   C2517125   1.168   0.719   8.669 -0.0134 -0.3458 -0.1190
  154SAPE   H5R17126   1.253   0.770   8.717  1.3758 -1.9390 -0.7699
  154SAPE   C2617127   1.145   0.752   8.540  0.7501  0.0459  0.3960
  154SAPE   H6R17128   1.208   0.834   8.501 -2.4597  3.3763  1.6592
  154SAPE   C2717129   1.039   0.690   8.450  0.2418 -0.5047  0.0585
  154SAPE   H7R17130   0.967   0.631   8.511  1.0794  1.0104  2.6743
  154SAPE   H7S17131   1.096   0.630   8.376  1.8454  2.4791 -1.2871
  154SAPE   C2817132   0.959   0.784   8.366 -0.6671  0.2799 -0.2517
  154SAPE   H8R17133   0.993   0.779   8.262  0.4398 -2.5802  0.1338
  154SAPE   C2917134   0.847   0.853   8.396  0.1427  0.0486  0.1479
  154SAPE   H9R17135   0.815   0.926   8.321  0.7677  1.8587  1.5523
  154SAPE  C21017136   0.766   0.854   8.525 -0.1211  0.3230 -0.5015
  154SAPE  H10R17137   0.835   0.844   8.611  0.1656 -2.4096 -0.9646
  154SAPE  H10S17138   0.708   0.760   8.534 -1.4979  1.1090 -0.8076
  154SAPE  C21117139   0.671   0.968   8.544  0.2895  0.1891  0.2766
  154SAPE  H11R17140   0.654   1.031   8.455  1.7983 -1.2909 -1.1321
  154SAPE  C21217141   0.611   0.998   8.668  0.4428  0.0942  0.0543
  154SAPE  H12R17142   0.540   1.082   8.672  0.0938  0.0471 -2.9937
  154SAPE  C21317143   0.625   0.917   8.797 -0.1189 -0.3185  0.1007
  154SAPE  H13R17144   0.723   0.945   8.842  0.3659 -0.1938 -1.0005
  154SAPE  H13S17145   0.654   0.814   8.771  0.4763  0.1434 -1.1445
  154SAPE  C21417146   0.507   0.936   8.890 -0.1216  0.2277 -0.3607
  154SAPE  H14R17147   0.500   1.035   8.938 -0.2943  1.8468 -3.4776
  154SAPE  C21517148   0.398   0.871   8.886  0.9040  0.1201 -0.5205
  154SAPE  H15R17149   0.324   0.900   8.962  3.6001 -0.5112  2.5750
  154SAPE  C21617150   0.360   0.746   8.805  0.0129 -0.5043 -0.7632
  154SAPE  H16R17151   0.337   0.662   8.873  0.7737  0.2421  0.4442
  154SAPE  H16S17152   0.438   0.717   8.732  1.0170 -0.9556  0.4688
  154SAPE  C21717153   0.229   0.777   8.726 -0.2395 -0.1905  0.2365
  154SAPE  H17R17154   0.248   0.862   8.657 -0.4421  0.8946  1.4714
  154SAPE  H17S17155   0.149   0.808   8.797  1.7167  0.5193  2.2349
  154SAPE  C21817156   0.193   0.641   8.652  0.3291 -0.3811 -0.4438
  154SAPE  H18R17157   0.170   0.559   8.724 -0.6242  0.5665  0.3642
  154SAPE  H18S17158   0.282   0.613   8.592  0.4454 -0.3112 -0.3035
  154SAPE  C21917159   0.076   0.644   8.552  0.7628  0.0817 -0.2232
  154SAPE  H19R17160   0.107   0.715   8.472 -0.9310  0.0841 -0.9218
  154SAPE  H19S17161  -0.002   0.697   8.610 -0.1028 -2.1155  0.7086
  154SAPE  C22017162   0.017   0.514   8.507 -1.0432 -0.4562 -0.2620
  154SAPE  H20R17163   0.089   0.457   8.444 -0.2868 -0.4090  0.5438
  154SAPE  H20S17164  -0.075   0.527   8.446 -0.9676 -3.5096 -1.1945
  154SAPE  H20T17165   0.001   0.449   8.596  0.9368  0.2013  0.6170
  154SAPE   C3317166   0.659   0.471   8.719  0.5761  0.4988  0.0663
  154SAPE   H3X17167   0.762   0.502   8.693  0.9272 -0.2928  0.4804
  154SAPE   H3Y17168   0.605   0.564   8.748  0.5249  1.6790 -3.3535
  154SAPE   C3417169   0.582   0.434   8.587  0.4273  0.1730 -0.4578
  154SAPE   H4X17170   0.475   0.421   8.614  0.2742 -0.3883 -1.2974
  154SAPE   H4Y17171   0.629   0.342   8.547  1.2487  0.3093  0.1661
  154SAPE   C3517172   0.598   0.535   8.475 -0.2269 -0.2493  0.4398
  154SAPE   H5X17173   0.707   0.550   8.461 -0.4360  2.3608  0.9672
  154SAPE   H5Y17174   0.561   0.633   8.514  0.0147  0.7350 -1.7017
  154SAPE   C3617175   0.541   0.487   8.338 -0.2770 -0.3951 -0.1940
  154SAPE   H6X17176   0.591   0.390   8.316 -0.9385 -0.8174  0.1461
  154SAPE   H6Y17177   0.583   0.561   8.266 -1.0720 -0.4437 -0.7228
  154SAPE   C3717178   0.391   0.479   8.338  0.2278 -0.5051 -0.2734
  154SAPE   H7X17179   0.352   0.572   8.383  0.5594 -0.7678  0.5723
  154SAPE   H7Y17180   0.372   0.394   8.407 -1.2026  0.9706  1.2220
  154SAPE   C3817181   0.336   0.447   8.200  0.0893  0.6679  0.0732
  154SAPE   H8X17182   0.226   0.434   8.209 -0.0484  2.1436  0.9924
  154SAPE   H8Y17183   0.379   0.349   8.171 -0.0661  0.4389  0.6133
  154SAPE   C3917184   0.356   0.557   8.098  0.5522 -0.7067  0.0759
  154SAPE   H9X17185   0.463   0.581   8.082  0.6284 -0.8447  0.3810
  154SAPE   H9Y17186   0.313   0.651   8.141  1.3650  0.5983 -1.8359
  154SAPE  C31017187   0.274   0.518   7.978 -0.2633  0.3354  0.5791
  154SAPE  H10X17188   0.165   0.538   7.984 -0.3823 -0.5612  1.6658
  154SAPE  H10Y17189   0.288   0.412   7.947 -1.3564  0.9217 -2.1925
  154SAPE  C31117190   0.325   0.592   7.855  0.3380 -0.2429  0.0970
  154SAPE  H11X17191   0.308   0.542   7.758  0.0832  0.0422 -0.0089
  154SAPE  H11Y17192   0.434   0.590   7.876 -0.0206 -3.4082  2.3021
  154SAPE  C31217193   0.274   0.738   7.856  0.7265 -0.3597  0.0646
  154SAPE  H12X17194   0.281   0.793   7.952  0.3336 -0.9104  0.4107
  154SAPE  H12Y17195   0.172   0.725   7.815  1.2653 -0.6669 -1.2569
  154SAPE  C31317196   0.355   0.815   7.745  0.3353  0.7345 -0.1078
  154SAPE  H13X17197   0.310   0.916   7.738 -0.5918  0.5924  2.4913
  154SAPE  H13Y17198   0.356   0.774   7.642  1.7200  1.0175 -0.2228
  154SAPE  C31417199   0.509   0.845   7.786  0.8144 -0.4147  0.4236
  154SAPE  H14X17200   0.569   0.760   7.747  0.3501 -1.3611  1.6762
  154SAPE  H14Y17201   0.497   0.851   7.896 -1.3234  2.7972  0.1572
  154SAPE  C31517202   0.566   0.980   7.735  0.6707  0.2241 -0.1284
  154SAPE  H15X17203   0.488   1.060   7.746 -1.0528 -1.6205  1.9445
  154SAPE  H15Y17204   0.608   0.976   7.632  0.9830  1.8170 -0.0898
  154SAPE  C31617205   0.675   1.011   7.829 -0.7048 -0.4081  0.4329
  154SAPE  H16X17206   0.756   1.063   7.774 -2.0166 -0.8352 -2.0422
  154SAPE  H16Y17207   0.722   0.921   7.873  1.5383  0.9807  1.0426
  154SAPE  C31717208   0.629   1.096   7.950  0.4925 -0.1807 -0.5611
  154SAPE  H17X17209   0.536   1.046   7.983  0.3747  1.1092  1.1557
  154SAPE  H17Y17210   0.610   1.203   7.926 -0.8242 -0.4198 -0.6250
  154SAPE  C31817211   0.742   1.105   8.048  0.3446  0.0352  0.1043
  154SAPE  H18X17212   0.767   1.004   8.089  2.8356  0.0186 -1.2859
  154SAPE  H18Y17213   0.701   1.168   8.129 -1.2793 -2.0051  0.9742
  154SAPE  H18Z17214   0.840   1.149   8.019  1.0357 -0.6036  1.3990
  155SAPE     N17215   0.967   6.675   9.564  0.5539  0.1392 -0.2100
  155SAPE   HN117216   0.894   6.603   9.583  1.9584 -0.9685  1.2830
  155SAPE   HN217217   1.050   6.621   9.533  0.7469 -0.5424  1.4134
  155SAPE   HN317218   0.988   6.705   9.661 -2.3378  1.4140  0.1162
  155SAPE   C1217219   0.927   6.798   9.491  0.1373 -0.3128 -0.0718
  155SAPE  H12A17220   0.867   6.868   9.553  2.9472  1.9337  0.3330
  155SAPE  H12B17221   0.865   6.766   9.405  2.0288  0.4498 -1.8261
  155SAPE   C1117222   1.042   6.884   9.431  0.0422  0.9285  0.0241
  155SAPE  H11A17223   1.005   6.943   9.345  2.9029  0.6721 -1.5173
  155SAPE  H11B17224   1.116   6.823   9.374 -3.0552 -0.2366 -3.0756
  155SAPE     P17225   1.217   6.949   9.621 -0.5381 -0.0854  0.1780
  155SAPE   O1317226   1.202   7.035   9.740  0.0057 -0.3428  0.1317
  155SAPE   O1417227   1.242   6.803   9.648  0.0532  0.1881 -0.1479
  155SAPE   O1217228   1.088   6.974   9.535 -0.0545 -0.2588 -0.3871
  155SAPE   O1117229   1.334   6.996   9.537  0.6485  0.7164 -0.0977
  155SAPE    C117230   1.353   7.135   9.508  0.1337 -0.0639  0.2853
  155SAPE    HA17231   1.270   7.200   9.542 -0.7388 -0.8606 -0.2476
  155SAPE    HB17232   1.448   7.172   9.552  0.3918  0.1181 -0.4110
  155SAPE    C217233   1.381   7.161   9.354  0.3037 -0.1517 -0.0908
  155SAPE    HS17234   1.386   7.272   9.358 -2.0086 -0.0225  0.9682
  155SAPE   O2117235   1.266   7.117   9.273  0.6187 -0.0333 -0.7069
  155SAPE   C2117236   1.219   7.196   9.176 -0.6184  0.0763 -0.7893
  155SAPE   O2217237   1.256   7.312   9.160 -0.6434  0.0759 -0.2879
  155SAPE   C2217238   1.102   7.127   9.098  0.0576 -0.9661  0.5865
  155SAPE   H2R17239   1.049   7.057   9.166 -2.2931 -1.8723 -1.9794
  155SAPE   H2S17240   1.040   7.213   9.066 -0.3829 -1.5198 -0.0775
  155SAPE    C317241   1.527   7.120   9.307  0.0140  0.3167 -0.0427
  155SAPE    HX17242   1.532   7.009   9.300  1.5010  0.4048 -0.7845
  155SAPE    HY17243   1.604   7.157   9.378  0.7704  0.3160 -0.8387
  155SAPE   O3117244   1.545   7.173   9.174 -0.5980 -0.6651 -0.2457
  155SAPE   C3117245   1.644   7.264   9.155 -0.1404 -0.1390  0.0050
  155SAPE   O3217246   1.727   7.296   9.240 -0.1755  0.2383  0.1377
  155SAPE   C3217247   1.657   7.301   9.013  0.5802  0.7209 -0.6876
  155SAPE   H2X17248   1.726   7.383   8.984  0.8057 -0.3342 -3.4006
  155SAPE   H2Y17249   1.558   7.334   8.975  0.7817  0.1016 -1.8037
  155SAPE   C2317250   1.154   7.050   8.972  0.3634  0.6312  0.2413
  155SAPE   H3R17251   1.064   7.008   8.923  0.9888 -0.2804 -0.1675
  155SAPE   H3S17252   1.220   6.968   9.009  0.7032  0.6179 -0.3645
  155SAPE   C2417253   1.217   7.135   8.860 -0.0927 -0.7780 -0.0336
  155SAPE   H4R17254   1.220   7.066   8.773 -0.5946 -2.3011  1.1072
  155SAPE   H4S17255   1.319   7.168   8.888 -1.0010  3.2124 -0.8107
  155SAPE   C2517256   1.134   7.254   8.810 -0.2532  1.0058  0.6262
  155SAPE   H5R17257   1.117   7.339   8.878 -2.1082  0.5664  0.7539
  155SAPE   C2617258   1.076   7.262   8.687 -1.2264  0.1607 -0.1716
  155SAPE   H6R17259   1.035   7.357   8.651 -0.8565  0.1186 -0.7248
  155SAPE   C2717260   1.075   7.161   8.571  0.0954  0.3398 -0.1841
  155SAPE   H7R17261   1.095   7.056   8.601  0.0856  0.5121  0.4466
  155SAPE   H7S17262   1.157   7.190   8.502  0.0017 -1.5981 -1.1950
  155SAPE   C2817263   0.940   7.154   8.507 -0.0869 -0.2964  0.3310
  155SAPE   H8R17264   0.889   7.062   8.540  0.9598 -1.2648 -0.6781
  155SAPE   C2917265   0.872   7.236   8.423 -0.5269  0.6273 -0.2862
  155SAPE   H9R17266   0.769   7.205   8.399 -0.2505 -0.0992 -0.5389
  155SAPE  C21017267   0.921   7.361   8.351 -0.0509  0.0834 -0.2648
  155SAPE  H10R17268   1.032   7.368   8.346 -0.0854  1.7980  0.5576
  155SAPE  H10S17269   0.884   7.447   8.410  0.5949 -0.7459  1.4234
  155SAPE  C21117270   0.857   7.358   8.214  0.1056 -0.1869  0.5739
  155SAPE  H11R17271   0.826   7.257   8.181 -0.0557  0.2324 -0.6024
  155SAPE  C21217272   0.838   7.457   8.124 -0.1433  0.7456 -0.2572
  155SAPE  H12R17273   0.811   7.429   8.021  0.3673 -0.6643 -0.0291
  155SAPE  C21317274   0.885   7.602   8.142 -0.1769  0.7139 -1.1611
  155SAPE  H13R17275   0.992   7.629   8.129 -0.2179  1.1516 -0.6155
  155SAPE  H13S17276   0.868   7.612   8.251 -2.6802  0.7425 -1.5107
  155SAPE  C21417277   0.801   7.716   8.093 -0.5221 -0.3695 -0.1673
  155SAPE  H14R17278   0.745   7.770   8.171  0.4634  0.0092  0.3019
  155SAPE  C21517279   0.767   7.740   7.962 -0.5161 -0.1313 -0.7274
  155SAPE  H15R17280   0.706   7.829   7.939  1.0400  1.7519  1.8595
  155SAPE  C21617281   0.818   7.664   7.847  0.0134  0.3215 -1.1444
  155SAPE  H16R17282   0.732   7.601   7.816 -0.0127 -0.8789  1.1014
  155SAPE  H16S17283   0.897   7.595   7.884 -0.4007  0.8479  0.8738
  155SAPE  C21717284   0.856   7.748   7.720  0.4811  0.0067 -0.1606
  155SAPE  H17R17285   0.919   7.835   7.749  1.0195 -0.8809  1.4840
  155SAPE  H17S17286   0.758   7.780   7.680  0.0599 -2.7417 -1.5430
  155SAPE  C21817287   0.920   7.668   7.614 -0.0617  0.3540 -0.7982
  155SAPE  H18R17288   0.858   7.576   7.602 -1.8018  1.1785  1.3285
  155SAPE  H18S17289   1.019   7.625   7.639  1.3035  3.7890  0.1781
  155SAPE  C21917290   0.944   7.750   7.476 -0.6641 -0.6323  0.2270
  155SAPE  H19R17291   0.863   7.825   7.465  0.8765  1.1351  0.5565
  155SAPE  H19S17292   0.934   7.680   7.390 -2.2928 -2.9436  2.1515
  155SAPE  C22017293   1.078   7.826   7.482 -0.4906  0.1030 -0.5640
  155SAPE  H20R17294   1.079   7.907   7.406  0.3000  0.3751 -0.2663
  155SAPE  H20S17295   1.163   7.762   7.448 -2.4404 -0.9260 -4.0757
  155SAPE  H20T17296   1.102   7.862   7.584 -1.4184  3.5646 -1.4302
  155SAPE   C3317297   1.685   7.171   8.932  0.4393  0.5527 -0.0166
  155SAPE   H3X17298   1.613   7.090   8.958  0.0601  1.1166  0.7532
  155SAPE   H3Y17299   1.787   7.137   8.962  0.7874 -0.2985 -2.0395
  155SAPE   C3417300   1.688   7.187   8.778 -0.2004 -0.4817 -0.3408
  155SAPE   H4X17301   1.710   7.088   8.733 -2.2690 -0.5110 -1.4397
  155SAPE   H4Y17302   1.773   7.252   8.747  0.7693  0.3005  3.4767
  155SAPE   C3517303   1.554   7.243   8.729 -0.5062  0.1054 -0.1609
  155SAPE   H5X17304   1.508   7.327   8.784  0.5398 -0.3643  1.5000
  155SAPE   H5Y17305   1.483   7.158   8.746 -0.5126  0.3753  1.2650
  155SAPE   C3617306   1.559   7.286   8.577 -0.0754  0.6131 -0.5579
  155SAPE   H6X17307   1.579   7.195   8.516  1.8470 -1.1175  2.4390
  155SAPE   H6Y17308   1.639   7.363   8.569  0.4915  0.0146 -0.6156
  155SAPE   C3717309   1.426   7.349   8.538  0.6125 -0.0927 -0.1304
  155SAPE   H7X17310   1.386   7.413   8.620  0.8894 -1.4384  1.1030
  155SAPE   H7Y17311   1.356   7.263   8.526  2.0377 -2.2043  4.3546
  155SAPE   C3817312   1.433   7.441   8.420 -0.6760  0.6743 -0.0066
  155SAPE   H8X17313   1.481   7.389   8.334  2.4413  0.8175  1.4933
  155SAPE   H8Y17314   1.500   7.526   8.446 -0.7534  0.7603 -0.0852
  155SAPE   C3917315   1.294   7.497   8.366 -0.1518 -0.2938  0.0825
  155SAPE   H9X17316   1.244   7.554   8.448 -0.8316 -0.7234 -0.0296
  155SAPE   H9Y17317   1.237   7.406   8.338 -2.3306  0.3403  2.1345
  155SAPE  C31017318   1.318   7.603   8.253 -0.5703  0.7827  0.1872
  155SAPE  H10X17319   1.352   7.697   8.300 -2.9466  0.6566  2.3458
  155SAPE  H10Y17320   1.216   7.616   8.210 -0.2420 -0.0485 -0.9157
  155SAPE  C31117321   1.410   7.556   8.136  0.0671  0.5404 -0.3321
  155SAPE  H11X17322   1.378   7.453   8.110  0.1699  0.6470 -0.8791
  155SAPE  H11Y17323   1.513   7.548   8.177 -0.1269 -0.2054  0.0317
  155SAPE  C31217324   1.404   7.649   8.014 -0.3134  0.2592  0.1947
  155SAPE  H12X17325   1.299   7.666   7.984 -0.0432 -0.0340 -0.9833
  155SAPE  H12Y17326   1.457   7.596   7.931 -0.9443  0.8150 -0.5729
  155SAPE  C31317327   1.477   7.780   8.027  0.0869 -0.4768 -0.0246
  155SAPE  H13X17328   1.575   7.762   8.075 -0.0526 -3.0690 -0.5596
  155SAPE  H13Y17329   1.417   7.839   8.100 -0.9204  1.0568 -2.0034
  155SAPE  C31417330   1.497   7.875   7.911 -0.1380 -0.4945  0.2497
  155SAPE  H14X17331   1.412   7.940   7.880 -0.5158 -0.9770  0.2630
  155SAPE  H14Y17332   1.513   7.804   7.826  2.0829 -0.4237  0.5484
  155SAPE  C31517333   1.632   7.943   7.902  0.5120 -0.2383 -0.4409
  155SAPE  H15X17334   1.710   7.869   7.930  0.3476  0.5776  2.4232
  155SAPE  H15Y17335   1.643   8.013   7.988  0.5546 -0.4043 -0.3116
  155SAPE  C31617336   1.653   8.025   7.773  0.1149  0.4493 -0.2323
  155SAPE  H16X17337   1.640   7.958   7.685  0.2514 -0.0619  0.1287
  155SAPE  H16Y17338   1.755   8.068   7.771  0.4960 -0.3937  0.3582
  155SAPE  C31717339   1.548   8.141   7.743 -0.7892  0.4010  0.1288
  155SAPE  H17X17340   1.444   8.104   7.745  0.0272 -2.0611  0.9574
  155SAPE  H17Y17341   1.563   8.179   7.640 -2.3842  0.2531 -0.1785
  155SAPE  C31817342   1.574   8.266   7.831 -0.4583  0.2476 -0.8017
  155SAPE  H18X17343   1.679   8.303   7.824 -0.2758  0.3579  1.8239
  155SAPE  H18Y17344   1.582   8.236   7.937 -0.8234 -1.1766 -1.1608
  155SAPE  H18Z17345   1.493   8.342   7.826 -1.4536 -0.7976 -1.1253
  156SAPE     N17346   0.024   5.561   9.936  0.2324 -0.0957  0.0920
  156SAPE   HN117347   0.096   5.551   9.862 -1.6626  0.4389 -1.9430
  156SAPE   HN217348  -0.006   5.474   9.986 -1.4629  1.1517  1.3852
  156SAPE   HN317349  -0.056   5.611   9.891  1.5176  2.0047  0.0145
  156SAPE   C1217350   0.071   5.668  10.027  0.4581 -0.6180 -1.0967
  156SAPE  H12A17351   0.182   5.665  10.020  0.5365 -1.3792  0.1651
  156SAPE  H12B17352   0.028   5.651  10.128  0.1182  0.8198 -0.9861
  156SAPE   C1117353   0.032   5.808   9.977  0.1843 -0.6488  0.7189
  156SAPE  H11A17354   0.073   5.815   9.874  1.3015  1.2000  1.2458
  156SAPE  H11B17355   0.078   5.886  10.041  2.7567  0.1772 -1.8987
  156SAPE     P17356  -0.187   5.955   9.910  0.2876  0.4062  0.0130
  156SAPE   O1317357  -0.331   5.924   9.925 -0.5334 -1.0256 -0.2976
  156SAPE   O1417358  -0.135   6.084   9.962 -0.0632 -0.1778  0.8455
  156SAPE   O1217359  -0.109   5.829   9.982 -0.0296  0.0596 -0.3221
  156SAPE   O1117360  -0.152   5.938   9.758 -0.1621 -0.4019 -0.9428
  156SAPE    C117361  -0.050   6.030   9.705  0.7205  0.2129 -0.1980
  156SAPE    HA17362  -0.090   6.131   9.682  2.9889  0.9615 -1.0749
  156SAPE    HB17363   0.044   6.040   9.765  0.5727 -0.7049  0.2106
  156SAPE    C217364  -0.003   5.965   9.564  0.2729  0.1748 -0.2951
  156SAPE    HS17365   0.034   6.043   9.494  2.3930  1.6612  2.2653
  156SAPE   O2117366  -0.104   5.882   9.503  0.1411  0.1090 -0.1093
  156SAPE   C2117367  -0.209   5.948   9.457  0.0388  0.9453 -0.3579
  156SAPE   O2217368  -0.232   6.065   9.469  0.4679  0.1869  0.2863
  156SAPE   C2217369  -0.295   5.852   9.372  0.1739 -0.0314  0.8251
  156SAPE   H2R17370  -0.259   5.748   9.388  2.1908  0.6192  0.8218
  156SAPE   H2S17371  -0.402   5.853   9.404  0.0908  0.0618  0.5460
  156SAPE    C317372   0.127   5.880   9.569  0.1829 -0.0113 -0.2062
  156SAPE    HX17373   0.135   5.810   9.655  0.7085 -0.5516 -0.6777
  156SAPE    HY17374   0.202   5.959   9.592 -1.5772  0.9534  2.6567
  156SAPE   O3117375   0.167   5.823   9.440  0.0349 -0.0364 -0.9527
  156SAPE   C3117376   0.168   5.698   9.427 -0.7458 -0.1697  0.6409
  156SAPE   O3217377   0.150   5.611   9.508 -0.3824 -0.2537  0.2272
  156SAPE   C3217378   0.218   5.659   9.292  0.5230 -0.3782 -0.6207
  156SAPE   H2X17379   0.306   5.596   9.315  1.1356  0.7894  0.3386
  156SAPE   H2Y17380   0.238   5.745   9.224 -0.8462 -0.5997 -1.3527
  156SAPE   C2317381  -0.298   5.886   9.224  0.8815  0.0183 -0.7557
  156SAPE   H3R17382  -0.203   5.861   9.173  0.1001 -1.7757 -1.4155
  156SAPE   H3S17383  -0.315   5.995   9.211 -0.7498 -0.0084  0.8416
  156SAPE   C2417384  -0.412   5.818   9.152 -0.7871 -0.3917  0.2296
  156SAPE   H4R17385  -0.419   5.863   9.051 -1.1657 -1.1995 -0.1134
  156SAPE   H4S17386  -0.508   5.838   9.203 -0.2106 -2.0950  2.1660
  156SAPE   C2517387  -0.385   5.667   9.150 -0.4405  0.1345  0.2429
  156SAPE   H5R17388  -0.346   5.633   9.247 -0.1288  0.3246  0.1844
  156SAPE   C2617389  -0.398   5.579   9.051  0.0404  0.3484  0.6641
  156SAPE   H6R17390  -0.358   5.477   9.059  0.3930  0.4836  0.6463
  156SAPE   C2717391  -0.479   5.607   8.923 -0.2183  0.0748  0.7465
  156SAPE   H7R17392  -0.514   5.712   8.912 -2.6808 -0.6674  0.8950
  156SAPE   H7S17393  -0.573   5.549   8.937 -0.3968  0.3733  0.8055
  156SAPE   C2817394  -0.415   5.543   8.804  0.0860 -0.4190  0.1619
  156SAPE   H8R17395  -0.404   5.434   8.795  2.5254 -0.2061 -0.0341
  156SAPE   C2917396  -0.365   5.616   8.701  0.6187  0.3030 -0.8414
  156SAPE   H9R17397  -0.320   5.556   8.621  1.9738 -1.6538  1.2523
  156SAPE  C21017398  -0.365   5.769   8.687 -0.5614 -0.2905  0.6309
  156SAPE  H10R17399  -0.276   5.803   8.745  1.2802 -0.8456 -1.6967
  156SAPE  H10S17400  -0.457   5.816   8.726 -0.7391 -0.5473  0.5259
  156SAPE  C21117401  -0.347   5.814   8.542  0.0593  0.0406 -0.0397
  156SAPE  H11R17402  -0.240   5.815   8.515  0.7117 -0.4885  2.2765
  156SAPE  C21217403  -0.438   5.860   8.455 -0.2611  0.3968 -0.5733
  156SAPE  H12R17404  -0.404   5.888   8.355 -1.3997  1.7934 -0.6004
  156SAPE  C21317405  -0.587   5.880   8.480 -0.0563  0.2384 -0.4892
  156SAPE  H13R17406  -0.630   5.941   8.398  1.5861  1.0077 -0.8260
  156SAPE  H13S17407  -0.601   5.937   8.574 -0.3336 -0.5818 -0.0258
  156SAPE  C21417408  -0.657   5.748   8.511 -0.6840  0.0133  0.2458
  156SAPE  H14R17409  -0.637   5.708   8.611 -0.2680  1.5571  0.8098
  156SAPE  C21517410  -0.714   5.666   8.417  0.2420 -0.1246 -0.5148
  156SAPE  H15R17411  -0.758   5.571   8.449  2.6706 -1.0330  0.3449
  156SAPE  C21617412  -0.728   5.694   8.277 -0.3417 -0.6573  0.0592
  156SAPE  H16R17413  -0.640   5.655   8.221  0.4046  1.4092 -0.2927
  156SAPE  H16S17414  -0.738   5.802   8.254 -1.8764 -0.3791  1.8249
  156SAPE  C21717415  -0.855   5.629   8.212  0.0271 -0.5053  0.6613
  156SAPE  H17R17416  -0.857   5.518   8.216  0.8827 -0.7186 -2.5859
  156SAPE  H17S17417  -0.856   5.661   8.106  2.5597  2.8876  1.5089
  156SAPE  C21817418  -0.989   5.672   8.265 -0.1853 -0.1541 -0.4907
  156SAPE  H18R17419  -1.009   5.779   8.283 -1.4069 -0.3810 -0.3787
  156SAPE  H18S17420  -0.990   5.630   8.368  2.9370  2.3819  0.7344
  156SAPE  C21917421  -1.103   5.626   8.172  0.8838 -0.5816  0.0002
  156SAPE  H19R17422  -1.191   5.607   8.237  1.5515 -0.9276  0.8282
  156SAPE  H19S17423  -1.086   5.523   8.133  3.1970 -1.2906  2.5462
  156SAPE  C22017424  -1.129   5.734   8.065  0.3123  0.4076  0.4558
  156SAPE  H20R17425  -1.109   5.836   8.103  2.3034  1.5951 -3.2258
  156SAPE  H20S17426  -1.238   5.727   8.043  0.4113 -0.1520  0.1195
  156SAPE  H20T17427  -1.058   5.715   7.981 -0.3858 -0.2462 -0.0068
  156SAPE   C3317428   0.113   5.569   9.214  0.0989 -0.5479  0.2666
  156SAPE   H3X17429   0.088   5.491   9.289 -0.9793  0.1677  0.6807
  156SAPE   H3Y17430   0.168   5.514   9.135  0.3565 -0.8668  0.6635
  156SAPE   C3417431  -0.003   5.632   9.148  0.3515 -0.3519  0.3155
  156SAPE   H4X17432  -0.058   5.707   9.210  0.8127  1.0430 -0.9032
  156SAPE   H4Y17433  -0.077   5.553   9.125  1.9151 -1.4668 -1.1327
  156SAPE   C3517434   0.029   5.692   9.003 -0.0370  0.7106  0.0294
  156SAPE   H5X17435   0.127   5.746   9.007 -0.7449  2.0048  0.6146
  156SAPE   H5Y17436  -0.047   5.763   8.963 -0.8596 -1.1328 -1.9045
  156SAPE   C3617437   0.028   5.574   8.900 -0.4540 -0.6558  0.4152
  156SAPE   H6X17438  -0.073   5.542   8.866 -0.3395  0.5818 -1.1822
  156SAPE   H6Y17439   0.074   5.485   8.949 -0.3849  0.4986  2.5626
  156SAPE   C3717440   0.106   5.618   8.770  0.0429 -0.5671 -0.2362
  156SAPE   H7X17441   0.149   5.522   8.733  0.7721 -0.3863  0.1270
  156SAPE   H7Y17442   0.186   5.691   8.796  0.2837 -0.6416 -0.7532
  156SAPE   C3817443   0.010   5.667   8.661 -0.1679  0.7793  0.4099
  156SAPE   H8X17444  -0.050   5.754   8.694 -0.3428  0.6439  0.4474
  156SAPE   H8Y17445  -0.066   5.593   8.629 -0.0537  0.9458 -0.2632
  156SAPE   C3917446   0.085   5.703   8.532  0.1268 -0.4071 -0.2341
  156SAPE   H9X17447   0.154   5.617   8.515 -1.2442 -2.1604  2.3658
  156SAPE   H9Y17448   0.150   5.788   8.564 -0.0828 -0.0357 -0.7938
  156SAPE  C31017449  -0.000   5.725   8.411 -0.1445 -0.5350  0.8501
  156SAPE  H10X17450  -0.057   5.819   8.430  1.9743  0.6200  1.7598
  156SAPE  H10Y17451  -0.088   5.659   8.393 -0.6981  0.1913  0.8382
  156SAPE  C31117452   0.092   5.743   8.285 -0.0534 -0.2982 -0.5565
  156SAPE  H11X17453   0.179   5.807   8.309  1.1178 -0.4623 -3.8346
  156SAPE  H11Y17454   0.025   5.798   8.216 -3.0144  0.1209  2.3794
  156SAPE  C31217455   0.152   5.617   8.213  0.4047  1.0041  0.1593
  156SAPE  H12X17456   0.166   5.537   8.289 -0.5780  1.0003  0.3522
  156SAPE  H12Y17457   0.257   5.632   8.180  0.8813 -1.3562  0.4803
  156SAPE  C31317458   0.051   5.556   8.116 -0.3324 -0.5674 -0.2207
  156SAPE  H13X17459   0.027   5.635   8.041  1.4134  0.5074  0.2956
  156SAPE  H13Y17460  -0.045   5.541   8.171  1.4408  0.9781  3.5839
  156SAPE  C31417461   0.089   5.427   8.046  0.5114 -0.6241 -0.4980
  156SAPE  H14X17462   0.097   5.337   8.110 -3.6961 -1.5145 -0.9020
  156SAPE  H14Y17463   0.187   5.453   8.002  0.6602  1.0372  0.6992
  156SAPE  C31517464  -0.013   5.403   7.928 -0.3211 -0.2430  0.2255
  156SAPE  H15X17465  -0.009   5.482   7.850  0.1504 -0.3303  0.1565
  156SAPE  H15Y17466  -0.110   5.402   7.981 -0.4833  0.4151 -0.0379
  156SAPE  C31617467  -0.000   5.264   7.852 -0.0845 -0.5597 -0.4046
  156SAPE  H16X17468  -0.081   5.268   7.776  0.5367  0.3675 -1.0327
  156SAPE  H16Y17469  -0.013   5.183   7.927  0.3047 -1.7453 -1.5678
  156SAPE  C31717470   0.137   5.255   7.782 -0.7564  0.1886  0.2457
  156SAPE  H17X17471   0.213   5.273   7.860 -2.0689  0.0105  1.6183
  156SAPE  H17Y17472   0.129   5.340   7.710 -1.2381 -1.1160 -1.3069
  156SAPE  C31817473   0.177   5.128   7.723  0.2133 -0.2877 -0.0841
  156SAPE  H18X17474   0.172   5.039   7.790  1.6233  0.3895  0.9677
  156SAPE  H18Y17475   0.279   5.143   7.681  0.2842  2.1747  0.8481
  156SAPE  H18Z17476   0.118   5.095   7.635  0.9144 -1.3062 -0.1856
  157SAPE     N17477   5.821   6.534   9.752  0.2898  0.6863 -0.3988
  157SAPE   HN117478   5.871   6.571   9.835  0.3668  2.8439 -1.3305
  157SAPE   HN217479   5.777   6.603   9.687 -0.4592  0.7716  0.1825
  157SAPE   HN317480   5.737   6.483   9.786  2.6720 -2.7231  0.8469
  157SAPE   C1217481   5.903   6.421   9.695 -0.0080  0.4690  0.7054
  157SAPE  H12A17482   5.840   6.351   9.637  0.4569  0.9331 -0.3945
  157SAPE  H12B17483   5.933   6.356   9.779 -0.7612 -1.4930 -0.4754
  157SAPE   C1117484   6.022   6.474   9.611  0.0836 -0.5228 -0.1740
  157SAPE  H11A17485   5.984   6.557   9.548  0.4895  1.0501  1.5761
  157SAPE  H11B17486   6.058   6.394   9.543 -0.1851 -0.8266  0.0354
  157SAPE     P17487   6.244   6.454   9.750 -0.0839  0.2022  0.0522
  157SAPE   O1317488   6.333   6.558   9.819  0.5816 -0.3441  0.3534
  157SAPE   O1417489   6.193   6.345   9.840 -0.2591  0.0361 -0.0310
  157SAPE   O1217490   6.114   6.527   9.695 -0.0348 -0.0509  0.2595
  157SAPE   O1117491   6.323   6.395   9.625 -0.2337 -0.1447  0.1120
  157SAPE    C117492   6.353   6.489   9.520 -0.4955  0.4451  0.8859
  157SAPE    HA17493   6.306   6.589   9.532  2.2194  1.7699  1.0373
  157SAPE    HB17494   6.461   6.514   9.518 -0.3365 -0.2420  0.1049
  157SAPE    C217495   6.309   6.421   9.384  0.6617 -0.2091  0.2106
  157SAPE    HS17496   6.198   6.423   9.384  0.6018 -1.4146  1.8174
  157SAPE   O2117497   6.360   6.288   9.375  0.3083  0.4458  0.2044
  157SAPE   C2117498   6.272   6.206   9.314 -0.2198 -0.0167 -0.4984
  157SAPE   O2217499   6.169   6.248   9.254  0.1988 -0.0372  0.4611
  157SAPE   C2217500   6.315   6.062   9.332  0.0144  0.1746 -0.0630
  157SAPE   H2R17501   6.420   6.066   9.368  1.4373  2.1983 -3.9040
  157SAPE   H2S17502   6.248   6.020   9.410 -2.1443 -0.4822 -2.1500
  157SAPE    C317503   6.358   6.514   9.265  0.4660  0.1981 -0.7788
  157SAPE    HX17504   6.462   6.551   9.280  0.5122 -0.2405  0.0721
  157SAPE    HY17505   6.288   6.599   9.274  0.3063 -0.0773  0.8368
  157SAPE   O3117506   6.364   6.447   9.136 -0.8290  0.1876 -0.4525
  157SAPE   C3117507   6.337   6.522   9.036  0.0246 -0.6762  0.4909
  157SAPE   O3217508   6.303   6.638   9.044 -0.2160 -0.2544  0.1287
  157SAPE   C3217509   6.409   6.452   8.917  0.2003 -0.0805 -0.0320
  157SAPE   H2X17510   6.371   6.348   8.915  1.2546 -0.4784  0.2111
  157SAPE   H2Y17511   6.515   6.441   8.949  0.3115  0.0428 -0.3585
  157SAPE   C2317512   6.298   5.983   9.197  0.7795 -0.5180  0.2454
  157SAPE   H3R17513   6.198   6.001   9.152  1.3759  0.2311 -0.8354
  157SAPE   H3S17514   6.303   5.878   9.232  1.8532 -0.1859  1.1425
  157SAPE   C2417515   6.401   6.026   9.093 -0.2063 -0.4607  0.3218
  157SAPE   H4R17516   6.502   6.030   9.137 -0.1515  1.8949  0.0640
  157SAPE   H4S17517   6.398   6.132   9.061  0.2259 -0.3376  0.6961
  157SAPE   C2517518   6.395   5.922   8.979 -0.4818  0.5225  0.0088
  157SAPE   H5R17519   6.450   5.829   9.001 -0.6644  0.1673 -0.9835
  157SAPE   C2617520   6.352   5.949   8.852  0.7550  0.4556  0.6506
  157SAPE   H6R17521   6.391   5.881   8.775  1.6851  1.1104  0.5319
  157SAPE   C2717522   6.287   6.079   8.811  0.0973 -0.1186  0.1863
  157SAPE   H7R17523   6.359   6.132   8.745 -0.6800 -1.0788 -1.4944
  157SAPE   H7S17524   6.264   6.145   8.898 -3.1244 -1.8246  0.7771
  157SAPE   C2817525   6.159   6.058   8.729 -0.3429  0.1671  0.2363
  157SAPE   H8R17526   6.068   6.025   8.781 -0.6575  0.8925  0.1478
  157SAPE   C2917527   6.146   6.090   8.595 -0.1315  0.3887 -0.0007
  157SAPE   H9R17528   6.040   6.099   8.566 -0.5315 -0.3095  1.1784
  157SAPE  C21017529   6.253   6.135   8.498  0.4391  0.3737  0.8955
  157SAPE  H10R17530   6.349   6.083   8.522 -0.1316 -0.7685  0.7877
  157SAPE  H10S17531   6.279   6.241   8.518  1.2621  0.1503  1.0466
  157SAPE  C21117532   6.209   6.120   8.357  0.2064 -0.2040 -0.0604
  157SAPE  H11R17533   6.133   6.040   8.351 -0.9092  0.8969 -1.3807
  157SAPE  C21217534   6.240   6.200   8.248 -0.3751 -0.3521  0.4134
  157SAPE  H12R17535   6.202   6.162   8.152 -1.0432  0.5227  0.3200
  157SAPE  C21317536   6.343   6.308   8.247  0.2532  0.2893  0.7171
  157SAPE  H13R17537   6.396   6.294   8.150 -0.8681  0.5358  0.0391
  157SAPE  H13S17538   6.409   6.296   8.335  0.3228  1.1934  0.8036
  157SAPE  C21417539   6.293   6.448   8.253  0.1801  0.5566 -0.3771
  157SAPE  H14R17540   6.291   6.490   8.354 -1.0729  0.1194 -0.2032
  157SAPE  C21517541   6.245   6.522   8.149 -0.4616  0.1463  0.2553
  157SAPE  H15R17542   6.241   6.631   8.162 -0.8667  0.1481  0.1201
  157SAPE  C21617543   6.253   6.486   8.003  0.1116  0.0043  0.0110
  157SAPE  H16R17544   6.166   6.534   7.954 -0.1827 -0.5784 -0.0525
  157SAPE  H16S17545   6.241   6.377   7.982 -0.8145  0.2597 -0.8768
  157SAPE  C21717546   6.386   6.521   7.937 -0.2626  0.0270 -0.0385
  157SAPE  H17R17547   6.385   6.478   7.834  1.9546  0.7918 -0.4394
  157SAPE  H17S17548   6.463   6.465   7.995  1.1932  1.0828 -0.8584
  157SAPE  C21817549   6.421   6.669   7.952 -0.2158 -0.1172 -0.0031
  157SAPE  H18R17550   6.430   6.685   8.062  0.7685 -2.6604  0.3389
  157SAPE  H18S17551   6.335   6.721   7.904 -0.1582  1.8730  1.8701
  157SAPE  C21917552   6.551   6.712   7.896 -0.0772 -0.5339  0.1081
  157SAPE  H19R17553   6.549   6.666   7.795 -0.7085 -1.0244  0.3428
  157SAPE  H19S17554   6.637   6.662   7.946  1.9456  0.5086 -2.0948
  157SAPE  C22017555   6.556   6.866   7.895 -0.2223  0.5998  0.3676
  157SAPE  H20R17556   6.534   6.905   7.997 -1.7268 -0.2269  0.3938
  157SAPE  H20S17557   6.474   6.913   7.836 -1.0409  2.4424  2.8013
  157SAPE  H20T17558   6.651   6.903   7.851  0.7708 -2.8849 -0.7241
  157SAPE   C3317559   6.384   6.523   8.786 -0.1412 -0.5980  0.2508
  157SAPE   H3X17560   6.443   6.618   8.787  1.0768 -1.2434 -2.4121
  157SAPE   H3Y17561   6.274   6.534   8.783 -0.0453  0.2812 -1.2314
  157SAPE   C3417562   6.422   6.455   8.656 -0.6023  0.9783  0.1767
  157SAPE   H4X17563   6.386   6.505   8.564 -0.8361 -0.4910 -0.5595
  157SAPE   H4Y17564   6.381   6.353   8.645 -1.0165  1.1507  0.1264
  157SAPE   C3517565   6.573   6.454   8.635 -0.4799  0.0592  0.4874
  157SAPE   H5X17566   6.612   6.390   8.717 -2.0589 -0.5126  0.8447
  157SAPE   H5Y17567   6.618   6.553   8.653 -0.6282 -0.0659  1.6387
  157SAPE   C3617568   6.616   6.412   8.494 -0.5902  1.0791 -0.0436
  157SAPE   H6X17569   6.585   6.481   8.413 -0.0804 -1.5902 -2.7251
  157SAPE   H6Y17570   6.571   6.313   8.468  1.5808  0.0448 -0.1517
  157SAPE   C3717571   6.767   6.384   8.495  0.2577  0.2918 -0.0021
  157SAPE   H7X17572   6.788   6.314   8.579 -1.2479  0.9881  1.0019
  157SAPE   H7Y17573   6.816   6.473   8.539  0.7931 -1.0450  2.2797
  157SAPE   C3817574   6.827   6.340   8.370  0.4037  0.5560  0.1484
  157SAPE   H8X17575   6.937   6.357   8.371  0.4322  0.3476  0.7363
  157SAPE   H8Y17576   6.789   6.414   8.297 -1.9125 -1.3146 -0.6749
  157SAPE   C3917577   6.795   6.191   8.320 -0.1812 -0.4256 -0.6255
  157SAPE   H9X17578   6.685   6.183   8.308 -0.2479 -0.1849 -0.1912
  157SAPE   H9Y17579   6.821   6.118   8.400 -0.7166  0.0880  0.0253
  157SAPE  C31017580   6.863   6.156   8.187 -0.6062 -0.8283  0.0192
  157SAPE  H10X17581   6.974   6.157   8.194 -0.6096  0.6092  0.1839
  157SAPE  H10Y17582   6.844   6.239   8.117 -0.3149 -0.0964  0.7851
  157SAPE  C31117583   6.832   6.029   8.105  0.1367  0.0091  0.1633
  157SAPE  H11X17584   6.866   5.935   8.153 -2.4550 -1.7262 -1.1094
  157SAPE  H11Y17585   6.893   6.030   8.012 -0.9953 -0.0469 -0.6156
  157SAPE  C31217586   6.684   6.014   8.068  0.2518 -0.2660 -0.4130
  157SAPE  H12X17587   6.632   6.112   8.062 -0.7436 -0.7851 -0.6274
  157SAPE  H12Y17588   6.630   5.968   8.154  0.4950  2.3593  1.2437
  157SAPE  C31317589   6.662   5.942   7.934  0.9014  0.0746  0.0086
  157SAPE  H13X17590   6.705   5.841   7.952 -0.1652 -0.8292 -2.1566
  157SAPE  H13Y17591   6.717   5.995   7.853  2.5275 -0.5728  0.6595
  157SAPE  C31417592   6.512   5.918   7.912 -0.4037  0.0606 -0.4941
  157SAPE  H14X17593   6.468   6.018   7.894 -1.1725 -0.5499 -2.2614
  157SAPE  H14Y17594   6.460   5.876   8.000 -1.9323  1.4747 -0.6844
  157SAPE  C31517595   6.485   5.833   7.789 -0.1384  0.8794 -0.0333
  157SAPE  H15X17596   6.484   5.726   7.820  0.0340  1.3111  1.5546
  157SAPE  H15Y17597   6.557   5.848   7.706  0.7581  0.5463  0.6598
  157SAPE  C31617598   6.343   5.855   7.733 -0.2219 -0.1594 -0.7355
  157SAPE  H16X17599   6.287   5.850   7.829  1.3853  1.4044  0.3286
  157SAPE  H16Y17600   6.315   5.771   7.665 -0.6226 -0.3335 -0.3576
  157SAPE  C31717601   6.313   5.983   7.655  0.9923 -0.1342  0.2119
  157SAPE  H17X17602   6.355   6.068   7.713  0.1733  0.7597 -0.4707
  157SAPE  H17Y17603   6.205   6.009   7.661  1.1951  1.0884 -1.0500
  157SAPE  C31817604   6.351   5.955   7.511 -0.1949  0.4320  0.1984
  157SAPE  H18X17605   6.460   5.961   7.491 -0.4496  0.1131 -1.4439
  157SAPE  H18Y17606   6.309   6.038   7.450 -0.4161  0.8137  0.8493
  157SAPE  H18Z17607   6.318   5.860   7.463  0.6900  0.5543 -0.6686
  158SAPE     N17608   6.499   6.193   9.613 -0.1249 -0.0648  0.5696
  158SAPE   HN117609   6.421   6.251   9.576  0.0394  0.1886  0.6261
  158SAPE   HN217610   6.574   6.196   9.541 -1.4683 -2.3190 -1.0736
  158SAPE   HN317611   6.463   6.095   9.611 -3.2046  0.9668  0.8170
  158SAPE   C1217612   6.530   6.228   9.755  0.6252  0.1004 -0.0767
  158SAPE  H12A17613   6.464   6.179   9.829 -1.4081 -0.0883 -1.9280
  158SAPE  H12B17614   6.508   6.336   9.774  0.5698  0.0817 -0.0341
  158SAPE   C1117615   6.683   6.216   9.777  0.0387 -0.3350  0.2581
  158SAPE  H11A17616   6.713   6.112   9.752 -3.0925 -1.0848 -0.7551
  158SAPE  H11B17617   6.700   6.230   9.886 -1.2411  1.2604  0.2950
  158SAPE     P17618   6.811   6.446   9.740 -0.1814  0.0091  0.4337
  158SAPE   O1317619   6.701   6.543   9.725  0.4063  0.1056 -0.3423
  158SAPE   O1417620   6.881   6.438   9.871  0.6790 -0.1140  0.2793
  158SAPE   O1217621   6.763   6.307   9.698  0.3877  0.3403 -0.0235
  158SAPE   O1117622   6.917   6.484   9.625 -0.1024  0.5308 -0.2036
  158SAPE    C117623   6.931   6.413   9.498  0.1945 -0.8020 -0.5830
  158SAPE    HA17624   6.926   6.302   9.511  0.8594 -0.5756  2.4859
  158SAPE    HB17625   6.845   6.439   9.434  2.2152  1.3730 -2.6188
  158SAPE    C217626   7.062   6.460   9.414  0.5924  0.1486 -0.4755
  158SAPE    HS17627   7.154   6.473   9.476  0.5748 -0.9058 -0.2125
  158SAPE   O2117628   7.031   6.584   9.341  0.4708  0.0231  0.2017
  158SAPE   C2117629   7.140   6.645   9.285  0.6809 -0.3384 -0.4851
  158SAPE   O2217630   7.255   6.631   9.320 -0.3311  0.0231 -0.5248
  158SAPE   C2217631   7.082   6.735   9.176  0.5139  0.4373 -0.0613
  158SAPE   H2R17632   6.981   6.713   9.137  0.1697  1.2057  0.3866
  158SAPE   H2S17633   7.080   6.832   9.229  2.0250 -0.3295  1.5146
  158SAPE    C317634   7.106   6.350   9.318  0.0617  0.5004 -0.2155
  158SAPE    HX17635   7.121   6.266   9.390 -0.2310  0.5920 -0.0477
  158SAPE    HY17636   7.203   6.372   9.268  0.7257  0.7125  1.1268
  158SAPE   O3117637   7.002   6.316   9.222  0.1592 -0.0155  0.3411
  158SAPE   C3117638   7.032   6.211   9.152  0.3756 -0.3422  0.6213
  158SAPE   O3217639   7.119   6.125   9.174  0.8439 -0.3692 -0.4592
  158SAPE   C3217640   6.937   6.204   9.029 -0.2894  0.0004 -0.6207
  158SAPE   H2X17641   6.905   6.303   8.988 -4.3224 -1.0125 -0.3957
  158SAPE   H2Y17642   6.849   6.152   9.073  1.1735 -2.2817 -0.2247
  158SAPE   C2317643   7.180   6.751   9.058 -0.3695 -1.0401  0.2560
  158SAPE   H3R17644   7.264   6.798   9.114 -1.7738  0.0499  1.5456
  158SAPE   H3S17645   7.149   6.830   8.987 -0.8516 -0.9782  0.5251
  158SAPE   C2417646   7.225   6.633   8.980  0.9050  0.0959  0.6278
  158SAPE   H4R17647   7.283   6.578   9.056  2.0531  1.7275  0.9875
  158SAPE   H4S17648   7.298   6.678   8.908  0.0996  0.8405  0.2592
  158SAPE   C2517649   7.118   6.557   8.909  0.3127 -0.1633  0.2775
  158SAPE   H5R17650   7.021   6.566   8.959  0.1149  0.8250 -0.2496
  158SAPE   C2617651   7.139   6.512   8.778 -0.2301 -1.0039  0.0747
  158SAPE   H6R17652   7.056   6.464   8.722 -0.2645 -0.0116 -0.7526
  158SAPE   C2717653   7.265   6.521   8.689  0.3416 -0.3850  0.3846
  158SAPE   H7R17654   7.310   6.419   8.683 -1.0896 -1.0563  0.4198
  158SAPE   H7S17655   7.343   6.574   8.748  2.1399 -0.4793 -1.7854
  158SAPE   C2817656   7.223   6.577   8.560 -0.0395 -0.5006  0.8365
  158SAPE   H8R17657   7.187   6.500   8.490  1.1224  2.2409 -3.1187
  158SAPE   C2917658   7.194   6.704   8.532  0.0221  0.2028  0.0212
  158SAPE   H9R17659   7.156   6.730   8.432 -1.4599 -0.9796  0.2313
  158SAPE  C21017660   7.228   6.819   8.621 -0.6435 -0.3008 -0.1804
  158SAPE  H10R17661   7.275   6.901   8.561 -2.8073  2.8543  2.0967
  158SAPE  H10S17662   7.297   6.787   8.701 -0.3939  2.3077  0.7588
  158SAPE  C21117663   7.112   6.885   8.693  0.0382  0.3596 -0.1797
  158SAPE  H11R17664   7.098   6.850   8.797  3.4647 -0.6679  0.0581
  158SAPE  C21217665   7.035   6.983   8.639  0.2278  0.1046  0.0169
  158SAPE  H12R17666   6.950   7.014   8.702 -0.0306  1.0330 -0.7730
  158SAPE  C21317667   7.038   7.039   8.501 -0.3357 -0.1082 -0.9813
  158SAPE  H13R17668   7.083   6.964   8.432 -0.2644 -0.8879 -0.1091
  158SAPE  H13S17669   7.109   7.123   8.500  0.7165 -0.9235 -4.0871
  158SAPE  C21417670   6.897   7.078   8.460 -0.3248  0.5221 -0.6380
  158SAPE  H14R17671   6.823   6.998   8.475  0.6935  0.0335  2.5435
  158SAPE  C21517672   6.855   7.188   8.409 -0.1727  0.1227  0.0077
  158SAPE  H15R17673   6.749   7.185   8.381 -0.1295  0.6384 -0.2161
  158SAPE  C21617674   6.940   7.303   8.360  0.1305  0.6250 -0.6987
  158SAPE  H16R17675   7.001   7.339   8.446 -0.5450  3.1059 -1.1795
  158SAPE  H16S17676   6.870   7.386   8.339 -0.6312 -0.6283 -3.6100
  158SAPE  C21717677   7.032   7.267   8.237 -1.0565  0.5049 -0.5733
  158SAPE  H17R17678   6.977   7.205   8.162 -2.0485 -1.6876  1.8299
  158SAPE  H17S17679   7.113   7.201   8.274 -1.8881 -0.2079 -0.0027
  158SAPE  C21817680   7.107   7.388   8.183  0.3296 -0.0859 -0.3560
  158SAPE  H18R17681   7.177   7.417   8.265  0.8743 -3.3713  0.4767
  158SAPE  H18S17682   7.031   7.466   8.162 -1.4656 -1.2373  1.5060
  158SAPE  C21917683   7.200   7.346   8.061 -0.2762 -0.8260  0.1806
  158SAPE  H19R17684   7.256   7.431   8.017  2.5906 -2.9044 -0.4613
  158SAPE  H19S17685   7.121   7.320   7.988 -1.0276  0.8285  0.3387
  158SAPE  C22017686   7.312   7.232   8.062  0.2241 -0.1868 -0.6299
  158SAPE  H20R17687   7.400   7.258   8.124 -0.0334  0.7106 -0.6207
  158SAPE  H20S17688   7.343   7.212   7.957  1.3635  0.0496 -0.3461
  158SAPE  H20T17689   7.265   7.137   8.098 -0.2289 -1.3524 -3.9431
  158SAPE   C3317690   7.006   6.120   8.920  0.3904 -0.7237  0.0043
  158SAPE   H3X17691   7.008   6.016   8.959 -1.6531  0.1472  2.7585
  158SAPE   H3Y17692   7.113   6.149   8.907  0.5622  0.4339  3.0866
  158SAPE   C3417693   6.931   6.136   8.788  0.2763 -0.3009 -0.1617
  158SAPE   H4X17694   6.924   6.241   8.755 -0.4897 -0.3023 -0.0384
  158SAPE   H4Y17695   6.826   6.103   8.804 -0.6628  2.2193 -0.7027
  158SAPE   C3517696   6.995   6.051   8.678 -0.1065  0.3204  0.1657
  158SAPE   H5X17697   6.940   6.058   8.582 -0.7325  2.2734  0.6062
  158SAPE   H5Y17698   7.007   5.946   8.713 -3.6809 -0.2174  0.1440
  158SAPE   C3617699   7.131   6.109   8.651 -0.7450 -0.4182 -0.1815
  158SAPE   H6X17700   7.207   6.067   8.720 -0.2161 -0.7055 -0.9288
  158SAPE   H6Y17701   7.126   6.216   8.681  0.0458 -0.1851 -0.8387
  158SAPE   C3717702   7.172   6.094   8.504  0.0264 -0.1013 -0.3496
  158SAPE   H7X17703   7.087   6.113   8.435  1.2316  1.6905 -1.4070
  158SAPE   H7Y17704   7.208   5.993   8.480  1.1639 -0.5039  2.5798
  158SAPE   C3817705   7.273   6.196   8.449  0.0533  0.4054 -0.0811
  158SAPE   H8X17706   7.375   6.153   8.442 -0.5944 -1.9342  3.0417
  158SAPE   H8Y17707   7.288   6.285   8.514  1.8584  0.1508 -0.0971
  158SAPE   C3917708   7.236   6.241   8.304  0.5183  0.1901 -0.1587
  158SAPE   H9X17709   7.136   6.287   8.320  0.0568 -0.1322 -1.9673
  158SAPE   H9Y17710   7.218   6.150   8.244  0.7154  0.2671 -0.3355
  158SAPE  C31017711   7.326   6.331   8.221  0.2117 -0.3844 -0.4191
  158SAPE  H10X17712   7.413   6.280   8.175  0.8328  0.6500 -0.4039
  158SAPE  H10Y17713   7.373   6.394   8.299  0.4648 -1.3777  0.2447
  158SAPE  C31117714   7.249   6.412   8.117 -0.8310 -0.0473  1.2330
  158SAPE  H11X17715   7.305   6.504   8.091 -0.3351 -0.7087 -0.2051
  158SAPE  H11Y17716   7.152   6.445   8.160 -2.9113 -0.2574 -2.7973
  158SAPE  C31217717   7.215   6.327   7.990 -0.4563  1.1242  0.1884
  158SAPE  H12X17718   7.147   6.392   7.932  1.4130  1.3590 -1.8793
  158SAPE  H12Y17719   7.163   6.233   8.016  0.5658  0.7261  0.8667
  158SAPE  C31317720   7.332   6.291   7.892  0.8462  0.6567 -0.1219
  158SAPE  H13X17721   7.288   6.238   7.805  1.1912  1.9090 -1.0893
  158SAPE  H13Y17722   7.412   6.227   7.936  0.5139  0.5922  0.3904
  158SAPE  C31417723   7.405   6.412   7.836  0.2988 -0.2876 -0.4576
  158SAPE  H14X17724   7.445   6.484   7.911 -0.7312  2.3629 -2.3012
  158SAPE  H14Y17725   7.338   6.477   7.776 -1.9850  0.8169  2.9681
  158SAPE  C31517726   7.523   6.375   7.741  0.3014  0.0256  0.4192
  158SAPE  H15X17727   7.546   6.452   7.664 -0.6924 -0.4971 -0.4292
  158SAPE  H15Y17728   7.491   6.281   7.690  4.8006 -0.7018 -1.5590
  158SAPE  C31617729   7.642   6.337   7.831 -0.2069  0.1789  0.2289
  158SAPE  H16X17730   7.613   6.252   7.896 -1.1098  0.0123 -0.3786
  158SAPE  H16Y17731   7.660   6.419   7.905 -1.0577 -1.6527  2.5938
  158SAPE  C31717732   7.771   6.298   7.748 -0.2057 -0.6945 -0.1628
  158SAPE  H17X17733   7.744   6.235   7.661 -0.3941 -0.4532 -0.2764
  158SAPE  H17Y17734   7.845   6.239   7.807 -1.8486 -3.6331 -0.8630
  158SAPE  C31817735   7.847   6.408   7.675  0.4417  0.2057 -0.3392
  158SAPE  H18X17736   7.880   6.491   7.741  2.5621 -1.5858  0.9823
  158SAPE  H18Y17737   7.771   6.450   7.605 -0.3354  1.4061  1.1531
  158SAPE  H18Z17738   7.934   6.368   7.619  0.3945 -0.0686 -0.2161
  159SAPE     N17739   3.874   2.425   5.615  0.1514  0.1493  0.1645
  159SAPE   HN117740   3.969   2.434   5.575 -0.0458 -0.8796 -0.5957
  159SAPE   HN217741   3.852   2.496   5.688 -0.4193 -0.6767  0.8124
  159SAPE   HN317742   3.873   2.337   5.669  0.8986  0.3870  0.5763
  159SAPE   C1217743   3.766   2.451   5.518 -0.0807 -0.4721  0.5459
  159SAPE  H12A17744   3.786   2.398   5.423  2.1100  1.4787 -0.2041
  159SAPE  H12B17745   3.769   2.560   5.493 -1.7980 -0.5776 -0.2590
  159SAPE   C1117746   3.626   2.418   5.572 -0.2541  0.2883  0.5118
  159SAPE  H11A17747   3.546   2.433   5.496  0.2354 -0.5718 -0.1889
  159SAPE  H11B17748   3.603   2.495   5.648  4.0716  1.9480  0.4054
  159SAPE     P17749   3.529   2.232   5.731  0.5909 -0.3189  0.4666
  159SAPE   O1317750   3.409   2.315   5.745  0.0287  0.3232 -0.3547
  159SAPE   O1417751   3.502   2.091   5.695  0.0955  0.3534  0.5783
  159SAPE   O1217752   3.626   2.290   5.630  0.1098 -0.2850 -0.1557
  159SAPE   O1117753   3.599   2.230   5.870 -0.0864 -0.2816 -0.8443
  159SAPE    C117754   3.706   2.307   5.917 -0.4263 -0.6087  0.1735
  159SAPE    HA17755   3.791   2.241   5.946  0.4529  1.3546  2.3872
  159SAPE    HB17756   3.755   2.370   5.840 -0.2982  0.3298  1.0073
  159SAPE    C217757   3.672   2.390   6.036 -0.1723  0.2803  0.1951
  159SAPE    HS17758   3.766   2.440   6.069 -1.0350  1.0114  1.6291
  159SAPE   O2117759   3.605   2.305   6.140 -0.6063 -0.3756 -0.6389
  159SAPE   C2117760   3.677   2.281   6.250 -1.0648  0.2467 -0.5103
  159SAPE   O2217761   3.781   2.341   6.273 -0.0812 -0.0065  0.3296
  159SAPE   C2217762   3.607   2.182   6.338 -0.1676 -0.5887 -0.0789
  159SAPE   H2R17763   3.527   2.134   6.278  0.8841  0.0386 -2.0835
  159SAPE   H2S17764   3.685   2.106   6.362  0.4688 -0.0782 -0.4816
  159SAPE    C317765   3.571   2.498   5.988  0.6555 -0.6379 -0.1689
  159SAPE    HX17766   3.476   2.447   5.962 -0.9235  2.1377 -0.3165
  159SAPE    HY17767   3.615   2.546   5.898 -0.4002  0.2453 -0.2419
  159SAPE   O3117768   3.543   2.599   6.089  0.8889 -0.5701 -0.5453
  159SAPE   C3117769   3.612   2.710   6.079  0.1095 -0.8664 -0.0150
  159SAPE   O3217770   3.689   2.737   5.990 -0.1211 -0.5402  0.4368
  159SAPE   C3217771   3.577   2.795   6.196  0.0327  0.0944 -0.2251
  159SAPE   H2X17772   3.466   2.796   6.192 -0.0096  0.7360  0.8541
  159SAPE   H2Y17773   3.618   2.896   6.178  2.5453 -0.9296 -0.7434
  159SAPE   C2317774   3.559   2.256   6.464  0.0086  0.0969 -0.1556
  159SAPE   H3R17775   3.637   2.329   6.496  1.7256 -1.7613  0.0714
  159SAPE   H3S17776   3.576   2.190   6.552 -0.8305  1.2540  0.9035
  159SAPE   C2417777   3.422   2.322   6.453  0.0856  0.2137 -0.0889
  159SAPE   H4R17778   3.421   2.399   6.373 -0.2278  0.9594  0.6104
  159SAPE   H4S17779   3.411   2.379   6.548  0.1653  1.3798 -0.7519
  159SAPE   C2517780   3.306   2.229   6.441  0.1770 -0.0712 -0.0031
  159SAPE   H5R17781   3.276   2.218   6.335  2.4153  1.4467 -0.8754
  159SAPE   C2617782   3.255   2.172   6.556  0.4714  0.1551  0.4395
  159SAPE   H6R17783   3.172   2.102   6.539 -0.3554  0.9562  1.1449
  159SAPE   C2717784   3.286   2.202   6.703  0.0887  0.4658 -0.5504
  159SAPE   H7R17785   3.335   2.301   6.708  0.5888  0.2457 -1.0129
  159SAPE   H7S17786   3.347   2.122   6.750 -0.4522  1.1318  1.3749
  159SAPE   C2817787   3.161   2.197   6.786  1.2828 -0.8021 -0.1980
  159SAPE   H8R17788   3.066   2.157   6.748 -0.4898  1.0620  1.9758
  159SAPE   C2917789   3.170   2.215   6.923 -0.3196  0.2050 -0.2769
  159SAPE   H9R17790   3.082   2.215   6.988  0.4176 -0.6991  0.7367
  159SAPE  C21017791   3.292   2.257   7.004  0.1544  0.2547  0.4485
  159SAPE  H10R17792   3.376   2.192   6.970  0.4990  1.1133 -0.4227
  159SAPE  H10S17793   3.279   2.229   7.110  1.9053 -0.5174  0.5071
  159SAPE  C21117794   3.313   2.407   6.995  0.2206 -0.9785 -0.5308
  159SAPE  H11R17795   3.304   2.452   6.895 -0.8153  0.0196  0.0062
  159SAPE  C21217796   3.350   2.491   7.095  0.0163 -0.1089  0.3813
  159SAPE  H12R17797   3.368   2.593   7.060 -2.6476 -0.9107 -4.0075
  159SAPE  C21317798   3.376   2.465   7.243 -0.1554  0.1196  0.3662
  159SAPE  H13R17799   3.480   2.427   7.250  0.4100  1.4699 -0.3022
  159SAPE  H13S17800   3.302   2.393   7.283  1.5637 -0.6867  2.2403
  159SAPE  C21417801   3.371   2.594   7.329  0.6073  0.0718 -0.2344
  159SAPE  H14R17802   3.276   2.650   7.319 -0.7079 -1.9847  0.0799
  159SAPE  C21517803   3.471   2.655   7.394 -0.2237 -0.0609 -0.3775
  159SAPE  H15R17804   3.459   2.754   7.441  0.9565  0.6203 -1.4245
  159SAPE  C21617805   3.610   2.596   7.412 -0.4598 -0.3533 -0.7506
  159SAPE  H16R17806   3.630   2.496   7.368  3.4166 -0.2909  0.4355
  159SAPE  H16S17807   3.636   2.595   7.520  0.1041  1.6117 -0.8256
  159SAPE  C21717808   3.708   2.684   7.337  0.0455  0.7372  0.0956
  159SAPE  H17R17809   3.701   2.791   7.366  0.9684  0.5785  0.9716
  159SAPE  H17S17810   3.672   2.670   7.233 -0.4604 -1.6096  0.5285
  159SAPE  C21817811   3.858   2.639   7.335  0.4568  0.8758  0.6470
  159SAPE  H18R17812   3.900   2.669   7.236  1.5031 -0.9795  0.4741
  159SAPE  H18S17813   3.858   2.528   7.338  1.1951  0.8791  1.1098
  159SAPE  C21917814   3.945   2.677   7.446 -0.1779  0.5857  0.1033
  159SAPE  H19R17815   4.040   2.623   7.427 -0.7646 -0.3699 -0.1762
  159SAPE  H19S17816   3.897   2.649   7.542 -0.1097  1.6289  0.4543
  159SAPE  C22017817   3.977   2.828   7.446  1.4913  0.5193  1.0163
  159SAPE  H20R17818   4.059   2.844   7.520  2.7208 -1.8631  0.2796
  159SAPE  H20S17819   3.892   2.887   7.484  1.3888  1.2738 -0.3418
  159SAPE  H20T17820   4.009   2.864   7.346 -2.0906 -3.0168 -1.7522
  159SAPE   C3317821   3.592   2.747   6.337 -0.1112 -1.0445  0.2449
  159SAPE   H3X17822   3.702   2.731   6.348  0.2533 -0.7496 -2.3326
  159SAPE   H3Y17823   3.555   2.643   6.341 -1.6533 -0.5401 -0.3226
  159SAPE   C3417824   3.523   2.831   6.435 -0.1415 -0.6588 -0.7814
  159SAPE   H4X17825   3.415   2.807   6.442 -0.3524  0.5041  0.3531
  159SAPE   H4Y17826   3.545   2.933   6.396  0.0509 -0.6453 -0.6430
  159SAPE   C3517827   3.589   2.824   6.580 -0.8310 -0.3378  0.7488
  159SAPE   H5X17828   3.526   2.891   6.642  1.1483  1.9690  0.4127
  159SAPE   H5Y17829   3.688   2.871   6.565 -0.5087 -0.4880  2.2698
  159SAPE   C3617830   3.593   2.678   6.630  0.1675 -0.1465 -0.0834
  159SAPE   H6X17831   3.671   2.625   6.571 -1.6365 -1.0558 -1.7629
  159SAPE   H6Y17832   3.497   2.628   6.606 -0.7987  1.1341  0.9399
  159SAPE   C3717833   3.629   2.666   6.781  0.0157  0.1618 -0.8582
  159SAPE   H7X17834   3.558   2.734   6.832 -0.1642 -1.6943  1.5168
  159SAPE   H7Y17835   3.728   2.713   6.801  1.3840 -2.6324 -0.6267
  159SAPE   C3817836   3.634   2.526   6.827  0.2495 -0.1320  0.2619
  159SAPE   H8X17837   3.540   2.467   6.817  0.7073 -1.1324  1.4962
  159SAPE   H8Y17838   3.644   2.526   6.938  0.0248 -1.0411  0.2931
  159SAPE   C3917839   3.756   2.445   6.776 -1.3270 -0.5020  0.5390
  159SAPE   H9X17840   3.853   2.478   6.819 -0.1305 -3.7467  0.6061
  159SAPE   H9Y17841   3.756   2.456   6.666 -0.5363  2.8731  0.7823
  159SAPE  C31017842   3.749   2.289   6.799  0.7504 -0.5427  0.3533
  159SAPE  H10X17843   3.845   2.243   6.769  1.0428  0.1773  0.1471
  159SAPE  H10Y17844   3.661   2.263   6.737 -1.1843  3.0612  1.3115
  159SAPE  C31117845   3.726   2.238   6.942 -0.0554 -0.3927  0.7264
  159SAPE  H11X17846   3.700   2.130   6.943  0.1371 -0.4423  0.5707
  159SAPE  H11Y17847   3.632   2.292   6.967 -0.2654 -1.0779  1.4498
  159SAPE  C31217848   3.841   2.263   7.040 -0.2894 -0.6410 -0.3271
  159SAPE  H12X17849   3.857   2.373   7.030 -0.2897 -0.5369  0.7531
  159SAPE  H12Y17850   3.934   2.214   7.004 -0.8157 -1.4736 -0.5657
  159SAPE  C31317851   3.802   2.218   7.184  0.0991  0.4130 -0.3332
  159SAPE  H13X17852   3.775   2.110   7.181 -0.6144  0.5931 -0.8844
  159SAPE  H13Y17853   3.710   2.272   7.217 -0.8984 -1.5631  0.3093
  159SAPE  C31417854   3.921   2.230   7.281  0.0387  0.0558  0.1755
  159SAPE  H14X17855   3.964   2.331   7.260  2.0521 -0.8000 -0.1044
  159SAPE  H14Y17856   4.002   2.159   7.253  1.4135  0.5329  2.6352
  159SAPE  C31517857   3.881   2.228   7.435 -0.3271  0.2407  0.3767
  159SAPE  H15X17858   3.861   2.120   7.453 -1.5124  0.7044  2.0618
  159SAPE  H15Y17859   3.791   2.293   7.441 -0.5617  0.3768 -2.7982
  159SAPE  C31617860   3.993   2.280   7.528 -0.5103  0.6438  0.2407
  159SAPE  H16X17861   4.046   2.368   7.486  0.0775  1.6340  2.8498
  159SAPE  H16Y17862   4.075   2.206   7.536  1.5142  2.8510  0.9040
  159SAPE  C31717863   3.936   2.313   7.669 -0.0446 -0.1789  0.8504
  159SAPE  H17X17864   3.853   2.386   7.660 -0.8818 -0.9084  2.2869
  159SAPE  H17Y17865   4.019   2.365   7.721 -0.5654  0.5324  0.9842
  159SAPE  C31817866   3.881   2.200   7.752 -0.2072 -0.1485  0.1375
  159SAPE  H18X17867   3.849   2.228   7.855  0.5783  0.4124  0.2412
  159SAPE  H18Y17868   3.942   2.107   7.764  2.3778  1.6919  2.6336
  159SAPE  H18Z17869   3.790   2.164   7.700 -0.7258  0.6303  0.4893
  160SAPE     N17870   2.333   3.496   5.445  0.0627  0.4814 -0.2947
  160SAPE   HN117871   2.307   3.468   5.348  0.3229 -0.3122 -0.1431
  160SAPE   HN217872   2.427   3.457   5.468 -0.9404 -2.1715 -0.3282
  160SAPE   HN317873   2.269   3.444   5.508  0.0156  1.9277  0.8940
  160SAPE   C1217874   2.332   3.645   5.475 -0.2243  0.0604  0.1041
  160SAPE  H12A17875   2.233   3.689   5.452 -0.4315 -0.4979 -0.0723
  160SAPE  H12B17876   2.403   3.695   5.405 -0.4327 -1.3471 -1.1572
  160SAPE   C1117877   2.373   3.672   5.621 -0.4210 -0.6093  0.2572
  160SAPE  H11A17878   2.296   3.649   5.697  0.3324  5.7768  3.7131
  160SAPE  H11B17879   2.377   3.783   5.628 -0.1808 -0.7212  2.7959
  160SAPE     P17880   2.559   3.645   5.800  0.2843  0.0160 -0.1960
  160SAPE   O1317881   2.682   3.567   5.815  0.0949 -0.6782  0.4449
  160SAPE   O1417882   2.567   3.793   5.808 -0.4939 -0.2151 -0.5273
  160SAPE   O1217883   2.504   3.615   5.654  0.1529  0.2001 -0.1929
  160SAPE   O1117884   2.445   3.586   5.903  0.1193  0.0242 -1.1442
  160SAPE    C117885   2.435   3.452   5.934 -0.6845 -0.2545 -0.6616
  160SAPE    HA17886   2.334   3.409   5.918 -1.7317  2.9176 -3.7139
  160SAPE    HB17887   2.506   3.385   5.881 -0.8391  0.0050 -1.2061
  160SAPE    C217888   2.473   3.435   6.089  0.0737  0.7330 -0.2176
  160SAPE    HS17889   2.449   3.330   6.116  1.4178  0.6286  0.6654
  160SAPE   O2117890   2.401   3.521   6.171  0.0073  0.0414 -0.2401
  160SAPE   C2117891   2.270   3.498   6.204  0.5528 -0.0186 -0.6257
  160SAPE   O2217892   2.204   3.403   6.162  0.0519  0.1767 -0.1475
  160SAPE   C2217893   2.222   3.603   6.300  0.3811  0.6408 -0.0807
  160SAPE   H2R17894   2.222   3.705   6.255 -0.6431  1.3862  1.4907
  160SAPE   H2S17895   2.116   3.581   6.325  0.3555  0.8239 -0.0212
  160SAPE    C317896   2.618   3.438   6.132  0.7767 -0.8921  0.0217
  160SAPE    HX17897   2.668   3.532   6.100 -0.8152 -1.0895 -3.4687
  160SAPE    HY17898   2.673   3.367   6.066 -0.2250 -1.3068 -0.3811
  160SAPE   O3117899   2.642   3.413   6.272  0.0529 -0.1084 -0.1148
  160SAPE   C3117900   2.763   3.376   6.306 -0.6752  0.0462  0.0022
  160SAPE   O3217901   2.845   3.331   6.227 -0.1105  0.2194 -0.4386
  160SAPE   C3217902   2.789   3.393   6.455  0.2279  0.5636  0.9901
  160SAPE   H2X17903   2.871   3.319   6.473  0.6103 -0.1887 -2.9264
  160SAPE   H2Y17904   2.696   3.363   6.507 -0.8275  0.2190 -1.0079
  160SAPE   C2317905   2.313   3.600   6.421 -0.7707 -0.3548 -0.7751
  160SAPE   H3R17906   2.412   3.646   6.401 -0.5746  1.0087  2.7166
  160SAPE   H3S17907   2.326   3.492   6.444 -1.6284 -0.5844 -1.3301
  160SAPE   C2417908   2.263   3.663   6.554  0.8958  1.0967 -0.2092
  160SAPE   H4R17909   2.163   3.619   6.569  1.6377 -0.6833 -0.3137
  160SAPE   H4S17910   2.243   3.772   6.542  1.1179  1.1721  0.0922
  160SAPE   C2517911   2.355   3.638   6.674 -0.5926 -0.5949 -0.5612
  160SAPE   H5R17912   2.460   3.626   6.643  0.2837  4.4097 -0.4331
  160SAPE   C2617913   2.322   3.624   6.800  0.1134 -0.4225  0.0769
  160SAPE   H6R17914   2.404   3.593   6.867  2.0538  0.8603 -1.6134
  160SAPE   C2717915   2.181   3.638   6.861  0.3750  0.2454 -0.0855
  160SAPE   H7R17916   2.104   3.584   6.802  1.4291  0.1794 -1.4493
  160SAPE   H7S17917   2.157   3.745   6.846  1.0000  0.3770 -0.1878
  160SAPE   C2817918   2.177   3.596   7.003 -0.5697  0.2011  0.3591
  160SAPE   H8R17919   2.179   3.487   7.021 -0.6261  0.3197  1.1583
  160SAPE   C2917920   2.175   3.669   7.115  0.3132  0.5511  0.1292
  160SAPE   H9R17921   2.172   3.615   7.211 -1.5848  1.6447  0.7342
  160SAPE  C21017922   2.172   3.819   7.118  0.6950 -0.3065 -0.3530
  160SAPE  H10R17923   2.062   3.835   7.110  1.0099  2.3351 -0.3917
  160SAPE  H10S17924   2.219   3.860   7.026 -0.6957 -1.7336 -1.7716
  160SAPE  C21117925   2.222   3.883   7.246 -0.2948 -0.3516 -0.3672
  160SAPE  H11R17926   2.324   3.924   7.244 -0.4455  0.0343 -0.2228
  160SAPE  C21217927   2.154   3.907   7.360  0.4745 -0.1635  0.9082
  160SAPE  H12R17928   2.201   3.962   7.443  2.6854 -1.7729  0.8279
  160SAPE  C21317929   2.013   3.861   7.391  0.2372 -0.5922  0.1664
  160SAPE  H13R17930   2.002   3.771   7.455 -0.2693 -2.0680 -1.8825
  160SAPE  H13S17931   1.978   3.823   7.292  1.0893 -1.2552  0.1028
  160SAPE  C21417932   1.934   3.972   7.448  0.6079  0.6517 -0.0370
  160SAPE  H14R17933   1.946   3.981   7.557  2.4432  1.5653 -0.2823
  160SAPE  C21517934   1.855   4.057   7.377 -0.2357 -0.3920 -0.5012
  160SAPE  H15R17935   1.786   4.122   7.433 -1.1439 -0.9103 -1.0003
  160SAPE  C21617936   1.834   4.057   7.228  0.4197  0.4021 -0.3384
  160SAPE  H16R17937   1.933   4.052   7.178  1.1924  3.3481  0.6834
  160SAPE  H16S17938   1.789   4.156   7.203 -3.2631 -1.0960 -0.2338
  160SAPE  C21717939   1.729   3.956   7.176 -0.1970 -1.3090  0.1649
  160SAPE  H17R17940   1.628   3.969   7.221  1.1878  1.8391  2.7731
  160SAPE  H17S17941   1.767   3.856   7.204  1.6609  0.1391  3.3774
  160SAPE  C21817942   1.715   3.972   7.022  0.7991 -0.5416 -0.2758
  160SAPE  H18R17943   1.714   4.081   7.003 -4.6892  0.0341  1.6348
  160SAPE  H18S17944   1.615   3.933   6.991 -0.1115  0.8036  0.8426
  160SAPE  C21917945   1.815   3.898   6.941  0.2376 -0.0643  0.3888
  160SAPE  H19R17946   1.921   3.903   6.974  0.0543 -1.5930  1.2975
  160SAPE  H19S17947   1.824   3.942   6.839  1.6649 -0.4143  0.3296
  160SAPE  C22017948   1.778   3.752   6.926 -0.8026  0.0251 -0.3599
  160SAPE  H20R17949   1.743   3.703   7.019 -1.0808 -0.0615 -0.5095
  160SAPE  H20S17950   1.860   3.688   6.886 -1.4344  0.2918 -2.1387
  160SAPE  H20T17951   1.693   3.744   6.856  0.7496  4.1568 -3.1159
  160SAPE   C3317952   2.829   3.534   6.504 -0.5627 -0.1492  0.3503
  160SAPE   H3X17953   2.753   3.597   6.455 -1.6561 -2.3766 -0.9890
  160SAPE   H3Y17954   2.928   3.559   6.459 -2.3924  0.6686 -3.6223
  160SAPE   C3417955   2.824   3.551   6.655 -0.7199  0.0936  0.8025
  160SAPE   H4X17956   2.719   3.542   6.690 -1.1019  0.4560 -0.2381
  160SAPE   H4Y17957   2.863   3.650   6.686 -3.8109  1.0863  1.8967
  160SAPE   C3517958   2.918   3.451   6.737  0.5427  0.4037 -0.0072
  160SAPE   H5X17959   3.020   3.470   6.698  1.2608 -1.5965  0.7548
  160SAPE   H5Y17960   2.893   3.344   6.720 -2.8468  1.2329 -1.0684
  160SAPE   C3617961   2.899   3.480   6.881 -0.4200 -0.8566 -0.3087
  160SAPE   H6X17962   2.792   3.477   6.913 -0.4283  1.2853 -0.0102
  160SAPE   H6Y17963   2.948   3.578   6.896 -0.1450 -0.9730 -0.4486
  160SAPE   C3717964   2.981   3.387   6.977 -0.3607  0.2082 -0.1999
  160SAPE   H7X17965   3.085   3.376   6.939 -0.8498 -0.8796 -1.2717
  160SAPE   H7Y17966   2.938   3.286   6.959 -1.6383  0.4198  1.3809
  160SAPE   C3817967   2.979   3.441   7.126 -0.3011 -0.2173 -0.2828
  160SAPE   H8X17968   2.873   3.440   7.157 -0.9782 -4.1388 -2.0912
  160SAPE   H8Y17969   3.018   3.544   7.137  0.5743 -0.6323  0.7761
  160SAPE   C3917970   3.059   3.345   7.230 -0.0939  0.3749 -0.4303
  160SAPE   H9X17971   3.167   3.334   7.206  0.2961 -0.2938  1.5202
  160SAPE   H9Y17972   3.014   3.244   7.235  0.9483 -0.0203  2.4627
  160SAPE  C31017973   3.037   3.400   7.374  0.1637  0.3500 -0.2123
  160SAPE  H10X17974   2.928   3.399   7.400  0.6629  2.6118  2.4395
  160SAPE  H10Y17975   3.069   3.506   7.377 -0.3944  0.6346 -2.4372
  160SAPE  C31117976   3.108   3.319   7.477  0.2501 -0.0795 -1.2240
  160SAPE  H11X17977   3.197   3.273   7.429  1.0035  0.6595 -0.5566
  160SAPE  H11Y17978   3.046   3.227   7.485 -0.4279  0.5118  1.2112
  160SAPE  C31217979   3.126   3.403   7.608 -0.6868 -0.0458 -0.5345
  160SAPE  H12X17980   3.174   3.500   7.586 -1.2324 -0.0910 -2.0252
  160SAPE  H12Y17981   3.192   3.352   7.682  0.5215 -0.8631 -2.1152
  160SAPE  C31317982   2.995   3.438   7.689 -0.0093 -0.2816 -0.6898
  160SAPE  H13X17983   2.950   3.534   7.655 -0.4929  0.3525  1.6031
  160SAPE  H13Y17984   3.017   3.448   7.797  1.8881  0.6311 -1.1159
  160SAPE  C31417985   2.882   3.333   7.695 -0.1783 -0.1306  0.1830
  160SAPE  H14X17986   2.926   3.243   7.744 -0.0516  1.6854  3.7564
  160SAPE  H14Y17987   2.840   3.316   7.594  1.8767  0.0919 -0.7368
  160SAPE  C31517988   2.767   3.373   7.801 -0.2683 -0.6631  0.0815
  160SAPE  H15X17989   2.806   3.430   7.888 -1.5241  2.4673 -1.2729
  160SAPE  H15Y17990   2.730   3.275   7.837  2.2378 -1.9655 -0.5747
  160SAPE  C31617991   2.658   3.445   7.717 -0.9394  0.0692  0.0452
  160SAPE  H16X17992   2.614   3.376   7.642  0.5601  0.3205 -1.1213
  160SAPE  H16Y17993   2.701   3.528   7.656 -2.1236  0.5813 -0.1383
  160SAPE  C31717994   2.540   3.503   7.801  0.6319 -0.1257  0.3050
  160SAPE  H17X17995   2.480   3.560   7.727  0.7569  1.1651  1.1803
  160SAPE  H17Y17996   2.584   3.583   7.863  0.1785 -0.1963  0.7234
  160SAPE  C31817997   2.459   3.409   7.891 -0.2782  0.5959 -0.6098
  160SAPE  H18X17998   2.530   3.348   7.950 -1.1021  0.6721  0.5196
  160SAPE  H18Y17999   2.398   3.346   7.823  0.2006 -0.0350 -0.4595
  160SAPE  H18Z18000   2.391   3.461   7.962 -2.1586 -0.9863 -1.1506
  161SAPE     N18001   4.153   1.707   5.664 -0.1712 -0.3511  0.4194
  161SAPE   HN118002   4.135   1.689   5.765 -1.0011  1.9406  0.7393
  161SAPE   HN218003   4.072   1.763   5.631 -0.2244 -0.7065 -0.0643
  161SAPE   HN318004   4.160   1.615   5.617  1.9990 -0.4675  0.8662
  161SAPE   C1218005   4.272   1.798   5.627 -0.1063  0.1289 -0.5710
  161SAPE  H12A18006   4.272   1.819   5.518  0.0367  0.0827 -0.5799
  161SAPE  H12B18007   4.363   1.737   5.648 -0.1384  0.7967  1.7381
  161SAPE   C1118008   4.258   1.939   5.698  0.0255  0.5152  0.1017
  161SAPE  H11A18009   4.327   2.014   5.653 -1.2237  1.8310  0.3218
  161SAPE  H11B18010   4.284   1.920   5.805 -3.3679  1.3036  1.2002
  161SAPE     P18011   4.085   2.107   5.787 -0.0724 -0.1854  0.1088
  161SAPE   O1318012   4.205   2.191   5.814  0.4843  0.4251 -0.0529
  161SAPE   O1418013   3.965   2.186   5.730  0.2607  0.3199 -0.7371
  161SAPE   O1218014   4.121   1.988   5.685 -0.7918  0.0565  0.4151
  161SAPE   O1118015   4.032   2.039   5.919  0.2310 -0.1219 -0.5076
  161SAPE    C118016   4.108   1.976   6.016  0.4788  0.4918 -0.5353
  161SAPE    HA18017   4.140   1.877   5.977  0.5423 -0.1458  1.0654
  161SAPE    HB18018   4.202   2.033   6.038  0.3983  0.1121  0.8617
  161SAPE    C218019   4.034   1.955   6.157 -0.2383 -0.4769 -0.6089
  161SAPE    HS18020   4.110   1.914   6.226  0.3417  1.1381 -0.2519
  161SAPE   O2118021   3.916   1.873   6.141 -0.2078 -0.9126 -0.1903
  161SAPE   C2118022   3.945   1.751   6.110  0.4080 -0.0640  0.0469
  161SAPE   O2218023   4.051   1.694   6.116  0.6408 -0.2444  0.1491
  161SAPE   C2218024   3.819   1.675   6.068  0.4249 -0.5277  0.5914
  161SAPE   H2R18025   3.782   1.718   5.972  0.3926  0.8807  1.2154
  161SAPE   H2S18026   3.858   1.573   6.046  1.8952  0.3246 -0.9456
  161SAPE    C318027   3.998   2.095   6.198 -0.5550 -0.5824 -0.4243
  161SAPE    HX18028   3.905   2.121   6.142 -0.6162  1.1987  0.4520
  161SAPE    HY18029   4.080   2.166   6.178 -1.2217  1.1732  2.5075
  161SAPE   O3118030   3.968   2.097   6.337  0.0441  0.5702  0.1708
  161SAPE   C3118031   4.072   2.101   6.418 -0.0415 -0.1575 -0.7078
  161SAPE   O3218032   4.188   2.084   6.386 -0.2564  1.4388 -0.1243
  161SAPE   C3218033   4.028   2.138   6.560 -0.5438 -0.1068 -0.4885
  161SAPE   H2X18034   3.988   2.043   6.602 -0.3185  1.0066  2.4539
  161SAPE   H2Y18035   3.949   2.217   6.556  0.9041  1.3517 -2.3372
  161SAPE   C2318036   3.713   1.687   6.173  1.0627 -0.0384 -1.0543
  161SAPE   H3R18037   3.618   1.672   6.116 -0.8404  0.6704  1.7062
  161SAPE   H3S18038   3.693   1.787   6.219  3.2249  0.5901 -1.3647
  161SAPE   C2418039   3.742   1.592   6.289  0.1256 -0.4808  0.6563
  161SAPE   H4R18040   3.839   1.604   6.341  0.8672  0.2740 -0.8511
  161SAPE   H4S18041   3.735   1.488   6.250  1.6145 -0.5063  0.4039
  161SAPE   C2518042   3.632   1.591   6.398 -0.1829  0.5608  0.3487
  161SAPE   H5R18043   3.537   1.535   6.387  0.0473 -0.1851  1.8795
  161SAPE   C2618044   3.626   1.683   6.492 -0.3491 -0.1453 -0.0495
  161SAPE   H6R18045   3.543   1.677   6.564 -1.6580 -2.7044 -1.6020
  161SAPE   C2718046   3.718   1.793   6.525 -0.4439  0.1953 -0.0009
  161SAPE   H7R18047   3.661   1.883   6.556  0.8402  1.1679 -0.3569
  161SAPE   H7S18048   3.763   1.844   6.437  1.9877  1.0054  1.5868
  161SAPE   C2818049   3.817   1.744   6.626 -0.0645 -0.3049 -0.5020
  161SAPE   H8R18050   3.893   1.675   6.587  1.4471  0.8850  0.2457
  161SAPE   C2918051   3.814   1.760   6.761  0.4190  0.1441 -0.2844
  161SAPE   H9R18052   3.900   1.722   6.818  1.5074  1.3403 -1.0653
  161SAPE  C21018053   3.707   1.830   6.853 -0.2754 -0.2355 -0.3388
  161SAPE  H10R18054   3.624   1.875   6.795  1.0013  2.8958  0.0966
  161SAPE  H10S18055   3.762   1.909   6.908 -3.3567  0.6350  1.6780
  161SAPE  C21118056   3.649   1.742   6.958 -0.4096  0.2738  0.3039
  161SAPE  H11R18057   3.661   1.633   6.951  2.4745  0.4292  1.5977
  161SAPE  C21218058   3.563   1.784   7.058  0.7165 -0.2232  0.8460
  161SAPE  H12R18059   3.533   1.712   7.135 -2.7958  0.5677  0.3596
  161SAPE  C21318060   3.529   1.931   7.087  0.1046  0.2309 -0.3228
  161SAPE  H13R18061   3.537   1.989   6.992 -0.5009 -1.0410 -1.1711
  161SAPE  H13S18062   3.615   1.960   7.152  1.8829 -1.2892 -1.8503
  161SAPE  C21418063   3.396   1.953   7.152 -0.0430 -0.8723 -0.6234
  161SAPE  H14R18064   3.328   1.986   7.072  0.6078  1.7644 -0.1576
  161SAPE  C21518065   3.366   1.937   7.282 -0.0325  0.5474 -0.4076
  161SAPE  H15R18066   3.264   1.964   7.312  0.8083  2.7070  0.6986
  161SAPE  C21618067   3.458   1.898   7.397 -0.5158  0.3100  0.5136
  161SAPE  H16R18068   3.556   1.885   7.346 -1.4621  1.2523 -1.6616
  161SAPE  H16S18069   3.430   1.798   7.438  0.8297 -0.0588  0.5809
  161SAPE  C21718070   3.472   2.005   7.508  0.7602  0.7263  0.2045
  161SAPE  H17R18071   3.563   1.986   7.569 -0.6193 -3.8274  1.2313
  161SAPE  H17S18072   3.381   1.999   7.572  0.4948 -0.4430 -0.2544
  161SAPE  C21818073   3.480   2.154   7.452 -0.3615 -0.1076  0.1363
  161SAPE  H18R18074   3.388   2.184   7.398 -0.1159  0.2910 -0.0644
  161SAPE  H18S18075   3.553   2.155   7.368 -2.2014 -0.5530 -1.5383
  161SAPE  C21918076   3.499   2.259   7.569  0.6823  0.2811  0.2403
  161SAPE  H19R18077   3.496   2.360   7.522  0.2537  0.5265  0.7723
  161SAPE  H19S18078   3.603   2.237   7.599 -0.1018 -3.1101  0.8484
  161SAPE  C22018079   3.406   2.251   7.690  0.2154  1.0824 -0.3716
  161SAPE  H20R18080   3.393   2.147   7.727  1.5786  0.4715 -1.5648
  161SAPE  H20S18081   3.302   2.282   7.664 -0.7701  0.4767  2.4693
  161SAPE  H20T18082   3.438   2.321   7.771 -1.1426  1.4529 -0.1261
  161SAPE   C3318083   4.150   2.195   6.648 -0.2186 -0.2934 -0.2924
  161SAPE   H3X18084   4.188   2.293   6.611  0.4924  0.0869  1.3388
  161SAPE   H3Y18085   4.243   2.134   6.642 -1.2931 -1.8530 -1.8278
  161SAPE   C3418086   4.130   2.218   6.798  0.2084 -0.2449 -0.1581
  161SAPE   H4X18087   4.066   2.136   6.838  0.2833  0.4536  1.4818
  161SAPE   H4Y18088   4.074   2.314   6.798  1.3577  0.4548  0.6368
  161SAPE   C3518089   4.258   2.233   6.889  0.3779  0.1781  0.0740
  161SAPE   H5X18090   4.319   2.316   6.849  1.1292 -0.2452  0.3365
  161SAPE   H5Y18091   4.316   2.140   6.869  0.9339  0.6704 -0.6295
  161SAPE   C3618092   4.224   2.251   7.034 -0.5309 -0.4418 -0.1587
  161SAPE   H6X18093   4.170   2.162   7.072  0.0247 -1.0067 -0.6776
  161SAPE   H6Y18094   4.160   2.336   7.066  2.6311  1.7566  0.8585
  161SAPE   C3718095   4.347   2.260   7.127  0.4880  0.5064  0.1566
  161SAPE   H7X18096   4.394   2.360   7.123  1.3117  0.1331  0.2879
  161SAPE   H7Y18097   4.412   2.174   7.100 -0.1390 -0.4182  1.4426
  161SAPE   C3818098   4.311   2.231   7.279  0.4086  0.0582  0.1373
  161SAPE   H8X18099   4.257   2.134   7.285 -0.7326  0.7322  1.3259
  161SAPE   H8Y18100   4.239   2.310   7.314  0.6789  0.4596 -0.2037
  161SAPE   C3918101   4.431   2.245   7.373  0.4455  0.3124 -0.2435
  161SAPE   H9X18102   4.477   2.346   7.375 -0.8023  0.8776  0.5667
  161SAPE   H9Y18103   4.504   2.164   7.349 -0.8623 -1.0547  0.2080
  161SAPE  C31018104   4.383   2.221   7.514  0.4488  0.2309  0.1441
  161SAPE  H10X18105   4.353   2.117   7.540 -1.8952  0.7812 -0.1995
  161SAPE  H10Y18106   4.292   2.283   7.523  1.2354  1.2718  1.4820
  161SAPE  C31118107   4.481   2.271   7.617 -0.7892 -0.5187  0.6239
  161SAPE  H11X18108   4.487   2.380   7.600 -1.2066 -0.7870 -1.5821
  161SAPE  H11Y18109   4.581   2.227   7.595 -0.5227  1.0522 -1.6330
  161SAPE  C31218110   4.446   2.228   7.753  0.6181 -1.0770  0.1785
  161SAPE  H12X18111   4.531   2.254   7.820  0.9046 -0.6797 -0.3301
  161SAPE  H12Y18112   4.439   2.117   7.754 -2.3185 -0.9914 -1.2368
  161SAPE  C31318113   4.309   2.282   7.801  0.0517 -0.2783 -0.0700
  161SAPE  H13X18114   4.218   2.230   7.764  0.0767 -0.1322 -0.3377
  161SAPE  H13Y18115   4.302   2.384   7.756  0.5724  0.3505  1.2158
  161SAPE  C31418116   4.291   2.294   7.959 -0.4466  0.8541 -0.3308
  161SAPE  H14X18117   4.392   2.313   8.000 -1.3633 -0.6258  2.8673
  161SAPE  H14Y18118   4.265   2.191   7.992 -0.5525  0.7273 -0.7932
  161SAPE  C31518119   4.183   2.392   8.010 -0.2116  0.3055  0.8863
  161SAPE  H15X18120   4.090   2.369   7.953  0.0665  0.5318  0.3389
  161SAPE  H15Y18121   4.215   2.491   7.970  2.0861 -0.4159  0.8586
  161SAPE  C31618122   4.156   2.396   8.163 -0.5645  0.0107 -0.3934
  161SAPE  H16X18123   4.244   2.451   8.202  0.4218 -2.7007  1.5133
  161SAPE  H16Y18124   4.162   2.293   8.204 -0.3089 -0.4673 -1.5911
  161SAPE  C31718125   4.019   2.445   8.221  0.9016 -0.0177 -0.4743
  161SAPE  H17X18126   4.027   2.468   8.329  0.9267  0.6457 -0.6115
  161SAPE  H17Y18127   3.943   2.365   8.215 -0.7707  1.5913 -2.1256
  161SAPE  C31818128   3.953   2.562   8.156  0.4165  0.2692  0.7540
  161SAPE  H18X18129   3.921   2.538   8.052 -1.2316  0.2800  1.2170
  161SAPE  H18Y18130   4.019   2.649   8.136  1.8392 -0.8777  0.3524
  161SAPE  H18Z18131   3.858   2.598   8.202  0.8442  1.5686  0.6807
  162SAPE     N18132   3.241   6.123   5.870  0.8103  0.0516 -0.4421
  162SAPE   HN118133   3.185   6.192   5.816 -0.4445 -0.7375 -0.1903
  162SAPE   HN218134   3.213   6.142   5.968 -0.1433 -2.1915 -0.2197
  162SAPE   HN318135   3.342   6.147   5.860  1.2449 -1.4648  0.0090
  162SAPE   C1218136   3.198   5.986   5.834 -0.3721  0.9807 -0.2817
  162SAPE  H12A18137   3.197   5.976   5.724  2.0810  2.4303 -0.5153
  162SAPE  H12B18138   3.102   5.953   5.878  0.5019 -2.1986 -0.4796
  162SAPE   C1118139   3.304   5.891   5.895 -0.3480 -0.3398 -0.1301
  162SAPE  H11A18140   3.274   5.790   5.858 -1.2517 -0.0424 -0.2436
  162SAPE  H11B18141   3.294   5.899   6.005 -1.7216 -1.3468 -0.1522
  162SAPE     P18142   3.509   5.843   5.747  0.2689 -0.0455  0.0407
  162SAPE   O1318143   3.440   5.869   5.623  0.2418 -0.0167 -0.0955
  162SAPE   O1418144   3.652   5.881   5.740 -0.0707  0.8614 -0.2197
  162SAPE   O1218145   3.439   5.930   5.862 -0.4589  0.4868 -0.6687
  162SAPE   O1118146   3.495   5.692   5.787 -0.0289  0.6817 -0.4134
  162SAPE    C118147   3.546   5.647   5.911  0.2669 -0.5744  0.1727
  162SAPE    HA18148   3.590   5.728   5.974  1.5015 -0.4053 -0.8524
  162SAPE    HB18149   3.466   5.604   5.975  1.7227 -1.1147  1.7127
  162SAPE    C218150   3.669   5.548   5.892  0.4893 -0.4206  0.1804
  162SAPE    HS18151   3.747   5.595   5.829  1.5536 -3.0085 -0.5395
  162SAPE   O2118152   3.615   5.432   5.824  0.2126  0.2840  0.0288
  162SAPE   C2118153   3.632   5.426   5.697 -0.2607  0.7789 -0.4472
  162SAPE   O2218154   3.708   5.492   5.626 -0.0041  0.6511  0.0024
  162SAPE   C2218155   3.562   5.300   5.636 -0.1813 -0.0615 -0.7889
  162SAPE   H2R18156   3.617   5.279   5.542 -0.7679 -2.1950 -0.7155
  162SAPE   H2S18157   3.584   5.211   5.700  1.0309  0.6929 -0.1111
  162SAPE    C318158   3.729   5.507   6.028  0.2005  0.2904 -0.1493
  162SAPE    HX18159   3.755   5.604   6.074 -0.1474 -0.4245  1.6305
  162SAPE    HY18160   3.824   5.450   6.016 -0.9036 -1.7815  0.4876
  162SAPE   O3118161   3.634   5.447   6.116  0.1782  0.1087  0.0284
  162SAPE   C3118162   3.602   5.322   6.102  0.0497  0.1091 -0.2997
  162SAPE   O3218163   3.645   5.246   6.015 -0.3455  0.8916 -0.6009
  162SAPE   C3218164   3.502   5.282   6.197  1.0456  0.2207  0.1775
  162SAPE   H2X18165   3.407   5.271   6.140  0.5973 -0.1764  0.9636
  162SAPE   H2Y18166   3.506   5.350   6.285  1.2415  0.3113  0.0969
  162SAPE   C2318167   3.419   5.324   5.584 -0.3164 -0.0225 -0.2252
  162SAPE   H3R18168   3.413   5.251   5.501  1.5962 -2.4395  1.6032
  162SAPE   H3S18169   3.409   5.425   5.539  1.2939  0.1960 -0.1569
  162SAPE   C2418170   3.301   5.289   5.680 -0.1553 -0.5175  0.3661
  162SAPE   H4R18171   3.211   5.326   5.627  0.1425 -1.6938 -1.0115
  162SAPE   H4S18172   3.316   5.349   5.772  1.1118 -1.8052  1.0490
  162SAPE   C2518173   3.276   5.146   5.705 -0.1174  0.4407  0.0233
  162SAPE   H5R18174   3.280   5.093   5.609  0.3361 -2.4962  1.5710
  162SAPE   C2618175   3.260   5.078   5.818 -0.5042 -0.0843 -0.3161
  162SAPE   H6R18176   3.271   4.969   5.814  0.7382  0.0432 -1.3254
  162SAPE   C2718177   3.272   5.122   5.956 -0.3145  0.8268 -0.6463
  162SAPE   H7R18178   3.309   5.227   5.951  2.4372  0.0773  1.2399
  162SAPE   H7S18179   3.351   5.064   6.009 -0.2134  1.4270 -0.1209
  162SAPE   C2818180   3.144   5.112   6.033 -0.3463 -0.3148  0.1430
  162SAPE   H8R18181   3.104   5.010   6.048  0.1846 -0.5725 -0.1461
  162SAPE   C2918182   3.070   5.210   6.089  0.3838  0.8379  0.5010
  162SAPE   H9R18183   2.983   5.175   6.147  1.9571 -2.2219  1.2676
  162SAPE  C21018184   3.099   5.354   6.086 -0.9029  0.2355  0.2744
  162SAPE  H10R18185   3.150   5.389   5.994 -0.7622  0.2065  0.3422
  162SAPE  H10S18186   3.183   5.372   6.155  0.7205 -1.5477 -1.1327
  162SAPE  C21118187   2.982   5.450   6.108 -0.3806 -0.3100 -0.1415
  162SAPE  H11R18188   2.887   5.395   6.117 -0.6222  0.2489  0.9172
  162SAPE  C21218189   2.990   5.582   6.122  0.0646 -0.3128  0.0910
  162SAPE  H12R18190   2.898   5.640   6.140  0.5189  0.5631 -0.3433
  162SAPE  C21318191   3.120   5.653   6.088 -0.4643  0.2363 -0.5741
  162SAPE  H13R18192   3.109   5.712   5.995 -1.5989 -0.0707 -0.6562
  162SAPE  H13S18193   3.210   5.588   6.084 -0.8493 -0.2987 -0.7071
  162SAPE  C21418194   3.149   5.769   6.186 -0.3287  0.4135  0.8162
  162SAPE  H14R18195   3.091   5.862   6.177 -0.1001  0.3921 -1.5936
  162SAPE  C21518196   3.262   5.766   6.268 -0.0460 -0.1249 -0.0003
  162SAPE  H15R18197   3.270   5.849   6.339  4.7183  0.2345 -0.5985
  162SAPE  C21618198   3.355   5.648   6.288  0.5509  0.3278  0.6232
  162SAPE  H16R18199   3.453   5.678   6.245 -0.4652  0.8997 -1.3980
  162SAPE  H16S18200   3.329   5.557   6.231  1.6728  0.2208  0.2539
  162SAPE  C21718201   3.371   5.614   6.432 -0.4212 -0.3411  0.2922
  162SAPE  H17R18202   3.376   5.696   6.508  0.7595 -0.8805  0.8171
  162SAPE  H17S18203   3.469   5.563   6.440  0.7506  1.6842 -0.4591
  162SAPE  C21818204   3.268   5.518   6.486 -0.3102  0.4840 -0.2706
  162SAPE  H18R18205   3.250   5.434   6.416  0.0483  2.3146 -2.6736
  162SAPE  H18S18206   3.175   5.576   6.504  0.1263  2.2286 -3.1295
  162SAPE  C21918207   3.308   5.451   6.616 -0.1067 -0.2763 -0.2398
  162SAPE  H19R18208   3.330   5.529   6.691 -0.3824  0.4819 -0.9288
  162SAPE  H19S18209   3.397   5.390   6.593 -0.5411 -1.5930  1.3854
  162SAPE  C22018210   3.195   5.358   6.672  0.0389 -0.3295 -0.6030
  162SAPE  H20R18211   3.147   5.297   6.593  0.3046  1.0203 -1.8638
  162SAPE  H20S18212   3.118   5.427   6.714 -0.3975 -1.1166 -0.1026
  162SAPE  H20T18213   3.230   5.295   6.756  1.9190  0.6711 -0.5840
  162SAPE   C3318214   3.531   5.136   6.241  0.0669 -0.9514 -0.5095
  162SAPE   H3X18215   3.642   5.134   6.253  0.0703  1.5873  0.7776
  162SAPE   H3Y18216   3.486   5.068   6.166 -1.1675 -0.3941 -0.3045
  162SAPE   C3418217   3.467   5.112   6.378  0.5420  0.5093  0.2221
  162SAPE   H4X18218   3.475   5.201   6.445  0.2830  0.1539  0.7328
  162SAPE   H4Y18219   3.520   5.021   6.413  1.5169 -0.9678 -4.4244
  162SAPE   C3518220   3.315   5.083   6.382  0.2166 -0.8268 -0.1674
  162SAPE   H5X18221   3.263   5.160   6.322 -2.3928 -3.3331 -1.4066
  162SAPE   H5Y18222   3.277   5.102   6.485  2.2602 -1.8429  0.8397
  162SAPE   C3618223   3.272   4.937   6.347 -0.4467 -0.5958 -0.4276
  162SAPE   H6X18224   3.327   4.863   6.408  1.2672 -1.2239 -2.6164
  162SAPE   H6Y18225   3.309   4.913   6.245  2.7412  1.1106  0.2145
  162SAPE   C3718226   3.128   4.909   6.358 -0.1839  0.3201 -0.1489
  162SAPE   H7X18227   3.110   4.799   6.358  1.5015 -0.0273  1.6695
  162SAPE   H7Y18228   3.072   4.958   6.276 -1.5913  0.9140  1.1165
  162SAPE   C3818229   3.064   4.960   6.482  0.6701 -0.3672  0.2072
  162SAPE   H8X18230   2.957   4.937   6.467  0.2953  1.9978 -1.3444
  162SAPE   H8Y18231   3.064   5.071   6.490  1.2297 -0.3708  0.3167
  162SAPE   C3918232   3.114   4.889   6.602 -0.0924  0.2933  0.2206
  162SAPE   H9X18233   3.225   4.899   6.609 -0.2414  1.0493  2.5009
  162SAPE   H9Y18234   3.090   4.781   6.608 -0.2941  0.2197 -1.4557
  162SAPE  C31018235   3.044   4.941   6.731 -0.5414  0.1956  0.0163
  162SAPE  H10X18236   2.938   4.912   6.717 -0.3651 -0.7455  0.5576
  162SAPE  H10Y18237   3.071   5.048   6.744  1.4226 -0.3866  1.3218
  162SAPE  C31118238   3.104   4.859   6.850  0.5601 -0.6969  0.0104
  162SAPE  H11X18239   3.213   4.879   6.862  0.6925 -1.4027  0.0178
  162SAPE  H11Y18240   3.098   4.751   6.828 -0.3870 -0.0510 -3.4565
  162SAPE  C31218241   3.059   4.878   6.998 -0.2299 -0.2351  0.0992
  162SAPE  H12X18242   2.949   4.864   7.002 -0.2267 -0.2033  0.3143
  162SAPE  H12Y18243   3.079   4.981   7.034 -1.2551 -1.1758  3.8034
  162SAPE  C31318244   3.129   4.787   7.098  1.0397 -0.3759 -0.7279
  162SAPE  H13X18245   3.240   4.796   7.094  1.3156 -2.8619 -0.5627
  162SAPE  H13Y18246   3.115   4.681   7.067 -1.6659 -0.2974 -0.0386
  162SAPE  C31418247   3.088   4.803   7.244 -0.0251 -0.4331 -0.3168
  162SAPE  H14X18248   3.159   4.740   7.301  3.9230  2.7921 -1.2135
  162SAPE  H14Y18249   2.981   4.780   7.265 -1.3375  3.6903 -1.4439
  162SAPE  C31518250   3.118   4.946   7.300 -0.0863 -0.5314 -0.4559
  162SAPE  H15X18251   3.034   5.018   7.290  0.7688  0.3785 -1.4980
  162SAPE  H15Y18252   3.202   4.996   7.245 -1.0048  1.5178 -0.0977
  162SAPE  C31618253   3.143   4.946   7.458 -0.8263 -0.1247 -0.2871
  162SAPE  H16X18254   3.224   4.878   7.491 -1.5650 -0.6564  0.4567
  162SAPE  H16Y18255   3.055   4.908   7.514  0.9043 -0.4155  2.4018
  162SAPE  C31718256   3.193   5.087   7.512 -0.1731 -0.2127 -0.2702
  162SAPE  H17X18257   3.140   5.176   7.470  0.2078 -0.7344 -1.9088
  162SAPE  H17Y18258   3.296   5.095   7.473 -0.1117 -2.0346 -0.5595
  162SAPE  C31818259   3.187   5.092   7.659 -0.1514 -0.5375  0.3829
  162SAPE  H18X18260   3.088   5.068   7.702 -0.8247  3.2754  1.2917
  162SAPE  H18Y18261   3.218   5.195   7.685  1.8423 -0.8980 -0.3728
  162SAPE  H18Z18262   3.268   5.023   7.690 -0.0673 -0.7802 -0.3427
  163SAPE     N18263   1.932   3.407   5.745 -0.2204 -0.3417 -0.0419
  163SAPE   HN118264   1.917   3.309   5.713 -1.0269 -0.7386  1.4365
  163SAPE   HN218265   1.851   3.464   5.714 -0.0486  1.1238  2.0151
  163SAPE   HN318266   2.023   3.441   5.708  1.0426 -2.0433  1.2689
  163SAPE   C1218267   1.939   3.408   5.896 -0.4802  0.1702  0.3898
  163SAPE  H12A18268   2.039   3.366   5.921 -0.7914 -1.3262 -0.7517
  163SAPE  H12B18269   1.861   3.333   5.920 -0.6627  0.4776  0.7741
  163SAPE   C1118270   1.933   3.551   5.943  0.9017 -0.1598 -0.7739
  163SAPE  H11A18271   1.920   3.564   6.053  2.7519  0.8850 -0.6426
  163SAPE  H11B18272   1.838   3.594   5.904  0.1215 -1.9336 -0.8969
  163SAPE     P18273   2.050   3.756   5.835  0.4751 -0.4338 -0.4323
  163SAPE   O1318274   2.167   3.838   5.871  0.3195  0.2432  0.1746
  163SAPE   O1418275   2.024   3.728   5.690 -0.2616  0.1985 -0.3645
  163SAPE   O1218276   2.055   3.622   5.906 -0.0713 -0.3383  0.9629
  163SAPE   O1118277   1.914   3.824   5.891 -0.3335  0.0224  0.5193
  163SAPE    C118278   1.908   3.962   5.847  0.5245 -0.4024  0.1822
  163SAPE    HA18279   1.930   3.975   5.739 -2.1586  2.3327 -0.1689
  163SAPE    HB18280   1.802   3.994   5.853  0.7529  0.4703 -0.2818
  163SAPE    C218281   1.993   4.067   5.936  0.3755  0.3814 -0.3398
  163SAPE    HS18282   2.097   4.030   5.947  0.9140  1.1036 -2.5469
  163SAPE   O2118283   1.923   4.086   6.061  0.3085  0.0858 -0.0369
  163SAPE   C2118284   1.989   4.100   6.172  0.2747 -0.5798 -0.2371
  163SAPE   O2218285   2.113   4.102   6.183  0.5158  0.2911  0.5944
  163SAPE   C2218286   1.898   4.102   6.295  0.3863 -0.4773  1.3338
  163SAPE   H2R18287   1.892   4.210   6.321 -0.9113 -0.1165 -0.2867
  163SAPE   H2S18288   1.795   4.069   6.269  0.4614  0.1239  0.2007
  163SAPE    C318289   2.004   4.206   5.868 -0.4939  0.3333 -0.3954
  163SAPE    HX18290   2.048   4.183   5.768  0.1458  1.2561 -0.3439
  163SAPE    HY18291   2.076   4.280   5.909  0.2345 -0.1499 -0.7858
  163SAPE   O3118292   1.868   4.252   5.848 -0.9439 -1.1203 -0.0372
  163SAPE   C3118293   1.838   4.345   5.933  0.3137  0.0161  0.0504
  163SAPE   O3218294   1.914   4.398   6.016 -0.2195  0.0676 -0.0132
  163SAPE   C3218295   1.694   4.385   5.907 -0.2258  0.0927 -1.2940
  163SAPE   H2X18296   1.628   4.296   5.901  0.9231 -0.9021  0.0911
  163SAPE   H2Y18297   1.686   4.436   5.809 -0.6103  1.5683 -0.5232
  163SAPE   C2318298   1.950   4.022   6.407 -0.9750  0.1845  1.4248
  163SAPE   H3R18299   2.027   4.083   6.460 -0.1799  0.4506  0.0065
  163SAPE   H3S18300   2.002   3.942   6.350  0.6446  2.1939 -0.0863
  163SAPE   C2418301   1.846   3.965   6.499  0.5218 -0.1759 -0.5599
  163SAPE   H4R18302   1.905   3.898   6.565  1.5010  1.2913  0.1086
  163SAPE   H4S18303   1.777   3.919   6.425 -1.2805  0.8145  0.4296
  163SAPE   C2518304   1.791   4.079   6.581  0.6196  0.0221 -0.5260
  163SAPE   H5R18305   1.859   4.162   6.603  2.2749 -1.5972  0.8062
  163SAPE   C2618306   1.667   4.079   6.641 -0.4111  0.5722 -0.2766
  163SAPE   H6R18307   1.638   4.171   6.693  0.0601  0.5679  0.0013
  163SAPE   C2718308   1.559   3.979   6.620  0.9509  0.5341 -0.1423
  163SAPE   H7R18309   1.595   3.875   6.600 -2.4353 -0.6453 -0.7859
  163SAPE   H7S18310   1.501   4.009   6.530  1.8926  0.8110 -0.6644
  163SAPE   C2818311   1.454   3.963   6.730 -0.9068 -0.1393  0.0997
  163SAPE   H8R18312   1.489   3.963   6.834  0.1041  0.6255 -0.2242
  163SAPE   C2918313   1.323   3.941   6.722  0.1334 -0.0636  0.1036
  163SAPE   H9R18314   1.267   3.919   6.814 -1.6734 -0.2960 -1.0063
  163SAPE  C21018315   1.232   3.942   6.597 -0.9068  0.2914  0.1173
  163SAPE  H10R18316   1.225   3.839   6.555 -1.7175  0.2222  0.4084
  163SAPE  H10S18317   1.269   4.004   6.512 -3.6705  0.8095 -0.7883
  163SAPE  C21118318   1.095   3.996   6.624 -0.0288  0.1917  0.3355
  163SAPE  H11R18319   1.071   4.101   6.603 -2.7263 -0.2742  0.7667
  163SAPE  C21218320   0.992   3.918   6.653  0.0230 -0.8408 -0.4285
  163SAPE  H12R18321   0.894   3.967   6.657  0.0327 -0.8390 -0.1887
  163SAPE  C21318322   0.996   3.772   6.693 -0.2084 -0.0607  0.5051
  163SAPE  H13R18323   1.098   3.731   6.682  0.1836  1.2341 -1.2841
  163SAPE  H13S18324   0.960   3.715   6.604 -0.2165  0.5124  0.1307
  163SAPE  C21418325   0.918   3.724   6.813 -0.5130  0.1178  0.2884
  163SAPE  H14R18326   0.808   3.725   6.815 -0.5618 -1.4762 -0.2849
  163SAPE  C21518327   0.971   3.678   6.926 -0.4124  0.7962 -0.2773
  163SAPE  H15R18328   0.897   3.646   7.001 -0.4425 -1.2372 -1.1053
  163SAPE  C21618329   1.119   3.678   6.952 -0.1183 -0.1900  0.9343
  163SAPE  H16R18330   1.181   3.687   6.860 -1.0424 -0.1828  0.2996
  163SAPE  H16S18331   1.142   3.579   6.997  0.1907  0.3415  1.9831
  163SAPE  C21718332   1.158   3.778   7.067  1.0436  0.3573 -0.6794
  163SAPE  H17R18333   1.105   3.751   7.161  2.9904  2.1325  1.0497
  163SAPE  H17S18334   1.134   3.885   7.047 -0.9944  0.1263  0.2534
  163SAPE  C21818335   1.305   3.781   7.100 -0.2252  1.0201 -0.0250
  163SAPE  H18R18336   1.313   3.854   7.183  2.3036  1.6793 -0.7623
  163SAPE  H18S18337   1.364   3.824   7.016  1.1065  1.9750  1.3601
  163SAPE  C21918338   1.360   3.648   7.138  0.2383  0.0155  0.2252
  163SAPE  H19R18339   1.374   3.589   7.045  1.4291 -1.0049  1.0126
  163SAPE  H19S18340   1.286   3.601   7.206  0.7552 -0.5969  0.3777
  163SAPE  C22018341   1.490   3.656   7.215  0.7936  0.2198 -0.3676
  163SAPE  H20R18342   1.521   3.563   7.266  1.0311  0.0242 -0.8551
  163SAPE  H20S18343   1.499   3.743   7.284 -3.6430  0.2454  0.4661
  163SAPE  H20T18344   1.566   3.679   7.137 -1.1703 -2.4568 -3.3425
  163SAPE   C3318345   1.643   4.486   6.018 -0.3455  0.7660  0.9257
  163SAPE   H3X18346   1.538   4.506   5.990 -1.0145  0.9751  3.3453
  163SAPE   H3Y18347   1.708   4.576   6.017  0.9719 -0.1360  1.8551
  163SAPE   C3418348   1.624   4.415   6.152 -0.4697 -0.0788  0.4187
  163SAPE   H4X18349   1.730   4.417   6.183  0.2986  1.1321 -2.0122
  163SAPE   H4Y18350   1.583   4.312   6.146 -1.1881  0.1705  0.8139
  163SAPE   C3518351   1.531   4.494   6.240  0.2856 -0.1813 -0.7157
  163SAPE   H5X18352   1.431   4.507   6.193  0.0001 -0.3833 -0.1777
  163SAPE   H5Y18353   1.573   4.595   6.252 -0.1246 -0.2012  1.3025
  163SAPE   C3618354   1.511   4.420   6.375  0.0233 -0.0012  0.1259
  163SAPE   H6X18355   1.611   4.408   6.422 -0.1593 -1.8876  0.1045
  163SAPE   H6Y18356   1.463   4.322   6.354  0.5860 -0.5537  1.3238
  163SAPE   C3718357   1.426   4.489   6.482  0.5453 -0.5206  0.0823
  163SAPE   H7X18358   1.327   4.509   6.437  0.7373  1.0851  0.3054
  163SAPE   H7Y18359   1.477   4.585   6.505  0.6968 -0.8583  1.2585
  163SAPE   C3818360   1.408   4.404   6.611 -0.0040 -0.6361  0.2640
  163SAPE   H8X18361   1.503   4.361   6.647 -0.7528  0.0212  3.3013
  163SAPE   H8Y18362   1.345   4.316   6.586  0.5678 -1.2888  1.0744
  163SAPE   C3918363   1.332   4.484   6.713  0.5037  1.1756 -0.0478
  163SAPE   H9X18364   1.225   4.485   6.684  0.7610  0.4899 -1.0606
  163SAPE   H9Y18365   1.378   4.585   6.712  1.0466  0.9747 -2.2511
  163SAPE  C31018366   1.339   4.413   6.856 -1.1363 -0.1042  0.1079
  163SAPE  H10X18367   1.331   4.303   6.843  1.0502 -0.1655 -1.1326
  163SAPE  H10Y18368   1.277   4.469   6.930 -1.3021 -0.2013  0.0436
  163SAPE  C31118369   1.481   4.433   6.932 -0.6753  0.5169  0.1455
  163SAPE  H11X18370   1.501   4.535   6.970  1.9109  0.2214 -0.1822
  163SAPE  H11Y18371   1.565   4.407   6.863  0.3789  1.6814  0.9593
  163SAPE  C31218372   1.501   4.347   7.060  0.1962  0.1544 -0.6364
  163SAPE  H12X18373   1.600   4.371   7.105 -1.8203  2.3323  3.1744
  163SAPE  H12Y18374   1.499   4.239   7.037 -0.1962 -0.0276  0.2127
  163SAPE  C31318375   1.392   4.386   7.168 -0.9597 -0.3224 -0.5670
  163SAPE  H13X18376   1.292   4.366   7.124 -2.6262 -1.7427  3.4575
  163SAPE  H13Y18377   1.401   4.495   7.189 -0.3015 -0.0723 -2.0214
  163SAPE  C31418378   1.402   4.320   7.302  0.3930  0.4749 -0.0499
  163SAPE  H14X18379   1.321   4.355   7.370 -0.4001 -1.5527  0.1226
  163SAPE  H14Y18380   1.496   4.349   7.353 -0.8746  1.5854  1.7903
  163SAPE  C31518381   1.391   4.166   7.290  0.0199  0.4449  0.8324
  163SAPE  H15X18382   1.498   4.135   7.285  0.2790  1.1124  1.8931
  163SAPE  H15Y18383   1.342   4.145   7.193  1.7873  1.1304 -0.2546
  163SAPE  C31618384   1.310   4.090   7.401  0.6084 -0.3411  0.2161
  163SAPE  H16X18385   1.289   3.983   7.378 -3.0413  0.5089 -1.1120
  163SAPE  H16Y18386   1.207   4.131   7.402  0.9491  0.7413 -2.3192
  163SAPE  C31718387   1.368   4.111   7.546  0.1570 -0.3699  0.0387
  163SAPE  H17X18388   1.378   4.221   7.555 -1.5880 -0.2738  1.0382
  163SAPE  H17Y18389   1.461   4.050   7.541  0.1284 -0.3485 -1.3329
  163SAPE  C31818390   1.275   4.065   7.658 -0.7972 -0.4217 -0.4235
  163SAPE  H18X18391   1.243   3.960   7.642 -0.2419 -0.5854 -0.4988
  163SAPE  H18Y18392   1.182   4.125   7.663 -1.0295 -0.6395 -1.6546
  163SAPE  H18Z18393   1.333   4.075   7.752  1.1125 -0.3423 -1.5477
  164SAPE     N18394   5.966   0.806   5.160  0.6770  0.2460 -0.6310
  164SAPE   HN118395   6.036   0.743   5.116  0.4530  0.1184 -0.8037
  164SAPE   HN218396   5.876   0.758   5.178 -0.3209  1.6075 -1.8474
  164SAPE   HN318397   5.946   0.885   5.095  0.7967 -0.1897 -1.2021
  164SAPE   C1218398   6.015   0.883   5.282 -0.7000  0.0213  0.3101
  164SAPE  H12A18399   5.958   0.978   5.288 -0.4498  0.1170  1.3299
  164SAPE  H12B18400   6.125   0.900   5.285 -0.9242  1.4583  2.3631
  164SAPE   C1118401   5.957   0.813   5.405 -0.6879 -0.2268 -0.5938
  164SAPE  H11A18402   6.016   0.845   5.494 -0.4221  1.0911 -1.2129
  164SAPE  H11B18403   5.988   0.708   5.389  1.0631  0.3556 -1.3185
  164SAPE     P18404   5.741   0.894   5.532  0.0262 -0.0240  0.4603
  164SAPE   O1318405   5.693   1.021   5.480 -0.1885 -0.0977 -0.1116
  164SAPE   O1418406   5.635   0.800   5.579 -0.1396  0.1901 -0.1320
  164SAPE   O1218407   5.815   0.827   5.406  1.0793  0.0371 -0.3719
  164SAPE   O1118408   5.851   0.927   5.639  0.3551  0.3497 -1.0729
  164SAPE    C118409   5.809   0.902   5.776  0.1771 -0.8104  1.0901
  164SAPE    HA18410   5.760   0.804   5.794 -0.2196 -1.0718 -1.1393
  164SAPE    HB18411   5.901   0.894   5.838  0.2918  0.0412  1.0511
  164SAPE    C218412   5.731   1.018   5.853  0.5019 -0.3479 -0.4073
  164SAPE    HS18413   5.637   1.046   5.799  1.4564  1.8927 -1.0391
  164SAPE   O2118414   5.813   1.139   5.864 -0.0048 -0.0145  0.3078
  164SAPE   C2118415   5.756   1.260   5.869  0.3454  0.3944 -0.1312
  164SAPE   O2218416   5.639   1.281   5.860  0.0744  0.3563  0.1818
  164SAPE   C2218417   5.867   1.371   5.881  0.1120  0.9789  0.4520
  164SAPE   H2R18418   5.946   1.338   5.952  0.4008 -0.2443 -0.3949
  164SAPE   H2S18419   5.914   1.378   5.781 -1.3435  0.4690 -0.2951
  164SAPE    C318420   5.695   0.959   5.989  0.5691 -0.8189 -0.4589
  164SAPE    HX18421   5.786   0.921   6.041  0.5378  0.2271  0.4128
  164SAPE    HY18422   5.626   0.873   5.977 -1.3408 -0.1480  3.7093
  164SAPE   O3118423   5.622   1.051   6.086  0.4887 -0.4059 -0.2778
  164SAPE   C3118424   5.487   1.052   6.081 -0.0908  0.3053 -0.2944
  164SAPE   O3218425   5.424   0.982   6.007  0.1522 -0.2894 -0.3204
  164SAPE   C3218426   5.434   1.153   6.183  0.4825 -0.4348 -0.1757
  164SAPE   H2X18427   5.350   1.203   6.131  0.1959 -1.4108 -0.6656
  164SAPE   H2Y18428   5.513   1.229   6.200  0.2372  0.0746 -1.2123
  164SAPE   C2318429   5.811   1.505   5.930  0.5255 -0.6639 -0.2107
  164SAPE   H3R18430   5.705   1.520   5.899 -0.3123 -0.2309  2.5762
  164SAPE   H3S18431   5.881   1.585   5.898  0.2582  0.2234  1.3265
  164SAPE   C2418432   5.805   1.515   6.086  0.2260 -0.2270  0.8453
  164SAPE   H4R18433   5.903   1.509   6.139 -0.0388  0.5721  1.4520
  164SAPE   H4S18434   5.744   1.429   6.121  1.3158 -0.3627  2.5274
  164SAPE   C2518435   5.736   1.637   6.137 -0.1208 -0.0593  0.5542
  164SAPE   H5R18436   5.777   1.723   6.082 -1.7094 -0.1763 -0.8787
  164SAPE   C2618437   5.639   1.651   6.235  0.5021  0.2126 -0.3932
  164SAPE   H6R18438   5.600   1.753   6.246  0.1717 -0.0969  1.7032
  164SAPE   C2718439   5.572   1.539   6.303 -0.6764  0.5212  0.5078
  164SAPE   H7R18440   5.633   1.446   6.300 -0.7098  0.4721  1.1647
  164SAPE   H7S18441   5.466   1.535   6.269 -0.8239  2.4405  0.6529
  164SAPE   C2818442   5.564   1.584   6.448 -0.2126  0.7287  0.0126
  164SAPE   H8R18443   5.647   1.641   6.491  1.6730 -1.5909 -0.3354
  164SAPE   C2918444   5.467   1.550   6.533  0.3017  0.2670  0.3506
  164SAPE   H9R18445   5.483   1.585   6.636 -1.1391 -3.2021  1.9055
  164SAPE  C21018446   5.344   1.478   6.492 -0.1274 -0.1418  0.3878
  164SAPE  H10R18447   5.364   1.393   6.424  1.2371 -1.8221  2.7470
  164SAPE  H10S18448   5.280   1.549   6.435 -1.2314 -2.2718 -1.1679
  164SAPE  C21118449   5.261   1.435   6.608 -0.0797  0.2014  0.9377
  164SAPE  H11R18450   5.160   1.478   6.608  0.1542  0.7799  0.2686
  164SAPE  C21218451   5.292   1.349   6.700  0.3938  0.9469 -0.1932
  164SAPE  H12R18452   5.226   1.325   6.784  1.3474  1.0127  0.5991
  164SAPE  C21318453   5.420   1.275   6.723 -0.1362  0.6556 -0.0017
  164SAPE  H13R18454   5.496   1.352   6.748  0.3394  0.6048 -1.2585
  164SAPE  H13S18455   5.464   1.247   6.625 -0.9363 -0.4983 -0.0569
  164SAPE  C21418456   5.430   1.161   6.822 -0.5475 -0.7749  0.1486
  164SAPE  H14R18457   5.440   1.060   6.781 -1.3977 -2.2828  3.3471
  164SAPE  C21518458   5.438   1.180   6.956  0.0249 -0.2867 -0.0069
  164SAPE  H15R18459   5.430   1.095   7.026 -0.7820 -1.6768 -1.7013
  164SAPE  C21618460   5.442   1.311   7.025  0.0448 -0.2640  1.2037
  164SAPE  H16R18461   5.394   1.393   6.968  0.4564 -1.6837 -1.3158
  164SAPE  H16S18462   5.546   1.342   7.049  0.4022  0.0082 -0.5423
  164SAPE  C21718463   5.388   1.303   7.160 -0.4909 -0.3612 -0.1110
  164SAPE  H17R18464   5.285   1.263   7.158 -0.9371  0.7040 -2.8186
  164SAPE  H17S18465   5.387   1.407   7.199 -2.4087 -0.4762  0.2332
  164SAPE  C21818466   5.468   1.213   7.261 -0.9841 -0.0090  0.0998
  164SAPE  H18R18467   5.576   1.233   7.249 -0.9608  0.1441  0.5480
  164SAPE  H18S18468   5.444   1.105   7.245  1.6983 -0.8407  1.2214
  164SAPE  C21918469   5.434   1.243   7.408  0.7963  0.2908 -0.4459
  164SAPE  H19R18470   5.326   1.239   7.434  0.7069 -2.0728 -0.8985
  164SAPE  H19S18471   5.473   1.343   7.435  0.0446  0.6208 -0.5598
  164SAPE  C22018472   5.500   1.149   7.513 -0.6759 -0.1931  0.5468
  164SAPE  H20R18473   5.610   1.166   7.506 -0.8851  0.4923 -1.7221
  164SAPE  H20S18474   5.478   1.050   7.468  0.1397 -0.0268 -0.2526
  164SAPE  H20T18475   5.455   1.151   7.615 -0.0311  1.7965  0.8319
  164SAPE   C3318476   5.395   1.087   6.315  0.6083  0.4953 -0.0831
  164SAPE   H3X18477   5.310   1.016   6.308  0.6958  0.2546  1.0049
  164SAPE   H3Y18478   5.351   1.171   6.374  2.7808  1.4138  0.3191
  164SAPE   C3418479   5.516   1.010   6.385  0.6444 -0.6656  0.3118
  164SAPE   H4X18480   5.591   1.086   6.416  1.2883 -0.8448 -0.7433
  164SAPE   H4Y18481   5.562   0.934   6.318  1.3979  2.5588 -3.1764
  164SAPE   C3518482   5.465   0.937   6.512 -0.6135  0.7073 -0.4239
  164SAPE   H5X18483   5.400   0.853   6.478 -0.6683 -0.0783  1.5313
  164SAPE   H5Y18484   5.399   0.997   6.579 -1.8797 -0.8227 -0.2271
  164SAPE   C3618485   5.577   0.858   6.585  0.0900 -0.1325  0.6713
  164SAPE   H6X18486   5.665   0.925   6.596 -0.5653  0.9587 -0.5494
  164SAPE   H6Y18487   5.606   0.784   6.507 -1.1334  0.9704 -0.8949
  164SAPE   C3718488   5.525   0.788   6.708  0.5529  0.4685  0.2389
  164SAPE   H7X18489   5.423   0.755   6.682  1.2082 -0.6632 -1.0212
  164SAPE   H7Y18490   5.521   0.855   6.796 -1.0133  2.0205 -0.9343
  164SAPE   C3818491   5.609   0.670   6.744  0.1754  0.3577 -0.2754
  164SAPE   H8X18492   5.718   0.690   6.739  0.5202 -1.2843  0.0589
  164SAPE   H8Y18493   5.599   0.598   6.660  1.2284  1.2752 -1.2160
  164SAPE   C3918494   5.561   0.610   6.880  0.0901  1.0020 -0.9397
  164SAPE   H9X18495   5.587   0.505   6.904 -2.0411 -0.0971 -3.0081
  164SAPE   H9Y18496   5.450   0.616   6.874 -0.0433 -0.7162 -0.5450
  164SAPE  C31018497   5.615   0.694   7.004 -0.1252  0.8186  0.7199
  164SAPE  H10X18498   5.624   0.803   6.986 -1.9947  1.0686  1.1060
  164SAPE  H10Y18499   5.720   0.660   7.019 -0.3284 -0.7917 -1.0393
  164SAPE  C31118500   5.525   0.656   7.118 -0.2421 -0.4571 -0.4099
  164SAPE  H11X18501   5.524   0.546   7.131  1.1173 -0.4045  0.3126
  164SAPE  H11Y18502   5.418   0.681   7.101 -0.5315 -1.3710  0.0238
  164SAPE  C31218503   5.569   0.719   7.252 -0.0784 -0.0216  0.7963
  164SAPE  H12X18504   5.539   0.826   7.251  1.8264  0.6619  3.5103
  164SAPE  H12Y18505   5.680   0.720   7.254 -0.0598  0.4363 -0.1408
  164SAPE  C31318506   5.492   0.665   7.371  0.4129 -1.1096  0.0149
  164SAPE  H13X18507   5.494   0.554   7.385  0.6864 -0.9949  0.9420
  164SAPE  H13Y18508   5.388   0.698   7.347  0.7823 -0.2060 -0.3684
  164SAPE  C31418509   5.536   0.738   7.498 -0.1369 -0.6260 -0.3877
  164SAPE  H14X18510   5.504   0.844   7.495 -0.6949 -0.6882  1.7114
  164SAPE  H14Y18511   5.646   0.738   7.516  0.2189  0.7154 -2.2505
  164SAPE  C31518512   5.466   0.674   7.623  0.4933 -0.2289 -0.0890
  164SAPE  H15X18513   5.500   0.569   7.622  0.6765 -0.2687 -4.0880
  164SAPE  H15Y18514   5.358   0.671   7.598  0.5544  0.0801 -0.3965
  164SAPE  C31618515   5.483   0.749   7.757 -0.8939 -0.1662  0.1429
  164SAPE  H16X18516   5.413   0.712   7.836 -2.0195 -0.8244 -1.1282
  164SAPE  H16Y18517   5.458   0.852   7.724  0.0143 -0.7549 -2.5945
  164SAPE  C31718518   5.616   0.737   7.822 -0.3489  0.1847 -0.2085
  164SAPE  H17X18519   5.692   0.753   7.742 -1.8103  2.7191 -1.2203
  164SAPE  H17Y18520   5.631   0.638   7.870  2.6031  0.7317  0.1947
  164SAPE  C31818521   5.634   0.849   7.935  0.3173  0.7066  0.0652
  164SAPE  H18X18522   5.691   0.813   8.023 -0.2961 -1.5034 -0.3642
  164SAPE  H18Y18523   5.533   0.877   7.973  0.1372  0.6121 -0.3359
  164SAPE  H18Z18524   5.683   0.940   7.895  1.5775 -0.4933 -1.2301
  165SAPE     N18525   6.614   3.355   5.360 -0.8399 -0.3363 -0.3025
  165SAPE   HN118526   6.620   3.400   5.267 -3.0187 -1.1716 -0.9196
  165SAPE   HN218527   6.706   3.365   5.406 -0.2230  0.3985 -1.6473
  165SAPE   HN318528   6.604   3.252   5.345  0.9855 -0.3476 -1.7642
  165SAPE   C1218529   6.508   3.427   5.435  0.1340  0.2438  0.7664
  165SAPE  H12A18530   6.415   3.410   5.376  0.9466 -1.9841  0.0251
  165SAPE  H12B18531   6.531   3.535   5.436 -0.8812  0.4847  0.2525
  165SAPE   C1118532   6.494   3.376   5.583  0.6034 -0.0906  0.5003
  165SAPE  H11A18533   6.423   3.449   5.628 -0.8580  0.6880 -2.7998
  165SAPE  H11B18534   6.590   3.398   5.633  0.5082 -0.7924  1.0093
  165SAPE     P18535   6.294   3.206   5.572 -0.1448 -0.1012 -0.2833
  165SAPE   O1318536   6.272   3.240   5.429 -0.0238  0.5032  0.2393
  165SAPE   O1418537   6.272   3.063   5.609 -0.6332  0.2788  0.3256
  165SAPE   O1218538   6.444   3.245   5.602 -0.4425 -1.1182 -0.4526
  165SAPE   O1118539   6.222   3.307   5.668 -0.5328 -0.0272  0.0434
  165SAPE    C118540   6.215   3.272   5.807 -0.4682 -0.2004 -0.6214
  165SAPE    HA18541   6.139   3.198   5.838 -1.4055  1.5533  1.5493
  165SAPE    HB18542   6.311   3.232   5.844 -0.8723  0.1777  0.8958
  165SAPE    C218543   6.194   3.401   5.890  0.1344  1.2953 -0.0012
  165SAPE    HS18544   6.252   3.485   5.847  0.4515  1.7309  1.2345
  165SAPE   O2118545   6.224   3.374   6.025 -0.1346  0.4301 -0.4637
  165SAPE   C2118546   6.257   3.481   6.106 -0.1481 -0.4304 -0.0956
  165SAPE   O2218547   6.255   3.601   6.069 -0.6375 -0.2733  0.7534
  165SAPE   C2218548   6.248   3.441   6.257 -0.1462  0.2300 -0.8545
  165SAPE   H2R18549   6.143   3.415   6.279  0.5267 -0.9656  1.1307
  165SAPE   H2S18550   6.309   3.349   6.264  0.5297  0.6800 -0.7315
  165SAPE    C318551   6.043   3.442   5.873  1.1019 -0.0174 -0.6496
  165SAPE    HX18552   6.010   3.429   5.768 -0.6157  0.6759 -0.2284
  165SAPE    HY18553   6.040   3.548   5.907  0.5884 -0.3216  0.2817
  165SAPE   O3118554   5.952   3.371   5.964  0.1405 -0.4532  0.3920
  165SAPE   C3118555   5.902   3.251   5.934  0.1161  0.1326  0.1868
  165SAPE   O3218556   5.899   3.206   5.821 -0.1624 -0.2110 -0.3429
  165SAPE   C3218557   5.860   3.176   6.055 -0.0663 -0.4171  0.4311
  165SAPE   H2X18558   5.753   3.152   6.037 -0.3807  1.2589 -0.1135
  165SAPE   H2Y18559   5.867   3.233   6.149 -2.1099 -0.9640  0.9667
  165SAPE   C2318560   6.289   3.551   6.350  1.1259  0.5292 -0.4067
  165SAPE   H3R18561   6.241   3.645   6.314  1.6702  1.5378  1.4182
  165SAPE   H3S18562   6.399   3.563   6.341  1.1423  0.3545 -0.4515
  165SAPE   C2418563   6.234   3.547   6.492  0.1259 -0.3276  0.6673
  165SAPE   H4R18564   6.127   3.570   6.478  0.4904  2.1777  1.5153
  165SAPE   H4S18565   6.258   3.634   6.557 -3.1551  0.3010  1.1674
  165SAPE   C2518566   6.260   3.418   6.559  0.5602  0.8290 -0.2707
  165SAPE   H5R18567   6.230   3.334   6.495 -0.4212  0.5888  0.4847
  165SAPE   C2618568   6.320   3.403   6.676  0.3968  0.7035 -0.4005
  165SAPE   H6R18569   6.324   3.296   6.704  1.1360  1.0833  1.0316
  165SAPE   C2718570   6.349   3.511   6.787 -0.4807  0.7620  0.3024
  165SAPE   H7R18571   6.308   3.477   6.885  3.1487 -0.4722  1.5656
  165SAPE   H7S18572   6.308   3.611   6.761 -2.1471 -0.4075 -1.8989
  165SAPE   C2818573   6.500   3.505   6.803  0.2605 -0.1153 -0.6754
  165SAPE   H8R18574   6.557   3.461   6.720  2.1639 -0.1888  0.6149
  165SAPE   C2918575   6.562   3.517   6.916  0.2539  0.2324  0.3533
  165SAPE   H9R18576   6.671   3.528   6.909  0.4108 -0.3661  1.4959
  165SAPE  C21018577   6.516   3.566   7.045 -0.5115  0.3838 -0.6195
  165SAPE  H10R18578   6.410   3.534   7.060 -0.3005  0.2777  0.8558
  165SAPE  H10S18579   6.512   3.676   7.036  2.1282  0.6708  0.7767
  165SAPE  C21118580   6.610   3.516   7.149 -0.3161 -0.1573 -0.1327
  165SAPE  H11R18581   6.580   3.426   7.205  0.0665  0.8679  1.8274
  165SAPE  C21218582   6.726   3.569   7.189  0.3847  0.6243 -0.5767
  165SAPE  H12R18583   6.772   3.516   7.273  0.4060  0.6956 -0.5427
  165SAPE  C21318584   6.778   3.702   7.146 -0.4752  0.5639  0.5982
  165SAPE  H13R18585   6.697   3.778   7.141 -1.2181 -0.2948 -1.5050
  165SAPE  H13S18586   6.796   3.696   7.036 -1.4067 -1.6577  0.5228
  165SAPE  C21418587   6.911   3.736   7.217 -0.3300 -0.5700  0.2649
  165SAPE  H14R18588   6.893   3.792   7.310  0.2901 -0.1853  0.1582
  165SAPE  C21518589   7.035   3.723   7.173 -0.4018  0.3436  0.4890
  165SAPE  H15R18590   7.121   3.739   7.240  0.6762  0.4615 -0.8803
  165SAPE  C21618591   7.075   3.646   7.046  0.3002  0.0548 -0.0160
  165SAPE  H16R18592   7.167   3.695   7.009  0.5934 -2.1582 -2.4404
  165SAPE  H16S18593   6.992   3.643   6.972  0.2947  1.3452 -0.0911
  165SAPE  C21718594   7.109   3.497   7.080 -0.4301 -0.7938  0.3416
  165SAPE  H17R18595   7.136   3.451   6.982  0.1275 -2.5889  1.2922
  165SAPE  H17S18596   7.027   3.454   7.141  0.8206 -0.0989  2.6552
  165SAPE  C21818597   7.239   3.489   7.158  0.6155  0.1792 -0.2505
  165SAPE  H18R18598   7.226   3.529   7.261 -0.7406  1.5290 -0.9079
  165SAPE  H18S18599   7.310   3.564   7.117 -0.3392  1.1323 -0.2315
  165SAPE  C21918600   7.312   3.365   7.155 -0.4261  0.6823 -0.1780
  165SAPE  H19R18601   7.335   3.327   7.053 -1.5825  0.2924 -0.3150
  165SAPE  H19S18602   7.264   3.280   7.209  3.0045 -1.2427  0.1246
  165SAPE  C22018603   7.443   3.384   7.233 -0.4132  0.3042  0.3384
  165SAPE  H20R18604   7.422   3.374   7.342  1.3323  0.8738  0.7705
  165SAPE  H20S18605   7.495   3.480   7.208  1.3119 -0.7158 -0.1641
  165SAPE  H20T18606   7.522   3.308   7.218  0.5839  1.6060 -1.4315
  165SAPE   C3318607   5.934   3.041   6.061  0.0868  0.6295 -0.0694
  165SAPE   H3X18608   5.938   2.977   5.971  3.8297  0.8043 -0.1942
  165SAPE   H3Y18609   5.885   2.979   6.139  1.7120  0.3555  0.7700
  165SAPE   C3418610   6.078   3.056   6.111  0.3721  1.1937 -0.2565
  165SAPE   H4X18611   6.129   3.125   6.040 -0.4681  0.1066 -2.0050
  165SAPE   H4Y18612   6.123   2.954   6.108 -0.9362  0.3594  3.5030
  165SAPE   C3518613   6.100   3.094   6.260  0.8211 -0.6481  0.4233
  165SAPE   H5X18614   6.054   3.195   6.265  0.3066 -0.7094 -1.8159
  165SAPE   H5Y18615   6.209   3.115   6.258  0.6599  0.2013 -1.2214
  165SAPE   C3618616   6.041   2.998   6.364 -0.0749  0.1255 -0.1196
  165SAPE   H6X18617   6.064   2.892   6.338 -0.1147  0.2775 -0.7894
  165SAPE   H6Y18618   5.931   3.008   6.359 -0.0424 -0.0279 -1.8080
  165SAPE   C3718619   6.092   3.014   6.505  0.5997  0.2633 -0.5044
  165SAPE   H7X18620   6.042   2.938   6.569  3.9484 -1.2764  0.5076
  165SAPE   H7Y18621   6.062   3.115   6.541 -1.3272 -0.2943 -0.3987
  165SAPE   C3818622   6.242   2.991   6.515  0.4047 -0.0778  0.3999
  165SAPE   H8X18623   6.279   3.085   6.469 -1.4033  0.6832  0.3925
  165SAPE   H8Y18624   6.269   2.901   6.455  0.1449 -0.7569  1.2929
  165SAPE   C3918625   6.301   2.985   6.655 -0.8899 -0.3837 -0.4806
  165SAPE   H9X18626   6.260   2.896   6.708  0.0415 -2.0841 -2.4697
  165SAPE   H9Y18627   6.259   3.066   6.718  0.5981 -0.9530  1.3447
  165SAPE  C31018628   6.452   2.971   6.665 -0.1472 -0.0032 -0.5282
  165SAPE  H10X18629   6.486   2.899   6.588 -0.2357 -0.0426 -0.5310
  165SAPE  H10Y18630   6.480   2.953   6.771  0.0482 -0.1096 -0.5975
  165SAPE  C31118631   6.531   3.102   6.631  0.1937 -0.3709  0.0077
  165SAPE  H11X18632   6.485   3.180   6.696 -1.9282  0.0235 -1.8565
  165SAPE  H11Y18633   6.516   3.128   6.524  0.9441  2.0842  0.4198
  165SAPE  C31218634   6.678   3.104   6.663 -1.2377 -0.4485 -0.6670
  165SAPE  H12X18635   6.735   3.034   6.598  0.5492  0.1515  0.1989
  165SAPE  H12Y18636   6.689   3.065   6.766 -0.8425  1.4110  0.0180
  165SAPE  C31318637   6.745   3.245   6.676  0.1546  0.7039 -0.1856
  165SAPE  H13X18638   6.850   3.225   6.705  0.4661  0.3143 -1.5252
  165SAPE  H13Y18639   6.708   3.302   6.764 -1.5783  0.3104 -0.6134
  165SAPE  C31418640   6.730   3.320   6.547 -0.4469 -0.4050  0.0276
  165SAPE  H14X18641   6.625   3.347   6.519 -0.0049  1.9693  0.3959
  165SAPE  H14Y18642   6.767   3.251   6.469  0.3296 -1.3261  1.1907
  165SAPE  C31518643   6.799   3.452   6.539  0.5237  0.0912  0.4911
  165SAPE  H15X18644   6.907   3.435   6.560  0.6777  1.6481  1.1233
  165SAPE  H15Y18645   6.778   3.515   6.629  1.5116  0.6219  0.3657
  165SAPE  C31618646   6.781   3.538   6.414  0.1883 -0.7575  0.1344
  165SAPE  H16X18647   6.670   3.534   6.404 -0.0509  2.1093  0.8349
  165SAPE  H16Y18648   6.828   3.482   6.330  0.0772  1.0193 -1.1783
  165SAPE  C31718649   6.837   3.682   6.434  0.4838 -0.3364  0.4359
  165SAPE  H17X18650   6.939   3.679   6.477 -0.2023 -1.5598  2.0750
  165SAPE  H17Y18651   6.784   3.746   6.508 -1.1975  0.9498 -1.7247
  165SAPE  C31818652   6.838   3.763   6.297  0.5510 -0.1810  0.2639
  165SAPE  H18X18653   6.899   3.708   6.222 -0.4308 -1.0989  0.1092
  165SAPE  H18Y18654   6.894   3.859   6.302 -0.2406  0.4750 -2.1036
  165SAPE  H18Z18655   6.734   3.764   6.257  1.2867  0.0823 -1.7740
  166SAPE     N18656   4.440   0.192   5.490 -0.2703  0.3320 -0.8554
  166SAPE   HN118657   4.487   0.252   5.419  0.2875 -1.1941 -1.8116
  166SAPE   HN218658   4.456   0.089   5.487 -0.5187  0.0675  2.8925
  166SAPE   HN318659   4.337   0.207   5.494 -0.5603 -1.5786  0.3105
  166SAPE   C1218660   4.479   0.235   5.630 -0.3762  0.1349  0.1204
  166SAPE  H12A18661   4.550   0.319   5.611  3.1186 -2.5722  0.3421
  166SAPE  H12B18662   4.544   0.159   5.677  0.0398  0.6787  0.4342
  166SAPE   C1118663   4.353   0.277   5.714  0.4843  0.3648  0.3352
  166SAPE  H11A18664   4.403   0.324   5.802  2.1005 -1.4714  0.4570
  166SAPE  H11B18665   4.302   0.192   5.764  2.6322  0.0508  2.1544
  166SAPE     P18666   4.193   0.502   5.694  0.1651  0.3202  0.2640
  166SAPE   O1318667   4.241   0.623   5.624 -0.3483 -0.1207 -0.6600
  166SAPE   O1418668   4.048   0.477   5.690 -0.1248  0.3111  0.5025
  166SAPE   O1218669   4.265   0.374   5.648  0.3427 -0.2666  0.5051
  166SAPE   O1118670   4.249   0.514   5.840 -0.4545  0.1795 -0.0594
  166SAPE    C118671   4.184   0.457   5.950  0.1801 -0.0785 -0.8051
  166SAPE    HA18672   4.126   0.365   5.927  0.2043 -0.1674 -0.5173
  166SAPE    HB18673   4.262   0.424   6.023  1.4036 -2.0259 -2.8465
  166SAPE    C218674   4.079   0.550   6.024 -0.7761 -0.3209  0.0023
  166SAPE    HS18675   4.043   0.617   5.943 -1.5730 -1.3887 -0.5534
  166SAPE   O2118676   4.157   0.624   6.122  0.0449 -0.6970  0.1171
  166SAPE   C2118677   4.109   0.743   6.152 -0.5241 -0.1248 -0.1839
  166SAPE   O2218678   4.006   0.794   6.110  0.4449  0.0530  0.2368
  166SAPE   C2218679   4.200   0.818   6.246 -0.3007  0.1317  0.1478
  166SAPE   H2R18680   4.300   0.770   6.244 -0.7623 -0.8265 -1.1125
  166SAPE   H2S18681   4.225   0.917   6.202 -1.9269 -0.2632 -1.8194
  166SAPE    C318682   3.970   0.471   6.093  0.2213 -0.0471 -0.0797
  166SAPE    HX18683   3.913   0.428   6.007  0.5775  1.7815 -1.2773
  166SAPE    HY18684   3.908   0.541   6.152 -0.7993 -0.8417 -0.1814
  166SAPE   O3118685   4.026   0.377   6.192  0.2269  0.0235  0.2438
  166SAPE   C3118686   3.943   0.281   6.227  0.0564 -0.9124  0.5484
  166SAPE   O3218687   3.833   0.260   6.176  0.1557  0.2665 -0.0532
  166SAPE   C3218688   4.019   0.209   6.336 -0.0287 -0.3491 -0.2764
  166SAPE   H2X18689   4.116   0.184   6.289 -0.4821 -0.7795 -0.9957
  166SAPE   H2Y18690   3.972   0.110   6.349 -1.9426  0.6266  0.6549
  166SAPE   C2318691   4.158   0.818   6.393 -0.4967 -0.3493 -0.3703
  166SAPE   H3R18692   4.063   0.874   6.399  0.2084  1.3472 -3.2185
  166SAPE   H3S18693   4.230   0.878   6.453  0.2580 -2.0515  0.5311
  166SAPE   C2418694   4.145   0.681   6.460 -0.1773 -0.7246  0.5110
  166SAPE   H4R18695   4.065   0.624   6.408 -2.0634  0.8869  1.5553
  166SAPE   H4S18696   4.103   0.707   6.559 -1.9701 -2.6814  0.3431
  166SAPE   C2518697   4.274   0.603   6.455  0.1645  0.4411  0.4724
  166SAPE   H5R18698   4.320   0.596   6.355  0.7321 -1.2194  0.8155
  166SAPE   C2618699   4.322   0.531   6.557 -0.0980  0.0357 -0.1752
  166SAPE   H6R18700   4.419   0.480   6.546 -0.2764  0.0971 -2.4074
  166SAPE   C2718701   4.266   0.522   6.698  0.2653  0.4468 -0.4620
  166SAPE   H7R18702   4.169   0.468   6.685  0.5279  0.5954 -4.4247
  166SAPE   H7S18703   4.232   0.621   6.735 -0.2072 -0.9406  3.1831
  166SAPE   C2818704   4.364   0.481   6.804  0.4341 -1.0176  0.2029
  166SAPE   H8R18705   4.362   0.379   6.846 -2.9307 -0.5767  1.4415
  166SAPE   C2918706   4.460   0.559   6.856  0.4547 -0.0989 -0.1205
  166SAPE   H9R18707   4.520   0.512   6.935 -1.1256 -2.0981 -0.0465
  166SAPE  C21018708   4.487   0.700   6.820  0.1229  0.6300  0.5991
  166SAPE  H10R18709   4.420   0.771   6.873  0.1914 -0.1705  1.7976
  166SAPE  H10S18710   4.458   0.731   6.717 -0.8041  3.6337  1.6455
  166SAPE  C21118711   4.636   0.728   6.849  0.6993 -0.3593 -0.4644
  166SAPE  H11R18712   4.696   0.680   6.770 -1.0965 -1.3231 -1.2965
  166SAPE  C21218713   4.699   0.812   6.934  0.5186  0.1199 -0.1788
  166SAPE  H12R18714   4.809   0.813   6.948  0.4074  2.6055  1.0644
  166SAPE  C21318715   4.627   0.887   7.042 -0.0128  0.2618  0.3392
  166SAPE  H13R18716   4.523   0.893   7.002  0.6903 -0.1149 -1.7170
  166SAPE  H13S18717   4.672   0.988   7.035  2.7903 -0.9225 -0.2029
  166SAPE  C21418718   4.659   0.841   7.182  0.3011  0.1885  0.4156
  166SAPE  H14R18719   4.740   0.766   7.177 -0.9665 -1.1423 -1.4907
  166SAPE  C21518720   4.592   0.849   7.297  0.9095 -0.5688  0.1353
  166SAPE  H15R18721   4.644   0.824   7.391  1.7925  1.4595  0.2337
  166SAPE  C21618722   4.461   0.921   7.327  0.5462  0.9218  0.1791
  166SAPE  H16R18723   4.392   0.843   7.366  0.0936  0.2472 -1.8860
  166SAPE  H16S18724   4.411   0.955   7.234  0.0969 -0.6355 -0.1608
  166SAPE  C21718725   4.478   1.043   7.411  0.6134 -0.9283 -0.0105
  166SAPE  H17R18726   4.373   1.074   7.427  0.6013  0.2903 -2.0739
  166SAPE  H17S18727   4.534   1.122   7.356 -0.9419 -0.2941 -0.7671
  166SAPE  C21818728   4.531   1.017   7.553 -0.0718 -0.3013 -0.0149
  166SAPE  H18R18729   4.639   0.990   7.555 -0.1848 -0.7424  0.3405
  166SAPE  H18S18730   4.486   0.924   7.594  0.4122 -0.1616  0.8578
  166SAPE  C21918731   4.509   1.124   7.663  0.2382  0.2604 -0.6420
  166SAPE  H19R18732   4.417   1.099   7.718  0.4888 -0.0776 -0.3715
  166SAPE  H19S18733   4.484   1.223   7.617  0.6519  0.8519  0.3830
  166SAPE  C22018734   4.622   1.131   7.764  1.0800  0.1608  0.2325
  166SAPE  H20R18735   4.714   1.135   7.702  0.1852 -0.2434 -1.1561
  166SAPE  H20S18736   4.614   1.049   7.838 -1.0114  0.7983  0.7737
  166SAPE  H20T18737   4.619   1.226   7.823  2.4441 -0.6167  1.6358
  166SAPE   C3318738   4.034   0.280   6.473 -0.9774 -0.2342  0.4982
  166SAPE   H3X18739   4.056   0.389   6.478  0.0210 -0.4573  1.5514
  166SAPE   H3Y18740   4.117   0.244   6.537 -1.3744  2.2170  2.5215
  166SAPE   C3418741   3.922   0.254   6.574  0.5454 -0.6656 -0.2216
  166SAPE   H4X18742   3.934   0.148   6.604  0.3345 -0.9939 -1.2595
  166SAPE   H4Y18743   3.831   0.267   6.511  0.3337 -1.0591 -0.0053
  166SAPE   C3518744   3.918   0.335   6.698  0.2191 -0.3483 -0.3977
  166SAPE   H5X18745   3.935   0.440   6.666 -2.7853  1.0428  2.0623
  166SAPE   H5Y18746   3.997   0.300   6.768 -0.9318  0.2658  1.2718
  166SAPE   C3618747   3.781   0.331   6.775 -0.1883 -0.0114 -0.5006
  166SAPE   H6X18748   3.759   0.230   6.815  1.3502  0.0281  0.5182
  166SAPE   H6Y18749   3.697   0.363   6.710 -1.6753  2.2619  2.3116
  166SAPE   C3718750   3.788   0.413   6.901 -0.6638  0.2929  0.0509
  166SAPE   H7X18751   3.796   0.521   6.879  2.2575  0.0777 -0.3165
  166SAPE   H7Y18752   3.882   0.386   6.954 -1.8476 -1.5088  1.3761
  166SAPE   C3818753   3.678   0.381   6.999 -0.2099  0.0626 -0.5914
  166SAPE   H8X18754   3.672   0.273   7.021 -0.0893  0.6100  2.5597
  166SAPE   H8Y18755   3.580   0.399   6.951 -0.1294 -1.3855 -1.3358
  166SAPE   C3918756   3.667   0.467   7.126  0.6872 -0.3322 -0.8219
  166SAPE   H9X18757   3.638   0.567   7.086  0.8358 -0.7890 -2.1342
  166SAPE   H9Y18758   3.767   0.476   7.174  0.9825  1.4606 -1.6983
  166SAPE  C31018759   3.567   0.406   7.227 -0.0684  0.3170  0.1990
  166SAPE  H10X18760   3.483   0.348   7.183 -0.5982  1.0468  0.2408
  166SAPE  H10Y18761   3.516   0.492   7.275 -3.4178 -0.2770 -1.9806
  166SAPE  C31118762   3.636   0.308   7.327 -0.1463 -0.3361  0.7621
  166SAPE  H11X18763   3.686   0.369   7.405 -0.9714  2.3123 -0.6307
  166SAPE  H11Y18764   3.708   0.234   7.287 -0.2797 -0.7023  1.1987
  166SAPE  C31218765   3.518   0.230   7.391 -0.4352  0.0745  0.0101
  166SAPE  H12X18766   3.574   0.148   7.441 -0.4337 -0.9988 -1.6573
  166SAPE  H12Y18767   3.456   0.173   7.318 -0.8188  1.1079 -0.4994
  166SAPE  C31318768   3.425   0.312   7.484  1.0978  0.3411 -0.0214
  166SAPE  H13X18769   3.359   0.238   7.534  0.2506  0.8882 -0.3080
  166SAPE  H13Y18770   3.354   0.370   7.421 -0.3204 -0.2154  1.0232
  166SAPE  C31418771   3.485   0.409   7.582 -0.6475  0.3503 -0.0181
  166SAPE  H14X18772   3.557   0.472   7.526 -0.8162 -0.3807 -1.0967
  166SAPE  H14Y18773   3.545   0.346   7.653  1.3170  0.0495 -1.8375
  166SAPE  C31518774   3.385   0.495   7.651  0.3209 -0.2774  0.7349
  166SAPE  H15X18775   3.339   0.546   7.564  0.7685 -0.0434  0.6339
  166SAPE  H15Y18776   3.424   0.574   7.719 -0.1932  0.3064  0.3557
  166SAPE  C31618777   3.269   0.420   7.727  0.2161 -0.3621  0.0094
  166SAPE  H16X18778   3.310   0.349   7.801  2.1300 -0.2092 -0.8161
  166SAPE  H16Y18779   3.221   0.345   7.660 -1.6474 -1.0362  1.9897
  166SAPE  C31718780   3.164   0.503   7.797 -0.3598 -0.1993  0.4434
  166SAPE  H17X18781   3.137   0.582   7.724 -0.9480 -1.5962 -0.9059
  166SAPE  H17Y18782   3.198   0.573   7.877 -0.7231  1.2385 -0.6245
  166SAPE  C31818783   3.043   0.423   7.846 -0.3716 -0.3247 -0.1421
  166SAPE  H18X18784   2.983   0.391   7.758 -0.1774  0.0964 -0.4303
  166SAPE  H18Y18785   2.979   0.486   7.912 -0.7117 -0.6679 -0.1461
  166SAPE  H18Z18786   3.066   0.330   7.902  0.5822  0.2137  0.3944
  167SAPE     N18787   5.757   5.922   5.528  0.2398 -0.2427 -0.4014
  167SAPE   HN118788   5.759   6.025   5.522 -1.6849 -0.1249  0.1572
  167SAPE   HN218789   5.839   5.879   5.481  2.2770  1.4750  1.3427
  167SAPE   HN318790   5.667   5.895   5.483  1.1844 -0.9317 -1.9450
  167SAPE   C1218791   5.753   5.898   5.680 -0.5983 -0.4918 -0.1350
  167SAPE  H12A18792   5.855   5.926   5.714 -0.2929 -0.5242 -1.0214
  167SAPE  H12B18793   5.736   5.790   5.695 -0.6176 -0.4434  0.2214
  167SAPE   C1118794   5.655   5.992   5.750 -0.5351 -0.2875 -0.1355
  167SAPE  H11A18795   5.650   5.973   5.859 -1.9316 -1.3470 -0.3534
  167SAPE  H11B18796   5.552   5.971   5.715 -0.6784 -1.8245  1.0865
  167SAPE     P18797   5.605   6.259   5.750 -0.3626  0.1367  0.3969
  167SAPE   O1318798   5.681   6.374   5.697  0.4707  0.0263  0.3333
  167SAPE   O1418799   5.462   6.233   5.709 -0.7045 -0.2731 -0.2821
  167SAPE   O1218800   5.693   6.130   5.719 -0.2409 -0.1860  0.5097
  167SAPE   O1118801   5.604   6.265   5.908  0.0701  0.1974 -0.3500
  167SAPE    C118802   5.708   6.217   5.992 -0.7245  0.1345  0.2713
  167SAPE    HA18803   5.684   6.115   6.031 -0.2601 -1.0156 -2.2535
  167SAPE    HB18804   5.804   6.202   5.938  0.8368 -1.5941  3.2156
  167SAPE    C218805   5.737   6.307   6.113 -0.3137 -0.1858 -0.3582
  167SAPE    HS18806   5.822   6.261   6.168 -0.6907  0.5544  0.8928
  167SAPE   O2118807   5.626   6.313   6.201 -0.1674  0.5178 -0.0943
  167SAPE   C2118808   5.615   6.236   6.308 -0.5300 -0.2824  0.4962
  167SAPE   O2218809   5.695   6.155   6.354  0.0676 -0.6807  0.7440
  167SAPE   C2218810   5.472   6.254   6.352  0.3155 -0.2357 -0.7375
  167SAPE   H2R18811   5.399   6.247   6.268  0.2213  0.6041 -0.7414
  167SAPE   H2S18812   5.451   6.163   6.411  1.3119  0.6128  1.0114
  167SAPE    C318813   5.762   6.455   6.070 -0.2556 -0.0301  0.6515
  167SAPE    HX18814   5.679   6.505   6.017  0.9382  0.1705 -1.1237
  167SAPE    HY18815   5.836   6.435   5.989 -1.8966 -1.0159 -0.6803
  167SAPE   O3118816   5.824   6.534   6.175  0.0304  0.2582  0.5045
  167SAPE   C3118817   5.747   6.606   6.251 -0.5811 -0.4608  0.3372
  167SAPE   O3218818   5.629   6.624   6.232 -0.1963 -0.0980 -0.4374
  167SAPE   C3218819   5.825   6.666   6.369 -0.2270 -0.4467 -0.4054
  167SAPE   H2X18820   5.762   6.652   6.459  2.2677  0.5216  1.5975
  167SAPE   H2Y18821   5.858   6.770   6.346 -2.1820  0.2041 -0.4860
  167SAPE   C2318822   5.441   6.394   6.428 -0.1208  0.2584 -0.4024
  167SAPE   H3R18823   5.345   6.373   6.479 -0.4942 -0.0439 -1.2020
  167SAPE   H3S18824   5.445   6.479   6.357 -3.0104  2.6435  2.0430
  167SAPE   C2418825   5.550   6.417   6.539  0.8077 -0.2716  0.6681
  167SAPE   H4R18826   5.515   6.502   6.601  0.5803  0.9731 -1.0998
  167SAPE   H4S18827   5.646   6.448   6.492  0.1476 -0.5146 -0.9349
  167SAPE   C2518828   5.563   6.293   6.626  0.0262  0.1935 -0.3845
  167SAPE   H5R18829   5.639   6.220   6.595 -0.2326 -0.2691  0.0665
  167SAPE   C2618830   5.486   6.262   6.736  0.4323  0.3451 -0.9110
  167SAPE   H6R18831   5.514   6.168   6.786  2.0552  1.6903  0.8747
  167SAPE   C2718832   5.375   6.342   6.800 -0.6927 -0.0691  0.4460
  167SAPE   H7R18833   5.278   6.287   6.805 -0.2585 -0.9075 -0.0180
  167SAPE   H7S18834   5.352   6.428   6.733  0.3550 -0.2490 -0.1657
  167SAPE   C2818835   5.437   6.394   6.927  0.5344 -0.1100  0.9045
  167SAPE   H8R18836   5.532   6.449   6.918  0.7484 -0.7700 -1.5705
  167SAPE   C2918837   5.384   6.380   7.043  0.9240 -0.6467 -0.7163
  167SAPE   H9R18838   5.435   6.416   7.134 -0.6682  0.2156 -0.1252
  167SAPE  C21018839   5.249   6.312   7.083 -0.4913  0.4437 -0.8295
  167SAPE  H10R18840   5.191   6.283   6.993  1.2951  0.1415 -1.9249
  167SAPE  H10S18841   5.178   6.385   7.126  0.3771  0.6842  0.2605
  167SAPE  C21118842   5.260   6.180   7.165 -0.0612 -0.0025  0.5996
  167SAPE  H11R18843   5.332   6.113   7.115 -1.3920 -0.3767 -0.8951
  167SAPE  C21218844   5.180   6.131   7.259  0.3860 -0.1354  0.3947
  167SAPE  H12R18845   5.204   6.039   7.314 -0.0258 -0.1902  0.4857
  167SAPE  C21318846   5.065   6.201   7.326 -0.5156 -0.3493 -1.1226
  167SAPE  H13R18847   5.033   6.290   7.267  1.0561 -0.0283 -1.5276
  167SAPE  H13S18848   5.112   6.237   7.420 -0.0886 -0.9784 -1.0952
  167SAPE  C21418849   4.941   6.116   7.348 -1.1555 -0.4777  0.2890
  167SAPE  H14R18850   4.935   6.030   7.279  0.5191  1.4073 -2.3661
  167SAPE  C21518851   4.843   6.135   7.439  0.0474  0.1730 -0.0599
  167SAPE  H15R18852   4.753   6.073   7.424 -1.2627  1.5610  1.4834
  167SAPE  C21618853   4.815   6.234   7.551  0.0558 -0.7955  0.3819
  167SAPE  H16R18854   4.805   6.176   7.645  0.7915 -2.3022 -0.4302
  167SAPE  H16S18855   4.718   6.286   7.535  1.2825  2.3532  2.3554
  167SAPE  C21718856   4.924   6.339   7.584  0.1993  0.6512  0.9952
  167SAPE  H17R18857   4.943   6.402   7.495 -0.7701 -0.7451 -0.2530
  167SAPE  H17S18858   5.010   6.272   7.605 -1.3833 -1.8594  0.0205
  167SAPE  C21818859   4.879   6.421   7.708  0.0908  0.7679  0.5468
  167SAPE  H18R18860   4.862   6.349   7.790 -0.7184  0.0929 -0.1907
  167SAPE  H18S18861   4.781   6.469   7.686 -1.6621 -1.7640  2.2757
  167SAPE  C21918862   4.980   6.529   7.752  0.9734 -0.0233 -0.1017
  167SAPE  H19R18863   5.009   6.594   7.666 -2.8055  2.7431  0.4685
  167SAPE  H19S18864   5.074   6.477   7.780  1.7601  0.8901 -0.9715
  167SAPE  C22018865   4.941   6.628   7.866  0.0509  0.2409 -0.7528
  167SAPE  H20R18866   4.846   6.682   7.842 -0.3099  0.2574  0.6414
  167SAPE  H20S18867   5.022   6.700   7.888  0.0396 -0.5167  2.1413
  167SAPE  H20T18868   4.919   6.583   7.964 -2.0903  0.5497 -1.0407
  167SAPE   C3318869   5.954   6.599   6.419  0.7361  0.5524  0.5961
  167SAPE   H3X18870   6.008   6.666   6.489  0.8058  0.4495  0.6412
  167SAPE   H3Y18871   6.021   6.594   6.331  1.9586  0.5813  1.4899
  167SAPE   C3418872   5.921   6.460   6.493 -0.0766 -0.1828  0.2971
  167SAPE   H4X18873   5.872   6.392   6.420  0.5628  0.6598 -0.9527
  167SAPE   H4Y18874   5.846   6.487   6.570 -0.8797  0.7095 -0.7705
  167SAPE   C3518875   6.046   6.395   6.553  0.1381  0.0850  0.1097
  167SAPE   H5X18876   6.116   6.465   6.604  0.1540  1.4996 -1.7517
  167SAPE   H5Y18877   6.103   6.337   6.477  2.5592  1.8329  0.4797
  167SAPE   C3618878   6.014   6.297   6.666 -0.1167  0.7127 -0.1451
  167SAPE   H6X18879   5.967   6.345   6.755 -0.7228  1.1921 -0.7062
  167SAPE   H6Y18880   6.111   6.256   6.700 -0.8392 -2.7811 -1.7875
  167SAPE   C3718881   5.934   6.174   6.610  0.3376 -0.7966  0.1034
  167SAPE   H7X18882   5.997   6.116   6.540 -1.5590 -3.6550  0.5771
  167SAPE   H7Y18883   5.848   6.207   6.547 -0.6121 -2.0049  0.7102
  167SAPE   C3818884   5.887   6.075   6.724 -0.2552 -0.5742 -0.1525
  167SAPE   H8X18885   5.800   6.119   6.779 -2.6687 -2.7104 -1.9907
  167SAPE   H8Y18886   5.972   6.054   6.791 -1.8329 -1.0586  1.7844
  167SAPE   C3918887   5.839   5.939   6.670  0.0948  0.6036  0.9741
  167SAPE   H9X18888   5.922   5.910   6.603  0.8027  1.5771  1.4087
  167SAPE   H9Y18889   5.747   5.952   6.609 -0.3994  1.1867  1.8162
  167SAPE  C31018890   5.824   5.832   6.774  0.2050 -0.1958 -0.2854
  167SAPE  H10X18891   5.743   5.849   6.848  0.2017  0.9028 -0.5285
  167SAPE  H10Y18892   5.920   5.826   6.830  1.1783 -0.0938 -1.8591
  167SAPE  C31118893   5.808   5.692   6.714 -0.0737  0.1536 -0.6330
  167SAPE  H11X18894   5.908   5.659   6.678 -1.4545 -1.6570 -3.0914
  167SAPE  H11Y18895   5.741   5.714   6.628  1.0611  1.2729 -1.2694
  167SAPE  C31218896   5.743   5.590   6.810 -0.0475  0.5028  0.6893
  167SAPE  H12X18897   5.753   5.484   6.778  0.2237 -0.9294  4.9318
  167SAPE  H12Y18898   5.634   5.605   6.825 -0.1229  1.2315 -0.4684
  167SAPE  C31318899   5.811   5.580   6.946 -0.0768 -0.6678  0.0314
  167SAPE  H13X18900   5.817   5.681   6.993  1.6051 -1.0588  0.7338
  167SAPE  H13Y18901   5.910   5.531   6.934 -0.4044 -1.0569 -1.2857
  167SAPE  C31418902   5.732   5.499   7.045 -0.6058  0.1956 -0.9038
  167SAPE  H14X18903   5.699   5.405   6.995 -1.0123 -1.4062  2.1323
  167SAPE  H14Y18904   5.637   5.552   7.070  0.8213  1.7396  1.6397
  167SAPE  C31518905   5.805   5.459   7.174  0.5668 -0.7160  0.2110
  167SAPE  H15X18906   5.856   5.543   7.225  0.1141 -0.7159  0.6701
  167SAPE  H15Y18907   5.885   5.388   7.146  0.5880 -0.4636 -0.3889
  167SAPE  C31618908   5.710   5.383   7.273  0.3328 -1.1533  0.1583
  167SAPE  H16X18909   5.669   5.291   7.227 -1.1193 -0.6570  0.3944
  167SAPE  H16Y18910   5.623   5.440   7.313  0.7644 -1.3649  1.4524
  167SAPE  C31718911   5.796   5.335   7.388  0.8440  0.8281  0.3911
  167SAPE  H17X18912   5.861   5.420   7.420  1.0604  0.7796  0.0876
  167SAPE  H17Y18913   5.874   5.260   7.360  0.8372  0.6878  0.7411
  167SAPE  C31818914   5.711   5.288   7.504  0.1692 -0.3766  0.1005
  167SAPE  H18X18915   5.778   5.261   7.588 -1.1418 -1.6837  0.7773
  167SAPE  H18Y18916   5.640   5.204   7.484 -0.9668  0.7033 -0.5751
  167SAPE  H18Z18917   5.657   5.379   7.538 -3.2538 -0.7109 -3.6320
  168SAPE     N18918   6.564   1.006   5.361 -0.3177 -0.6857 -0.1939
  168SAPE   HN118919   6.638   1.027   5.291 -2.0436 -0.6703 -2.1211
  168SAPE   HN218920   6.514   1.096   5.377 -0.2214 -0.5645 -0.5534
  168SAPE   HN318921   6.596   0.965   5.451 -1.5394 -1.3895 -0.0512
  168SAPE   C1218922   6.475   0.904   5.296  0.1515  0.4073 -0.3833
  168SAPE  H12A18923   6.535   0.815   5.266 -0.7768 -0.0007 -1.0699
  168SAPE  H12B18924   6.431   0.947   5.203 -0.2272 -1.3839 -1.0930
  168SAPE   C1118925   6.371   0.856   5.394  1.0159  0.0236 -0.3984
  168SAPE  H11A18926   6.298   0.935   5.421 -0.9700 -2.3705  1.8590
  168SAPE  H11B18927   6.423   0.834   5.490  0.9865 -2.2668 -0.8464
  168SAPE     P18928   6.349   0.591   5.366 -0.0915  0.0119  0.1102
  168SAPE   O1318929   6.252   0.495   5.316 -0.1738 -0.2289 -0.0711
  168SAPE   O1418930   6.490   0.569   5.324 -0.3788 -0.0653  0.0544
  168SAPE   O1218931   6.301   0.742   5.338 -0.3976 -0.2191  0.4335
  168SAPE   O1118932   6.351   0.587   5.522 -0.0156  0.2146  0.3740
  168SAPE    C118933   6.235   0.612   5.594  0.7220 -0.0845 -0.0888
  168SAPE    HA18934   6.253   0.690   5.671  0.0137  0.7535 -0.7631
  168SAPE    HB18935   6.154   0.663   5.539  1.1611 -0.2753 -0.9251
  168SAPE    C218936   6.178   0.479   5.645 -0.2773 -0.5468  0.1749
  168SAPE    HS18937   6.136   0.423   5.559 -0.5560 -1.1013  0.6674
  168SAPE   O2118938   6.080   0.519   5.743 -0.2502 -0.1304  0.0862
  168SAPE   C2118939   5.980   0.440   5.764 -0.5639  0.3607 -0.0205
  168SAPE   O2218940   5.968   0.326   5.716 -0.2491 -0.3074 -0.4695
  168SAPE   C2218941   5.885   0.501   5.854 -0.0564 -0.0405 -0.2542
  168SAPE   H2R18942   5.804   0.548   5.793  0.4840  0.8723 -0.2954
  168SAPE   H2S18943   5.836   0.419   5.912 -1.0644  0.5391 -0.2513
  168SAPE    C318944   6.283   0.385   5.710  0.0112 -0.2484  0.0433
  168SAPE    HX18945   6.347   0.347   5.627 -1.6520  0.9653 -1.9026
  168SAPE    HY18946   6.235   0.298   5.760 -0.6521  0.9227  1.5051
  168SAPE   O3118947   6.367   0.454   5.808 -0.4498 -0.0447  0.2064
  168SAPE   C3118948   6.336   0.447   5.938 -0.1762  0.4293 -0.1371
  168SAPE   O3218949   6.238   0.395   5.986  0.3080  0.7117  0.1672
  168SAPE   C3218950   6.439   0.549   6.003 -0.1079 -0.3601  0.2962
  168SAPE   H2X18951   6.432   0.644   5.946 -1.3775 -0.9783 -0.6269
  168SAPE   H2Y18952   6.538   0.509   5.974 -0.7735 -0.2312 -2.4565
  168SAPE   C2318953   5.943   0.604   5.962  0.5480 -0.0412  0.2009
  168SAPE   H3R18954   5.979   0.696   5.911 -1.4943  1.0898  0.6853
  168SAPE   H3S18955   6.029   0.551   6.009  0.0366 -0.9187  0.1561
  168SAPE   C2418956   5.836   0.634   6.070  0.2225 -0.2759 -0.1184
  168SAPE   H4R18957   5.750   0.690   6.029  1.9079  3.0621  0.5963
  168SAPE   H4S18958   5.882   0.706   6.141 -1.2179  1.8779 -1.2691
  168SAPE   C2518959   5.804   0.508   6.145 -0.2536  0.7279  0.2275
  168SAPE   H5R18960   5.718   0.458   6.097  0.2096  1.2745 -1.2231
  168SAPE   C2618961   5.867   0.462   6.256 -0.2109 -0.6664  0.5811
  168SAPE   H6R18962   5.838   0.360   6.286 -1.3274 -1.1232 -1.8229
  168SAPE   C2718963   5.981   0.522   6.337  0.0282 -0.8325  0.4157
  168SAPE   H7R18964   6.033   0.604   6.283 -2.6157  2.8748  3.0155
  168SAPE   H7S18965   6.053   0.440   6.361 -0.6888 -1.3211  0.9285
  168SAPE   C2818966   5.932   0.589   6.460 -0.4207 -0.1713 -0.6278
  168SAPE   H8R18967   5.893   0.690   6.439  0.2873  0.0058 -1.1458
  168SAPE   C2918968   5.929   0.534   6.579 -0.0551  0.4925 -0.1708
  168SAPE   H9R18969   5.880   0.588   6.661 -0.8619  0.4402 -0.6074
  168SAPE  C21018970   5.984   0.396   6.614  0.2005 -0.1245  0.2641
  168SAPE  H10R18971   6.082   0.389   6.562 -1.0003  3.2518 -2.9205
  168SAPE  H10S18972   5.913   0.327   6.563 -0.6566 -0.4062  1.7813
  168SAPE  C21118973   5.980   0.359   6.760  0.0431 -0.0162  0.3973
  168SAPE  H11R18974   5.883   0.378   6.808 -0.5371  1.7878 -1.3485
  168SAPE  C21218975   6.092   0.351   6.832  0.0475  0.0338 -0.0003
  168SAPE  H12R18976   6.089   0.296   6.927  1.7136 -1.5294 -0.7724
  168SAPE  C21318977   6.235   0.342   6.781  0.3471 -0.4265 -0.3864
  168SAPE  H13R18978   6.259   0.442   6.738  2.5809 -0.2372  1.1653
  168SAPE  H13S18979   6.251   0.285   6.687 -1.2596 -1.9278  0.1892
  168SAPE  C21418980   6.336   0.292   6.877  0.0810  0.0791  0.3344
  168SAPE  H14R18981   6.370   0.189   6.863 -2.8261 -1.0362  0.8351
  168SAPE  C21518982   6.376   0.348   6.991  0.3530 -0.8896 -0.5251
  168SAPE  H15R18983   6.455   0.295   7.047  0.1316 -1.2418 -0.5456
  168SAPE  C21618984   6.355   0.482   7.060  0.2320 -1.3238  0.4693
  168SAPE  H16R18985   6.275   0.546   7.017  2.2333  2.3612  1.7037
  168SAPE  H16S18986   6.447   0.544   7.052 -1.9812  2.4909  1.5741
  168SAPE  C21718987   6.326   0.444   7.211  0.0501 -0.2476  0.5716
  168SAPE  H17R18988   6.413   0.385   7.248 -0.6581 -1.5789  0.1394
  168SAPE  H17S18989   6.243   0.372   7.221  1.2920 -1.8522 -0.1107
  168SAPE  C21818990   6.290   0.559   7.308  0.6437 -0.1945  0.9787
  168SAPE  H18R18991   6.269   0.508   7.405  2.5412 -0.9153  1.0515
  168SAPE  H18S18992   6.200   0.616   7.277  0.1162 -1.4786  0.0429
  168SAPE  C21918993   6.401   0.654   7.344  0.2536 -0.6643  0.5770
  168SAPE  H19R18994   6.452   0.695   7.254  0.8463 -0.3206  1.0605
  168SAPE  H19S18995   6.485   0.599   7.392  2.5833  2.6410  0.6360
  168SAPE  C22018996   6.356   0.766   7.438 -0.1050 -0.1310  0.5643
  168SAPE  H20R18997   6.309   0.727   7.531 -1.7941  0.9506  0.1945
  168SAPE  H20S18998   6.281   0.818   7.375  0.6032 -1.9587 -1.9986
  168SAPE  H20T18999   6.439   0.835   7.464 -0.6773 -0.0974  2.4558
  168SAPE   C3319000   6.422   0.568   6.153 -0.7306 -0.6381  0.2112
  168SAPE   H3X19001   6.327   0.621   6.172 -1.7255 -2.4276  0.4639
  168SAPE   H3Y19002   6.501   0.644   6.170 -0.5008 -0.2982 -2.0807
  168SAPE   C3419003   6.435   0.437   6.235 -0.0304  0.1147 -0.0473
  168SAPE   H4X19004   6.539   0.412   6.206  0.1290  1.7909 -1.0809
  168SAPE   H4Y19005   6.361   0.355   6.221  1.6165 -1.5266  0.5712
  168SAPE   C3519006   6.428   0.464   6.387  0.0231 -0.4101 -0.1540
  168SAPE   H5X19007   6.465   0.378   6.448 -0.2012 -0.8379 -0.6163
  168SAPE   H5Y19008   6.320   0.476   6.412  0.0466 -2.7657  1.3775
  168SAPE   C3619009   6.514   0.579   6.437 -0.7032 -0.2989 -0.0251
  168SAPE   H6X19010   6.465   0.670   6.397 -0.8133 -0.3585 -0.0277
  168SAPE   H6Y19011   6.617   0.579   6.397 -0.4586 -2.8617  0.4255
  168SAPE   C3719012   6.514   0.591   6.589 -0.3198 -0.3364  0.1073
  168SAPE   H7X19013   6.561   0.498   6.629 -0.0373 -0.0426  0.4647
  168SAPE   H7Y19014   6.411   0.595   6.630 -0.9300 -1.1219 -1.2706
  168SAPE   C3819015   6.600   0.719   6.639 -0.4500 -0.0415  0.2391
  168SAPE   H8X19016   6.552   0.801   6.581 -4.1069 -3.3854 -1.9775
  168SAPE   H8Y19017   6.707   0.716   6.612 -0.5178  1.0650 -0.1885
  168SAPE   C3919018   6.591   0.726   6.790  0.2339  0.1384 -0.2045
  168SAPE   H9X19019   6.632   0.632   6.832 -0.9392 -0.7204 -0.9493
  168SAPE   H9Y19020   6.482   0.730   6.811  0.4163 -0.7625  1.0372
  168SAPE  C31019021   6.661   0.846   6.843 -0.7167  0.4867  0.3195
  168SAPE  H10X19022   6.601   0.939   6.850 -0.8211  0.3047  2.5556
  168SAPE  H10Y19023   6.752   0.861   6.782  1.0671  2.6453  3.2434
  168SAPE  C31119024   6.712   0.804   6.987 -0.1038 -0.2825  0.3654
  168SAPE  H11X19025   6.785   0.721   6.980 -1.9087 -2.0623  1.5236
  168SAPE  H11Y19026   6.636   0.760   7.055  1.0652 -1.4258  0.9826
  168SAPE  C31219027   6.771   0.924   7.061  0.3174 -0.5265 -0.4614
  168SAPE  H12X19028   6.700   1.007   7.076 -1.0317 -2.0356  2.3820
  168SAPE  H12Y19029   6.856   0.958   6.998  0.3383  0.6505  0.1694
  168SAPE  C31319030   6.812   0.878   7.206  0.4428  0.1290 -0.2966
  168SAPE  H13X19031   6.880   0.794   7.183  2.0661  1.4979 -0.6727
  168SAPE  H13Y19032   6.722   0.844   7.262  2.2270 -2.9590  0.9276
  168SAPE  C31419033   6.875   0.985   7.294 -0.4600 -1.2129 -0.4086
  168SAPE  H14X19034   6.837   1.086   7.265  0.0587 -0.4439  1.4414
  168SAPE  H14Y19035   6.984   0.981   7.275 -0.0961  0.3210  1.1130
  168SAPE  C31519036   6.862   0.954   7.441 -0.3278  0.7112  0.5166
  168SAPE  H15X19037   6.951   0.990   7.497  1.0198 -1.9869  0.2697
  168SAPE  H15Y19038   6.873   0.845   7.459  0.2340  0.4138 -1.3542
  168SAPE  C31619039   6.729   1.012   7.486  0.2408  0.2928  0.0243
  168SAPE  H16X19040   6.651   0.975   7.417  0.0401 -1.0012  0.9074
  168SAPE  H16Y19041   6.731   1.123   7.486  0.4834  0.2901  0.0211
  168SAPE  C31719042   6.703   0.976   7.637 -0.3563  0.2672  0.3989
  168SAPE  H17X19043   6.719   0.867   7.620  0.3037  0.6409 -1.7456
  168SAPE  H17Y19044   6.597   0.996   7.661 -1.3018 -0.8099 -2.4792
  168SAPE  C31819045   6.805   1.034   7.731  0.1926  0.1852  0.4450
  168SAPE  H18X19046   6.765   1.011   7.833 -3.4627 -0.6338 -1.0166
  168SAPE  H18Y19047   6.818   1.144   7.721  1.0566 -0.1281 -2.8427
  168SAPE  H18Z19048   6.907   0.991   7.726  0.2235  0.3733 -0.7243
  169SAPE     N19049   0.135   3.136   5.412 -0.3680 -0.7069 -0.5519
  169SAPE   HN119050   0.120   3.038   5.380  1.8810 -0.4447 -2.7570
  169SAPE   HN219051   0.236   3.160   5.398  0.0400 -0.6017  2.1559
  169SAPE   HN319052   0.114   3.139   5.513  1.6396 -1.2483 -0.0813
  169SAPE   C1219053   0.051   3.250   5.349 -0.7197  0.5399  0.4816
  169SAPE  H12A19054   0.078   3.238   5.242  2.3566  0.0776  1.2287
  169SAPE  H12B19055   0.093   3.347   5.384  0.1760  0.6301 -0.7929
  169SAPE   C1119056  -0.101   3.228   5.368  0.1885 -0.8914  0.3377
  169SAPE  H11A19057  -0.134   3.128   5.333  0.3895 -0.8174 -0.0696
  169SAPE  H11B19058  -0.155   3.306   5.312  1.5609  1.4788  2.1170
  169SAPE     P19059  -0.193   3.367   5.569 -0.0119 -0.2555  0.5428
  169SAPE   O1319060  -0.077   3.452   5.608 -0.1143 -0.1845 -0.3193
  169SAPE   O1419061  -0.292   3.426   5.472 -0.5519  1.0625 -0.4107
  169SAPE   O1219062  -0.139   3.233   5.510  0.1705 -0.3233  0.7270
  169SAPE   O1119063  -0.261   3.321   5.700  0.3465 -0.1551  0.2851
  169SAPE    C119064  -0.176   3.290   5.816 -0.2043 -0.6001  0.3603
  169SAPE    HA19065  -0.224   3.201   5.864 -0.8742 -1.4636 -1.7590
  169SAPE    HB19066  -0.079   3.250   5.780 -0.7997 -0.4043 -1.6292
  169SAPE    C219067  -0.171   3.405   5.917 -0.4773  0.0103  0.3635
  169SAPE    HS19068  -0.152   3.506   5.876 -1.3742 -0.0470 -0.2137
  169SAPE   O2119069  -0.075   3.355   6.017 -0.0004 -0.5404 -0.0755
  169SAPE   C2119070   0.053   3.362   5.990  0.7220  0.3299  1.1133
  169SAPE   O2219071   0.102   3.428   5.899 -0.3405 -0.3744 -0.3078
  169SAPE   C2219072   0.123   3.278   6.102 -0.1223 -0.2088  0.1717
  169SAPE   H2R19073   0.153   3.346   6.185  1.4918 -1.0245  0.3045
  169SAPE   H2S19074   0.058   3.196   6.139 -0.8838 -0.3310 -1.3813
  169SAPE    C319075  -0.316   3.423   5.976 -0.3423  0.4116  0.2472
  169SAPE    HX19076  -0.381   3.458   5.893  1.5906  2.5586 -0.4508
  169SAPE    HY19077  -0.313   3.509   6.047  1.0880 -0.5428  1.4189
  169SAPE   O3119078  -0.369   3.305   6.040  0.7702  0.2060 -0.3746
  169SAPE   C3119079  -0.489   3.325   6.101  0.5325 -0.0737  0.4963
  169SAPE   O3219080  -0.565   3.420   6.084  0.0600  0.6934 -0.2920
  169SAPE   C3219081  -0.523   3.207   6.196  0.1504  0.3862  0.2135
  169SAPE   H2X19082  -0.601   3.241   6.269 -0.8745 -2.2137  0.4414
  169SAPE   H2Y19083  -0.432   3.180   6.253 -1.3334 -2.0564  1.6354
  169SAPE   C2319084   0.255   3.211   6.048  0.5572  0.0084 -0.5802
  169SAPE   H3R19085   0.323   3.297   6.027  0.9170 -0.1365 -0.0413
  169SAPE   H3S19086   0.241   3.155   5.953 -1.3727  0.7198 -0.7582
  169SAPE   C2419087   0.328   3.134   6.157  0.7439  0.5550  0.3098
  169SAPE   H4R19088   0.433   3.113   6.127  0.4952 -1.6783  0.7807
  169SAPE   H4S19089   0.282   3.033   6.155  3.2783 -0.6775 -0.3198
  169SAPE   C2519090   0.338   3.181   6.297 -0.3412 -0.2701 -0.6963
  169SAPE   H5R19091   0.287   3.275   6.324 -1.8144 -1.6682  1.6462
  169SAPE   C2619092   0.412   3.120   6.393 -1.0364  0.3719 -0.9089
  169SAPE   H6R19093   0.417   3.159   6.496  1.8570 -0.8611 -0.5020
  169SAPE   C2719094   0.515   3.005   6.374 -0.0611 -0.1652  0.7129
  169SAPE   H7R19095   0.601   3.010   6.444 -0.0260 -1.4774  0.7751
  169SAPE   H7S19096   0.566   3.010   6.275 -0.2703  1.8823  0.6643
  169SAPE   C2819097   0.439   2.875   6.387  0.7160  0.4058 -0.0893
  169SAPE   H8R19098   0.368   2.853   6.306  0.5145 -1.9551  0.6392
  169SAPE   C2919099   0.427   2.800   6.498 -0.0665  0.3536 -0.8102
  169SAPE   H9R19100   0.351   2.721   6.492 -0.0973  0.2834  0.2901
  169SAPE  C21019101   0.479   2.824   6.636 -1.0714 -0.2506  0.0790
  169SAPE  H10R19102   0.590   2.831   6.634 -1.0545  0.9856  2.0249
  169SAPE  H10S19103   0.438   2.739   6.695 -3.4655  0.8500  0.1440
  169SAPE  C21119104   0.428   2.944   6.710  0.1645 -0.0428  0.2595
  169SAPE  H11R19105   0.347   3.002   6.664 -0.7413 -1.1228  0.4541
  169SAPE  C21219106   0.473   2.988   6.835 -0.7959  0.1403  0.3236
  169SAPE  H12R19107   0.435   3.083   6.877 -0.2444  0.5789 -0.1576
  169SAPE  C21319108   0.577   2.933   6.927 -0.4847  0.0201  0.5883
  169SAPE  H13R19109   0.593   2.828   6.895 -1.4658 -0.0253  0.2349
  169SAPE  H13S19110   0.547   2.937   7.034 -1.1478  1.9439  0.3789
  169SAPE  C21419111   0.704   3.011   6.911 -1.1726  0.5624  0.9734
  169SAPE  H14R19112   0.764   2.985   6.823 -2.6734  2.0075 -0.5301
  169SAPE  C21519113   0.769   3.100   6.988 -0.7971  0.2107  0.0197
  169SAPE  H15R19114   0.874   3.111   6.956 -1.9437  3.3905 -3.4200
  169SAPE  C21619115   0.715   3.182   7.103  0.1188 -0.0659 -0.8371
  169SAPE  H16R19116   0.751   3.129   7.194  0.8517 -1.0507 -1.6757
  169SAPE  H16S19117   0.606   3.177   7.125  0.5956 -1.9344  1.5129
  169SAPE  C21719118   0.748   3.333   7.098 -0.2166  0.4729 -0.7839
  169SAPE  H17R19119   0.695   3.368   7.007 -1.2117  1.3290  0.0989
  169SAPE  H17S19120   0.856   3.351   7.080  0.2875  0.9407  2.1316
  169SAPE  C21819121   0.700   3.400   7.227 -0.4143  0.1155 -0.9937
  169SAPE  H18R19122   0.724   3.335   7.314 -2.3365 -0.2277 -0.6845
  169SAPE  H18S19123   0.593   3.429   7.221 -0.1352  0.9878 -2.0981
  169SAPE  C21919124   0.776   3.539   7.242  0.2335 -0.1582 -0.4860
  169SAPE  H19R19125   0.732   3.610   7.169 -1.5465  0.3785  1.0221
  169SAPE  H19S19126   0.884   3.516   7.227  0.5329 -0.1900  1.4455
  169SAPE  C22019127   0.760   3.599   7.378  0.1540  0.0596 -0.4624
  169SAPE  H20R19128   0.812   3.530   7.448 -0.8668  1.9912  2.3892
  169SAPE  H20S19129   0.652   3.605   7.404 -0.4526  0.6499 -2.8716
  169SAPE  H20T19130   0.801   3.701   7.393  0.4637 -0.0801 -0.3518
  169SAPE   C3319131  -0.577   3.071   6.130  0.1227  0.1710 -0.3166
  169SAPE   H3X19132  -0.505   3.032   6.054  0.0492 -0.4149 -0.0927
  169SAPE   H3Y19133  -0.670   3.087   6.073  1.1910  2.2770 -1.5959
  169SAPE   C3419134  -0.595   2.965   6.249 -0.4588  0.1969 -0.4939
  169SAPE   H4X19135  -0.675   2.998   6.319 -1.4929 -1.1298 -1.0226
  169SAPE   H4Y19136  -0.498   2.968   6.304 -0.0209  0.6243 -1.2786
  169SAPE   C3519137  -0.612   2.816   6.209 -0.2483 -0.5561  0.0705
  169SAPE   H5X19138  -0.552   2.795   6.118 -2.3517 -0.2825 -1.4647
  169SAPE   H5Y19139  -0.719   2.805   6.182 -0.4468  0.6766  0.2725
  169SAPE   C3619140  -0.567   2.713   6.314 -0.7372 -0.1364  0.2062
  169SAPE   H6X19141  -0.601   2.614   6.278 -0.0972  0.2152 -1.4677
  169SAPE   H6Y19142  -0.613   2.742   6.411 -0.5865 -1.0438  0.5536
  169SAPE   C3719143  -0.411   2.694   6.329 -0.5257 -0.0478 -0.1348
  169SAPE   H7X19144  -0.377   2.797   6.352 -1.8460  0.2449  0.6957
  169SAPE   H7Y19145  -0.366   2.657   6.235 -1.5522 -2.9370  0.4115
  169SAPE   C3819146  -0.352   2.609   6.436 -0.2940  0.2090 -0.5397
  169SAPE   H8X19147  -0.242   2.602   6.422 -0.4899  0.1320 -2.2473
  169SAPE   H8Y19148  -0.393   2.508   6.417  1.0095 -0.5528  0.5615
  169SAPE   C3919149  -0.393   2.654   6.583 -0.0627  0.4754  0.4019
  169SAPE   H9X19150  -0.501   2.639   6.605 -0.2193  1.1544  0.1226
  169SAPE   H9Y19151  -0.367   2.762   6.593 -2.1352  1.0078  0.3872
  169SAPE  C31019152  -0.327   2.572   6.690  0.0505 -0.0319  0.0570
  169SAPE  H10X19153  -0.231   2.540   6.643  0.0158 -0.6924  0.4263
  169SAPE  H10Y19154  -0.382   2.476   6.706  3.6994 -1.7972  3.6186
  169SAPE  C31119155  -0.306   2.640   6.828  0.2974  0.3913 -0.4783
  169SAPE  H11X19156  -0.261   2.739   6.808  1.3478 -0.3514 -2.0596
  169SAPE  H11Y19157  -0.233   2.577   6.884 -1.1247  0.3313  1.3987
  169SAPE  C31219158  -0.431   2.661   6.915 -0.1664 -0.3312  0.1869
  169SAPE  H12X19159  -0.461   2.559   6.946  1.7663 -1.3217 -0.9743
  169SAPE  H12Y19160  -0.513   2.711   6.858  0.8459 -1.3940 -2.3750
  169SAPE  C31319161  -0.404   2.752   7.040  0.1670  0.6196 -0.4011
  169SAPE  H13X19162  -0.396   2.858   7.009  1.6486  0.2073 -1.5245
  169SAPE  H13Y19163  -0.306   2.728   7.086 -0.2343 -0.5349 -0.1136
  169SAPE  C31419164  -0.516   2.751   7.143 -0.0726 -0.7095 -0.3686
  169SAPE  H14X19165  -0.479   2.786   7.242 -0.6272 -1.4016  0.0984
  169SAPE  H14Y19166  -0.532   2.645   7.172 -1.7613 -1.0665 -2.3674
  169SAPE  C31519167  -0.641   2.835   7.109  0.2326  0.3097 -0.8016
  169SAPE  H15X19168  -0.716   2.807   7.186  0.6005 -0.0551 -0.5683
  169SAPE  H15Y19169  -0.680   2.780   7.021 -0.4430 -2.1979  0.9400
  169SAPE  C31619170  -0.619   2.986   7.085 -0.5511  0.1363  0.1600
  169SAPE  H16X19171  -0.559   2.991   6.992 -3.6636 -1.4232 -2.1149
  169SAPE  H16Y19172  -0.554   3.008   7.173  1.4952 -0.2654 -1.1762
  169SAPE  C31719173  -0.746   3.056   7.049  0.0505 -0.3596  1.1496
  169SAPE  H17X19174  -0.812   3.060   7.138 -0.4485  0.3318  0.7533
  169SAPE  H17Y19175  -0.792   3.010   6.958 -0.7583  1.5605  0.5229
  169SAPE  C31819176  -0.730   3.202   7.009  0.6676  0.0183  0.1968
  169SAPE  H18X19177  -0.649   3.221   6.935  1.9632  0.2754  1.6500
  169SAPE  H18Y19178  -0.716   3.264   7.100 -1.0898  1.1311 -0.2282
  169SAPE  H18Z19179  -0.820   3.231   6.950  2.5515  1.3993 -2.1988
  170SAPE     N19180   6.160   6.397   5.387 -1.1703 -0.4302 -0.1100
  170SAPE   HN119181   6.245   6.338   5.405 -0.2627  0.7231 -0.4782
  170SAPE   HN219182   6.071   6.345   5.392 -1.1796 -0.7200 -2.3193
  170SAPE   HN319183   6.168   6.423   5.287 -2.0870 -2.7634 -0.8628
  170SAPE   C1219184   6.165   6.511   5.480  0.8664 -0.7112 -0.3962
  170SAPE  H12A19185   6.182   6.466   5.581 -0.7399 -2.6567 -0.9226
  170SAPE  H12B19186   6.060   6.547   5.473  0.4177 -2.1140 -1.4570
  170SAPE   C1119187   6.269   6.616   5.452  0.3503 -1.0158 -1.0367
  170SAPE  H11A19188   6.248   6.700   5.521 -2.3553 -0.0384 -2.8793
  170SAPE  H11B19189   6.257   6.645   5.346  1.8867 -1.2016 -1.2815
  170SAPE     P19190   6.528   6.618   5.419  0.1966 -0.0058 -0.3040
  170SAPE   O1319191   6.597   6.523   5.325  0.2141  0.0244 -0.0105
  170SAPE   O1419192   6.505   6.754   5.377  0.1346 -0.4955 -0.0460
  170SAPE   O1219193   6.396   6.564   5.481 -0.3197 -0.0420 -0.2925
  170SAPE   O1119194   6.615   6.626   5.545  0.2913  0.3812 -0.7631
  170SAPE    C119195   6.603   6.740   5.627  0.4419 -0.2503 -0.1660
  170SAPE    HA19196   6.613   6.841   5.582 -1.7466  0.0948  0.0166
  170SAPE    HB19197   6.502   6.742   5.674  1.2028 -2.8033  1.8003
  170SAPE    C219198   6.707   6.727   5.745 -0.1687 -0.2613  0.3672
  170SAPE    HS19199   6.692   6.621   5.777 -0.7458 -0.4936 -0.6289
  170SAPE   O2119200   6.674   6.821   5.850  0.5450  0.5079  0.2711
  170SAPE   C2119201   6.701   6.769   5.966  0.0436 -0.5923 -0.4817
  170SAPE   O2219202   6.748   6.661   5.983  0.6861  0.7480 -0.0424
  170SAPE   C2219203   6.670   6.876   6.079 -0.3285 -0.6055  0.9322
  170SAPE   H2R19204   6.628   6.968   6.034 -1.7885 -1.1759  1.0875
  170SAPE   H2S19205   6.585   6.836   6.138 -0.7010 -1.5858 -0.2137
  170SAPE    C319206   6.847   6.752   5.691  0.1911  1.1279  0.3523
  170SAPE    HX19207   6.840   6.714   5.587  0.6688  1.1457  0.3075
  170SAPE    HY19208   6.937   6.694   5.722  0.2294 -0.0304 -1.7464
  170SAPE   O3119209   6.868   6.898   5.671  0.0585  0.6284 -0.0774
  170SAPE   C3119210   6.951   6.947   5.770 -0.0516  0.9945  0.2900
  170SAPE   O3219211   6.989   6.881   5.862 -0.1588  0.7128  0.4855
  170SAPE   C3219212   6.995   7.087   5.739  0.0715  0.4756 -0.8318
  170SAPE   H2X19213   6.923   7.136   5.669 -1.4142  0.1739  0.4112
  170SAPE   H2Y19214   7.094   7.080   5.691  0.7658  1.2036  0.4273
  170SAPE   C2319215   6.780   6.922   6.173  0.5126 -0.2472 -0.1541
  170SAPE   H3R19216   6.745   7.022   6.208  1.5537  0.6922 -1.6666
  170SAPE   H3S19217   6.872   6.929   6.110  1.0357 -0.1990  0.5935
  170SAPE   C2419218   6.800   6.830   6.299  0.4707 -0.6934 -0.2408
  170SAPE   H4R19219   6.818   6.724   6.268 -2.1909 -1.5211  0.7717
  170SAPE   H4S19220   6.708   6.829   6.360  1.0887  0.9614  0.7816
  170SAPE   C2519221   6.915   6.880   6.376 -0.0666  0.1234  0.1069
  170SAPE   H5R19222   7.001   6.863   6.311 -1.3562 -1.8917 -1.2088
  170SAPE   C2619223   6.930   6.925   6.508  0.7258  0.5897  0.5283
  170SAPE   H6R19224   7.025   6.967   6.546  0.5879  0.9446  0.4895
  170SAPE   C2719225   6.822   6.915   6.602  0.3340 -0.5165 -0.1376
  170SAPE   H7R19226   6.724   6.940   6.557  0.3495  2.4133  1.1894
  170SAPE   H7S19227   6.822   6.998   6.676 -2.5871  1.0686 -1.7429
  170SAPE   C2819228   6.821   6.775   6.673 -0.3906  0.0148  0.8144
  170SAPE   H8R19229   6.815   6.691   6.603 -0.8854 -0.2782  1.2007
  170SAPE   C2919230   6.857   6.742   6.800 -0.0700 -0.1458  0.6769
  170SAPE   H9R19231   6.846   6.635   6.822 -0.2107 -0.6719 -1.6738
  170SAPE  C21019232   6.874   6.833   6.920 -0.1310  0.9647  0.2104
  170SAPE  H10R19233   6.836   6.936   6.903 -0.4309  1.1176  1.6993
  170SAPE  H10S19234   6.982   6.844   6.945 -0.3340  0.0392  1.5749
  170SAPE  C21119235   6.800   6.774   7.043  1.0052  0.2314 -0.0859
  170SAPE  H11R19236   6.704   6.729   7.013  1.4139 -1.4268  0.9572
  170SAPE  C21219237   6.833   6.770   7.173 -0.0383 -1.0527  0.1926
  170SAPE  H12R19238   6.777   6.715   7.249  0.2806  1.0391  2.0405
  170SAPE  C21319239   6.951   6.838   7.228  0.8625  0.1299  0.2173
  170SAPE  H13R19240   6.915   6.933   7.272 -0.6122  0.7581 -2.1170
  170SAPE  H13S19241   7.031   6.855   7.153  1.4042 -3.0469 -0.0788
  170SAPE  C21419242   7.010   6.739   7.327 -0.2130  1.4031  0.7373
  170SAPE  H14R19243   7.013   6.630   7.308  1.4142  1.4714  0.4353
  170SAPE  C21519244   7.053   6.783   7.449  0.6765 -0.1839  0.5103
  170SAPE  H15R19245   7.106   6.719   7.521 -0.2120  0.2868  1.6151
  170SAPE  C21619246   7.053   6.921   7.492 -0.6708 -0.7621  0.2178
  170SAPE  H16R19247   7.086   6.922   7.598  1.4629  0.9287 -0.4005
  170SAPE  H16S19248   6.952   6.967   7.483  1.1666  3.8892  0.4910
  170SAPE  C21719249   7.160   7.013   7.422  0.7854 -0.4452 -0.0117
  170SAPE  H17R19250   7.145   7.020   7.312  1.5454 -3.3076 -0.4006
  170SAPE  H17S19251   7.258   6.960   7.426 -0.8421 -3.9882 -1.8380
  170SAPE  C21819252   7.169   7.151   7.485  0.0182  0.2329  0.2017
  170SAPE  H18R19253   7.065   7.189   7.475 -1.0529 -2.7839 -1.1806
  170SAPE  H18S19254   7.235   7.213   7.420 -0.2442  1.1129  0.7436
  170SAPE  C21919255   7.217   7.147   7.626 -0.0985  0.5744  0.2136
  170SAPE  H19R19256   7.150   7.110   7.706  0.7234  0.8890  1.0651
  170SAPE  H19S19257   7.231   7.253   7.657  0.3223  0.3244  0.8943
  170SAPE  C22019258   7.358   7.084   7.656 -0.3781 -0.1157 -0.1793
  170SAPE  H20R19259   7.442   7.119   7.593  0.1017  0.1080  0.5629
  170SAPE  H20S19260   7.350   6.973   7.648 -1.9290  0.1085 -2.3998
  170SAPE  H20T19261   7.397   7.108   7.758 -2.3221  1.5605  0.2192
  170SAPE   C3319262   7.002   7.182   5.856 -0.8358  0.2887  0.2837
  170SAPE   H3X19263   7.059   7.274   5.829  1.0037 -0.2720  2.0627
  170SAPE   H3Y19264   7.066   7.151   5.940  2.0028  1.3783 -1.3516
  170SAPE   C3419265   6.864   7.216   5.915  0.2995 -0.0993 -0.6620
  170SAPE   H4X19266   6.827   7.120   5.956  0.7734 -1.3504 -2.9701
  170SAPE   H4Y19267   6.792   7.240   5.834 -0.7674 -3.4931 -0.8486
  170SAPE   C3519268   6.879   7.331   6.019 -0.6215  0.7233 -0.0905
  170SAPE   H5X19269   6.927   7.421   5.975  1.1507  0.0176  0.3273
  170SAPE   H5Y19270   6.935   7.308   6.112 -1.3466  1.3323  0.5121
  170SAPE   C3619271   6.748   7.391   6.062  0.2156 -0.6654 -0.1231
  170SAPE   H6X19272   6.696   7.436   5.974 -0.5837 -2.1920 -0.4636
  170SAPE   H6Y19273   6.766   7.477   6.130 -1.4272 -1.0292  0.8270
  170SAPE   C3719274   6.659   7.283   6.127 -0.1581  0.5059 -0.0789
  170SAPE   H7X19275   6.676   7.184   6.079 -1.5869  0.4552 -0.5307
  170SAPE   H7Y19276   6.554   7.313   6.107  0.3197  0.9592 -2.1262
  170SAPE   C3819277   6.685   7.265   6.280 -0.5655  0.4552 -0.3944
  170SAPE   H8X19278   6.720   7.367   6.309  0.7940  0.0026 -0.3568
  170SAPE   H8Y19279   6.772   7.202   6.307 -1.1202  0.5452  1.8029
  170SAPE   C3919280   6.562   7.231   6.359  1.1219  0.2498 -0.4570
  170SAPE   H9X19281   6.535   7.126   6.334  2.2733 -0.3176  0.5832
  170SAPE   H9Y19282   6.474   7.290   6.328 -0.6459 -2.0477 -0.1520
  170SAPE  C31019283   6.591   7.258   6.505  0.1730 -0.3239 -0.3894
  170SAPE  H10X19284   6.580   7.365   6.532 -2.4658 -0.1409 -1.8486
  170SAPE  H10Y19285   6.702   7.251   6.510  0.3756 -1.1725 -3.6018
  170SAPE  C31119286   6.518   7.160   6.594 -0.7865 -0.0595 -0.3919
  170SAPE  H11X19287   6.548   7.062   6.552 -0.1881 -0.5872  1.1779
  170SAPE  H11Y19288   6.408   7.168   6.584 -1.0970  0.6242  2.6341
  170SAPE  C31219289   6.562   7.172   6.743 -0.1503 -0.0045  0.7361
  170SAPE  H12X19290   6.544   7.278   6.770 -1.8455  0.1596 -0.8436
  170SAPE  H12Y19291   6.671   7.151   6.734 -0.4059 -1.3113  0.4250
  170SAPE  C31319292   6.493   7.068   6.829  0.2860  0.7067 -0.4377
  170SAPE  H13X19293   6.508   6.967   6.784  2.4021  0.9071 -0.3064
  170SAPE  H13Y19294   6.385   7.086   6.811  0.3637  1.2462 -0.3569
  170SAPE  C31419295   6.550   7.068   6.970 -0.7922 -0.9462 -0.0675
  170SAPE  H14X19296   6.525   7.164   7.021 -2.0188 -1.7092  0.8212
  170SAPE  H14Y19297   6.660   7.061   6.980 -0.5722  0.3011 -1.2240
  170SAPE  C31519298   6.489   6.956   7.052  0.6666 -0.5085 -0.4482
  170SAPE  H15X19299   6.514   6.856   7.011 -0.0687 -1.0056  0.2775
  170SAPE  H15Y19300   6.378   6.959   7.038  0.3339  2.0452  1.7931
  170SAPE  C31619301   6.516   6.978   7.203  0.3887  0.1308 -0.2883
  170SAPE  H16X19302   6.472   7.069   7.249  1.4703 -0.1677  1.4462
  170SAPE  H16Y19303   6.625   6.983   7.225 -0.1998  1.0166  3.0722
  170SAPE  C31719304   6.454   6.856   7.279 -0.3496 -0.4460 -0.5589
  170SAPE  H17X19305   6.464   6.756   7.231 -0.9385 -0.2612 -1.0793
  170SAPE  H17Y19306   6.347   6.882   7.294  0.0491  1.0790 -0.1790
  170SAPE  C31819307   6.509   6.844   7.429  0.5331  0.4923 -0.5036
  170SAPE  H18X19308   6.474   6.748   7.473 -1.9331  1.7076  0.3287
  170SAPE  H18Y19309   6.487   6.936   7.486  1.1266  0.2010  0.2145
  170SAPE  H18Z19310   6.620   6.843   7.423  0.5583  0.9623 -0.1373
  171SAPE     N19311   0.309   1.238   5.381 -1.0349 -0.0644 -0.5072
  171SAPE   HN119312   0.266   1.287   5.462  1.5658  1.3816  0.1062
  171SAPE   HN219313   0.236   1.228   5.307 -0.6677  2.0225 -1.1937
  171SAPE   HN319314   0.337   1.141   5.407 -1.2378  0.3669  1.4700
  171SAPE   C1219315   0.430   1.307   5.323  0.7959 -0.2054 -0.3941
  171SAPE  H12A19316   0.386   1.396   5.273 -0.7521 -0.0592  1.1268
  171SAPE  H12B19317   0.471   1.237   5.246 -0.5454 -2.2779  0.6810
  171SAPE   C1119318   0.534   1.325   5.431 -0.2758  0.0811 -0.2340
  171SAPE  H11A19319   0.505   1.408   5.499 -1.6680  0.4135 -1.1937
  171SAPE  H11B19320   0.634   1.348   5.390  0.4621 -2.4215 -0.0133
  171SAPE     P19321   0.681   1.168   5.563  0.1747  0.1114 -0.0410
  171SAPE   O1319322   0.766   1.089   5.468 -0.2807  0.0598 -0.0182
  171SAPE   O1419323   0.739   1.296   5.608  0.2174  0.2218  0.3974
  171SAPE   O1219324   0.550   1.203   5.493 -0.3425  0.4271 -0.4504
  171SAPE   O1119325   0.640   1.091   5.691 -0.7092 -0.0038 -0.0934
  171SAPE    C119326   0.527   1.010   5.703  0.7412  0.1435 -0.3593
  171SAPE    HA19327   0.507   0.957   5.607 -0.4001  1.2694 -0.7856
  171SAPE    HB19328   0.543   0.928   5.776  0.5233 -1.7284 -2.2903
  171SAPE    C219329   0.405   1.096   5.754  0.3555  0.6617  0.3349
  171SAPE    HS19330   0.375   1.170   5.677  3.8095  0.0277 -1.8457
  171SAPE   O2119331   0.450   1.166   5.871  0.2978  0.6629  0.2944
  171SAPE   C2119332   0.395   1.282   5.905 -0.0818  0.8135  0.0450
  171SAPE   O2219333   0.305   1.331   5.840  0.1296 -0.2615  0.2157
  171SAPE   C2219334   0.445   1.336   6.038 -0.3980 -0.1586  0.5667
  171SAPE   H2R19335   0.381   1.297   6.120  0.1240 -0.3603  0.8774
  171SAPE   H2S19336   0.550   1.304   6.054  0.0598  1.2620  0.5442
  171SAPE    C319337   0.281   1.017   5.787 -0.5175  0.1580 -0.2603
  171SAPE    HX19338   0.235   0.982   5.692 -1.6004  2.3258 -0.5820
  171SAPE    HY19339   0.196   1.077   5.826 -1.1448  0.2824 -1.7415
  171SAPE   O3119340   0.308   0.898   5.866  0.1511 -0.5844  0.2831
  171SAPE   C3119341   0.296   0.924   6.000  0.2334 -0.4870  0.1276
  171SAPE   O3219342   0.270   1.029   6.046 -0.0816 -0.2181 -0.0270
  171SAPE   C3219343   0.329   0.793   6.071  0.0974 -0.0517  0.2651
  171SAPE   H2X19344   0.410   0.746   6.011  2.0873  2.1900  1.0183
  171SAPE   H2Y19345   0.231   0.742   6.068 -1.4042  2.6135  0.8630
  171SAPE   C2319346   0.425   1.492   6.043 -0.1661  0.6604 -0.4642
  171SAPE   H3R19347   0.319   1.519   6.024 -0.1145  2.6998  1.7002
  171SAPE   H3S19348   0.486   1.537   5.961  0.1816 -0.1537 -0.6623
  171SAPE   C2419349   0.478   1.550   6.175 -0.2942 -0.7528 -0.3019
  171SAPE   H4R19350   0.455   1.469   6.247 -0.8272 -2.0931 -1.9099
  171SAPE   H4S19351   0.423   1.639   6.211  0.4415 -0.6597  0.6189
  171SAPE   C2519352   0.626   1.576   6.164  0.1594 -0.7819 -0.7601
  171SAPE   H5R19353   0.648   1.669   6.108  1.8738 -2.2092 -2.6039
  171SAPE   C2619354   0.730   1.508   6.216  0.2084 -0.2605 -0.0295
  171SAPE   H6R19355   0.830   1.549   6.200  0.7890 -1.7861 -0.5541
  171SAPE   C2719356   0.709   1.395   6.312 -0.6685 -0.2097 -0.2678
  171SAPE   H7R19357   0.602   1.386   6.341 -0.4936  0.4861  0.6273
  171SAPE   H7S19358   0.762   1.419   6.406  1.7530  0.9027 -1.8018
  171SAPE   C2819359   0.763   1.268   6.259 -0.0914 -0.0014  0.2853
  171SAPE   H8R19360   0.781   1.262   6.151  1.9895  0.3173  0.5717
  171SAPE   C2919361   0.786   1.160   6.334 -0.2669  0.0784  0.1304
  171SAPE   H9R19362   0.824   1.070   6.283  0.6891 -0.1711  1.2474
  171SAPE  C21019363   0.765   1.148   6.487 -0.6750 -0.2677 -0.6587
  171SAPE  H10R19364   0.665   1.185   6.517 -0.1687  1.0851 -0.5635
  171SAPE  H10S19365   0.841   1.217   6.530 -2.4336  0.9488  0.6511
  171SAPE  C21119366   0.776   1.007   6.530 -0.0906 -0.2840 -0.4466
  171SAPE  H11R19367   0.834   0.948   6.458 -1.6472 -1.6973 -0.6065
  171SAPE  C21219368   0.698   0.954   6.629  0.3102 -0.6420  0.2963
  171SAPE  H12R19369   0.717   0.847   6.649  2.7336 -0.4983 -0.8720
  171SAPE  C21319370   0.615   1.030   6.730 -0.2900  0.4955 -0.4082
  171SAPE  H13R19371   0.640   1.138   6.739  1.3807  0.0210  1.6392
  171SAPE  H13S19372   0.645   0.989   6.829 -1.7721 -0.9897 -0.5233
  171SAPE  C21419373   0.467   1.009   6.712 -0.0863 -0.3031  0.0700
  171SAPE  H14R19374   0.424   1.000   6.611  0.3381  0.4744 -0.1883
  171SAPE  C21519375   0.378   1.020   6.814 -0.4280  0.2902  0.4334
  171SAPE  H15R19376   0.270   1.011   6.800 -0.6232 -0.0035  1.9401
  171SAPE  C21619377   0.402   1.043   6.960  0.4649  0.3847  0.2025
  171SAPE  H16R19378   0.506   1.077   6.982 -0.0276 -0.2207  4.2215
  171SAPE  H16S19379   0.399   0.942   7.006  2.6111  0.1089 -0.1681
  171SAPE  C21719380   0.305   1.140   7.032 -0.1532  0.2724  0.1661
  171SAPE  H17R19381   0.206   1.094   7.051  0.6141 -1.1414  0.9245
  171SAPE  H17S19382   0.305   1.223   6.959  0.4523  0.1556  0.0311
  171SAPE  C21819383   0.357   1.180   7.174 -0.5581  0.2613  0.3895
  171SAPE  H18R19384   0.307   1.275   7.202 -0.4485  0.6442 -0.6765
  171SAPE  H18S19385   0.464   1.204   7.153 -1.0994 -0.3128 -3.9475
  171SAPE  C21919386   0.348   1.062   7.274 -0.4107  0.3211 -0.4965
  171SAPE  H19R19387   0.409   0.980   7.232  0.6248  1.2645 -0.8599
  171SAPE  H19S19388   0.241   1.031   7.272  0.2927 -2.6133  1.0755
  171SAPE  C22019389   0.386   1.092   7.420 -0.6362  0.1196 -0.2584
  171SAPE  H20R19390   0.490   1.122   7.448 -0.1937 -1.9099  0.4938
  171SAPE  H20S19391   0.380   0.996   7.477  0.2870  0.7656  0.9707
  171SAPE  H20T19392   0.309   1.162   7.458 -2.3230 -1.2393 -1.0377
  171SAPE   C3319393   0.377   0.820   6.218  0.0334  0.1772 -0.6563
  171SAPE   H3X19394   0.304   0.893   6.259 -0.2211  0.2781 -1.2710
  171SAPE   H3Y19395   0.482   0.853   6.232 -0.5231  0.6303  3.7743
  171SAPE   C3419396   0.359   0.688   6.297  0.2555  0.0749 -0.4827
  171SAPE   H4X19397   0.423   0.612   6.248 -0.6120 -0.0821 -1.3968
  171SAPE   H4Y19398   0.252   0.657   6.291 -0.3578  1.7892  0.6654
  171SAPE   C3519399   0.388   0.717   6.448  0.4124  0.4725 -0.0367
  171SAPE   H5X19400   0.313   0.793   6.476  0.8955  0.8047  0.3859
  171SAPE   H5Y19401   0.491   0.747   6.478 -0.1233  2.2490  0.1086
  171SAPE   C3619402   0.352   0.594   6.540 -0.1658 -0.2953 -0.4140
  171SAPE   H6X19403   0.403   0.504   6.500  2.1427  1.3355 -1.3316
  171SAPE   H6Y19404   0.242   0.590   6.527 -0.7106  3.7827  1.3833
  171SAPE   C3719405   0.395   0.617   6.683 -0.2074  0.0920  0.1470
  171SAPE   H7X19406   0.368   0.722   6.708  2.4477  1.3510 -1.7773
  171SAPE   H7Y19407   0.505   0.621   6.695 -0.1087  2.3905 -0.8165
  171SAPE   C3819408   0.331   0.511   6.773  0.4195  0.1632  0.1279
  171SAPE   H8X19409   0.256   0.449   6.720  0.9443 -0.8540  0.5507
  171SAPE   H8Y19410   0.294   0.564   6.864  0.3370 -0.9863  0.7837
  171SAPE   C3919411   0.432   0.412   6.839  0.2671 -0.2998  0.0659
  171SAPE   H9X19412   0.503   0.474   6.898 -0.2228 -0.8929  1.3149
  171SAPE   H9Y19413   0.471   0.356   6.751 -0.1344 -0.1527 -0.2083
  171SAPE  C31019414   0.350   0.314   6.932 -0.9480 -0.4190  0.4605
  171SAPE  H10X19415   0.289   0.249   6.865  2.3660 -0.3235 -2.9875
  171SAPE  H10Y19416   0.282   0.371   6.999  0.5152  1.5259  0.3684
  171SAPE  C31119417   0.445   0.230   7.015  0.2590 -0.0101 -0.2495
  171SAPE  H11X19418   0.480   0.282   7.107  1.8009 -1.0541 -0.1960
  171SAPE  H11Y19419   0.535   0.201   6.956 -1.6123 -1.2244 -2.6811
  171SAPE  C31219420   0.381   0.098   7.060  0.2946 -0.3187  0.4709
  171SAPE  H12X19421   0.341   0.039   6.975 -1.9579  0.6267  0.7831
  171SAPE  H12Y19422   0.299   0.119   7.132  0.5559 -0.9577  0.9678
  171SAPE  C31319423   0.469   0.008   7.137 -0.1569  0.1621  0.2855
  171SAPE  H13X19424   0.523   0.067   7.215  1.2086 -0.2671 -0.3108
  171SAPE  H13Y19425   0.550  -0.034   7.074 -0.0461  1.3403 -0.3819
  171SAPE  C31419426   0.394  -0.110   7.204  0.1187  0.0783  0.8402
  171SAPE  H14X19427   0.358  -0.174   7.120 -2.4497  0.5090  1.5378
  171SAPE  H14Y19428   0.303  -0.065   7.250 -0.1556  0.4909 -0.0804
  171SAPE  C31519429   0.473  -0.192   7.303  0.1408  0.0442  0.6506
  171SAPE  H15X19430   0.505  -0.137   7.394  1.5358 -1.5078  1.1571
  171SAPE  H15Y19431   0.568  -0.227   7.257  0.0167 -0.1735  0.5585
  171SAPE  C31619432   0.397  -0.318   7.343 -0.4600 -0.3460  0.4097
  171SAPE  H16X19433   0.375  -0.379   7.253  0.7305  0.0771 -0.1851
  171SAPE  H16Y19434   0.298  -0.292   7.388 -0.2903 -0.5991  0.9460
  171SAPE  C31719435   0.474  -0.403   7.448 -0.9266 -0.5424  0.1701
  171SAPE  H17X19436   0.577  -0.418   7.408 -0.5646 -2.6589  1.7376
  171SAPE  H17Y19437   0.445  -0.509   7.468  2.3363 -1.0121  3.7071
  171SAPE  C31819438   0.494  -0.338   7.581 -0.0283  0.0913 -0.3259
  171SAPE  H18X19439   0.401  -0.327   7.639  0.3580 -0.8981  0.5099
  171SAPE  H18Y19440   0.538  -0.236   7.578 -2.1308  1.0521  0.3229
  171SAPE  H18Z19441   0.553  -0.402   7.650  0.0655  1.4943  0.9422
  172SAPE     N19442   6.839   6.443   5.417  0.1621 -0.1933  0.5154
  172SAPE   HN119443   6.748   6.493   5.412  1.0858  1.9262  3.0295
  172SAPE   HN219444   6.906   6.518   5.441  0.3952  0.7434 -2.5668
  172SAPE   HN319445   6.859   6.414   5.319 -3.2220  0.7612 -0.5873
  172SAPE   C1219446   6.828   6.335   5.518 -0.1982  0.2462  0.0030
  172SAPE  H12A19447   6.904   6.260   5.488 -1.3106 -0.9465  0.1023
  172SAPE  H12B19448   6.730   6.284   5.515  0.4408 -0.9998 -0.3704
  172SAPE   C1119449   6.862   6.384   5.663  0.4786 -0.0985  0.0204
  172SAPE  H11A19450   6.846   6.302   5.736  0.7143 -1.4120 -1.3380
  172SAPE  H11B19451   6.793   6.466   5.689 -0.5417 -0.4008 -1.5845
  172SAPE     P19452   7.128   6.374   5.711 -0.1396 -0.4210 -0.1420
  172SAPE   O1319453   7.092   6.245   5.760  0.7268  0.3664 -0.1473
  172SAPE   O1419454   7.230   6.388   5.601  0.1628  0.1844 -0.5927
  172SAPE   O1219455   6.995   6.439   5.674 -0.5958  0.5972 -1.0909
  172SAPE   O1119456   7.179   6.448   5.829 -0.1731 -0.1775  0.0472
  172SAPE    C119457   7.092   6.496   5.936 -0.1263 -0.2286 -0.3516
  172SAPE    HA19458   6.992   6.535   5.906 -0.7608 -1.1861  0.4448
  172SAPE    HB19459   7.065   6.416   6.008 -1.2381  2.1492  2.0216
  172SAPE    C219460   7.163   6.616   6.002  0.3878 -0.4398  0.5868
  172SAPE    HS19461   7.179   6.693   5.923  2.4573 -2.0878 -0.6901
  172SAPE   O2119462   7.288   6.562   6.042 -0.4961 -0.2054  0.7901
  172SAPE   C2119463   7.380   6.642   6.089 -1.0125  0.3081  0.0842
  172SAPE   O2219464   7.373   6.760   6.098 -0.5664  0.2692 -0.3997
  172SAPE   C2219465   7.514   6.562   6.124  0.9555 -0.0395  0.0648
  172SAPE   H2R19466   7.479   6.486   6.197 -0.4094  0.7203  0.2248
  172SAPE   H2S19467   7.555   6.528   6.027  0.1727 -0.9417  0.0438
  172SAPE    C319468   7.083   6.689   6.113  0.7175  0.0202 -0.1724
  172SAPE    HX19469   6.988   6.727   6.070 -0.3450  0.5373  2.4191
  172SAPE    HY19470   7.133   6.779   6.155  1.0626 -0.7606  1.1467
  172SAPE   O3119471   7.042   6.596   6.215 -0.3620  0.8122  0.5753
  172SAPE   C3119472   7.098   6.609   6.342 -0.9560  0.0936 -0.4960
  172SAPE   O3219473   7.180   6.697   6.367  0.0208  0.3882  0.4326
  172SAPE   C3219474   7.048   6.503   6.444 -0.0630  0.2265  0.5340
  172SAPE   H2X19475   6.983   6.431   6.391 -0.8541  1.2867  0.0072
  172SAPE   H2Y19476   6.980   6.566   6.505  1.1331  0.6791  1.4458
  172SAPE   C2319477   7.632   6.644   6.182 -0.9414  0.5332 -0.4077
  172SAPE   H3R19478   7.647   6.740   6.128 -0.3208  1.5091  1.4127
  172SAPE   H3S19479   7.727   6.587   6.180 -0.1158  1.8320  0.3526
  172SAPE   C2419480   7.597   6.674   6.329 -1.1195  0.1140  0.4726
  172SAPE   H4R19481   7.596   6.578   6.385  0.1779 -1.5431 -2.1448
  172SAPE   H4S19482   7.492   6.707   6.343 -2.0763 -2.1254 -0.8944
  172SAPE   C2519483   7.686   6.775   6.398 -0.0676  0.1216  0.0662
  172SAPE   H5R19484   7.650   6.877   6.377 -2.3346 -1.0511 -2.4291
  172SAPE   C2619485   7.797   6.746   6.467  0.2167  0.1684  0.8552
  172SAPE   H6R19486   7.844   6.826   6.527 -0.2690 -0.2745  1.8642
  172SAPE   C2719487   7.875   6.613   6.471 -0.5806 -0.2238 -0.1187
  172SAPE   H7R19488   7.973   6.633   6.421 -1.5671 -2.5922 -3.3166
  172SAPE   H7S19489   7.826   6.533   6.412  0.2102 -0.4350 -0.5188
  172SAPE   C2819490   7.888   6.558   6.611 -0.5548  0.1315 -0.0543
  172SAPE   H8R19491   7.963   6.616   6.667 -2.0306  1.0057  1.0978
  172SAPE   C2919492   7.822   6.457   6.672 -0.2789  0.3590 -0.3175
  172SAPE   H9R19493   7.858   6.423   6.770  0.7010 -1.9189 -1.3894
  172SAPE  C21019494   7.698   6.384   6.611  0.1817 -0.3791 -0.7026
  172SAPE  H10R19495   7.713   6.274   6.612 -2.1844 -0.7635  0.3825
  172SAPE  H10S19496   7.685   6.410   6.504  0.7245  1.1500 -0.4281
  172SAPE  C21119497   7.588   6.426   6.700 -0.3475 -0.4984 -0.0206
  172SAPE  H11R19498   7.565   6.534   6.704 -1.6664 -0.7205 -0.8975
  172SAPE  C21219499   7.544   6.351   6.804  0.4829 -0.0805 -0.4050
  172SAPE  H12R19500   7.465   6.396   6.867  0.2436 -1.2794  0.1743
  172SAPE  C21319501   7.570   6.208   6.851  0.1806 -0.4189 -0.3256
  172SAPE  H13R19502   7.567   6.197   6.962 -0.7351 -2.0740 -0.4789
  172SAPE  H13S19503   7.671   6.169   6.828  0.5800  0.9154 -0.9117
  172SAPE  C21419504   7.462   6.121   6.795  1.0085 -0.3126 -0.1585
  172SAPE  H14R19505   7.398   6.170   6.719  0.6354  0.3435  0.5705
  172SAPE  C21519506   7.449   5.984   6.796  0.5947 -0.3455  0.2311
  172SAPE  H15R19507   7.375   5.939   6.728  0.2795  1.7984 -0.9277
  172SAPE  C21619508   7.519   5.893   6.887 -0.5863  0.0586 -0.1877
  172SAPE  H16R19509   7.580   5.961   6.949  0.7512 -1.8135  0.6262
  172SAPE  H16S19510   7.586   5.830   6.826  1.9477  1.1314  1.3384
  172SAPE  C21719511   7.418   5.828   6.979 -0.5135 -0.5674  0.0664
  172SAPE  H17R19512   7.475   5.756   7.041  3.4120 -0.8996 -3.4598
  172SAPE  H17S19513   7.345   5.770   6.918 -1.6916 -0.0152  0.9113
  172SAPE  C21819514   7.359   5.932   7.080 -0.4040 -0.4542  0.4257
  172SAPE  H18R19515   7.265   5.978   7.041 -0.3952  0.4868  1.4651
  172SAPE  H18S19516   7.426   6.017   7.104 -0.1592 -0.7247  0.7098
  172SAPE  C21919517   7.345   5.880   7.228 -0.0843 -0.1582  0.1267
  172SAPE  H19R19518   7.328   5.975   7.282 -1.4703  0.3604 -1.1594
  172SAPE  H19S19519   7.444   5.840   7.261 -0.3183 -1.0931 -0.2734
  172SAPE  C22019520   7.245   5.777   7.253  0.9373  0.3101  0.2399
  172SAPE  H20R19521   7.270   5.677   7.212 -0.2099 -0.0318  0.3275
  172SAPE  H20S19522   7.147   5.808   7.211  0.6358  0.8805  1.3373
  172SAPE  H20T19523   7.232   5.754   7.361  0.5037 -0.0056  0.1273
  172SAPE   C3319524   7.149   6.424   6.529  0.1785  0.1000  0.0922
  172SAPE   H3X19525   7.235   6.489   6.558  1.0126  0.1314 -2.2090
  172SAPE   H3Y19526   7.202   6.350   6.466  2.2502 -0.3352  2.2189
  172SAPE   C3419527   7.088   6.339   6.648 -0.0002 -0.4756 -0.4708
  172SAPE   H4X19528   7.174   6.303   6.709 -0.9859  0.9192  1.8487
  172SAPE   H4Y19529   7.031   6.251   6.611  0.3724 -1.3713  0.9942
  172SAPE   C3519530   6.987   6.412   6.746 -0.4706  0.3123 -0.0783
  172SAPE   H5X19531   6.907   6.457   6.682 -2.2809 -0.0895  1.8032
  172SAPE   H5Y19532   7.030   6.498   6.801  0.4551  0.5444 -1.1294
  172SAPE   C3619533   6.923   6.317   6.850 -0.3317 -0.1863 -0.6003
  172SAPE   H6X19534   7.012   6.277   6.902 -0.7061  0.4128  0.5281
  172SAPE   H6Y19535   6.867   6.232   6.805 -0.7526  0.0806 -0.5902
  172SAPE   C3719536   6.827   6.392   6.943 -0.3708 -0.0707  0.2691
  172SAPE   H7X19537   6.733   6.423   6.891  0.2840  1.1379 -0.2215
  172SAPE   H7Y19538   6.867   6.474   7.006  0.2362 -1.1061  1.2681
  172SAPE   C3819539   6.780   6.292   7.054  0.0616 -0.2546  0.0125
  172SAPE   H8X19540   6.870   6.234   7.083 -0.6931 -2.0628 -1.1442
  172SAPE   H8Y19541   6.716   6.213   7.010  1.3770  0.0966 -2.7627
  172SAPE   C3919542   6.731   6.357   7.189 -0.1431  0.0512  0.9000
  172SAPE   H9X19543   6.805   6.428   7.231 -1.5073  0.9595  1.8358
  172SAPE   H9Y19544   6.735   6.277   7.266  3.8705  0.0075  0.8645
  172SAPE  C31019545   6.590   6.412   7.179 -0.1205  0.3221 -0.2427
  172SAPE  H10X19546   6.539   6.332   7.121  1.0981  0.1979 -1.1895
  172SAPE  H10Y19547   6.583   6.500   7.110  1.2578  0.8150  0.2277
  172SAPE  C31119548   6.525   6.446   7.311  0.1063  0.2473  0.5968
  172SAPE  H11X19549   6.434   6.506   7.290 -1.2239 -0.2804  4.1133
  172SAPE  H11Y19550   6.582   6.516   7.376  1.5990 -0.2173 -0.1662
  172SAPE  C31219551   6.478   6.319   7.386 -0.2871  0.5209  0.3772
  172SAPE  H12X19552   6.576   6.271   7.406  0.6696  1.1169 -2.3542
  172SAPE  H12Y19553   6.418   6.258   7.315 -0.1835 -0.5204  1.1733
  172SAPE  C31319554   6.394   6.349   7.516  0.0870  0.0855 -0.4416
  172SAPE  H13X19555   6.448   6.437   7.558  1.6208  0.0550 -2.1838
  172SAPE  H13Y19556   6.410   6.266   7.587 -0.8560 -0.0306 -0.3583
  172SAPE  C31419557   6.244   6.377   7.488  0.0430 -0.0835 -0.5447
  172SAPE  H14X19558   6.202   6.284   7.445 -1.9100  0.3397  0.3155
  172SAPE  H14Y19559   6.233   6.463   7.419  0.9317 -0.8955 -1.7461
  172SAPE  C31519560   6.169   6.410   7.623  0.1444 -0.1399  0.9364
  172SAPE  H15X19561   6.226   6.479   7.688  2.5728  0.0200 -1.2145
  172SAPE  H15Y19562   6.147   6.318   7.682  0.4012  0.5308  2.0954
  172SAPE  C31619563   6.032   6.486   7.600 -0.5588  0.5312  1.0945
  172SAPE  H16X19564   6.054   6.587   7.559 -1.4893 -0.4781 -2.2194
  172SAPE  H16Y19565   5.982   6.498   7.699 -0.6688 -2.7599  1.5313
  172SAPE  C31719566   5.934   6.417   7.502 -0.0005  0.2796  0.1888
  172SAPE  H17X19567   5.911   6.324   7.558 -0.7725  0.4244  0.1172
  172SAPE  H17Y19568   5.987   6.393   7.408  0.3794  1.8312 -0.0238
  172SAPE  C31819569   5.806   6.490   7.467 -0.3056  0.2450 -0.2602
  172SAPE  H18X19570   5.756   6.531   7.557  0.6826  0.0726  0.3864
  172SAPE  H18Y19571   5.735   6.421   7.417 -2.0490 -0.0606  2.4193
  172SAPE  H18Z19572   5.819   6.570   7.391  2.6033  0.2535  0.1153
  173SOPE     N19573   3.023   5.194  10.304 -0.0346  0.1358  1.1014
  173SOPE   HN119574   2.969   5.143  10.376 -1.6060 -0.2131 -0.2653
  173SOPE   HN219575   3.100   5.244  10.353  0.9976  0.0842 -0.4075
  173SOPE   HN319576   2.959   5.263  10.261 -0.3481 -0.8431 -0.0425
  173SOPE   C1219577   3.076   5.100  10.207  0.4021 -0.1672 -0.4627
  173SOPE  H12A19578   2.988   5.062  10.152 -0.5195  0.2562  0.6585
  173SOPE  H12B19579   3.126   5.014  10.256 -2.4313 -1.7702 -0.1649
  173SOPE   C1119580   3.149   5.165  10.097 -0.3783  0.4978  1.1141
  173SOPE  H11A19581   3.198   5.082  10.042 -1.3086  0.6228  0.0623
  173SOPE  H11B19582   3.240   5.225  10.121  2.1173 -2.3467 -0.6043
  173SOPE     P19583   3.116   5.344   9.896 -0.2936 -0.0642  0.1198
  173SOPE   O1319584   3.143   5.466   9.974 -0.0574 -0.0084 -1.1053
  173SOPE   O1419585   3.030   5.358   9.780  0.2476  0.4448  0.3295
  173SOPE   O1219586   3.061   5.242  10.010 -0.8794  0.1351 -0.4383
  173SOPE   O1119587   3.254   5.283   9.845  0.2420 -0.2897  0.7560
  173SOPE    C119588   3.350   5.375   9.782 -0.2614 -0.0312 -0.3137
  173SOPE    HA19589   3.432   5.404   9.850 -0.1165 -1.1326 -0.0084
  173SOPE    HB19590   3.301   5.462   9.731 -0.7645  0.2802  0.6814
  173SOPE    C219591   3.420   5.295   9.660 -0.4687 -0.2089  0.1690
  173SOPE    HS19592   3.487   5.363   9.605 -0.6421  0.9470  1.3446
  173SOPE   O2119593   3.318   5.231   9.575 -0.5760 -0.0100 -0.1136
  173SOPE   C2119594   3.261   5.320   9.491 -0.9626 -0.7853  0.2670
  173SOPE   O2219595   3.300   5.436   9.469  0.5398  0.4272  0.0163
  173SOPE   C2219596   3.130   5.261   9.433 -0.4626  0.1401  0.0939
  173SOPE   H2R19597   3.047   5.290   9.502  1.4835  0.3671  2.5066
  173SOPE   H2S19598   3.136   5.150   9.434  0.5185  0.1814  1.1320
  173SOPE    C319599   3.512   5.187   9.714  0.0192  0.1396  0.3630
  173SOPE    HX19600   3.454   5.116   9.778 -0.9261  0.4676 -0.1121
  173SOPE    HY19601   3.593   5.219   9.783  0.6503 -0.2962 -0.1722
  173SOPE   O3119602   3.570   5.103   9.616  0.7511  0.7753 -0.4255
  173SOPE   C3119603   3.680   5.166   9.561  0.1172  0.7169  0.4895
  173SOPE   O3219604   3.712   5.283   9.579 -0.2193 -0.0477 -0.0620
  173SOPE   C3219605   3.762   5.064   9.486 -0.3620  0.2743 -0.2248
  173SOPE   H2X19606   3.719   4.963   9.506  0.5816 -0.0049  0.4665
  173SOPE   H2Y19607   3.863   5.072   9.530  1.5456 -0.7544 -4.0171
  173SOPE   C2319608   3.092   5.323   9.291  0.7502 -0.0969 -1.1202
  173SOPE   H3R19609   3.162   5.407   9.271  2.1292 -0.3320  2.0709
  173SOPE   H3S19610   2.990   5.364   9.311  1.2591  1.1234 -0.9223
  173SOPE   C2419611   3.092   5.225   9.172  0.7198  0.0518  0.7506
  173SOPE   H4R19612   3.196   5.184   9.169 -0.1266 -2.2912  0.9190
  173SOPE   H4S19613   3.033   5.131   9.184  0.7777 -0.1352 -0.2809
  173SOPE   C2519614   3.033   5.286   9.044  0.7292 -0.0482 -0.0713
  173SOPE   H5R19615   2.923   5.296   9.057  0.6982  0.5027 -0.6872
  173SOPE   H5S19616   3.065   5.389   9.018  0.0417  0.0988 -0.3514
  173SOPE   C2619617   3.073   5.204   8.920  0.3579 -0.0334 -0.7828
  173SOPE   H6R19618   3.174   5.242   8.892 -1.0431  3.3647 -1.7504
  173SOPE   H6S19619   3.077   5.097   8.951  0.9593  0.4378  0.8623
  173SOPE   C2719620   2.977   5.206   8.802  0.0080 -0.2905 -0.0783
  173SOPE   H7R19621   2.878   5.184   8.847  0.7930  0.9456  2.4409
  173SOPE   H7S19622   2.972   5.313   8.771  1.4848 -0.0047  0.5885
  173SOPE   C2819623   3.003   5.119   8.675  0.2008  0.3569  0.5297
  173SOPE   H8R19624   3.018   5.018   8.720  0.4293 -0.1007 -0.5357
  173SOPE   H8S19625   2.905   5.117   8.623 -0.0493  1.3741  0.9416
  173SOPE   C2919626   3.109   5.154   8.569  0.1442  0.2170 -0.3508
  173SOPE   H9119627   3.205   5.177   8.617 -0.7234  0.3145  1.4426
  173SOPE  C21019628   3.101   5.176   8.434  0.3766 -0.0279  0.2189
  173SOPE  H10119629   3.192   5.212   8.384  0.5344 -0.6298  0.0714
  173SOPE  C21119630   2.984   5.171   8.336  0.7900 -0.9344 -1.0101
  173SOPE  H11R19631   2.884   5.171   8.385  1.8009  0.1601  1.2120
  173SOPE  H11S19632   2.989   5.075   8.280 -0.4953 -0.7052 -1.5504
  173SOPE  C21219633   2.971   5.283   8.232 -0.5349 -0.0207 -0.4184
  173SOPE  H12R19634   2.975   5.383   8.279 -0.2709 -0.1536 -0.1534
  173SOPE  H12S19635   2.870   5.279   8.186 -1.3149  1.0387  1.1225
  173SOPE  C21319636   3.068   5.279   8.115  0.4088 -0.3202 -0.2691
  173SOPE  H13R19637   3.057   5.179   8.068  0.6378 -1.7447  2.4723
  173SOPE  H13S19638   3.165   5.291   8.167  1.8047  0.9661 -2.9465
  173SOPE  C21419639   3.036   5.403   8.019  0.0948  0.3357 -0.5955
  173SOPE  H14R19640   3.043   5.489   8.089  1.1645 -1.3333  1.4485
  173SOPE  H14S19641   2.931   5.407   7.983  0.3226 -1.1468 -1.5083
  173SOPE  C21519642   3.124   5.426   7.901 -0.8132 -0.2440  0.1095
  173SOPE  H15R19643   3.090   5.527   7.869 -0.4355 -0.1572 -0.0233
  173SOPE  H15S19644   3.108   5.343   7.829  2.4478 -2.5379  1.7573
  173SOPE  C21619645   3.278   5.408   7.928  0.7136 -0.1113  0.2605
  173SOPE  H16R19646   3.325   5.388   7.830 -1.1115 -1.0772 -0.4569
  173SOPE  H16S19647   3.295   5.315   7.986 -0.2499 -1.4731 -1.5727
  173SOPE  C21719648   3.340   5.524   8.006 -0.1783  0.8305 -0.3487
  173SOPE  H17R19649   3.301   5.514   8.110  1.9936 -0.8852  0.3723
  173SOPE  H17S19650   3.316   5.623   7.961 -1.4300  0.7310  0.0555
  173SOPE  C21819651   3.490   5.494   8.012  0.6987  0.2954 -0.3060
  173SOPE  H18R19652   3.530   5.503   7.909  0.8237  0.6258 -0.2303
  173SOPE  H18S19653   3.507   5.393   8.053  0.8676 -0.5886 -2.4245
  173SOPE  H18T19654   3.526   5.577   8.077 -0.4613  0.8376 -0.3321
  173SOPE   C3319655   3.759   5.102   9.337  0.1571 -0.6575 -0.3104
  173SOPE   H3X19656   3.851   5.055   9.294  0.4185 -2.0747  1.6775
  173SOPE   H3Y19657   3.767   5.210   9.312  1.0841 -0.7452 -0.4322
  173SOPE   C3419658   3.637   5.048   9.261  0.0346  0.5494 -0.9294
  173SOPE   H4X19659   3.568   5.135   9.259  0.7714  1.2940  1.6127
  173SOPE   H4Y19660   3.588   4.971   9.324 -0.0066  0.0818 -1.5287
  173SOPE   C3519661   3.669   4.990   9.123 -0.3864 -0.3397 -0.4099
  173SOPE   H5X19662   3.735   4.900   9.123 -0.6589 -0.5407 -0.1412
  173SOPE   H5Y19663   3.721   5.069   9.066 -0.9647  1.1738  1.0911
  173SOPE   C3619664   3.537   4.945   9.056  0.3635  0.0775 -0.0448
  173SOPE   H6X19665   3.485   5.034   9.014  1.4205  0.3661 -0.7988
  173SOPE   H6Y19666   3.491   4.879   9.131  0.5879 -1.4529 -1.2029
  173SOPE   C3719667   3.568   4.861   8.933  0.4826 -0.6830  0.1582
  173SOPE   H7X19668   3.636   4.776   8.955  0.9280 -0.2667  0.4075
  173SOPE   H7Y19669   3.621   4.917   8.853 -0.0413 -1.6923 -0.9271
  173SOPE   C3819670   3.452   4.781   8.868 -0.1275  0.1498  0.5928
  173SOPE   H8X19671   3.440   4.692   8.933 -1.2475  0.1502  0.4168
  173SOPE   H8Y19672   3.486   4.734   8.774 -2.0050  2.2827 -1.3118
  173SOPE   C3919673   3.327   4.871   8.838 -1.3293  0.3471 -0.3214
  173SOPE   H9X19674   3.363   4.959   8.780 -1.3884  1.6974  1.5984
  173SOPE   H9Y19675   3.298   4.906   8.939  0.5359  1.0423  0.0173
  173SOPE  C31019676   3.211   4.783   8.779  0.5915  0.1620 -0.5404
  173SOPE  H10X19677   3.120   4.844   8.797  1.2843  0.1983  4.2602
  173SOPE  H10Y19678   3.198   4.691   8.840  3.2349 -0.0241 -0.1261
  173SOPE  C31119679   3.233   4.752   8.633 -0.1582  0.7024 -0.1303
  173SOPE  H11X19680   3.328   4.697   8.615 -0.8230 -0.0949 -1.3416
  173SOPE  H11Y19681   3.256   4.843   8.575  1.9008 -0.2535 -0.8981
  173SOPE  C31219682   3.113   4.690   8.560 -1.2890 -0.5559 -0.8944
  173SOPE  H12X19683   3.058   4.625   8.632  0.4613 -0.5940  0.4886
  173SOPE  H12Y19684   3.144   4.637   8.467 -0.3864 -0.7663 -0.4831
  173SOPE  C31319685   3.003   4.789   8.507  0.1231  0.1680  0.5433
  173SOPE  H13X19686   3.046   4.856   8.430 -2.7291 -0.0523 -1.3912
  173SOPE  H13Y19687   2.963   4.845   8.595 -0.4324  1.0074 -0.2317
  173SOPE  C31419688   2.889   4.714   8.431  0.3684  0.0674  0.6221
  173SOPE  H14X19689   2.882   4.614   8.477 -1.6196  0.3539  1.0464
  173SOPE  H14Y19690   2.929   4.702   8.328 -0.7418  0.9322  0.0601
  173SOPE  C31519691   2.755   4.792   8.438 -0.3309 -0.1497  0.4216
  173SOPE  H15X19692   2.770   4.899   8.412  2.3530 -0.5878 -0.0607
  173SOPE  H15Y19693   2.711   4.793   8.540 -2.2759 -0.7793 -0.3375
  173SOPE  C31619694   2.635   4.735   8.352 -0.0291 -0.2733 -0.4844
  173SOPE  H16X19695   2.557   4.813   8.361  0.0184 -0.2595 -0.1834
  173SOPE  H16Y19696   2.594   4.642   8.397 -1.4151  0.3239 -0.4928
  173SOPE  C31719697   2.675   4.732   8.206  0.7218 -0.6089  0.6053
  173SOPE  H17X19698   2.750   4.652   8.191  2.5454  1.3336 -1.6032
  173SOPE  H17Y19699   2.732   4.821   8.170 -1.3981 -0.1070 -1.8271
  173SOPE  C31819700   2.551   4.716   8.113  0.3356 -0.2483 -0.6250
  173SOPE  H18X19701   2.580   4.710   8.006  1.2675 -1.6790 -0.3278
  173SOPE  H18Y19702   2.485   4.804   8.125  0.6414 -0.0190 -0.6025
  173SOPE  H18Z19703   2.508   4.619   8.146  2.2446 -1.0435 -0.3183
  174SOPE     N19704   4.492   3.906   9.744 -0.4057  0.0446 -0.2251
  174SOPE   HN119705   4.491   3.808   9.711 -0.5018  0.6804 -2.2781
  174SOPE   HN219706   4.396   3.945   9.733 -1.0666 -1.7969 -1.4362
  174SOPE   HN319707   4.548   3.978   9.692 -1.6589  0.3049 -1.2589
  174SOPE   C1219708   4.536   3.915   9.884 -0.7154  0.1637  0.3833
  174SOPE  H12A19709   4.466   3.843   9.931  0.8103 -1.8790 -0.2654
  174SOPE  H12B19710   4.536   4.020   9.919  0.0657  0.4622 -0.4473
  174SOPE   C1119711   4.667   3.848   9.903 -0.0647 -0.3115 -0.4445
  174SOPE  H11A19712   4.654   3.742   9.875 -0.0107 -0.9781  1.8379
  174SOPE  H11B19713   4.698   3.841  10.010  0.0112  1.2603 -0.3367
  174SOPE     P19714   4.891   3.971   9.894  0.3103  0.2921 -0.2707
  174SOPE   O1319715   4.945   3.881  10.003 -0.2375  0.4064 -0.1413
  174SOPE   O1419716   4.852   4.104   9.937  0.4767 -0.0994 -0.2701
  174SOPE   O1219717   4.771   3.901   9.825 -0.1164 -0.2332 -0.4572
  174SOPE   O1119718   4.992   3.986   9.774 -0.1587 -0.0608 -0.7590
  174SOPE    C119719   4.979   4.101   9.679 -0.0720  0.1450  0.2600
  174SOPE    HA19720   5.077   4.117   9.630 -0.9103  1.0363 -1.1722
  174SOPE    HB19721   4.948   4.198   9.724  1.5339  0.6963  0.2407
  174SOPE    C219722   4.874   4.065   9.574  0.3697 -0.4198 -0.2638
  174SOPE    HS19723   4.787   4.087   9.639  0.7452 -2.2861  0.9451
  174SOPE   O2119724   4.874   3.927   9.545 -0.2491  0.1935 -0.3726
  174SOPE   C2119725   4.758   3.873   9.518  0.0809 -0.2012 -0.2699
  174SOPE   O2219726   4.651   3.937   9.517  0.6218  0.5056  0.0130
  174SOPE   C2219727   4.759   3.716   9.488 -0.3080 -0.1512  0.7828
  174SOPE   H2R19728   4.657   3.679   9.514 -0.3111 -0.9741 -0.3598
  174SOPE   H2S19729   4.834   3.667   9.554  2.4938  0.0224 -2.0689
  174SOPE    C319730   4.889   4.146   9.443  0.5568 -0.1289 -0.2960
  174SOPE    HX19731   4.978   4.110   9.386  2.4792  0.9395  1.8729
  174SOPE    HY19732   4.906   4.252   9.469  1.4319 -0.3046 -0.1125
  174SOPE   O3119733   4.768   4.130   9.364  0.6286  0.2292  0.4216
  174SOPE   C3119734   4.760   4.224   9.273  0.1448  0.1538  0.0627
  174SOPE   O3219735   4.848   4.302   9.245 -0.0249 -0.3842  0.3692
  174SOPE   C3219736   4.628   4.209   9.195  0.2352  0.3626 -0.0632
  174SOPE   H2X19737   4.558   4.178   9.275  1.8959  1.0464  1.7288
  174SOPE   H2Y19738   4.643   4.122   9.128  1.4763 -0.0299  0.6884
  174SOPE   C2319739   4.803   3.685   9.348  0.1740 -0.1767  0.6596
  174SOPE   H3R19740   4.798   3.576   9.325 -0.1253 -0.0516  0.1077
  174SOPE   H3S19741   4.911   3.705   9.332 -0.1977  0.4142 -1.5113
  174SOPE   C2419742   4.722   3.753   9.236  0.6706  0.2320 -0.0453
  174SOPE   H4R19743   4.618   3.752   9.275  0.6969 -2.2242  0.0952
  174SOPE   H4S19744   4.755   3.859   9.224 -1.2860  0.9470  0.3953
  174SOPE   C2519745   4.715   3.687   9.095  0.6257  0.0339  0.3002
  174SOPE   H5R19746   4.795   3.613   9.076  0.1502 -1.0671  2.2882
  174SOPE   H5S19747   4.624   3.623   9.102  1.0436 -0.5454  0.4991
  174SOPE   C2619748   4.708   3.793   8.978 -0.4348 -0.2736  0.2909
  174SOPE   H6R19749   4.793   3.860   9.003 -0.4021 -0.1707 -0.0911
  174SOPE   H6S19750   4.727   3.739   8.883 -0.5628  2.7004 -1.5697
  174SOPE   C2719751   4.574   3.869   8.970  0.0190  0.3149  0.0706
  174SOPE   H7R19752   4.485   3.803   8.964 -0.5319  1.1495 -2.5437
  174SOPE   H7S19753   4.565   3.928   9.064  1.2857 -0.3937  0.6563
  174SOPE   C2819754   4.576   3.971   8.860 -0.0333  0.9448  0.3262
  174SOPE   H8R19755   4.480   4.025   8.861  0.2287  1.4222 -0.0830
  174SOPE   H8S19756   4.661   4.042   8.868 -1.5101  3.1212 -1.9479
  174SOPE   C2919757   4.585   3.897   8.731 -0.2001  0.4679 -0.8971
  174SOPE   H9119758   4.554   3.791   8.732  2.5253 -0.4327 -1.2122
  174SOPE  C21019759   4.623   3.948   8.604  0.0844 -0.5582 -0.0577
  174SOPE  H10119760   4.639   3.882   8.518  0.8006 -1.4765  0.7664
  174SOPE  C21119761   4.670   4.097   8.592  0.1579 -0.1176  0.4263
  174SOPE  H11R19762   4.779   4.106   8.572 -0.0165 -0.1987 -0.6297
  174SOPE  H11S19763   4.655   4.160   8.681 -2.4506 -1.8645  1.3356
  174SOPE  C21219764   4.594   4.166   8.482  0.1284  0.0465  0.7047
  174SOPE  H12R19765   4.625   4.272   8.466 -0.9277 -0.0401 -2.6325
  174SOPE  H12S19766   4.489   4.171   8.520 -0.0217  1.8455  0.1467
  174SOPE  C21319767   4.610   4.102   8.346 -0.5380  0.5875 -0.1739
  174SOPE  H13R19768   4.547   4.011   8.342  1.0038 -0.6317  1.5770
  174SOPE  H13S19769   4.709   4.054   8.329 -1.6120 -1.6998 -0.2543
  174SOPE  C21419770   4.583   4.209   8.234  0.4711 -0.6662  0.1936
  174SOPE  H14R19771   4.493   4.269   8.261  0.6418 -1.2184  2.1146
  174SOPE  H14S19772   4.567   4.162   8.135  2.4625 -1.4707  0.2199
  174SOPE  C21519773   4.712   4.291   8.193 -0.0037  0.8483  0.1694
  174SOPE  H15R19774   4.712   4.287   8.082 -1.6015  0.3929  0.1545
  174SOPE  H15S19775   4.806   4.239   8.223 -1.2329 -1.2846  0.5304
  174SOPE  C21619776   4.709   4.437   8.240  0.4664  0.2292 -0.0965
  174SOPE  H16R19777   4.712   4.422   8.350 -0.4748  1.4883  0.1231
  174SOPE  H16S19778   4.616   4.488   8.207 -0.2523 -1.0326 -0.0981
  174SOPE  C21719779   4.829   4.523   8.201 -0.0223  0.0797  0.2008
  174SOPE  H17R19780   4.813   4.621   8.250 -0.1832 -0.2523  0.8349
  174SOPE  H17S19781   4.827   4.528   8.090 -1.8332  0.0663  0.1996
  174SOPE  C21819782   4.960   4.480   8.265 -0.4143  0.4116  0.5468
  174SOPE  H18R19783   4.981   4.373   8.248  1.0732  0.8471 -0.4878
  174SOPE  H18S19784   4.937   4.487   8.374 -2.3001 -1.8377  0.3726
  174SOPE  H18T19785   5.051   4.542   8.247  0.1725 -0.3187  0.9713
  174SOPE   C3319786   4.580   4.339   9.125 -0.5361 -0.1374  0.6029
  174SOPE   H3X19787   4.592   4.426   9.193  1.8011  1.1603 -1.2877
  174SOPE   H3Y19788   4.470   4.337   9.112 -0.3372 -0.7467 -1.3000
  174SOPE   C3419789   4.657   4.361   8.992 -0.2002  0.4967  0.9455
  174SOPE   H4X19790   4.624   4.297   8.908  0.9561  0.8386  0.2046
  174SOPE   H4Y19791   4.764   4.338   9.009 -0.6099 -2.1512  0.3825
  174SOPE   C3519792   4.653   4.510   8.946 -0.2448  0.2317 -0.0961
  174SOPE   H5X19793   4.672   4.576   9.034  0.8185  1.2535 -1.0585
  174SOPE   H5Y19794   4.547   4.541   8.932  0.2201  1.2771 -1.5864
  174SOPE   C3619795   4.734   4.547   8.821  0.3276  0.6933  0.5015
  174SOPE   H6X19796   4.715   4.648   8.779 -0.2739 -0.6325 -2.7287
  174SOPE   H6Y19797   4.698   4.478   8.741  0.4204  1.6339 -0.3714
  174SOPE   C3719798   4.891   4.520   8.830  0.1849  0.0366  0.4092
  174SOPE   H7X19799   4.936   4.534   8.729  0.6774 -2.2500  0.2618
  174SOPE   H7Y19800   4.905   4.416   8.866  0.9431 -0.3174 -0.8398
  174SOPE   C3819801   4.949   4.612   8.936 -1.4423 -0.6420 -0.1004
  174SOPE   H8X19802   4.904   4.595   9.036 -1.1193  0.4352  0.2475
  174SOPE   H8Y19803   4.929   4.719   8.914 -3.6921 -1.3114 -1.6591
  174SOPE   C3919804   5.095   4.586   8.953 -0.1616 -0.2023 -0.2340
  174SOPE   H9X19805   5.107   4.477   8.974  0.2361 -0.3204 -1.0227
  174SOPE   H9Y19806   5.144   4.643   9.034 -2.3547  0.0333  1.0102
  174SOPE  C31019807   5.171   4.600   8.823  0.1962 -0.0219 -0.4443
  174SOPE  H10X19808   5.131   4.534   8.744  0.4279 -2.2255  1.1808
  174SOPE  H10Y19809   5.279   4.577   8.834  0.1061 -0.9933 -1.3805
  174SOPE  C31119810   5.158   4.741   8.755 -0.0999  0.1903  0.1921
  174SOPE  H11X19811   5.216   4.818   8.810  1.2868 -2.4006  2.6083
  174SOPE  H11Y19812   5.055   4.781   8.749 -0.5271 -0.0447  3.7919
  174SOPE  C31219813   5.193   4.725   8.606 -0.1658  0.3982  0.2012
  174SOPE  H12X19814   5.126   4.645   8.568 -2.9180  2.1645  1.0415
  174SOPE  H12Y19815   5.298   4.689   8.602 -0.0526  0.5827  1.2742
  174SOPE  C31319816   5.189   4.856   8.527  0.0243  0.3655 -0.5908
  174SOPE  H13X19817   5.255   4.932   8.572 -1.2144  1.3664 -0.4061
  174SOPE  H13Y19818   5.088   4.901   8.527  1.3572  3.8835  2.9823
  174SOPE  C31419819   5.232   4.832   8.379 -0.5899  0.6090  0.5279
  174SOPE  H14X19820   5.155   4.760   8.344  0.1600 -0.8657  1.8003
  174SOPE  H14Y19821   5.332   4.786   8.388  0.5132  2.2608 -1.9709
  174SOPE  C31519822   5.240   4.958   8.293  0.1247 -0.0576 -0.0559
  174SOPE  H15X19823   5.287   4.944   8.193  0.2042 -0.5770  0.0545
  174SOPE  H15Y19824   5.302   5.037   8.340  0.4055  0.4444 -1.2246
  174SOPE  C31619825   5.099   5.019   8.264  0.2296  0.1687 -0.2961
  174SOPE  H16X19826   5.104   5.122   8.223  2.5470  1.1948  2.2927
  174SOPE  H16Y19827   5.040   5.024   8.357 -0.8153  1.4043 -1.0022
  174SOPE  C31719828   5.005   4.923   8.188 -0.0309  0.5101  0.3867
  174SOPE  H17X19829   4.900   4.952   8.210  0.4480  3.1099 -0.3907
  174SOPE  H17Y19830   5.010   4.823   8.235  0.2251  0.4402  0.2124
  174SOPE  C31819831   5.032   4.916   8.036 -0.2675 -0.1762 -0.1862
  174SOPE  H18X19832   5.138   4.940   8.012 -0.6803  1.1885 -0.7411
  174SOPE  H18Y19833   4.979   4.990   7.973  1.7643  0.7820 -0.8722
  174SOPE  H18Z19834   5.014   4.821   7.981  2.0690 -0.1973 -1.0248
  175SOPE     N19835   4.573   5.572   9.407 -0.2161 -0.9297  0.0364
  175SOPE   HN119836   4.474   5.566   9.377 -1.3805  0.1539  3.2310
  175SOPE   HN219837   4.574   5.552   9.509 -0.9427 -0.8482  0.0597
  175SOPE   HN319838   4.597   5.672   9.392  1.8182 -1.4672 -0.5839
  175SOPE   C1219839   4.664   5.490   9.321  0.0909  0.3850 -0.2040
  175SOPE  H12A19840   4.766   5.499   9.363  0.1635  0.0362 -0.2965
  175SOPE  H12B19841   4.684   5.524   9.217 -2.0330 -1.9557 -1.4791
  175SOPE   C1119842   4.629   5.340   9.316  0.1686 -0.2334 -0.6226
  175SOPE  H11A19843   4.697   5.281   9.251  0.1865  0.0634 -0.8712
  175SOPE  H11B19844   4.529   5.332   9.269  0.0001 -0.2483 -0.2679
  175SOPE     P19845   4.741   5.242   9.531  0.1249 -0.0971  0.3699
  175SOPE   O1319846   4.712   5.155   9.646  0.3467  0.4244  0.4309
  175SOPE   O1419847   4.836   5.352   9.559  0.2695  0.0014 -0.1774
  175SOPE   O1219848   4.618   5.279   9.445 -0.2280 -0.4145 -0.4212
  175SOPE   O1119849   4.824   5.155   9.433 -0.1094  1.0529  0.2161
  175SOPE    C119850   4.755   5.041   9.370  0.3315 -0.1210  0.5285
  175SOPE    HA19851   4.667   5.077   9.314  0.3501  1.0968  1.2466
  175SOPE    HB19852   4.729   4.972   9.454  0.7905 -1.9079 -0.7326
  175SOPE    C219853   4.850   4.960   9.278 -0.1553 -0.2715 -0.0267
  175SOPE    HS19854   4.927   4.929   9.352 -0.3544  0.6090  0.5544
  175SOPE   O2119855   4.912   5.058   9.189 -0.3010 -0.0382  0.0527
  175SOPE   C2119856   5.012   5.007   9.117 -0.9260  0.5572  0.6635
  175SOPE   O2219857   5.062   4.898   9.129 -0.0696 -0.0720  0.4660
  175SOPE   C2219858   5.071   5.099   9.019  0.4461 -0.1364 -0.0045
  175SOPE   H2R19859   5.151   5.061   8.953  1.1962  1.7368 -0.2535
  175SOPE   H2S19860   5.115   5.186   9.073 -0.8774  1.4540 -1.3532
  175SOPE    C319861   4.792   4.837   9.211 -0.0422 -0.1844  0.1381
  175SOPE    HX19862   4.736   4.784   9.291 -2.2654  1.0441 -0.5029
  175SOPE    HY19863   4.872   4.764   9.187  1.9530  1.3853  1.5983
  175SOPE   O3119864   4.705   4.870   9.097 -0.1922  0.5652  0.5628
  175SOPE   C3119865   4.575   4.881   9.121 -0.1067  0.9709  0.1281
  175SOPE   O3219866   4.520   4.887   9.228 -0.2083 -0.5072 -0.6191
  175SOPE   C3219867   4.507   4.917   8.987 -0.1032 -0.4970  0.7533
  175SOPE   H2X19868   4.399   4.895   9.000 -1.3223  4.0239 -0.0112
  175SOPE   H2Y19869   4.547   4.849   8.910 -0.9055 -1.2418  0.9769
  175SOPE   C2319870   4.965   5.150   8.917 -0.2147  0.0682 -0.3090
  175SOPE   H3R19871   5.014   5.225   8.851  1.1469  0.4187  1.0288
  175SOPE   H3S19872   4.896   5.222   8.967 -0.1723  0.0079 -0.1642
  175SOPE   C2419873   4.900   5.043   8.829 -0.3210 -0.5091 -0.4263
  175SOPE   H4R19874   4.978   4.999   8.764 -0.6981 -0.7285 -0.7332
  175SOPE   H4S19875   4.854   4.964   8.891 -0.2548  1.4792  2.3374
  175SOPE   C2519876   4.793   5.112   8.743 -0.2524 -0.6196  0.1797
  175SOPE   H5R19877   4.725   5.159   8.817 -2.5299 -3.4598  0.0995
  175SOPE   H5S19878   4.842   5.188   8.679 -1.3769 -0.3380 -0.3626
  175SOPE   C2619879   4.705   5.021   8.659  0.1487  0.6616  0.3639
  175SOPE   H6R19880   4.655   4.941   8.717 -0.1117  0.8547  0.4116
  175SOPE   H6S19881   4.637   5.091   8.606 -0.7424  1.8248  2.8983
  175SOPE   C2719882   4.790   4.940   8.554  0.2924  0.2048 -0.6921
  175SOPE   H7R19883   4.841   5.016   8.491 -1.0214  0.9792 -0.8667
  175SOPE   H7S19884   4.862   4.878   8.612 -0.3056  0.9047  0.8416
  175SOPE   C2819885   4.702   4.845   8.460  0.6456 -0.2233 -0.0304
  175SOPE   H8R19886   4.643   4.918   8.399 -0.2755  0.8223  2.0263
  175SOPE   H8S19887   4.768   4.791   8.389 -0.1012 -1.0565 -0.1077
  175SOPE   C2919888   4.610   4.746   8.533 -0.0861 -0.6721 -0.6673
  175SOPE   H9119889   4.656   4.656   8.577  2.0931  0.4081 -0.5720
  175SOPE  C21019890   4.478   4.765   8.548 -0.1838  0.8759  0.2985
  175SOPE  H10119891   4.432   4.697   8.621  3.0835  1.6574  3.4059
  175SOPE  C21119892   4.403   4.892   8.520 -0.3689 -0.3943  0.1197
  175SOPE  H11R19893   4.478   4.972   8.504  0.7889 -1.6663 -1.1546
  175SOPE  H11S19894   4.340   4.916   8.609  0.3703  0.3458  0.4627
  175SOPE  C21219895   4.324   4.861   8.392 -0.0414 -0.2780 -0.4411
  175SOPE  H12R19896   4.257   4.776   8.418 -0.6836  0.3884  0.1219
  175SOPE  H12S19897   4.392   4.816   8.316  0.8517  1.3875 -0.6612
  175SOPE  C21319898   4.248   4.978   8.335  0.2764  0.3851  0.3735
  175SOPE  H13R19899   4.325   5.057   8.331  0.8575 -0.1389  0.8824
  175SOPE  H13S19900   4.176   5.010   8.413  0.3518  1.6225 -0.0507
  175SOPE  C21419901   4.166   4.947   8.201 -0.0621  0.5126 -0.1315
  175SOPE  H14R19902   4.092   4.873   8.239  0.4585  0.2530  0.3917
  175SOPE  H14S19903   4.225   4.893   8.124  2.5430  0.0625  2.0275
  175SOPE  C21519904   4.094   5.066   8.150 -0.2044  0.6586  0.1108
  175SOPE  H15R19905   4.163   5.148   8.123  0.5273  0.6765  1.8669
  175SOPE  H15S19906   4.022   5.120   8.215 -0.8420  0.5160 -0.4612
  175SOPE  C21619907   4.018   5.046   8.021  0.0279  0.2037  0.7159
  175SOPE  H16R19908   3.965   5.141   7.998  0.7929  0.4489 -0.0919
  175SOPE  H16S19909   3.945   4.962   8.028 -0.2747  0.1853 -1.7195
  175SOPE  C21719910   4.116   5.006   7.903 -0.6671 -0.2863  0.3016
  175SOPE  H17R19911   4.054   4.971   7.818 -0.9743 -1.3812  0.9512
  175SOPE  H17S19912   4.186   4.926   7.935  0.6920  0.0023 -1.7470
  175SOPE  C21819913   4.212   5.117   7.850  0.0944 -0.0707  0.0877
  175SOPE  H18R19914   4.292   5.143   7.922  1.4705  0.0549 -1.4144
  175SOPE  H18S19915   4.150   5.204   7.819 -1.1328 -1.1810 -0.6882
  175SOPE  H18T19916   4.281   5.089   7.767  1.6353 -0.4272  1.4447
  175SOPE   C3319917   4.524   5.068   8.940  0.2536  0.5310  0.0572
  175SOPE   H3X19918   4.511   5.053   8.831 -0.6541 -1.7034  0.4076
  175SOPE   H3Y19919   4.618   5.107   8.985 -1.1442  1.5072  2.3058
  175SOPE   C3419920   4.409   5.155   8.992  0.2811 -0.1528  0.1328
  175SOPE   H4X19921   4.383   5.140   9.099  0.6151  2.8656  0.7197
  175SOPE   H4Y19922   4.322   5.151   8.924 -0.6372  0.4596  1.2287
  175SOPE   C3519923   4.446   5.304   8.989  0.2932  0.1188  0.1180
  175SOPE   H5X19924   4.555   5.318   9.004  0.4628  0.6465 -1.4290
  175SOPE   H5Y19925   4.385   5.362   9.062 -1.2333 -1.9078  0.5380
  175SOPE   C3619926   4.420   5.370   8.851  0.3947 -0.8286 -0.0545
  175SOPE   H6X19927   4.311   5.368   8.830  0.5531 -0.0572 -0.9772
  175SOPE   H6Y19928   4.481   5.316   8.776 -0.1024 -0.8761 -0.4327
  175SOPE   C3719929   4.457   5.523   8.846 -0.4230 -0.0597 -0.0113
  175SOPE   H7X19930   4.386   5.581   8.909 -0.7730 -0.4806 -0.0189
  175SOPE   H7Y19931   4.438   5.551   8.740  2.4379 -0.1172 -0.6198
  175SOPE   C3819932   4.603   5.563   8.883 -0.7154 -0.3781  0.2915
  175SOPE   H8X19933   4.623   5.549   8.992  1.0166  0.9173  0.1970
  175SOPE   H8Y19934   4.612   5.672   8.865  0.4058 -0.5126 -0.0822
  175SOPE   C3919935   4.712   5.487   8.807  0.5844  0.0443 -0.0373
  175SOPE   H9X19936   4.689   5.379   8.821 -2.3271  0.6400  0.4730
  175SOPE   H9Y19937   4.813   5.514   8.846  0.6496 -1.2403  0.7329
  175SOPE  C31019938   4.708   5.497   8.653 -0.3060 -0.3496 -0.0940
  175SOPE  H10X19939   4.617   5.445   8.615 -0.9047 -0.2498  1.1262
  175SOPE  H10Y19940   4.797   5.442   8.618  1.5009  0.3804  2.9857
  175SOPE  C31119941   4.713   5.638   8.596  0.0061 -0.5285  0.1608
  175SOPE  H11X19942   4.777   5.708   8.654  0.0222 -1.5014  1.3669
  175SOPE  H11Y19943   4.615   5.687   8.616  1.6425  2.9702  0.3060
  175SOPE  C31219944   4.753   5.629   8.447  0.5335 -0.3058  0.5751
  175SOPE  H12X19945   4.848   5.575   8.467  0.4898 -0.2568  0.9194
  175SOPE  H12Y19946   4.771   5.725   8.394 -1.3346 -0.2472 -0.0092
  175SOPE  C31319947   4.668   5.545   8.354  0.3108 -0.2584  0.4050
  175SOPE  H13X19948   4.578   5.600   8.319  2.0892  2.9161  0.4423
  175SOPE  H13Y19949   4.635   5.459   8.416  0.9989 -1.0296 -0.2809
  175SOPE  C31419950   4.746   5.503   8.234  0.0403  0.0415 -0.0574
  175SOPE  H14X19951   4.831   5.439   8.267 -2.1145 -2.3560  1.1108
  175SOPE  H14Y19952   4.785   5.591   8.179  3.0728  0.4830  2.4795
  175SOPE  C31519953   4.671   5.401   8.141  0.1079 -1.1739 -0.5286
  175SOPE  H15X19954   4.636   5.316   8.204  3.0237 -3.4186 -1.7123
  175SOPE  H15Y19955   4.742   5.349   8.073  0.0459 -1.1230 -0.6315
  175SOPE  C31619956   4.565   5.462   8.049 -0.0546  0.0359  0.0494
  175SOPE  H16X19957   4.610   5.532   7.976  1.8200 -1.9580 -0.8363
  175SOPE  H16Y19958   4.495   5.526   8.108 -0.8020 -0.8285  0.1297
  175SOPE  C31719959   4.491   5.353   7.967  0.4135  0.7028 -0.5021
  175SOPE  H17X19960   4.421   5.417   7.909 -1.2754  1.6761  2.4013
  175SOPE  H17Y19961   4.435   5.284   8.033 -1.7230  0.7242 -2.1863
  175SOPE  C31819962   4.570   5.262   7.873  0.1414 -0.4215 -0.0683
  175SOPE  H18X19963   4.498   5.214   7.803  0.2901 -0.5838 -0.1103
  175SOPE  H18Y19964   4.626   5.177   7.917  0.8617 -0.7894 -1.6286
  175SOPE  H18Z19965   4.647   5.324   7.822 -2.4542  1.6483 -1.8114
  176SOPE     N19966   5.159   4.823   9.866  0.2738 -0.2976  0.3691
  176SOPE   HN119967   5.144   4.916   9.910 -0.8937  0.2308 -1.0599
  176SOPE   HN219968   5.068   4.797   9.824  0.8711 -1.3620 -0.3401
  176SOPE   HN319969   5.188   4.760   9.944  0.1418 -0.1149  0.5651
  176SOPE   C1219970   5.268   4.833   9.761  0.0952 -0.7049  0.6730
  176SOPE  H12A19971   5.369   4.817   9.806  0.2188 -1.0925  0.2659
  176SOPE  H12B19972   5.275   4.938   9.725  1.7299 -0.6566  1.0509
  176SOPE   C1119973   5.250   4.731   9.655  0.5066  0.0645 -0.5838
  176SOPE  H11A19974   5.334   4.735   9.583 -1.0453  0.4991 -2.4659
  176SOPE  H11B19975   5.160   4.748   9.592  0.0477  0.6769  0.2378
  176SOPE     P19976   5.152   4.482   9.666 -0.5504  0.4634 -0.1561
  176SOPE   O1319977   5.009   4.521   9.653  0.5999 -0.1196  0.7201
  176SOPE   O1419978   5.184   4.369   9.756 -0.2947  0.3536 -0.3359
  176SOPE   O1219979   5.250   4.598   9.710  0.7028  0.2648  0.2150
  176SOPE   O1119980   5.207   4.446   9.525 -0.2965  0.1857  0.4542
  176SOPE    C119981   5.349   4.422   9.514 -0.8753 -0.0551 -0.0727
  176SOPE    HA19982   5.395   4.393   9.611  0.5501 -0.6735 -0.9023
  176SOPE    HB19983   5.400   4.516   9.483  0.5452 -0.9787 -0.6244
  176SOPE    C219984   5.387   4.305   9.427 -0.0958 -0.0138  0.7635
  176SOPE    HS19985   5.497   4.320   9.429 -0.1052  0.0582  0.7539
  176SOPE   O2119986   5.341   4.321   9.291  0.3142 -0.1099 -0.2127
  176SOPE   C2119987   5.425   4.289   9.186  0.2504  0.8347 -0.1078
  176SOPE   O2219988   5.542   4.260   9.195 -0.6816  0.0908 -0.0308
  176SOPE   C2219989   5.347   4.308   9.055  1.0575  1.0414 -0.2213
  176SOPE   H2R19990   5.298   4.406   9.072  0.7535  0.5375  2.2031
  176SOPE   H2S19991   5.284   4.217   9.045 -2.0112  3.0886 -0.9177
  176SOPE    C319992   5.353   4.164   9.476  0.1585  0.5565  0.7351
  176SOPE    HX19993   5.244   4.159   9.498  0.0441  0.2532  0.1121
  176SOPE    HY19994   5.398   4.141   9.575 -0.6473 -0.5278  0.8744
  176SOPE   O3119995   5.394   4.065   9.374  0.2699 -0.4445  0.3876
  176SOPE   C3119996   5.335   3.950   9.387 -0.2262 -0.2641  1.0778
  176SOPE   O3219997   5.262   3.919   9.477  0.0605 -0.3860  0.0258
  176SOPE   C3219998   5.372   3.863   9.270  0.3046 -0.0083 -0.4543
  176SOPE   H2X19999   5.463   3.804   9.291  0.3924  0.8159  1.6318
  176SOPE   H2Y20000   5.392   3.938   9.190 -1.8298  0.8718 -0.2430
  176SOPE   C2320001   5.448   4.318   8.936  0.4618  0.1891 -0.5691
  176SOPE   H3R20002   5.547   4.266   8.942  0.6437  0.6399  0.6678
  176SOPE   H3S20003   5.477   4.424   8.924  1.1790  0.8106  4.3259
  176SOPE   C2420004   5.393   4.273   8.800 -0.2896 -0.0611 -0.4898
  176SOPE   H4R20005   5.360   4.168   8.818  1.3075 -0.7064 -1.1095
  176SOPE   H4S20006   5.316   4.350   8.779 -1.4711 -1.2990 -0.8299
  176SOPE   C2520007   5.485   4.281   8.678 -0.6926  0.1758 -0.3462
  176SOPE   H5R20008   5.494   4.389   8.651 -2.0144  0.1962 -0.7811
  176SOPE   H5S20009   5.586   4.244   8.707 -0.8018  0.0275 -0.1549
  176SOPE   C2620010   5.423   4.219   8.552 -0.1493  0.0182 -0.1438
  176SOPE   H6R20011   5.429   4.110   8.572  1.3904  0.1540  0.2246
  176SOPE   H6S20012   5.317   4.248   8.534 -0.9342  0.9451  4.4810
  176SOPE   C2720013   5.510   4.241   8.428  0.7012  0.4155  1.2092
  176SOPE   H7R20014   5.538   4.348   8.441  2.5994 -0.0604  1.3671
  176SOPE   H7S20015   5.602   4.178   8.427  0.5645  0.0927 -1.7944
  176SOPE   C2820016   5.444   4.211   8.297  0.1043  0.1197  0.4831
  176SOPE   H8R20017   5.440   4.102   8.277  1.1852 -0.0547  1.1094
  176SOPE   H8S20018   5.340   4.248   8.308 -0.2107 -0.4298 -0.4562
  176SOPE   C2920019   5.519   4.272   8.181 -0.3200 -0.3724  0.1221
  176SOPE   H9120020   5.617   4.226   8.159 -0.9561 -1.3564 -0.7572
  176SOPE  C21020021   5.471   4.363   8.089 -0.2500  0.6300 -0.2401
  176SOPE  H10120022   5.543   4.397   8.013  1.5314 -0.4477  0.9017
  176SOPE  C21120023   5.344   4.448   8.089  0.3258 -0.4518 -0.2796
  176SOPE  H11R20024   5.280   4.430   8.177 -0.4242 -1.5107 -1.0130
  176SOPE  H11S20025   5.281   4.434   7.998  0.6107 -0.3727 -0.4922
  176SOPE  C21220026   5.398   4.595   8.102  0.5037  0.6484  0.0882
  176SOPE  H12R20027   5.465   4.594   8.191 -0.6531 -2.9485  1.0944
  176SOPE  H12S20028   5.309   4.655   8.130  0.6753 -0.1296  2.4617
  176SOPE  C21320029   5.448   4.659   7.972  0.3813  0.1844  0.5605
  176SOPE  H13R20030   5.357   4.676   7.910  0.0335 -1.5430  0.5297
  176SOPE  H13S20031   5.506   4.581   7.918  0.0217  1.4046 -1.7244
  176SOPE  C21420032   5.535   4.783   7.987  0.1656 -0.6481  0.2590
  176SOPE  H14R20033   5.640   4.753   8.004  0.5998  0.5261 -0.2105
  176SOPE  H14S20034   5.506   4.850   8.071 -2.8404 -0.9908 -0.3872
  176SOPE  C21520035   5.527   4.864   7.859  0.1764 -0.3335  0.0502
  176SOPE  H15R20036   5.547   4.804   7.768  2.1533 -0.9104  0.8198
  176SOPE  H15S20037   5.600   4.947   7.874 -1.1461  0.8425  0.2037
  176SOPE  C21620038   5.400   4.942   7.839  0.1628 -0.6935  0.2250
  176SOPE  H16R20039   5.370   4.998   7.930  3.3722  1.9601 -0.1668
  176SOPE  H16S20040   5.310   4.887   7.803 -0.4344  1.1127 -1.1574
  176SOPE  C21720041   5.434   5.056   7.737 -0.0324 -0.3004 -0.1796
  176SOPE  H17R20042   5.435   5.018   7.632  0.1047  1.1602 -0.7410
  176SOPE  H17S20043   5.532   5.101   7.763  0.0614 -1.7734  2.2621
  176SOPE  C21820044   5.327   5.164   7.729 -0.4366  0.6541 -0.5057
  176SOPE  H18R20045   5.228   5.114   7.720 -0.0849 -0.1043 -0.2587
  176SOPE  H18S20046   5.353   5.229   7.642  0.5508  0.7704 -0.1360
  176SOPE  H18T20047   5.325   5.226   7.821 -1.9381 -0.4190  0.2415
  176SOPE   C3320048   5.267   3.756   9.220 -0.0804 -0.3781  0.2095
  176SOPE   H3X20049   5.254   3.679   9.299  2.2213  0.5000  1.5377
  176SOPE   H3Y20050   5.315   3.702   9.136 -0.8958 -2.3119  0.9400
  176SOPE   C3420051   5.131   3.831   9.184  0.1577  0.2403  0.6190
  176SOPE   H4X20052   5.089   3.871   9.279  1.2215  2.3242  0.2637
  176SOPE   H4Y20053   5.052   3.765   9.144  1.7080 -1.6647  0.5201
  176SOPE   C3520054   5.154   3.962   9.100 -0.2689  0.2031 -0.4774
  176SOPE   H5X20055   5.230   3.937   9.023  2.1362 -0.5253  1.9808
  176SOPE   H5Y20056   5.202   4.039   9.163  1.0622  1.6645 -3.1319
  176SOPE   C3620057   5.021   3.997   9.030 -0.1224  0.1827 -0.1418
  176SOPE   H6X20058   4.951   4.033   9.108  1.3557  0.0673  1.2986
  176SOPE   H6Y20059   4.976   3.901   8.997 -3.8650  1.5895  0.3905
  176SOPE   C3720060   5.042   4.087   8.913  0.4788 -0.4443  0.5648
  176SOPE   H7X20061   5.110   4.169   8.945  0.5769 -0.1489 -0.3694
  176SOPE   H7Y20062   4.949   4.145   8.894  0.8887  0.3184  0.8303
  176SOPE   C3820063   5.076   4.013   8.786 -0.6767  0.3688 -0.6562
  176SOPE   H8X20064   4.997   3.937   8.766 -1.3650  0.5350  1.2134
  176SOPE   H8Y20065   5.175   3.965   8.791  0.6413  2.3615 -3.8129
  176SOPE   C3920066   5.071   4.105   8.664 -0.6735  0.9342  0.2203
  176SOPE   H9X20067   5.169   4.157   8.664 -0.1404 -0.0249  1.4984
  176SOPE   H9Y20068   4.976   4.161   8.672 -0.5635  1.1024  0.3493
  176SOPE  C31020069   5.046   4.020   8.535  0.6215 -0.3813 -0.5498
  176SOPE  H10X20070   4.945   3.976   8.549 -0.6878  2.5536  0.0615
  176SOPE  H10Y20071   5.119   3.939   8.519 -0.7909 -2.4849  2.5376
  176SOPE  C31120072   5.055   4.107   8.406 -0.0338  0.4663  0.1636
  176SOPE  H11X20073   5.140   4.179   8.405 -1.3201  2.0414 -1.1809
  176SOPE  H11Y20074   4.970   4.179   8.407  0.6086  1.2334  0.8120
  176SOPE  C31220075   5.042   4.027   8.277  0.1034 -0.8473  0.1359
  176SOPE  H12X20076   4.942   3.980   8.287 -0.9492  0.6417 -2.5362
  176SOPE  H12Y20077   5.115   3.943   8.285 -1.4043 -2.2865 -0.5927
  176SOPE  C31320078   5.070   4.091   8.142  0.2901 -0.8757  0.0674
  176SOPE  H13X20079   5.177   4.122   8.143  0.2290 -0.5173  2.5992
  176SOPE  H13Y20080   5.014   4.186   8.135  0.3408 -0.8410  0.1293
  176SOPE  C31420081   5.055   3.993   8.029 -0.4277  0.7115 -0.2169
  176SOPE  H14X20082   4.970   3.923   8.047  0.7457 -1.2066 -1.7505
  176SOPE  H14Y20083   5.149   3.937   8.014 -0.5475  0.3681  0.2847
  176SOPE  C31520084   5.032   4.076   7.893 -0.4514  0.2937 -0.3394
  176SOPE  H15X20085   4.954   4.148   7.926  0.7414  1.5326 -0.1479
  176SOPE  H15Y20086   5.004   4.016   7.804  2.8134 -2.4687  0.3006
  176SOPE  C31620087   5.155   4.165   7.855 -0.0843  0.1250 -0.0969
  176SOPE  H16X20088   5.232   4.089   7.830 -0.1043 -1.0483  3.0129
  176SOPE  H16Y20089   5.196   4.228   7.936 -1.4577  1.2214 -0.2129
  176SOPE  C31720090   5.142   4.252   7.728  0.0124  0.6920 -0.3482
  176SOPE  H17X20091   5.105   4.189   7.645  0.4078  0.0037 -0.0111
  176SOPE  H17Y20092   5.243   4.290   7.703  0.5527 -1.3045 -1.3885
  176SOPE  C31820093   5.044   4.366   7.745 -0.5417 -0.9982 -0.7092
  176SOPE  H18X20094   4.941   4.324   7.757 -2.2088  2.9933  0.5795
  176SOPE  H18Y20095   5.045   4.428   7.653 -0.5163 -0.3204 -0.2538
  176SOPE  H18Z20096   5.068   4.424   7.836 -0.2079 -0.1093 -1.3529
  177SOPE     N20097   5.127   1.728  10.297  0.1902  0.0914  0.0868
  177SOPE   HN120098   5.093   1.658  10.365  1.4761  0.2853  0.9547
  177SOPE   HN220099   5.165   1.686  10.210 -2.0002 -0.0184 -0.8942
  177SOPE   HN320100   5.202   1.775  10.350  0.4058  2.1030 -1.8184
  177SOPE   C1220101   5.023   1.827  10.255  0.0707 -0.0995 -0.2858
  177SOPE  H12A20102   4.988   1.876  10.348  0.0454 -1.6342  0.5475
  177SOPE  H12B20103   4.932   1.772  10.224 -0.2065  0.7753 -1.0626
  177SOPE   C1120104   5.079   1.930  10.151 -0.4537  0.1368 -0.0945
  177SOPE  H11A20105   5.137   2.002  10.212  0.5409 -1.0806  0.4358
  177SOPE  H11B20106   4.980   1.971  10.122 -0.9721  0.2421  1.7078
  177SOPE     P20107   5.192   1.972   9.922 -0.4018 -0.3751 -0.0401
  177SOPE   O1320108   5.301   1.902   9.851  0.1897  0.5628 -0.4570
  177SOPE   O1420109   5.229   2.103   9.975  0.0681  0.2136  0.2030
  177SOPE   O1220110   5.153   1.873  10.040 -0.2405 -0.3346 -0.5480
  177SOPE   O1120111   5.057   1.990   9.843 -0.0516  0.3018 -0.2606
  177SOPE    C120112   4.975   1.869   9.819  0.9142  0.4994 -0.1353
  177SOPE    HA20113   4.901   1.867   9.901 -0.1829  1.1694 -1.0689
  177SOPE    HB20114   5.028   1.771   9.823 -0.8984 -0.6846 -2.5698
  177SOPE    C220115   4.912   1.866   9.673 -0.2680 -0.0847 -0.6947
  177SOPE    HS20116   4.845   1.778   9.678  1.1406 -1.1261  1.3245
  177SOPE   O2120117   5.021   1.859   9.574  0.3034 -0.2170 -0.4761
  177SOPE   C2120118   5.066   1.736   9.553  0.0570  0.0582  0.3042
  177SOPE   O2220119   5.031   1.634   9.609  0.3974  0.1921  1.4401
  177SOPE   C2220120   5.175   1.748   9.443 -0.1872  0.8839  0.0738
  177SOPE   H2R20121   5.262   1.782   9.503 -0.9684  2.1872  0.5117
  177SOPE   H2S20122   5.140   1.829   9.375 -0.5059 -0.1887 -1.0893
  177SOPE    C320123   4.823   1.996   9.636 -0.8148 -0.7720 -0.8243
  177SOPE    HX20124   4.892   2.083   9.626 -0.1893 -1.0889  0.4909
  177SOPE    HY20125   4.764   2.000   9.730  0.8258 -1.8011  0.3133
  177SOPE   O3120126   4.733   1.980   9.527  0.3662  0.5943 -0.3845
  177SOPE   C3120127   4.654   2.084   9.491 -0.0498  1.0731 -0.2625
  177SOPE   O3220128   4.664   2.197   9.535  0.0960  0.4726 -0.1520
  177SOPE   C3220129   4.572   2.043   9.370  0.2072 -0.2107 -0.1490
  177SOPE   H2X20130   4.503   2.129   9.358  0.0032 -0.3901 -0.2756
  177SOPE   H2Y20131   4.509   1.955   9.393 -2.9411  2.1123  0.8353
  177SOPE   C2320132   5.200   1.608   9.380  0.2721  0.8303 -0.2966
  177SOPE   H3R20133   5.108   1.574   9.329 -0.0447  0.7255  0.3331
  177SOPE   H3S20134   5.220   1.534   9.460  0.6906 -1.9416 -2.7913
  177SOPE   C2420135   5.320   1.604   9.280 -0.0652 -0.0049  0.5250
  177SOPE   H4R20136   5.407   1.639   9.340  0.8688  0.2672 -0.9360
  177SOPE   H4S20137   5.338   1.503   9.238  1.1404  0.8933 -1.2554
  177SOPE   C2520138   5.306   1.705   9.161 -0.1069 -0.2906 -0.2659
  177SOPE   H5R20139   5.211   1.697   9.105 -0.1549  2.1760 -0.6263
  177SOPE   H5S20140   5.313   1.804   9.211 -3.0255  0.8249 -1.8740
  177SOPE   C2620141   5.425   1.688   9.061  0.2861  0.1230 -0.4490
  177SOPE   H6R20142   5.442   1.582   9.034 -0.5031 -0.7393  2.1351
  177SOPE   H6S20143   5.407   1.753   8.972 -0.4470  0.8958  0.2386
  177SOPE   C2720144   5.558   1.741   9.122 -0.1708  0.0520  0.7269
  177SOPE   H7R20145   5.528   1.818   9.196 -1.6870  0.4390 -0.2388
  177SOPE   H7S20146   5.604   1.655   9.175  3.0765  1.1129 -0.1510
  177SOPE   C2820147   5.662   1.789   9.019  0.0459 -0.0712 -0.1754
  177SOPE   H8R20148   5.673   1.706   8.946  0.9852 -0.8177  0.7887
  177SOPE   H8S20149   5.627   1.877   8.960  2.0627  0.1909 -1.0740
  177SOPE   C2920150   5.790   1.831   9.088 -0.0131 -0.2588 -0.4293
  177SOPE   H9120151   5.772   1.844   9.196 -2.1585  0.0633 -0.7742
  177SOPE  C21020152   5.911   1.835   9.023  0.1090  0.3526  0.2370
  177SOPE  H10120153   6.000   1.883   9.068  1.8289 -0.1882 -2.3152
  177SOPE  C21120154   5.934   1.804   8.877 -1.0220  0.5203 -0.4945
  177SOPE  H11R20155   5.855   1.730   8.851 -0.9930  0.3270 -0.0363
  177SOPE  H11S20156   6.028   1.745   8.871 -0.2269  1.6985  0.1592
  177SOPE  C21220157   5.955   1.925   8.796  0.2765 -0.1372 -0.0210
  177SOPE  H12R20158   6.017   2.004   8.844 -1.4333  1.3370 -0.1055
  177SOPE  H12S20159   5.854   1.972   8.793  1.0841  1.6682 -1.3883
  177SOPE  C21320160   6.007   1.891   8.656  0.0472  0.5527 -1.0431
  177SOPE  H13R20161   6.113   1.858   8.658 -0.1636 -0.1064 -0.0658
  177SOPE  H13S20162   6.001   1.989   8.603  0.1789  1.2680  0.2253
  177SOPE  C21420163   5.940   1.785   8.574  0.1795  0.2373  0.1100
  177SOPE  H14R20164   5.953   1.682   8.614  1.2990  0.0554 -0.6558
  177SOPE  H14S20165   5.992   1.782   8.475 -2.0468 -0.0300 -1.1121
  177SOPE  C21520166   5.789   1.807   8.540 -0.3358  0.3934  0.6716
  177SOPE  H15R20167   5.771   1.886   8.464 -3.0304 -1.2322 -0.5263
  177SOPE  H15S20168   5.721   1.829   8.625 -0.8461 -0.6475  0.5481
  177SOPE  C21620169   5.737   1.676   8.479 -0.1629 -0.3524  0.3303
  177SOPE  H16R20170   5.777   1.588   8.533  0.7072 -0.9604 -1.2344
  177SOPE  H16S20171   5.768   1.670   8.372 -1.8969 -0.7690 -0.1763
  177SOPE  C21720172   5.588   1.662   8.479  0.8531 -0.2374  0.0010
  177SOPE  H17R20173   5.556   1.712   8.572 -4.2941 -0.6871 -1.2358
  177SOPE  H17S20174   5.552   1.557   8.483  2.1351 -0.6580  2.4717
  177SOPE  C21820175   5.513   1.742   8.369 -0.0230  1.0920  0.4491
  177SOPE  H18R20176   5.565   1.718   8.274 -0.7568 -0.0492  0.3055
  177SOPE  H18S20177   5.517   1.850   8.391 -0.9172  1.6443 -1.8242
  177SOPE  H18T20178   5.408   1.707   8.352 -0.0704  1.6006 -0.3845
  177SOPE   C3320179   4.660   2.034   9.242  0.3971 -0.2876 -0.1229
  177SOPE   H3X20180   4.713   1.937   9.234  1.0394 -0.0490  1.0213
  177SOPE   H3Y20181   4.735   2.116   9.249 -0.1620  0.2570 -0.4261
  177SOPE   C3420182   4.577   2.066   9.123  0.0008 -0.1872 -0.2174
  177SOPE   H4X20183   4.534   2.168   9.134 -0.6646 -0.4909 -0.0002
  177SOPE   H4Y20184   4.492   1.995   9.120  0.1182 -0.3216 -2.5350
  177SOPE   C3520185   4.653   2.062   8.992 -0.2343  0.3398  0.3600
  177SOPE   H5X20186   4.711   1.967   8.984 -0.5439  0.1949 -0.2575
  177SOPE   H5Y20187   4.719   2.145   8.960  1.1407 -1.2475 -1.1543
  177SOPE   C3620188   4.560   2.044   8.872 -0.1946 -0.4777 -0.0287
  177SOPE   H6X20189   4.512   2.143   8.858  0.7557 -0.0476 -0.3261
  177SOPE   H6Y20190   4.488   1.959   8.880  0.2810 -0.8616  0.2914
  177SOPE   C3720191   4.647   2.026   8.748 -0.5357 -0.4481 -0.6162
  177SOPE   H7X20192   4.685   1.923   8.737  0.5255 -0.1752  0.3234
  177SOPE   H7Y20193   4.736   2.092   8.754 -0.5823 -0.3828 -0.6362
  177SOPE   C3820194   4.575   2.055   8.619  0.0717  0.3538 -0.5739
  177SOPE   H8X20195   4.525   2.154   8.633 -1.1535 -0.4842  1.2758
  177SOPE   H8Y20196   4.506   1.971   8.596  1.6436 -1.2012  0.1808
  177SOPE   C3920197   4.670   2.068   8.503 -0.1011  0.4102  0.3504
  177SOPE   H9X20198   4.748   2.140   8.536 -2.5344  4.5409 -1.9999
  177SOPE   H9Y20199   4.615   2.124   8.424 -0.6692 -3.8770 -2.6046
  177SOPE  C31020200   4.723   1.934   8.445 -0.3044  0.1272  0.2965
  177SOPE  H10X20201   4.640   1.860   8.440  1.3502 -1.7955 -0.1045
  177SOPE  H10Y20202   4.797   1.893   8.518  0.9694  0.2114 -0.8950
  177SOPE  C31120203   4.780   1.943   8.306 -0.5105  0.4431  0.4001
  177SOPE  H11X20204   4.812   1.841   8.275  0.1985  0.2996  1.5280
  177SOPE  H11Y20205   4.872   2.005   8.295  1.0398 -1.8496 -0.3339
  177SOPE  C31220206   4.684   1.988   8.201 -0.6298 -0.4318  0.5484
  177SOPE  H12X20207   4.669   2.094   8.227  0.4561 -0.3246  0.8110
  177SOPE  H12Y20208   4.587   1.936   8.212 -0.4430 -0.7339  0.7930
  177SOPE  C31320209   4.742   1.975   8.060 -0.1403  0.5663 -0.8516
  177SOPE  H13X20210   4.852   1.987   8.049 -0.0183  1.1563  0.7210
  177SOPE  H13Y20211   4.688   2.046   7.993  0.8854  0.9931 -1.2439
  177SOPE  C31420212   4.703   1.835   8.009 -0.4341  0.0552  0.9296
  177SOPE  H14X20213   4.593   1.818   8.014 -1.2609  3.6884 -1.3380
  177SOPE  H14Y20214   4.765   1.759   8.061  0.8662 -0.5474 -1.3590
  177SOPE  C31520215   4.731   1.822   7.857  0.2608 -0.3114 -0.1363
  177SOPE  H15X20216   4.728   1.712   7.848 -0.0048 -0.6054  2.7035
  177SOPE  H15Y20217   4.840   1.839   7.845  0.4329 -1.0873  0.2727
  177SOPE  C31620218   4.640   1.899   7.764  0.3550 -0.2564  0.7092
  177SOPE  H16X20219   4.681   2.003   7.768  0.3012 -0.2673  1.9582
  177SOPE  H16Y20220   4.533   1.905   7.792  0.7681  1.0818  2.1552
  177SOPE  C31720221   4.633   1.847   7.619  0.5835  0.1866 -0.1321
  177SOPE  H17X20222   4.730   1.812   7.576 -0.0714 -2.6282  0.4814
  177SOPE  H17Y20223   4.594   1.933   7.560  0.7326 -1.6540 -3.1437
  177SOPE  C31820224   4.535   1.734   7.597 -0.4229 -0.2208  0.4610
  177SOPE  H18X20225   4.505   1.742   7.491  0.7448  2.3556  0.2391
  177SOPE  H18Y20226   4.438   1.737   7.651  0.0397  0.4790  1.2851
  177SOPE  H18Z20227   4.584   1.635   7.607 -1.1121 -0.7487 -1.1666
  178SOPE     N20228   2.482   0.587   9.836  0.8077 -0.5689 -0.3536
  178SOPE   HN120229   2.453   0.597   9.936 -1.7839  1.1291 -1.1788
  178SOPE   HN220230   2.574   0.636   9.841  0.8788 -0.6705 -0.6783
  178SOPE   HN320231   2.407   0.646   9.795 -0.5412 -1.4270  0.7940
  178SOPE   C1220232   2.471   0.451   9.775  0.3323 -0.2363  0.3288
  178SOPE  H12A20233   2.543   0.381   9.822 -0.3931  0.2966  2.3744
  178SOPE  H12B20234   2.495   0.466   9.668  0.5568 -0.7535  0.3028
  178SOPE   C1120235   2.329   0.405   9.789  0.4850 -0.1696 -0.5278
  178SOPE  H11A20236   2.313   0.326   9.712 -0.1757  0.7186 -1.3229
  178SOPE  H11B20237   2.258   0.490   9.783  2.7968  1.8280 -0.9352
  178SOPE     P20238   2.198   0.243   9.948 -0.3142 -0.1665 -0.1282
  178SOPE   O1320239   2.067   0.311   9.964 -0.1903  0.4902 -0.2243
  178SOPE   O1420240   2.236   0.153  10.062  0.1846  0.2992  0.3681
  178SOPE   O1220241   2.313   0.348   9.917 -0.2026 -0.3474 -0.2994
  178SOPE   O1120242   2.203   0.154   9.820  0.0600  0.0069 -0.1901
  178SOPE    C120243   2.192   0.015   9.810  0.7557 -0.0464 -0.1796
  178SOPE    HA20244   2.098  -0.027   9.851  0.5861 -0.1153 -0.6384
  178SOPE    HB20245   2.276  -0.035   9.864 -2.0068 -2.2433  2.4196
  178SOPE    C220246   2.200  -0.029   9.666  0.2388  0.1319  0.3875
  178SOPE    HS20247   2.219  -0.138   9.666  3.6412  0.6291  0.4942
  178SOPE   O2120248   2.302   0.043   9.589 -0.2373  0.0864 -0.5000
  178SOPE   C2120249   2.423  -0.001   9.603  0.5119 -0.1106  0.0318
  178SOPE   O2220250   2.454  -0.090   9.678  0.2047 -0.1532  0.0919
  178SOPE   C2220251   2.520   0.085   9.514  1.0622  0.2502 -0.4612
  178SOPE   H2R20252   2.585   0.148   9.578 -0.1515 -0.1672  1.2782
  178SOPE   H2S20253   2.456   0.154   9.455  2.0804  0.2783 -1.5553
  178SOPE    C320254   2.058  -0.017   9.602 -0.0307  0.3097 -0.1412
  178SOPE    HX20255   2.031   0.090   9.607  0.2576  0.3295  1.5736
  178SOPE    HY20256   1.995  -0.079   9.669  0.2872  1.5617  1.3706
  178SOPE   O3120257   2.048  -0.058   9.462 -0.1800 -0.1026  0.2005
  178SOPE   C3120258   2.061  -0.184   9.437  0.5831  0.4971 -0.0431
  178SOPE   O3220259   2.099  -0.267   9.514  0.5745 -1.1296  0.2534
  178SOPE   C3220260   2.030  -0.211   9.289  0.6527  0.1474  0.0655
  178SOPE   H2X20261   2.076  -0.312   9.280  0.5301  0.2428 -2.4782
  178SOPE   H2Y20262   2.094  -0.140   9.232 -0.2965  1.6081  0.7473
  178SOPE   C2320263   2.597  -0.018   9.427 -0.0144  0.5575 -0.0832
  178SOPE   H3R20264   2.525  -0.091   9.385  1.0206  0.2928 -1.4701
  178SOPE   H3S20265   2.662  -0.064   9.505 -2.2544  1.4152  2.4719
  178SOPE   C2420266   2.660   0.057   9.313 -0.1865 -0.1643 -0.1605
  178SOPE   H4R20267   2.581   0.117   9.263  0.7782  1.1000 -0.2201
  178SOPE   H4S20268   2.736   0.118   9.367 -0.1534 -1.2948  1.0926
  178SOPE   C2520269   2.718  -0.029   9.202 -0.2749 -0.0831 -0.2808
  178SOPE   H5R20270   2.765  -0.119   9.248 -0.8694 -0.7707 -0.9765
  178SOPE   H5S20271   2.630  -0.068   9.147  0.2277 -0.7610 -0.6206
  178SOPE   C2620272   2.793   0.050   9.090 -0.3987 -0.1968 -0.2663
  178SOPE   H6R20273   2.746   0.149   9.073  0.2653  0.4260  1.2874
  178SOPE   H6S20274   2.897   0.081   9.113 -0.9073  1.6679 -0.2886
  178SOPE   C2720275   2.816  -0.022   8.957 -0.7321 -0.1073 -0.2330
  178SOPE   H7R20276   2.879  -0.111   8.976 -0.3995 -0.1602 -1.5008
  178SOPE   H7S20277   2.718  -0.064   8.926 -1.3969  0.0160  1.5332
  178SOPE   C2820278   2.883   0.068   8.849  0.2696 -0.6543 -0.4838
  178SOPE   H8R20279   2.973   0.110   8.899 -0.3885 -0.5915  0.6808
  178SOPE   H8S20280   2.925   0.007   8.767  1.4291  2.0669 -2.0642
  178SOPE   C2920281   2.786   0.180   8.796 -0.6643  0.1036  0.0311
  178SOPE   H9120282   2.681   0.149   8.788 -0.4252 -0.9241  0.7726
  178SOPE  C21020283   2.812   0.312   8.780  0.3760 -0.2108 -0.0522
  178SOPE  H10120284   2.746   0.368   8.711  0.5630  0.8776  0.6202
  178SOPE  C21120285   2.951   0.376   8.809 -0.4936 -0.8211 -0.4344
  178SOPE  H11R20286   2.992   0.308   8.887 -1.9887 -0.4302  0.7430
  178SOPE  H11S20287   2.945   0.472   8.864 -0.0650 -0.2212 -1.4183
  178SOPE  C21220288   3.049   0.384   8.697  0.3516 -0.5094 -0.3131
  178SOPE  H12R20289   3.057   0.277   8.666  0.7326 -0.7829  0.7029
  178SOPE  H12S20290   3.149   0.414   8.736  0.5733  0.6056 -1.6358
  178SOPE  C21320291   3.007   0.482   8.586  0.1455 -0.0377 -0.1259
  178SOPE  H13R20292   2.980   0.567   8.651 -0.0235 -1.0196  1.1370
  178SOPE  H13S20293   2.916   0.448   8.533 -0.9359  4.4521 -1.5471
  178SOPE  C21420294   3.118   0.514   8.491  0.1547  0.1606  0.8512
  178SOPE  H14R20295   3.142   0.428   8.426  1.1078 -0.4733  1.9825
  178SOPE  H14S20296   3.209   0.536   8.552  2.1424 -0.6380 -1.6619
  178SOPE  C21520297   3.096   0.629   8.397  0.2661  0.0766 -0.2602
  178SOPE  H15R20298   3.071   0.722   8.454  1.2798 -0.4440  1.0950
  178SOPE  H15S20299   3.008   0.618   8.330 -1.3915  2.1711  1.3666
  178SOPE  C21620300   3.222   0.659   8.315 -1.0980  0.1085  0.0579
  178SOPE  H16R20301   3.255   0.582   8.242  0.7404  0.5000  0.4318
  178SOPE  H16S20302   3.302   0.696   8.383 -1.8015  0.3820  0.7408
  178SOPE  C21720303   3.206   0.790   8.226  0.2312  0.1060  0.0426
  178SOPE  H17R20304   3.203   0.886   8.281 -0.7783  0.0595  0.0884
  178SOPE  H17S20305   3.109   0.779   8.173  0.0842 -0.2298  0.3784
  178SOPE  C21820306   3.303   0.789   8.111 -0.6741 -0.7658  0.4212
  178SOPE  H18R20307   3.269   0.718   8.034  1.4964 -3.6196  1.8861
  178SOPE  H18S20308   3.404   0.752   8.139  1.0374  3.5112  0.6961
  178SOPE  H18T20309   3.329   0.887   8.066 -0.9593 -1.0057 -0.2730
  178SOPE   C3320310   1.882  -0.214   9.244  0.2947  0.0598  0.5170
  178SOPE   H3X20311   1.856  -0.106   9.233  1.0864  0.1072 -1.2567
  178SOPE   H3Y20312   1.826  -0.261   9.327  3.0697 -0.5603  2.1831
  178SOPE   C3420313   1.847  -0.255   9.099  0.6449  0.2709 -0.0593
  178SOPE   H4X20314   1.903  -0.200   9.019 -0.7901  2.3892  0.3148
  178SOPE   H4Y20315   1.743  -0.223   9.075  1.3052  1.2721 -1.8136
  178SOPE   C3520316   1.864  -0.410   9.078  0.2602  0.4336  0.3062
  178SOPE   H5X20317   1.814  -0.475   9.154  2.3679 -1.1990  0.4054
  178SOPE   H5Y20318   1.969  -0.439   9.100 -0.1920 -0.9179  0.8431
  178SOPE   C3620319   1.823  -0.469   8.941 -0.0656 -0.0150 -0.7971
  178SOPE   H6X20320   1.714  -0.478   8.921  0.1357  1.0827 -2.6453
  178SOPE   H6Y20321   1.854  -0.576   8.939  0.7709  0.2252 -1.3253
  178SOPE   C3720322   1.887  -0.405   8.822  0.1828 -0.7794  0.2465
  178SOPE   H7X20323   1.996  -0.391   8.834 -0.1690  1.6239  1.1431
  178SOPE   H7Y20324   1.853  -0.299   8.818 -0.9679 -1.1149  0.5630
  178SOPE   C3820325   1.854  -0.487   8.699  0.0708  0.2121  0.2840
  178SOPE   H8X20326   1.749  -0.467   8.670  0.6490 -0.2838 -2.4463
  178SOPE   H8Y20327   1.865  -0.595   8.725 -0.5889 -0.4029 -1.7986
  178SOPE   C3920328   1.955  -0.447   8.590 -0.1330  0.4221 -0.0235
  178SOPE   H9X20329   1.940  -0.514   8.503 -1.5033 -1.6456  1.7143
  178SOPE   H9Y20330   2.054  -0.485   8.624 -0.1914 -0.2366 -0.5669
  178SOPE  C31020331   1.953  -0.298   8.557  0.0997 -0.2731  0.0301
  178SOPE  H10X20332   1.984  -0.245   8.650 -0.8993  1.0289 -0.3458
  178SOPE  H10Y20333   1.846  -0.269   8.548  0.4170  1.0541  0.2112
  178SOPE  C31120334   2.041  -0.279   8.431  0.1866  0.3725 -0.8527
  178SOPE  H11X20335   1.985  -0.313   8.342 -2.1270 -0.5282  0.8414
  178SOPE  H11Y20336   2.131  -0.345   8.430 -0.2952 -0.3182 -3.1688
  178SOPE  C31220337   2.100  -0.143   8.423 -0.0388  0.0954  0.3219
  178SOPE  H12X20338   2.179  -0.130   8.345  1.1838  1.3243  1.7119
  178SOPE  H12Y20339   2.142  -0.126   8.524 -0.5588 -0.6035  0.6641
  178SOPE  C31320340   1.998  -0.034   8.376 -0.3024  0.3456 -0.0929
  178SOPE  H13X20341   2.058   0.059   8.392  0.8538 -0.1365 -1.3917
  178SOPE  H13Y20342   1.916  -0.025   8.450 -0.1907 -0.7291  0.1714
  178SOPE  C31420343   1.954  -0.053   8.233 -0.2501  0.3078  0.0346
  178SOPE  H14X20344   1.905  -0.153   8.230  2.0453 -0.9235  0.7560
  178SOPE  H14Y20345   2.039  -0.050   8.161 -0.2492  0.4756  0.0423
  178SOPE  C31520346   1.865   0.060   8.187 -0.5798 -0.1428 -0.0778
  178SOPE  H15X20347   1.929   0.150   8.174  1.5559 -1.6083 -0.2396
  178SOPE  H15Y20348   1.789   0.085   8.264  1.1459  2.0007  1.0216
  178SOPE  C31620349   1.798   0.027   8.055  0.3993 -0.1951 -0.4359
  178SOPE  H16X20350   1.738  -0.067   8.055  0.5056 -0.2715 -1.5530
  178SOPE  H16Y20351   1.882   0.010   7.984  3.4040 -0.1612  2.7922
  178SOPE  C31720352   1.710   0.144   8.015 -0.1226  0.0079 -0.0009
  178SOPE  H17X20353   1.771   0.237   8.013  2.4481 -1.5596  0.4646
  178SOPE  H17Y20354   1.631   0.155   8.092 -0.4270 -0.3627 -0.2604
  178SOPE  C31820355   1.662   0.114   7.867 -0.6321  0.5051 -0.3471
  178SOPE  H18X20356   1.752   0.103   7.803 -0.8535  1.1836 -0.7790
  178SOPE  H18Y20357   1.605   0.203   7.833 -0.0144  0.7295 -0.7955
  178SOPE  H18Z20358   1.599   0.024   7.849 -0.4269 -0.8022  4.1922
  179SOPE     N20359   4.036   3.770   5.397 -0.3449  0.1982 -0.6231
  179SOPE   HN120360   4.045   3.786   5.294 -1.8227 -0.8917 -0.9547
  179SOPE   HN220361   4.083   3.684   5.431 -2.8587 -0.0081  2.9178
  179SOPE   HN320362   3.936   3.774   5.425 -0.2387  1.9137 -0.3836
  179SOPE   C1220363   4.104   3.871   5.482  0.5814 -0.2330 -0.0315
  179SOPE  H12A20364   4.052   3.875   5.580  1.1421 -1.3189  0.3314
  179SOPE  H12B20365   4.108   3.971   5.435  2.0654  0.5470  1.6502
  179SOPE   C1120366   4.251   3.834   5.504 -0.6693 -1.2135  0.4025
  179SOPE  H11A20367   4.285   3.865   5.605  0.7110  0.1045 -0.4213
  179SOPE  H11B20368   4.319   3.885   5.432 -0.6166 -1.1424  0.5029
  179SOPE     P20369   4.421   3.639   5.511  0.0592  0.1763  0.3908
  179SOPE   O1320370   4.521   3.719   5.435 -0.0411  0.0511  0.5283
  179SOPE   O1420371   4.416   3.493   5.479 -0.0068 -0.9028 -0.3708
  179SOPE   O1220372   4.275   3.697   5.484 -0.2087 -0.2444 -0.1840
  179SOPE   O1120373   4.448   3.671   5.666 -0.6473  0.4308  0.3566
  179SOPE    C120374   4.346   3.640   5.765 -0.6356 -0.6725 -0.0773
  179SOPE    HA20375   4.243   3.664   5.730 -0.7965  0.9531  1.3965
  179SOPE    HB20376   4.365   3.704   5.854 -2.3998  0.4012 -0.4199
  179SOPE    C220377   4.349   3.497   5.814 -0.4723 -0.3422 -0.2453
  179SOPE    HS20378   4.305   3.422   5.745 -0.6564 -1.4155  0.9880
  179SOPE   O2120379   4.283   3.501   5.942  0.5464 -0.2398  0.2734
  179SOPE   C2120380   4.155   3.478   5.930  0.7318  0.8777 -0.5116
  179SOPE   O2220381   4.101   3.431   5.828  0.2563 -0.1848 -0.1566
  179SOPE   C2220382   4.087   3.468   6.069 -0.3827 -0.2050 -0.0308
  179SOPE   H2R20383   3.977   3.466   6.065 -0.4404 -0.9706  1.1969
  179SOPE   H2S20384   4.122   3.563   6.117  1.4417 -1.5238  1.4257
  179SOPE    C320385   4.498   3.451   5.842 -0.1503  0.1211  0.0165
  179SOPE    HX20386   4.536   3.540   5.897  1.2150 -0.7637  0.5496
  179SOPE    HY20387   4.550   3.447   5.744 -0.5718  1.0171 -0.2593
  179SOPE   O3120388   4.517   3.324   5.908 -0.3305  0.0776  0.1735
  179SOPE   C3120389   4.617   3.315   5.991 -0.3792  0.0224 -0.7042
  179SOPE   O3220390   4.705   3.399   6.002  0.4392 -0.0685  0.4829
  179SOPE   C3220391   4.624   3.170   6.048 -0.5790 -0.4203 -0.7269
  179SOPE   H2X20392   4.730   3.154   6.079 -0.3921  0.1124 -1.0772
  179SOPE   H2Y20393   4.591   3.097   5.972 -1.0951  1.2962 -2.2082
  179SOPE   C2320394   4.133   3.350   6.158  0.5026  0.4109  0.1292
  179SOPE   H3R20395   4.232   3.312   6.124  0.3273  0.5200 -0.5292
  179SOPE   H3S20396   4.072   3.259   6.141  0.7044  0.6355 -2.2107
  179SOPE   C2420397   4.121   3.387   6.312 -0.1922  0.1121  0.0460
  179SOPE   H4R20398   4.200   3.462   6.333  0.2475 -0.7013  1.5129
  179SOPE   H4S20399   4.020   3.432   6.324 -0.5758 -0.3054 -1.4126
  179SOPE   C2520400   4.137   3.272   6.410  0.3190  0.7342 -0.4704
  179SOPE   H5R20401   4.071   3.188   6.379  2.9872 -2.1547  1.0698
  179SOPE   H5S20402   4.239   3.230   6.400 -0.4395 -1.4381  0.2111
  179SOPE   C2620403   4.108   3.304   6.552  0.3167 -1.0268 -0.2579
  179SOPE   H6R20404   4.176   3.384   6.590  0.7206 -0.2349 -2.5205
  179SOPE   H6S20405   4.005   3.344   6.560 -0.3250 -2.8225  1.2262
  179SOPE   C2720406   4.106   3.178   6.647 -1.1786 -0.3100  0.3099
  179SOPE   H7R20407   4.026   3.117   6.599 -3.3791  2.0627  0.7172
  179SOPE   H7S20408   4.210   3.140   6.645 -0.1631  2.3149 -0.2647
  179SOPE   C2820409   4.064   3.211   6.794 -0.2389  0.5564  0.7173
  179SOPE   H8R20410   4.142   3.277   6.837 -0.3326  1.1531 -0.0112
  179SOPE   H8S20411   3.975   3.278   6.789 -0.1101  0.6565 -0.6216
  179SOPE   C2920412   4.059   3.081   6.870  0.3086 -0.1164 -0.4391
  179SOPE   H9120413   4.154   3.051   6.916  0.0990  0.1160  0.1634
  179SOPE  C21020414   3.956   2.996   6.885  0.2600  0.4203 -0.3904
  179SOPE  H10120415   3.970   2.902   6.941  2.9704 -0.7395 -2.7815
  179SOPE  C21120416   3.816   3.013   6.838 -0.7162 -0.4319 -0.8672
  179SOPE  H11R20417   3.787   2.949   6.752  1.5636 -2.7173 -0.0656
  179SOPE  H11S20418   3.814   3.119   6.806 -0.9101 -0.1786 -0.0529
  179SOPE  C21220419   3.705   3.004   6.943 -0.8580 -0.1233  0.5453
  179SOPE  H12R20420   3.679   2.899   6.968 -3.7289  0.7847  1.7590
  179SOPE  H12S20421   3.616   3.052   6.895  0.6549 -0.3538 -2.7803
  179SOPE  C21320422   3.727   3.089   7.068  0.0683 -0.5336 -0.6232
  179SOPE  H13R20423   3.756   3.195   7.054 -0.1012 -0.1795  1.3751
  179SOPE  H13S20424   3.810   3.047   7.129 -0.5994 -0.0132  0.7016
  179SOPE  C21420425   3.599   3.079   7.152 -0.0235  0.6663 -0.6047
  179SOPE  H14R20426   3.563   2.974   7.158  0.8355  0.4069  0.0318
  179SOPE  H14S20427   3.517   3.137   7.102  0.0589 -0.2861 -1.9072
  179SOPE  C21520428   3.612   3.128   7.301  0.4564 -0.3666 -0.3233
  179SOPE  H15R20429   3.616   3.239   7.301  0.6125 -0.3366 -2.6047
  179SOPE  H15S20430   3.712   3.107   7.345  1.3315  3.9716  0.2239
  179SOPE  C21620431   3.504   3.072   7.399  0.2275  0.7992  0.6017
  179SOPE  H16R20432   3.510   2.961   7.397  1.5231  0.8605  0.5735
  179SOPE  H16S20433   3.406   3.103   7.355 -0.1491 -0.9466  0.1264
  179SOPE  C21720434   3.527   3.114   7.542 -0.5466  1.0342 -0.4585
  179SOPE  H17R20435   3.527   3.226   7.540 -0.7344  1.0731  0.8189
  179SOPE  H17S20436   3.620   3.075   7.587  0.5521  3.1730 -0.7591
  179SOPE  C21820437   3.423   3.067   7.645  0.0486 -0.1063  0.1435
  179SOPE  H18R20438   3.323   3.101   7.611  0.4520  1.0915  0.0953
  179SOPE  H18S20439   3.433   3.111   7.746 -0.8134 -1.3511  0.7885
  179SOPE  H18T20440   3.429   2.958   7.665  0.5777 -0.6144 -2.4171
  179SOPE   C3320441   4.528   3.159   6.173 -0.6856  0.9001  0.1985
  179SOPE   H3X20442   4.486   3.056   6.180  3.4160 -0.9726  0.1618
  179SOPE   H3Y20443   4.447   3.235   6.168 -2.4497 -0.9400 -1.2943
  179SOPE   C3420444   4.608   3.176   6.308 -0.1139 -0.2368 -0.6126
  179SOPE   H4X20445   4.628   3.285   6.316 -2.1572  0.0816  1.4265
  179SOPE   H4Y20446   4.706   3.123   6.310  0.3289  0.4818  2.3386
  179SOPE   C3520447   4.533   3.130   6.431  0.3851 -0.2392 -0.6852
  179SOPE   H5X20448   4.498   3.025   6.419 -2.6863  0.7351 -1.0484
  179SOPE   H5Y20449   4.438   3.187   6.424  1.5808  1.8261 -0.9724
  179SOPE   C3620450   4.607   3.169   6.564  0.0439  0.4728  0.6155
  179SOPE   H6X20451   4.623   3.278   6.546 -0.3212  0.0404 -3.0345
  179SOPE   H6Y20452   4.708   3.123   6.569 -0.5915 -0.9250  1.1472
  179SOPE   C3720453   4.526   3.135   6.680 -0.6616  0.0388 -0.2550
  179SOPE   H7X20454   4.510   3.025   6.688 -0.4598 -0.0468 -0.9384
  179SOPE   H7Y20455   4.421   3.168   6.660 -0.2640 -0.4255 -3.9635
  179SOPE   C3820456   4.571   3.186   6.823 -0.3747 -0.3347  0.1106
  179SOPE   H8X20457   4.596   3.294   6.814 -1.5653 -0.1351 -1.0358
  179SOPE   H8Y20458   4.670   3.140   6.844 -1.7711 -2.1080  3.7572
  179SOPE   C3920459   4.475   3.163   6.941 -0.5410 -0.1848  0.0711
  179SOPE   H9X20460   4.454   3.054   6.935  2.2367 -0.8988  1.2346
  179SOPE   H9Y20461   4.389   3.230   6.922 -0.6083 -0.8353 -2.1186
  179SOPE  C31020462   4.535   3.202   7.068 -0.7740  0.3460  0.2036
  179SOPE  H10X20463   4.540   3.312   7.077 -1.5187  0.2594  2.2814
  179SOPE  H10Y20464   4.638   3.160   7.070 -0.7405  0.3798 -0.5202
  179SOPE  C31120465   4.463   3.146   7.191  0.4191 -0.1492  0.5741
  179SOPE  H11X20466   4.532   3.152   7.278  2.2239  0.4840 -0.8280
  179SOPE  H11Y20467   4.452   3.037   7.172 -0.0990  0.2173 -1.5495
  179SOPE  C31220468   4.327   3.221   7.214 -0.2382  0.2684 -0.1760
  179SOPE  H12X20469   4.271   3.230   7.118 -0.9107 -2.8656 -0.1771
  179SOPE  H12Y20470   4.353   3.321   7.255 -0.7140 -0.0724  1.0094
  179SOPE  C31320471   4.256   3.147   7.329  0.4101 -0.6424  0.1342
  179SOPE  H13X20472   4.333   3.133   7.408  1.1391 -1.3065 -0.6649
  179SOPE  H13Y20473   4.232   3.044   7.294 -0.6040 -0.0521 -0.9686
  179SOPE  C31420474   4.131   3.212   7.392  0.1147 -0.2378 -0.7282
  179SOPE  H14X20475   4.158   3.313   7.428 -1.1964 -0.8002  2.1731
  179SOPE  H14Y20476   4.100   3.152   7.480 -1.8872 -0.7722 -1.7221
  179SOPE  C31520477   4.011   3.218   7.303  0.4477  0.4884 -0.1012
  179SOPE  H15X20478   3.968   3.117   7.290  3.5370 -1.0122  0.3840
  179SOPE  H15Y20479   4.050   3.256   7.206  0.5967 -0.8775 -0.5874
  179SOPE  C31620480   3.899   3.312   7.349 -0.3059  0.2577 -0.1165
  179SOPE  H16X20481   3.849   3.287   7.445 -1.0004 -1.6165 -0.9266
  179SOPE  H16Y20482   3.822   3.314   7.269 -1.3535  0.9171  0.8795
  179SOPE  C31720483   3.963   3.455   7.350 -0.5183 -0.1194 -1.1412
  179SOPE  H17X20484   4.026   3.467   7.259 -0.2548 -1.5003 -1.1699
  179SOPE  H17Y20485   4.016   3.473   7.446 -0.6228  0.2282 -1.1460
  179SOPE  C31820486   3.858   3.559   7.353 -0.6813 -0.3789 -0.0793
  179SOPE  H18X20487   3.809   3.562   7.253  0.6409 -1.4855 -0.7952
  179SOPE  H18Y20488   3.905   3.658   7.373 -1.3628  0.0119 -0.3557
  179SOPE  H18Z20489   3.779   3.550   7.431  0.1249  1.7575  1.0783
  180SOPE     N20490   4.407   0.768   5.488  0.1446 -0.6075  0.4131
  180SOPE   HN120491   4.330   0.722   5.541 -1.0617 -1.3510 -1.8396
  180SOPE   HN220492   4.398   0.746   5.387 -1.8321  0.7355  0.2331
  180SOPE   HN320493   4.492   0.716   5.517 -1.0134 -1.3085  2.8699
  180SOPE   C1220494   4.421   0.916   5.513  0.6844  0.0655 -0.3448
  180SOPE  H12A20495   4.401   0.934   5.621  0.8505 -0.5957 -0.1962
  180SOPE  H12B20496   4.342   0.964   5.452  0.7123 -1.3329 -1.5286
  180SOPE   C1120497   4.554   0.953   5.457  0.1541  0.0424 -0.2749
  180SOPE  H11A20498   4.580   1.054   5.495 -1.1680 -0.4363  2.0770
  180SOPE  H11B20499   4.555   0.939   5.346 -0.7619 -1.3130 -0.1437
  180SOPE     P20500   4.807   0.909   5.515 -0.1694  0.4407  0.4744
  180SOPE   O1320501   4.834   1.016   5.417 -0.9827  0.3244 -0.1911
  180SOPE   O1420502   4.876   0.781   5.499 -0.7033  0.2282 -0.3057
  180SOPE   O1220503   4.654   0.868   5.505 -0.1932 -0.2447 -0.3582
  180SOPE   O1120504   4.839   0.977   5.655  0.5467 -0.0274 -0.2255
  180SOPE    C120505   4.794   0.912   5.778  0.0449  1.0070 -0.6483
  180SOPE    HA20506   4.883   0.858   5.815  0.4594  1.3456 -1.1287
  180SOPE    HB20507   4.708   0.842   5.775  1.2237 -0.4855 -0.7473
  180SOPE    C220508   4.764   1.022   5.884 -0.3823 -0.2319 -0.0011
  180SOPE    HS20509   4.855   1.078   5.916  0.7427 -2.5003  0.9933
  180SOPE   O2120510   4.696   0.977   6.007  0.1403  0.1608 -0.4147
  180SOPE   C2120511   4.782   0.917   6.086  0.1728 -0.0217  0.1136
  180SOPE   O2220512   4.904   0.910   6.072  0.1127  0.5448 -0.5075
  180SOPE   C2220513   4.701   0.851   6.196 -0.2770 -0.0096 -0.3159
  180SOPE   H2R20514   4.597   0.833   6.161 -0.1449 -0.0017 -0.7253
  180SOPE   H2S20515   4.687   0.924   6.278 -1.8655  1.7987 -2.0911
  180SOPE    C320516   4.670   1.131   5.817  0.4281  0.8215 -0.4519
  180SOPE    HX20517   4.581   1.072   5.785  2.9897 -3.9014  0.2108
  180SOPE    HY20518   4.712   1.183   5.728  1.9476 -0.2940 -0.4233
  180SOPE   O3120519   4.651   1.239   5.916 -0.0569 -0.5204  0.1958
  180SOPE   C3120520   4.523   1.235   5.958  0.1321  0.1663 -0.4492
  180SOPE   O3220521   4.432   1.165   5.917 -0.4736  0.3643  0.4352
  180SOPE   C3220522   4.508   1.326   6.083 -0.5613 -0.1261  0.3588
  180SOPE   H2X20523   4.411   1.377   6.071  0.2897  1.2797 -0.8156
  180SOPE   H2Y20524   4.591   1.399   6.077 -1.8809  1.3485 -0.7131
  180SOPE   C2320525   4.752   0.719   6.251 -0.0422 -0.1282 -0.1493
  180SOPE   H3R20526   4.862   0.730   6.264 -0.1544  1.1663 -0.1492
  180SOPE   H3S20527   4.730   0.635   6.181  0.4302  0.0801 -0.5610
  180SOPE   C2420528   4.695   0.664   6.382 -0.0224 -0.1475 -0.2871
  180SOPE   H4R20529   4.711   0.740   6.461 -0.7750 -0.9182  0.6385
  180SOPE   H4S20530   4.589   0.638   6.362  0.4644 -1.4478 -1.3282
  180SOPE   C2520531   4.753   0.528   6.423 -0.2098 -0.0167 -0.0576
  180SOPE   H5R20532   4.713   0.448   6.357 -0.4314 -0.9027  1.1205
  180SOPE   H5S20533   4.863   0.542   6.414  0.0966 -2.1173  0.0172
  180SOPE   C2620534   4.721   0.507   6.570  0.3053  0.5062  0.1919
  180SOPE   H6R20535   4.777   0.582   6.630  1.8049  1.3026 -2.0532
  180SOPE   H6S20536   4.612   0.528   6.579  0.3989  1.3215 -0.3977
  180SOPE   C2720537   4.769   0.373   6.630  0.1690 -0.0525  0.7260
  180SOPE   H7R20538   4.694   0.294   6.608 -1.5812  1.2764  1.6508
  180SOPE   H7S20539   4.867   0.348   6.584 -0.6952 -0.0071 -1.2098
  180SOPE   C2820540   4.785   0.393   6.791 -0.0514  1.2814 -0.5883
  180SOPE   H8R20541   4.866   0.468   6.802  0.1562  0.8206  1.4533
  180SOPE   H8S20542   4.689   0.419   6.841  0.5568  2.0920  0.1929
  180SOPE   C2920543   4.840   0.265   6.841 -0.7246 -0.2156 -0.0429
  180SOPE   H9120544   4.924   0.226   6.780 -0.6402  1.2920 -0.9390
  180SOPE  C21020545   4.808   0.193   6.952 -0.6079 -0.3169  0.0686
  180SOPE  H10120546   4.856   0.097   6.974 -1.8655 -1.3724 -1.6157
  180SOPE  C21120547   4.705   0.235   7.053  0.3166 -0.2950  0.3662
  180SOPE  H11R20548   4.647   0.145   7.080  1.1146 -1.8556 -2.6651
  180SOPE  H11S20549   4.625   0.296   7.006  1.4481  1.8365  1.0462
  180SOPE  C21220550   4.761   0.328   7.161  0.2376  0.0936  0.4411
  180SOPE  H12R20551   4.821   0.414   7.123 -0.8190  0.2644 -0.9231
  180SOPE  H12S20552   4.829   0.266   7.223  1.1462  1.5971  0.9964
  180SOPE  C21320553   4.652   0.386   7.251 -0.0273  0.4188 -0.3702
  180SOPE  H13R20554   4.577   0.307   7.273 -0.9315  0.8658 -1.7589
  180SOPE  H13S20555   4.595   0.457   7.187 -2.7569 -1.4234 -0.1539
  180SOPE  C21420556   4.700   0.454   7.375  0.3097 -0.2060 -0.3633
  180SOPE  H14R20557   4.605   0.479   7.427 -0.3472 -1.6851 -0.8117
  180SOPE  H14S20558   4.766   0.538   7.345  0.5822  0.1311  1.0951
  180SOPE  C21520559   4.775   0.358   7.463  0.2566 -0.1867 -0.4055
  180SOPE  H15R20560   4.859   0.309   7.409 -0.3103 -0.3205 -1.1904
  180SOPE  H15S20561   4.704   0.284   7.507 -0.6551  2.0396  2.1644
  180SOPE  C21620562   4.846   0.414   7.590  0.3273 -0.8021  0.7962
  180SOPE  H16R20563   4.905   0.502   7.555 -0.0733 -1.3777 -1.4826
  180SOPE  H16S20564   4.916   0.342   7.638  1.4540  0.7242  1.5608
  180SOPE  C21720565   4.755   0.488   7.697 -0.0521  0.4476  0.0859
  180SOPE  H17R20566   4.810   0.471   7.792 -0.9479 -1.4434  0.3214
  180SOPE  H17S20567   4.657   0.435   7.705 -0.7623  1.9460  2.1397
  180SOPE  C21820568   4.727   0.636   7.674 -0.6700 -0.0540  0.4375
  180SOPE  H18R20569   4.680   0.652   7.575 -0.5512 -0.1644  0.3623
  180SOPE  H18S20570   4.817   0.700   7.668 -2.4554  2.4600 -1.0848
  180SOPE  H18T20571   4.662   0.672   7.757 -0.5559  1.2028 -0.0045
  180SOPE   C3320572   4.512   1.259   6.219  0.3985  0.6549  0.2161
  180SOPE   H3X20573   4.588   1.179   6.229  0.1466  0.5293  1.3307
  180SOPE   H3Y20574   4.417   1.202   6.231  1.1816 -1.1392 -1.4798
  180SOPE   C3420575   4.525   1.355   6.333 -0.0074  0.1464 -0.7561
  180SOPE   H4X20576   4.428   1.406   6.352  0.8420  1.2688  0.7655
  180SOPE   H4Y20577   4.592   1.439   6.305  1.3502 -0.7982 -0.4618
  180SOPE   C3520578   4.561   1.299   6.476 -0.3559 -0.4486 -0.0953
  180SOPE   H5X20579   4.565   1.381   6.551  0.6711 -0.9717  0.4443
  180SOPE   H5Y20580   4.663   1.257   6.464 -0.5847 -0.7726 -0.9606
  180SOPE   C3620581   4.460   1.192   6.525  0.6458 -0.3586  0.0556
  180SOPE   H6X20582   4.440   1.112   6.451 -2.2139  0.4171 -0.1062
  180SOPE   H6Y20583   4.365   1.248   6.514  0.5807 -0.4513  0.1478
  180SOPE   C3720584   4.497   1.149   6.669  0.6522 -0.4469 -0.5806
  180SOPE   H7X20585   4.500   1.235   6.740 -0.7525  0.6436 -1.7810
  180SOPE   H7Y20586   4.606   1.125   6.666  0.5850 -0.6942 -2.2971
  180SOPE   C3820587   4.425   1.023   6.718 -0.3392  0.7687 -0.2966
  180SOPE   H8X20588   4.461   0.980   6.814  1.2549  2.2750 -0.1792
  180SOPE   H8Y20589   4.433   0.939   6.646  0.7930 -0.1978  0.9031
  180SOPE   C3920590   4.274   1.049   6.730 -0.2659  0.2171 -0.0229
  180SOPE   H9X20591   4.228   1.078   6.633  0.8921  0.7943 -0.4213
  180SOPE   H9Y20592   4.265   1.134   6.801 -1.2024 -0.5069  0.7634
  180SOPE  C31020593   4.181   0.934   6.781  0.1266 -0.3882  0.3805
  180SOPE  H10X20594   4.228   0.837   6.753 -0.2349 -0.3435 -0.4350
  180SOPE  H10Y20595   4.080   0.940   6.734  0.3254  0.5355  0.0371
  180SOPE  C31120596   4.165   0.936   6.927 -0.2588 -0.4894 -0.1215
  180SOPE  H11X20597   4.087   1.011   6.952  0.6291  1.4725 -2.8541
  180SOPE  H11Y20598   4.264   0.959   6.971 -0.1058  1.2890 -1.3467
  180SOPE  C31220599   4.125   0.798   6.976 -0.1998  0.0257 -1.0916
  180SOPE  H12X20600   4.193   0.721   6.933  0.5004 -0.6243  1.0465
  180SOPE  H12Y20601   4.026   0.790   6.926 -0.5648  1.9349 -0.7402
  180SOPE  C31320602   4.106   0.764   7.129 -0.3943  0.5052 -0.4903
  180SOPE  H13X20603   4.206   0.780   7.173  0.1086 -1.9084 -0.6417
  180SOPE  H13Y20604   4.100   0.653   7.136  1.3109  0.4360  0.3756
  180SOPE  C31420605   3.983   0.809   7.198  0.0275  0.0505  0.3886
  180SOPE  H14X20606   3.900   0.750   7.153  1.8209 -1.1122 -1.5917
  180SOPE  H14Y20607   3.974   0.917   7.176 -1.3551 -0.0170  0.5079
  180SOPE  C31520608   3.997   0.790   7.345 -0.5539  0.1682  0.0437
  180SOPE  H15X20609   4.101   0.808   7.381 -0.4972 -0.8757  0.4288
  180SOPE  H15Y20610   3.981   0.681   7.355  0.7474  0.0428  1.0109
  180SOPE  C31620611   3.906   0.891   7.413 -0.1567  0.2233  0.4195
  180SOPE  H16X20612   3.803   0.883   7.372 -1.2701  0.3032  2.9768
  180SOPE  H16Y20613   3.941   0.994   7.390 -2.2775  0.7234 -0.8179
  180SOPE  C31720614   3.896   0.870   7.564 -0.6024 -0.5485  0.9715
  180SOPE  H17X20615   3.826   0.948   7.600 -1.3332 -0.6842 -0.1293
  180SOPE  H17Y20616   3.987   0.901   7.621  0.9029 -0.9763 -1.1065
  180SOPE  C31820617   3.846   0.732   7.618  0.5843 -0.2734 -0.1208
  180SOPE  H18X20618   3.742   0.704   7.590  0.1351 -0.4315  1.5951
  180SOPE  H18Y20619   3.838   0.748   7.727 -0.5074  0.8605 -0.3472
  180SOPE  H18Z20620   3.923   0.654   7.600 -0.3267 -1.6066  1.4749
  181SOPE     N20621   3.514   0.882   5.531  0.3756 -0.0809  0.5632
  181SOPE   HN120622   3.547   0.790   5.567  1.5449  0.0428 -0.1414
  181SOPE   HN220623   3.598   0.937   5.505 -0.5998  1.4655  0.5536
  181SOPE   HN320624   3.455   0.921   5.608 -0.2193 -0.1334  0.1378
  181SOPE   C1220625   3.430   0.828   5.412  0.4668 -0.3776 -0.5526
  181SOPE  H12A20626   3.490   0.820   5.319  0.1116  3.1324 -1.2391
  181SOPE  H12B20627   3.355   0.908   5.396  0.6066  0.4560  2.3927
  181SOPE   C1120628   3.375   0.689   5.455 -0.4204  0.3590 -0.1424
  181SOPE  H11A20629   3.353   0.638   5.359 -1.1085 -1.1226  0.7676
  181SOPE  H11B20630   3.287   0.705   5.520  0.1600 -2.7858  1.6475
  181SOPE     P20631   3.456   0.479   5.600  0.0241  0.2005 -0.1469
  181SOPE   O1320632   3.594   0.429   5.625 -0.2692  0.5677  0.0953
  181SOPE   O1420633   3.371   0.388   5.519  0.3005 -0.7576 -0.4170
  181SOPE   O1220634   3.482   0.616   5.524 -0.2672 -0.4321  0.8147
  181SOPE   O1120635   3.390   0.519   5.731  0.4070  0.5179 -0.7590
  181SOPE    C120636   3.384   0.641   5.800  0.0084  0.2946 -0.3937
  181SOPE    HA20637   3.279   0.675   5.784 -0.3017 -0.6508 -0.3864
  181SOPE    HB20638   3.464   0.716   5.781  2.0795 -1.1983  1.9255
  181SOPE    C220639   3.397   0.619   5.950  0.0235 -0.5149 -0.1672
  181SOPE    HS20640   3.488   0.557   5.963  0.2285  0.0872  1.4557
  181SOPE   O2120641   3.278   0.559   5.993  0.5636  0.1016 -0.0900
  181SOPE   C2120642   3.285   0.461   6.076 -0.2231 -0.1310 -0.5768
  181SOPE   O2220643   3.386   0.427   6.134 -0.7666  0.2487 -0.1068
  181SOPE   C2220644   3.147   0.396   6.089  0.6530  0.1163 -0.2644
  181SOPE   H2R20645   3.147   0.301   6.031 -0.6248 -0.8395  1.2253
  181SOPE   H2S20646   3.065   0.467   6.063 -1.0446 -0.5758  2.6745
  181SOPE    C320647   3.415   0.747   6.049  0.7535  0.1506  0.5532
  181SOPE    HX20648   3.330   0.817   6.034  1.8301  1.4233  0.2856
  181SOPE    HY20649   3.505   0.798   6.009 -0.2052  1.9076  0.5522
  181SOPE   O3120650   3.437   0.718   6.192 -0.3346 -1.0465  0.7154
  181SOPE   C3120651   3.550   0.649   6.214  0.0138 -0.0376  0.0497
  181SOPE   O3220652   3.650   0.644   6.143 -0.1889  0.1588  0.1824
  181SOPE   C3220653   3.548   0.602   6.360  0.3878  0.3790 -0.1909
  181SOPE   H2X20654   3.466   0.529   6.376  1.8499 -1.7715 -1.9316
  181SOPE   H2Y20655   3.521   0.685   6.428 -0.0577  0.1450 -0.0795
  181SOPE   C2320656   3.101   0.349   6.231 -0.4174 -0.3161  0.4700
  181SOPE   H3R20657   3.099   0.439   6.296 -0.5238  1.0359 -1.3284
  181SOPE   H3S20658   3.178   0.275   6.262  0.9671  0.4864 -0.8983
  181SOPE   C2420659   2.964   0.283   6.233  0.5439 -0.1008 -0.4265
  181SOPE   H4R20660   2.875   0.348   6.221 -0.9809 -1.7075  1.5817
  181SOPE   H4S20661   2.969   0.211   6.148  2.2118 -0.4015 -0.1063
  181SOPE   C2520662   2.946   0.206   6.364 -0.5550 -0.1350 -0.0422
  181SOPE   H5R20663   2.891   0.110   6.362  1.7514 -1.5299  0.4494
  181SOPE   H5S20664   3.047   0.175   6.398  0.6408  3.2979 -0.0391
  181SOPE   C2620665   2.886   0.301   6.474 -0.4644 -0.2075 -0.2088
  181SOPE   H6R20666   2.947   0.393   6.484  2.2184 -2.0095  1.3382
  181SOPE   H6S20667   2.781   0.328   6.452  0.0643  2.7035  0.5224
  181SOPE   C2720668   2.874   0.229   6.613 -0.0782 -0.1257 -0.0585
  181SOPE   H7R20669   2.787   0.160   6.606 -0.1703  0.0184 -0.3266
  181SOPE   H7S20670   2.963   0.166   6.634 -2.3761 -3.4614  0.4815
  181SOPE   C2820671   2.855   0.334   6.722  0.0496 -0.3427  0.0542
  181SOPE   H8R20672   2.909   0.300   6.813  0.0924  0.0887  0.1962
  181SOPE   H8S20673   2.918   0.418   6.686 -0.3893 -0.5272 -1.1969
  181SOPE   C2920674   2.713   0.371   6.765 -0.3737  0.0715 -0.7784
  181SOPE   H9120675   2.654   0.432   6.694 -2.0268 -2.1790 -1.4502
  181SOPE  C21020676   2.658   0.343   6.887  0.1316  0.1348  0.5802
  181SOPE  H10120677   2.552   0.370   6.900  0.2845 -0.2544  2.9878
  181SOPE  C21120678   2.716   0.267   6.996  0.6280 -0.7198 -0.1230
  181SOPE  H11R20679   2.708   0.326   7.090  1.8249  0.8758 -0.9771
  181SOPE  H11S20680   2.824   0.250   6.976  0.5365  0.7845 -2.1887
  181SOPE  C21220681   2.660   0.125   7.014  0.1316  0.8325  0.2947
  181SOPE  H12R20682   2.699   0.067   6.928  0.5473  1.9192 -0.2659
  181SOPE  H12S20683   2.550   0.113   7.023  0.1088  0.0238 -0.8490
  181SOPE  C21320684   2.717   0.054   7.134  0.4387  0.2150 -0.6002
  181SOPE  H13R20685   2.681   0.093   7.232  0.5367 -1.4170  0.1287
  181SOPE  H13S20686   2.827   0.068   7.149  0.3062  1.1367 -0.4225
  181SOPE  C21420687   2.696  -0.104   7.125  0.4945 -0.2832  0.4925
  181SOPE  H14R20688   2.714  -0.134   7.019 -0.8794 -2.2970  0.7639
  181SOPE  H14S20689   2.585  -0.115   7.133  0.1102  2.2606 -0.4098
  181SOPE  C21520690   2.780  -0.185   7.217 -0.8140 -0.6583  0.5502
  181SOPE  H15R20691   2.731  -0.184   7.317 -0.8817 -0.9833  0.5205
  181SOPE  H15S20692   2.889  -0.164   7.223 -0.2588 -3.2199  0.7787
  181SOPE  C21620693   2.771  -0.331   7.181 -0.0473  0.2229 -0.2570
  181SOPE  H16R20694   2.668  -0.366   7.161  0.5418 -2.3621  0.8295
  181SOPE  H16S20695   2.814  -0.376   7.273  1.8099  2.8502  0.2846
  181SOPE  C21720696   2.866  -0.367   7.067 -0.4729  1.1689  0.5485
  181SOPE  H17R20697   2.973  -0.360   7.094 -0.1950  1.8544 -0.6696
  181SOPE  H17S20698   2.842  -0.301   6.981 -1.7962  1.0449  0.8013
  181SOPE  C21820699   2.857  -0.515   7.019 -0.1074  0.2784 -0.0700
  181SOPE  H18R20700   2.767  -0.523   6.955  0.1021 -2.5156 -0.1197
  181SOPE  H18S20701   2.844  -0.581   7.108  0.2502 -2.3093 -1.8487
  181SOPE  H18T20702   2.951  -0.546   6.970  1.2843  2.1490  1.2382
  181SOPE   C3320703   3.671   0.526   6.419  0.0733  0.3057  0.3927
  181SOPE   H3X20704   3.710   0.451   6.347 -0.2689 -0.0071  0.5298
  181SOPE   H3Y20705   3.631   0.460   6.499 -3.5962  0.2110 -1.2990
  181SOPE   C3420706   3.773   0.619   6.483  0.1331  0.6256  1.1777
  181SOPE   H4X20707   3.791   0.697   6.407 -0.9275 -0.9536 -0.8056
  181SOPE   H4Y20708   3.862   0.559   6.510  0.2164  0.4800  0.5896
  181SOPE   C3520709   3.725   0.682   6.615 -0.1056  1.1621 -0.1519
  181SOPE   H5X20710   3.693   0.601   6.684  0.4909  1.0440 -0.0053
  181SOPE   H5Y20711   3.645   0.758   6.603 -0.0768  1.0137 -1.4397
  181SOPE   C3620712   3.828   0.768   6.688 -0.3028  0.2347 -0.0994
  181SOPE   H6X20713   3.874   0.838   6.615  2.2793 -1.3424 -0.0912
  181SOPE   H6Y20714   3.906   0.704   6.733 -1.0708 -0.7028 -0.0686
  181SOPE   C3720715   3.778   0.866   6.795 -0.6589 -0.5941 -0.1108
  181SOPE   H7X20716   3.699   0.933   6.757 -0.3841 -0.8337 -1.1468
  181SOPE   H7Y20717   3.863   0.929   6.827  1.5564 -3.2440 -0.3868
  181SOPE   C3820718   3.719   0.809   6.924  0.2074  0.1671  0.0872
  181SOPE   H8X20719   3.791   0.735   6.966  0.6677  0.9401  0.7062
  181SOPE   H8Y20720   3.622   0.761   6.900 -0.4049  1.4687 -0.1446
  181SOPE   C3920721   3.693   0.914   7.026  0.3758 -0.6620  0.4120
  181SOPE   H9X20722   3.624   0.989   6.981  2.0018  1.1418  0.7755
  181SOPE   H9Y20723   3.782   0.970   7.061  0.3386  0.3381 -0.9938
  181SOPE  C31020724   3.621   0.848   7.147  0.0741  0.4339  0.3836
  181SOPE  H10X20725   3.685   0.770   7.193 -2.1689 -1.3144  0.6975
  181SOPE  H10Y20726   3.532   0.795   7.106  0.4755 -0.1054  0.1926
  181SOPE  C31120727   3.577   0.955   7.245 -0.7430  0.3932 -0.0144
  181SOPE  H11X20728   3.511   1.036   7.205  0.2036  1.2358  0.0865
  181SOPE  H11Y20729   3.669   1.011   7.272  0.6147 -1.7515 -0.0316
  181SOPE  C31220730   3.518   0.888   7.369  0.1728 -0.8692 -0.0736
  181SOPE  H12X20731   3.585   0.803   7.397  2.7916  0.7458 -1.0149
  181SOPE  H12Y20732   3.420   0.842   7.343 -0.7225  1.6056 -1.3935
  181SOPE  C31320733   3.512   0.965   7.502 -0.0196 -0.5319 -1.0922
  181SOPE  H13X20734   3.445   1.051   7.484  1.0896  0.4887 -0.5540
  181SOPE  H13Y20735   3.613   1.000   7.533 -0.6866  0.7754 -0.3000
  181SOPE  C31420736   3.457   0.895   7.627  0.4967  0.2651  0.2981
  181SOPE  H14X20737   3.492   0.790   7.632 -0.0717  0.0724  0.1891
  181SOPE  H14Y20738   3.347   0.889   7.612  0.6700 -1.1614 -0.5672
  181SOPE  C31520739   3.470   0.961   7.765  0.3836 -0.0860 -0.7495
  181SOPE  H15X20740   3.576   0.970   7.797 -0.1346 -0.0082  1.0412
  181SOPE  H15Y20741   3.423   0.890   7.837 -1.3286  1.4607 -0.2658
  181SOPE  C31620742   3.389   1.091   7.764  0.3676  0.2727 -0.2110
  181SOPE  H16X20743   3.287   1.080   7.722  0.5124  0.8447 -0.7371
  181SOPE  H16Y20744   3.433   1.156   7.685  0.5350 -2.2469 -2.3336
  181SOPE  C31720745   3.392   1.163   7.900  1.1862  0.5420  0.4662
  181SOPE  H17X20746   3.498   1.167   7.934  1.7250  2.2481 -1.2361
  181SOPE  H17Y20747   3.338   1.098   7.972 -0.4710  0.5255 -0.7251
  181SOPE  C31820748   3.327   1.301   7.889 -0.0388  0.5379 -0.7520
  181SOPE  H18X20749   3.310   1.332   7.994  0.1819  0.1823 -0.6091
  181SOPE  H18Y20750   3.234   1.311   7.829 -1.1093  1.8650  1.0225
  181SOPE  H18Z20751   3.401   1.368   7.841  1.1295 -0.6692 -0.7000
  182SOPE     N20752   5.123   0.673   5.558 -0.3410  0.5586  0.0038
  182SOPE   HN120753   5.136   0.586   5.502  0.9986  0.2689  0.7305
  182SOPE   HN220754   5.038   0.719   5.519 -0.4472  0.7490  0.4550
  182SOPE   HN320755   5.210   0.725   5.537  1.9306 -3.0328 -0.2881
  182SOPE   C1220756   5.102   0.641   5.706 -0.7251  0.2749 -0.2507
  182SOPE  H12A20757   5.102   0.737   5.762  1.7212 -0.7941  1.7529
  182SOPE  H12B20758   5.190   0.583   5.740 -0.9414 -0.6787 -1.2580
  182SOPE   C1120759   4.983   0.554   5.732  1.0395  0.2333 -0.0960
  182SOPE  H11A20760   4.897   0.618   5.702 -0.0200 -0.3838  1.5217
  182SOPE  H11B20761   4.976   0.532   5.840  2.9557 -1.4744 -0.2689
  182SOPE     P20762   5.006   0.293   5.716 -0.5108 -0.0748  0.1896
  182SOPE   O1320763   5.108   0.220   5.634  0.2214 -0.3594  0.6435
  182SOPE   O1420764   4.872   0.231   5.729  0.3151 -0.0447  0.3051
  182SOPE   O1220765   4.986   0.433   5.650 -0.5184  0.0751 -0.7547
  182SOPE   O1120766   5.065   0.328   5.855 -0.0773  0.1166  1.0657
  182SOPE    C120767   5.189   0.275   5.905 -0.2344 -0.0081  0.3632
  182SOPE    HA20768   5.251   0.345   5.965  0.6996 -1.0374  0.6382
  182SOPE    HB20769   5.257   0.252   5.820 -1.3753  0.9738 -0.8657
  182SOPE    C220770   5.171   0.156   5.995  0.2156  0.3687  0.1523
  182SOPE    HS20771   5.154   0.075   5.921 -0.1321  1.5602 -1.1351
  182SOPE   O2120772   5.056   0.171   6.086  0.2207 -0.0094 -0.5666
  182SOPE   C2120773   5.021   0.060   6.145  0.1241  0.6052 -0.9806
  182SOPE   O2220774   5.052  -0.056   6.111 -0.6575 -0.3372  0.1653
  182SOPE   C2220775   4.946   0.094   6.276  1.1525  0.0599  0.0416
  182SOPE   H2R20776   4.840   0.061   6.264  1.1359  0.2097 -0.2186
  182SOPE   H2S20777   4.948   0.202   6.299 -0.5498  0.7178 -2.4576
  182SOPE    C320778   5.300   0.132   6.091 -0.5712  0.1595  0.1603
  182SOPE    HX20779   5.384   0.093   6.030 -1.4863  0.7374 -1.5242
  182SOPE    HY20780   5.274   0.052   6.164  1.7053 -1.3191 -0.5260
  182SOPE   O3120781   5.333   0.263   6.150 -0.3909  0.0266  0.1647
  182SOPE   C3120782   5.318   0.264   6.281 -0.4066  1.4492  1.0153
  182SOPE   O3220783   5.285   0.169   6.354 -0.0310 -0.1333 -0.3807
  182SOPE   C3220784   5.346   0.415   6.319  0.2297  0.3253 -0.4717
  182SOPE   H2X20785   5.391   0.463   6.229 -0.4228 -0.8420 -1.4538
  182SOPE   H2Y20786   5.422   0.421   6.400 -1.4670  0.8158  1.1720
  182SOPE   C2320787   4.990   0.013   6.401  1.2746  0.2244 -0.3324
  182SOPE   H3R20788   5.090   0.043   6.439  1.7026 -2.8062  1.2184
  182SOPE   H3S20789   5.005  -0.090   6.364  1.2582  0.2722 -0.4739
  182SOPE   C2420790   4.889   0.015   6.521 -0.3196 -0.1018  0.4828
  182SOPE   H4R20791   4.873   0.115   6.566  0.6548  0.2049  0.1772
  182SOPE   H4S20792   4.795  -0.021   6.475 -0.3022  0.4167  0.0382
  182SOPE   C2520793   4.929  -0.087   6.630  0.3564  0.2487  0.0791
  182SOPE   H5R20794   4.844  -0.110   6.699  0.6500 -3.7170 -0.6401
  182SOPE   H5S20795   4.941  -0.185   6.579 -2.0607 -0.4678  0.7263
  182SOPE   C2620796   5.056  -0.063   6.709 -0.4446 -0.9706 -0.3018
  182SOPE   H6R20797   5.144  -0.054   6.641 -0.9275  1.7065 -0.6699
  182SOPE   H6S20798   5.039   0.029   6.767 -0.2155 -1.7143  0.9722
  182SOPE   C2720799   5.085  -0.178   6.799 -0.5765  0.7257 -0.7183
  182SOPE   H7R20800   5.000  -0.239   6.838 -0.1063 -1.5161 -2.8754
  182SOPE   H7S20801   5.131  -0.250   6.727 -1.6909 -0.2678 -0.4817
  182SOPE   C2820802   5.194  -0.159   6.900 -0.5354  0.0644 -0.2786
  182SOPE   H8R20803   5.292  -0.126   6.860 -0.1568  0.3531  0.8414
  182SOPE   H8S20804   5.161  -0.074   6.963  2.7556  1.6592 -0.4926
  182SOPE   C2920805   5.231  -0.270   6.997  0.1039  0.2915 -0.4180
  182SOPE   H9120806   5.246  -0.363   6.940  0.2097  0.7142 -1.0934
  182SOPE  C21020807   5.241  -0.270   7.131  0.1021  0.2667 -0.9284
  182SOPE  H10120808   5.279  -0.365   7.172 -3.1101 -1.1968 -1.0005
  182SOPE  C21120809   5.198  -0.164   7.226  0.2117  0.0823  0.2423
  182SOPE  H11R20810   5.151  -0.085   7.164 -0.7684 -1.2962 -0.8247
  182SOPE  H11S20811   5.293  -0.118   7.263 -0.7812  2.5533 -0.0792
  182SOPE  C21220812   5.107  -0.200   7.343 -0.5217  0.8457  0.0960
  182SOPE  H12R20813   5.177  -0.258   7.406 -0.7868  0.4874  0.0633
  182SOPE  H12S20814   5.025  -0.266   7.308 -1.0675  1.5783 -0.0245
  182SOPE  C21320815   5.050  -0.090   7.426 -0.2078  0.2977  0.0728
  182SOPE  H13R20816   5.006  -0.015   7.357 -1.4121 -0.9574 -0.5891
  182SOPE  H13S20817   5.132  -0.041   7.483 -0.6715 -0.1971  1.2034
  182SOPE  C21420818   4.942  -0.127   7.534 -0.1368 -0.3913 -0.2690
  182SOPE  H14R20819   5.002  -0.174   7.614  0.6257  1.0347  0.0212
  182SOPE  H14S20820   4.871  -0.198   7.486  0.0637 -0.0663 -1.0666
  182SOPE  C21520821   4.862  -0.006   7.572  0.2726 -0.3240 -0.2462
  182SOPE  H15R20822   4.796   0.037   7.494 -0.9059  0.5352  1.1679
  182SOPE  H15S20823   4.931   0.074   7.607  2.4283 -2.1633 -0.0302
  182SOPE  C21620824   4.774  -0.053   7.688  0.1421 -0.3437  0.6374
  182SOPE  H16R20825   4.829  -0.084   7.779  1.3955  2.8808  1.1142
  182SOPE  H16S20826   4.707  -0.136   7.655  1.4602 -1.0635 -0.3136
  182SOPE  C21720827   4.675   0.058   7.730 -0.3012  1.3948 -0.3636
  182SOPE  H17R20828   4.601   0.084   7.651  1.9998 -0.0179 -3.1671
  182SOPE  H17S20829   4.745   0.142   7.751  0.3011  0.7920  0.0516
  182SOPE  C21820830   4.602   0.018   7.853 -0.2992 -0.5761 -0.6912
  182SOPE  H18R20831   4.680  -0.010   7.927 -0.2970 -0.1656 -0.5398
  182SOPE  H18S20832   4.539  -0.070   7.828  0.8029 -0.6071 -3.8527
  182SOPE  H18T20833   4.532   0.099   7.882  0.7175  0.5404 -1.3204
  182SOPE   C3320834   5.229   0.501   6.374  0.4689  0.2246  0.1382
  182SOPE   H3X20835   5.138   0.509   6.310  0.2553 -0.0012  0.4065
  182SOPE   H3Y20836   5.257   0.604   6.404  0.4044  0.6451 -1.1745
  182SOPE   C3420837   5.167   0.437   6.499  0.1225  0.8143  0.1376
  182SOPE   H4X20838   5.127   0.334   6.483  3.7180 -0.6988 -0.1132
  182SOPE   H4Y20839   5.085   0.506   6.526  0.0091  0.5041  0.5967
  182SOPE   C3520840   5.267   0.431   6.615  0.5501  0.7257  0.5878
  182SOPE   H5X20841   5.296   0.537   6.635  1.3478  0.5093  0.6183
  182SOPE   H5Y20842   5.348   0.357   6.599 -1.2872 -0.8688 -1.9039
  182SOPE   C3620843   5.196   0.369   6.743  0.1118 -0.9388 -0.3784
  182SOPE   H6X20844   5.180   0.260   6.726  1.2631 -1.3039  0.7479
  182SOPE   H6Y20845   5.100   0.421   6.764  0.3580 -0.4159 -0.5360
  182SOPE   C3720846   5.276   0.372   6.871 -0.3610 -0.5279  0.8908
  182SOPE   H7X20847   5.266   0.474   6.914 -1.0362  0.1008 -0.6732
  182SOPE   H7Y20848   5.384   0.357   6.851 -0.5682 -0.9648  0.0694
  182SOPE   C3820849   5.221   0.275   6.976  0.0813  0.5275 -0.3453
  182SOPE   H8X20850   5.258   0.174   6.949 -0.8510 -0.0196  0.4117
  182SOPE   H8Y20851   5.111   0.281   6.990  0.2744  0.6543  1.2845
  182SOPE   C3920852   5.286   0.307   7.111  0.6531 -0.3811 -0.4031
  182SOPE   H9X20853   5.284   0.417   7.126  0.8785 -0.7342  2.9347
  182SOPE   H9Y20854   5.394   0.280   7.119  0.8419  0.7201  1.2373
  182SOPE  C31020855   5.217   0.233   7.229 -0.2541  0.0424  0.8109
  182SOPE  H10X20856   5.253   0.129   7.216 -1.2038 -0.2473  0.4106
  182SOPE  H10Y20857   5.108   0.232   7.212 -0.0930 -0.5475 -0.3498
  182SOPE  C31120858   5.270   0.296   7.357 -0.4536  0.0838  0.0765
  182SOPE  H11X20859   5.249   0.404   7.344  1.6507  0.3674 -1.4963
  182SOPE  H11Y20860   5.380   0.282   7.364 -0.2760  1.4955  0.4514
  182SOPE  C31220861   5.190   0.241   7.483 -0.1506 -0.4000  0.1141
  182SOPE  H12X20862   5.221   0.136   7.500  0.0799 -0.5635 -1.2225
  182SOPE  H12Y20863   5.081   0.255   7.469 -0.2263 -0.9056  0.1760
  182SOPE  C31320864   5.236   0.325   7.609  0.0622  0.1162  0.1265
  182SOPE  H13X20865   5.162   0.310   7.691  1.1686  0.6125  1.2364
  182SOPE  H13Y20866   5.227   0.434   7.589 -1.4022  0.4242  2.1640
  182SOPE  C31420867   5.371   0.292   7.669 -0.0871  0.1987  0.2568
  182SOPE  H14X20868   5.447   0.330   7.597  0.1847  0.1722  0.5279
  182SOPE  H14Y20869   5.370   0.181   7.670 -3.3698 -0.0085 -3.1164
  182SOPE  C31520870   5.407   0.357   7.805 -0.0530  0.1292  0.5907
  182SOPE  H15X20871   5.344   0.306   7.881  0.7734 -1.7583  0.0698
  182SOPE  H15Y20872   5.375   0.461   7.788  0.8480  0.3657  0.2779
  182SOPE  C31620873   5.551   0.327   7.844  0.2606 -0.0324  0.0974
  182SOPE  H16X20874   5.587   0.406   7.913  0.1017  0.8870 -0.8584
  182SOPE  H16Y20875   5.608   0.335   7.749 -0.5985 -0.6597 -0.4848
  182SOPE  C31720876   5.584   0.181   7.887  0.9408  0.1274 -1.0840
  182SOPE  H17X20877   5.693   0.159   7.883  1.7591  3.2662  0.3770
  182SOPE  H17Y20878   5.527   0.112   7.821  1.4313  0.1211 -1.5071
  182SOPE  C31820879   5.544   0.174   8.037 -0.4749 -0.8712  0.1021
  182SOPE  H18X20880   5.627   0.207   8.103  0.1738 -0.9365 -0.6790
  182SOPE  H18Y20881   5.511   0.070   8.061 -1.0657 -0.8138 -0.4274
  182SOPE  H18Z20882   5.456   0.239   8.058  0.5582  0.2543  1.0747
  183SOPE     N20883   6.943   6.039   5.833 -0.2101  0.0506  0.8842
  183SOPE   HN120884   7.011   6.115   5.814 -1.5190  1.5975  2.0409
  183SOPE   HN220885   6.986   5.950   5.803  1.3471  1.4549 -1.3748
  183SOPE   HN320886   6.869   6.052   5.761  0.2537  0.5503  0.4919
  183SOPE   C1220887   6.891   6.026   5.973 -0.5914  0.6251 -0.1218
  183SOPE  H12A20888   6.854   6.127   6.000  1.2259  1.8960 -2.0564
  183SOPE  H12B20889   6.971   5.992   6.042 -0.8167 -1.1299 -0.6698
  183SOPE   C1120890   6.774   5.919   5.982 -0.4150  0.2548  0.9272
  183SOPE  H11A20891   6.680   5.960   5.940  0.6112  3.1842  1.2372
  183SOPE  H11B20892   6.761   5.880   6.085  0.6017 -1.1976  0.5390
  183SOPE     P20893   6.701   5.690   5.880  0.5206  0.1020 -0.6116
  183SOPE   O1320894   6.760   5.577   5.805  0.5705 -0.7754 -0.4341
  183SOPE   O1420895   6.579   5.732   5.811 -0.6639  0.4872  0.5745
  183SOPE   O1220896   6.809   5.801   5.903 -0.2290  0.0783 -0.0920
  183SOPE   O1120897   6.658   5.637   6.019  0.4438 -0.1116  0.0665
  183SOPE    C120898   6.761   5.562   6.091 -0.8222 -0.7132  0.2181
  183SOPE    HA20899   6.852   5.624   6.098 -2.0470  1.2391 -0.3717
  183SOPE    HB20900   6.780   5.464   6.042 -3.0451 -1.3815  0.5732
  183SOPE    C220901   6.730   5.528   6.239 -0.3506 -0.0853  0.7199
  183SOPE    HS20902   6.829   5.510   6.285  0.1958  0.5894 -0.1433
  183SOPE   O2120903   6.634   5.421   6.244 -0.5735  0.2330  0.4286
  183SOPE   C2120904   6.684   5.298   6.242 -0.0011 -0.5020  0.3989
  183SOPE   O2220905   6.802   5.271   6.230  0.2297 -0.3800  0.4156
  183SOPE   C2220906   6.575   5.198   6.260  0.0742  0.0604 -0.4455
  183SOPE   H2R20907   6.565   5.150   6.160  1.9204 -1.2111 -0.0673
  183SOPE   H2S20908   6.478   5.250   6.275 -0.4180 -1.3198  1.5573
  183SOPE    C320909   6.666   5.654   6.298  0.0518 -0.9974 -0.2244
  183SOPE    HX20910   6.572   5.673   6.243 -0.0226 -1.2593 -0.1900
  183SOPE    HY20911   6.728   5.743   6.273 -1.9203  0.2506 -0.8996
  183SOPE   O3120912   6.618   5.643   6.435 -0.3485 -0.2489  0.0224
  183SOPE   C3120913   6.722   5.649   6.520  0.2340 -0.8422 -0.1130
  183SOPE   O3220914   6.836   5.662   6.490  0.0831 -0.2234  0.4878
  183SOPE   C3220915   6.666   5.651   6.662  0.2097 -0.0840 -0.6946
  183SOPE   H2X20916   6.556   5.655   6.655  0.2121 -0.0150 -0.6913
  183SOPE   H2Y20917   6.713   5.740   6.709  1.5850 -0.5835 -1.0564
  183SOPE   C2320918   6.603   5.080   6.362  0.2017  0.3854  0.2187
  183SOPE   H3R20919   6.709   5.051   6.374 -0.3950 -1.5639  1.1932
  183SOPE   H3S20920   6.557   4.986   6.325  1.9949 -2.1364  3.8598
  183SOPE   C2420921   6.550   5.108   6.501 -0.1410 -0.1310 -0.0292
  183SOPE   H4R20922   6.589   5.211   6.519 -0.9233  0.6716 -2.4391
  183SOPE   H4S20923   6.439   5.107   6.508 -0.1201  2.3683  2.8295
  183SOPE   C2520924   6.608   5.001   6.597 -0.1113 -0.6307  0.7473
  183SOPE   H5R20925   6.604   4.900   6.552 -0.2180 -0.9766  1.5216
  183SOPE   H5S20926   6.717   5.021   6.597  0.2500 -2.4461 -0.0602
  183SOPE   C2620927   6.546   5.003   6.734 -0.3966 -0.2257  0.7157
  183SOPE   H6R20928   6.512   5.108   6.744 -1.3836 -0.5085  0.4581
  183SOPE   H6S20929   6.464   4.928   6.739  1.0663 -1.9453  0.1680
  183SOPE   C2720930   6.640   4.973   6.844  0.2501  0.3031  0.2250
  183SOPE   H7R20931   6.678   4.870   6.829 -0.1271 -0.0486  1.5490
  183SOPE   H7S20932   6.727   5.041   6.831 -0.3603  0.8320 -1.3071
  183SOPE   C2820933   6.593   4.990   6.990 -0.1056  0.1655  1.1341
  183SOPE   H8R20934   6.600   5.098   7.017  0.9022  0.9565 -1.8441
  183SOPE   H8S20935   6.484   4.969   6.988 -0.5449  2.1489 -1.4054
  183SOPE   C2920936   6.657   4.907   7.093  0.3589  0.1383 -0.4926
  183SOPE   H9120937   6.633   4.801   7.078  0.0471  0.3028 -1.1855
  183SOPE  C21020938   6.725   4.953   7.203  0.5828 -0.1317  0.4605
  183SOPE  H10120939   6.756   4.880   7.279 -1.3255 -0.5095  0.9321
  183SOPE  C21120940   6.734   5.102   7.241  0.0988 -0.3402 -0.8892
  183SOPE  H11R20941   6.679   5.165   7.168 -1.3320 -1.2534 -0.6374
  183SOPE  H11S20942   6.840   5.128   7.258 -0.4151 -0.1039  2.6921
  183SOPE  C21220943   6.648   5.106   7.366 -0.1638 -0.1417  0.6950
  183SOPE  H12R20944   6.550   5.059   7.345  0.3702 -1.1544  0.4007
  183SOPE  H12S20945   6.618   5.211   7.387  0.2804  0.1445 -0.0351
  183SOPE  C21320946   6.713   5.050   7.494  0.5945  0.4238 -0.2181
  183SOPE  H13R20947   6.782   5.129   7.531 -0.5016  0.9949  0.6897
  183SOPE  H13S20948   6.775   4.962   7.465 -0.9352 -0.9587  0.5880
  183SOPE  C21420949   6.614   4.997   7.596  0.8127  0.4490  0.3628
  183SOPE  H14R20950   6.669   4.952   7.681  0.7228  0.5909  0.4974
  183SOPE  H14S20951   6.547   4.923   7.548 -0.4950  1.4362  0.6213
  183SOPE  C21520952   6.519   5.101   7.656  1.2263  0.2292 -0.9967
  183SOPE  H15R20953   6.433   5.047   7.701 -0.0838  0.2989 -3.2225
  183SOPE  H15S20954   6.490   5.161   7.567 -1.8105 -0.7116 -0.7411
  183SOPE  C21620955   6.590   5.199   7.750  0.0081  0.7386 -0.0523
  183SOPE  H16R20956   6.662   5.254   7.685 -0.3402  0.5776 -0.5786
  183SOPE  H16S20957   6.641   5.153   7.838 -0.2362  1.6182  0.5655
  183SOPE  C21720958   6.494   5.308   7.807 -0.1316  0.1104 -0.5393
  183SOPE  H17R20959   6.414   5.278   7.877 -0.7476  0.7239 -0.9627
  183SOPE  H17S20960   6.438   5.349   7.720  0.4361 -4.3388 -3.3506
  183SOPE  C21820961   6.574   5.412   7.884  0.7568 -0.0132 -0.0912
  183SOPE  H18R20962   6.623   5.478   7.809 -4.1304  3.3283 -0.7971
  183SOPE  H18S20963   6.646   5.367   7.955 -1.0273  0.1116  1.8910
  183SOPE  H18T20964   6.507   5.482   7.939  0.7421 -1.9185  2.4697
  183SOPE   C3320965   6.705   5.522   6.737 -0.3072  0.1422 -0.0290
  183SOPE   H3X20966   6.813   5.499   6.750 -0.7613 -1.7008  0.7672
  183SOPE   H3Y20967   6.665   5.443   6.670 -0.6220  0.9961 -0.8678
  183SOPE   C3420968   6.647   5.527   6.884  0.4007 -0.3041 -0.0795
  183SOPE   H4X20969   6.537   5.531   6.879  0.2781 -0.3436  1.8622
  183SOPE   H4Y20970   6.667   5.631   6.916  1.0715 -0.1324 -1.0064
  183SOPE   C3520971   6.710   5.421   6.969  0.3744  0.0907 -0.3841
  183SOPE   H5X20972   6.821   5.426   6.970  0.3508  1.2307 -1.2857
  183SOPE   H5Y20973   6.674   5.322   6.935 -3.2563  1.2047 -0.2751
  183SOPE   C3620974   6.675   5.459   7.118  0.7021  0.1066  0.2839
  183SOPE   H6X20975   6.703   5.566   7.131 -1.8123  0.8737 -0.1520
  183SOPE   H6Y20976   6.745   5.402   7.183  0.0258 -1.1460 -0.0531
  183SOPE   C3720977   6.530   5.429   7.157 -0.4179 -0.4548  0.1788
  183SOPE   H7X20978   6.519   5.319   7.167  0.1484 -0.4541  0.8462
  183SOPE   H7Y20979   6.463   5.474   7.079  0.8715  2.6029  0.6951
  183SOPE   C3820980   6.487   5.501   7.291 -0.2645  0.6363  0.3965
  183SOPE   H8X20981   6.458   5.605   7.263 -2.8292  0.3351  1.5942
  183SOPE   H8Y20982   6.577   5.507   7.357 -0.2121  0.0511  0.3836
  183SOPE   C3920983   6.363   5.424   7.358  0.2964  0.3103 -0.5106
  183SOPE   H9X20984   6.412   5.336   7.406 -1.4004  1.1049  3.0772
  183SOPE   H9Y20985   6.275   5.397   7.297 -1.1946  1.1175  1.1871
  183SOPE  C31020986   6.299   5.508   7.472 -0.9378  0.8497 -0.0484
  183SOPE  H10X20987   6.295   5.607   7.423  2.3508  0.9394 -0.3469
  183SOPE  H10Y20988   6.371   5.508   7.557 -0.5353  0.1573 -0.3756
  183SOPE  C31120989   6.155   5.455   7.512 -0.2798 -0.3631  0.1350
  183SOPE  H11X20990   6.106   5.410   7.423  0.0353 -0.9468  0.2469
  183SOPE  H11Y20991   6.092   5.542   7.540 -0.2499 -0.8318  1.7281
  183SOPE  C31220992   6.163   5.350   7.627 -0.6942 -0.1396  0.4050
  183SOPE  H12X20993   6.197   5.405   7.718  0.4053 -0.9491  0.5011
  183SOPE  H12Y20994   6.234   5.268   7.604  1.6198  1.9666 -0.4480
  183SOPE  C31320995   6.026   5.299   7.658 -0.3906 -0.6671 -0.4893
  183SOPE  H13X20996   5.981   5.234   7.580 -0.3840 -3.1666  1.4458
  183SOPE  H13Y20997   5.963   5.389   7.673 -0.0307 -0.8523  2.7624
  183SOPE  C31420998   6.008   5.218   7.789 -0.7793  0.1700  0.5306
  183SOPE  H14X20999   6.066   5.269   7.869  0.7934  2.6150 -1.9799
  183SOPE  H14Y21000   6.056   5.118   7.780 -0.4021  0.4405 -0.5809
  183SOPE  C31521001   5.867   5.207   7.850  0.0298  0.8663 -0.7082
  183SOPE  H15X21002   5.882   5.155   7.947 -0.1174 -0.3629 -1.3266
  183SOPE  H15Y21003   5.801   5.151   7.779  1.4909 -0.3273 -1.1765
  183SOPE  C31621004   5.809   5.348   7.873  0.6025 -0.2899 -0.6476
  183SOPE  H16X21005   5.828   5.429   7.799  0.3410 -0.9830 -1.4907
  183SOPE  H16Y21006   5.850   5.383   7.970  1.5534 -3.4374  0.2096
  183SOPE  C31721007   5.656   5.347   7.895 -0.5635  0.6637 -0.1093
  183SOPE  H17X21008   5.624   5.251   7.942 -0.5229 -1.2208 -3.5840
  183SOPE  H17Y21009   5.615   5.351   7.792 -1.5720  1.8195  0.3051
  183SOPE  C31821010   5.604   5.473   7.973  0.5886  0.2880  0.5516
  183SOPE  H18X21011   5.640   5.571   7.934 -1.6602  0.1329 -2.2273
  183SOPE  H18Y21012   5.646   5.469   8.076 -0.1045 -2.1963  0.8115
  183SOPE  H18Z21013   5.493   5.479   7.980  0.4824 -1.2956  0.5490
  184SOPE     N21014   5.052   6.929   5.644  0.1266 -0.2090  0.4720
  184SOPE   HN121015   5.140   6.947   5.593  1.4083  0.4408  2.7806
  184SOPE   HN221016   5.065   6.830   5.674  1.5688 -0.4370 -0.7777
  184SOPE   HN321017   4.971   6.924   5.578  0.6971 -3.0510 -0.1383
  184SOPE   C1221018   5.038   7.036   5.740  1.0012  0.3633 -0.1661
  184SOPE  H12A21019   5.042   7.134   5.688 -0.1549  0.1256 -0.7608
  184SOPE  H12B21020   5.126   7.029   5.807  1.4325  1.0067 -0.6573
  184SOPE   C1121021   4.906   7.028   5.815  0.3090  0.3565  0.0041
  184SOPE  H11A21022   4.892   7.106   5.894  2.0311  1.1190 -0.4126
  184SOPE  H11B21023   4.926   6.939   5.878 -0.2484 -0.5910 -1.1218
  184SOPE     P21024   4.655   6.977   5.771  0.2818  0.3414  0.0242
  184SOPE   O1321025   4.646   6.845   5.714  0.1269  0.2669  0.1538
  184SOPE   O1421026   4.551   7.074   5.730 -0.1965  0.6267  0.2298
  184SOPE   O1221027   4.794   7.023   5.728  0.9008 -0.1763  0.9892
  184SOPE   O1121028   4.656   6.962   5.927 -0.2081  0.1247 -0.3145
  184SOPE    C121029   4.640   7.082   6.015  0.4738 -0.3241 -0.2567
  184SOPE    HA21030   4.687   7.171   5.967 -0.4991 -0.6614 -1.9028
  184SOPE    HB21031   4.702   7.054   6.104  0.0683 -0.2389  0.0549
  184SOPE    C221032   4.496   7.114   6.064  0.8904  0.3506  0.4285
  184SOPE    HS21033   4.443   7.110   5.967  3.2217  0.6822 -0.9214
  184SOPE   O2121034   4.498   7.251   6.117 -0.4403  0.5298  0.1247
  184SOPE   C2121035   4.387   7.307   6.144  0.1182 -1.2518 -0.0104
  184SOPE   O2221036   4.276   7.263   6.123 -0.1950 -0.2293 -0.8037
  184SOPE   C2221037   4.424   7.437   6.221  0.7434 -0.5694  0.1178
  184SOPE   H2R21038   4.321   7.475   6.242  0.9810  1.1995 -1.5948
  184SOPE   H2S21039   4.475   7.508   6.153 -0.0760 -2.0114 -2.0934
  184SOPE    C321040   4.431   7.006   6.170 -0.2681 -0.4614  0.7288
  184SOPE    HX21041   4.440   6.901   6.135  2.3564  0.4158 -1.6702
  184SOPE    HY21042   4.323   7.025   6.183 -0.3237  0.6787 -1.1086
  184SOPE   O3121043   4.498   7.016   6.296 -0.6530  0.2853 -0.0389
  184SOPE   C3121044   4.503   6.905   6.375  0.9704 -0.1068 -0.6194
  184SOPE   O3221045   4.448   6.799   6.347 -0.2498  0.3391  0.2232
  184SOPE   C3221046   4.576   6.931   6.511  0.4226 -0.2333  0.6132
  184SOPE   H2X21047   4.580   7.037   6.543  2.2938 -0.3334  0.8631
  184SOPE   H2Y21048   4.679   6.894   6.489  0.0627  0.4103 -2.6286
  184SOPE   C2321049   4.495   7.403   6.350  0.5239 -0.6168 -0.3378
  184SOPE   H3R21050   4.528   7.495   6.402  2.1813 -1.6203  0.4752
  184SOPE   H3S21051   4.593   7.353   6.334  2.0839  2.4788 -1.1191
  184SOPE   C2421052   4.409   7.319   6.445 -0.4545 -0.1334 -0.4574
  184SOPE   H4R21053   4.306   7.363   6.448 -0.8141 -0.9922  0.3417
  184SOPE   H4S21054   4.410   7.215   6.407 -2.0302  0.1345 -1.3206
  184SOPE   C2521055   4.467   7.314   6.593  0.5074  0.2325 -0.0754
  184SOPE   H5R21056   4.563   7.260   6.583  0.2260 -0.3410  0.2779
  184SOPE   H5S21057   4.474   7.421   6.622  1.8381  0.0332  0.3971
  184SOPE   C2621058   4.368   7.239   6.681  0.4913 -0.4457  0.3776
  184SOPE   H6R21059   4.277   7.303   6.673  0.2379 -0.8404  0.0036
  184SOPE   H6S21060   4.325   7.145   6.640  0.8358 -0.9774  1.2032
  184SOPE   C2721061   4.407   7.232   6.825 -0.6663  0.7800  0.7886
  184SOPE   H7R21062   4.487   7.155   6.836  1.0665  2.1995 -1.0085
  184SOPE   H7S21063   4.454   7.331   6.842  0.6858 -0.3335  4.2759
  184SOPE   C2821064   4.296   7.201   6.935 -1.1859 -0.2336 -0.3285
  184SOPE   H8R21065   4.256   7.100   6.913 -0.7364 -0.6874  0.8763
  184SOPE   H8S21066   4.350   7.193   7.032 -0.6062  0.6696 -0.5691
  184SOPE   C2921067   4.186   7.302   6.938  0.0982 -0.2833  0.5259
  184SOPE   H9121068   4.116   7.294   6.853 -1.5936 -0.9336  1.9186
  184SOPE  C21021069   4.171   7.403   7.023 -0.8256 -0.0947  0.3031
  184SOPE  H10121070   4.077   7.461   7.021 -2.2715 -2.3204 -1.9049
  184SOPE  C21121071   4.267   7.441   7.136 -0.2457  0.0296  0.0506
  184SOPE  H11R21072   4.307   7.544   7.126 -0.6480  0.1856  0.0362
  184SOPE  H11S21073   4.350   7.367   7.131  0.9173  1.3617 -0.9449
  184SOPE  C21221074   4.191   7.420   7.267 -0.0871  1.0061  0.4875
  184SOPE  H12R21075   4.266   7.438   7.348 -0.5706  1.3484  0.8668
  184SOPE  H12S21076   4.142   7.320   7.270  0.7850  0.5911  2.0448
  184SOPE  C21321077   4.080   7.521   7.287 -0.2239 -0.4019  0.2132
  184SOPE  H13R21078   4.010   7.524   7.200  0.1978  0.3014 -0.1104
  184SOPE  H13S21079   4.133   7.618   7.297  1.4572 -1.1855 -0.6879
  184SOPE  C21421080   3.976   7.485   7.398  0.1473 -0.0768  0.4399
  184SOPE  H14R21081   3.913   7.396   7.375  0.1234  0.1726 -0.5095
  184SOPE  H14S21082   3.908   7.573   7.394  0.4089  0.1262  0.5028
  184SOPE  C21521083   4.025   7.481   7.545 -0.0350  0.0666 -0.2767
  184SOPE  H15R21084   4.096   7.564   7.564 -0.2887  0.7406 -2.0976
  184SOPE  H15S21085   4.089   7.390   7.552  1.2211  0.6797 -2.9004
  184SOPE  C21621086   3.923   7.442   7.660 -0.0646 -0.3109  0.5083
  184SOPE  H16R21087   3.833   7.506   7.653  0.0523 -0.2691 -1.0634
  184SOPE  H16S21088   3.964   7.449   7.763 -0.4099 -5.5035  1.2702
  184SOPE  C21721089   3.872   7.298   7.651 -0.5970 -0.3416 -0.2453
  184SOPE  H17R21090   3.960   7.235   7.675 -1.7484 -2.0801 -0.4280
  184SOPE  H17S21091   3.845   7.270   7.547 -0.9562 -1.7147  0.1983
  184SOPE  C21821092   3.760   7.263   7.750 -0.6449  0.4814 -0.4014
  184SOPE  H18R21093   3.728   7.158   7.733 -0.5697 -0.0742  2.3213
  184SOPE  H18S21094   3.669   7.321   7.721 -0.6991  1.9035  2.2614
  184SOPE  H18T21095   3.792   7.255   7.856  0.7184  1.6106 -0.6936
  184SOPE   C3321096   4.518   6.838   6.621  0.6988 -0.3077  0.0011
  184SOPE   H3X21097   4.537   6.730   6.605 -0.7915 -0.4144 -1.3646
  184SOPE   H3Y21098   4.410   6.860   6.633  1.2299  1.4021  2.3945
  184SOPE   C3421099   4.579   6.868   6.760 -0.4507  0.6342  0.8065
  184SOPE   H4X21100   4.575   6.978   6.775  4.9390  1.0905  0.7731
  184SOPE   H4Y21101   4.687   6.842   6.755 -0.4618  0.8289 -1.8702
  184SOPE   C3521102   4.507   6.786   6.858  0.0939 -0.9485  0.4611
  184SOPE   H5X21103   4.507   6.678   6.834  2.4229 -0.7275 -0.8069
  184SOPE   H5Y21104   4.405   6.828   6.865 -0.2123 -1.3336 -1.2528
  184SOPE   C3621105   4.561   6.798   7.001 -0.8942  0.0993 -0.5246
  184SOPE   H6X21106   4.667   6.766   7.017  0.0504  1.7213 -2.9572
  184SOPE   H6Y21107   4.485   6.742   7.059 -0.6719 -1.0675 -1.3250
  184SOPE   C3721108   4.574   6.943   7.042 -0.0845  0.0194 -0.4995
  184SOPE   H7X21109   4.474   6.992   7.038 -0.4026 -0.3459  1.5549
  184SOPE   H7Y21110   4.640   6.998   6.972 -3.4714  0.1712 -3.8970
  184SOPE   C3821111   4.651   6.963   7.176  0.3970  0.0054 -0.8972
  184SOPE   H8X21112   4.701   7.062   7.184  1.0250 -0.4384  1.2958
  184SOPE   H8Y21113   4.734   6.889   7.171  0.4914  0.0938 -0.6380
  184SOPE   C3921114   4.559   6.941   7.295 -0.2217  0.0086  0.2131
  184SOPE   H9X21115   4.470   7.006   7.283 -0.0130  0.2102 -0.2875
  184SOPE   H9Y21116   4.614   6.985   7.381  0.0922 -0.7898  0.4313
  184SOPE  C31021117   4.524   6.792   7.321  0.5693  0.2925  0.7679
  184SOPE  H10X21118   4.613   6.728   7.310  0.8700  0.0477  3.7795
  184SOPE  H10Y21119   4.441   6.758   7.255  0.5513  0.9751  0.4288
  184SOPE  C31121120   4.480   6.768   7.467  0.6510  0.1800  0.0440
  184SOPE  H11X21121   4.372   6.790   7.480  0.7403 -0.1380  1.4182
  184SOPE  H11Y21122   4.537   6.843   7.527  0.5499 -0.2553  0.6836
  184SOPE  C31221123   4.511   6.631   7.524  0.1734 -0.6931 -0.3354
  184SOPE  H12X21124   4.619   6.606   7.529  0.4254  0.6032  3.0022
  184SOPE  H12Y21125   4.455   6.559   7.460 -1.4215  0.2471 -0.0421
  184SOPE  C31321126   4.472   6.631   7.667  0.6444 -0.5262  0.3433
  184SOPE  H13X21127   4.467   6.522   7.686  0.5189 -0.4811  0.5745
  184SOPE  H13Y21128   4.366   6.665   7.671  1.4428  2.7325 -1.8879
  184SOPE  C31421129   4.573   6.694   7.772 -0.3859  0.2776  0.1224
  184SOPE  H14X21130   4.570   6.804   7.757 -1.4529  0.1090 -1.1196
  184SOPE  H14Y21131   4.675   6.659   7.747  1.0849  2.6731  2.3371
  184SOPE  C31521132   4.528   6.668   7.916  0.4615  0.4501  0.3771
  184SOPE  H15X21133   4.541   6.560   7.935 -1.8916 -0.3601 -1.9179
  184SOPE  H15Y21134   4.418   6.677   7.925  0.1871 -0.6550 -1.2864
  184SOPE  C31621135   4.588   6.762   8.026  0.4633  0.2674 -0.3552
  184SOPE  H16X21136   4.653   6.846   7.994  2.7373 -0.7101  1.3420
  184SOPE  H16Y21137   4.658   6.705   8.091  0.5412  0.9550  0.1771
  184SOPE  C31721138   4.475   6.837   8.104 -0.3235  0.9061 -0.0258
  184SOPE  H17X21139   4.390   6.851   8.035 -0.6122 -0.1549  0.0858
  184SOPE  H17Y21140   4.510   6.939   8.128 -1.2854  1.2751 -0.1602
  184SOPE  C31821141   4.440   6.768   8.232 -0.5544  0.1333  0.4441
  184SOPE  H18X21142   4.338   6.800   8.263 -1.5381 -3.0551  0.7846
  184SOPE  H18Y21143   4.506   6.778   8.321  1.6723  0.7932 -1.1932
  184SOPE  H18Z21144   4.446   6.660   8.207  0.5057  0.4635 -0.8208
  185SAPI   C1221145   5.672   1.858  10.103  0.5977  0.0246 -0.8129
  185SAPI    H221146   5.769   1.856  10.049  2.2160 -0.5872  1.9687
  185SAPI    O221147   5.591   1.759  10.037  0.4091  0.5329  0.1451
  185SAPI   HO221148   5.551   1.798   9.959  0.0307  0.5737  0.3559
  185SAPI   C1321149   5.713   1.814  10.241 -0.5799  0.4242 -0.9011
  185SAPI    H321150   5.788   1.883  10.284 -0.9207 -1.5600  3.3063
  185SAPI    O321151   5.768   1.684  10.233  0.4212  0.6948 -0.6750
  185SAPI   HO321152   5.720   1.633  10.299 -0.4956 -0.1661 -1.9480
  185SAPI   C1421153   5.590   1.805  10.336  0.6309 -0.4952  0.3029
  185SAPI    H421154   5.532   1.717  10.302  0.6568  0.0649 -1.2942
  185SAPI    O421155   5.636   1.792  10.471 -0.1292  0.0536  0.2151
  185SAPI   HO421156   5.676   1.706  10.484 -0.7008 -0.9174 -3.2716
  185SAPI   C1521157   5.489   1.917  10.317  0.6768 -0.9539 -0.0505
  185SAPI    H521158   5.525   2.002  10.378 -1.3189  0.0994 -0.2702
  185SAPI    O521159   5.361   1.882  10.378 -0.1768  0.3290 -0.1774
  185SAPI   HO521160   5.324   1.966  10.407 -1.1458  0.7939 -2.5715
  185SAPI   C1621161   5.474   1.979  10.178  0.3238 -0.2665 -0.0815
  185SAPI    H621162   5.410   1.913  10.115 -1.6356  2.5964 -1.3046
  185SAPI    O621163   5.414   2.106  10.186  0.1423 -0.0512  0.3178
  185SAPI   HO621164   5.386   2.121  10.095  1.4797 -0.9800 -0.2830
  185SAPI   C1121165   5.605   1.993  10.103  0.1841 -0.7185 -0.6411
  185SAPI    H121166   5.658   2.061  10.174  0.2260 -1.0005 -0.3985
  185SAPI     P21167   5.624   2.198   9.934 -0.1025  0.2322  0.1049
  185SAPI   O1321168   5.708   2.248  10.045 -0.2877 -0.5956 -0.0083
  185SAPI   O1421169   5.499   2.263   9.915 -0.2198  0.0967  0.6985
  185SAPI   O1221170   5.589   2.039   9.968  0.4139 -0.1008 -0.1293
  185SAPI   O1121171   5.710   2.197   9.802  0.6574  1.0008  0.0233
  185SAPI    C121172   5.751   2.315   9.737 -0.2883  0.0209  0.6735
  185SAPI    HA21173   5.761   2.402   9.804 -0.1195  2.8279 -2.7300
  185SAPI    HB21174   5.849   2.298   9.689 -1.1159 -1.5562 -0.5993
  185SAPI    C221175   5.660   2.369   9.617  0.4524 -0.3843  0.6924
  185SAPI    HS21176   5.559   2.380   9.663  0.3797 -0.3620  0.5323
  185SAPI   O2121177   5.653   2.270   9.512 -0.0291 -0.0381 -0.2150
  185SAPI   C2121178   5.538   2.270   9.442 -0.2829 -0.6984 -0.1777
  185SAPI   O2221179   5.450   2.353   9.444 -0.3806 -0.1248  0.1257
  185SAPI   C2221180   5.541   2.152   9.344 -0.3884 -0.2280  0.2310
  185SAPI   H2R21181   5.639   2.102   9.333  0.3809  0.9901  1.2706
  185SAPI   H2S21182   5.470   2.079   9.388 -0.7354  0.7513  1.3816
  185SAPI    C321183   5.715   2.501   9.557  0.1006  0.2517 -0.2969
  185SAPI    HX21184   5.730   2.573   9.641 -2.5676  0.0018  0.5140
  185SAPI    HY21185   5.636   2.533   9.485 -1.6045  1.0076  1.7775
  185SAPI   O3121186   5.842   2.469   9.490 -0.4546  0.4069 -0.3882
  185SAPI   C3121187   5.883   2.570   9.427 -0.7151  0.1087 -0.5569
  185SAPI   O3221188   5.836   2.682   9.433 -0.5024 -0.3045 -0.6923
  185SAPI   C3221189   6.010   2.533   9.358 -0.1782 -0.9315 -0.4500
  185SAPI   H2X21190   6.025   2.423   9.362  0.8707 -0.7726  0.5428
  185SAPI   H2Y21191   6.093   2.579   9.416 -1.5290  0.7053  0.2407
  185SAPI   C2321192   5.490   2.198   9.207 -0.1381 -0.2385  0.1826
  185SAPI   H3R21193   5.389   2.240   9.221 -0.5438 -1.1762  0.1671
  185SAPI   H3S21194   5.492   2.109   9.140  1.6394  0.1287 -0.3105
  185SAPI   C2421195   5.580   2.298   9.124  0.1140 -0.1999  0.2397
  185SAPI   H4R21196   5.601   2.386   9.189  0.0685  2.1004 -2.6492
  185SAPI   H4S21197   5.521   2.332   9.036 -0.8812  0.1269  1.0007
  185SAPI   C2521198   5.710   2.232   9.096  0.4678 -0.0514 -0.4287
  185SAPI   H5R21199   5.767   2.215   9.189  2.3845  0.1616 -1.5145
  185SAPI   C2621200   5.764   2.206   8.978  0.3569  0.2582 -0.4318
  185SAPI   H6R21201   5.864   2.160   8.969 -0.1685 -0.4358 -4.9144
  185SAPI   C2721202   5.691   2.217   8.845  0.5021  0.7728 -0.9278
  185SAPI   H7R21203   5.592   2.268   8.848  0.0859 -0.0645  0.1306
  185SAPI   H7S21204   5.673   2.114   8.809  1.5365 -0.7140  2.4608
  185SAPI   C2821205   5.771   2.298   8.752 -0.0941  1.0253  0.5303
  185SAPI   H8R21206   5.858   2.347   8.799 -0.3120  0.8182  1.1670
  185SAPI   C2921207   5.724   2.321   8.626 -0.6354  0.1996  0.2198
  185SAPI   H9R21208   5.783   2.382   8.557  0.4982 -1.0160  0.0855
  185SAPI  C21021209   5.612   2.252   8.564 -0.3163 -0.9943 -0.2840
  185SAPI  H10R21210   5.548   2.338   8.535  1.0732  0.2746  0.2910
  185SAPI  H10S21211   5.539   2.205   8.634 -1.9900  0.9513 -0.6232
  185SAPI  C21121212   5.640   2.166   8.446 -0.9353  0.4666 -0.3855
  185SAPI  H11R21213   5.721   2.092   8.455 -2.4636 -0.9853  3.2383
  185SAPI  C21221214   5.583   2.174   8.327  0.0386  0.6383 -0.0909
  185SAPI  H12R21215   5.617   2.102   8.250  1.8392 -1.3038  2.3598
  185SAPI  C21321216   5.470   2.272   8.287 -0.2276 -0.0949  0.6202
  185SAPI  H13R21217   5.408   2.289   8.377 -1.3117  0.0808 -0.1507
  185SAPI  H13S21218   5.405   2.224   8.210 -1.0796  1.4315  0.3444
  185SAPI  C21421219   5.496   2.411   8.240  0.5057 -0.0121 -0.4916
  185SAPI  H14R21220   5.566   2.460   8.309  0.0682 -0.0470 -0.0194
  185SAPI  C21521221   5.469   2.471   8.129 -0.1784  0.2102  1.4486
  185SAPI  H15R21222   5.494   2.578   8.118  0.0537  0.0541  0.2601
  185SAPI  C21621223   5.404   2.408   8.002 -0.1589  0.5666 -0.1052
  185SAPI  H16R21224   5.294   2.419   8.009 -0.1565  0.6808 -0.2367
  185SAPI  H16S21225   5.426   2.299   7.994 -1.2770  0.3856 -0.9752
  185SAPI  C21721226   5.457   2.469   7.877  0.1629 -0.5888 -0.4009
  185SAPI  H17R21227   5.567   2.459   7.882  0.2748  1.0158  2.5025
  185SAPI  H17S21228   5.440   2.579   7.873  1.8604 -0.2166  1.3368
  185SAPI  C21821229   5.405   2.395   7.755  0.3814 -0.0507 -0.6418
  185SAPI  H18R21230   5.294   2.396   7.753  0.3214 -0.4019  1.1466
  185SAPI  H18S21231   5.429   2.287   7.756 -0.5480 -0.2807  0.9632
  185SAPI  C21921232   5.451   2.468   7.621 -0.6575 -0.5701 -0.2144
  185SAPI  H19R21233   5.551   2.424   7.603 -0.7570 -0.7611 -0.3007
  185SAPI  H19S21234   5.459   2.578   7.633 -1.4791 -0.5959  0.6932
  185SAPI  C22021235   5.363   2.443   7.496  0.1717 -0.5591 -0.2959
  185SAPI  H20R21236   5.262   2.489   7.501  0.5545  0.3734 -0.9225
  185SAPI  H20S21237   5.343   2.334   7.488 -0.7505 -0.7296  2.9211
  185SAPI  H20T21238   5.406   2.476   7.399  0.6260  0.8042  0.3441
  185SAPI   C3321239   6.006   2.574   9.209  0.4834 -0.9939  0.6076
  185SAPI   H3X21240   6.015   2.681   9.181 -1.2686 -0.8551  0.4838
  185SAPI   H3Y21241   5.905   2.541   9.177  0.2813  1.8721 -2.1698
  185SAPI   C3421242   6.112   2.501   9.121 -0.1913 -0.3033  0.5584
  185SAPI   H4X21243   6.147   2.405   9.165  2.1918  0.0367 -0.4158
  185SAPI   H4Y21244   6.204   2.563   9.109  2.0707 -3.5860 -1.0082
  185SAPI   C3521245   6.077   2.478   8.966  0.2883 -0.6958  0.1968
  185SAPI   H5X21246   6.016   2.385   8.963  0.7626 -0.9882 -0.6582
  185SAPI   H5Y21247   6.171   2.464   8.909 -0.6596  1.2629 -1.9881
  185SAPI   C3621248   6.008   2.599   8.898  0.2368  0.1030  0.0701
  185SAPI   H6X21249   6.051   2.691   8.944  0.0709 -0.2956  1.0366
  185SAPI   H6Y21250   5.902   2.590   8.928  0.5362  0.3140  1.2672
  185SAPI   C3721251   6.018   2.594   8.748 -0.5296 -0.2385  0.0571
  185SAPI   H7X21252   6.018   2.487   8.718 -0.8987 -0.1380 -0.3092
  185SAPI   H7Y21253   6.124   2.622   8.728  0.2682 -1.5537  2.0934
  185SAPI   C3821254   5.909   2.664   8.670  0.0187 -0.2854  0.1015
  185SAPI   H8X21255   5.893   2.770   8.698 -1.1713 -0.0546 -1.3219
  185SAPI   H8Y21256   5.811   2.615   8.687 -0.9694  0.7948 -2.0611
  185SAPI   C3921257   5.934   2.658   8.518 -0.0886 -0.0089  0.7906
  185SAPI   H9X21258   5.931   2.551   8.489  1.1951 -0.3079  1.6852
  185SAPI   H9Y21259   6.031   2.705   8.492 -0.6530  1.2251  0.8309
  185SAPI  C31021260   5.829   2.740   8.435  0.0361  0.2265 -0.0792
  185SAPI  H10X21261   5.820   2.841   8.480 -0.6255  1.0338 -1.9238
  185SAPI  H10Y21262   5.730   2.693   8.452  1.1418 -1.3094  2.7822
  185SAPI  C31121263   5.859   2.740   8.284  0.3097  0.8610 -0.1211
  185SAPI  H11X21264   5.850   2.633   8.256 -1.3916  1.6729 -3.0919
  185SAPI  H11Y21265   5.959   2.783   8.261  0.0358  0.5059 -2.2191
  185SAPI  C31221266   5.756   2.833   8.210  0.4560  1.0470 -0.5563
  185SAPI  H12X21267   5.778   2.938   8.238  3.1233  0.5639 -0.5897
  185SAPI  H12Y21268   5.655   2.802   8.243  0.9475 -0.5948 -0.5117
  185SAPI  C31321269   5.756   2.825   8.062 -0.3356 -0.1290  0.3871
  185SAPI  H13X21270   5.660   2.872   8.029  1.4429  2.8980 -0.8796
  185SAPI  H13Y21271   5.761   2.719   8.029 -1.7729  0.2269 -1.1412
  185SAPI  C31421272   5.870   2.896   7.986  0.0784  0.0617  0.4853
  185SAPI  H14X21273   5.883   2.855   7.883 -0.3211 -0.4751  0.6413
  185SAPI  H14Y21274   5.963   2.899   8.046  1.0285 -1.3197 -0.8479
  185SAPI  C31521275   5.844   3.047   7.974  0.2648  0.0026 -0.6644
  185SAPI  H15X21276   5.842   3.094   8.074 -1.0017  0.8079 -1.0444
  185SAPI  H15Y21277   5.744   3.072   7.932  0.5534  1.4658 -0.5393
  185SAPI  C31621278   5.941   3.118   7.884 -0.2041  0.1299  0.1783
  185SAPI  H16X21279   5.951   3.055   7.792 -2.3546  0.1135 -0.0855
  185SAPI  H16Y21280   6.032   3.133   7.946 -1.5497  0.5243  2.1192
  185SAPI  C31721281   5.899   3.256   7.827  0.5419  0.2796 -0.6311
  185SAPI  H17X21282   5.878   3.317   7.918 -0.8328  0.4486 -1.0379
  185SAPI  H17Y21283   5.811   3.223   7.768 -0.4418  1.7280 -0.0438
  185SAPI  C31821284   5.994   3.325   7.736 -0.8547  1.5112 -0.6246
  185SAPI  H18X21285   6.019   3.255   7.654  3.3654 -0.2620  1.8369
  185SAPI  H18Y21286   6.083   3.366   7.787  0.2526 -1.2596 -0.1847
  185SAPI  H18Z21287   5.947   3.410   7.682 -0.3759  1.7672 -0.6379
  186SAPI   C1221288   4.731   0.701  10.057 -0.5354  0.2402 -0.8577
  186SAPI    H221289   4.772   0.801  10.029 -2.9338  0.9785 -1.9924
  186SAPI    O221290   4.757   0.693  10.200 -0.2154 -0.2220  0.3286
  186SAPI   HO221291   4.852   0.711  10.206 -0.4989  2.2251 -1.2017
  186SAPI   C1321292   4.588   0.690  10.014 -0.4517  0.7071  0.6311
  186SAPI    H321293   4.596   0.695   9.903 -0.7811  0.0931  0.5744
  186SAPI    O321294   4.507   0.787  10.053 -0.0904 -0.9050 -0.2728
  186SAPI   HO321295   4.426   0.789  10.001 -0.2680  1.5933 -0.0282
  186SAPI   C1421296   4.535   0.546  10.038 -0.6729 -0.5803 -0.5402
  186SAPI    H421297   4.524   0.555  10.148 -0.2959  0.4154 -0.5768
  186SAPI    O421298   4.409   0.525   9.980  0.1308  0.1918 -0.4662
  186SAPI   HO421299   4.372   0.445  10.015  1.0252 -0.9592 -1.9993
  186SAPI   C1521300   4.623   0.422  10.020 -0.1526 -0.0803  0.3227
  186SAPI    H521301   4.607   0.390   9.915  1.0715 -0.5599  0.2756
  186SAPI    O521302   4.575   0.308  10.085  0.2857 -0.1464  0.2550
  186SAPI   HO521303   4.625   0.313  10.166 -2.0976  1.6918  1.7498
  186SAPI   C1621304   4.776   0.449  10.025 -1.0108  0.0874  0.2815
  186SAPI    H621305   4.801   0.425  10.131  0.0416  2.9082  0.7796
  186SAPI    O621306   4.842   0.356   9.941 -0.4119 -0.2841  0.2352
  186SAPI   HO621307   4.829   0.394   9.854  2.2937  1.1694  0.3542
  186SAPI   C1121308   4.813   0.592   9.982 -0.6935  0.1683 -0.3036
  186SAPI    H121309   4.783   0.588   9.875 -0.0939 -3.8996 -0.4831
  186SAPI     P21310   5.048   0.675   9.875 -0.4567 -0.1431  0.0293
  186SAPI   O1321311   5.178   0.706   9.943 -0.6202  0.1241 -0.5613
  186SAPI   O1421312   4.983   0.799   9.826 -0.3948  0.1382 -0.3798
  186SAPI   O1221313   4.957   0.610   9.993  0.5421 -0.3328 -0.4967
  186SAPI   O1121314   5.058   0.558   9.769  0.0688  0.4355 -0.2607
  186SAPI    C121315   5.152   0.453   9.783  0.5977  0.0957  0.4495
  186SAPI    HA21316   5.254   0.496   9.792 -0.6935  3.6686 -0.1219
  186SAPI    HB21317   5.122   0.391   9.870 -0.1643  0.2203  0.2837
  186SAPI    C221318   5.160   0.357   9.651  0.4698  0.4134  0.5177
  186SAPI    HS21319   5.266   0.322   9.643 -0.4144 -2.0992 -1.6860
  186SAPI   O2121320   5.116   0.421   9.530  0.0703  0.0388  0.2724
  186SAPI   C2121321   5.182   0.528   9.496 -0.6897  0.7332  0.1776
  186SAPI   O2221322   5.285   0.567   9.547 -0.3299  0.0501  0.7744
  186SAPI   C2221323   5.106   0.615   9.399  0.0933  0.4276  0.6328
  186SAPI   H2R21324   5.013   0.650   9.449 -0.9861  1.3046 -1.8147
  186SAPI   H2S21325   5.174   0.698   9.371  0.4564 -0.5825 -1.7663
  186SAPI    C321326   5.084   0.225   9.669  0.3402  0.2609 -0.1069
  186SAPI    HX21327   4.991   0.229   9.729  0.9574 -0.8574  0.9817
  186SAPI    HY21328   5.148   0.164   9.738 -1.3954 -0.7766  0.6532
  186SAPI   O3121329   5.070   0.150   9.546 -0.0358 -0.2998  1.1842
  186SAPI   C3121330   4.950   0.168   9.479  0.6030 -0.3916  0.8655
  186SAPI   O3221331   4.859   0.239   9.517 -0.3594 -0.7106  0.2601
  186SAPI   C3221332   4.944   0.087   9.352  1.1937 -0.0680 -0.2685
  186SAPI   H2X21333   4.840   0.052   9.337  0.5243  1.3058  0.9957
  186SAPI   H2Y21334   5.018   0.003   9.352 -0.5253 -1.6455 -0.9042
  186SAPI   C2321335   5.046   0.539   9.272 -0.0599  0.2248 -0.2425
  186SAPI   H3R21336   4.953   0.586   9.234 -0.4569  0.1185  0.5749
  186SAPI   H3S21337   5.010   0.439   9.306 -2.2578  0.5718 -1.3954
  186SAPI   C2421338   5.152   0.512   9.166  0.3465 -0.0364 -0.3680
  186SAPI   H4R21339   5.133   0.410   9.126 -1.0402  0.3843 -0.8126
  186SAPI   H4S21340   5.251   0.511   9.217  0.7335  0.0276 -1.1141
  186SAPI   C2521341   5.151   0.622   9.063 -0.0826 -0.5559 -0.4471
  186SAPI   H5R21342   5.162   0.726   9.098 -0.3053 -0.8474  0.4979
  186SAPI   C2621343   5.109   0.610   8.938  0.8609  0.7060 -0.2629
  186SAPI   H6R21344   5.106   0.702   8.877  1.2443  0.9192  0.0325
  186SAPI   C2721345   5.088   0.476   8.873 -0.2725  0.0484  0.0021
  186SAPI   H7R21346   4.994   0.429   8.910 -1.1581  1.9990  0.3885
  186SAPI   H7S21347   5.173   0.412   8.904 -0.6076 -0.8394 -0.8512
  186SAPI   C2821348   5.094   0.485   8.717  0.5316  0.1985 -0.1969
  186SAPI   H8R21349   5.150   0.398   8.679  0.8079 -0.3931  1.4792
  186SAPI   C2921350   5.065   0.571   8.624  0.0339  0.8300 -0.4517
  186SAPI   H9R21351   5.117   0.568   8.527  1.7131  4.7268  0.1391
  186SAPI  C21021352   4.983   0.696   8.643  0.9261  0.3190  0.5366
  186SAPI  H10R21353   5.049   0.785   8.642 -0.0666  1.0848  1.4567
  186SAPI  H10S21354   4.934   0.701   8.742 -1.4519 -1.2499 -0.4699
  186SAPI  C21121355   4.861   0.696   8.554 -0.3964  0.5711 -0.1620
  186SAPI  H11R21356   4.790   0.618   8.584  0.9150 -0.0218  1.5938
  186SAPI  C21221357   4.859   0.767   8.440  0.1107  0.3107  0.7437
  186SAPI  H12R21358   4.766   0.785   8.384  0.7780  2.9972  0.3596
  186SAPI  C21321359   4.966   0.848   8.366  0.4158 -0.1044 -0.6672
  186SAPI  H13R21360   4.983   0.792   8.272  0.3829  1.1102 -1.4108
  186SAPI  H13S21361   5.064   0.841   8.419 -0.9736  0.6287  2.1812
  186SAPI  C21421362   4.947   0.997   8.349 -0.5158  0.1183 -0.1580
  186SAPI  H14R21363   4.972   1.066   8.430  0.7345 -0.1637 -0.2775
  186SAPI  C21521364   4.929   1.064   8.232  0.0338  0.0227  0.8612
  186SAPI  H15R21365   4.937   1.174   8.225  3.2368 -0.2117 -1.4132
  186SAPI  C21621366   4.918   0.995   8.098  0.0946 -0.0592  0.6980
  186SAPI  H16R21367   4.814   0.999   8.058  1.2180  4.1727 -2.5400
  186SAPI  H16S21368   4.948   0.888   8.098 -1.0045 -0.4794 -2.8732
  186SAPI  C21721369   5.012   1.056   7.993 -0.0023 -0.3272 -0.4558
  186SAPI  H17R21370   5.116   1.041   8.030 -0.2110 -1.4121 -0.2906
  186SAPI  H17S21371   4.999   1.166   7.987  0.8531 -0.2624 -1.3114
  186SAPI  C21821372   5.006   1.010   7.847 -0.2284 -0.1989  0.6969
  186SAPI  H18R21373   4.903   0.993   7.807  0.1806 -1.6030  0.1782
  186SAPI  H18S21374   5.067   0.918   7.832 -0.7020 -0.5656  0.9892
  186SAPI  C21921375   5.076   1.113   7.759  0.1055 -0.5440 -0.3020
  186SAPI  H19R21376   5.167   1.150   7.810  0.5005 -0.9695 -0.6859
  186SAPI  H19S21377   5.011   1.203   7.755  1.3872  0.3933 -0.5840
  186SAPI  C22021378   5.108   1.065   7.620  0.6637 -0.4757 -0.2229
  186SAPI  H20R21379   5.179   0.979   7.629  0.2226 -0.9412 -1.0696
  186SAPI  H20S21380   5.153   1.140   7.552  3.5330 -1.0806  0.8756
  186SAPI  H20T21381   5.016   1.035   7.565  0.9081 -0.0108 -0.8868
  186SAPI   C3321382   4.979   0.171   9.221 -0.2040  0.2977  0.1200
  186SAPI   H3X21383   5.076   0.222   9.239 -1.2181  2.0902  0.8366
  186SAPI   H3Y21384   4.897   0.235   9.181 -2.5062 -1.4464  1.7265
  186SAPI   C3421385   5.008   0.069   9.100  0.5007  0.2941  0.3427
  186SAPI   H4X21386   4.913   0.012   9.088  1.0296 -0.2401 -1.7091
  186SAPI   H4Y21387   5.086  -0.003   9.132 -1.5518 -2.3917 -0.2908
  186SAPI   C3521388   5.060   0.136   8.972  0.4682  0.1802  0.1270
  186SAPI   H5X21389   5.167   0.165   8.981 -0.0313  2.3841 -0.3812
  186SAPI   H5Y21390   4.992   0.222   8.953 -0.7483 -1.1221 -1.6153
  186SAPI   C3621391   5.052   0.043   8.852 -0.2624  0.0520  0.5378
  186SAPI   H6X21392   4.949   0.005   8.833 -2.1393  4.8584 -0.1960
  186SAPI   H6Y21393   5.115  -0.044   8.880  1.6079  0.9778 -0.6637
  186SAPI   C3721394   5.108   0.121   8.724 -0.1406  0.5918 -0.7735
  186SAPI   H7X21395   5.218   0.139   8.727  0.2422 -1.4058  2.2788
  186SAPI   H7Y21396   5.063   0.222   8.717  0.1268  0.8938  1.2865
  186SAPI   C3821397   5.082   0.040   8.600 -0.5660 -0.2045 -0.3000
  186SAPI   H8X21398   4.975   0.012   8.609 -0.1595 -1.8783 -0.3073
  186SAPI   H8Y21399   5.145  -0.051   8.601 -1.8386 -1.1070  0.6495
  186SAPI   C3921400   5.096   0.115   8.469 -0.9284  0.6244  0.1124
  186SAPI   H9X21401   5.065   0.221   8.480 -0.2925  0.9528 -1.0350
  186SAPI   H9Y21402   5.026   0.080   8.391 -2.9185  2.1390  1.1435
  186SAPI  C31021403   5.241   0.110   8.416 -0.1379 -0.8851  0.2487
  186SAPI  H10X21404   5.263   0.004   8.389  0.4556 -1.1958  1.8603
  186SAPI  H10Y21405   5.319   0.133   8.492 -0.0534  2.4695 -0.6823
  186SAPI  C31121406   5.282   0.186   8.289 -0.3095  0.1317 -0.0834
  186SAPI  H11X21407   5.227   0.149   8.200 -0.2465 -0.8669  0.2809
  186SAPI  H11Y21408   5.391   0.172   8.270 -0.6582 -1.5486 -1.0603
  186SAPI  C31221409   5.273   0.338   8.315  0.3894  0.3141 -0.9080
  186SAPI  H12X21410   5.327   0.376   8.405 -0.8815  0.9559 -0.3897
  186SAPI  H12Y21411   5.163   0.357   8.315  0.2209 -0.5821 -0.1624
  186SAPI  C31321412   5.297   0.426   8.190 -0.0516  0.3717  0.2754
  186SAPI  H13X21413   5.237   0.397   8.102 -0.1891  0.0493  0.4734
  186SAPI  H13Y21414   5.406   0.415   8.172  0.2327  1.7776  0.9895
  186SAPI  C31421415   5.255   0.574   8.205 -0.4998  0.1223 -0.7751
  186SAPI  H14X21416   5.301   0.615   8.298 -0.0629  0.4848 -1.1489
  186SAPI  H14Y21417   5.146   0.583   8.222 -0.3159  1.3427 -0.1191
  186SAPI  C31521418   5.286   0.668   8.085  0.6238  0.5087 -0.3397
  186SAPI  H15X21419   5.221   0.627   8.004  0.2177 -0.7769  0.5899
  186SAPI  H15Y21420   5.390   0.657   8.048  1.1536 -0.5099  1.3405
  186SAPI  C31621421   5.258   0.814   8.120 -0.0807  0.5932  0.1134
  186SAPI  H16X21422   5.148   0.820   8.138  0.1559 -1.2094  2.6557
  186SAPI  H16Y21423   5.297   0.875   8.035  1.6654  3.8121  2.9951
  186SAPI  C31721424   5.342   0.857   8.238 -0.5813  0.6760  0.1102
  186SAPI  H17X21425   5.448   0.825   8.228 -0.9791 -0.2874 -1.3982
  186SAPI  H17Y21426   5.302   0.810   8.329 -1.6363  0.1113 -0.6293
  186SAPI  C31821427   5.339   1.018   8.236  0.1574  0.0287  0.4231
  186SAPI  H18X21428   5.235   1.044   8.264  0.6951  1.4112  1.2525
  186SAPI  H18Y21429   5.359   1.065   8.137 -2.7284  1.8830  0.5877
  186SAPI  H18Z21430   5.406   1.058   8.314  0.6350 -2.1531  1.2103
  187SAPI   C1221431   1.269   2.806   5.463  0.0604  0.0033  0.5912
  187SAPI    H221432   1.202   2.874   5.519 -0.4590 -0.3099  0.3606
  187SAPI    O221433   1.199   2.756   5.345  0.3443  0.4337 -0.6526
  187SAPI   HO221434   1.115   2.801   5.339 -0.8168 -1.4105  0.7730
  187SAPI   C1321435   1.395   2.873   5.426  0.1273  0.5140 -0.7890
  187SAPI    H321436   1.443   2.904   5.522 -1.8937  2.1272 -0.2392
  187SAPI    O321437   1.377   2.997   5.350 -0.3926  0.2113 -0.2307
  187SAPI   HO321438   1.421   3.072   5.392  0.5770  0.7229 -2.0410
  187SAPI   C1421439   1.491   2.789   5.346  0.6268  0.2405  0.1871
  187SAPI    H421440   1.443   2.792   5.246  3.0990 -1.9651 -1.2085
  187SAPI    O421441   1.622   2.851   5.335  0.5768  0.2590  0.3064
  187SAPI   HO421442   1.637   2.847   5.240  1.8316  0.6890  0.4643
  187SAPI   C1521443   1.493   2.643   5.381 -0.4731 -0.0944 -0.2181
  187SAPI    H521444   1.586   2.636   5.442 -0.5908  1.0679  0.1264
  187SAPI    O521445   1.526   2.564   5.272 -0.8177  0.4484  0.1776
  187SAPI   HO521446   1.457   2.577   5.206  0.0663 -1.3668 -1.1712
  187SAPI   C1621447   1.389   2.592   5.480 -0.0346  0.3828 -0.2197
  187SAPI    H621448   1.315   2.536   5.417  3.0340 -3.1702 -1.0172
  187SAPI    O621449   1.439   2.490   5.567 -0.5825 -0.1163  0.0439
  187SAPI   HO621450   1.488   2.524   5.643  1.2281 -2.6222  0.1047
  187SAPI   C1121451   1.306   2.689   5.552 -1.5500 -0.5750  0.5747
  187SAPI    H121452   1.366   2.729   5.636 -0.3734 -3.0028  0.9899
  187SAPI     P21453   1.115   2.688   5.730  0.3344  0.1290  0.3636
  187SAPI   O1321454   0.968   2.678   5.715  0.2875  0.3104 -0.5196
  187SAPI   O1421455   1.171   2.817   5.756 -0.8000 -0.4693  0.1070
  187SAPI   O1221456   1.187   2.622   5.597  0.3243  0.1660  0.2890
  187SAPI   O1121457   1.160   2.591   5.843  0.1954  0.0357  0.8200
  187SAPI    C121458   1.173   2.624   5.979 -0.5574 -0.4553 -0.8703
  187SAPI    HA21459   1.279   2.616   6.013 -0.9911 -2.8009  0.1017
  187SAPI    HB21460   1.153   2.732   5.996  1.6430  0.2306 -2.2580
  187SAPI    C221461   1.084   2.527   6.066 -0.9724 -0.7239 -0.5019
  187SAPI    HS21462   1.102   2.423   6.031  3.2417 -0.2723 -0.1393
  187SAPI   O2121463   0.953   2.568   6.074  0.1344  0.1967  0.2881
  187SAPI   C2121464   0.860   2.475   6.070 -0.5864 -0.0938  0.2993
  187SAPI   O2221465   0.885   2.358   6.093 -0.0400 -0.1153  0.1520
  187SAPI   C2221466   0.720   2.542   6.041 -0.4509  0.2211  0.2606
  187SAPI   H2R21467   0.708   2.633   6.103  1.4350  0.4848  0.2750
  187SAPI   H2S21468   0.737   2.577   5.937  1.5325  1.2623  0.8950
  187SAPI    C321469   1.144   2.547   6.214  0.1424 -0.3566 -0.0086
  187SAPI    HX21470   1.112   2.648   6.247  0.6377 -0.2329  0.0952
  187SAPI    HY21471   1.255   2.551   6.210  0.1830  0.2639 -4.4893
  187SAPI   O3121472   1.086   2.455   6.304  0.4828 -0.1474  0.0980
  187SAPI   C3121473   1.137   2.330   6.302  0.1779 -0.0762  0.1380
  187SAPI   O3221474   1.223   2.293   6.226  0.7283  0.4069  0.2916
  187SAPI   C3221475   1.059   2.244   6.410  0.7330 -0.4703  0.2449
  187SAPI   H2X21476   1.000   2.174   6.347  1.0159 -1.2797  0.8586
  187SAPI   H2Y21477   0.985   2.310   6.460  1.1133 -1.8113  2.7769
  187SAPI   C2321478   0.596   2.443   6.050  0.1895  0.1978 -0.7577
  187SAPI   H3R21479   0.622   2.347   6.002  2.1388  0.6660 -0.7406
  187SAPI   H3S21480   0.512   2.482   5.989 -0.1901  0.4299 -0.1055
  187SAPI   C2421481   0.529   2.430   6.190 -0.1858  0.0831 -0.1275
  187SAPI   H4R21482   0.442   2.364   6.172 -1.8938  0.7381  4.4201
  187SAPI   H4S21483   0.501   2.530   6.229 -1.2071  0.2607 -1.2849
  187SAPI   C2521484   0.629   2.355   6.277  0.4474 -0.4454 -0.4941
  187SAPI   H5R21485   0.684   2.277   6.222  1.1184  0.5302 -1.2541
  187SAPI   C2621486   0.663   2.389   6.405  0.1755  0.4895 -0.2603
  187SAPI   H6R21487   0.749   2.334   6.445 -0.9849 -2.0621 -1.0705
  187SAPI   C2721488   0.589   2.489   6.491  0.3549  0.0450  0.4037
  187SAPI   H7R21489   0.483   2.462   6.505  0.5245 -0.2945  1.1171
  187SAPI   H7S21490   0.581   2.590   6.445  0.4639 -0.8488 -1.6810
  187SAPI   C2821491   0.654   2.499   6.626  0.1907  0.1250  0.2513
  187SAPI   H8R21492   0.607   2.455   6.715 -0.4729  2.6491  1.2181
  187SAPI   C2921493   0.763   2.568   6.653  0.5974  0.0992  0.4437
  187SAPI   H9R21494   0.805   2.567   6.755  0.4574  0.3968  0.5059
  187SAPI  C21021495   0.838   2.651   6.556 -0.8728  0.3004  0.3710
  187SAPI  H10R21496   0.821   2.757   6.586 -1.2636  0.4309 -0.2930
  187SAPI  H10S21497   0.801   2.645   6.451 -0.8594 -2.3211  0.4505
  187SAPI  C21121498   0.987   2.636   6.571  0.1455 -0.0792 -0.1165
  187SAPI  H11R21499   1.035   2.589   6.484 -0.2606  2.3740 -1.7354
  187SAPI  C21221500   1.066   2.675   6.674  0.1370 -0.3258  0.5143
  187SAPI  H12R21501   1.170   2.646   6.656 -0.0235  0.1558 -1.4201
  187SAPI  C21321502   1.048   2.746   6.803 -0.5288 -0.2069 -0.2642
  187SAPI  H13R21503   0.949   2.797   6.815  0.4527  1.1117  4.1844
  187SAPI  H13S21504   1.128   2.822   6.815 -1.3331  0.6595 -0.1984
  187SAPI  C21421505   1.044   2.639   6.915 -0.3760 -0.4393  0.0022
  187SAPI  H14R21506   1.048   2.538   6.872  1.1311 -0.1695 -0.5255
  187SAPI  C21521507   1.032   2.656   7.047  0.3415 -0.5195  0.3129
  187SAPI  H15R21508   1.024   2.571   7.116  1.5446 -0.3808  0.6413
  187SAPI  C21621509   1.007   2.787   7.116  0.3378  0.3951 -0.0848
  187SAPI  H16R21510   0.923   2.770   7.187  0.0936  0.8340 -0.2624
  187SAPI  H16S21511   0.957   2.852   7.040  0.0924  0.4930  0.1567
  187SAPI  C21721512   1.123   2.859   7.179  0.1333  0.2287  0.2338
  187SAPI  H17R21513   1.090   2.949   7.234  2.2309  0.6230  0.9540
  187SAPI  H17S21514   1.186   2.892   7.094 -0.6810 -3.4552 -2.0162
  187SAPI  C21821515   1.202   2.775   7.282  0.9433 -0.1916  1.5294
  187SAPI  H18R21516   1.275   2.847   7.323  1.0470  0.1789  0.7141
  187SAPI  H18S21517   1.257   2.696   7.225  0.1237  1.4646 -1.8299
  187SAPI  C21921518   1.137   2.725   7.409 -0.3179  0.2805 -0.2978
  187SAPI  H19R21519   1.220   2.680   7.467  0.8524  1.3316 -1.1279
  187SAPI  H19S21520   1.061   2.650   7.377 -0.6390  0.8158 -0.8150
  187SAPI  C22021521   1.068   2.832   7.502  0.0842 -0.2683  0.0174
  187SAPI  H20R21522   1.143   2.901   7.545  1.2869 -2.1330  1.0950
  187SAPI  H20S21523   1.027   2.773   7.587 -1.5719 -2.6037 -2.2188
  187SAPI  H20T21524   0.984   2.885   7.453 -1.5904 -1.2847  1.7090
  187SAPI   C3321525   1.150   2.163   6.509  0.2482 -0.2291 -0.2964
  187SAPI   H3X21526   1.236   2.224   6.542  2.1210 -2.2828 -1.1147
  187SAPI   H3Y21527   1.203   2.089   6.445 -0.3896  0.1531 -1.3036
  187SAPI   C3421528   1.078   2.110   6.631  0.6736  0.0408 -1.1479
  187SAPI   H4X21529   1.130   2.018   6.668  1.9831  1.3808  0.5344
  187SAPI   H4Y21530   0.973   2.099   6.596 -0.6358  1.2890  2.0349
  187SAPI   C3521531   1.084   2.214   6.743 -0.5160 -0.6754 -0.0214
  187SAPI   H5X21532   1.028   2.308   6.719 -1.0956 -0.8502  0.6049
  187SAPI   H5Y21533   1.184   2.262   6.743 -0.9980  0.4276  1.6233
  187SAPI   C3621534   1.040   2.158   6.880 -0.4317 -0.2623 -0.0006
  187SAPI   H6X21535   1.122   2.090   6.914  0.5767  0.6368 -0.5732
  187SAPI   H6Y21536   0.947   2.098   6.875 -1.6854  1.4177  1.6843
  187SAPI   C3721537   1.021   2.268   6.990  0.3608  0.0590  0.7987
  187SAPI   H7X21538   0.939   2.333   6.954 -2.1469 -2.7353  1.0721
  187SAPI   H7Y21539   1.119   2.320   6.997 -0.2670  1.1750  1.4917
  187SAPI   C3821540   0.992   2.214   7.130 -0.2839  0.2558 -0.1306
  187SAPI   H8X21541   1.089   2.175   7.166 -0.4644 -0.6094 -0.5620
  187SAPI   H8Y21542   0.921   2.129   7.121  2.2066 -1.8952 -0.5201
  187SAPI   C3921543   0.950   2.333   7.213  0.6313  0.5851  0.2825
  187SAPI   H9X21544   0.896   2.404   7.147 -0.7428 -0.7996 -0.1314
  187SAPI   H9Y21545   1.040   2.387   7.251  1.8474 -0.8973 -0.3928
  187SAPI  C31021546   0.860   2.293   7.334 -0.3686  0.0082  0.4400
  187SAPI  H10X21547   0.910   2.199   7.365  1.0776  0.0709 -1.4975
  187SAPI  H10Y21548   0.768   2.260   7.282  0.8559 -1.1686 -1.0510
  187SAPI  C31121549   0.844   2.399   7.447 -0.4323  0.7840  0.2782
  187SAPI  H11X21550   0.937   2.433   7.497  2.0259 -0.8270 -2.8135
  187SAPI  H11Y21551   0.795   2.359   7.539  2.0614  0.3512  1.5093
  187SAPI  C31221552   0.763   2.518   7.404 -0.0800 -0.0943 -0.0970
  187SAPI  H12X21553   0.673   2.480   7.352  1.6646 -2.1917 -1.8006
  187SAPI  H12Y21554   0.817   2.572   7.323 -1.8370  2.2442  0.1887
  187SAPI  C31321555   0.719   2.612   7.514  0.5189 -0.2516 -0.6407
  187SAPI  H13X21556   0.804   2.677   7.543  0.2008  0.9563 -2.2716
  187SAPI  H13Y21557   0.673   2.551   7.595  2.3876  0.4374  0.9951
  187SAPI  C31421558   0.610   2.712   7.477  0.0959  0.7210  0.2883
  187SAPI  H14X21559   0.572   2.777   7.559 -0.4155 -0.8404  1.3381
  187SAPI  H14Y21560   0.519   2.653   7.455 -0.4108  0.5066  2.7016
  187SAPI  C31521561   0.648   2.796   7.356  0.2650  0.0615  0.5102
  187SAPI  H15X21562   0.607   2.747   7.266 -2.0825 -0.6068  1.8511
  187SAPI  H15Y21563   0.757   2.813   7.364  0.1532  1.8243 -1.2558
  187SAPI  C31621564   0.579   2.939   7.356  0.4953 -1.0318 -0.3680
  187SAPI  H16X21565   0.476   2.915   7.391  0.0298 -2.0089 -2.3090
  187SAPI  H16Y21566   0.590   2.980   7.254  0.9609  0.3522  0.2111
  187SAPI  C31721567   0.639   3.024   7.468  1.3998  0.4930  0.7229
  187SAPI  H17X21568   0.744   3.049   7.444  0.7811  1.2276 -1.4577
  187SAPI  H17Y21569   0.640   2.962   7.560 -2.1493  1.2109  1.4162
  187SAPI  C31821570   0.562   3.155   7.497 -0.4385 -0.2069 -0.0495
  187SAPI  H18X21571   0.527   3.214   7.410  0.9666 -0.1076 -0.5745
  187SAPI  H18Y21572   0.621   3.226   7.560  1.2982 -0.9829 -0.7321
  187SAPI  H18Z21573   0.471   3.128   7.555 -0.9772  0.5724 -0.5092
  188SAPI   C1221574   1.238   5.447   5.727  0.0321  0.3390  0.1802
  188SAPI    H221575   1.238   5.541   5.785 -0.5467  1.8000 -2.0536
  188SAPI    O221576   1.340   5.461   5.625 -0.4490  0.3288 -0.6795
  188SAPI   HO221577   1.340   5.553   5.597 -1.2814  0.6554  0.3133
  188SAPI   C1321578   1.274   5.323   5.809  1.1587 -0.5378 -0.6632
  188SAPI    H321579   1.185   5.312   5.874 -1.4214  3.0769 -3.1412
  188SAPI    O321580   1.383   5.354   5.902 -0.5292  0.5895  0.2425
  188SAPI   HO321581   1.450   5.377   5.837 -0.4532 -1.6832 -0.5695
  188SAPI   C1421582   1.295   5.205   5.717 -0.7361  0.3899  0.6549
  188SAPI    H421583   1.387   5.211   5.654 -0.7201 -1.7987  0.3686
  188SAPI    O421584   1.328   5.083   5.783 -0.7553 -0.2092  0.0086
  188SAPI   HO421585   1.386   5.022   5.736  1.1161  1.9372 -0.6749
  188SAPI   C1521586   1.177   5.185   5.619  0.1499 -0.0606 -0.8875
  188SAPI    H521587   1.106   5.130   5.685  0.9606 -0.6035 -0.4444
  188SAPI    O521588   1.209   5.095   5.514 -0.4265  0.1995  0.0320
  188SAPI   HO521589   1.136   5.037   5.494 -0.6291  1.1900 -2.4064
  188SAPI   C1621590   1.090   5.303   5.576  0.5149 -0.2442 -0.2734
  188SAPI    H621591   1.136   5.335   5.481  0.1827  0.4485 -0.2070
  188SAPI    O621592   0.955   5.276   5.546 -0.0144  0.5326  0.0374
  188SAPI   HO621593   0.896   5.349   5.564 -0.1708  0.1264  1.2448
  188SAPI   C1121594   1.098   5.425   5.669 -0.1507  0.4034  0.3400
  188SAPI    H121595   1.036   5.407   5.760  2.9065 -2.5807  2.0842
  188SAPI     P21596   0.931   5.610   5.590 -0.0855 -0.2200 -0.1776
  188SAPI   O1321597   0.829   5.508   5.545 -0.5716  0.1833  0.4663
  188SAPI   O1421598   0.952   5.722   5.498  0.0255  0.0574 -0.0265
  188SAPI   O1221599   1.070   5.535   5.600  0.1990 -0.1135  0.3104
  188SAPI   O1121600   0.898   5.654   5.734  0.1309  0.4336  0.3785
  188SAPI    C121601   0.808   5.568   5.809 -0.1833 -0.4478 -0.0801
  188SAPI    HA21602   0.703   5.592   5.783 -0.5421 -1.8151  0.0397
  188SAPI    HB21603   0.822   5.458   5.812 -0.7892 -0.5189  2.6461
  188SAPI    C221604   0.816   5.620   5.964 -0.4649  0.3869  0.0009
  188SAPI    HS21605   0.784   5.532   6.023  1.5079 -0.7735 -0.5714
  188SAPI   O2121606   0.746   5.746   5.982  0.6043 -0.4532 -0.2984
  188SAPI   C2121607   0.704   5.758   6.110  0.8399 -0.0478  0.0570
  188SAPI   O2221608   0.721   5.682   6.205 -0.4619  0.4800  0.4338
  188SAPI   C2221609   0.628   5.882   6.123  0.0714 -0.1357  0.7861
  188SAPI   H2R21610   0.698   5.963   6.095 -0.2513 -0.7245 -2.0609
  188SAPI   H2S21611   0.540   5.894   6.055  0.3548 -2.1886 -0.0037
  188SAPI    C321612   0.964   5.628   6.003  0.4429 -0.1920 -0.3905
  188SAPI    HX21613   0.996   5.726   5.961 -1.9912 -0.1565 -2.3989
  188SAPI    HY21614   1.021   5.554   5.944  0.1134 -0.4230 -0.4201
  188SAPI   O3121615   0.989   5.636   6.151 -0.1404  0.1444  0.4483
  188SAPI   C3121616   0.998   5.514   6.201  0.2177 -0.0644 -0.6895
  188SAPI   O3221617   0.989   5.409   6.144 -0.0094  0.5121 -0.1113
  188SAPI   C3221618   1.023   5.534   6.356 -0.3456  0.4112  0.8561
  188SAPI   H2X21619   0.962   5.623   6.384  0.8021  0.9518  1.7084
  188SAPI   H2Y21620   1.124   5.577   6.371 -0.2489  0.6736 -0.4219
  188SAPI   C2321621   0.584   5.894   6.267  0.2341 -0.7820 -0.2562
  188SAPI   H3R21622   0.602   6.000   6.294 -1.1996 -1.3249  3.3249
  188SAPI   H3S21623   0.642   5.842   6.346  1.2602 -2.6446 -2.1359
  188SAPI   C2421624   0.435   5.858   6.269 -0.0057  0.2776 -0.5918
  188SAPI   H4R21625   0.418   5.758   6.225  0.1801 -1.5932  3.1496
  188SAPI   H4S21626   0.377   5.935   6.214  0.1999  0.3701 -0.6781
  188SAPI   C2521627   0.378   5.852   6.406 -0.3885  0.5061  0.5608
  188SAPI   H5R21628   0.329   5.943   6.442 -0.5123 -0.0617  1.8762
  188SAPI   C2621629   0.369   5.750   6.489  0.0873 -0.2445 -0.8237
  188SAPI   H6R21630   0.334   5.770   6.592  0.6974 -0.4694 -0.5693
  188SAPI   C2721631   0.416   5.606   6.467  0.1865 -0.0786 -0.1603
  188SAPI   H7R21632   0.409   5.567   6.363  0.6666 -2.8732  0.7746
  188SAPI   H7S21633   0.351   5.536   6.522  0.9353 -2.0310 -1.6431
  188SAPI   C2821634   0.560   5.593   6.512 -0.3488 -0.5904  0.4424
  188SAPI   H8R21635   0.634   5.624   6.437 -1.1320 -1.9077 -0.9451
  188SAPI   C2921636   0.598   5.541   6.628  0.5921 -0.7204 -0.0829
  188SAPI   H9R21637   0.706   5.539   6.652  0.5227 -0.4712  0.2549
  188SAPI  C21021638   0.498   5.490   6.737  0.0899  0.6272  0.7267
  188SAPI  H10R21639   0.419   5.419   6.703  0.0155  0.2412  1.6594
  188SAPI  H10S21640   0.441   5.571   6.788  0.1736  1.0481  0.1466
  188SAPI  C21121641   0.585   5.436   6.847 -0.1802 -0.8256 -0.1381
  188SAPI  H11R21642   0.688   5.409   6.817 -0.2099 -0.0458 -0.9811
  188SAPI  C21221643   0.548   5.410   6.969 -1.0295 -0.2100 -0.0556
  188SAPI  H12R21644   0.628   5.386   7.040  0.0325 -1.4841 -1.6344
  188SAPI  C21321645   0.418   5.434   7.035  1.0783  0.0977 -0.1257
  188SAPI  H13R21646   0.347   5.431   6.950  1.8133 -0.9561 -0.7320
  188SAPI  H13S21647   0.411   5.533   7.085 -1.7535 -0.7001  1.2885
  188SAPI  C21421648   0.377   5.325   7.135  0.2045  0.4339  0.1528
  188SAPI  H14R21649   0.387   5.222   7.097 -0.5446  1.1347 -2.1259
  188SAPI  C21521650   0.326   5.333   7.262  0.7838 -0.1344 -0.0348
  188SAPI  H15R21651   0.285   5.238   7.299  0.9202  0.1018  0.7318
  188SAPI  C21621652   0.295   5.459   7.337  0.0137  0.3804 -0.1076
  188SAPI  H16R21653   0.189   5.489   7.330 -0.4111 -0.9192  0.3083
  188SAPI  H16S21654   0.349   5.543   7.290 -0.6256 -0.3241 -2.2018
  188SAPI  C21721655   0.345   5.457   7.476 -0.2791  0.2151  0.0849
  188SAPI  H17R21656   0.451   5.422   7.477 -0.8613 -1.6687  1.7904
  188SAPI  H17S21657   0.292   5.384   7.540  0.7005  1.4430  2.4389
  188SAPI  C21821658   0.310   5.602   7.532 -0.3141 -0.3669  0.2053
  188SAPI  H18R21659   0.204   5.601   7.563 -0.4295 -2.4505 -0.0600
  188SAPI  H18S21660   0.330   5.682   7.457  2.1864 -0.3092  0.8559
  188SAPI  C21921661   0.395   5.615   7.659  0.9695  0.3601 -0.8620
  188SAPI  H19R21662   0.395   5.722   7.689  0.1920  0.2955 -0.6168
  188SAPI  H19S21663   0.497   5.582   7.628  1.1651  2.2550 -2.4575
  188SAPI  C22021664   0.345   5.510   7.762  0.3640  0.2263 -0.0090
  188SAPI  H20R21665   0.380   5.531   7.866 -1.4873 -1.9571  1.1592
  188SAPI  H20S21666   0.387   5.411   7.736  0.3330  0.2612 -0.1933
  188SAPI  H20T21667   0.234   5.501   7.765  0.4636 -0.9689  0.7186
  188SAPI   C3321668   1.004   5.415   6.447 -0.2571 -0.2591 -0.8140
  188SAPI   H3X21669   1.081   5.341   6.417  0.0376  0.1678 -1.1320
  188SAPI   H3Y21670   0.914   5.355   6.423 -1.0303 -0.0640  1.3632
  188SAPI   C3421671   1.007   5.450   6.597  0.4934  0.3284 -0.1669
  188SAPI   H4X21672   0.925   5.522   6.614 -1.3227 -2.0879  2.2374
  188SAPI   H4Y21673   1.097   5.505   6.631  0.7451 -0.2146  0.0642
  188SAPI   C3521674   0.991   5.324   6.689 -0.0433 -0.3602 -0.0477
  188SAPI   H5X21675   1.064   5.246   6.657  0.3332  0.1524 -0.4676
  188SAPI   H5Y21676   0.894   5.275   6.664 -1.5418  2.3074  0.2217
  188SAPI   C3621677   1.005   5.359   6.832  0.2533  0.3980  0.3046
  188SAPI   H6X21678   0.930   5.431   6.872  0.6985  0.0243  1.8459
  188SAPI   H6Y21679   1.102   5.412   6.845 -1.4967  3.7631  0.9998
  188SAPI   C3721680   1.008   5.246   6.918 -0.3629  0.1544 -0.7570
  188SAPI   H7X21681   1.095   5.180   6.895  0.3623 -0.7141  3.6555
  188SAPI   H7Y21682   0.916   5.186   6.902  0.7451 -1.2967 -1.9809
  188SAPI   C3821683   1.006   5.282   7.070  0.6387 -0.6619  0.0037
  188SAPI   H8X21684   0.950   5.203   7.123 -1.5938  1.2099  0.5978
  188SAPI   H8Y21685   0.946   5.374   7.088 -0.0996 -1.2443  0.5385
  188SAPI   C3921686   1.144   5.290   7.126  0.0305  1.0946  0.3700
  188SAPI   H9X21687   1.192   5.385   7.093 -1.7063  2.8176  2.4592
  188SAPI   H9Y21688   1.198   5.203   7.084 -0.2838  2.3290 -2.8734
  188SAPI  C31021689   1.142   5.272   7.282  0.5107 -0.1208  0.1057
  188SAPI  H10X21690   1.103   5.171   7.310 -0.4457 -0.1639 -1.2842
  188SAPI  H10Y21691   1.070   5.351   7.313  1.4686  0.6548  0.3694
  188SAPI  C31121692   1.280   5.298   7.348 -0.7917  0.5098  0.0112
  188SAPI  H11X21693   1.307   5.404   7.328  1.5461 -0.0752 -0.2202
  188SAPI  H11Y21694   1.365   5.246   7.300  0.7339 -0.0838  3.0915
  188SAPI  C31221695   1.294   5.249   7.491  0.6166 -0.7520 -0.2985
  188SAPI  H12X21696   1.342   5.149   7.487  0.7819 -0.7118  0.4479
  188SAPI  H12Y21697   1.198   5.234   7.544  0.9400 -2.1380 -0.0661
  188SAPI  C31321698   1.381   5.344   7.579 -0.6439  0.3133 -0.5602
  188SAPI  H13X21699   1.340   5.447   7.566 -0.6644  0.1971 -1.4732
  188SAPI  H13Y21700   1.486   5.349   7.542 -1.5539 -1.9724 -3.8401
  188SAPI  C31421701   1.386   5.321   7.732  0.6372 -0.5024  0.7041
  188SAPI  H14X21702   1.416   5.215   7.752  0.3418 -0.2797  2.5202
  188SAPI  H14Y21703   1.277   5.324   7.754  0.2921 -1.3501 -0.7519
  188SAPI  C31521704   1.464   5.438   7.806  0.0400  0.6211 -0.0166
  188SAPI  H15X21705   1.420   5.534   7.772 -1.4358 -0.5246 -1.5435
  188SAPI  H15Y21706   1.568   5.442   7.768  0.2854 -4.0611 -0.4098
  188SAPI  C31621707   1.464   5.430   7.957 -0.5181  0.0108 -0.0802
  188SAPI  H16X21708   1.537   5.352   7.988 -0.8704  0.0892  0.9968
  188SAPI  H16Y21709   1.365   5.405   8.002 -0.9032  2.3738  0.5373
  188SAPI  C31721710   1.503   5.561   8.018  0.4397 -0.3880 -0.4211
  188SAPI  H17X21711   1.590   5.605   7.965 -0.4167  0.4593 -1.1771
  188SAPI  H17Y21712   1.527   5.546   8.125 -1.1432  2.5656  0.4433
  188SAPI  C31821713   1.389   5.663   8.013  0.3960  0.1570 -0.1502
  188SAPI  H18X21714   1.356   5.687   8.117 -1.2168 -2.2436 -0.0303
  188SAPI  H18Y21715   1.292   5.643   7.962 -1.7350  5.7873  0.9092
  188SAPI  H18Z21716   1.429   5.760   7.977  1.3990 -0.0731  0.2953
  189POPC     N21717   3.776   6.731   9.989  0.0875 -0.1828  0.0924
  189POPC   C1221718   3.804   6.681   9.847  0.1203  1.2463 -0.0002
  189POPC  H12A21719   3.906   6.700   9.819  0.2830 -0.8694 -0.9856
  189POPC  H12B21720   3.742   6.737   9.778 -0.6330  0.8677  0.3503
  189POPC   C1321721   3.640   6.703  10.042  0.4090 -0.3274 -0.5243
  189POPC  H13A21722   3.629   6.766  10.129  2.5492  0.8097 -1.0199
  189POPC  H13B21723   3.562   6.729   9.973 -0.7579  0.1924  0.9338
  189POPC  H13C21724   3.624   6.597  10.059 -1.7437 -0.0673 -0.6777
  189POPC   C1421725   3.882   6.681  10.092 -0.4397 -0.0900  0.7040
  189POPC  H14A21726   3.980   6.712  10.060 -0.1382  0.7239  2.3210
  189POPC  H14B21727   3.881   6.731  10.187  0.0245  0.2067  0.5543
  189POPC  H14C21728   3.868   6.575  10.108  0.7787 -0.4202 -0.2664
  189POPC   C1521729   3.798   6.878   9.991  0.6527  1.0025  0.3577
  189POPC  H15A21730   3.732   6.915   9.914 -0.3073  0.1398  0.7498
  189POPC  H15B21731   3.899   6.899   9.958  0.5186  1.4224  0.2111
  189POPC  H15C21732   3.771   6.924  10.085  0.8633  1.8350  0.0152
  189POPC   C1121733   3.780   6.530   9.821  0.5995 -0.8127 -0.2497
  189POPC  H11A21734   3.837   6.459   9.885 -0.8147 -1.7322  0.0327
  189POPC  H11B21735   3.818   6.517   9.718 -0.3970  1.3431 -0.9362
  189POPC     P21736   3.546   6.554   9.710  0.3964  0.0416 -0.0650
  189POPC   O1321737   3.605   6.671   9.647 -0.1248 -0.2683 -0.2215
  189POPC   O1421738   3.401   6.563   9.753 -0.1035 -0.9431 -0.7395
  189POPC   O1221739   3.639   6.503   9.829  0.3154 -0.3790  0.5270
  189POPC   O1121740   3.570   6.432   9.611 -0.6249 -0.2562 -0.0037
  189POPC    C121741   3.667   6.437   9.499 -0.3856  0.4114  0.2210
  189POPC    HA21742   3.760   6.385   9.528 -1.7595 -4.1234 -2.5271
  189POPC    HB21743   3.693   6.539   9.461  2.2756  0.2115  1.3018
  189POPC    C221744   3.621   6.347   9.379 -0.2105 -0.9910  0.3008
  189POPC    HS21745   3.713   6.321   9.322 -1.0372 -0.6946 -1.1986
  189POPC   O2121746   3.534   6.420   9.295 -0.0261 -0.2999 -0.2749
  189POPC   C2121747   3.591   6.517   9.222 -0.7069 -0.1403 -0.6694
  189POPC   O2221748   3.708   6.534   9.204 -0.2258 -0.5637  0.1912
  189POPC   C2221749   3.490   6.604   9.153 -0.0584  0.3068 -0.2427
  189POPC   H2R21750   3.433   6.657   9.234  2.2638  1.3529  0.7898
  189POPC   H2S21751   3.417   6.537   9.102 -2.5063  2.9333 -0.4600
  189POPC    C321752   3.561   6.214   9.438  0.0485 -1.1597  0.5615
  189POPC    HX21753   3.462   6.234   9.484  0.1936  0.0704  0.3692
  189POPC    HY21754   3.625   6.185   9.523  0.2661 -0.1086  0.7641
  189POPC   O3121755   3.555   6.113   9.330  0.2518 -0.8663  0.2064
  189POPC   C3121756   3.445   6.128   9.251 -0.5132  0.1225 -0.5225
  189POPC   O3221757   3.358   6.208   9.265 -0.1264 -0.2229  0.8177
  189POPC   C3221758   3.460   6.025   9.133 -0.2532  0.2726 -1.0011
  189POPC   H2X21759   3.401   5.931   9.138 -0.9257  0.6324 -1.9737
  189POPC   H2Y21760   3.569   6.010   9.115 -0.1949  0.6149 -0.9513
  189POPC   C2321761   3.553   6.710   9.067  0.2985 -1.0266  0.1637
  189POPC   H3R21762   3.634   6.755   9.128  0.0685 -1.5980  0.8948
  189POPC   H3S21763   3.480   6.792   9.047 -0.0238 -0.9635  1.5300
  189POPC   C2421764   3.610   6.647   8.939  0.4727 -0.0224 -0.5640
  189POPC   H4R21765   3.532   6.582   8.894 -0.2803 -0.1532  0.8968
  189POPC   H4S21766   3.694   6.577   8.963 -1.9716 -3.3804 -1.0630
  189POPC   C2521767   3.628   6.750   8.819 -0.0137 -0.0541 -1.4718
  189POPC   H5R21768   3.692   6.835   8.853  0.8397 -0.9696 -0.6958
  189POPC   H5S21769   3.531   6.803   8.806 -0.4497 -1.0496 -2.3999
  189POPC   C2621770   3.680   6.701   8.688  0.3465  0.4644  0.2800
  189POPC   H6R21771   3.622   6.607   8.677  1.4477 -0.0240 -2.1561
  189POPC   H6S21772   3.786   6.666   8.690  0.4837  0.9132  2.7541
  189POPC   C2721773   3.658   6.794   8.567  0.1113 -0.1261  0.1494
  189POPC   H7R21774   3.683   6.896   8.604 -2.1028  0.6592 -0.3139
  189POPC   H7S21775   3.549   6.801   8.546  0.7804  0.3411 -4.0408
  189POPC   C2821776   3.726   6.748   8.437 -0.5735 -0.2064 -0.2554
  189POPC   H8R21777   3.712   6.638   8.442 -1.7991 -0.0175  1.3399
  189POPC   H8S21778   3.836   6.764   8.439 -0.7004  0.7196  1.4912
  189POPC   C2921779   3.664   6.796   8.310 -0.3672  0.2223 -0.1596
  189POPC   H9121780   3.555   6.777   8.304 -0.3746  0.3211 -0.3288
  189POPC  C21021781   3.727   6.850   8.206 -0.5487  0.0659  0.6174
  189POPC  H10121782   3.680   6.877   8.110  0.0981  2.0470  0.7898
  189POPC  C21121783   3.878   6.865   8.207 -0.5554 -0.3480  0.2906
  189POPC  H11R21784   3.931   6.788   8.267 -0.8435 -0.0195  0.9799
  189POPC  H11S21785   3.895   6.958   8.264  1.1539  0.7634 -1.9003
  189POPC  C21221786   3.925   6.858   8.062  1.0406  0.3336  0.4728
  189POPC  H12R21787   3.887   6.941   8.000  0.7436 -0.6709 -0.7295
  189POPC  H12S21788   3.889   6.763   8.017  2.8252 -0.1376 -0.0361
  189POPC  C21321789   4.079   6.843   8.047  0.3161 -0.8331  0.0271
  189POPC  H13R21790   4.127   6.759   8.101  0.3155 -0.8811 -0.0474
  189POPC  H13S21791   4.119   6.932   8.099 -0.3266  0.3811 -1.4786
  189POPC  C21421792   4.126   6.831   7.901 -0.3489 -0.5863 -0.1959
  189POPC  H14R21793   4.094   6.731   7.865 -1.0562 -0.7625  0.8656
  189POPC  H14S21794   4.236   6.824   7.916 -0.0902  1.3086 -0.9682
  189POPC  C21521795   4.085   6.940   7.798  0.6851 -0.3054  0.0914
  189POPC  H15R21796   4.114   7.038   7.842  0.9147 -0.3073 -0.0549
  189POPC  H15S21797   3.974   6.938   7.786  0.5028 -0.5612  1.5805
  189POPC  C21621798   4.147   6.930   7.657  0.1539 -0.7024  0.1957
  189POPC  H16R21799   4.110   6.831   7.622 -3.6474 -1.0080  4.2157
  189POPC  H16S21800   4.257   6.920   7.671  0.6308  2.1478 -0.9431
  189POPC  C21721801   4.144   7.060   7.571  0.6906 -0.0084 -0.3709
  189POPC  H17R21802   4.178   7.154   7.620  0.3050  0.3720 -0.8298
  189POPC  H17S21803   4.036   7.083   7.558  0.3702  0.0835  1.9387
  189POPC  C21821804   4.209   7.043   7.443  0.0465  0.5588 -0.6917
  189POPC  H18R21805   4.218   6.934   7.426  2.6955  0.6511 -0.2940
  189POPC  H18S21806   4.311   7.083   7.426  1.1879 -1.4321  1.0639
  189POPC  H18T21807   4.154   7.091   7.359 -1.8311 -0.2859 -0.0092
  189POPC   C3321808   3.386   6.092   9.004 -0.6688 -0.5832 -0.2603
  189POPC   H3X21809   3.446   6.182   8.976  0.8480 -1.2127  0.8434
  189POPC   H3Y21810   3.290   6.133   9.042  0.3028 -0.1314  1.8665
  189POPC   C3421811   3.381   5.987   8.891 -0.4416 -0.4710 -0.0159
  189POPC   H4X21812   3.332   6.044   8.809 -3.6168  0.7578  2.4875
  189POPC   H4Y21813   3.305   5.911   8.923  0.6845 -1.9866 -0.8044
  189POPC   C3521814   3.512   5.913   8.851 -0.3959  0.2300 -0.3751
  189POPC   H5X21815   3.579   5.894   8.938  0.5608  2.3005 -0.5969
  189POPC   H5Y21816   3.564   5.967   8.768  0.7748 -2.2195 -1.3314
  189POPC   C3621817   3.475   5.772   8.791  0.2186 -0.1868 -0.2207
  189POPC   H6X21818   3.398   5.781   8.712  1.7530  0.6764 -1.6720
  189POPC   H6Y21819   3.422   5.716   8.872 -1.6396  0.8023 -0.6933
  189POPC   C3721820   3.590   5.701   8.727 -0.8025  0.0630 -0.0122
  189POPC   H7X21821   3.560   5.595   8.709 -0.6629 -0.1471  0.9703
  189POPC   H7Y21822   3.686   5.698   8.782 -0.3767  0.0044 -0.7380
  189POPC   C3821823   3.620   5.763   8.583  0.6950  0.9751  0.4727
  189POPC   H8X21824   3.728   5.750   8.561  0.2831 -0.1916 -1.0139
  189POPC   H8Y21825   3.601   5.872   8.577  0.7236  0.9855  0.5647
  189POPC   C3921826   3.543   5.684   8.474 -0.1040  0.3451 -0.3608
  189POPC   H9X21827   3.432   5.693   8.484 -0.3559  2.3891 -3.4835
  189POPC   H9Y21828   3.577   5.579   8.479  2.6100  1.1832 -0.0519
  189POPC  C31021829   3.556   5.739   8.333  0.1244 -0.2537 -0.3702
  189POPC  H10X21830   3.536   5.646   8.276  0.8893 -2.0230  2.1025
  189POPC  H10Y21831   3.658   5.781   8.322  0.6816 -0.4575  2.9813
  189POPC  C31121832   3.457   5.850   8.284  0.4261  0.7742 -0.6186
  189POPC  H11X21833   3.424   5.901   8.377 -0.5980  0.6810 -0.9182
  189POPC  H11Y21834   3.376   5.784   8.244 -1.0136  2.8234 -1.2719
  189POPC  C31221835   3.511   5.944   8.176  0.1550 -0.5377 -0.2762
  189POPC  H12X21836   3.576   5.906   8.094 -0.5303  1.0290 -1.6098
  189POPC  H12Y21837   3.579   6.019   8.221  2.2207 -1.1782 -2.1550
  189POPC  C31321838   3.397   6.029   8.109  0.4197  0.4057 -0.1396
  189POPC  H13X21839   3.453   6.117   8.070  0.4297 -0.4033 -2.1012
  189POPC  H13Y21840   3.330   6.066   8.189  2.3753  2.9444  0.4502
  189POPC  C31421841   3.317   5.970   7.990 -0.7366 -1.0344 -0.5214
  189POPC  H14X21842   3.385   5.919   7.919  1.0613  1.0594 -0.4206
  189POPC  H14Y21843   3.272   6.054   7.933 -1.2041 -0.9222 -0.0052
  189POPC  C31521844   3.209   5.884   8.046  0.8136  1.4299  0.8061
  189POPC  H15X21845   3.170   5.935   8.137  0.5520 -0.0999  1.5885
  189POPC  H15Y21846   3.257   5.792   8.084 -0.4817  0.5164  0.3044
  189POPC  C31621847   3.096   5.850   7.947  0.5987 -0.2032  0.4611
  189POPC  H16X21848   3.072   5.945   7.895 -0.4608  0.2069  1.6336
  189POPC  H16Y21849   3.016   5.802   8.007 -0.3911  0.3862 -0.3747
  189POPC  H16Z21850   3.128   5.771   7.876 -1.5504 -0.6086 -0.1070
  190POPC     N21851   6.490   2.631   9.994 -0.4326 -0.1651  0.3377
  190POPC   C1221852   6.516   2.641   9.846  0.1179  0.7512 -0.6401
  190POPC  H12A21853   6.570   2.550   9.825  1.6384  0.8487  2.2335
  190POPC  H12B21854   6.583   2.725   9.833 -0.4314  1.3762  0.3826
  190POPC   C1321855   6.443   2.763  10.034  0.6763 -0.4086  0.7877
  190POPC  H13A21856   6.357   2.793   9.977  2.1104 -0.7224 -1.6682
  190POPC  H13B21857   6.425   2.759  10.141  3.2206  0.2370  1.3075
  190POPC  H13C21858   6.520   2.839  10.028  1.1978 -1.0409 -1.4439
  190POPC   C1421859   6.386   2.531  10.033  0.3871  0.5442 -0.1789
  190POPC  H14A21860   6.383   2.534  10.141  0.3142  1.7642 -0.2083
  190POPC  H14B21861   6.287   2.566  10.012 -0.0376 -1.0760 -1.0289
  190POPC  H14C21862   6.400   2.432   9.992  0.2379  1.5470 -2.8197
  190POPC   C1521863   6.620   2.615  10.077 -0.3923 -0.6438 -0.0696
  190POPC  H15A21864   6.677   2.531  10.041  0.1547  0.2189 -1.2808
  190POPC  H15B21865   6.603   2.610  10.184 -0.1020  1.3170  0.1084
  190POPC  H15C21866   6.688   2.695  10.053  1.2070 -2.2231 -0.9732
  190POPC   C1121867   6.401   2.659   9.745 -0.1743 -0.1469 -0.0566
  190POPC  H11A21868   6.342   2.565   9.749  1.5873 -1.3516 -1.3189
  190POPC  H11B21869   6.452   2.652   9.647  0.7894  1.7253  0.2597
  190POPC     P21870   6.352   2.916   9.694  0.1033  0.5388 -0.5944
  190POPC   O1321871   6.491   2.941   9.736 -0.7717  0.0914 -0.3497
  190POPC   O1421872   6.244   3.015   9.732 -1.0098  0.4161 -0.2795
  190POPC   O1221873   6.314   2.777   9.758  0.3895  0.1141 -0.4237
  190POPC   O1121874   6.344   2.893   9.546 -0.5659  0.0372 -0.1092
  190POPC    C121875   6.248   2.819   9.469 -0.2409  0.0868  0.2819
  190POPC    HA21876   6.146   2.853   9.496 -0.3009 -0.5144  0.8382
  190POPC    HB21877   6.248   2.711   9.497 -1.2584  0.0657  0.2327
  190POPC    C221878   6.275   2.827   9.317  0.0953  0.3634  0.3547
  190POPC    HS21879   6.222   2.744   9.266  0.8527  0.0694  0.0311
  190POPC   O2121880   6.417   2.811   9.298 -0.1209 -0.0309  0.4461
  190POPC   C2121881   6.470   2.694   9.323  0.4322  0.0898  0.8287
  190POPC   O2221882   6.413   2.594   9.358 -0.1849 -0.0537 -0.0350
  190POPC   C2221883   6.618   2.706   9.328 -0.0787  0.8807 -0.1591
  190POPC   H2R21884   6.661   2.604   9.331 -0.3236  0.7680 -0.4132
  190POPC   H2S21885   6.657   2.767   9.413 -0.6985  0.8774  0.1348
  190POPC    C321886   6.220   2.963   9.258  0.1702 -0.1446 -0.2902
  190POPC    HX21887   6.271   3.045   9.314  2.4801  0.2667 -2.8067
  190POPC    HY21888   6.111   2.957   9.275  0.2374  0.0145  0.2378
  190POPC   O3121889   6.247   2.971   9.116  0.2497  0.0276  0.4202
  190POPC   C3121890   6.195   3.078   9.056 -0.2175 -0.4808 -0.3351
  190POPC   O3221891   6.137   3.173   9.116  0.3058  0.2943 -0.0563
  190POPC   C3221892   6.206   3.064   8.900  0.9191  0.0618 -0.1037
  190POPC   H2X21893   6.158   2.965   8.882 -0.8802  0.3951  2.3511
  190POPC   H2Y21894   6.313   3.062   8.871  0.5181  1.1571 -1.8154
  190POPC   C2321895   6.673   2.768   9.196  1.0185 -0.3309  0.2945
  190POPC   H3R21896   6.773   2.802   9.228  0.9065 -0.9738  1.3686
  190POPC   H3S21897   6.616   2.859   9.167  1.2993 -0.3972 -0.4766
  190POPC   C2421898   6.674   2.666   9.082 -0.0417 -0.4483 -0.6843
  190POPC   H4R21899   6.711   2.573   9.129 -0.3924 -0.9101 -1.3106
  190POPC   H4S21900   6.753   2.697   9.011 -0.0158 -1.7415 -1.2353
  190POPC   C2521901   6.546   2.633   9.000 -0.3011 -0.3119 -0.7037
  190POPC   H5R21902   6.474   2.609   9.081 -0.9606  1.5905 -0.6671
  190POPC   H5S21903   6.576   2.554   8.928 -2.0613 -0.4009 -1.4083
  190POPC   C2621904   6.509   2.759   8.911  0.0095 -0.0508 -0.0740
  190POPC   H6R21905   6.605   2.806   8.883  1.2756 -2.1417  0.5460
  190POPC   H6S21906   6.456   2.833   8.975 -0.3046  0.2050 -0.6244
  190POPC   C2721907   6.428   2.725   8.788 -0.0205  0.0338  0.2600
  190POPC   H7R21908   6.322   2.706   8.818 -0.2027 -2.5601 -1.6698
  190POPC   H7S21909   6.461   2.634   8.734 -0.8773 -1.0869  1.5458
  190POPC   C2821910   6.447   2.841   8.687 -0.5338 -0.1533 -0.1023
  190POPC   H8R21911   6.412   2.938   8.727 -0.4962  0.0473 -0.5457
  190POPC   H8S21912   6.378   2.826   8.601 -0.2432 -0.7469 -0.2409
  190POPC   C2921913   6.590   2.849   8.635 -0.9741 -0.1608  0.4887
  190POPC   H9121914   6.652   2.937   8.659 -1.9764  0.6361  0.2158
  190POPC  C21021915   6.656   2.751   8.565  0.2305 -0.8632  0.3828
  190POPC  H10121916   6.760   2.771   8.535 -0.7029  2.1379 -1.2479
  190POPC  C21121917   6.598   2.622   8.507  0.2483 -0.3638 -0.3209
  190POPC  H11R21918   6.488   2.618   8.527  0.1204  0.0850 -0.9138
  190POPC  H11S21919   6.645   2.529   8.546 -0.0571 -1.7923 -3.0863
  190POPC  C21221920   6.625   2.633   8.360 -0.1646 -0.6144 -0.2550
  190POPC  H12R21921   6.731   2.666   8.345 -0.5614  1.8170  1.5496
  190POPC  H12S21922   6.573   2.726   8.328 -1.4529 -0.8017  1.1918
  190POPC  C21321923   6.587   2.511   8.279  0.2145  0.3415 -0.3484
  190POPC  H13R21924   6.477   2.516   8.261 -0.0010  1.8448  1.1306
  190POPC  H13S21925   6.609   2.424   8.345  1.6493  0.9647  0.0334
  190POPC  C21421926   6.665   2.484   8.155 -0.2727 -1.2804  0.3197
  190POPC  H14R21927   6.768   2.455   8.184 -0.5204 -1.4594  1.0522
  190POPC  H14S21928   6.666   2.578   8.095 -2.6735 -0.4336  1.4538
  190POPC  C21521929   6.595   2.377   8.069  1.1309  0.3351 -0.0594
  190POPC  H15R21930   6.508   2.411   8.009  1.4082 -0.3013 -0.8286
  190POPC  H15S21931   6.553   2.299   8.136  0.6566 -0.0913 -0.8400
  190POPC  C21621932   6.684   2.304   7.963  0.2670 -0.8103 -0.0708
  190POPC  H16R21933   6.771   2.254   8.010 -0.1509 -0.9638  0.5549
  190POPC  H16S21934   6.714   2.387   7.895 -1.2923 -0.7389 -0.7109
  190POPC  C21721935   6.610   2.201   7.875 -0.9168  0.8926 -0.7790
  190POPC  H17R21936   6.508   2.241   7.856 -2.2457 -1.8571  0.0453
  190POPC  H17S21937   6.567   2.116   7.931  0.2718  1.2961  0.8326
  190POPC  C21821938   6.668   2.170   7.739  0.0760 -0.7451  0.3857
  190POPC  H18R21939   6.715   2.262   7.697  2.1023 -1.6431  0.5693
  190POPC  H18S21940   6.596   2.119   7.671 -0.6968  0.0854  0.5616
  190POPC  H18T21941   6.751   2.096   7.740 -0.0038 -0.8707 -0.6991
  190POPC   C3321942   6.128   3.170   8.826  0.4952 -0.4815  0.2019
  190POPC   H3X21943   6.176   3.268   8.848  0.3197 -0.4846  0.6114
  190POPC   H3Y21944   6.025   3.169   8.867  0.6931 -2.8357  0.8006
  190POPC   C3421945   6.130   3.165   8.667 -0.3569 -0.1734 -0.3933
  190POPC   H4X21946   6.225   3.211   8.632 -0.8728  1.4146  0.1707
  190POPC   H4Y21947   6.055   3.241   8.635  1.2105  1.7524  0.3102
  190POPC   C3521948   6.102   3.037   8.597 -0.4340  0.7931  0.0938
  190POPC   H5X21949   6.006   2.992   8.630 -1.1270  1.0794 -1.4358
  190POPC   H5Y21950   6.184   2.965   8.619 -0.6158  0.2448 -0.9474
  190POPC   C3621951   6.087   3.062   8.445  0.1520  0.0149 -0.3742
  190POPC   H6X21952   6.004   3.135   8.432 -1.0002 -1.1950 -0.0548
  190POPC   H6Y21953   6.038   2.976   8.395 -3.0771  1.9474 -0.8952
  190POPC   C3721954   6.209   3.118   8.372  0.0227  0.3621  0.0552
  190POPC   H7X21955   6.290   3.045   8.388 -0.7655 -0.6061 -0.2722
  190POPC   H7Y21956   6.246   3.216   8.409  1.3262  0.3268 -1.0848
  190POPC   C3821957   6.202   3.110   8.217  0.4632 -0.1153  0.3012
  190POPC   H8X21958   6.160   3.197   8.163  2.6535  0.2267 -0.9568
  190POPC   H8Y21959   6.137   3.026   8.183 -0.3804  1.4404 -2.1678
  190POPC   C3921960   6.339   3.078   8.150  0.3424 -0.4660  0.3461
  190POPC   H9X21961   6.379   2.989   8.204  1.0878  0.1945  0.9120
  190POPC   H9Y21962   6.410   3.162   8.166 -1.2567  0.2522  6.0919
  190POPC  C31021963   6.327   3.044   8.000 -0.0275 -0.3511 -0.1975
  190POPC  H10X21964   6.303   3.146   7.962  0.4718  0.8925  2.5281
  190POPC  H10Y21965   6.239   2.985   7.966 -0.7665  1.3880 -1.4313
  190POPC  C31121966   6.456   2.974   7.944  0.2320  0.7212  0.1735
  190POPC  H11X21967   6.471   2.877   7.997  0.6057  2.8348  4.2441
  190POPC  H11Y21968   6.538   3.040   7.978  1.9113 -1.0143 -0.3428
  190POPC  C31221969   6.460   2.979   7.793  0.2879  0.3130  0.1903
  190POPC  H12X21970   6.357   2.956   7.756  0.4361 -0.3958  0.2074
  190POPC  H12Y21971   6.527   2.905   7.745  0.3426  1.1811 -1.1389
  190POPC  C31321972   6.509   3.116   7.731 -0.1379 -0.5974 -0.5732
  190POPC  H13X21973   6.600   3.151   7.785  0.1914 -2.3679  0.0810
  190POPC  H13Y21974   6.432   3.196   7.730  0.8137  0.4460 -4.3136
  190POPC  C31421975   6.536   3.101   7.575 -0.6694  0.2088  0.6644
  190POPC  H14X21976   6.439   3.099   7.521 -0.1941  1.5521 -0.2994
  190POPC  H14Y21977   6.594   3.009   7.555 -2.1881 -0.2352 -2.2848
  190POPC  C31521978   6.609   3.231   7.512  0.0246 -0.3176  0.0990
  190POPC  H15X21979   6.686   3.261   7.585 -0.5437  1.9522 -0.1376
  190POPC  H15Y21980   6.537   3.316   7.518  1.2919  0.6473  2.6588
  190POPC  C31621981   6.653   3.211   7.366  0.4675 -0.1134  0.0033
  190POPC  H16X21982   6.564   3.190   7.302 -0.5243 -2.3210  1.9245
  190POPC  H16Y21983   6.713   3.117   7.363 -0.0690 -0.4505 -0.4868
  190POPC  H16Z21984   6.721   3.296   7.345  0.0280  0.7312  1.7924
  191POPC     N21985   3.875   4.437   5.838 -0.4703  0.1879  0.5467
  191POPC   C1221986   3.917   4.330   5.935 -0.5779 -0.3817 -0.4475
  191POPC  H12A21987   3.913   4.236   5.883  0.3463 -0.4651 -0.3797
  191POPC  H12B21988   3.853   4.329   6.022  2.4027 -0.9900  1.8986
  191POPC   C1321989   3.891   4.572   5.896 -0.1898 -0.5492 -0.0467
  191POPC  H13A21990   3.989   4.595   5.936 -0.5865 -0.1927  0.7433
  191POPC  H13B21991   3.880   4.646   5.818  1.2988 -0.1595  0.0672
  191POPC  H13C21992   3.822   4.585   5.978 -0.4059 -0.8495 -0.1782
  191POPC   C1421993   3.970   4.439   5.721 -0.0171 -0.0805 -0.1641
  191POPC  H14A21994   4.066   4.461   5.764  0.0124 -2.7081  1.3460
  191POPC  H14B21995   3.987   4.342   5.676 -1.6873  0.1425 -1.3884
  191POPC  H14C21996   3.937   4.510   5.647  2.2970  1.6255  0.3198
  191POPC   C1521997   3.738   4.418   5.792 -0.0016 -0.2604  0.1175
  191POPC  H15A21998   3.710   4.500   5.727  1.9484 -1.3235 -2.2082
  191POPC  H15B21999   3.674   4.411   5.878 -0.3989 -2.0445 -0.2892
  191POPC  H15C22000   3.726   4.322   5.743 -1.4580 -0.3340  0.5805
  191POPC   C1122001   4.063   4.327   5.991  0.2862  0.6454 -0.1452
  191POPC  H11A22002   4.078   4.261   6.080 -0.5968 -0.2143 -0.6110
  191POPC  H11B22003   4.086   4.428   6.031  1.3741  0.5006 -0.3780
  191POPC     P22004   4.152   4.123   5.850 -0.1279 -0.3718 -0.0846
  191POPC   O1322005   4.236   4.092   5.733 -0.2122  0.9749 -0.1829
  191POPC   O1422006   4.010   4.070   5.850 -0.2379  0.0826  0.1028
  191POPC   O1222007   4.154   4.284   5.887  0.3382  0.4665  0.3209
  191POPC   O1122008   4.224   4.062   5.972  0.9932  0.1553  0.0860
  191POPC    C122009   4.349   4.111   6.027 -0.0675 -0.0552  0.9767
  191POPC    HA22010   4.326   4.156   6.126  2.1460 -1.0399  1.9965
  191POPC    HB22011   4.400   4.184   5.962 -0.3872  1.3141  2.1986
  191POPC    C222012   4.448   3.993   6.060 -0.0873 -0.1877  0.1191
  191POPC    HS22013   4.477   3.955   5.960  2.6039  1.0850  0.3199
  191POPC   O2122014   4.388   3.879   6.132  0.8309  0.0269  0.5360
  191POPC   C2122015   4.461   3.770   6.143  0.4420 -0.1223  0.0911
  191POPC   O2222016   4.560   3.746   6.079  0.4166 -0.2275  0.1743
  191POPC   C2222017   4.399   3.666   6.239 -0.2036 -0.4965 -0.8117
  191POPC   H2R22018   4.316   3.620   6.181 -0.3409 -0.2360 -0.8246
  191POPC   H2S22019   4.359   3.722   6.326  1.2381 -1.7228  0.6952
  191POPC    C322020   4.587   4.036   6.129 -0.0846  0.8609  0.4152
  191POPC    HX22021   4.637   4.101   6.054  0.0310 -0.4778 -0.7241
  191POPC    HY22022   4.647   3.944   6.143 -1.4117 -0.2327 -0.7176
  191POPC   O3122023   4.557   4.110   6.249 -0.1799  0.0809 -0.0806
  191POPC   C3122024   4.591   4.057   6.366  0.1956  0.3144  0.1708
  191POPC   O3222025   4.635   3.943   6.385 -0.2181  0.0203 -0.4384
  191POPC   C3222026   4.540   4.149   6.478 -0.3843  0.3187 -0.0939
  191POPC   H2X22027   4.431   4.157   6.460 -0.5739  0.5159  1.0642
  191POPC   H2Y22028   4.580   4.252   6.468 -2.3174  1.2507  1.1903
  191POPC   C2322029   4.490   3.551   6.295 -0.1229 -0.0328  0.1728
  191POPC   H3R22030   4.529   3.494   6.208 -3.2462 -3.6533  0.8509
  191POPC   H3S22031   4.424   3.472   6.337 -0.0230 -0.5518 -0.6130
  191POPC   C2422032   4.597   3.591   6.394  0.2962 -0.1631  0.7667
  191POPC   H4R22033   4.666   3.669   6.356 -1.5046  0.7999 -0.6467
  191POPC   H4S22034   4.656   3.499   6.417 -1.5517 -1.4936  0.3570
  191POPC   C2522035   4.544   3.632   6.536 -0.1538 -0.6546  0.1188
  191POPC   H5R22036   4.491   3.730   6.530  1.3105  0.1858  0.3605
  191POPC   H5S22037   4.634   3.641   6.600  0.6545 -2.8533 -0.6219
  191POPC   C2622038   4.450   3.517   6.595  0.6802 -0.1271 -0.2187
  191POPC   H6R22039   4.488   3.419   6.559 -0.5233 -1.0727  0.9526
  191POPC   H6S22040   4.351   3.544   6.553 -0.4188 -0.7950  1.7805
  191POPC   C2722041   4.443   3.501   6.748  0.0235 -0.1860  0.0672
  191POPC   H7R22042   4.549   3.495   6.780 -0.0252 -0.9710  0.1158
  191POPC   H7S22043   4.402   3.398   6.757  1.2147 -0.5766  1.3737
  191POPC   C2822044   4.352   3.599   6.811  0.8341 -0.0846  0.3268
  191POPC   H8R22045   4.257   3.602   6.753  1.0574  0.1277 -0.0296
  191POPC   H8S22046   4.393   3.702   6.807  1.3451 -0.3167 -0.8805
  191POPC   C2922047   4.326   3.569   6.959 -1.0477  0.3038 -0.2925
  191POPC   H9122048   4.420   3.535   7.005 -1.0107 -0.1100 -0.6710
  191POPC  C21022049   4.210   3.558   7.023  0.4063 -0.0509 -0.6259
  191POPC  H10122050   4.212   3.514   7.124 -2.1354  0.4985 -0.2655
  191POPC  C21122051   4.075   3.585   6.966 -0.2973  1.2697  0.0081
  191POPC  H11R22052   3.997   3.554   7.038 -0.7602 -0.8348 -1.3219
  191POPC  H11S22053   4.062   3.527   6.872 -1.1719 -0.4898  1.1785
  191POPC  C21222054   4.053   3.735   6.935  0.1904  0.0656 -0.4315
  191POPC  H12R22055   3.948   3.737   6.899  0.1226 -0.2781 -0.2605
  191POPC  H12S22056   4.113   3.762   6.845  0.5015  1.9018  0.2783
  191POPC  C21322057   4.082   3.826   7.051 -0.1211 -0.2068  0.0523
  191POPC  H13R22058   4.192   3.844   7.061 -0.3111  3.7881 -2.7693
  191POPC  H13S22059   4.032   3.787   7.142 -2.8535  1.2820 -0.7201
  191POPC  C21422060   4.042   3.972   7.018 -0.5449 -0.1698  0.4664
  191POPC  H14R22061   4.102   4.046   7.075 -1.2667  0.6300  0.2135
  191POPC  H14S22062   3.936   3.989   7.047 -0.6848 -0.5650  0.1895
  191POPC  C21522063   4.062   4.020   6.872 -0.8059 -0.0345  0.7356
  191POPC  H15R22064   3.985   3.976   6.806  0.3648  2.0285 -2.2384
  191POPC  H15S22065   4.158   3.981   6.832 -1.2048  0.6775 -1.0022
  191POPC  C21622066   4.071   4.170   6.868 -0.0213 -0.9018  0.3266
  191POPC  H16R22067   4.137   4.212   6.947 -0.4156  1.6824 -0.6187
  191POPC  H16S22068   3.969   4.209   6.887 -0.2940 -0.5068 -1.6924
  191POPC  C21722069   4.112   4.221   6.737  0.2270 -0.0638 -0.4280
  191POPC  H17R22070   4.048   4.169   6.663 -3.9937  1.5290  1.7670
  191POPC  H17S22071   4.218   4.192   6.723  0.9808  1.9701  0.6137
  191POPC  C21822072   4.099   4.374   6.725  0.0731  0.3619  0.1038
  191POPC  H18R22073   4.147   4.421   6.813 -1.0082  0.5999  0.5866
  191POPC  H18S22074   3.997   4.416   6.737  0.4162  1.2737 -0.0897
  191POPC  H18T22075   4.147   4.407   6.630  0.8809 -1.5183 -0.1928
  191POPC   C3322076   4.567   4.083   6.616  0.0613  0.0706 -0.1987
  191POPC   H3X22077   4.670   4.042   6.613  0.1953  0.4299 -2.5461
  191POPC   H3Y22078   4.506   3.992   6.635  0.1415  0.0712  0.0694
  191POPC   C3422079   4.552   4.178   6.737  0.2685 -0.3711 -0.1954
  191POPC   H4X22080   4.459   4.239   6.729  0.1050 -0.4229  1.0259
  191POPC   H4Y22081   4.640   4.245   6.744  1.4581 -1.9469  0.3084
  191POPC   C3522082   4.563   4.104   6.877 -0.2666 -0.2970 -0.7193
  191POPC   H5X22083   4.539   4.173   6.961  0.4383 -0.9488  0.0277
  191POPC   H5Y22084   4.669   4.072   6.886 -0.4060 -0.2024  1.9323
  191POPC   C3622085   4.486   3.973   6.877  0.3605 -1.1035  0.1832
  191POPC   H6X22086   4.548   3.897   6.823  0.0435 -0.5662 -0.9754
  191POPC   H6Y22087   4.398   3.990   6.812  0.0042 -2.1490  0.3802
  191POPC   C3722088   4.430   3.922   7.016 -0.0582 -0.3908  0.2365
  191POPC   H7X22089   4.370   3.833   6.991 -2.3298  0.9337  0.6856
  191POPC   H7Y22090   4.362   4.006   7.041  1.4032  0.7663  0.4785
  191POPC   C3822091   4.549   3.893   7.103  0.3085 -0.2463  0.2780
  191POPC   H8X22092   4.515   3.912   7.207  3.7628 -2.8904  2.1031
  191POPC   H8Y22093   4.635   3.963   7.094 -0.5282  0.5843 -1.9811
  191POPC   C3922094   4.588   3.742   7.119 -0.3994 -0.5495 -0.2696
  191POPC   H9X22095   4.599   3.695   7.018 -1.2754  0.8366 -1.0435
  191POPC   H9Y22096   4.512   3.688   7.179  1.0937  0.4259  2.6466
  191POPC  C31022097   4.714   3.725   7.207  0.3284 -0.2497  0.1081
  191POPC  H10X22098   4.699   3.790   7.296 -3.2394 -1.4079  0.5000
  191POPC  H10Y22099   4.802   3.761   7.149  0.2798 -0.8271 -0.3289
  191POPC  C31122100   4.732   3.584   7.261  0.2859 -0.5524  0.4258
  191POPC  H11X22101   4.836   3.583   7.301 -0.1233 -1.1154  1.5070
  191POPC  H11Y22102   4.735   3.520   7.170  1.3636 -0.0123  0.0632
  191POPC  C31222103   4.637   3.534   7.367  0.0807  0.6226 -0.4651
  191POPC  H12X22104   4.536   3.519   7.324  0.1901  1.3221 -0.9745
  191POPC  H12Y22105   4.620   3.608   7.448  0.0083  0.2917 -0.1746
  191POPC  C31322106   4.681   3.404   7.434 -0.5492  0.3736  0.5323
  191POPC  H13X22107   4.790   3.429   7.435 -0.8552  1.8656  1.8018
  191POPC  H13Y22108   4.666   3.315   7.370  1.0377  0.6766 -0.3173
  191POPC  C31422109   4.631   3.377   7.578 -0.3223  0.5694 -0.4579
  191POPC  H14X22110   4.666   3.466   7.636 -0.2041  0.6946 -0.7206
  191POPC  H14Y22111   4.691   3.297   7.626  0.1988  1.2462  0.0373
  191POPC  C31522112   4.481   3.350   7.593 -0.1627  0.3440  0.2466
  191POPC  H15X22113   4.448   3.252   7.550  0.0883  0.0299  0.7602
  191POPC  H15Y22114   4.416   3.423   7.540 -0.1351 -0.5359 -1.0554
  191POPC  C31622115   4.439   3.353   7.733  0.5657 -0.2529  0.1756
  191POPC  H16X22116   4.330   3.331   7.744  0.7663 -1.4205 -0.0270
  191POPC  H16Y22117   4.442   3.458   7.768 -0.1464 -0.2149  0.1437
  191POPC  H16Z22118   4.503   3.285   7.792  2.3034  0.9062 -0.3041
  192POPC     N22119   2.817   6.522   5.407  0.9284  0.0348 -0.3000
  192POPC   C1222120   2.808   6.616   5.527 -0.7983 -0.1589  0.5778
  192POPC  H12A22121   2.713   6.666   5.514 -0.7951 -0.0049  1.1392
  192POPC  H12B22122   2.885   6.691   5.529  0.5608 -1.4881 -0.2095
  192POPC   C1322123   2.831   6.603   5.284 -0.2440 -0.1070  0.2709
  192POPC  H13A22124   2.914   6.672   5.287 -1.4786  1.4760 -0.5976
  192POPC  H13B22125   2.846   6.546   5.193  2.8406  1.1662 -0.1665
  192POPC  H13C22126   2.755   6.679   5.276  0.4163  0.4957 -0.5502
  192POPC   C1422127   2.933   6.431   5.423  0.1209  0.2132 -0.3426
  192POPC  H14A22128   3.022   6.491   5.438 -0.0935  0.2478  0.9076
  192POPC  H14B22129   2.917   6.363   5.506 -1.3853  2.6243  1.4720
  192POPC  H14C22130   2.952   6.383   5.328  2.0888 -0.3876  0.3068
  192POPC   C1522131   2.697   6.435   5.396  0.0008  0.1548 -0.2313
  192POPC  H15A22132   2.710   6.363   5.316  2.6983  1.2252 -0.8742
  192POPC  H15B22133   2.616   6.498   5.362  0.9830  2.6512  1.7779
  192POPC  H15C22134   2.667   6.381   5.484  0.1469 -0.3273 -0.4732
  192POPC   C1122135   2.808   6.558   5.663 -0.3996 -0.1852  0.4888
  192POPC  H11A22136   2.725   6.484   5.664  0.5416 -1.2621  0.7208
  192POPC  H11B22137   2.778   6.632   5.741 -2.4475 -3.5863  3.2575
  192POPC     P22138   2.951   6.367   5.772  0.3180  0.5016  0.1374
  192POPC   O1322139   3.089   6.325   5.746 -0.5191  0.4425 -0.5305
  192POPC   O1422140   2.843   6.272   5.729 -0.3126 -0.2691 -0.6419
  192POPC   O1222141   2.936   6.505   5.701  0.1485 -0.4664  0.0592
  192POPC   O1122142   2.932   6.396   5.926 -0.3622  0.3195 -0.4750
  192POPC    C122143   3.004   6.495   6.003 -0.0157 -0.4414  0.2549
  192POPC    HA22144   2.942   6.537   6.084  1.8289  3.1704 -0.0010
  192POPC    HB22145   3.044   6.577   5.939 -2.0686 -1.1696 -2.1401
  192POPC    C222146   3.125   6.432   6.074  0.8644  0.6260  0.8533
  192POPC    HS22147   3.175   6.359   6.007  0.9532  2.0545 -0.7161
  192POPC   O2122148   3.063   6.366   6.187  0.0669  0.4064  0.1048
  192POPC   C2122149   3.102   6.238   6.205  0.0262  0.9988  0.4286
  192POPC   O2222150   3.179   6.176   6.131  0.4569  0.4428  0.0395
  192POPC   C2222151   3.029   6.181   6.331  0.0942  0.2298 -0.0686
  192POPC   H2R22152   3.018   6.269   6.398 -1.9735  0.6137 -0.8501
  192POPC   H2S22153   3.099   6.111   6.381  0.6187  0.0118 -1.0819
  192POPC    C322154   3.232   6.527   6.127  0.0960 -0.5924  0.3333
  192POPC    HX22155   3.258   6.589   6.039  2.0979 -1.9563 -0.0920
  192POPC    HY22156   3.313   6.462   6.167  0.3670  0.1741  1.0695
  192POPC   O3122157   3.185   6.617   6.231 -0.4900 -0.4262  0.7191
  192POPC   C3122158   3.282   6.687   6.292  0.1633 -0.2695  0.6787
  192POPC   O3222159   3.395   6.705   6.252  0.0604 -0.4326 -0.4659
  192POPC   C3222160   3.221   6.741   6.419 -0.0407 -0.5784 -0.1710
  192POPC   H2X22161   3.139   6.807   6.383 -1.1910 -2.1250 -0.5165
  192POPC   H2Y22162   3.308   6.800   6.454  0.3060 -0.5414 -1.0541
  192POPC   C2322163   2.892   6.119   6.299  0.1553  0.0451 -0.1610
  192POPC   H3R22164   2.900   6.038   6.224  1.2959  0.0039 -0.0155
  192POPC   H3S22165   2.830   6.193   6.245  0.6557  0.0363 -0.7549
  192POPC   C2422166   2.818   6.057   6.418 -0.1776 -0.2808  0.4765
  192POPC   H4R22167   2.715   6.038   6.380 -0.0890  1.9618 -1.0247
  192POPC   H4S22168   2.802   6.132   6.499 -2.5603 -0.6233  0.4028
  192POPC   C2522169   2.868   5.924   6.473  0.4229  0.2893  0.5758
  192POPC   H5R22170   2.976   5.928   6.501  0.1751 -1.2158  1.8996
  192POPC   H5S22171   2.855   5.859   6.384 -0.5842  0.6633  0.4444
  192POPC   C2622172   2.791   5.878   6.600  0.0731  0.5822 -0.4718
  192POPC   H6R22173   2.682   5.862   6.585 -0.0295  2.1565 -1.5863
  192POPC   H6S22174   2.793   5.954   6.681 -4.2010 -0.5458  0.9808
  192POPC   C2722175   2.841   5.755   6.661  0.0069  0.4742  0.1563
  192POPC   H7R22176   2.948   5.732   6.640 -1.1531 -2.6097 -3.6538
  192POPC   H7S22177   2.802   5.661   6.617 -0.3317  0.5151  0.3586
  192POPC   C2822178   2.812   5.747   6.817 -0.7845  0.6742  0.0197
  192POPC   H8R22179   2.904   5.787   6.865 -0.4008 -0.1079 -0.0403
  192POPC   H8S22180   2.803   5.643   6.855  0.2319  0.1555 -1.0772
  192POPC   C2922181   2.692   5.822   6.870  0.8374 -0.2668  0.0781
  192POPC   H9122182   2.598   5.808   6.814 -0.3466  0.8499  1.6815
  192POPC  C21022183   2.685   5.897   6.982 -0.0953  0.7765  0.1636
  192POPC  H10122184   2.591   5.949   7.005 -0.4952  0.0585  0.1800
  192POPC  C21122185   2.798   5.931   7.075  0.5589 -0.4076  0.0786
  192POPC  H11R22186   2.901   5.900   7.047  1.7987  0.8168  2.9532
  192POPC  H11S22187   2.770   5.899   7.177 -1.9918  1.5675  0.1252
  192POPC  C21222188   2.817   6.086   7.099 -0.2715 -0.2768  0.2178
  192POPC  H12R22189   2.812   6.134   6.999 -0.8910 -0.7506  0.0241
  192POPC  H12S22190   2.918   6.103   7.143  0.1061 -2.0343  0.0923
  192POPC  C21322191   2.705   6.161   7.186  0.0167  0.5040 -0.4441
  192POPC  H13R22192   2.726   6.127   7.290  2.2996  2.8364 -0.0075
  192POPC  H13S22193   2.600   6.133   7.165 -0.5951  3.1127 -1.3320
  192POPC  C21422194   2.711   6.308   7.189  0.5995  0.1948  0.2364
  192POPC  H14R22195   2.721   6.354   7.088 -1.9211 -0.8334 -0.5601
  192POPC  H14S22196   2.798   6.346   7.246  0.4160  0.5032  0.3168
  192POPC  C21522197   2.579   6.377   7.246 -0.0807  0.4130 -0.0762
  192POPC  H15R22198   2.566   6.321   7.341  4.0591 -1.4864 -0.4030
  192POPC  H15S22199   2.501   6.349   7.172 -0.5580  1.1306  0.1498
  192POPC  C21622200   2.596   6.522   7.250  0.2383 -0.5117  0.4839
  192POPC  H16R22201   2.616   6.567   7.150 -0.6411  0.2343  0.6251
  192POPC  H16S22202   2.673   6.546   7.326  1.9562 -0.1275 -1.2931
  192POPC  C21722203   2.460   6.579   7.303  0.0525  0.8117  0.3909
  192POPC  H17R22204   2.378   6.530   7.247 -0.9377 -0.5024  2.8445
  192POPC  H17S22205   2.441   6.683   7.268 -0.4126  0.5230 -0.2279
  192POPC  C21822206   2.429   6.573   7.457 -0.0677 -0.1113  0.3640
  192POPC  H18R22207   2.497   6.612   7.535  2.9261 -1.8670 -1.2141
  192POPC  H18S22208   2.417   6.466   7.486  0.9276  0.2407  2.1868
  192POPC  H18T22209   2.326   6.613   7.471 -0.2795 -0.5612  0.1178
  192POPC   C3322210   3.173   6.640   6.518 -0.4955 -0.1203  0.4466
  192POPC   H3X22211   3.135   6.546   6.472  1.0062 -0.3275 -0.4402
  192POPC   H3Y22212   3.085   6.667   6.581  0.7481 -0.5106  2.4285
  192POPC   C3422213   3.276   6.607   6.615  0.0125  0.6637 -0.3186
  192POPC   H4X22214   3.261   6.660   6.712 -2.6687  0.9220 -0.8063
  192POPC   H4Y22215   3.372   6.650   6.578 -1.0598  2.4138 -1.2096
  192POPC   C3522216   3.289   6.455   6.643  0.4627 -0.1134  0.3798
  192POPC   H5X22217   3.381   6.448   6.704  0.5779  0.4139  0.2711
  192POPC   H5Y22218   3.303   6.397   6.550 -0.0263  1.5877 -0.8126
  192POPC   C3622219   3.184   6.390   6.728  0.8411  0.3247 -0.1055
  192POPC   H6X22220   3.084   6.412   6.686  1.3567  0.2421 -1.4384
  192POPC   H6Y22221   3.183   6.414   6.836 -2.4603 -2.0452  0.5158
  192POPC   C3722222   3.201   6.234   6.730 -0.0000 -0.1616 -0.1287
  192POPC   H7X22223   3.302   6.207   6.765  1.3352 -0.0860 -3.4999
  192POPC   H7Y22224   3.186   6.199   6.625 -0.7553  1.8396 -0.7364
  192POPC   C3822225   3.088   6.182   6.823  0.8174  0.1148 -0.6338
  192POPC   H8X22226   2.986   6.219   6.799  0.5920 -0.5856 -0.7859
  192POPC   H8Y22227   3.106   6.189   6.933 -1.8939 -0.9967 -0.0361
  192POPC   C3922228   3.077   6.027   6.803  0.2158 -0.3373 -0.2359
  192POPC   H9X22229   3.033   6.005   6.703 -0.2322 -0.9251  0.0845
  192POPC   H9Y22230   3.023   5.981   6.888  0.9752 -3.0686 -1.1119
  192POPC  C31022231   3.221   5.960   6.794  0.3213  0.0657  0.1643
  192POPC  H10X22232   3.293   5.992   6.873 -0.7985 -0.7973  1.5967
  192POPC  H10Y22233   3.258   5.986   6.693 -1.5916 -1.2117 -0.9219
  192POPC  C31122234   3.214   5.809   6.808  0.0706  0.4650 -0.1973
  192POPC  H11X22235   3.307   5.758   6.777 -0.1862 -1.5398  2.0482
  192POPC  H11Y22236   3.119   5.785   6.755  0.4038 -0.7459 -0.2797
  192POPC  C31222237   3.198   5.759   6.947  0.6312 -0.1222  0.0142
  192POPC  H12X22238   3.107   5.805   6.993  0.4690  1.1012 -1.4482
  192POPC  H12Y22239   3.284   5.806   7.000  1.4264 -0.8315 -0.6318
  192POPC  C31322240   3.189   5.604   6.961 -0.4307  0.2487  0.5309
  192POPC  H13X22241   3.284   5.557   6.930 -0.6789  0.1459 -0.0820
  192POPC  H13Y22242   3.104   5.568   6.900 -0.8457 -0.2950  1.4000
  192POPC  C31422243   3.169   5.558   7.105  0.6923 -0.5102 -0.4550
  192POPC  H14X22244   3.067   5.587   7.140  1.1788  0.7911 -0.0325
  192POPC  H14Y22245   3.240   5.604   7.178  0.7203 -1.0554 -0.1337
  192POPC  C31522246   3.183   5.411   7.110  0.1013  0.6068  0.0808
  192POPC  H15X22247   3.288   5.386   7.084 -0.3282 -1.6358  0.3340
  192POPC  H15Y22248   3.116   5.361   7.037  0.8140 -0.2881  0.0239
  192POPC  C31622249   3.164   5.353   7.252 -0.1653  0.0016  0.1758
  192POPC  H16X22250   3.235   5.396   7.326 -0.4293 -0.4433  0.6973
  192POPC  H16Y22251   3.187   5.245   7.251  1.9949  0.4261 -0.2222
  192POPC  H16Z22252   3.063   5.379   7.292 -1.0110 -1.8186 -0.6960
  193SOD    SOD22253   1.685   2.856   2.996  0.2792  0.0052  0.1405
  194SOD    SOD22254   5.731   3.078  14.820  0.0653  0.2293  0.2136
  195SOD    SOD22255   6.457   3.574  10.734 -0.0653  0.3123 -0.1374
  196SOD    SOD22256   4.100   1.866  11.636  0.1233 -0.1756  0.5392
  197SOD    SOD22257   6.769   3.299   3.533 -0.2054  0.1097 -0.0110
  198SOD    SOD22258   3.785   2.670   3.449  0.1369 -0.4540 -0.1363
  199SOD    SOD22259   1.194   2.933  14.873  0.1477  0.1398 -0.3315
  200SOD    SOD22260   4.258   2.848   5.774 -0.2499  0.8660 -0.5114
  201SOD    SOD22261   5.361   1.802   1.108  0.6373 -0.1899 -0.1389
  202SOD    SOD22262   2.105   6.746  10.414 -0.0018 -0.2095 -0.1451
  203SOD    SOD22263   5.430   6.681   2.910  0.6813 -0.2253  0.2054
  204SOD    SOD22264   1.456   5.098  15.647 -0.7888 -0.0877 -0.1569
  205SOD    SOD22265   5.137   5.898  13.785  0.0112  0.1456  0.4333
  206SOD    SOD22266   1.600   0.002  14.887 -0.2364 -0.7738 -0.2935
  207SOD    SOD22267   0.487   5.178  14.387 -0.6225 -0.0295 -0.2917
  208SOD    SOD22268   7.078   4.709  11.903  0.2879  0.1050  0.7056
  209SOD    SOD22269   1.388   1.595   0.703  0.2189  0.2953 -0.5999
  210SOD    SOD22270   6.154   1.601  13.470  0.0764 -0.0681  0.1207
  211SOD    SOD22271   0.441   3.558  12.149  0.3779  0.0358  0.2158
  212SOD    SOD22272   4.397   6.211   1.969 -0.0557 -0.0247 -0.4809
  213SOD    SOD22273   2.981   1.472  15.572 -0.8343  0.0655 -0.4059
  214SOD    SOD22274   5.121   3.450  10.243  0.0561 -0.0934 -0.0644
  215SOD    SOD22275   3.123   4.746  11.963  0.4436  0.0595 -0.1853
  216SOD    SOD22276   4.101   1.592   1.240  0.1680  0.0853  0.1875
  217SOD    SOD22277   4.156   6.636  10.441 -0.0489  0.6672 -0.1672
  218SOD    SOD22278   1.779   5.691  10.004 -0.0383 -0.3408  0.0240
  219SOD    SOD22279   3.626   3.776   2.920 -0.1346 -0.0753  0.2844
  220SOD    SOD22280   5.987   5.325   1.954  0.1779 -0.2113  0.1445
  221SOD    SOD22281   5.541   4.736   5.259  0.0287 -0.0382 -0.1516
  222SOD    SOD22282   5.746   1.649   2.259  0.0749 -0.3305  0.2013
  223SOD    SOD22283   6.937   0.162   0.240  0.0419  0.4426  0.0004
  224SOD    SOD22284   2.520   4.170   3.873  0.3414  0.0969  0.1714
  225SOD    SOD22285   5.257   2.324   9.927 -0.4958  0.1494  0.5405
  226SOD    SOD22286   1.292   4.690   2.315 -0.2134 -0.3868  0.2699
  227SOD    SOD22287   4.951   6.866  10.022 -0.2942 -0.1634 -0.5023
  228SOD    SOD22288   2.449   3.324  12.808  0.6807  0.0297  0.3440
  229SOD    SOD22289   1.358   4.087   5.589 -0.3919  0.6972 -0.1345
  230SOD    SOD22290   5.676   0.222  11.393 -0.2454  0.0807 -0.0031
  231SOD    SOD22291   3.904   3.331   4.854 -0.3863  0.1165 -0.2344
  232SOD    SOD22292   2.952   7.132  10.697 -0.0776 -0.0195  0.3954
  233SOD    SOD22293   3.264   0.423  13.058 -0.2059 -0.6817  0.2122
  234SOD    SOD22294   7.007   6.575   3.554  0.2242  0.4293  0.0067
  235SOD    SOD22295   0.646   5.182   5.849 -0.4601  0.4530  0.0125
  236SOD    SOD22296   1.003   1.436   5.218  0.3787  0.3718 -0.5402
  237SOD    SOD22297   4.488   6.407   5.564 -0.0888  0.4551  0.3391
  238SOD    SOD22298   5.700   0.075  10.041  0.0639  0.5440  0.1120
  239SOD    SOD22299   2.226   1.459   1.881  0.1958  0.0493 -0.3218
  240SOD    SOD22300   3.475   6.602  14.677 -0.4204  0.3933  0.0537
  241SOD    SOD22301   6.293   2.882   5.191  0.2008 -0.1207  0.4851
  242SOD    SOD22302   0.374   1.591  12.996  0.2576 -0.4436  0.0161
  243SOD    SOD22303   4.451   5.804  14.786 -0.2632 -0.1991  0.5530
  244SOD    SOD22304   3.245   6.015   1.198  0.3025 -0.1755 -0.4262
  245SOD    SOD22305   3.444   1.890   5.591  0.2308  0.1434 -0.0785
  246SOD    SOD22306   0.578   3.212  10.353  0.0633  0.5355  0.1288
  247SOD    SOD22307   0.134   6.607  10.826  0.3843  0.5334 -0.7462
  248SOD    SOD22308   3.471   4.626  15.180  0.2741 -0.6324  0.3321
  249SOD    SOD22309   1.129   4.095   2.862 -0.2296 -0.2632 -0.4518
  250SOD    SOD22310   2.675   5.391   2.692  0.2810  0.2442  0.4110
  251SOD    SOD22311   0.196   6.150  11.712  0.1688 -0.2052 -0.6239
  252SOD    SOD22312   5.340   6.883   0.888 -0.1812 -0.0604 -0.6186
  253SOD    SOD22313   2.386   2.308  12.636  0.0865  0.1296  0.1343
  254SOD    SOD22314   0.463   2.245  12.347 -0.4033  0.1915 -0.0814
  255SOD    SOD22315   4.690   6.223  11.189  0.1638 -0.0082 -0.0737
  256SOD    SOD22316   2.797   3.638   3.015  0.1202 -0.3957  0.0903
  257SOD    SOD22317   0.358   6.944   6.006 -0.0336 -0.2107  0.3566
  258SOD    SOD22318   0.070   1.177   0.314 -0.1909  0.0479 -0.1542
  259SOD    SOD22319   4.957   6.603  14.685  0.6015 -0.4944 -0.3953
  260SOD    SOD22320   1.326   4.058  15.294  0.0076  0.2893  0.0388
  261SOD    SOD22321   2.271   5.831  11.727 -0.1773 -0.3691  0.0424
  262SOD    SOD22322   3.365   3.277   4.751 -0.0419  0.4267  0.6590
  263SOD    SOD22323   6.902   5.387  13.508  0.7582 -0.2664  0.0688
  264SOD    SOD22324   3.468   2.739   4.219 -0.2631 -0.2335 -0.1581
  265SOD    SOD22325   6.837   3.331   9.698 -0.1803 -0.3536  0.0427
  266SOD    SOD22326   4.006   0.735  11.736 -0.6477 -0.6536 -0.1787
  267SOD    SOD22327   2.635   2.845   5.732  0.3701 -0.1125 -0.4895
  268SOD    SOD22328   5.202   5.351  10.565 -0.4850 -0.0524  0.0915
  269SOD    SOD22329   1.874   0.759   3.939 -0.2591 -0.2146  0.6997
  270CLA    CLA22330   3.827   3.209   2.476  0.0048  0.0794  0.0339
  271CLA    CLA22331   4.506   3.209  11.538  0.6572  0.2958 -0.5027
  272CLA    CLA22332   3.083   1.406   1.678 -0.5268  0.3799 -0.0631
  273CLA    CLA22333   5.793   0.312   0.789 -0.1932 -0.1834  0.5099
  274CLA    CLA22334   0.702   3.625   2.584  0.3239 -0.2612  0.0802
  275CLA    CLA22335   4.620   1.134   1.144 -0.2700 -0.5755  0.1019
  276CLA    CLA22336   3.487   0.701   4.297  0.2193 -0.3991  0.0917
  277CLA    CLA22337   2.599   4.913   0.289 -0.3222 -0.1671 -0.0373
  278CLA    CLA22338   6.030   0.899   1.384  0.0823 -0.3735  0.3780
  279CLA    CLA22339   5.805   3.274   3.588  0.1175  0.0092  0.2111
  280CLA    CLA22340   4.692   5.637  14.205 -0.1309 -0.0818 -0.0984
  281CLA    CLA22341   0.968   2.038  13.602  0.1084 -0.3995  0.1196
  282CLA    CLA22342   2.223   5.581  11.029 -0.3182 -0.1924 -0.1515
  283CLA    CLA22343   6.625   6.070  12.128 -0.3741 -0.0778  0.3638
  284CLA    CLA22344   6.070   3.642  14.466 -0.0948 -0.2190  0.0216
  285CLA    CLA22345   3.737   2.228  10.837  0.0834  0.1017  0.0358
  286CLA    CLA22346   2.541   1.800   1.921  0.1124 -0.1075  0.0452
  287CLA    CLA22347   2.325   1.582   3.325 -0.0698 -0.2184 -0.3824
  288CLA    CLA22348   5.727   2.789  13.842  0.4755 -0.7632 -0.1375
  289CLA    CLA22349   0.480   0.936   3.548 -0.1820 -0.3350  0.0194
  290CLA    CLA22350   0.694   6.036   4.790  0.1816 -0.1020  0.1262
  291CLA    CLA22351   1.155   4.359   2.777  0.3548  0.1673 -0.2063
  292CLA    CLA22352   1.168   5.920   2.499 -0.0455  0.0489  0.2383
  293CLA    CLA22353   4.068   1.004  12.169 -0.1232  0.1109  0.3562
  294CLA    CLA22354   0.911   6.072  15.106 -0.2251 -0.3891 -0.0233
  295CLA    CLA22355   4.879   2.696   0.190  0.0161 -0.0431 -0.1216
  296CLA    CLA22356   4.461   0.663  14.834  0.3829 -0.1962  0.0902
  297CLA    CLA22357   3.052   0.727  11.745 -0.0965 -0.1915 -0.2927
  298CLA    CLA22358   2.977   4.517  11.878 -0.3921 -0.1066 -0.3022
  299CLA    CLA22359   5.549   6.303   3.154  0.2325  0.1106  0.0866
  300CLA    CLA22360   1.791   1.541  10.263 -0.3696 -0.0049 -0.3856
  301CLA    CLA22361   6.544   3.316  12.021  0.1730 -0.0108 -0.0666
  302CLA    CLA22362   3.823   6.588  14.372 -0.5998 -0.1100  0.3073
  303CLA    CLA22363   3.181   5.735  14.990 -0.0899  0.2020 -0.0135
  304CLA    CLA22364   5.973   3.698   3.046  0.4407  0.1045 -0.4905
  305CLA    CLA22365   0.610   7.086   3.337 -0.6089 -0.3290  0.0307
  306CLA    CLA22366   3.035   6.559   0.908  0.0618  0.0994  0.0793
  307CLA    CLA22367   6.487   6.957   1.621  0.1533  0.2305 -0.4846
  308CLA    CLA22368   1.976   2.688  14.023 -0.1769 -0.1416  0.2232
  309CLA    CLA22369   3.237   5.839   0.321  0.1535 -0.6508  0.1292
  310CLA    CLA22370   7.063   5.715  12.620 -0.1430 -0.1367 -0.0582
  311CLA    CLA22371   4.689   3.939   1.399  0.0025 -0.3378 -0.5363
  312CLA    CLA22372   5.706   0.317  11.919 -0.3118 -0.1954 -0.6673
  313CLA    CLA22373   2.094   6.380  13.072 -0.0323  0.0140 -0.4976
  314CLA    CLA22374   5.964   1.821   4.350  0.1053  0.1474  0.4561
  315CLA    CLA22375   6.278   3.354   4.426 -0.1875 -0.3089  0.0351
  316CLA    CLA22376   0.830   1.345  13.507 -0.2045  0.1684  0.1599
  317CLA    CLA22377   0.577   3.276   0.049 -0.0412 -0.2081 -0.2222
  318CLA    CLA22378   5.048   5.274  11.856  0.0026 -0.0195  0.5010
  319CLA    CLA22379   0.936   4.035  14.573 -0.3386  0.5298 -0.1038
  320CLA    CLA22380   5.385   5.617   0.649 -0.4893 -0.1137  0.1637
  321CLA    CLA22381   4.396   3.455  13.160  0.3069 -0.3368 -0.2087
  322CLA    CLA22382   1.011   3.059  12.249  0.0394  0.1221  0.1221
  323TIP3   OH222383   4.736   5.725  13.897 -0.3957 -0.0389 -0.3085
  323TIP3    H122384   4.667   5.681  13.847  0.1029 -0.7461 -0.3943
  323TIP3    H222385   4.716   5.706  13.988 -0.6094  0.2057 -0.3033
  324TIP3   OH222386   6.993   4.774   5.483 -0.0188  0.4182 -0.3049
  324TIP3    H122387   6.935   4.790   5.557 -0.2184 -0.0014 -0.3637
  324TIP3    H222388   7.080   4.767   5.521  0.0754  1.5469 -0.2724
  325TIP3   OH222389   3.649   5.481  12.223  0.0466 -0.2392  0.2496
  325TIP3    H122390   3.568   5.474  12.274  0.8227  1.5916  1.8611
  325TIP3    H222391   3.633   5.554  12.163  0.4511  0.0549  0.4966
  326TIP3   OH222392   5.359   1.066  10.700 -0.2181  0.3991  0.0165
  326TIP3    H122393   5.280   1.042  10.748 -0.2525 -0.5634 -0.4961
  326TIP3    H222394   5.326   1.104  10.618 -0.1824 -0.7329 -0.5530
  327TIP3   OH222395   6.651   6.334  14.904  0.1392  0.2897 -0.0019
  327TIP3    H122396   6.651   6.358  14.811  0.3984  0.9833  0.1747
  327TIP3    H222397   6.605   6.406  14.947 -0.0749 -0.0839  0.3970
  328TIP3   OH222398   2.704   5.756   2.003  0.2275  0.6158 -0.0939
  328TIP3    H122399   2.755   5.834   2.026  0.0182  0.6544  0.2529
  328TIP3    H222400   2.614   5.779   2.027  0.2703  0.0030  0.6942
  329TIP3   OH222401   6.962   2.170   9.603 -0.1825 -0.1058  0.3042
  329TIP3    H122402   7.034   2.233   9.606 -1.0134  1.1610 -2.7947
  329TIP3    H222403   7.000   2.094   9.558 -0.4156  0.0062 -0.0795
  330TIP3   OH222404   5.112   3.612   4.115 -0.1627 -0.4407  0.0067
  330TIP3    H122405   5.202   3.586   4.095 -0.3697 -1.1127 -0.0808
  330TIP3    H222406   5.108   3.614   4.211 -0.1576 -0.7857  0.0139
  331TIP3   OH222407   4.702   5.132  15.207 -0.1293 -0.2219 -0.1830
  331TIP3    H122408   4.651   5.115  15.286  1.1920 -1.1592  0.5157
  331TIP3    H222409   4.691   5.053  15.154 -1.4625  0.6260 -1.2295
  332TIP3   OH222410   5.653   2.823   9.888  0.7514 -0.0432 -0.6401
  332TIP3    H122411   5.714   2.897   9.891  0.8765 -0.1496  2.1588
  332TIP3    H222412   5.680   2.767   9.961 -2.2245 -0.4461  0.3048
  333TIP3   OH222413   4.220   2.951   4.243  0.6249  0.4384  0.1893
  333TIP3    H122414   4.192   2.860   4.236 -1.4983  1.1366 -1.8655
  333TIP3    H222415   4.239   2.977   4.153  1.7203  1.8824  0.8085
  334TIP3   OH222416   3.724   3.816   0.577  0.0256  0.3771 -0.0631
  334TIP3    H122417   3.636   3.848   0.597 -0.6138  0.0136 -2.0292
  334TIP3    H222418   3.725   3.726   0.610 -0.7134  0.0550 -0.8725
  335TIP3   OH222419   2.152   3.861   1.508  0.2872 -0.4452 -0.0297
  335TIP3    H122420   2.119   3.826   1.426  0.9648  0.6628 -0.7956
  335TIP3    H222421   2.208   3.934   1.483 -2.2513  2.2582  1.4953
  336TIP3   OH222422   7.076   2.532  11.322 -0.3027 -0.0547  0.6442
  336TIP3    H122423   7.165   2.568  11.320 -0.1948 -0.3399 -0.0353
  336TIP3    H222424   7.037   2.563  11.241 -0.7868 -0.0334  0.8839
  337TIP3   OH222425   3.031   2.120  12.170  0.0357 -0.7851 -0.6232
  337TIP3    H122426   3.081   2.182  12.116  0.6714 -0.7864 -0.0423
  337TIP3    H222427   2.948   2.110  12.123 -1.7278  3.3951  1.0503
  338TIP3   OH222428   4.378   4.210  14.199  0.6175  0.4181 -0.2906
  338TIP3    H122429   4.330   4.135  14.164 -0.9824  0.8921  0.7493
  338TIP3    H222430   4.467   4.199  14.167 -0.3075 -0.1745 -2.8639
  339TIP3   OH222431   5.505   3.913  11.914  0.6876  0.3865 -0.0905
  339TIP3    H122432   5.435   3.952  11.863  1.1766  0.4795 -0.7072
  339TIP3    H222433   5.480   3.928  12.005  0.3318  1.1694 -0.3066
  340TIP3   OH222434   5.811   5.860  14.912  0.2352 -0.4423  0.0800
  340TIP3    H122435   5.813   5.955  14.922  0.0822 -0.4809  0.4636
  340TIP3    H222436   5.826   5.825  15.000  0.1013 -0.7720 -0.0252
  341TIP3   OH222437   0.326   3.653   2.403 -0.0617  0.6494 -0.5238
  341TIP3    H122438   0.401   3.704   2.372  0.5468 -0.7446 -1.4096
  341TIP3    H222439   0.266   3.653   2.329 -1.0090  1.7975  0.1942
  342TIP3   OH222440   6.083   0.199  15.471  0.4596  0.7320  0.3490
  342TIP3    H122441   6.144   0.148  15.524  0.3408 -1.4038 -1.4050
  342TIP3    H222442   6.013   0.137  15.449 -0.1444  1.9032 -1.2062
  343TIP3   OH222443   6.511   0.394   3.061 -0.0362 -0.7041 -0.4826
  343TIP3    H122444   6.431   0.348   3.088  0.2732 -0.2601  1.3092
  343TIP3    H222445   6.582   0.336   3.089  0.3095 -0.2403 -0.3928
  344TIP3   OH222446   6.943   1.940  14.261 -0.1418  0.0649  0.0749
  344TIP3    H122447   6.856   1.977  14.273 -0.1867  0.2641 -0.8385
  344TIP3    H222448   6.927   1.849  14.234 -0.0386 -0.3861  1.4326
  345TIP3   OH222449   1.624   0.828  10.747 -0.6830  0.6008 -0.3832
  345TIP3    H122450   1.529   0.820  10.738 -0.6631 -0.5172  0.2003
  345TIP3    H222451   1.656   0.828  10.656 -1.0757 -1.8538 -0.6148
  346TIP3   OH222452   5.446   1.497  10.899  0.0179 -0.6997 -0.5397
  346TIP3    H122453   5.429   1.460  10.812  0.6516  0.5988 -1.2313
  346TIP3    H222454   5.501   1.432  10.942 -1.0150 -1.7624 -0.7740
  347TIP3   OH222455   4.711   0.587   4.796 -0.2010 -0.6122  0.3120
  347TIP3    H122456   4.703   0.560   4.705  2.4727 -1.0964  0.1349
  347TIP3    H222457   4.784   0.535   4.830 -1.2304 -0.5603  2.7967
  348TIP3   OH222458   5.375   6.462  11.843 -0.1368 -0.2759 -0.1482
  348TIP3    H122459   5.324   6.383  11.824  1.8026 -1.4968 -0.5937
  348TIP3    H222460   5.340   6.528  11.784 -1.7385 -0.8100  0.1512
  349TIP3   OH222461   0.982   3.110   0.952 -0.6295  0.0693 -0.5938
  349TIP3    H122462   0.938   3.098   1.037 -0.2049 -0.4811 -0.4431
  349TIP3    H222463   0.969   3.027   0.907  2.3540 -1.1197  0.4580
  350TIP3   OH222464   0.034   1.403  10.806 -0.0540  0.5057 -0.0466
  350TIP3    H122465   0.065   1.492  10.789  2.8898 -0.6328 -1.4266
  350TIP3    H222466   0.040   1.360  10.721 -2.6365 -0.7564  0.3187
  351TIP3   OH222467   6.377   4.835   0.326 -0.0156 -0.6617 -0.2111
  351TIP3    H122468   6.394   4.875   0.411  0.8659 -2.6620  0.5963
  351TIP3    H222469   6.289   4.865   0.303  0.5257  1.5664  0.3969
  352TIP3   OH222470   1.226   3.075   0.847  0.3007  0.1057  0.2356
  352TIP3    H122471   1.136   3.087   0.876  0.8312  1.1951  1.4982
  352TIP3    H222472   1.257   3.163   0.828  1.4019 -0.1561  0.7420
  353TIP3   OH222473   1.004   6.505  14.538  0.4690  0.7680 -0.2572
  353TIP3    H122474   1.036   6.586  14.498 -0.2469  1.2662  0.1599
  353TIP3    H222475   0.921   6.530  14.580  1.8332  0.6054  2.7560
  354TIP3   OH222476   2.914   0.765  13.763  0.5245  0.4389  0.2680
  354TIP3    H122477   2.877   0.685  13.726 -0.2125  0.0984  1.6646
  354TIP3    H222478   2.922   0.746  13.856  3.0641  0.9757  0.2217
  355TIP3   OH222479   1.271   0.680  11.056 -0.0218 -0.0652  0.2096
  355TIP3    H122480   1.340   0.630  11.099 -0.0586 -0.1675  0.1505
  355TIP3    H222481   1.281   0.770  11.089  1.3507  0.3566 -1.2564
  356TIP3   OH222482   6.104   4.843   4.326 -0.6146 -0.4463  0.1651
  356TIP3    H122483   6.196   4.818   4.335 -0.0942  1.3444  0.2265
  356TIP3    H222484   6.055   4.764   4.348  0.8964 -1.0548  1.5204
  357TIP3   OH222485   6.966   4.391  13.401 -0.2040 -0.0896  0.1229
  357TIP3    H122486   6.897   4.389  13.335  1.3858  0.0013 -1.6248
  357TIP3    H222487   7.046   4.408  13.352  1.0545  0.0530  2.1005
  358TIP3   OH222488   5.664   1.583   1.629  0.0631 -0.2554 -0.2171
  358TIP3    H122489   5.672   1.660   1.572 -1.0387 -0.1540 -0.2468
  358TIP3    H222490   5.734   1.594   1.693  3.1770 -1.7335 -3.0388
  359TIP3   OH222491   3.642   3.095   1.963 -0.1930 -0.2335 -0.2915
  359TIP3    H122492   3.548   3.082   1.971 -0.1322 -1.4463 -1.2830
  359TIP3    H222493   3.655   3.124   1.873  0.5289 -1.9635 -0.7924
  360TIP3   OH222494   5.713   5.497  13.443  0.1782  0.3652  0.1377
  360TIP3    H122495   5.644   5.514  13.379 -0.9052 -0.5804  1.0183
  360TIP3    H222496   5.787   5.549  13.412 -0.8016  1.1295 -1.0305
  361TIP3   OH222497   3.431   3.901  10.221 -0.5594  0.6110 -0.5636
  361TIP3    H122498   3.491   3.968  10.253 -0.5114  1.2002 -1.8600
  361TIP3    H222499   3.402   3.932  10.135 -1.4728 -0.4440 -0.6695
  362TIP3   OH222500   4.862   2.139   9.922  1.0639 -0.1689 -0.7746
  362TIP3    H122501   4.796   2.070   9.921  1.9178 -1.0446  0.5092
  362TIP3    H222502   4.939   2.101   9.881  1.5532 -0.0135 -0.0304
  363TIP3   OH222503   0.370   1.728  14.789 -0.2009  0.1013 -0.7085
  363TIP3    H122504   0.295   1.672  14.807 -0.3966 -0.6451 -3.3499
  363TIP3    H222505   0.341   1.785  14.718  0.8597  1.7629  0.1199
  364TIP3   OH222506   6.583   1.194  13.434 -0.4487 -0.5099  0.4496
  364TIP3    H122507   6.517   1.221  13.371  0.7796 -0.3229 -0.8150
  364TIP3    H222508   6.657   1.253  13.418  1.8128 -3.5576 -1.4777
  365TIP3   OH222509   6.398   3.143   2.102  0.4797 -0.4550 -0.1884
  365TIP3    H122510   6.449   3.218   2.071  0.6811 -0.5936 -0.1957
  365TIP3    H222511   6.462   3.071   2.107  0.1298 -0.8247 -0.9123
  366TIP3   OH222512   5.868   2.906  14.791  0.0609  0.1215 -0.9490
  366TIP3    H122513   5.935   2.890  14.725  1.7747  1.3278  0.4107
  366TIP3    H222514   5.872   2.830  14.849 -0.6039 -0.3629 -1.5183
  367TIP3   OH222515   4.613   4.132  11.908  0.2119 -0.2944 -0.4353
  367TIP3    H122516   4.670   4.205  11.886  0.7081  0.1369  2.0046
  367TIP3    H222517   4.665   4.078  11.968 -1.6118 -0.2903  1.2652
  368TIP3   OH222518   0.565   4.018  15.006 -0.3215  0.2732 -0.4013
  368TIP3    H122519   0.596   4.039  14.918 -1.0870  0.8106 -0.5531
  368TIP3    H222520   0.620   4.072  15.064  1.4142 -1.4102 -0.3853
  369TIP3   OH222521   2.734   7.113  11.358 -0.2265  0.1558  0.1874
  369TIP3    H122522   2.723   7.191  11.303  0.2533  0.0800 -0.0201
  369TIP3    H222523   2.704   7.140  11.445  0.7163  0.8365  0.3202
  370TIP3   OH222524   6.693   4.501  11.517  0.0810  0.2560 -0.0088
  370TIP3    H122525   6.656   4.534  11.598 -0.2487 -0.9236  0.3401
  370TIP3    H222526   6.767   4.559  11.498  1.3387 -0.5342  2.1304
  371TIP3   OH222527   4.734   3.124  11.836 -0.0006 -0.1723  0.1511
  371TIP3    H122528   4.761   3.183  11.766 -0.0152 -2.0318 -1.5413
  371TIP3    H222529   4.652   3.160  11.869  0.1140  0.8697 -0.6678
  372TIP3   OH222530   5.285   6.605   4.536 -0.0401  0.4585 -0.3704
  372TIP3    H122531   5.302   6.697   4.556  1.2295 -0.3136  2.7317
  372TIP3    H222532   5.329   6.557   4.607 -0.7919 -2.5343 -1.7898
  373TIP3   OH222533   3.120   5.586  10.455 -0.0690 -0.0268 -0.2530
  373TIP3    H122534   3.094   5.511  10.401 -0.2408 -0.0521 -0.1383
  373TIP3    H222535   3.037   5.629  10.478 -0.1495 -0.9562  1.3504
  374TIP3   OH222536   2.284   0.022  12.828 -0.2786 -0.1995  0.6689
  374TIP3    H122537   2.286  -0.072  12.846  0.1501 -0.0325  1.5285
  374TIP3    H222538   2.363   0.056  12.869  0.5512  0.2724 -1.2086
  375TIP3   OH222539   6.798   2.939  13.959 -0.2285  0.3993 -0.6673
  375TIP3    H122540   6.791   3.017  13.904 -1.3800  1.2172  0.5798
  375TIP3    H222541   6.772   2.968  14.047 -0.5026 -1.3384 -0.1160
  376TIP3   OH222542   4.804   4.497  12.338 -0.1525 -0.4492 -0.1726
  376TIP3    H122543   4.812   4.533  12.250 -1.0349  0.6691  0.1836
  376TIP3    H222544   4.828   4.569  12.396 -2.9867  0.0067  0.5901
  377TIP3   OH222545   4.278   1.186   4.342 -0.1635  0.2863 -0.1451
  377TIP3    H122546   4.336   1.158   4.412 -0.5935 -1.3891 -0.4334
  377TIP3    H222547   4.333   1.186   4.263 -0.2128  0.0399 -0.1801
  378TIP3   OH222548   5.553   0.911   4.483  0.4566 -0.5638  0.3351
  378TIP3    H122549   5.480   0.921   4.545  0.0223  1.1960 -0.3874
  378TIP3    H222550   5.619   0.862   4.532  0.5558  1.6348  2.6374
  379TIP3   OH222551   3.815   6.617   1.009 -0.4729 -0.6629 -0.1576
  379TIP3    H122552   3.898   6.628   0.963 -0.4077 -0.8078 -0.0752
  379TIP3    H222553   3.756   6.578   0.945 -0.6270 -0.0978 -0.3706
  380TIP3   OH222554   4.065   1.487   3.152 -0.0972 -0.1544 -0.1704
  380TIP3    H122555   4.091   1.577   3.173  0.1620 -0.4014  0.6134
  380TIP3    H222556   3.970   1.491   3.147 -0.0301  0.4246 -1.4579
  381TIP3   OH222557   0.698   0.602  14.096 -0.1607  0.0822 -0.2293
  381TIP3    H122558   0.629   0.653  14.138 -0.7941  0.0182 -1.1745
  381TIP3    H222559   0.772   0.608  14.156  0.4701  3.7297 -1.1763
  382TIP3   OH222560   1.646   1.747  10.659 -0.6236  0.2435 -0.0919
  382TIP3    H122561   1.660   1.829  10.611 -1.5773  0.6915  0.3680
  382TIP3    H222562   1.726   1.734  10.709 -1.0571  1.7523  1.0546
  383TIP3   OH222563   6.047   4.983   1.619  0.2297 -0.2562  0.7509
  383TIP3    H122564   6.050   5.028   1.534 -1.6362 -1.4096  0.0073
  383TIP3    H222565   6.117   4.918   1.613 -0.2300 -0.6997 -0.1663
  384TIP3   OH222566   5.558   6.779  14.163 -0.3774 -0.3374  0.3257
  384TIP3    H122567   5.526   6.714  14.099  1.4278 -0.0399 -0.9511
  384TIP3    H222568   5.479   6.826  14.191 -1.3341 -1.0667 -1.0362
  385TIP3   OH222569   0.766   5.915   5.553 -0.3247 -0.2338  0.2029
  385TIP3    H122570   0.828   5.850   5.519 -2.0351 -1.2725 -1.0581
  385TIP3    H222571   0.798   5.998   5.519 -0.0079 -0.8431 -1.0426
  386TIP3   OH222572   4.494   4.711  15.245 -0.4516  0.0219  0.0978
  386TIP3    H122573   4.549   4.789  15.235  0.0074 -0.3285 -0.1443
  386TIP3    H222574   4.534   4.663  15.318  0.2581 -0.7984 -0.7983
  387TIP3   OH222575   0.734   5.145   4.939  0.0712  0.4107 -0.0937
  387TIP3    H122576   0.746   5.064   4.890 -1.5731  0.7299 -1.1402
  387TIP3    H222577   0.673   5.196   4.885  0.5696  2.0785  0.8443
  388TIP3   OH222578   1.157   6.701   3.017 -0.4115 -0.2872  0.0973
  388TIP3    H122579   1.157   6.743   2.930 -2.1569  1.1056  0.7209
  388TIP3    H222580   1.071   6.661   3.025  0.4732 -2.2791  0.3950
  389TIP3   OH222581   2.882   4.141   5.497 -0.6054 -0.6128 -0.0120
  389TIP3    H122582   2.850   4.069   5.552 -1.1251 -0.4154 -0.0490
  389TIP3    H222583   2.926   4.200   5.558 -0.4478 -0.8066  0.0652
  390TIP3   OH222584   0.647   4.699   4.913 -0.5012  0.2187  0.3699
  390TIP3    H122585   0.555   4.721   4.897 -0.4433  1.4446  1.5369
  390TIP3    H222586   0.662   4.723   5.004  0.8756 -0.3633  0.3215
  391TIP3   OH222587   3.784   1.014   5.409 -0.0926 -0.2501  0.5307
  391TIP3    H122588   3.857   1.061   5.449 -0.8783 -0.3813  2.2159
  391TIP3    H222589   3.800   1.020   5.315  1.6969  0.3275  0.8321
  392TIP3   OH222590   1.785   6.816   3.706  0.2708  0.1734 -0.1455
  392TIP3    H122591   1.703   6.767   3.714 -0.4605  1.3384 -0.2569
  392TIP3    H222592   1.791   6.865   3.788  1.8996 -1.3867  0.7356
  393TIP3   OH222593   2.259   0.211  15.575 -0.0542 -0.0978  0.1464
  393TIP3    H122594   2.321   0.180  15.509  0.8642  2.9638 -0.5906
  393TIP3    H222595   2.309   0.210  15.657  0.4950  0.8924 -0.1641
  394TIP3   OH222596   5.515   4.367   1.838  0.0014 -0.4899  0.4918
  394TIP3    H122597   5.547   4.430   1.903  0.6642  0.3516 -0.6025
  394TIP3    H222598   5.420   4.368   1.847 -0.4386  3.6641 -1.9858
  395TIP3   OH222599   6.349   6.436  15.649 -0.2855 -0.0178 -0.1387
  395TIP3    H122600   6.378   6.445  15.740  0.9076  1.9358 -0.6491
  395TIP3    H222601   6.404   6.366  15.614  1.6669  1.4396 -0.1867
  396TIP3   OH222602   6.106   4.260   0.420  0.6701 -0.1650 -0.1631
  396TIP3    H122603   6.191   4.237   0.383  1.6112  1.7404  0.6900
  396TIP3    H222604   6.104   4.356   0.421 -0.4187 -0.1269  2.1360
  397TIP3   OH222605   6.149   3.418  11.853 -0.0117  0.4092 -0.2219
  397TIP3    H122606   6.095   3.497  11.859  0.5017  0.7765 -0.2553
  397TIP3    H222607   6.201   3.431  11.773 -0.5829 -0.3952 -0.7335
  398TIP3   OH222608   1.139   5.966   3.132  0.2554 -0.4604  0.2985
  398TIP3    H122609   1.150   6.061   3.140  0.7833 -0.6164  1.7274
  398TIP3    H222610   1.203   5.940   3.066  1.0473  0.0175  0.8662
  399TIP3   OH222611   1.951   0.287   4.964 -0.6206 -0.1401  0.3683
  399TIP3    H122612   1.917   0.376   4.970 -1.6156 -0.6243  3.5889
  399TIP3    H222613   1.916   0.254   4.881 -2.4860  1.5927  0.3828
  400TIP3   OH222614   1.638   0.447   0.640 -0.3657 -0.1880  0.2311
  400TIP3    H122615   1.571   0.509   0.611 -0.7933 -1.1899 -1.0297
  400TIP3    H222616   1.707   0.502   0.677 -0.9510  0.9967 -0.3762
  401TIP3   OH222617   7.020   4.187  11.441  0.4040  0.0905  0.3774
  401TIP3    H122618   6.934   4.212  11.407  0.5707  0.0649 -0.0791
  401TIP3    H222619   7.046   4.260  11.497 -1.4038 -1.3431  3.3493
  402TIP3   OH222620   6.575   2.206  12.078 -0.0375  0.0658  0.2448
  402TIP3    H122621   6.671   2.205  12.080 -0.0464 -0.0651  0.6036
  402TIP3    H222622   6.552   2.297  12.095  0.0039 -0.0988  1.2748
  403TIP3   OH222623   3.453   6.440   1.862 -0.0302  0.9695  0.5645
  403TIP3    H122624   3.475   6.351   1.888  0.8455  0.6797 -1.0706
  403TIP3    H222625   3.377   6.431   1.804 -0.2166  1.3509  0.7378
  404TIP3   OH222626   2.004   0.171   0.820  0.6082  0.3755  0.2202
  404TIP3    H122627   1.935   0.116   0.857 -0.9735  2.3066  0.3104
  404TIP3    H222628   2.084   0.143   0.864 -0.5248 -0.2486  1.9614
  405TIP3   OH222629   4.658   2.416   5.232 -0.0202  0.3092  0.6919
  405TIP3    H122630   4.725   2.483   5.251 -1.8118  2.0039  1.3993
  405TIP3    H222631   4.592   2.429   5.300 -0.8709 -1.6229  0.2934
  406TIP3   OH222632   0.187   1.232   1.520  0.2543 -0.1307 -0.1227
  406TIP3    H122633   0.277   1.236   1.489 -0.0128 -0.4269 -0.9600
  406TIP3    H222634   0.183   1.150   1.570  0.0878 -0.8779 -1.3162
  407TIP3   OH222635   4.537   7.096  13.820  0.2454 -0.0332  0.1891
  407TIP3    H122636   4.610   7.059  13.770  0.7068  2.9927 -1.6695
  407TIP3    H222637   4.576   7.123  13.904  0.7649 -0.3228  0.0429
  408TIP3   OH222638   1.454   2.970   4.764 -0.0074  0.0760  0.1372
  408TIP3    H122639   1.514   3.019   4.821 -2.1362  1.2784  1.4554
  408TIP3    H222640   1.431   3.032   4.695  1.0830 -0.7615 -1.0288
  409TIP3   OH222641   3.270   0.462   3.947  0.1506  0.5168 -0.2079
  409TIP3    H122642   3.346   0.437   4.000 -0.1284 -1.2112 -0.5571
  409TIP3    H222643   3.307   0.496   3.866  0.5536  1.3287  0.3021
  410TIP3   OH222644   0.562   6.362  10.591  0.4563  0.3576 -0.2411
  410TIP3    H122645   0.618   6.335  10.663 -0.6287  0.2466  0.5957
  410TIP3    H222646   0.598   6.317  10.514  0.2296 -1.4736  0.6581
  411TIP3   OH222647   4.806   5.700   5.282 -0.3528  0.6864  0.1473
  411TIP3    H122648   4.896   5.714   5.311 -1.1227  2.5605  1.8773
  411TIP3    H222649   4.807   5.720   5.188  0.9571  1.0114  0.2202
  412TIP3   OH222650   3.774   3.170   4.484  0.1058 -0.2762 -0.6347
  412TIP3    H122651   3.807   3.095   4.533 -0.5150 -1.0843 -1.4003
  412TIP3    H222652   3.848   3.231   4.480  0.3192 -0.4155  0.8208
  413TIP3   OH222653   3.047   1.140   2.980  0.1325 -1.0970 -0.3702
  413TIP3    H122654   3.066   1.106   3.067 -0.6625  0.2137  0.3362
  413TIP3    H222655   2.954   1.163   2.982  0.4826  0.5360 -0.9769
  414TIP3   OH222656   0.939   1.949   5.826 -0.1366 -0.2883  0.0567
  414TIP3    H122657   0.973   2.012   5.762  1.1153 -2.5416 -1.6389
  414TIP3    H222658   1.017   1.916   5.871 -1.0370  2.0348  3.7435
  415TIP3   OH222659   5.663   0.681   3.042  0.2265  0.1453 -0.2028
  415TIP3    H122660   5.666   0.713   3.132 -0.2323  0.7199 -0.3825
  415TIP3    H222661   5.604   0.605   3.045 -1.8713  1.6643 -0.4327
  416TIP3   OH222662   1.368   4.519   2.947  0.1616  0.1956 -0.7984
  416TIP3    H122663   1.297   4.463   2.916  0.7439 -0.5805 -0.7569
  416TIP3    H222664   1.409   4.469   3.018 -1.6049  2.2202  1.8424
  417TIP3   OH222665   1.378   4.646   0.347  0.0613 -0.2551 -0.0254
  417TIP3    H122666   1.356   4.559   0.380 -0.0858  0.2957  1.4284
  417TIP3    H222667   1.340   4.706   0.412 -0.8415  0.9322 -1.5777
  418TIP3   OH222668   6.687   4.119   4.147 -0.1775  0.0722  0.2305
  418TIP3    H122669   6.763   4.064   4.167  1.5047  2.4044  0.6710
  418TIP3    H222670   6.612   4.060   4.158  1.4573 -2.0270  1.0011
  419TIP3   OH222671   7.010   6.014   5.024  0.1586 -0.3594  0.4048
  419TIP3    H122672   7.058   6.090   5.056 -1.0040  0.1144  1.0357
  419TIP3    H222673   7.066   5.940   5.048  1.6959  0.2968 -0.9152
  420TIP3   OH222674   1.849   4.899   0.317 -0.3949  0.6595  0.0803
  420TIP3    H122675   1.851   4.951   0.236 -4.1092 -1.6937 -1.8306
  420TIP3    H222676   1.904   4.823   0.299 -2.5202 -0.7129 -1.1105
  421TIP3   OH222677   0.670   1.213  11.488 -0.0911  0.2886 -0.0513
  421TIP3    H122678   0.752   1.237  11.532 -1.1463 -0.1293  2.2889
  421TIP3    H222679   0.647   1.290  11.436  0.9430  1.0193  0.5387
  422TIP3   OH222680   5.669   1.814   3.624  0.4435  0.0902  0.8213
  422TIP3    H122681   5.677   1.883   3.690 -0.4816  0.8406  0.1726
  422TIP3    H222682   5.757   1.807   3.586  0.3389  1.6050  0.2356
  423TIP3   OH222683   5.628   6.793  15.507 -0.3648 -0.3802  0.0108
  423TIP3    H122684   5.595   6.878  15.479 -0.8073 -0.1255  1.2453
  423TIP3    H222685   5.710   6.813  15.552 -0.7091 -0.5480  0.7206
  424TIP3   OH222686   6.483   1.785   0.332 -0.0332  0.0947  0.6310
  424TIP3    H122687   6.418   1.741   0.276 -0.8682  1.6994  0.2984
  424TIP3    H222688   6.434   1.814   0.408  0.3740  0.9920  0.5594
  425TIP3   OH222689   4.685   6.609  14.049 -0.1682  0.2204 -0.3094
  425TIP3    H122690   4.614   6.590  14.109  0.6003 -1.5552  0.1256
  425TIP3    H222691   4.657   6.686  14.000 -1.0470  1.3770  1.9223
  426TIP3   OH222692   6.042   3.800  11.620 -0.0708 -0.0018  0.3084
  426TIP3    H122693   6.018   3.711  11.646 -0.0972  0.2807  1.2960
  426TIP3    H222694   6.121   3.789  11.566 -1.1226 -0.7554 -1.1456
  427TIP3   OH222695   3.056   0.255  14.362 -0.3666  0.1893 -0.1275
  427TIP3    H122696   2.980   0.274  14.306 -0.0381 -1.2230 -1.0758
  427TIP3    H222697   3.126   0.310  14.326 -0.8204  1.2645  0.5603
  428TIP3   OH222698   3.829   5.021  12.037  0.4134  0.1982 -0.1718
  428TIP3    H122699   3.867   4.951  12.089 -1.6337 -0.6048  0.3372
  428TIP3    H222700   3.770   5.066  12.097  0.8087  1.6458 -0.8179
  429TIP3   OH222701   4.897   4.936   0.819 -0.2193 -0.7574  0.2816
  429TIP3    H122702   4.993   4.930   0.809  0.0169  0.7937  1.3880
  429TIP3    H222703   4.865   4.940   0.729  0.8217 -0.3813 -0.0921
  430TIP3   OH222704   6.096   3.250   1.414 -0.1116 -1.1559  0.2738
  430TIP3    H122705   6.009   3.287   1.421  0.8776  1.2460  0.9599
  430TIP3    H222706   6.100   3.182   1.481 -1.4478 -1.3024  0.2135
  431TIP3   OH222707   5.745   1.874  14.544  0.3495  0.2687 -0.7230
  431TIP3    H122708   5.674   1.932  14.519 -0.2769 -0.8705 -1.6779
  431TIP3    H222709   5.712   1.827  14.621  0.4996  0.5336 -0.4981
  432TIP3   OH222710   1.348   0.118  15.300  0.3530 -0.2083 -0.2452
  432TIP3    H122711   1.273   0.107  15.241 -0.5387 -0.7221  0.9482
  432TIP3    H222712   1.310   0.149  15.382  1.6610  1.1977 -0.1349
  433TIP3   OH222713   0.554   6.718  13.848  0.5122 -0.4841 -0.0690
  433TIP3    H122714   0.534   6.661  13.773 -1.0344 -0.3709  0.2286
  433TIP3    H222715   0.626   6.773  13.818  1.8266 -2.3157 -0.5003
  434TIP3   OH222716   6.447   5.539  10.453  0.2556  0.1761  0.5599
  434TIP3    H122717   6.419   5.454  10.486  1.7671 -0.1336  1.1308
  434TIP3    H222718   6.463   5.592  10.531  2.2329 -0.0219  0.3390
  435TIP3   OH222719   2.046   0.907   2.127  0.5305 -0.2648 -0.2422
  435TIP3    H122720   1.950   0.913   2.130  0.4491 -0.2964 -1.9404
  435TIP3    H222721   2.072   0.904   2.219 -1.0503  0.4032  0.2654
  436TIP3   OH222722   6.387   5.375  14.169 -0.2803  0.1880 -0.2093
  436TIP3    H122723   6.307   5.426  14.154 -0.6101 -0.0461  0.7271
  436TIP3    H222724   6.384   5.352  14.262  1.7347  1.6270  0.2660
  437TIP3   OH222725   6.899   3.802  14.522 -0.3284  0.2058  0.1590
  437TIP3    H122726   6.894   3.869  14.590  4.5543 -0.0549  1.1406
  437TIP3    H222727   6.857   3.725  14.561  1.1243  0.4752  2.4847
  438TIP3   OH222728   2.669   6.334   9.813  0.4267  0.1918  0.1528
  438TIP3    H122729   2.742   6.361   9.758  1.2528 -0.0643  1.0964
  438TIP3    H222730   2.613   6.412   9.818  1.1576  0.7279  0.2466
  439TIP3   OH222731   6.999   2.143  11.812 -1.3100  0.1220 -0.0663
  439TIP3    H122732   7.057   2.146  11.736  0.1559  0.2587  1.0009
  439TIP3    H222733   6.981   2.050  11.824  5.1659 -1.2965  4.0458
  440TIP3   OH222734   0.012   6.345  15.607  0.3692  0.2087  1.0390
  440TIP3    H122735   0.106   6.340  15.593  0.4375  0.4057  1.4118
  440TIP3    H222736  -0.026   6.332  15.521  0.7536  0.6095  0.8067
  441TIP3   OH222737   1.052   4.410  13.230  0.1713 -0.0635 -0.1125
  441TIP3    H122738   0.963   4.392  13.258  0.3836 -0.4782  0.3106
  441TIP3    H222739   1.101   4.331  13.255  1.1151  1.0255  1.6901
  442TIP3   OH222740   2.438   4.481  10.480 -0.1272 -0.1176  0.4627
  442TIP3    H122741   2.432   4.573  10.455 -0.5207 -0.3321 -0.2644
  442TIP3    H222742   2.419   4.433  10.399  0.4810 -0.8381  0.7337
  443TIP3   OH222743   1.185   2.278  12.241 -0.5911  0.3289  0.1150
  443TIP3    H122744   1.188   2.244  12.151  0.8868  0.3776  0.1354
  443TIP3    H222745   1.217   2.368  12.234  0.9453 -0.1360  0.8931
  444TIP3   OH222746   4.594   5.645  13.509 -0.1248  0.1212 -0.3316
  444TIP3    H122747   4.625   5.593  13.435 -0.7393 -0.2415 -0.3380
  444TIP3    H222748   4.500   5.627  13.513 -0.3648  1.2867 -0.3799
  445TIP3   OH222749   4.581   2.859  10.990  0.2236 -0.0091  0.3300
  445TIP3    H122750   4.626   2.931  11.034 -0.8610  1.6132 -1.0736
  445TIP3    H222751   4.524   2.821  11.057 -0.4680  1.5921  0.6972
  446TIP3   OH222752   6.132   4.543   0.441 -0.1040  0.1492 -0.3175
  446TIP3    H122753   6.071   4.616   0.434 -0.4970 -0.1200  0.2077
  446TIP3    H222754   6.169   4.550   0.529  1.5753  1.0288 -1.0293
  447TIP3   OH222755   0.568   2.983   1.360  0.7972 -0.0845  0.6825
  447TIP3    H122756   0.599   2.915   1.300 -1.0397  1.3913 -2.1623
  447TIP3    H222757   0.494   2.943   1.405  2.0506 -1.1280  1.9299
  448TIP3   OH222758   2.419   4.576  11.447  0.0969 -0.3601 -0.2155
  448TIP3    H122759   2.417   4.516  11.372  0.9603 -2.7575  1.5351
  448TIP3    H222760   2.507   4.613  11.447 -0.2322  0.4571 -0.9314
  449TIP3   OH222761   0.583   6.131  12.381  0.0171  0.3673 -0.1562
  449TIP3    H122762   0.498   6.110  12.342  0.2589  1.7867 -1.5630
  449TIP3    H222763   0.586   6.227  12.382  1.4475  0.3389  0.1940
  450TIP3   OH222764   5.850   2.073  12.822 -0.4447  0.7461  0.3941
  450TIP3    H122765   5.791   2.080  12.748  0.5945 -0.9492 -0.6702
  450TIP3    H222766   5.798   2.032  12.891 -0.6280 -0.4169 -0.4152
  451TIP3   OH222767   1.984   3.634   1.055 -0.0941  0.0034  0.5759
  451TIP3    H122768   2.017   3.716   1.018 -1.6557  0.5231  0.2601
  451TIP3    H222769   1.899   3.656   1.093 -1.6762 -1.8858 -1.5683
  452TIP3   OH222770   2.685   5.222  14.257  0.4955  0.0975  0.3041
  452TIP3    H122771   2.726   5.165  14.321  3.0062 -1.7318 -2.6507
  452TIP3    H222772   2.728   5.307  14.270  0.6896 -0.1372  1.2567
  453TIP3   OH222773   6.193   4.360  10.139  0.3661  0.1759 -0.0802
  453TIP3    H122774   6.169   4.316  10.220 -2.0274  0.9399 -0.3077
  453TIP3    H222775   6.130   4.330  10.074  1.6494  0.3047 -1.4613
  454TIP3   OH222776   0.702   4.032  10.275  0.9857 -0.0533  0.1584
  454TIP3    H122777   0.717   4.005  10.366  0.0221 -1.2633 -0.0087
  454TIP3    H222778   0.687   3.949  10.228 -0.4528  0.6688 -0.7278
  455TIP3   OH222779   6.522   1.961  15.296 -0.0833  0.4383 -0.0895
  455TIP3    H122780   6.473   1.902  15.354 -0.3167 -0.6332 -1.3349
  455TIP3    H222781   6.594   1.907  15.262 -0.6400  0.6590 -1.7054
  456TIP3   OH222782   0.191   3.622  12.991  0.2328 -0.2348 -0.0838
  456TIP3    H122783   0.114   3.675  13.011  0.4794 -0.1269  0.5968
  456TIP3    H222784   0.235   3.610  13.075 -0.4913 -2.5953  0.0561
  457TIP3   OH222785   2.201   0.576  15.289  0.1428 -0.3879 -0.0136
  457TIP3    H122786   2.276   0.566  15.347 -0.6474 -0.0171  1.1185
  457TIP3    H222787   2.126   0.588  15.349 -0.8047 -0.7006 -1.0980
  458TIP3   OH222788   6.242   5.111   4.180  0.4244 -0.0029  0.3607
  458TIP3    H122789   6.150   5.119   4.206  0.0336  2.3812 -1.4612
  458TIP3    H222790   6.291   5.138   4.258 -0.4698  0.1271  0.8927
  459TIP3   OH222791   4.793   5.566   9.802  0.0587 -0.1388  0.8003
  459TIP3    H122792   4.784   5.662   9.799 -2.9378 -0.2348  2.4550
  459TIP3    H222793   4.720   5.533   9.750  0.3400 -1.5152  1.2340
  460TIP3   OH222794   2.213   0.990  12.090 -0.8453  0.2975 -0.5564
  460TIP3    H122795   2.276   0.998  12.161 -0.8779 -1.4526 -0.2828
  460TIP3    H222796   2.128   1.001  12.132 -0.8363 -0.1743 -0.4052
  461TIP3   OH222797   6.543   5.911  14.888 -0.2729 -0.0064  0.3728
  461TIP3    H122798   6.496   5.833  14.918 -0.5679 -0.0017 -0.0670
  461TIP3    H222799   6.486   5.949  14.822  0.5911 -0.3038 -0.5637
  462TIP3   OH222800   4.665   4.527  10.058  0.3531  0.0120 -0.1840
  462TIP3    H122801   4.714   4.574  10.125 -0.5808  0.0097  0.5197
  462TIP3    H222802   4.730   4.473  10.013  1.2250  1.0761 -0.2167
  463TIP3   OH222803   5.882   5.370   3.216 -0.0181 -0.5264  0.0836
  463TIP3    H122804   5.811   5.433   3.203 -0.5150 -0.6848  1.7159
  463TIP3    H222805   5.948   5.394   3.152 -1.7336 -0.6833 -1.8379
  464TIP3   OH222806   2.780   1.720   4.568  0.0270 -0.3388  0.4295
  464TIP3    H122807   2.802   1.722   4.475 -2.7686 -0.2448 -0.3293
  464TIP3    H222808   2.816   1.637   4.599 -1.9681 -2.1245 -1.6631
  465TIP3   OH222809   6.842   7.046  11.179 -0.2935 -0.0107 -0.7778
  465TIP3    H122810   6.804   6.960  11.160  0.1619 -0.4553  0.2638
  465TIP3    H222811   6.799   7.105  11.117 -0.4880 -1.0120 -1.6248
  466TIP3   OH222812   5.909   6.106   9.505 -0.2299  0.2899 -0.4615
  466TIP3    H122813   5.938   6.064   9.424 -0.7629  2.0095 -1.5894
  466TIP3    H222814   5.814   6.105   9.499 -0.2654  2.5270 -1.0370
  467TIP3   OH222815   0.221   5.055  12.532  0.3249 -0.4172 -0.0039
  467TIP3    H122816   0.251   5.120  12.595  0.9992 -0.1107 -0.6140
  467TIP3    H222817   0.291   5.051  12.467  0.6289 -2.2758  0.3754
  468TIP3   OH222818   5.208   0.877  13.402  0.2976  0.9558 -0.4410
  468TIP3    H122819   5.258   0.924  13.335  1.7985  0.1591  0.0762
  468TIP3    H222820   5.159   0.811  13.352  1.5400  0.2470 -0.7775
  469TIP3   OH222821   1.308   0.396   4.033 -0.0450 -0.2700 -0.0395
  469TIP3    H122822   1.399   0.368   4.044  0.1270  0.7370  1.3864
  469TIP3    H222823   1.314   0.483   3.994 -0.3493  0.2056  0.9510
  470TIP3   OH222824   5.543   1.218  11.534 -0.0045 -0.2704  0.5894
  470TIP3    H122825   5.604   1.199  11.605  0.1897 -1.0994  0.2195
  470TIP3    H222826   5.588   1.282  11.479  1.3582 -2.1731 -0.6695
  471TIP3   OH222827   4.491   1.722  14.267 -0.2875  0.7167 -0.6157
  471TIP3    H122828   4.414   1.711  14.323 -0.0339 -0.0347 -0.3988
  471TIP3    H222829   4.564   1.691  14.320 -0.1596 -0.9775 -1.6791
  472TIP3   OH222830   6.968   1.414   3.019 -0.7031  0.0549 -0.3593
  472TIP3    H122831   6.882   1.451   3.035 -1.8326 -1.8340 -1.5645
  472TIP3    H222832   6.999   1.457   2.940 -1.2185 -0.2801 -0.7516
  473TIP3   OH222833   3.210   6.940  12.595  0.2341  0.2601  0.8284
  473TIP3    H122834   3.274   6.872  12.619  3.2400  3.0393  1.3265
  473TIP3    H222835   3.238   6.970  12.509 -0.7000  1.2808  0.8621
  474TIP3   OH222836   5.663   1.155   2.363 -0.3188 -0.0856  0.2062
  474TIP3    H122837   5.614   1.090   2.313  0.2209  0.3295 -0.9094
  474TIP3    H222838   5.652   1.130   2.454 -0.5220 -1.4493 -0.1781
  475TIP3   OH222839   0.170   1.369   5.617 -0.3109  0.3400 -0.3430
  475TIP3    H122840   0.097   1.425   5.645 -1.1401 -0.9119  0.0819
  475TIP3    H222841   0.226   1.362   5.694  0.1568  1.0975 -0.5956
  476TIP3   OH222842   0.449   0.760  10.692 -0.3874 -0.7549  0.2980
  476TIP3    H122843   0.387   0.779  10.621 -0.9023  0.2052  0.9948
  476TIP3    H222844   0.529   0.805  10.666 -0.3101 -1.0902 -0.0653
  477TIP3   OH222845   7.105   1.194  13.663 -1.0912 -0.5143  0.3071
  477TIP3    H122846   7.051   1.193  13.743  0.9267 -1.0718  1.7324
  477TIP3    H222847   7.150   1.279  13.665 -1.7342 -0.1199 -0.7914
  478TIP3   OH222848   2.045   3.014  11.027  0.0821  0.2372 -0.2359
  478TIP3    H122849   2.130   3.040  10.991  0.3478 -0.5704 -0.2162
  478TIP3    H222850   1.981   3.064  10.976  0.5547  0.7238 -0.3656
  479TIP3   OH222851   3.664   2.711   5.695 -0.1771  0.3371  0.2299
  479TIP3    H122852   3.707   2.770   5.632  0.8385  0.0113  0.6144
  479TIP3    H222853   3.711   2.724   5.777  0.6393 -1.6408  0.1138
  480TIP3   OH222854   7.076   3.381  10.985 -0.2705  1.0414  0.1421
  480TIP3    H122855   7.162   3.414  10.961  0.3238  0.6796  1.6287
  480TIP3    H222856   7.040   3.447  11.044 -0.6297  0.7830  0.2191
  481TIP3   OH222857   1.412   0.144  12.472 -0.4346 -0.1727  1.2541
  481TIP3    H122858   1.327   0.152  12.515 -1.2915 -0.9619 -0.1807
  481TIP3    H222859   1.434   0.051  12.481 -0.3540 -0.2311  0.5301
  482TIP3   OH222860   6.597   6.734   2.494 -0.2032  0.6550 -0.0955
  482TIP3    H122861   6.663   6.699   2.434  2.2585  0.4234  2.5246
  482TIP3    H222862   6.622   6.825   2.506 -1.5571  1.0972 -0.4995
  483TIP3   OH222863   0.271   3.328   4.151 -0.1106  0.3054  0.4471
  483TIP3    H122864   0.315   3.368   4.226  0.1130  0.6095  0.1582
  483TIP3    H222865   0.267   3.398   4.086 -0.7211  0.1833  0.3441
  484TIP3   OH222866   3.497   0.873   9.968  0.1844  0.0098 -0.3234
  484TIP3    H122867   3.582   0.829   9.958 -0.3657 -0.7136 -2.3233
  484TIP3    H222868   3.518   0.955  10.013  1.6160 -1.0803  1.1304
  485TIP3   OH222869   3.688   1.715  11.642 -0.3471  0.0364  0.2406
  485TIP3    H122870   3.608   1.763  11.618 -0.9805 -0.8895  0.4533
  485TIP3    H222871   3.690   1.719  11.738  0.2692  0.6836  0.2099
  486TIP3   OH222872   5.162   3.966  14.034  0.5590 -0.0123  0.0950
  486TIP3    H122873   5.148   3.930  13.947 -0.7798  2.6654 -0.8739
  486TIP3    H222874   5.108   3.911  14.092  0.4384 -0.9896 -0.9116
  487TIP3   OH222875   4.006   6.809  10.441  0.2145 -0.3418  0.0097
  487TIP3    H122876   3.932   6.795  10.500  1.2667 -0.7099  1.2776
  487TIP3    H222877   3.984   6.890  10.394 -0.4242  0.2229  1.2489
  488TIP3   OH222878   4.714   1.750   0.343  0.0609 -0.4166  0.4176
  488TIP3    H122879   4.783   1.762   0.408 -1.1777 -0.1193  1.7411
  488TIP3    H222880   4.657   1.684   0.382 -0.7667 -0.1602 -0.3345
  489TIP3   OH222881   5.879   3.956   1.813 -0.2116 -0.4260  0.2313
  489TIP3    H122882   5.931   3.912   1.881 -2.0764  0.3554  2.2825
  489TIP3    H222883   5.839   4.030   1.858 -1.1490  0.4350 -1.8921
  490TIP3   OH222884   2.343   4.506  10.749 -0.1491  0.1488  0.4639
  490TIP3    H122885   2.329   4.413  10.766  1.6469  0.0339  1.5123
  490TIP3    H222886   2.383   4.509  10.662  0.8779 -0.1563  0.9230
  491TIP3   OH222887   1.493   6.346   9.887  0.1027 -0.1434 -0.5965
  491TIP3    H122888   1.424   6.323   9.825  0.0446 -2.2950  0.2147
  491TIP3    H222889   1.541   6.417   9.844 -1.6139  0.3006 -1.8635
  492TIP3   OH222890   2.690   3.124  13.679 -0.1286 -0.3016  0.2233
  492TIP3    H122891   2.682   3.194  13.614  3.5725  1.5190  1.4573
  492TIP3    H222892   2.709   3.045  13.628  1.2244  0.7776 -1.0342
  493TIP3   OH222893   1.119   3.224  11.288 -0.6105 -0.0998  0.4051
  493TIP3    H122894   1.099   3.212  11.195 -1.1315 -0.9037  0.6139
  493TIP3    H222895   1.195   3.283  11.289 -0.6136 -0.0714 -0.5228
  494TIP3   OH222896   3.572   0.933   1.963 -0.6897  0.1759 -0.0741
  494TIP3    H122897   3.571   0.854   1.910 -0.9904 -0.3659  0.7105
  494TIP3    H222898   3.584   0.901   2.053 -1.9959  0.9300  0.3883
  495TIP3   OH222899   3.981   4.701   1.405  0.0388 -0.1749  0.3564
  495TIP3    H122900   4.010   4.773   1.350  0.8754  0.2054  1.2652
  495TIP3    H222901   3.954   4.742   1.487  0.8261 -0.8912  1.0088
  496TIP3   OH222902   6.439   0.430  11.077  1.0807  0.2130  0.0528
  496TIP3    H122903   6.524   0.462  11.044  0.5532 -0.5807 -2.3071
  496TIP3    H222904   6.376   0.460  11.011  0.2217 -3.3894 -1.0115
  497TIP3   OH222905   2.226   2.684  12.298 -0.2219 -0.6171  0.3977
  497TIP3    H122906   2.314   2.652  12.277  0.6387  1.4783  0.5125
  497TIP3    H222907   2.170   2.608  12.289  1.1705 -1.4485 -2.4274
  498TIP3   OH222908   3.483   6.607  14.436  0.2766 -0.1879 -0.6094
  498TIP3    H122909   3.571   6.600  14.397 -0.7998 -1.1416 -3.0819
  498TIP3    H222910   3.446   6.686  14.397 -0.3825 -0.4701 -0.5718
  499TIP3   OH222911   1.108   4.811   0.017  0.5435 -0.4415  0.3218
  499TIP3    H122912   1.066   4.825   0.102  1.6600 -2.0760  1.1927
  499TIP3    H222913   1.170   4.740   0.032  1.7245  0.1139 -1.5591
  500TIP3   OH222914   5.801   1.938  14.125  0.0269 -0.5755 -0.5886
  500TIP3    H122915   5.821   2.023  14.164 -0.8512  0.2254 -1.8017
  500TIP3    H222916   5.788   1.956  14.032 -3.8228 -1.3484 -0.3753
  501TIP3   OH222917   2.068   0.383  15.485  0.1979 -0.1687 -0.9163
  501TIP3    H122918   2.006   0.356  15.553 -0.8162  1.0384 -1.3147
  501TIP3    H222919   2.144   0.327  15.498  0.5841  0.8622  2.0430
  502TIP3   OH222920   1.295   4.096  11.656 -0.6336  0.3011  0.4051
  502TIP3    H122921   1.255   4.073  11.572  0.5303 -1.2841  0.2399
  502TIP3    H222922   1.224   4.091  11.719 -1.5707  1.6818 -0.4704
  503TIP3   OH222923   6.225   0.280  10.351 -0.2876 -0.0504 -1.0050
  503TIP3    H122924   6.295   0.336  10.317  1.5162 -2.1439 -0.9855
  503TIP3    H222925   6.256   0.251  10.437 -1.1078 -1.1410 -1.0510
  504TIP3   OH222926   5.070   2.917   1.860 -0.0388 -0.4248 -0.3363
  504TIP3    H122927   5.107   3.002   1.836 -1.6844  0.2768 -0.5411
  504TIP3    H222928   5.039   2.880   1.778  1.1390 -1.4959 -0.3261
  505TIP3   OH222929   5.368   3.104  11.843 -0.6404 -0.4038  0.4862
  505TIP3    H122930   5.318   3.186  11.841 -3.8644 -2.1431  1.8688
  505TIP3    H222931   5.410   3.100  11.757 -2.4841  1.5074 -0.6089
  506TIP3   OH222932   2.350   1.935  12.090 -0.2025 -0.8240 -0.2320
  506TIP3    H122933   2.286   1.918  12.161  0.2063 -0.5161  0.2132
  506TIP3    H222934   2.418   1.869  12.104  0.0729 -0.5156 -0.0979
  507TIP3   OH222935   3.793   0.709  11.619  0.8095 -0.5226 -0.3705
  507TIP3    H122936   3.705   0.704  11.657  0.8229 -4.4965 -0.4747
  507TIP3    H222937   3.799   0.798  11.585 -2.2039  0.6896  1.8095
  508TIP3   OH222938   1.162   4.266  10.393 -0.2625 -0.3790 -0.1008
  508TIP3    H122939   1.234   4.304  10.442  0.6040 -2.5501  0.4436
  508TIP3    H222940   1.083   4.301  10.434  0.3951  2.8661 -1.3770
  509TIP3   OH222941   4.816   2.327  14.328 -0.2620  0.0964  0.2255
  509TIP3    H122942   4.844   2.312  14.418 -0.8053  0.8761  0.5309
  509TIP3    H222943   4.818   2.422  14.318  0.9038 -0.0221 -0.9474
  510TIP3   OH222944   2.035   5.333  12.150 -0.1523  0.2255  0.0669
  510TIP3    H122945   2.093   5.407  12.170  0.3585 -0.5857  1.6822
  510TIP3    H222946   2.020   5.291  12.234 -0.7241 -1.3153 -0.7777
  511TIP3   OH222947   1.381   1.282  10.302  0.0118  0.3670  0.6166
  511TIP3    H122948   1.418   1.263  10.388  1.2739 -0.3872 -0.0640
  511TIP3    H222949   1.408   1.372  10.284 -0.4407  0.6030  1.0864
  512TIP3   OH222950   6.150   2.522  10.838  0.4201 -0.2483 -0.2547
  512TIP3    H122951   6.162   2.458  10.907  1.2806  0.1067 -0.0739
  512TIP3    H222952   6.058   2.511  10.812  0.3198 -0.9541  0.3582
  513TIP3   OH222953   0.491   2.587  13.295  0.1084 -0.0846  0.5401
  513TIP3    H122954   0.569   2.570  13.348  0.8765  1.7265  0.0649
  513TIP3    H222955   0.418   2.571  13.354  0.9199  1.0576  1.9181
  514TIP3   OH222956   3.853   3.578  13.686  0.0315  0.7045  0.0969
  514TIP3    H122957   3.944   3.550  13.698  0.6788  1.2192 -2.9060
  514TIP3    H222958   3.802   3.497  13.690  0.7868  0.2306  0.3094
  515TIP3   OH222959   5.240   0.126   0.240  0.1028  0.4792  0.0404
  515TIP3    H122960   5.321   0.175   0.254  1.4946 -2.3090  3.3812
  515TIP3    H222961   5.265   0.054   0.182 -0.2864  0.2797  0.1171
  516TIP3   OH222962   4.395   7.107   1.633 -0.6139 -0.0518 -0.7123
  516TIP3    H122963   4.368   7.152   1.713  2.5452  1.2447 -0.2352
  516TIP3    H222964   4.416   7.018   1.662  0.7597  0.4818 -0.0024
  517TIP3   OH222965   1.449   5.645   3.018  0.5066 -0.1454  0.0724
  517TIP3    H122966   1.367   5.629   3.064 -1.3027  2.8673 -1.8042
  517TIP3    H222967   1.441   5.596   2.936  0.4018  0.4720 -0.2894
  518TIP3   OH222968   1.136   6.843  12.209 -0.3661  0.7870  0.2979
  518TIP3    H122969   1.058   6.808  12.252 -0.8377  0.9249 -0.4256
  518TIP3    H222970   1.167   6.911  12.267  0.1753 -0.3769  1.4053
  519TIP3   OH222971   1.649   3.770   3.614  0.6201  0.0816 -0.2567
  519TIP3    H122972   1.593   3.700   3.648 -1.6910  2.0052  0.2011
  519TIP3    H222973   1.632   3.770   3.520  1.1624 -0.3907 -0.3602
  520TIP3   OH222974   6.333   2.762   1.887 -0.5075 -0.1983 -0.2644
  520TIP3    H122975   6.314   2.830   1.951 -1.7753 -0.5812 -0.1902
  520TIP3    H222976   6.281   2.786   1.810  0.2934 -0.2287 -0.8249
  521TIP3   OH222977   3.248   0.561  10.305  0.1427  0.3122  0.1372
  521TIP3    H122978   3.301   0.576  10.226  0.6093 -0.5004  0.2803
  521TIP3    H222979   3.159   0.581  10.278  0.1704 -0.8239 -0.8696
  522TIP3   OH222980   2.147   0.548  11.007 -0.0183  0.2846  0.0289
  522TIP3    H122981   2.202   0.617  11.044 -0.2900  0.0242  0.9487
  522TIP3    H222982   2.156   0.475  11.068  0.1642 -0.4599 -0.8604
  523TIP3   OH222983   4.119   1.609   1.652 -0.7681 -0.1652  0.1166
  523TIP3    H122984   4.179   1.665   1.701  0.2874  0.5725 -1.9098
  523TIP3    H222985   4.036   1.658   1.652  0.1138  1.4716 -1.5427
  524TIP3   OH222986   1.237   3.791   1.396 -0.2812 -0.9874  0.2746
  524TIP3    H122987   1.208   3.882   1.386 -3.6353 -1.6890  2.0713
  524TIP3    H222988   1.229   3.754   1.308 -0.2287  0.0889 -0.2026
  525TIP3   OH222989   1.615   2.232   9.523  0.0656 -0.1346  0.5809
  525TIP3    H122990   1.582   2.202   9.608  0.8530  1.0727  1.3360
  525TIP3    H222991   1.706   2.204   9.521  0.1269  0.0816  0.2572
  526TIP3   OH222992   4.036   4.986  11.630  0.4245 -0.2643  0.0814
  526TIP3    H122993   4.120   5.026  11.653 -0.2277  0.5900  1.1245
  526TIP3    H222994   4.023   4.918  11.696 -1.3256  2.0102  2.3273
  527TIP3   OH222995   0.132   2.265   3.912 -0.2600 -0.6409 -0.0474
  527TIP3    H122996   0.204   2.236   3.856  0.0301 -0.1142  0.0441
  527TIP3    H222997   0.175   2.289   3.994 -0.5664 -0.4987  0.0702
  528TIP3   OH222998   0.538   6.221  14.314  0.1681  0.2011 -0.1193
  528TIP3    H122999   0.507   6.226  14.404 -0.5154  0.8087 -0.3758
  528TIP3    H223000   0.632   6.206  14.322  0.3885  1.7578  0.7399
  529TIP3   OH223001   5.033   0.740  12.339 -0.0640  0.5671  0.0133
  529TIP3    H123002   5.039   0.808  12.272  0.8676 -0.9590 -1.5238
  529TIP3    H223003   5.108   0.755  12.396  0.9545  0.0200 -1.1488
  530TIP3   OH223004   0.682   0.418  12.711  0.5181 -0.1092  0.5101
  530TIP3    H123005   0.652   0.385  12.627  1.4973  0.8489 -0.2409
  530TIP3    H223006   0.606   0.464  12.747  0.6144  1.0751 -0.7132
  531TIP3   OH223007   4.963   2.387   0.099  0.6297  0.3743  0.5234
  531TIP3    H123008   5.001   2.400   0.012 -1.3409  0.3133 -0.4177
  531TIP3    H223009   4.925   2.472   0.121 -1.3892 -0.3274 -0.0300
  532TIP3   OH223010   5.993   6.455   0.613  0.1025  0.2018  0.7274
  532TIP3    H123011   5.953   6.542   0.623  0.4076  0.4953 -0.5340
  532TIP3    H223012   6.023   6.452   0.523  0.6281 -1.0062  0.9242
  533TIP3   OH223013   6.874   6.706   3.695  0.4477 -0.2369 -0.5061
  533TIP3    H123014   6.870   6.798   3.669  0.2310 -0.5718 -1.7540
  533TIP3    H223015   6.903   6.707   3.786  0.9782  1.0408 -0.6755
  534TIP3   OH223016   5.995   3.425  15.195 -0.4933  0.0665  0.0525
  534TIP3    H123017   6.045   3.506  15.189  0.6711 -0.6804 -0.8350
  534TIP3    H223018   5.967   3.408  15.105 -3.3600  1.0305  0.6728
  535TIP3   OH223019   2.320   6.558   2.256 -0.8283  0.2771 -0.2295
  535TIP3    H123020   2.347   6.476   2.298 -0.0192  0.0892 -1.0642
  535TIP3    H223021   2.275   6.607   2.324  0.3230 -0.0627  0.8126
  536TIP3   OH223022   1.732   3.034   0.938 -0.2313 -0.0498 -0.1746
  536TIP3    H123023   1.812   2.982   0.943  0.7391  1.5109  3.4779
  536TIP3    H223024   1.762   3.121   0.913 -0.7634  0.5179  1.0986
  537TIP3   OH223025   6.784   4.049  13.940  0.1316 -0.1404 -0.1092
  537TIP3    H123026   6.845   4.120  13.962 -0.7123  0.2438  1.0702
  537TIP3    H223027   6.723   4.087  13.877  0.4514 -0.2107 -0.4658
  538TIP3   OH223028   3.431   5.120  15.043  0.3652  0.2744 -0.0124
  538TIP3    H123029   3.473   5.196  15.003  1.4412 -1.6872 -2.9093
  538TIP3    H223030   3.499   5.079  15.096  0.4364  0.1463 -0.2028
  539TIP3   OH223031   6.640   6.033  10.110  0.4735  0.4991  0.3450
  539TIP3    H123032   6.710   6.094  10.133 -0.1014  1.2921  0.0511
  539TIP3    H223033   6.677   5.978  10.041  1.2149  0.0779  1.0677
  540TIP3   OH223034   0.132   4.295   0.367  0.0499  0.0630  0.6731
  540TIP3    H123035   0.115   4.344   0.447 -0.3448 -1.5039  1.5963
  540TIP3    H223036   0.066   4.226   0.367 -1.2874  1.1916 -2.0773
  541TIP3   OH223037   5.038   6.667  11.399 -0.5406 -0.3608 -0.0023
  541TIP3    H123038   5.092   6.588  11.407  1.7263  1.1865  1.0261
  541TIP3    H223039   5.006   6.665  11.309  1.9947 -0.9451 -0.9711
  542TIP3   OH223040   3.398   3.544  14.250 -0.1192  1.0855  0.0565
  542TIP3    H123041   3.482   3.574  14.287  0.7826  0.8537 -1.7307
  542TIP3    H223042   3.384   3.599  14.173 -1.3332  0.7231 -0.0085
  543TIP3   OH223043   1.202   2.175  14.306  0.3222 -0.3776  0.6197
  543TIP3    H123044   1.204   2.269  14.327  1.6362 -0.1353 -0.4397
  543TIP3    H223045   1.268   2.137  14.364  0.3678 -0.5161  0.4753
  544TIP3   OH223046   0.033   0.314  13.879  0.6491  0.6120 -0.1389
  544TIP3    H123047  -0.020   0.323  13.958  1.9672  1.9607  0.6683
  544TIP3    H223048  -0.023   0.345  13.809 -0.1947  0.3922  0.4270
  545TIP3   OH223049   5.189   2.857   9.727  0.0883 -0.1476  0.5374
  545TIP3    H123050   5.283   2.845   9.735 -0.2390 -2.0588  2.6627
  545TIP3    H223051   5.173   2.860   9.633  2.1916 -0.3687  0.1239
  546TIP3   OH223052   2.775   2.956   0.141 -0.3070  0.1319 -0.0456
  546TIP3    H123053   2.709   2.899   0.101 -0.8329  0.0832  0.8489
  546TIP3    H223054   2.724   3.029   0.177  0.5410  2.5146 -3.2462
  547TIP3   OH223055   2.330   6.273  10.904  0.2216  0.0156 -0.1987
  547TIP3    H123056   2.270   6.202  10.926  1.0935 -0.7638 -0.3002
  547TIP3    H223057   2.390   6.236  10.841  0.2876  1.0470 -0.7678
  548TIP3   OH223058   0.612   7.053  11.880  0.0366  0.2612 -0.0377
  548TIP3    H123059   0.549   7.003  11.828  1.4863 -1.4101 -0.2652
  548TIP3    H223060   0.636   7.127  11.824 -1.6114  0.8871  0.0221
  549TIP3   OH223061   1.893   2.472   0.466  0.2550 -0.0938 -0.4723
  549TIP3    H123062   1.807   2.443   0.496 -0.3466  0.1608 -1.8676
  549TIP3    H223063   1.943   2.391   0.455 -0.5689 -0.4529 -1.8283
  550TIP3   OH223064   3.300   5.105  12.470 -0.1705 -0.0200 -0.1096
  550TIP3    H123065   3.343   5.189  12.489  2.2899 -1.1025 -0.5639
  550TIP3    H223066   3.242   5.125  12.396 -0.2963  1.4303  0.3341
  551TIP3   OH223067   3.492   6.362  13.536  0.0829 -0.2433  0.3970
  551TIP3    H123068   3.493   6.437  13.595  0.5741  1.3029 -1.4577
  551TIP3    H223069   3.399   6.344  13.522 -0.0363 -0.2037  1.1254
  552TIP3   OH223070   1.532   6.340  15.123  0.3575  0.5396  0.1294
  552TIP3    H123071   1.486   6.341  15.039 -0.7466 -1.2195  0.6634
  552TIP3    H223072   1.499   6.417  15.170  0.2441  0.9721 -0.6464
  553TIP3   OH223073   5.432   4.906   3.168  0.0722  0.6145  0.0652
  553TIP3    H123074   5.393   4.945   3.247 -0.5298 -1.3748  0.8106
  553TIP3    H223075   5.526   4.910   3.184  0.0478  1.8647  0.0347
  554TIP3   OH223076   7.032   5.642   2.207  0.0987  0.1287 -0.2465
  554TIP3    H123077   7.066   5.612   2.123  0.2290  0.7459 -0.4187
  554TIP3    H223078   7.003   5.562   2.251  0.7427 -0.2854 -0.5551
  555TIP3   OH223079   0.393   3.265  12.512  0.1686  0.5077 -0.4772
  555TIP3    H123080   0.406   3.172  12.528 -2.1260  0.1437 -0.2933
  555TIP3    H223081   0.319   3.269  12.451 -1.8290  2.1989  1.8185
  556TIP3   OH223082   2.265   2.510  11.963  0.6556  0.0568 -0.0593
  556TIP3    H123083   2.199   2.451  12.000 -0.3797  0.8509 -0.5794
  556TIP3    H223084   2.272   2.484  11.871  2.3183 -1.1033  0.3477
  557TIP3   OH223085   4.672   0.969   2.839 -0.1723 -0.1682  0.1817
  557TIP3    H123086   4.694   0.882   2.806  0.3766  0.0733 -0.0921
  557TIP3    H223087   4.732   1.028   2.794 -0.3336  0.3194  0.5962
  558TIP3   OH223088   0.256   4.298   0.810  0.0956  0.5816  0.4822
  558TIP3    H123089   0.243   4.323   0.902  1.8329  2.2689  0.3143
  558TIP3    H223090   0.173   4.318   0.768 -0.1076  1.5972  1.3260
  559TIP3   OH223091   0.367   0.091  10.136  0.0461 -0.1125  0.2052
  559TIP3    H123092   0.442   0.050  10.093 -0.9482 -1.3313 -0.4091
  559TIP3    H223093   0.345   0.166  10.081  0.0934 -0.4315 -0.2475
  560TIP3   OH223094   4.816   0.073  12.098 -0.0412  0.1739  0.0065
  560TIP3    H123095   4.839   0.160  12.065  1.4274  0.4998  1.7234
  560TIP3    H223096   4.848   0.072  12.188  0.9815 -2.5203 -0.2795
  561TIP3   OH223097   4.555   6.788  12.236 -0.3994  0.2438 -0.0577
  561TIP3    H123098   4.531   6.878  12.261 -0.3703  0.4318 -0.6728
  561TIP3    H223099   4.474   6.750  12.201 -0.2984  0.1962 -0.2443
  562TIP3   OH223100   5.072   0.820  11.563 -0.2773 -0.1140 -0.0787
  562TIP3    H123101   5.149   0.766  11.544  0.3403  0.4338  0.7909
  562TIP3    H223102   5.007   0.757  11.594  0.0262 -0.5132 -0.2404
  563TIP3   OH223103   0.732   5.100  12.548 -0.3292 -0.0889 -0.3807
  563TIP3    H123104   0.722   5.008  12.573  0.2596  0.0158  0.2747
  563TIP3    H223105   0.700   5.149  12.624 -0.1261  0.2475 -0.5100
  564TIP3   OH223106   1.010   3.343   2.788  0.3774  0.0633  0.4003
  564TIP3    H123107   1.060   3.378   2.862 -0.1519 -0.8511  1.2167
  564TIP3    H223108   0.919   3.350   2.816  0.2569 -2.2541  0.7700
  565TIP3   OH223109   0.144   0.988   2.339  0.2557  0.4617 -0.6169
  565TIP3    H123110   0.185   0.990   2.253 -1.4444  0.0014 -1.4891
  565TIP3    H223111   0.118   1.079   2.356  0.4286  0.5208 -0.6686
  566TIP3   OH223112   4.537   7.007  12.401  0.0894  0.9129 -0.1915
  566TIP3    H123113   4.515   7.095  12.372 -1.5919  1.0486  1.3417
  566TIP3    H223114   4.569   7.018  12.491 -0.1069 -0.0430  0.0133
  567TIP3   OH223115   4.600   4.662  13.907  0.1274 -0.1861  0.8001
  567TIP3    H123116   4.594   4.719  13.831 -0.9814  0.6834  1.5182
  567TIP3    H223117   4.628   4.577  13.871 -0.4646  0.1755 -0.5697
  568TIP3   OH223118   3.603   3.221  10.963  0.0878  0.1917  0.1213
  568TIP3    H123119   3.636   3.298  11.009 -1.5971  0.2617  1.2940
  568TIP3    H223120   3.532   3.254  10.908  1.4618 -0.0437 -1.9475
  569TIP3   OH223121   3.234   2.081  11.586  0.2800  0.2566  0.0282
  569TIP3    H123122   3.279   2.001  11.613 -0.2086 -0.4449 -1.1459
  569TIP3    H223123   3.165   2.051  11.526  0.0001  1.5458 -0.3331
  570TIP3   OH223124   2.681   5.598  13.892  0.2969 -0.1451 -0.0595
  570TIP3    H123125   2.721   5.515  13.916 -1.4475 -1.0069  0.0574
  570TIP3    H223126   2.587   5.582  13.898 -0.1733  1.0285 -2.7162
  571TIP3   OH223127   2.975   0.142  11.351  0.6852 -0.6017 -0.0104
  571TIP3    H123128   3.033   0.151  11.426  1.1848 -1.6104 -0.2593
  571TIP3    H223129   2.888   0.134  11.389  0.9467 -1.2431  0.4765
  572TIP3   OH223130   0.247   4.430  12.905 -0.6809  0.5624  0.1286
  572TIP3    H123131   0.264   4.459  12.816 -0.8426  0.6727  0.1316
  572TIP3    H223132   0.177   4.365  12.896 -1.5809  1.4781  0.2879
  573TIP3   OH223133   0.914   2.411  14.436 -0.1083  0.4222  0.2415
  573TIP3    H123134   0.871   2.326  14.428 -0.6268  0.8423 -2.8331
  573TIP3    H223135   0.878   2.462  14.364  1.8763  2.4864  0.6162
  574TIP3   OH223136   0.220   2.437  14.076 -0.1204  0.2897  0.4585
  574TIP3    H123137   0.151   2.383  14.113 -0.9320  0.5835 -0.5869
  574TIP3    H223138   0.190   2.527  14.088  0.9651  0.5226  1.6808
  575TIP3   OH223139   0.433   5.327  14.223 -0.1335 -0.3022  0.1949
  575TIP3    H123140   0.466   5.408  14.262 -0.9182 -0.2677  0.7978
  575TIP3    H223141   0.435   5.343  14.128 -0.0048  0.3124  0.3008
  576TIP3   OH223142   2.752   4.291  11.362 -0.1344 -0.5968  0.1492
  576TIP3    H123143   2.809   4.338  11.423 -1.0460 -0.0334  0.5864
  576TIP3    H223144   2.693   4.241  11.418  0.6924 -2.1408 -0.3116
  577TIP3   OH223145   5.500   2.423  12.270 -0.2297 -0.1500 -0.2895
  577TIP3    H123146   5.409   2.406  12.245 -1.8134  2.5365  2.8781
  577TIP3    H223147   5.504   2.400  12.362  1.9002  1.1262 -0.0161
  578TIP3   OH223148   6.177   5.373  13.023 -0.5116 -0.0746  0.6567
  578TIP3    H123149   6.260   5.412  12.996  0.1825 -2.2399 -0.5718
  578TIP3    H223150   6.137   5.439  13.080  1.6766  1.3466  0.6672
  579TIP3   OH223151   0.103   1.201  14.432 -0.2059 -0.5728 -0.5175
  579TIP3    H123152   0.149   1.229  14.353 -1.0025  0.1776 -0.7409
  579TIP3    H223153   0.010   1.207  14.409 -0.4388 -0.9165  0.2842
  580TIP3   OH223154   1.594   5.865  10.779 -0.3063 -0.1305  0.2934
  580TIP3    H123155   1.603   5.861  10.874  0.1769  1.2963  0.3354
  580TIP3    H223156   1.512   5.819  10.760 -0.6160 -0.0740  1.4399
  581TIP3   OH223157   4.365   4.796  12.851  0.0619 -0.2615 -0.2611
  581TIP3    H123158   4.289   4.758  12.894  0.4105 -2.3229 -1.3284
  581TIP3    H223159   4.440   4.747  12.885  0.6622  0.1521 -0.9401
  582TIP3   OH223160   2.955   4.640  10.720  0.4119 -0.1108 -0.4512
  582TIP3    H123161   2.907   4.697  10.780 -2.1484 -1.5314 -0.9748
  582TIP3    H223162   2.959   4.689  10.638 -1.2788 -0.3615 -0.7337
  583TIP3   OH223163   3.130   3.800  10.046 -0.1980  0.5077 -0.2995
  583TIP3    H123164   3.152   3.708  10.062  0.6405  0.9967  1.6172
  583TIP3    H223165   3.206   3.835  10.000  1.0793  1.0403  2.0856
  584TIP3   OH223166   4.997   4.937  13.683 -0.2593 -0.2111 -0.3092
  584TIP3    H123167   4.905   4.935  13.656 -0.3290  0.4164 -0.1388
  584TIP3    H223168   4.995   4.982  13.768  0.3011  0.6489 -0.7369
  585TIP3   OH223169   2.611   1.454   1.383  0.0343 -0.4049  0.1081
  585TIP3    H123170   2.571   1.369   1.363 -0.1730 -0.3004  0.0726
  585TIP3    H223171   2.642   1.445   1.473 -3.1520  0.6392  1.4499
  586TIP3   OH223172   1.372   3.378  10.613  0.2754 -0.2833  0.1581
  586TIP3    H123173   1.360   3.308  10.677  0.8744 -0.0870  0.4983
  586TIP3    H223174   1.464   3.372  10.588  0.0195 -0.4383 -0.7863
  587TIP3   OH223175   2.662   0.612  11.037  0.3165 -0.1284 -0.0958
  587TIP3    H123176   2.599   0.547  11.008 -2.5636  2.2732  0.2949
  587TIP3    H223177   2.686   0.660  10.958 -1.9712  1.8339  0.3121
  588TIP3   OH223178   2.683   1.186   1.915 -0.2463  0.6741  0.4697
  588TIP3    H123179   2.744   1.176   1.842  0.2636 -1.3656  1.0934
  588TIP3    H223180   2.736   1.225   1.984 -0.0093  0.2479  0.5395
  589TIP3   OH223181   6.158   5.303   0.658 -0.6114  0.0877 -0.3508
  589TIP3    H123182   6.246   5.300   0.695 -0.8616 -0.1457  0.2473
  589TIP3    H223183   6.100   5.297   0.734 -1.1789  2.6008 -0.5231
  590TIP3   OH223184   5.950   6.761  10.394 -0.4504  0.2588 -0.0440
  590TIP3    H123185   5.957   6.670  10.366  0.5443  0.6372 -1.0711
  590TIP3    H223186   5.962   6.812  10.315 -0.9146  1.3060  0.5369
  591TIP3   OH223187   0.698   4.177  15.189 -0.2139 -0.2020  0.0213
  591TIP3    H123188   0.787   4.171  15.222 -0.5571 -0.4969  0.9031
  591TIP3    H223189   0.644   4.190  15.267 -0.8984  0.4637 -0.5461
  592TIP3   OH223190   0.773   3.631  13.539  0.0499  0.0312  0.2459
  592TIP3    H123191   0.856   3.678  13.548  0.7313 -0.6337 -2.0077
  592TIP3    H223192   0.736   3.630  13.628  0.8112  3.2600  0.7036
  593TIP3   OH223193   1.777   2.155  13.007  0.3014 -0.0072 -0.0784
  593TIP3    H123194   1.733   2.239  13.018  0.4886  0.2395 -1.1012
  593TIP3    H223195   1.735   2.097  13.070  0.5974  1.0087  1.0808
  594TIP3   OH223196   3.790   3.180  12.609  0.3540  0.0474  0.4244
  594TIP3    H123197   3.714   3.213  12.560  0.8029  1.0114  0.3628
  594TIP3    H223198   3.773   3.206  12.699  0.0821 -0.7257  0.6076
  595TIP3   OH223199   5.499   4.462  11.868  0.3492  0.0459 -0.4480
  595TIP3    H123200   5.498   4.478  11.774  1.6932 -0.3696 -0.5461
  595TIP3    H223201   5.407   4.448  11.890  0.0159  0.1091 -1.6995
  596TIP3   OH223202   3.885   4.571  10.303  0.6181 -0.1655 -0.7614
  596TIP3    H123203   3.955   4.635  10.314 -1.6557  2.2203  1.1746
  596TIP3    H223204   3.847   4.562  10.391 -1.6564 -1.1067 -1.7644
  597TIP3   OH223205   4.535   7.031  15.334  0.6834 -0.2342  0.3239
  597TIP3    H123206   4.492   7.096  15.389  0.6478  0.7079 -0.7732
  597TIP3    H223207   4.628   7.051  15.341  0.6969 -0.2754  0.2636
  598TIP3   OH223208   0.689   1.511  11.946 -0.0540 -0.4968 -0.0012
  598TIP3    H123209   0.619   1.574  11.960 -0.1888 -0.8699  1.1332
  598TIP3    H223210   0.694   1.462  12.029  0.9108 -1.0980 -0.3971
  599TIP3   OH223211   3.409   0.021  10.622 -0.2397  0.1442 -0.0220
  599TIP3    H123212   3.391   0.021  10.528  0.7788 -0.0676 -0.2327
  599TIP3    H223213   3.382   0.108  10.652 -2.5351 -0.4955 -0.0844
  600TIP3   OH223214   6.877   2.586  14.340 -0.5358  0.1265 -0.2836
  600TIP3    H123215   6.818   2.592  14.266  0.1285 -1.6403 -1.0212
  600TIP3    H223216   6.942   2.655  14.325 -0.0965 -0.5481 -1.6781
  601TIP3   OH223217   0.198   5.950  15.366 -0.2372  0.4575 -0.5850
  601TIP3    H123218   0.276   5.977  15.415 -0.4054 -1.8389  1.0612
  601TIP3    H223219   0.208   5.993  15.281  2.3535  0.9827 -0.0961
  602TIP3   OH223220   5.617   2.781  12.607 -0.1551 -0.1865  0.0757
  602TIP3    H123221   5.698   2.812  12.567 -1.1206 -0.7763 -2.5539
  602TIP3    H223222   5.640   2.765  12.698  2.1140  1.6588 -0.0685
  603TIP3   OH223223   4.404   3.843  12.040 -0.1466  0.0519 -0.9768
  603TIP3    H123224   4.436   3.840  12.130 -0.3694  2.6740 -0.7442
  603TIP3    H223225   4.481   3.820  11.987  0.0514 -1.2585 -0.1526
  604TIP3   OH223226   4.892   2.231  14.580 -0.4738 -0.2300 -0.6869
  604TIP3    H123227   4.810   2.180  14.582 -0.5986 -0.1090 -1.9673
  604TIP3    H223228   4.884   2.290  14.655 -0.8984 -1.2010  0.0696
  605TIP3   OH223229   2.590   1.003   9.868  0.6612  0.0950  0.0572
  605TIP3    H123230   2.629   1.063   9.932  0.7561  0.3062 -0.1955
  605TIP3    H223231   2.496   1.016   9.877  0.5965 -1.1704  1.3982
  606TIP3   OH223232   6.548   5.339   0.249  0.1461 -0.0264 -0.0267
  606TIP3    H123233   6.599   5.340   0.330 -0.0250 -0.1289  0.0828
  606TIP3    H223234   6.490   5.415   0.256 -0.8204 -0.7948  0.5621
  607TIP3   OH223235   4.824   0.459   9.681  0.0020 -0.5132 -0.1031
  607TIP3    H123236   4.840   0.399   9.608  1.5219 -1.0518  0.6132
  607TIP3    H223237   4.910   0.470   9.722 -0.7930 -0.2247  1.5868
  608TIP3   OH223238   3.242   0.822  14.079 -0.4141  0.4856  0.2663
  608TIP3    H123239   3.310   0.758  14.061 -0.6449  0.0783  0.8125
  608TIP3    H223240   3.288   0.894  14.123 -0.0861  0.8871 -0.7192
  609TIP3   OH223241   2.793   1.585  13.156  0.1883  0.0320 -0.1510
  609TIP3    H123242   2.869   1.590  13.098  1.0460 -0.0768  0.9378
  609TIP3    H223243   2.818   1.522  13.223 -0.0034  1.5771  1.4342
  610TIP3   OH223244   0.806   2.119  15.493  1.0933  0.7444  0.6682
  610TIP3    H123245   0.896   2.135  15.464  0.5590  1.2900 -0.7936
  610TIP3    H223246   0.766   2.205  15.494 -0.0333  0.2922 -0.9634
  611TIP3   OH223247   4.953   4.425  14.789  0.1447 -0.0407 -0.3864
  611TIP3    H123248   5.009   4.422  14.711 -0.5216  0.1171 -0.8805
  611TIP3    H223249   5.001   4.374  14.855  0.5017 -0.5577 -1.0342
  612TIP3   OH223250   2.911   6.836   3.826  0.0050 -0.5055  0.1506
  612TIP3    H123251   2.910   6.816   3.733 -0.9496 -3.4564  0.6896
  612TIP3    H223252   2.990   6.888   3.839  0.8166 -1.0718 -2.1122
  613TIP3   OH223253   5.567   1.494  10.118  0.4260  0.5030 -0.0508
  613TIP3    H123254   5.516   1.473  10.039  0.5629 -0.0258 -0.0013
  613TIP3    H223255   5.601   1.582  10.101 -1.1386  1.1947  0.2457
  614TIP3   OH223256   7.073   4.114  13.417  0.0745  0.2502  0.1793
  614TIP3    H123257   7.157   4.140  13.381 -0.1699  0.4198 -0.2783
  614TIP3    H223258   7.034   4.195  13.448  0.3735  0.0746  1.0213
  615TIP3   OH223259   0.490   1.648  10.084 -0.1580  0.5286  0.1546
  615TIP3    H123260   0.569   1.600  10.107 -0.5669 -0.2642 -0.0666
  615TIP3    H223261   0.488   1.721  10.146  0.8944  0.7250 -0.0242
  616TIP3   OH223262   2.417   2.263  14.023 -0.6110  0.5730  0.6708
  616TIP3    H123263   2.508   2.262  13.994 -0.8200 -1.7312 -0.0948
  616TIP3    H223264   2.370   2.314  13.957 -0.7743 -3.0590 -2.3333
  617TIP3   OH223265   6.343   5.490  11.890  0.0367  0.3052 -0.5583
  617TIP3    H123266   6.334   5.493  11.985 -0.1389 -1.9035 -0.4595
  617TIP3    H223267   6.267   5.540  11.857  0.3664  1.4959  0.4264
  618TIP3   OH223268   4.701   2.009  15.365 -0.3088  0.7036 -0.0985
  618TIP3    H123269   4.738   2.083  15.413  0.1255  0.9873 -0.8383
  618TIP3    H223270   4.621   1.986  15.411  0.9054 -0.0850  1.7184
  619TIP3   OH223271   0.461   6.108  10.749 -0.6104 -0.7353  0.3810
  619TIP3    H123272   0.511   6.074  10.675  1.0012  0.0031  1.0773
  619TIP3    H223273   0.429   6.193  10.719 -0.0694 -0.4966  0.4507
  620TIP3   OH223274   6.694   4.193  12.737  0.2354 -0.1839 -0.3215
  620TIP3    H123275   6.699   4.140  12.658  1.3339 -1.7817  0.7434
  620TIP3    H223276   6.618   4.158  12.785  1.7455 -1.8476  1.0152
  621TIP3   OH223277   2.347   6.547  13.238  0.5869  0.6222 -0.1941
  621TIP3    H123278   2.397   6.480  13.285  0.3497  1.3240  1.1051
  621TIP3    H223279   2.258   6.539  13.272  0.7708  2.2622  0.7544
  622TIP3   OH223280   1.132   4.434  15.657  0.2354  0.0838 -0.3961
  622TIP3    H123281   1.076   4.368  15.697 -0.7427  0.7100 -0.7066
  622TIP3    H223282   1.146   4.499  15.725 -0.2474  0.4325 -0.6287
  623TIP3   OH223283   6.809   2.552   5.027  0.1080  0.3474 -0.4647
  623TIP3    H123284   6.898   2.583   5.009 -0.1039  0.7063 -0.9425
  623TIP3    H223285   6.820   2.482   5.091  0.8858 -0.7663 -1.7608
  624TIP3   OH223286   5.892   3.235   0.550  0.3252 -0.1093 -0.6684
  624TIP3    H123287   5.816   3.182   0.575 -0.7648  1.2981 -0.8260
  624TIP3    H223288   5.950   3.231   0.626 -0.2990 -0.5212 -0.2035
  625TIP3   OH223289   5.231   1.643  10.018  0.0558 -0.1736  0.3890
  625TIP3    H123290   5.291   1.620   9.947  0.2510 -0.9611  0.7966
  625TIP3    H223291   5.208   1.735  10.001 -0.9951 -0.7347 -1.4709
  626TIP3   OH223292   4.776   4.786   5.424 -0.3106 -0.3370 -0.1452
  626TIP3    H123293   4.767   4.749   5.336  1.3357 -1.5270  0.1416
  626TIP3    H223294   4.824   4.868   5.411  0.1951 -0.6610 -0.3268
  627TIP3   OH223295   4.703   6.111  13.779 -0.0687 -0.0211  0.2534
  627TIP3    H123296   4.679   6.114  13.687  1.0527  1.0192 -0.0371
  627TIP3    H223297   4.789   6.069  13.779 -0.0773 -0.0411  0.8286
  628TIP3   OH223298   3.481   5.364  11.666  0.5913 -0.0601  0.4642
  628TIP3    H123299   3.557   5.313  11.694 -0.3743 -1.7813  0.0935
  628TIP3    H223300   3.408   5.329  11.717  0.0269  1.6701  0.9450
  629TIP3   OH223301   2.762   4.640  12.058 -0.4376  0.3407  0.0709
  629TIP3    H123302   2.824   4.583  12.012 -0.4030 -0.4775  1.1018
  629TIP3    H223303   2.766   4.723  12.010  3.1738  1.1133  1.4146
  630TIP3   OH223304   4.212   1.586  14.742  0.0760 -0.3408  0.5204
  630TIP3    H123305   4.267   1.614  14.669  1.1593 -1.4681  0.8643
  630TIP3    H223306   4.135   1.642  14.738  0.4028  0.0173 -1.1139
  631TIP3   OH223307   6.924   7.106   5.024  0.9055 -0.4187 -0.3841
  631TIP3    H123308   7.019   7.097   5.013  0.7320 -2.4824 -0.5960
  631TIP3    H223309   6.901   7.038   5.087 -0.1023  1.8995  1.9678
  632TIP3   OH223310   5.640   1.038  15.652 -0.2919  0.4504 -0.1764
  632TIP3    H123311   5.614   1.036  15.560  0.2906  0.0555 -0.3391
  632TIP3    H223312   5.711   0.974  15.658 -0.4122  0.3801  0.5755
  633TIP3   OH223313   0.510   5.800  11.199  0.4121 -0.0807 -0.0795
  633TIP3    H123314   0.595   5.818  11.238  0.7777 -0.9877 -0.4475
  633TIP3    H223315   0.504   5.860  11.125  0.6867  0.0396 -0.0061
  634TIP3   OH223316   0.031   6.652  12.355  0.1685 -0.4693 -0.4612
  634TIP3    H123317   0.014   6.642  12.261  1.1014 -1.3208 -0.5529
  634TIP3    H223318  -0.056   6.662  12.394 -0.4244 -2.4185 -1.1697
  635TIP3   OH223319   2.608   2.614  10.584  0.1591  0.4302 -0.6299
  635TIP3    H123320   2.658   2.641  10.662 -2.4096  0.7672  1.0256
  635TIP3    H223321   2.580   2.696  10.544 -1.5977  0.3131  0.2639
  636TIP3   OH223322   4.919   4.552  11.272  0.2641  0.2833  0.4763
  636TIP3    H123323   4.988   4.514  11.218  0.5423  1.7537 -0.2456
  636TIP3    H223324   4.844   4.493  11.262  1.3183 -1.2093  1.0860
  637TIP3   OH223325   6.163   4.413   1.426  0.2765  0.1706  0.1161
  637TIP3    H123326   6.130   4.439   1.340  2.3763 -0.1211 -0.8323
  637TIP3    H223327   6.085   4.384   1.473 -1.1979  1.9986 -1.0453
  638TIP3   OH223328   6.097   0.389  10.752 -0.1799  0.1806 -0.2076
  638TIP3    H123329   6.001   0.395  10.757 -0.1709  2.2813 -1.4640
  638TIP3    H223330   6.126   0.407  10.842 -0.9565 -0.6278  0.2196
  639TIP3   OH223331   5.790   0.455  12.272 -0.4529 -0.2659 -0.3070
  639TIP3    H123332   5.695   0.443  12.271 -0.6387  0.9080 -1.9237
  639TIP3    H223333   5.813   0.465  12.364 -2.1419  0.9647  0.0320
  640TIP3   OH223334   3.946   2.886  13.680  0.3445  0.4399  0.5087
  640TIP3    H123335   3.902   2.888  13.595  0.5878 -1.1656  0.3269
  640TIP3    H223336   3.917   2.967  13.723 -0.5153  0.8221 -0.7179
  641TIP3   OH223337   1.885   0.322  11.590  0.2143 -0.2790 -0.2685
  641TIP3    H123338   1.907   0.235  11.556 -1.9070 -0.9836 -0.0319
  641TIP3    H223339   1.789   0.325  11.586  0.0635  0.9333  2.4612
  642TIP3   OH223340   7.075   2.404  10.423 -0.5779 -0.0694  0.3564
  642TIP3    H123341   7.042   2.361  10.501  2.4374 -2.3280  0.5840
  642TIP3    H223342   7.119   2.335  10.374  1.5215  2.0860 -1.0588
  643TIP3   OH223343   6.028   2.828  14.586 -0.0981 -0.0717 -0.1246
  643TIP3    H123344   6.081   2.782  14.521  0.0582  1.8305 -1.4063
  643TIP3    H223345   6.018   2.917  14.551 -1.5751  0.4862  1.5676
  644TIP3   OH223346   3.160   5.008   9.700  0.3456  0.4667 -0.9776
  644TIP3    H123347   3.217   4.961   9.761 -1.1940  0.2056  0.3059
  644TIP3    H223348   3.213   5.083   9.672  1.3266  0.2402  0.1570
  645TIP3   OH223349   3.046   0.895  14.341 -0.1535  0.0874 -0.3518
  645TIP3    H123350   2.956   0.918  14.320 -0.0918  0.6426 -0.0182
  645TIP3    H223351   3.099   0.967  14.306  0.1109  0.0403 -0.0558
  646TIP3   OH223352   5.365   4.326   1.438  0.0909  0.0215  0.1947
  646TIP3    H123353   5.370   4.262   1.367 -0.0998 -0.4953  0.6400
  646TIP3    H223354   5.272   4.344   1.449  0.2339  2.2992 -1.6020
  647TIP3   OH223355   4.391   2.716  15.389  0.4384 -0.6744  0.0357
  647TIP3    H123356   4.383   2.801  15.345  2.2996 -0.6079 -0.2510
  647TIP3    H223357   4.477   2.683  15.363  0.0899 -2.2859  0.7984
  648TIP3   OH223358   5.917   4.752   1.345 -0.5290 -0.3773  0.2058
  648TIP3    H123359   5.997   4.757   1.292 -0.9428 -0.8839 -0.4721
  648TIP3    H223360   5.946   4.711   1.427  0.0535  0.1285  0.2607
  649TIP3   OH223361   3.078   4.518   2.073 -0.0168 -0.3235 -0.0869
  649TIP3    H123362   2.988   4.521   2.040  0.1542  1.4485 -0.5032
  649TIP3    H223363   3.083   4.435   2.121 -0.7504 -2.3411 -3.1751
  650TIP3   OH223364   0.363   6.709   2.660  0.1365 -0.2138  0.0688
  650TIP3    H123365   0.392   6.754   2.740  0.6830  0.3086 -0.4184
  650TIP3    H223366   0.414   6.628   2.659  0.4462 -0.0211  0.0296
  651TIP3   OH223367   3.043   0.843  12.185  0.6046  0.2178  0.0073
  651TIP3    H123368   3.084   0.921  12.148  0.9633  0.1339  0.2259
  651TIP3    H223369   3.105   0.772  12.168  0.2924 -0.0191 -0.1704
  652TIP3   OH223370   0.958   4.703  12.401  0.3198  0.0235 -0.2520
  652TIP3    H123371   1.017   4.778  12.403  0.0110  0.2547  0.2312
  652TIP3    H223372   0.953   4.673  12.491  1.1678 -1.1617 -0.5873
  653TIP3   OH223373   4.813   6.820  12.352  0.0261 -0.2369  0.1554
  653TIP3    H123374   4.729   6.845  12.314 -0.3381 -0.1604  0.9988
  653TIP3    H223375   4.790   6.765  12.427  0.7195 -0.0231  0.5354
  654TIP3   OH223376   1.917   3.410  12.055  0.7413  0.2321  0.4253
  654TIP3    H123377   1.878   3.494  12.078 -0.4783 -0.4555  0.9400
  654TIP3    H223378   1.863   3.376  11.984  0.2306 -0.8353  1.2972
  655TIP3   OH223379   6.214   3.547  10.752 -0.0343 -0.0022  0.4620
  655TIP3    H123380   6.152   3.566  10.681  2.0162  0.2338 -1.3520
  655TIP3    H223381   6.170   3.580  10.831 -2.3986 -0.2965 -0.6451
  656TIP3   OH223382   3.537   5.978  12.082  0.4882 -0.7785 -0.0793
  656TIP3    H123383   3.626   5.976  12.048  1.1259 -0.4125  1.4921
  656TIP3    H223384   3.544   6.022  12.167 -1.2232 -0.5411 -0.0219
  657TIP3   OH223385   2.803   2.113  11.582 -0.3778 -0.1388  0.3422
  657TIP3    H123386   2.755   2.161  11.515 -0.8851  1.0059  1.4849
  657TIP3    H223387   2.736   2.072  11.636 -0.1561  1.4752  1.9559
  658TIP3   OH223388   3.406   0.597  10.059  0.4982  0.0380 -0.5554
  658TIP3    H123389   3.489   0.550  10.051  1.1130  0.7952  0.8495
  658TIP3    H223390   3.425   0.685  10.025 -0.1897 -0.2239 -1.6732
  659TIP3   OH223391   3.776   0.844   6.006  0.4238  0.3297 -0.3745
  659TIP3    H123392   3.868   0.835   6.032  0.4574  1.8272  0.1232
  659TIP3    H223393   3.736   0.760   6.029  1.5572 -0.1764 -0.1721
  660TIP3   OH223394   3.269   6.151   0.349 -0.5630  0.2132  0.5084
  660TIP3    H123395   3.271   6.060   0.319 -0.5154  0.7969 -1.3669
  660TIP3    H223396   3.352   6.163   0.394 -0.6938 -0.7436  1.0323
  661TIP3   OH223397   0.247   3.327  13.808 -0.1660  0.1061  0.0781
  661TIP3    H123398   0.213   3.392  13.868 -0.4920  0.4205 -0.4420
  661TIP3    H223399   0.173   3.303  13.752 -0.0355 -0.6602  0.2150
  662TIP3   OH223400   6.887   4.939  12.678 -0.5828 -0.1085  0.5416
  662TIP3    H123401   6.834   4.951  12.599  1.3478  0.3333 -0.7543
  662TIP3    H223402   6.859   4.854  12.712 -2.1481  0.1326 -0.0381
  663TIP3   OH223403   1.566   5.608   0.859 -0.0709  0.1198  0.7961
  663TIP3    H123404   1.477   5.576   0.873  0.0466 -1.6661 -1.7780
  663TIP3    H223405   1.620   5.528   0.854  0.8880  0.8356 -2.0431
  664TIP3   OH223406   5.425   6.686  15.169  0.0207 -0.7018 -0.1993
  664TIP3    H123407   5.344   6.714  15.212 -0.7685  0.4478 -2.2945
  664TIP3    H223408   5.461   6.766  15.131 -0.5814 -1.8858 -3.6070
  665TIP3   OH223409   4.264   1.456  15.396  0.5317  0.3054  0.5452
  665TIP3    H123410   4.234   1.409  15.474 -0.4364 -0.0736 -0.0278
  665TIP3    H223411   4.241   1.547  15.412  1.1102  0.3634  1.0569
  666TIP3   OH223412   1.089   1.236  12.610 -0.2723 -0.2839  0.1593
  666TIP3    H123413   1.063   1.245  12.702 -0.4273  2.0058 -0.0621
  666TIP3    H223414   1.153   1.305  12.595 -1.8516  0.8556 -1.9794
  667TIP3   OH223415   1.278   6.906  14.993 -0.1097  0.1520  0.1014
  667TIP3    H123416   1.248   6.993  14.968 -1.2341 -0.2282  0.0507
  667TIP3    H223417   1.310   6.868  14.911 -1.9027 -0.3489 -0.4304
  668TIP3   OH223418   5.236   0.526   2.684 -1.0203 -0.1483  0.1864
  668TIP3    H123419   5.302   0.564   2.627 -1.3739 -0.0101 -0.1357
  668TIP3    H223420   5.161   0.509   2.627 -1.6075  0.5642  0.7207
  669TIP3   OH223421   4.114   3.756  11.937 -0.2453  0.2653 -1.0086
  669TIP3    H123422   4.136   3.674  11.981  0.1710  0.4109 -0.9470
  669TIP3    H223423   4.169   3.822  11.979 -0.3594  0.5250 -1.2646
  670TIP3   OH223424   4.883   1.425  11.933  0.2592 -1.0278  0.4742
  670TIP3    H123425   4.821   1.460  11.869  0.2233 -1.8382  0.0506
  670TIP3    H223426   4.944   1.372  11.881  0.5131 -1.3142  1.0512
  671TIP3   OH223427   5.780   6.619   1.914  0.5313 -0.3258 -0.8277
  671TIP3    H123428   5.843   6.579   1.855  0.5192  0.0053 -1.0705
  671TIP3    H223429   5.803   6.587   2.001  1.8112  0.7513 -0.7442
  672TIP3   OH223430   2.847   2.121  10.026  0.1484  0.2043 -0.4383
  672TIP3    H123431   2.770   2.102  10.079  0.8462  0.1248  0.5744
  672TIP3    H223432   2.921   2.108  10.086  1.1502 -2.2903 -2.0288
  673TIP3   OH223433   6.582   3.334  11.670  0.6189 -0.1098  0.5712
  673TIP3    H123434   6.567   3.341  11.764 -0.9034  2.7874  0.2496
  673TIP3    H223435   6.616   3.246  11.657 -3.0151 -2.1705  3.3267
  674TIP3   OH223436   2.985   1.070   5.013  0.1406 -0.7757 -0.7166
  674TIP3    H123437   2.959   1.060   5.104  1.2498 -1.6520 -0.4730
  674TIP3    H223438   2.902   1.085   4.966 -0.3413  0.8504  0.5427
  675TIP3   OH223439   2.690   6.612  12.431  0.5635  0.0846  0.1537
  675TIP3    H123440   2.744   6.573  12.499  0.7182 -0.5565 -0.3363
  675TIP3    H223441   2.658   6.538  12.379  1.9087  0.6435 -1.5831
  676TIP3   OH223442   3.574   1.334   0.181  0.5986 -0.6511  0.4988
  676TIP3    H123443   3.555   1.254   0.131  0.7426 -0.3462 -0.0429
  676TIP3    H223444   3.503   1.394   0.158 -1.9062 -1.9424  3.9789
  677TIP3   OH223445   0.661   6.219  13.620  0.1581  0.0186  0.1242
  677TIP3    H123446   0.670   6.185  13.531  0.5578 -2.0089  0.8674
  677TIP3    H223447   0.567   6.215  13.637  0.0914  0.3129 -0.1563
  678TIP3   OH223448   0.671   1.619   0.080 -0.0145  0.0304  0.2320
  678TIP3    H123449   0.674   1.541   0.025 -0.4407  0.0240  0.2105
  678TIP3    H223450   0.600   1.672   0.043  1.0604  1.0167 -0.5145
  679TIP3   OH223451   2.370   6.965  12.322 -0.3336  0.3628 -0.4597
  679TIP3    H123452   2.356   6.873  12.298 -1.4841  0.2722  0.4505
  679TIP3    H223453   2.398   6.962  12.414  0.2373  0.8885 -0.6146
  680TIP3   OH223454   6.916   0.318  11.313  0.8578  0.3699 -0.0988
  680TIP3    H123455   6.864   0.332  11.233  1.9985  0.0665 -0.9282
  680TIP3    H223456   6.892   0.230  11.341 -0.4114  0.9046  0.5815
  681TIP3   OH223457   6.578   2.826  11.664  0.1651  0.3668  0.3920
  681TIP3    H123458   6.509   2.760  11.673  0.9478 -0.8094 -1.6411
  681TIP3    H223459   6.541   2.891  11.605  0.5897 -0.0127 -0.3063
  682TIP3   OH223460   4.461   0.934  10.300 -0.7713  0.0236  0.0721
  682TIP3    H123461   4.400   1.004  10.278 -0.7540 -0.0248 -0.1313
  682TIP3    H223462   4.480   0.891  10.216 -0.8116 -0.2479  0.2006
  683TIP3   OH223463   0.553   2.863  12.446 -0.0419 -0.5746  0.2497
  683TIP3    H123464   0.522   2.890  12.532 -0.8489  0.3900 -0.3247
  683TIP3    H223465   0.600   2.940  12.412 -1.7071 -0.0685 -1.0885
  684TIP3   OH223466   0.957   4.887  12.840  0.4641 -0.0146  0.1617
  684TIP3    H123467   0.986   4.817  12.900 -0.2900  0.1586  0.7504
  684TIP3    H223468   1.006   4.964  12.868  1.0307 -0.2147 -0.2556
  685TIP3   OH223469   4.071   0.079  14.366  0.1153 -0.1461 -0.5587
  685TIP3    H123470   4.141   0.106  14.426 -2.0001  0.4107  1.8499
  685TIP3    H223471   4.052   0.158  14.315  0.0776  0.2194  0.0088
  686TIP3   OH223472   3.716   5.263   1.628  0.1917  0.0882  0.5515
  686TIP3    H123473   3.774   5.336   1.608  0.2979  0.0548  0.7410
  686TIP3    H223474   3.630   5.293   1.599  0.2264  0.3078  0.6737
  687TIP3   OH223475   0.460   1.883  13.844 -0.7630  0.0363 -0.1589
  687TIP3    H123476   0.510   1.850  13.919 -2.3160  0.6715  1.2453
  687TIP3    H223477   0.427   1.969  13.874 -0.2827  0.9467 -2.1136
  688TIP3   OH223478   5.628   2.092  12.645  0.1741 -0.2990  0.7621
  688TIP3    H123479   5.670   2.017  12.603  0.5152  0.4068 -0.1903
  688TIP3    H223480   5.543   2.100  12.602 -0.3559 -0.8299  1.6734
  689TIP3   OH223481   6.280   3.624  12.446 -0.0689  0.1632  0.0529
  689TIP3    H123482   6.316   3.618  12.358 -0.5485 -0.0862 -0.1335
  689TIP3    H223483   6.187   3.601  12.435  0.3048 -2.0809  0.9285
  690TIP3   OH223484   2.650   2.742  12.018  0.1022 -0.6163  0.1169
  690TIP3    H123485   2.559   2.770  12.013 -0.4651 -2.3137  0.2861
  690TIP3    H223486   2.660   2.679  11.947  0.9117 -1.0738  0.6172
  691TIP3   OH223487   4.380   4.634   2.222 -0.0383  0.1321  0.4247
  691TIP3    H123488   4.435   4.710   2.245 -0.0380  0.2832 -0.0715
  691TIP3    H223489   4.374   4.636   2.127  2.2674 -2.0991  0.1338
  692TIP3   OH223490   2.212   1.696   2.071 -0.1883 -0.4312  0.1908
  692TIP3    H123491   2.257   1.780   2.081 -0.0565 -0.4439 -0.2852
  692TIP3    H223492   2.181   1.696   1.981 -0.0644 -0.9561  0.1479
  693TIP3   OH223493   3.028   5.311   2.501 -0.0919  0.3153 -0.2173
  693TIP3    H123494   3.109   5.358   2.522  0.3616 -0.5174 -0.0527
  693TIP3    H223495   2.963   5.347   2.562  0.6394 -0.3905  1.0299
  694TIP3   OH223496   2.394   5.387   1.767  0.1900 -0.2390 -0.1320
  694TIP3    H123497   2.440   5.317   1.721  0.7286 -0.8886  1.3153
  694TIP3    H223498   2.389   5.356   1.857  1.4100  2.0244  0.8096
  695TIP3   OH223499   3.535   4.927   4.777 -0.1835  0.7398 -0.1720
  695TIP3    H123500   3.463   4.868   4.798 -0.3808  0.9178 -0.3444
  695TIP3    H223501   3.571   4.951   4.863  1.7916 -1.9034 -0.1556
  696TIP3   OH223502   6.389   0.373  11.790 -0.0166 -0.0242  0.6879
  696TIP3    H123503   6.433   0.426  11.724  1.0735 -1.6425  0.0391
  696TIP3    H223504   6.298   0.403  11.788  0.0508  0.1991 -1.3641
  697TIP3   OH223505   3.428   5.834   1.282 -0.0039  0.2993  0.0463
  697TIP3    H123506   3.485   5.910   1.264  0.5320 -0.3723 -1.2822
  697TIP3    H223507   3.477   5.760   1.246 -0.7022 -0.6262  0.9714
  698TIP3   OH223508   1.365   4.397  12.800 -0.0286 -0.3507  0.5676
  698TIP3    H123509   1.282   4.366  12.837 -1.0718  0.8282 -0.6760
  698TIP3    H223510   1.347   4.487  12.773  1.0631 -0.6853 -1.4988
  699TIP3   OH223511   6.314   6.147  10.497  0.1314  0.2861 -0.0588
  699TIP3    H123512   6.394   6.119  10.454 -0.0522  1.6503 -1.3633
  699TIP3    H223513   6.252   6.161  10.425 -0.4171  1.8915  0.6855
  700TIP3   OH223514   1.943   0.832  10.338  0.0637  0.1490 -0.1703
  700TIP3    H123515   1.962   0.758  10.281  1.2712 -1.0714  1.6937
  700TIP3    H223516   1.867   0.875  10.299 -1.2868 -2.6335 -0.8267
  701TIP3   OH223517   0.161   4.735  10.122  0.1220  0.4108 -0.3747
  701TIP3    H123518   0.155   4.695  10.035  0.0828  2.0116 -1.1454
  701TIP3    H223519   0.247   4.711  10.154  0.7383  1.0330 -1.5084
  702TIP3   OH223520   5.882   6.878   9.899 -0.6626 -0.2998 -0.3701
  702TIP3    H123521   5.965   6.924   9.912 -0.6472 -0.4743  0.1834
  702TIP3    H223522   5.851   6.907   9.813 -0.3137  0.2057 -0.3268
  703TIP3   OH223523   5.936   4.853  14.485 -0.6317 -0.4498  0.3166
  703TIP3    H123524   6.007   4.792  14.504 -0.3322 -0.6444 -1.2425
  703TIP3    H223525   5.959   4.890  14.399 -1.3861  1.0069  0.7139
  704TIP3   OH223526   5.465   4.287   5.491  0.2387 -0.0940  0.0309
  704TIP3    H123527   5.406   4.332   5.430  0.6364 -0.3296 -0.5347
  704TIP3    H223528   5.492   4.355   5.552 -0.1116  0.1614 -0.0906
  705TIP3   OH223529   2.965   6.062  11.777  0.5905  0.0600  0.2201
  705TIP3    H123530   3.055   6.090  11.762  0.7735  0.7602  2.3501
  705TIP3    H223531   2.923   6.070  11.691  2.4085  0.1912 -0.7085
  706TIP3   OH223532   6.502   1.653   1.222 -0.5867 -0.0575  0.8155
  706TIP3    H123533   6.509   1.610   1.136  0.3867  0.8704  0.4046
  706TIP3    H223534   6.583   1.628   1.267  0.3425  1.8809  0.2953
  707TIP3   OH223535   1.350   3.506  11.592 -0.0170 -0.4214  0.5531
  707TIP3    H123536   1.305   3.443  11.648 -0.1266  1.1588  2.3033
  707TIP3    H223537   1.435   3.519  11.634  0.1393  0.3476  0.0219
  708TIP3   OH223538   6.555   4.985   0.784 -0.5574  0.2464  0.0972
  708TIP3    H123539   6.542   4.915   0.849 -0.9283 -1.7177 -1.9831
  708TIP3    H223540   6.641   5.021   0.805  0.4948 -2.0881  0.1619
  709TIP3   OH223541   4.756   4.223  15.480 -0.5891  0.0096  0.1842
  709TIP3    H123542   4.791   4.182  15.402  0.9314  0.2387  0.7213
  709TIP3    H223543   4.663   4.200  15.479 -0.6755  0.2690 -1.8233
  710TIP3   OH223544   1.842   6.343  12.880 -0.2383  0.1694 -0.2510
  710TIP3    H123545   1.906   6.368  12.948 -1.2992  0.5575  0.6356
  710TIP3    H223546   1.849   6.247  12.875  0.4037  0.2050 -0.1629
  711TIP3   OH223547   0.045   6.356   4.564 -0.3180 -0.2757  0.0669
  711TIP3    H123548   0.061   6.343   4.471  0.4979 -2.5311  0.4571
  711TIP3    H223549   0.044   6.451   4.575  2.4076  0.0878 -1.7595
  712TIP3   OH223550   4.395   1.134  14.738 -0.4068  0.0575  0.1133
  712TIP3    H123551   4.320   1.095  14.783 -0.3900 -0.2483 -0.1151
  712TIP3    H223552   4.437   1.189  14.804 -0.9548  0.4010  0.1766
  713TIP3   OH223553   5.034   2.843   5.292  0.0246 -0.1301 -0.0866
  713TIP3    H123554   5.107   2.782   5.309  1.1713  1.2990  0.2831
  713TIP3    H223555   5.048   2.915   5.353 -2.5101 -0.4327  0.9655
  714TIP3   OH223556   6.944   3.247  13.501 -0.6415 -0.6772  0.3450
  714TIP3    H123557   6.865   3.250  13.556 -0.7703  1.5409  0.1466
  714TIP3    H223558   6.911   3.233  13.412 -1.2073  2.8135 -0.1583
  715TIP3   OH223559   4.639   6.741   0.650 -0.1834 -0.6074 -0.5745
  715TIP3    H123560   4.710   6.677   0.653  0.5636  0.2074 -0.6365
  715TIP3    H223561   4.657   6.801   0.722 -0.2178  0.2235 -1.2433
  716TIP3   OH223562   1.128   6.928  15.554 -0.4738  0.4953  0.1558
  716TIP3    H123563   1.203   6.887  15.597  2.5278  4.7088 -0.4706
  716TIP3    H223564   1.123   6.885  15.468  1.9169  0.6900 -0.1506
  717TIP3   OH223565   4.982   6.192  12.841 -0.3076  0.2362 -0.3259
  717TIP3    H123566   4.983   6.225  12.931  1.3241  0.5957 -0.4469
  717TIP3    H223567   4.901   6.141  12.835 -1.1411  1.3605  0.9050
  718TIP3   OH223568   3.039   5.053   4.742  0.8100 -0.4559  0.5212
  718TIP3    H123569   3.069   5.008   4.821  0.6694  0.3858  1.0634
  718TIP3    H223570   3.111   5.111   4.719 -0.4324  1.8270  2.0211
  719TIP3   OH223571   0.719   1.512  15.333 -0.0385 -0.3311  0.3272
  719TIP3    H123572   0.657   1.559  15.278 -0.7738 -0.7611  0.7750
  719TIP3    H223573   0.747   1.577  15.399  0.1406 -0.0836  0.0104
  720TIP3   OH223574   6.288   2.239  12.199  0.3598 -0.0706 -0.0090
  720TIP3    H123575   6.260   2.203  12.284 -1.0612 -1.5577 -1.0524
  720TIP3    H223576   6.213   2.290  12.169  1.3121  1.4766  0.1312
  721TIP3   OH223577   0.078   2.302  12.078 -0.3292 -0.6132  0.0813
  721TIP3    H123578   0.102   2.395  12.080 -0.1104 -0.6795  0.6894
  721TIP3    H223579   0.142   2.260  12.135 -0.4560 -1.1346 -0.1587
  722TIP3   OH223580   0.845   4.415   2.732  0.5971 -0.4368  0.6907
  722TIP3    H123581   0.934   4.381   2.748  0.6924 -0.1746  0.7188
  722TIP3    H223582   0.832   4.404   2.638  0.4001 -1.0960  0.7828
  723TIP3   OH223583   4.027   4.834  13.031 -0.6477  0.4523  0.8193
  723TIP3    H123584   3.987   4.920  13.018  2.9078  2.0608 -0.6829
  723TIP3    H223585   4.035   4.797  12.943 -0.6702 -0.7498  1.2919
  724TIP3   OH223586   3.744   2.106  11.906 -0.4884 -0.3494 -0.1504
  724TIP3    H123587   3.777   2.174  11.965  1.1039 -2.4148  1.5341
  724TIP3    H223588   3.650   2.103  11.925 -0.5783  1.2337 -0.1626
  725TIP3   OH223589   3.111   5.724   9.877 -0.0569 -0.3325 -0.4100
  725TIP3    H123590   3.152   5.797   9.922 -1.5382  0.5567 -0.4249
  725TIP3    H223591   3.139   5.646   9.925 -2.0534  0.5894  2.5387
  726TIP3   OH223592   0.775   1.823  13.689  0.5995 -0.0912  0.5614
  726TIP3    H123593   0.845   1.888  13.683  1.9741 -1.4947  0.8986
  726TIP3    H223594   0.791   1.778  13.773  0.0793 -1.2932  0.0366
  727TIP3   OH223595   4.984   1.390  14.451  0.3097  0.7224 -0.0449
  727TIP3    H123596   5.048   1.407  14.382  0.3371 -1.1603 -0.5237
  727TIP3    H223597   4.944   1.306  14.428 -0.2762  0.4397  1.7923
  728TIP3   OH223598   3.364   5.843  12.450  0.4238 -0.0372 -0.3968
  728TIP3    H123599   3.413   5.907  12.399 -0.1255  0.4585 -0.3082
  728TIP3    H223600   3.342   5.889  12.531  1.6514 -0.9435  0.4936
  729TIP3   OH223601   3.632   5.714  10.413 -0.6863 -0.0326 -0.2388
  729TIP3    H123602   3.679   5.673  10.486 -0.7120  1.5927  0.7274
  729TIP3    H223603   3.554   5.660  10.402 -1.6526  0.7385  2.2214
  730TIP3   OH223604   7.107   4.231  10.367 -0.1358 -0.0780 -0.0048
  730TIP3    H123605   7.111   4.296  10.296  1.3062 -1.2619 -1.0635
  730TIP3    H223606   7.185   4.249  10.420 -0.9246  0.4540  1.0098
  731TIP3   OH223607   4.045   5.187   4.510 -0.7506 -0.3736  0.6773
  731TIP3    H123608   4.136   5.207   4.487 -1.0637  0.1513 -0.1332
  731TIP3    H223609   4.032   5.096   4.484 -0.4680 -0.4369  0.7596
  732TIP3   OH223610   7.000   0.012  13.784  0.4202  0.2274  0.0952
  732TIP3    H123611   7.069  -0.001  13.719 -0.5131  0.4528 -0.9692
  732TIP3    H223612   6.945   0.082  13.748 -0.9742 -0.6766  0.3968
  733TIP3   OH223613   5.288   0.790  12.520  0.2485 -0.3153 -0.0215
  733TIP3    H123614   5.315   0.699  12.510  1.0828 -0.3354  1.9946
  733TIP3    H223615   5.362   0.833  12.563 -0.1041  1.3449 -0.9601
  734TIP3   OH223616   1.101   5.820  10.207 -0.0767  0.6422 -0.3899
  734TIP3    H123617   1.176   5.829  10.148 -0.8575 -1.2470 -1.7751
  734TIP3    H223618   1.127   5.754  10.270  0.4393  2.0482  0.9130
  735TIP3   OH223619   0.144   0.632  10.109  0.1408 -0.0267  0.6283
  735TIP3    H123620   0.094   0.560  10.149 -0.6596 -0.5870 -1.2729
  735TIP3    H223621   0.079   0.684  10.063  1.1273 -0.0116 -0.8045
  736TIP3   OH223622   0.951   0.500  11.200  0.1313  0.1957 -0.0117
  736TIP3    H123623   1.035   0.495  11.154  0.8462  1.4259  1.0591
  736TIP3    H223624   0.890   0.536  11.135  1.1462  2.0395 -0.0317
  737TIP3   OH223625   4.846   0.803   5.054 -0.1371 -0.6920  0.3496
  737TIP3    H123626   4.805   0.884   5.085 -0.0380 -0.5622  0.1369
  737TIP3    H223627   4.772   0.743   5.043 -0.2419 -0.5444  0.2376
  738TIP3   OH223628   2.557   4.784  14.484  0.2204  0.2333  0.6632
  738TIP3    H123629   2.592   4.742  14.406 -1.0033  0.4323 -0.0202
  738TIP3    H223630   2.532   4.872  14.456 -1.1294 -0.0082  1.0028
  739TIP3   OH223631   6.494   2.706  12.801 -0.3114 -0.8454  0.1498
  739TIP3    H123632   6.437   2.775  12.768  2.8199  2.9672  1.9173
  739TIP3    H223633   6.447   2.672  12.877 -2.3687 -1.5603 -1.3237
  740TIP3   OH223634   1.831   4.370   9.846 -0.3829  0.1070  0.3427
  740TIP3    H123635   1.745   4.377   9.804  0.0404 -0.3946 -0.6204
  740TIP3    H223636   1.858   4.461   9.859 -1.5827  0.3041  1.8045
  741TIP3   OH223637   3.321   0.772  11.923  0.0003 -0.2430 -0.4590
  741TIP3    H123638   3.229   0.755  11.902 -0.6680 -0.7727  2.3894
  741TIP3    H223639   3.349   0.695  11.972  0.7580  1.4265  1.9493
  742TIP3   OH223640   1.635   3.111   4.281 -0.1785  0.5595 -0.4640
  742TIP3    H123641   1.661   3.203   4.280  0.1804  0.5044  1.1300
  742TIP3    H223642   1.563   3.107   4.344 -0.7961 -0.1177 -1.1836
  743TIP3   OH223643   0.782   4.410  10.250  0.0719 -0.0668  0.0047
  743TIP3    H123644   0.841   4.464  10.302 -0.2610  0.9650 -0.6654
  743TIP3    H223645   0.772   4.329  10.301  1.7682 -0.1202  0.2860
  744TIP3   OH223646   1.232   4.365  13.579 -0.4126 -0.1770  0.0553
  744TIP3    H123647   1.312   4.318  13.558  0.0522 -0.5719  2.3782
  744TIP3    H223648   1.164   4.297  13.582 -0.2894 -0.2787  0.6898
  745TIP3   OH223649   2.826   5.602  13.652 -0.2352  0.6113 -0.3687
  745TIP3    H123650   2.909   5.643  13.680  1.0051 -1.1971 -1.1890
  745TIP3    H223651   2.777   5.591  13.733  0.6628  1.0215  0.2523
  746TIP3   OH223652   2.519   4.711  14.976 -0.8085  0.0462 -0.3377
  746TIP3    H123653   2.554   4.782  15.029 -0.8608 -0.1206 -0.0781
  746TIP3    H223654   2.523   4.744  14.886 -0.3515  0.1780 -0.2729
  747TIP3   OH223655   1.950   4.616  12.594  0.0586 -0.3108  0.1838
  747TIP3    H123656   2.046   4.618  12.587  0.1622 -1.5101  0.9730
  747TIP3    H223657   1.920   4.591  12.507  0.5150 -0.8255  0.1668
  748TIP3   OH223658   0.949   4.481  11.178  0.1148  0.2724  0.4852
  748TIP3    H123659   1.035   4.475  11.135  0.7254 -0.0740  1.7054
  748TIP3    H223660   0.952   4.565  11.224 -1.7324  2.1789 -2.5470
  749TIP3   OH223661   6.197   1.054   4.211 -0.4279 -0.1176 -0.0238
  749TIP3    H123662   6.226   0.993   4.143 -1.0581  0.2689 -0.6492
  749TIP3    H223663   6.267   1.120   4.215 -0.2497 -0.3019 -0.0869
  750TIP3   OH223664   5.628   4.460   4.564  0.1436  0.3618  0.3843
  750TIP3    H123665   5.544   4.503   4.545 -0.1171  0.2248  1.1470
  750TIP3    H223666   5.605   4.369   4.580  0.8864 -0.4504 -2.6994
  751TIP3   OH223667   5.107   0.440  10.141 -0.1053  0.5105  0.3562
  751TIP3    H123668   5.041   0.473  10.081 -1.9681 -0.6757  1.6458
  751TIP3    H223669   5.134   0.516  10.193 -2.6463  0.5454  1.7548
  752TIP3   OH223670   4.767   2.679   2.147 -0.1611  0.0178  0.4335
  752TIP3    H123671   4.705   2.708   2.214 -1.3798 -0.3991 -0.4942
  752TIP3    H223672   4.771   2.751   2.085  1.0621  0.4531  0.9838
  753TIP3   OH223673   6.399   5.404  12.874  0.2311 -0.3322  0.1413
  753TIP3    H123674   6.396   5.483  12.928 -4.2454  0.3076 -0.6453
  753TIP3    H223675   6.445   5.431  12.795  1.1277  0.6434  0.9552
  754TIP3   OH223676   4.297   0.178   0.197  0.2878 -0.3450  0.2033
  754TIP3    H123677   4.356   0.146   0.265 -0.2646 -2.0155 -0.0644
  754TIP3    H223678   4.235   0.234   0.244 -1.0510 -2.6971  1.4430
  755TIP3   OH223679   0.483   3.006  10.800  0.1681 -0.1250  0.0520
  755TIP3    H123680   0.443   2.935  10.752 -0.1612 -0.4864  0.8365
  755TIP3    H223681   0.469   2.984  10.892  1.8126 -0.0669  0.3507
  756TIP3   OH223682   4.299   4.404  11.359  0.1328 -0.2698 -0.7025
  756TIP3    H123683   4.207   4.386  11.379  0.4648 -0.1072  1.1999
  756TIP3    H223684   4.343   4.320  11.372  0.6576  0.2540  1.4704
  757TIP3   OH223685   1.047   3.399   5.009  0.2944  0.0983  0.2497
  757TIP3    H123686   1.071   3.491   5.018  1.3669 -0.1113 -0.2927
  757TIP3    H223687   1.031   3.369   5.099 -0.3102  0.8724  0.4065
  758TIP3   OH223688   1.060   7.088  14.506 -0.4966 -0.0789  0.4811
  758TIP3    H123689   1.013   7.153  14.558 -0.6231  1.6840 -1.6629
  758TIP3    H223690   0.998   7.065  14.436  0.5954 -0.2596 -0.4567
  759TIP3   OH223691   6.295   3.119   3.300 -0.5018 -0.4761 -0.2138
  759TIP3    H123692   6.283   3.082   3.213 -0.5128 -1.2145  0.0918
  759TIP3    H223693   6.369   3.180   3.291 -0.4947 -0.5604 -0.7296
  760TIP3   OH223694   4.181   0.418   9.757  0.0534  0.0399  0.2205
  760TIP3    H123695   4.237   0.480   9.804  1.0133  2.1165 -3.2403
  760TIP3    H223696   4.109   0.472   9.725  0.7491 -0.5771 -2.6533
  761TIP3   OH223697   2.189   3.677  15.444 -0.5717  0.3905 -0.1655
  761TIP3    H123698   2.143   3.621  15.382  0.4764 -0.5489 -0.1296
  761TIP3    H223699   2.160   3.765  15.423 -0.6346  0.0458 -1.6513
  762TIP3   OH223700   6.831   4.610  13.105  0.6934  0.2267  0.2017
  762TIP3    H123701   6.924   4.618  13.126  0.8745 -2.3589  0.7238
  762TIP3    H223702   6.812   4.517  13.116 -1.2490  0.1028 -2.9895
  763TIP3   OH223703   1.994   2.671   1.204  0.9030  0.0864 -0.3609
  763TIP3    H123704   2.065   2.606   1.203  0.2192 -0.6988  0.3998
  763TIP3    H223705   1.964   2.673   1.295  1.2284  1.8540 -0.2598
  764TIP3   OH223706   2.227   5.232  13.052  0.0158  0.0911  0.5886
  764TIP3    H123707   2.185   5.312  13.084  0.8243  1.1486 -0.8953
  764TIP3    H223708   2.174   5.205  12.977  0.5729  0.0328  0.2133
  765TIP3   OH223709   2.039   0.908   1.382  0.0020  0.6409  0.2585
  765TIP3    H123710   2.018   0.982   1.326 -0.9747  0.2980  0.1594
  765TIP3    H223711   2.132   0.920   1.403  0.4270  0.7477 -1.4844
  766TIP3   OH223712   1.911   4.056  11.386  0.5949  0.0633 -0.2858
  766TIP3    H123713   1.832   4.002  11.392 -0.2648  1.2262 -0.7508
  766TIP3    H223714   1.939   4.047  11.295 -1.0188  2.3147 -1.0971
  767TIP3   OH223715   3.523   5.177  12.748  0.4261  0.1311  0.6446
  767TIP3    H123716   3.589   5.127  12.700 -0.0132 -0.1458  0.3132
  767TIP3    H223717   3.477   5.226  12.680 -1.9200 -2.2014  0.3630
  768TIP3   OH223718   4.986   4.624  12.500 -0.1357 -0.1125  0.2839
  768TIP3    H123719   5.055   4.636  12.436 -1.2285 -0.7345 -1.0525
  768TIP3    H223720   5.031   4.626  12.585  1.1720  2.0782 -0.3710
  769TIP3   OH223721   3.024   2.672  12.742 -0.4664  0.0367 -0.2185
  769TIP3    H123722   3.092   2.607  12.722 -0.2955  0.1837 -0.1140
  769TIP3    H223723   3.025   2.731  12.667  0.1019  0.5266  0.1610
  770TIP3   OH223724   0.883   0.954  10.914 -0.3196  0.1832 -0.2823
  770TIP3    H123725   0.897   0.945  10.819 -0.5516 -0.7708 -0.2383
  770TIP3    H223726   0.813   0.892  10.933 -0.4416  0.5516  0.4815
  771TIP3   OH223727   6.968   0.836  10.930 -0.5617  0.0524 -1.0106
  771TIP3    H123728   6.886   0.874  10.900 -1.2391 -0.9903 -0.5297
  771TIP3    H223729   7.012   0.907  10.977 -2.2076  0.0349  0.6399
  772TIP3   OH223730   6.819   1.529  12.445  0.0636  0.3369  0.4963
  772TIP3    H123731   6.776   1.541  12.530 -1.3648 -0.2494 -0.1167
  772TIP3    H223732   6.884   1.460  12.461 -0.4969 -0.0830  1.0272
  773TIP3   OH223733   3.199   1.355  10.985  1.3392  0.1104 -0.4707
  773TIP3    H123734   3.141   1.317  11.051  1.1585 -0.8471 -1.1565
  773TIP3    H223735   3.149   1.429  10.949  1.6493  0.9685  0.8041
  774TIP3   OH223736   0.848   3.978  12.213  0.6466 -0.3106  0.0771
  774TIP3    H123737   0.871   3.897  12.257 -0.6873 -1.6846 -1.6342
  774TIP3    H223738   0.795   4.026  12.277 -0.2356 -1.6906  0.4205
  775TIP3   OH223739   1.956   5.556   0.253 -0.5886 -0.2472 -0.2402
  775TIP3    H123740   2.029   5.595   0.302  0.4168 -0.8434 -1.2009
  775TIP3    H223741   1.966   5.461   0.268 -1.2200 -0.3232 -0.3056
  776TIP3   OH223742   4.628   4.252   9.870 -0.8718 -0.1789  0.8214
  776TIP3    H123743   4.702   4.206   9.909 -2.4262 -2.7541  0.9415
  776TIP3    H223744   4.668   4.319   9.815  1.5114 -0.9931  1.4351
  777TIP3   OH223745   5.776   6.551  11.111  0.2662 -0.2653  0.4377
  777TIP3    H123746   5.741   6.476  11.063 -0.2782 -0.8367  1.6691
  777TIP3    H223747   5.860   6.570  11.069  0.0346 -1.0355 -0.4110
  778TIP3   OH223748   4.714   6.035   2.210  0.2209 -0.4611  0.3240
  778TIP3    H123749   4.750   6.094   2.145 -0.5922 -0.0771  0.2139
  778TIP3    H223750   4.777   5.963   2.215  1.4009  0.5819  0.7258
  779TIP3   OH223751   4.987   2.305  12.898 -0.0503 -0.0010  0.2299
  779TIP3    H123752   5.040   2.255  12.960  0.0572  1.3420  1.2794
  779TIP3    H223753   5.042   2.310  12.819  1.4377  1.3153  1.2718
  780TIP3   OH223754   5.758   2.771  15.289 -0.1462 -0.5383 -0.1275
  780TIP3    H123755   5.737   2.797  15.199 -0.6724 -0.7026 -0.0543
  780TIP3    H223756   5.756   2.852  15.339  3.2768  0.1187 -0.8018
  781TIP3   OH223757   4.418   4.663  15.581 -0.0593  0.1714  0.0220
  781TIP3    H123758   4.380   4.634  15.664  0.6003 -2.2869 -0.4455
  781TIP3    H223759   4.355   4.725  15.545 -3.0225 -2.6527 -0.0789
  782TIP3   OH223760   2.313   0.851  11.861  0.0143  0.5134 -0.5765
  782TIP3    H123761   2.290   0.920  11.924 -0.6856 -1.0475  0.9681
  782TIP3    H223762   2.230   0.828  11.819 -0.4911 -1.6273  1.3595
  783TIP3   OH223763   5.376   6.026   2.757 -0.1919  0.5378 -0.1391
  783TIP3    H123764   5.365   6.047   2.664 -1.1967 -0.2165 -0.2081
  783TIP3    H223765   5.468   6.042   2.774 -0.0102  0.7741 -1.2484
  784TIP3   OH223766   1.795   4.498  11.105 -0.5042 -0.3129 -0.2095
  784TIP3    H123767   1.742   4.560  11.155  1.0003 -0.1693  1.3241
  784TIP3    H223768   1.876   4.490  11.156  0.9265 -0.5638 -2.3872
  785TIP3   OH223769   4.201   3.846  10.774  0.5108  0.4411 -0.0408
  785TIP3    H123770   4.135   3.902  10.813 -0.7656 -0.0925 -1.3529
  785TIP3    H223771   4.201   3.767  10.828  0.4222  0.6291  0.2343
  786TIP3   OH223772   4.473   5.699   2.049 -0.7417 -0.1861 -0.1550
  786TIP3    H123773   4.472   5.734   2.138 -1.2275 -0.1207 -0.1790
  786TIP3    H223774   4.489   5.606   2.059 -1.4665 -0.2944  0.0518
  787TIP3   OH223775   6.253   2.386   9.441  0.3301  0.3818  0.1278
  787TIP3    H123776   6.304   2.322   9.393  0.8276  1.2207 -0.5021
  787TIP3    H223777   6.301   2.468   9.430 -2.5332  1.8825 -2.9920
  788TIP3   OH223778   4.090   1.058  14.637  1.1353 -0.4414  0.0190
  788TIP3    H123779   4.136   1.009  14.705 -1.4875  0.7707  2.8925
  788TIP3    H223780   4.110   1.150  14.657 -1.5421  0.0631  0.7267
  789TIP3   OH223781   4.937   3.150  14.530 -0.4837 -0.0251  0.4599
  789TIP3    H123782   4.979   3.233  14.506 -0.6809  0.5524  1.9944
  789TIP3    H223783   4.959   3.090  14.459  1.6100  0.6945  0.4371
  790TIP3   OH223784   0.882   1.022  10.639 -0.3879 -0.3350  0.7049
  790TIP3    H123785   0.925   1.058  10.562 -1.8898 -0.2146 -0.1213
  790TIP3    H223786   0.802   1.075  10.649  0.7911  1.1216  3.6812
  791TIP3   OH223787   2.196   3.518  13.037 -0.1621 -0.6257  0.4652
  791TIP3    H123788   2.101   3.519  13.028 -0.7098 -0.2132  4.3372
  791TIP3    H223789   2.216   3.600  13.083  2.1365 -0.5706 -0.4888
  792TIP3   OH223790   4.284   0.703  12.206  0.1689  0.3815  0.5077
  792TIP3    H123791   4.199   0.707  12.251  0.6397 -3.3322  2.0797
  792TIP3    H223792   4.262   0.711  12.113 -1.8614  0.0781  0.9149
  793TIP3   OH223793   5.759   3.899   4.720 -0.5380  0.2270  0.4065
  793TIP3    H123794   5.713   3.854   4.650  2.8928 -0.6803 -1.4972
  793TIP3    H223795   5.821   3.833   4.754 -0.2736  1.4605  2.4903
  794TIP3   OH223796   4.086   4.782   2.172  0.3949  0.4862  0.1870
  794TIP3    H123797   4.029   4.800   2.097  1.6358 -0.0439 -0.9445
  794TIP3    H223798   4.071   4.690   2.192  0.5676  0.4423  0.1213
  795TIP3   OH223799   1.206   1.162  13.081  0.2831  0.0365 -0.4684
  795TIP3    H123800   1.165   1.206  13.155  1.3574  0.9581 -0.3948
  795TIP3    H223801   1.261   1.094  13.120 -0.2330 -0.4032 -0.5020
  796TIP3   OH223802   2.037   2.532  15.062  0.0165 -0.1738  0.0332
  796TIP3    H123803   2.041   2.609  15.118  1.2406 -0.1842 -0.0091
  796TIP3    H223804   2.115   2.538  15.007  0.1391 -1.4356  0.0273
  797TIP3   OH223805   1.832   5.437   0.911 -0.2979 -0.8503 -0.0975
  797TIP3    H123806   1.858   5.516   0.957 -0.6933  0.2591 -1.6779
  797TIP3    H223807   1.778   5.389   0.973  1.2367 -0.6911  1.4463
  798TIP3   OH223808   2.125   0.661  13.225  0.1845  0.0178 -0.2806
  798TIP3    H123809   2.140   0.622  13.311 -0.4536  1.8219  0.7248
  798TIP3    H223810   2.208   0.653  13.179  1.4314  1.4945  1.5835
  799TIP3   OH223811   6.737   3.249  10.920 -0.3796 -0.0062  0.1492
  799TIP3    H123812   6.715   3.157  10.909  2.1437 -0.5213 -1.3935
  799TIP3    H223813   6.753   3.260  11.014  1.1734 -1.6514  0.1238
  800TIP3   OH223814   4.397   1.188  10.644  0.0690 -0.3465  0.0205
  800TIP3    H123815   4.304   1.170  10.659 -0.2140  0.1582 -0.9976
  800TIP3    H223816   4.404   1.284  10.652  0.2232 -0.2344 -1.2292
  801TIP3   OH223817   6.795   3.373   3.970 -0.2760  0.3687 -0.1471
  801TIP3    H123818   6.757   3.324   4.043 -0.0214  2.4910  1.5035
  801TIP3    H223819   6.767   3.464   3.985  1.5632  1.2185 -1.4793
  802TIP3   OH223820   6.838   4.740  11.914 -0.7278  0.4071  0.7323
  802TIP3    H123821   6.832   4.678  11.842  1.2591  0.0747  0.7779
  802TIP3    H223822   6.766   4.801  11.900 -2.2109 -1.3670  0.1907
  803TIP3   OH223823   4.147   3.579  10.608  0.3282 -0.4823  0.2710
  803TIP3    H123824   4.177   3.574  10.517 -0.4193  0.2541 -0.0372
  803TIP3    H223825   4.211   3.635  10.651  0.8419 -1.0636  0.2698
  804TIP3   OH223826   1.671   5.754  10.224  0.0183 -0.9153  0.1094
  804TIP3    H123827   1.647   5.789  10.310  1.3683 -0.6799  0.4188
  804TIP3    H223828   1.592   5.711  10.192 -1.0126  0.4325  0.7312
  805TIP3   OH223829   3.226   0.718   0.251  0.1088  0.0035  0.5871
  805TIP3    H123830   3.271   0.785   0.302  2.2471 -0.0270 -1.1387
  805TIP3    H223831   3.199   0.764   0.171 -0.7236 -0.6171  0.4927
  806TIP3   OH223832   0.980   2.893  14.991  0.3642 -0.3484 -0.8508
  806TIP3    H123833   0.961   2.807  15.028 -0.1243 -0.1993 -0.7420
  806TIP3    H223834   0.902   2.914  14.940  0.8346 -0.3423 -1.5794
  807TIP3   OH223835   5.228   5.607  12.953  0.8537  0.0522  0.5901
  807TIP3    H123836   5.285   5.634  13.025 -0.8640  1.3402  1.5153
  807TIP3    H223837   5.175   5.536  12.989  1.6012 -0.9426 -0.1818
  808TIP3   OH223838   1.854   4.441   3.068  0.5351 -0.6587 -0.2320
  808TIP3    H123839   1.914   4.474   3.135  0.6336 -0.5991 -0.3474
  808TIP3    H223840   1.872   4.347   3.063 -1.1234 -1.1187  1.4928
  809TIP3   OH223841   3.785   6.877  14.241  0.9004 -0.1610  0.0352
  809TIP3    H123842   3.765   6.905  14.152 -2.4693 -1.4310  0.2462
  809TIP3    H223843   3.783   6.781  14.237  2.5030 -0.2707  1.1658
  810TIP3   OH223844   4.372   5.597  11.181 -0.0681 -0.5237 -0.1418
  810TIP3    H123845   4.283   5.617  11.151 -0.1752 -2.1415 -0.9959
  810TIP3    H223846   4.406   5.681  11.212 -0.5165  1.0226 -3.3978
  811TIP3   OH223847   5.399   3.922  10.776  0.0542  0.3111 -0.0146
  811TIP3    H123848   5.354   3.838  10.767 -0.1523  0.4158  0.0328
  811TIP3    H223849   5.363   3.977  10.706  1.1130 -0.0354 -0.8713
  812TIP3   OH223850   6.479   5.227  12.533  0.3845  0.4485 -0.3467
  812TIP3    H123851   6.485   5.321  12.551 -2.3784  0.5459  0.5977
  812TIP3    H223852   6.420   5.220  12.457 -0.1020 -0.5247  0.0948
  813TIP3   OH223853   6.555   2.919   1.834  0.3564 -0.0388  0.4019
  813TIP3    H123854   6.628   2.953   1.782 -0.3606  0.9182  0.0000
  813TIP3    H223855   6.492   2.887   1.770  0.7296 -1.5928  0.7573
  814TIP3   OH223856   3.149   2.139  13.553 -0.3822  0.0664  0.0069
  814TIP3    H123857   3.114   2.121  13.640  0.9475  0.9154  0.7581
  814TIP3    H223858   3.072   2.146  13.497 -1.4451  1.7618  1.5504
  815TIP3   OH223859   5.530   4.595  13.220  0.7697  0.2302  0.3291
  815TIP3    H123860   5.436   4.611  13.228  1.2414  3.8783  0.6254
  815TIP3    H223861   5.550   4.616  13.128  0.9495 -3.7421 -0.7073
  816TIP3   OH223862   6.553   2.333  12.646 -0.0790  0.2574  0.4682
  816TIP3    H123863   6.604   2.259  12.613  0.6246  0.6213  0.7167
  816TIP3    H223864   6.501   2.362  12.571  0.8763  0.5465 -0.1002
  817TIP3   OH223865   6.401   1.018  11.384 -0.3218  0.4393  0.2276
  817TIP3    H123866   6.396   0.924  11.366 -0.1985  0.9133 -2.7075
  817TIP3    H223867   6.492   1.041  11.370 -0.3443  1.0123  0.9459
  818TIP3   OH223868   5.998   0.843  10.135  0.2395  0.2178  0.0626
  818TIP3    H123869   5.942   0.767  10.118 -0.1671  0.5436 -0.0744
  818TIP3    H223870   5.944   0.901  10.188 -0.1675  1.2706 -1.4314
  819TIP3   OH223871   3.226   5.385  10.929  0.0113  0.1902  1.2024
  819TIP3    H123872   3.161   5.438  10.883 -0.1239  0.1594  1.3555
  819TIP3    H223873   3.182   5.359  11.010  0.2367  0.2217  1.3362
  820TIP3   OH223874   5.226   0.923  14.429  0.1361 -0.0905  0.3381
  820TIP3    H123875   5.155   0.939  14.367 -2.2731 -0.4523  2.8106
  820TIP3    H223876   5.239   0.828  14.428  1.3548  0.0556 -0.8150
  821TIP3   OH223877   6.477   5.296  11.747  0.4505  0.0155 -0.4348
  821TIP3    H123878   6.447   5.372  11.798  0.4224 -0.8686  0.9397
  821TIP3    H223879   6.397   5.249  11.726  0.5484 -0.2071 -0.3121
  822TIP3   OH223880   5.354   1.846   3.841 -0.1388  0.2844  0.0733
  822TIP3    H123881   5.307   1.773   3.802  0.0173  0.3830 -0.3169
  822TIP3    H223882   5.443   1.813   3.855 -0.1818  0.2652  0.3013
  823TIP3   OH223883   4.947   6.864  13.904  0.1058 -0.8666  1.0313
  823TIP3    H123884   4.913   6.865  13.993 -0.5691 -0.9320  0.7796
  823TIP3    H223885   4.888   6.922  13.855 -1.8006 -3.5915 -0.1599
  824TIP3   OH223886   5.566   5.196  10.910 -0.3553 -0.4729  0.1585
  824TIP3    H123887   5.520   5.180  10.992 -0.5404  0.1267  0.1740
  824TIP3    H223888   5.614   5.114  10.893  0.0448 -0.4407  1.0919
  825TIP3   OH223889   4.238   6.882  12.836  0.2863 -0.0953 -0.1166
  825TIP3    H123890   4.239   6.876  12.740 -1.4388  0.8464 -0.2329
  825TIP3    H223891   4.311   6.941  12.856  2.2071 -2.1845 -0.6269
  826TIP3   OH223892   5.885   1.855   0.619 -0.2989 -0.1659 -0.7856
  826TIP3    H123893   5.949   1.910   0.664 -0.2375  0.0643 -1.1449
  826TIP3    H223894   5.850   1.911   0.550 -0.6700 -0.3886 -0.7826
  827TIP3   OH223895   5.121   6.053  12.645  0.4896 -0.0631 -0.0174
  827TIP3    H123896   5.081   6.114  12.707 -0.6280 -1.1148  0.3307
  827TIP3    H223897   5.142   5.976  12.697 -1.1990 -1.2801 -1.0489
  828TIP3   OH223898   6.178   1.209  15.392 -0.2780 -0.2738  0.1030
  828TIP3    H123899   6.126   1.173  15.320  1.2032 -0.7330 -0.7745
  828TIP3    H223900   6.118   1.209  15.467 -2.1046  0.9597 -1.2743
  829TIP3   OH223901   6.579   3.887  10.134 -0.7999 -0.1243  0.1663
  829TIP3    H123902   6.621   3.963  10.094 -0.1140 -0.0911  0.9166
  829TIP3    H223903   6.583   3.819  10.066 -1.2945  0.4637 -0.4571
  830TIP3   OH223904   6.072   5.860  10.966  0.0858  0.2876 -0.1214
  830TIP3    H123905   5.985   5.878  11.001  0.8452 -0.3074  2.2507
  830TIP3    H223906   6.063   5.776  10.920 -1.1093  1.4702 -2.2382
  831TIP3   OH223907   6.484   2.413  14.210  0.4062 -0.1751 -0.0320
  831TIP3    H123908   6.394   2.445  14.209  0.3312 -0.1463 -3.0190
  831TIP3    H223909   6.476   2.318  14.197  0.7957 -0.4126  1.3686
  832TIP3   OH223910   1.246   7.016   9.984 -0.2808 -0.7090 -0.2462
  832TIP3    H123911   1.166   6.978  10.021 -0.9466 -1.0825 -1.9493
  832TIP3    H223912   1.233   7.010   9.889  1.4418 -0.0501 -0.5579
  833TIP3   OH223913   5.727   0.895   1.308 -0.4964 -0.3006  0.0898
  833TIP3    H123914   5.731   0.927   1.217  0.2403  2.9733  1.1169
  833TIP3    H223915   5.819   0.882   1.332 -0.7647 -3.0243 -0.1334
  834TIP3   OH223916   3.107   6.129   9.371 -0.2352  0.0499  1.0823
  834TIP3    H123917   3.188   6.157   9.328 -0.3048 -0.2695  0.7382
  834TIP3    H223918   3.112   6.034   9.374 -1.3092 -0.1057 -0.4250
  835TIP3   OH223919   3.265   3.020   0.263 -0.4186 -0.0747 -0.0363
  835TIP3    H123920   3.218   2.995   0.342  1.2715  1.0643  1.4157
  835TIP3    H223921   3.325   2.948   0.246  2.8224  1.7009  2.8021
  836TIP3   OH223922   6.075   3.541  12.299 -0.0469 -0.4960  0.5625
  836TIP3    H123923   6.063   3.624  12.254  3.6011 -0.6305 -0.9997
  836TIP3    H223924   6.031   3.476  12.244 -0.5405  0.0442  0.3140
  837TIP3   OH223925   2.925   0.054  13.592  0.0158 -0.2280 -0.5128
  837TIP3    H123926   2.889   0.032  13.678  0.8567 -0.9509 -0.3201
  837TIP3    H223927   2.916   0.149  13.586 -1.2945 -0.3117 -0.2107
  838TIP3   OH223928   6.972   2.198   3.798 -0.0951  0.3707 -0.4969
  838TIP3    H123929   6.889   2.245   3.794  0.0699  0.9845  1.5736
  838TIP3    H223930   7.038   2.267   3.804  0.5398 -0.1157 -1.5745
  839TIP3   OH223931   6.074   4.500  13.940 -0.1039 -0.0795 -0.0392
  839TIP3    H123932   6.163   4.536  13.941  0.3158 -1.0859  0.9069
  839TIP3    H223933   6.045   4.507  14.031 -0.8498 -0.1171 -0.2712
  840TIP3   OH223934   6.503   5.757  10.283  0.7461  0.2547 -0.3305
  840TIP3    H123935   6.578   5.808  10.312  1.6533 -0.4741 -1.3444
  840TIP3    H223936   6.493   5.688  10.349  1.1404  0.1880 -0.3406
  841TIP3   OH223937   1.239   1.436   9.896  0.6092  0.2397  0.1095
  841TIP3    H123938   1.176   1.507   9.882 -1.5427 -0.9034  2.8746
  841TIP3    H223939   1.281   1.424   9.811 -2.8706  1.2065 -1.9838
  842TIP3   OH223940   3.074   2.319   0.124 -0.2218 -0.2987  0.0932
  842TIP3    H123941   3.025   2.386   0.077  0.3614  1.3812  1.7765
  842TIP3    H223942   3.160   2.319   0.081 -0.2584 -0.0598  0.0180
  843TIP3   OH223943   0.956   0.523  12.330 -0.2160 -0.1960  0.1170
  843TIP3    H123944   0.935   0.462  12.259 -1.6434  0.2937  0.0753
  843TIP3    H223945   0.995   0.469  12.398 -0.5570 -0.9922 -0.3064
  844TIP3   OH223946   0.554   1.948   0.012  0.4224  0.3338 -0.9034
  844TIP3    H123947   0.557   2.035  -0.030  0.5242  1.1810  0.7809
  844TIP3    H223948   0.543   1.887  -0.061  2.1841  1.6028 -2.3161
  845TIP3   OH223949   2.231   3.092  14.063 -0.0715  0.5298  0.8756
  845TIP3    H123950   2.305   3.152  14.070 -1.5621  2.3342  2.1664
  845TIP3    H223951   2.169   3.137  14.006 -0.6429 -0.4333  0.7131
  846TIP3   OH223952   2.485   6.102   1.472 -0.0428  0.3090  0.2432
  846TIP3    H123953   2.547   6.038   1.439  1.2983  1.0174  1.2894
  846TIP3    H223954   2.510   6.184   1.429  1.0606  1.0163  2.1373
  847TIP3   OH223955   5.007   5.232  12.170  0.2857  0.3296  0.2721
  847TIP3    H123956   4.912   5.244  12.174 -0.0970 -0.8473 -2.6313
  847TIP3    H223957   5.026   5.225  12.077  3.2794  0.6532  0.7776
  848TIP3   OH223958   2.518   1.212   1.330  0.0906  0.6176 -0.2680
  848TIP3    H123959   2.531   1.144   1.264 -0.4502 -1.1663  1.3589
  848TIP3    H223960   2.424   1.211   1.347 -0.0154  2.2034 -0.5965
  849TIP3   OH223961   4.049   0.210   0.314  0.1770 -0.2477 -0.0369
  849TIP3    H123962   4.043   0.117   0.336 -2.4338 -0.1892 -0.1724
  849TIP3    H223963   3.979   0.224   0.250 -0.3069  2.0417  0.8975
  850TIP3   OH223964   5.432   6.248  11.211  0.2346 -0.0140  0.4086
  850TIP3    H123965   5.491   6.197  11.267 -1.5315  0.6568  3.1012
  850TIP3    H223966   5.373   6.184  11.172 -0.6209 -0.2936  2.0657
  851TIP3   OH223967   7.027   0.143  10.307  0.3018 -0.5283 -0.2398
  851TIP3    H123968   6.950   0.095  10.278  1.2698 -2.7845  0.6425
  851TIP3    H223969   7.101   0.095  10.269  1.3264  0.6460  0.1971
  852TIP3   OH223970   5.481   7.102  10.922  0.2324 -0.1769 -0.4199
  852TIP3    H123971   5.516   7.051  10.848  0.4580 -1.8717  0.7950
  852TIP3    H223972   5.557   7.151  10.954 -0.1660  1.6288 -2.1002
  853TIP3   OH223973   5.272   2.709   1.323  0.0993 -0.2721 -0.0746
  853TIP3    H123974   5.210   2.766   1.367  0.2514 -0.0466 -0.1488
  853TIP3    H223975   5.358   2.737   1.355  0.3263  0.8094 -1.5019
  854TIP3   OH223976   5.401   6.524  10.282 -0.7468 -0.5771  0.2446
  854TIP3    H123977   5.470   6.458  10.279  0.0286  0.1930  0.6085
  854TIP3    H223978   5.447   6.607  10.273 -1.4831  0.0387  1.7488
  855TIP3   OH223979   2.747   4.164  12.689  0.1575 -0.2317 -0.7902
  855TIP3    H123980   2.703   4.081  12.708  0.8870 -0.5030 -0.2417
  855TIP3    H223981   2.750   4.168  12.593 -0.0449 -0.7520 -0.8202
  856TIP3   OH223982   2.519   1.578  11.887 -0.6492 -0.9762 -0.2783
  856TIP3    H123983   2.572   1.558  11.965  0.2114 -0.8904 -0.8255
  856TIP3    H223984   2.431   1.593  11.921 -0.0787  0.0451  0.8004
  857TIP3   OH223985   3.779   3.458   2.998  0.0902  0.0738  0.3205
  857TIP3    H123986   3.841   3.390   2.969 -0.8407  0.3526 -2.6917
  857TIP3    H223987   3.714   3.411   3.050  0.3449 -1.0616 -0.3521
  858TIP3   OH223988   6.347   1.077  12.954 -0.0862  0.2483  0.4003
  858TIP3    H123989   6.388   1.071  12.868 -0.2352 -1.5862  0.4153
  858TIP3    H223990   6.372   0.996  12.998 -0.3076  0.9915  1.9607
  859TIP3   OH223991   1.667   6.373  13.434  0.0514  0.3216  0.5915
  859TIP3    H123992   1.735   6.407  13.375  0.1001 -0.5870  0.0969
  859TIP3    H223993   1.593   6.432  13.422 -0.6224 -0.8763 -1.8570
  860TIP3   OH223994   5.105   6.659  15.162 -0.1182  0.2015  0.0835
  860TIP3    H123995   5.022   6.613  15.152 -1.1906  2.0042  0.1577
  860TIP3    H223996   5.131   6.644  15.253 -0.1250 -0.7171 -0.0581
  861TIP3   OH223997   3.531   3.751   9.913 -0.1343 -0.5078  0.0735
  861TIP3    H123998   3.463   3.812   9.943 -2.3120 -2.4564 -0.6241
  861TIP3    H223999   3.545   3.775   9.822  0.2065 -0.0164  0.2543
  862TIP3   OH224000   2.573   0.296   2.260 -0.2721  0.1952  0.1533
  862TIP3    H124001   2.606   0.277   2.348  0.9490  0.4606 -0.2302
  862TIP3    H224002   2.530   0.215   2.232  0.7241 -0.4246  0.3750
  863TIP3   OH224003   0.034   6.031  14.233 -0.4123 -0.6305 -0.1214
  863TIP3    H124004   0.076   6.115  14.252 -0.7106 -0.6073  0.4569
  863TIP3    H224005  -0.006   6.042  14.147 -0.9172  0.0054  0.1901
  864TIP3   OH224006   6.112   6.576  10.713  0.4914 -0.5066 -0.4421
  864TIP3    H124007   6.183   6.640  10.710  0.2502 -0.2250 -0.1951
  864TIP3    H224008   6.113   6.534  10.627 -0.4353  0.9983 -1.2162
  865TIP3   OH224009   5.366   6.148   2.501 -0.0825 -0.8938  0.1387
  865TIP3    H124010   5.403   6.111   2.421 -0.5934 -0.2740 -0.4015
  865TIP3    H224011   5.294   6.203   2.470  0.1827 -0.0605  0.9789
  866TIP3   OH224012   5.763   6.203  14.591 -0.3418 -0.1097  0.2999
  866TIP3    H124013   5.767   6.298  14.595 -0.3384 -0.0599 -0.5439
  866TIP3    H224014   5.735   6.175  14.678 -0.3316  0.6588  0.5524
  867TIP3   OH224015   5.104   5.585  13.771  0.0926 -0.2768  0.2311
  867TIP3    H124016   5.020   5.544  13.747 -0.1218  0.2976 -0.0081
  867TIP3    H224017   5.127   5.545  13.855  0.0156 -1.0835 -0.1228
  868TIP3   OH224018   0.888   5.456   0.337  0.4553  0.1587  0.2471
  868TIP3    H124019   0.846   5.542   0.349  0.6152  0.3538 -0.5407
  868TIP3    H224020   0.829   5.395   0.382 -1.6029  0.1961 -2.1613
  869TIP3   OH224021   2.971   0.454   1.404 -0.1501  0.3121  0.5296
  869TIP3    H124022   2.974   0.550   1.400 -0.5817  0.3152 -2.6038
  869TIP3    H224023   3.050   0.426   1.358 -0.1036 -0.8451  1.2799
  870TIP3   OH224024   1.625   3.632  13.017 -0.1626  0.0817 -0.3163
  870TIP3    H124025   1.636   3.585  13.100  2.3715  0.2665 -0.4596
  870TIP3    H224026   1.615   3.724  13.044  0.2522  0.0937 -0.1983
  871TIP3   OH224027   0.307   0.807  11.645  0.4717 -0.1525  0.3510
  871TIP3    H124028   0.274   0.855  11.721  2.7668  1.7847  0.2397
  871TIP3    H224029   0.249   0.831  11.573  0.0010  0.3041  0.8800
  872TIP3   OH224030   5.236   1.840  13.024 -0.7027 -0.1921 -0.4398
  872TIP3    H124031   5.269   1.775  13.086 -0.6561  0.5083  0.2811
  872TIP3    H224032   5.299   1.840  12.952  0.6861  0.8555  0.7290
  873TIP3   OH224033   4.566   2.486  10.492  0.5604 -0.6278  0.7052
  873TIP3    H124034   4.583   2.404  10.539 -1.2443 -0.7083  1.2842
  873TIP3    H224035   4.485   2.520  10.530  0.3602  0.5716 -0.6808
  874TIP3   OH224036   5.359   6.785  14.750 -0.0973  0.7992 -0.0128
  874TIP3    H124037   5.374   6.781  14.655 -2.2365 -1.3715 -0.3496
  874TIP3    H224038   5.444   6.806  14.787  1.2373 -0.1962 -2.3116
  875TIP3   OH224039   5.318   5.495  10.430 -0.1652  1.0462  0.3333
  875TIP3    H124040   5.259   5.562  10.396 -0.6141  0.2622 -0.4891
  875TIP3    H224041   5.406   5.529  10.412 -0.3913  1.4683  0.0194
  876TIP3   OH224042   0.416   1.825  12.446  0.3265  0.0322  0.1954
  876TIP3    H124043   0.497   1.872  12.467 -0.1356  0.7239  0.4669
  876TIP3    H224044   0.386   1.790  12.531 -0.6608  1.4117  0.4451
  877TIP3   OH224045   2.613   0.405  15.633  0.9768 -0.4825  0.9480
  877TIP3    H124046   2.663   0.446  15.563  1.7065 -1.4763  0.8565
  877TIP3    H224047   2.618   0.311  15.614 -1.5823 -0.6005  0.5067
  878TIP3   OH224048   1.047   2.242   9.916 -1.1734  0.1238  0.1246
  878TIP3    H124049   1.033   2.312   9.853 -0.3082 -0.5378 -0.8478
  878TIP3    H224050   0.982   2.176   9.894 -1.4206  0.2467  0.4780
  879TIP3   OH224051   5.489   1.290  12.127 -0.4999  0.3406  0.1286
  879TIP3    H124052   5.513   1.351  12.057 -0.6030  1.4625  1.0460
  879TIP3    H224053   5.508   1.337  12.208  0.3424 -1.2192  0.8854
  880TIP3   OH224054   2.387   5.285   2.031  0.2846  0.5178 -0.1012
  880TIP3    H124055   2.299   5.307   2.061 -0.5406 -2.4736  0.0160
  880TIP3    H224056   2.446   5.326   2.095 -1.1708  0.1146  1.5715
  881TIP3   OH224057   0.007   5.337  12.702  0.3750 -0.2063  0.1649
  881TIP3    H124058  -0.069   5.387  12.732  0.5449  0.0434  0.1725
  881TIP3    H224059  -0.030   5.252  12.676  0.2836 -0.5786  1.4505
  882TIP3   OH224060   1.677   2.788  11.984 -0.4164 -0.2950 -0.1881
  882TIP3    H124061   1.676   2.876  11.948 -1.6466 -0.4989 -0.7054
  882TIP3    H224062   1.600   2.784  12.041  0.3830 -0.6166  0.8961
  883TIP3   OH224063   2.723   4.563  11.213  0.1058 -0.6928 -0.4942
  883TIP3    H124064   2.735   4.470  11.194  0.8620 -0.2461 -2.5465
  883TIP3    H224065   2.699   4.566  11.305 -0.6299 -2.9577 -0.5490
  884TIP3   OH224066   1.944   5.308  10.037  0.1260 -0.6520 -0.2502
  884TIP3    H124067   2.013   5.313   9.971  1.9549 -0.5625  1.5571
  884TIP3    H224068   1.869   5.271   9.991  0.6377  1.2399 -2.8522
  885TIP3   OH224069   6.492   2.435  11.313 -0.1151  0.1932 -0.3037
  885TIP3    H124070   6.405   2.396  11.307 -1.0468  2.0781 -0.0360
  885TIP3    H224071   6.520   2.419  11.403 -1.2282  1.5148  0.3235
  886TIP3   OH224072   3.676   2.618   2.333  0.0536 -0.2607  0.6035
  886TIP3    H124073   3.591   2.635   2.292  0.5824 -0.3202 -0.5689
  886TIP3    H224074   3.664   2.644   2.425 -0.8109  1.1296  0.1398
  887TIP3   OH224075   5.417   2.385  13.712  0.5552  0.0437  0.1765
  887TIP3    H124076   5.461   2.469  13.697  0.2882  0.2521  0.5540
  887TIP3    H224077   5.381   2.361  13.627 -1.0788  1.2902  0.4676
  888TIP3   OH224078   6.902   4.513  12.552  0.8564 -0.2618 -0.0556
  888TIP3    H124079   6.898   4.571  12.476  1.8785  0.3739  0.3510
  888TIP3    H224080   6.942   4.567  12.621  0.9896 -1.1711  0.5931
  889TIP3   OH224081   0.621   1.400  13.155  0.5092 -0.1049  0.2743
  889TIP3    H124082   0.628   1.490  13.186  1.3494 -0.3265  0.7617
  889TIP3    H224083   0.534   1.372  13.183  0.6103  0.2507  0.9642
  890TIP3   OH224084   3.398   7.091  12.981  0.4476 -0.5475 -0.2426
  890TIP3    H124085   3.306   7.083  12.954 -0.3572  0.4980  1.9466
  890TIP3    H224086   3.443   7.124  12.903 -1.4757  1.1633 -0.7227
  891TIP3   OH224087   1.840   3.117  10.205 -0.1919  0.1797 -0.0661
  891TIP3    H124088   1.790   3.167  10.140 -0.7107 -0.7714 -0.4175
  891TIP3    H224089   1.776   3.091  10.270  0.3818  1.3885  1.0271
  892TIP3   OH224090   5.683   5.955  10.340  0.3676 -0.1034  0.6939
  892TIP3    H124091   5.715   5.883  10.285  0.6665  0.6224 -0.1130
  892TIP3    H224092   5.617   5.915  10.397 -0.2231 -0.8109 -0.4526
  893TIP3   OH224093   1.728   6.905  11.622  0.0591 -0.2286  0.3313
  893TIP3    H124094   1.680   6.825  11.599  0.1792  0.3603 -2.2609
  893TIP3    H224095   1.777   6.881  11.700 -0.2007 -2.5821 -0.1408
  894TIP3   OH224096   0.799   2.709   4.360 -0.0618  0.2351  0.2348
  894TIP3    H124097   0.843   2.683   4.279  0.0439  0.4638  0.2155
  894TIP3    H224098   0.754   2.790   4.337 -1.0428 -0.3389  0.0797
  895TIP3   OH224099   6.617   0.192  12.281 -0.4632  0.4252  0.1437
  895TIP3    H124100   6.524   0.201  12.301 -0.4880  0.5224 -0.0170
  895TIP3    H224101   6.659   0.179  12.367 -0.4830  1.5519  0.3446
  896TIP3   OH224102   5.335   1.357  13.517  0.5160 -0.7576 -0.2246
  896TIP3    H124103   5.409   1.341  13.574 -1.5090  0.8046  3.1449
  896TIP3    H224104   5.267   1.297  13.549 -0.7113  0.2075 -0.9274
  897TIP3   OH224105   2.654   3.390  11.581  0.0060 -0.2886 -0.4703
  897TIP3    H124106   2.616   3.306  11.606  0.5016  0.0672  1.5928
  897TIP3    H224107   2.582   3.452  11.588 -0.0874 -0.3362 -0.9300
  898TIP3   OH224108   5.957   5.026  10.663 -0.3219  0.1053  0.1607
  898TIP3    H124109   6.026   5.053  10.724 -1.8351  4.0089  0.4700
  898TIP3    H224110   5.888   4.991  10.719 -0.6555  1.2176  0.4729
  899TIP3   OH224111   6.844   0.582   3.583 -0.4715  0.2654 -0.4685
  899TIP3    H124112   6.819   0.666   3.620  4.4146  1.5468  0.6598
  899TIP3    H224113   6.876   0.531   3.658 -0.3170 -1.3211 -1.5549
  900TIP3   OH224114   3.225   0.343  11.410 -0.4224 -0.0943 -0.3151
  900TIP3    H124115   3.243   0.381  11.324  0.0500  3.9881  1.3468
  900TIP3    H224116   3.140   0.378  11.435 -1.1709 -2.2796  0.4472
  901TIP3   OH224117   6.884   4.945  10.817  0.0083  0.2218  0.1987
  901TIP3    H124118   6.916   5.029  10.784  2.6608 -0.5542  0.6044
  901TIP3    H224119   6.878   4.890  10.739 -1.6639  0.6941 -0.0563
  902TIP3   OH224120   1.633   3.377  14.374  0.7205 -0.4017  0.2453
  902TIP3    H124121   1.574   3.436  14.326  1.3120  1.5476  1.8027
  902TIP3    H224122   1.714   3.378  14.323  0.2652 -1.1004 -0.5296
  903TIP3   OH224123   4.115   4.434   9.860 -0.2498 -0.8670 -0.3115
  903TIP3    H124124   4.157   4.513   9.826 -0.3871 -1.4432 -1.8921
  903TIP3    H224125   4.186   4.383   9.898  0.2788 -1.1984 -1.7043
  904TIP3   OH224126   0.804   4.755  13.739 -0.3038  0.1376 -0.5245
  904TIP3    H124127   0.892   4.795  13.738  1.0827 -2.6397 -2.1927
  904TIP3    H224128   0.782   4.749  13.832  2.8269 -2.0262  0.2341
  905TIP3   OH224129   5.644   4.974  10.806  0.3618 -0.2659  0.3454
  905TIP3    H124130   5.597   4.994  10.725  0.6971 -0.1466  0.1814
  905TIP3    H224131   5.639   4.879  10.813 -2.9852 -0.1303  2.1570
  906TIP3   OH224132   2.924   6.309   1.929  0.0497 -0.1055 -0.0183
  906TIP3    H124133   2.948   6.317   2.021 -2.7000  1.8066  0.6717
  906TIP3    H224134   2.848   6.252   1.929 -0.8666  1.0595 -0.8631
  907TIP3   OH224135   6.282   2.055   2.759 -0.4791  0.1683  0.1322
  907TIP3    H124136   6.252   2.143   2.740  0.2051  0.6543  1.2111
  907TIP3    H224137   6.215   1.998   2.722 -1.1852  1.1443 -0.1238
  908TIP3   OH224138   5.016   3.041  13.822 -0.4019  0.3944 -0.0566
  908TIP3    H124139   4.994   3.072  13.734  1.9398  2.3030 -0.0660
  908TIP3    H224140   4.964   3.096  13.880 -2.1960 -1.0841 -0.1952
  909TIP3   OH224141   5.351   3.444   0.826 -0.1199 -0.4033 -0.4575
  909TIP3    H124142   5.391   3.439   0.739  0.8819 -1.0857  0.0297
  909TIP3    H224143   5.354   3.354   0.859  0.2751 -0.0100  0.6196
  910TIP3   OH224144   0.242   5.269  12.827  0.1644  0.1617  0.2441
  910TIP3    H124145   0.182   5.285  12.754  0.4952  1.0766  0.1634
  910TIP3    H224146   0.193   5.297  12.905 -0.4323 -1.4015  0.4824
  911TIP3   OH224147   5.963   3.844   2.271  0.2251 -0.1056  0.1466
  911TIP3    H124148   5.940   3.811   2.184  0.6568 -0.6808  0.2473
  911TIP3    H224149   6.058   3.848   2.270  0.2085  0.4694  0.3879
  912TIP3   OH224150   5.140   5.889  12.875 -0.6555 -0.3382  0.6033
  912TIP3    H124151   5.125   5.953  12.945  1.5461  0.3467  0.5310
  912TIP3    H224152   5.164   5.808  12.920 -1.4812 -0.5605  0.6575
  913TIP3   OH224153   6.288   3.242  12.300  0.0811  0.0668 -0.2761
  913TIP3    H124154   6.286   3.335  12.275 -0.0704  0.3605  0.8043
  913TIP3    H224155   6.308   3.242  12.393 -0.8523 -0.9530 -0.0534
  914TIP3   OH224156   4.957   3.511   4.874  0.5030 -0.4106 -0.2286
  914TIP3    H124157   4.980   3.418   4.884 -0.5122 -0.6803 -0.2943
  914TIP3    H224158   4.978   3.550   4.958  1.5336 -0.5575 -0.3978
  915TIP3   OH224159   6.624   3.124   3.846  0.1909 -0.2329  0.3254
  915TIP3    H124160   6.640   3.173   3.765 -0.5131 -1.5772 -0.6572
  915TIP3    H224161   6.711   3.095   3.874  0.3868 -0.1684 -0.2098
  916TIP3   OH224162   0.450   2.335   2.235 -0.2986 -0.7789 -0.2657
  916TIP3    H124163   0.541   2.354   2.256 -0.0711 -1.6044 -0.4473
  916TIP3    H224164   0.423   2.271   2.300 -1.2071  0.5046  0.6631
  917TIP3   OH224165   3.303   5.454  11.458 -0.0200  0.0473  0.0190
  917TIP3    H124166   3.374   5.396  11.483  0.4689  0.7073  0.2063
  917TIP3    H224167   3.262   5.480  11.540  1.4559  2.0512  0.2133
  918TIP3   OH224168   3.107   3.767  12.187  0.1128 -0.3454 -0.2381
  918TIP3    H124169   3.069   3.807  12.265 -0.3110 -2.6387  0.8099
  918TIP3    H224170   3.122   3.840  12.127 -2.0407  1.1530  0.9326
  919TIP3   OH224171   2.394   0.271   3.784  0.1352  0.8858  0.0327
  919TIP3    H124172   2.440   0.189   3.803  2.5689  2.2236  0.3084
  919TIP3    H224173   2.332   0.248   3.715  1.7724 -0.9090 -0.9501
  920TIP3   OH224174   2.386   5.784  13.138  0.2900 -0.4577  0.6516
  920TIP3    H124175   2.310   5.730  13.118 -0.3915  0.4795  0.6384
  920TIP3    H224176   2.459   5.740  13.094 -0.7508  0.2180 -1.9752
  921TIP3   OH224177   7.084   3.554  10.399  0.9806 -0.5282 -0.1785
  921TIP3    H124178   7.085   3.461  10.421 -1.7027  0.0902  3.5882
  921TIP3    H224179   7.017   3.561  10.332 -1.0114 -1.1480  1.6079
  922TIP3   OH224180   5.488   0.528  14.409  0.5394 -0.2939 -0.2796
  922TIP3    H124181   5.564   0.579  14.379  2.0594 -1.8521  0.7293
  922TIP3    H224182   5.468   0.470  14.336  2.5041 -2.1774  0.5558
  923TIP3   OH224183   5.426   3.575  13.330  0.7113  0.1002  0.3886
  923TIP3    H124184   5.485   3.636  13.286  0.8632 -0.1568  0.2341
  923TIP3    H224185   5.465   3.563  13.417  0.5282  0.4409  0.5185
  924TIP3   OH224186   5.984   0.334  12.117 -0.0628 -0.1180 -0.0103
  924TIP3    H124187   5.963   0.397  12.186  0.9629 -0.9832  1.1548
  924TIP3    H224188   5.900   0.308  12.081 -0.5341  1.4087 -0.0646
  925TIP3   OH224189   4.894   5.640   0.279  0.4627 -0.9005  0.4062
  925TIP3    H124190   4.886   5.584   0.202  1.2340 -1.1218  0.4733
  925TIP3    H224191   4.911   5.578   0.351  1.0129 -0.6063  0.5324
  926TIP3   OH224192   6.656   0.362   1.576  0.7120  0.2150  0.1584
  926TIP3    H124193   6.742   0.347   1.537  0.6683 -1.4844  0.6585
  926TIP3    H224194   6.639   0.284   1.628 -0.0332  1.6224  2.1382
  927TIP3   OH224195   6.288   6.446  14.695 -0.3661  0.1745  0.1999
  927TIP3    H124196   6.208   6.395  14.690  0.8468 -2.4252  3.5893
  927TIP3    H224197   6.358   6.384  14.671  0.8409  1.7347 -0.5349
  928TIP3   OH224198   1.044   5.451  13.410  0.0345 -0.1004 -0.2180
  928TIP3    H124199   1.113   5.448  13.344  0.5721 -1.1323  0.3629
  928TIP3    H224200   1.030   5.545  13.426  3.5042  0.2096  1.8847
  929TIP3   OH224201   0.279   2.944  13.108  0.3557 -0.1091 -1.0523
  929TIP3    H124202   0.256   2.852  13.094 -0.8081  0.1804 -1.1882
  929TIP3    H224203   0.220   2.992  13.050 -0.1701  0.7981  0.1937
  930TIP3   OH224204   0.098   0.035  10.142  0.2081  0.2763 -0.1723
  930TIP3    H124205   0.184   0.061  10.175  0.5726 -2.1763  1.0975
  930TIP3    H224206   0.114   0.008  10.051  0.9454 -0.7838  0.2593
  931TIP3   OH224207   1.632   5.609   3.227 -0.3251  0.3322 -0.2963
  931TIP3    H124208   1.556   5.648   3.183 -1.0403 -0.9151 -0.2143
  931TIP3    H224209   1.606   5.518   3.243  0.7641  0.1821  0.7446
  932TIP3   OH224210   3.665   3.501  11.104  0.5492  1.3600 -0.1267
  932TIP3    H124211   3.605   3.536  11.038  0.2713 -0.4815 -0.9010
  932TIP3    H224212   3.612   3.491  11.182 -0.2973 -0.4956 -0.8752
  933TIP3   OH224213   6.776   4.311  14.216 -0.4221 -0.0445  0.5418
  933TIP3    H124214   6.689   4.275  14.202 -1.0292  0.3921  2.7323
  933TIP3    H224215   6.768   4.362  14.296  1.3179  1.8793 -0.4070
  934TIP3   OH224216   3.758   4.879   4.613 -0.5588  0.2524  0.0878
  934TIP3    H124217   3.703   4.903   4.688  0.9093  0.0113  1.2974
  934TIP3    H224218   3.757   4.783   4.612  1.0374  0.1842  1.1134
  935TIP3   OH224219   3.215   1.911  12.110 -0.3789  0.1850 -0.6345
  935TIP3    H124220   3.166   1.892  12.030  0.3353 -0.5139 -0.9237
  935TIP3    H224221   3.180   1.994  12.141  0.9073  1.6998 -2.9382
  936TIP3   OH224222   6.525   1.542   9.503 -0.4310  0.1616  0.1164
  936TIP3    H124223   6.620   1.548   9.494 -0.1758 -1.0132  1.5679
  936TIP3    H224224   6.504   1.453   9.472 -0.6399 -0.6354  2.3693
  937TIP3   OH224225   6.873   1.623   1.534  0.1389  1.0373  0.3272
  937TIP3    H124226   6.828   1.540   1.549 -0.5221  1.3367  0.0230
  937TIP3    H224227   6.964   1.604   1.556 -0.0619  0.3245  0.5922
  938TIP3   OH224228   6.169   0.962  11.708 -0.1851 -0.1675 -0.1188
  938TIP3    H124229   6.238   0.933  11.649  0.3785  0.7592  0.0636
  938TIP3    H224230   6.124   0.881  11.734  0.6263 -0.7514 -0.4885
  939TIP3   OH224231   0.022   6.035   2.900  0.5233 -0.1438 -0.1508
  939TIP3    H124232   0.048   6.093   2.829  1.4784 -0.5888 -0.1791
  939TIP3    H224233  -0.001   6.093   2.972  0.7027  0.2822 -0.4351
  940TIP3   OH224234   0.500   5.047  14.207 -0.2249  0.3726  0.3131
  940TIP3    H124235   0.475   4.956  14.192 -0.6963  0.5047  0.2774
  940TIP3    H224236   0.522   5.081  14.120 -1.2603  0.6446  0.1538
  941TIP3   OH224237   5.189   4.231  10.807  0.3492 -0.0809  0.1357
  941TIP3    H124238   5.251   4.208  10.876 -1.2858 -0.5407  1.5362
  941TIP3    H224239   5.110   4.180  10.828  0.1654 -1.1854 -2.7938
  942TIP3   OH224240   2.074   5.961   1.103 -0.2919  0.1004 -0.4204
  942TIP3    H124241   1.994   5.960   1.051 -0.7176 -0.1810  0.2264
  942TIP3    H224242   2.087   6.053   1.126 -0.9504  0.0293  0.2560
  943TIP3   OH224243   2.515   4.478   4.099 -0.1698  0.2523  0.6015
  943TIP3    H124244   2.573   4.553   4.106  0.8670 -0.5011  0.4003
  943TIP3    H224245   2.555   4.411   4.155  1.5666 -1.7184 -2.6287
  944TIP3   OH224246   2.355   1.980  14.712  0.0689 -0.8598  0.2121
  944TIP3    H124247   2.267   2.005  14.685  0.2994 -0.9571 -0.6620
  944TIP3    H224248   2.345   1.893  14.749  0.0364 -1.6262 -1.4921
  945TIP3   OH224249   1.536   0.400  12.705  0.6516 -0.5687 -0.0180
  945TIP3    H124250   1.596   0.326  12.715  0.8974 -0.5378 -1.1211
  945TIP3    H224251   1.531   0.415  12.610 -0.3069  0.0843  0.1125
  946TIP3   OH224252   1.467   3.673   2.194  0.2593 -0.6531  0.5684
  946TIP3    H124253   1.408   3.699   2.266  0.7859 -0.0565  0.7951
  946TIP3    H224254   1.441   3.583   2.174 -1.0429 -0.2592  0.3570
  947TIP3   OH224255   2.958   0.431  11.888 -0.5614 -0.2028  0.1148
  947TIP3    H124256   3.041   0.434  11.934 -1.2365 -0.8619  1.4182
  947TIP3    H224257   2.955   0.514  11.839  0.7963 -0.1330  0.1185
  948TIP3   OH224258   6.412   0.359  14.055 -0.4219 -0.2883  0.6069
  948TIP3    H124259   6.402   0.337  13.962  0.5152 -0.3908  0.5195
  948TIP3    H224260   6.481   0.300  14.085 -0.8228 -0.3528  1.4088
  949TIP3   OH224261   2.200   6.396  11.203 -0.1526  0.3209  0.1401
  949TIP3    H124262   2.196   6.328  11.270  1.3295  1.7762  1.7808
  949TIP3    H224263   2.226   6.349  11.124  1.5275 -0.9646  1.3769
  950TIP3   OH224264   4.913   6.217  11.104  0.4974  0.3695  0.3468
  950TIP3    H124265   4.967   6.140  11.122 -1.5155 -1.3331 -0.5207
  950TIP3    H224266   4.963   6.268  11.041  1.2560 -0.9651 -0.1602
  951TIP3   OH224267   0.268   6.245  11.499 -1.0001  0.3742 -0.4105
  951TIP3    H124268   0.317   6.190  11.437  0.4514  0.5343  0.5370
  951TIP3    H224269   0.196   6.280  11.448 -0.1071  0.1487 -1.8946
  952TIP3   OH224270   6.962   5.708  14.943  0.6482 -0.2910  0.1921
  952TIP3    H124271   6.944   5.795  14.979  1.1728  0.3102 -0.9360
  952TIP3    H224272   6.881   5.682  14.900 -0.0802 -1.1388  1.9640
  953TIP3   OH224273   0.937   5.789  13.114  0.0926 -0.5321 -0.1020
  953TIP3    H124274   0.888   5.868  13.089  0.8810 -0.2429 -0.7595
  953TIP3    H224275   1.014   5.789  13.058  0.8183 -1.0355  0.8537
  954TIP3   OH224276   2.768   4.198   4.448  0.1084 -0.1105 -0.7566
  954TIP3    H124277   2.825   4.123   4.435  0.4880 -0.1764  1.0468
  954TIP3    H224278   2.825   4.267   4.484 -0.4576  0.6520 -1.2868
  955TIP3   OH224279   2.414   0.478  14.107  0.8191 -0.1635  0.6029
  955TIP3    H124280   2.477   0.408  14.088  0.2351 -0.2945 -1.0004
  955TIP3    H224281   2.456   0.558  14.075  1.0420  0.0662  1.4609
  956TIP3   OH224282   3.756   5.948   2.537  0.0295 -0.2915 -0.2449
  956TIP3    H124283   3.731   5.857   2.550  0.1340 -0.3091 -0.1590
  956TIP3    H224284   3.713   5.995   2.610 -0.9657 -0.0941 -0.9363
  957TIP3   OH224285   1.344   2.032   1.618  0.2157  0.2360  0.3682
  957TIP3    H124286   1.331   2.091   1.692  0.8372  2.1732 -0.9854
  957TIP3    H224287   1.426   2.061   1.578  1.6143 -2.8459  0.7622
  958TIP3   OH224288   0.441   6.170  14.550  0.1767 -0.1983  0.3069
  958TIP3    H124289   0.380   6.096  14.547  0.3433 -0.3082 -0.7273
  958TIP3    H224290   0.387   6.246  14.530  0.1244 -0.1164  0.7513
  959TIP3   OH224291   3.219   5.450  15.304  0.1695  0.1346 -0.5633
  959TIP3    H124292   3.173   5.510  15.362  0.4185  1.2390 -1.4936
  959TIP3    H224293   3.156   5.380  15.286 -0.0969  0.0606  0.5663
  960TIP3   OH224294   6.290   0.715  12.527 -0.4071 -0.0351 -0.4158
  960TIP3    H124295   6.243   0.799  12.523 -1.4259 -0.5556  0.1085
  960TIP3    H224296   6.337   0.718  12.610 -2.0447 -0.7599  0.5926
  961TIP3   OH224297   6.738   4.698  11.244  0.8451 -0.2641 -0.2381
  961TIP3    H124298   6.744   4.773  11.302  1.3756  0.1195 -0.7732
  961TIP3    H224299   6.757   4.733  11.157 -2.9569 -0.1857 -1.2091
  962TIP3   OH224300   6.357   5.329  13.289 -0.1784 -0.4596  1.0409
  962TIP3    H124301   6.414   5.318  13.365  1.0782  3.9488  1.0426
  962TIP3    H224302   6.402   5.282  13.218  0.0559 -2.3363  2.3767
  963TIP3   OH224303   0.906   3.135  12.581  0.1165 -0.6842  0.0602
  963TIP3    H124304   0.954   3.100  12.506  0.4110 -2.1522  0.8890
  963TIP3    H224305   0.845   3.065  12.605 -0.9548  0.3162  0.3392
  964TIP3   OH224306   6.599   3.888  12.676 -0.0653 -0.2887  0.2179
  964TIP3    H124307   6.676   3.866  12.728  0.6320 -0.6117 -0.9327
  964TIP3    H224308   6.625   3.872  12.586 -0.5405  2.3016 -0.4676
  965TIP3   OH224309   0.626   5.263  11.450  0.4604  0.5057  0.0840
  965TIP3    H124310   0.599   5.260  11.542 -0.5737  1.1834 -0.1788
  965TIP3    H224311   0.606   5.353  11.423  2.1525  0.7703 -0.4022
  966TIP3   OH224312   4.123   5.960  12.452  0.1402  0.1095 -0.3390
  966TIP3    H124313   4.123   5.868  12.423  0.0349  0.0155 -0.0470
  966TIP3    H224314   4.208   5.994  12.425 -0.5818  0.5034 -2.2636
  967TIP3   OH224315   5.942   0.695  10.904  0.3799  0.1789 -0.0031
  967TIP3    H124316   5.932   0.609  10.864 -0.7025 -0.0029  0.6080
  967TIP3    H224317   5.871   0.700  10.968  0.0795  1.7465 -0.4085
  968TIP3   OH224318   1.592   3.999  13.401  0.0286  0.1812 -0.0655
  968TIP3    H124319   1.625   3.935  13.338 -1.1776 -0.3813 -0.1601
  968TIP3    H224320   1.662   4.008  13.466  0.8376 -0.0542 -0.8960
  969TIP3   OH224321   1.120   4.632  15.205  0.3735 -0.3970  0.2596
  969TIP3    H124322   1.106   4.692  15.278 -1.2758 -0.4772  0.0481
  969TIP3    H224323   1.041   4.639  15.152  1.2295 -0.8783 -1.1520
  970TIP3   OH224324   1.710   5.252  14.024  0.2615 -0.0439  0.6089
  970TIP3    H124325   1.779   5.215  13.968 -0.2287 -2.0034  1.2188
  970TIP3    H224326   1.730   5.346  14.027  2.4648 -0.4270  0.1635
  971TIP3   OH224327   2.390   2.533  14.444 -0.4823  0.0746 -0.7433
  971TIP3    H124328   2.329   2.563  14.377 -0.4074 -1.1731 -1.4091
  971TIP3    H224329   2.357   2.446  14.468  1.6250 -1.1589 -1.9634
  972TIP3   OH224330   4.182   3.692  13.451 -0.0898 -0.2014 -0.2342
  972TIP3    H124331   4.154   3.686  13.359 -1.5027  1.6216  0.0262
  972TIP3    H224332   4.150   3.777  13.480  1.1293 -0.3570  1.7183
  973TIP3   OH224333   3.653   5.299   0.964 -0.2891  0.1286  0.0766
  973TIP3    H124334   3.704   5.244   1.023  2.0956 -0.3261 -2.2550
  973TIP3    H224335   3.593   5.238   0.920  1.5576 -0.5538 -1.6619
  974TIP3   OH224336   0.842   1.280  15.322 -0.1411  0.4613  0.6085
  974TIP3    H124337   0.795   1.354  15.359  0.4208  1.5330 -0.7533
  974TIP3    H224338   0.930   1.312  15.306 -0.3444  0.0886 -1.6374
  975TIP3   OH224339   0.607   2.284  14.346  0.0281  0.1571  0.7133
  975TIP3    H124340   0.603   2.299  14.440  1.4579 -0.1708  0.8604
  975TIP3    H224341   0.592   2.370  14.307 -0.4704  0.3130  1.2416
  976TIP3   OH224342   2.475   4.827  13.956 -0.7541  0.4705  0.4644
  976TIP3    H124343   2.522   4.872  14.025 -1.3252  0.6755  0.7265
  976TIP3    H224344   2.384   4.855  13.966 -1.0297 -0.3132  0.2988
  977TIP3   OH224345   3.570   4.509   9.777 -0.1189 -0.0961 -0.3249
  977TIP3    H124346   3.585   4.555   9.694  1.3165 -0.2316 -0.1778
  977TIP3    H224347   3.647   4.530   9.830 -0.9370 -0.1552  0.9146
  978TIP3   OH224348   6.893   6.007  13.186 -0.1134 -0.0001 -0.0714
  978TIP3    H124349   6.845   6.051  13.115  1.6830  1.8993 -0.1935
  978TIP3    H224350   6.971   6.061  13.200  0.6594 -1.5029  1.9336
  979TIP3   OH224351   0.085   0.580  10.409 -0.4433 -0.5598 -0.2298
  979TIP3    H124352   0.151   0.565  10.341  0.3737 -1.6036  0.7580
  979TIP3    H224353   0.060   0.672  10.398  1.4747 -0.0088 -0.4053
  980TIP3   OH224354   6.308   2.814  15.201 -0.5022 -0.0005 -0.0804
  980TIP3    H124355   6.386   2.867  15.220 -2.5664  3.2801 -0.0226
  980TIP3    H224356   6.282   2.778  15.286  1.0022 -1.3439 -0.1387
  981TIP3   OH224357   3.770   3.154  15.571 -0.3302  0.5514  0.7480
  981TIP3    H124358   3.742   3.108  15.492 -3.9266 -1.9274  3.2001
  981TIP3    H224359   3.695   3.207  15.596  0.9350  1.7202  2.2464
  982TIP3   OH224360   3.564   6.868  13.084  0.0764  0.1369 -0.0092
  982TIP3    H124361   3.510   6.795  13.116  1.5984 -1.5271 -1.0367
  982TIP3    H224362   3.502   6.938  13.067 -1.4076 -0.7377  1.4608
  983TIP3   OH224363   2.975   6.345  14.703  0.3443 -0.8616 -0.2841
  983TIP3    H124364   3.014   6.290  14.635 -0.4853 -1.2018 -0.4978
  983TIP3    H224365   2.881   6.333  14.693  0.0040  1.8929 -1.4779
  984TIP3   OH224366   3.989   1.494  10.579  0.6160  0.1872 -0.0139
  984TIP3    H124367   4.038   1.414  10.562 -0.4251 -0.7485  1.2520
  984TIP3    H224368   3.990   1.540  10.495  1.3696 -1.0532 -0.7207
  985TIP3   OH224369   6.303   2.337  10.646  0.1878 -0.0607  0.2021
  985TIP3    H124370   6.250   2.409  10.681 -0.9306  0.3521 -2.0978
  985TIP3    H224371   6.374   2.381  10.599  0.2992 -0.5078 -0.0497
  986TIP3   OH224372   6.180   5.870  11.409  0.7661  0.4734 -0.0331
  986TIP3    H124373   6.195   5.858  11.316  0.5210  2.5592 -0.3964
  986TIP3    H224374   6.244   5.813  11.451 -0.3555 -1.9381 -1.4045
  987TIP3   OH224375   1.844   1.107  11.907  0.0707  0.2058  0.1418
  987TIP3    H124376   1.785   1.143  11.973 -0.0723  0.4811 -0.1307
  987TIP3    H224377   1.868   1.020  11.940 -1.1278 -0.2485 -0.1330
  988TIP3   OH224378   4.913   1.838  15.468  0.3975  0.0466  0.2525
  988TIP3    H124379   4.854   1.907  15.498  1.6806  1.2301  0.1630
  988TIP3    H224380   4.899   1.834  15.373 -0.4975 -0.6381  0.3981
  989TIP3   OH224381   4.528   5.861  15.170 -0.0873 -0.3823  0.4035
  989TIP3    H124382   4.597   5.795  15.165  0.3893 -0.0768  2.2494
  989TIP3    H224383   4.446   5.811  15.164  0.2794 -1.0936  1.1564
  990TIP3   OH224384   5.064   1.967  14.183  0.5277 -0.2510  0.1487
  990TIP3    H124385   5.130   1.946  14.250  0.2095 -2.8477 -0.2438
  990TIP3    H224386   4.980   1.958  14.228  0.3460  1.7222  0.2990
  991TIP3   OH224387   6.625   0.847  11.873  0.2490  0.3039 -0.4578
  991TIP3    H124388   6.640   0.921  11.814 -1.6888  1.4075  0.3427
  991TIP3    H224389   6.665   0.874  11.956 -1.2091  0.8834  0.0890
  992TIP3   OH224390   0.413   4.634  11.807 -0.1886 -0.6960 -0.1151
  992TIP3    H124391   0.447   4.671  11.725 -0.1297  0.6973  0.5131
  992TIP3    H224392   0.492   4.611  11.857 -0.1679  0.7472  0.5482
  993TIP3   OH224393   3.704   5.047   5.835  0.1857 -0.0628 -0.0182
  993TIP3    H124394   3.671   5.114   5.895  0.3012  0.1653 -0.2078
  993TIP3    H224395   3.626   4.996   5.812 -0.4330  1.6177 -1.9257
  994TIP3   OH224396   0.398   0.533  10.500 -0.1069  0.0016  0.1612
  994TIP3    H124397   0.432   0.456  10.454  1.1502  0.5678  0.1072
  994TIP3    H224398   0.388   0.599  10.432  0.2525  0.3464  0.4376
  995TIP3   OH224399   4.671   1.216   0.356  0.1515 -0.0646  0.1774
  995TIP3    H124400   4.740   1.191   0.417 -0.9008 -0.0225  1.4101
  995TIP3    H224401   4.704   1.188   0.270  2.6727  1.9201  0.3904
  996TIP3   OH224402   5.968   6.419   1.316  0.0965  0.0541 -0.0935
  996TIP3    H124403   6.010   6.420   1.402 -0.2446 -0.5309  0.0897
  996TIP3    H224404   6.035   6.386   1.256 -0.5625 -2.5442  0.4861
  997TIP3   OH224405   2.746   0.818  12.555 -0.0848  0.1719 -0.6718
  997TIP3    H124406   2.839   0.817  12.532  0.2888  1.8051  0.5659
  997TIP3    H224407   2.711   0.737  12.517  1.7954 -0.4048 -1.3004
  998TIP3   OH224408   5.881   3.189  11.822  0.6299  0.0614  0.1600
  998TIP3    H124409   5.976   3.178  11.816  0.5966 -0.4112  0.4361
  998TIP3    H224410   5.854   3.125  11.888  0.1206  0.2038  0.0918
  999TIP3   OH224411   0.387   4.356  10.204  0.2753  0.1166 -0.3591
  999TIP3    H124412   0.420   4.311  10.282 -1.7362  0.1777  0.5929
  999TIP3    H224413   0.335   4.289  10.158  0.5642  0.3766 -1.0742
 1000TIP3   OH224414   1.174   0.221  10.555  0.2811 -0.5240 -0.1170
 1000TIP3    H124415   1.089   0.179  10.560 -0.5945  1.1984  0.0587
 1000TIP3    H224416   1.158   0.312  10.580  2.0354  0.0207 -0.8093
 1001TIP3   OH224417   4.181   2.516  11.073 -0.5940  0.0636  0.0298
 1001TIP3    H124418   4.270   2.479  11.076 -0.8566 -0.6277 -0.4606
 1001TIP3    H224419   4.194   2.610  11.089  0.4450  0.3203 -1.9924
 1002TIP3   OH224420   0.660   0.130  13.415  0.0501 -0.8566  0.6171
 1002TIP3    H124421   0.645   0.067  13.345  0.1255  0.2141 -0.4031
 1002TIP3    H224422   0.589   0.193  13.406  0.5971 -0.1823  0.8824
 1003TIP3   OH224423   0.108   6.430  11.311 -0.2244 -0.1689  0.1102
 1003TIP3    H124424   0.094   6.520  11.340  0.3322  0.8081 -2.3848
 1003TIP3    H224425   0.203   6.423  11.301 -0.1653 -1.4185  1.3327
 1004TIP3   OH224426   0.493   2.091  12.956 -0.2716  0.4160 -0.0070
 1004TIP3    H124427   0.566   2.049  13.003  0.3312  0.6298 -0.7344
 1004TIP3    H224428   0.440   2.131  13.025 -0.8661 -1.4997  0.7149
 1005TIP3   OH224429   2.350   2.332   1.395  0.0370  0.3410  0.3687
 1005TIP3    H124430   2.341   2.360   1.304 -1.1691 -1.8605 -0.2484
 1005TIP3    H224431   2.429   2.377   1.426  1.0768  0.3571 -2.0806
 1006TIP3   OH224432   7.022   5.795   3.938 -0.2991 -0.1029 -0.4387
 1006TIP3    H124433   7.023   5.891   3.937  0.6859 -0.0845 -2.0856
 1006TIP3    H224434   6.954   5.772   4.001 -1.6904  1.6978 -1.2088
 1007TIP3   OH224435   7.014   5.977  11.323  0.8766 -0.1918  0.2232
 1007TIP3    H124436   6.976   5.899  11.365 -0.0308 -0.0721 -0.3529
 1007TIP3    H224437   6.938   6.030  11.300  1.4931  0.9519  0.7590
 1008TIP3   OH224438   4.000   5.881  12.122 -0.2732 -0.1383 -0.1360
 1008TIP3    H124439   4.032   5.839  12.042  0.3658  0.0968 -0.0072
 1008TIP3    H224440   4.069   5.943  12.146  0.3991 -1.4820  1.6080
 1009TIP3   OH224441   5.881   4.349  10.601  0.2706  0.0349 -0.1519
 1009TIP3    H124442   5.793   4.343  10.564  0.8357  0.7270 -1.6780
 1009TIP3    H224443   5.940   4.328  10.529  1.4083  0.9980  0.4496
 1010TIP3   OH224444   6.149   6.307  13.690 -0.0821  0.0640  0.6659
 1010TIP3    H124445   6.178   6.233  13.744  0.7796  0.0292  0.1859
 1010TIP3    H224446   6.124   6.267  13.606  0.9057  0.3431  0.2143
 1011TIP3   OH224447   0.463   1.085  14.326  0.4467 -0.0449 -0.1810
 1011TIP3    H124448   0.435   1.078  14.235  0.3740  1.3114 -0.2880
 1011TIP3    H224449   0.386   1.059  14.377  0.4808 -0.7849 -0.4978
 1012TIP3   OH224450   5.485   6.389   0.290 -0.5075  0.4372  1.0402
 1012TIP3    H124451   5.475   6.367   0.198  1.5099  2.8969  0.1273
 1012TIP3    H224452   5.495   6.305   0.334 -0.3821 -0.7453 -1.1392
 1013TIP3   OH224453   0.519   5.000  14.962  0.3406 -0.2320 -0.2774
 1013TIP3    H124454   0.593   4.958  14.920  1.0155 -0.2991  0.9249
 1013TIP3    H224455   0.557   5.049  15.035 -0.6038  1.1290 -0.6511
 1014TIP3   OH224456   2.642   1.320   3.568 -0.9324  0.3951  0.3185
 1014TIP3    H124457   2.635   1.404   3.522 -0.4391  0.4071  0.2611
 1014TIP3    H224458   2.711   1.334   3.633  0.1716 -0.3909 -0.6446
 1015TIP3   OH224459   1.277   3.171  11.500 -0.3117  0.1122  0.2905
 1015TIP3    H124460   1.246   3.084  11.526 -0.8679  0.2709  0.1771
 1015TIP3    H224461   1.281   3.167  11.404 -0.4539  0.2490  0.2789
 1016TIP3   OH224462   5.596   1.947  13.519  0.0051 -0.1574 -0.2249
 1016TIP3    H124463   5.538   1.928  13.593 -1.0543  1.9642 -0.4245
 1016TIP3    H224464   5.576   2.038  13.496  0.5374 -0.6388 -2.9085
 1017TIP3   OH224465   5.581   1.964   9.669 -0.6091  0.0298 -0.3387
 1017TIP3    H124466   5.575   1.900   9.740 -2.9241 -0.0224 -0.5167
 1017TIP3    H224467   5.600   2.047   9.713  2.4999 -0.6757 -0.1113
 1018TIP3   OH224468   4.967   0.849   1.934  0.3064  0.4357 -0.0410
 1018TIP3    H124469   4.928   0.878   1.852  1.1758  1.5772 -0.0653
 1018TIP3    H224470   4.992   0.758   1.917 -0.9728  0.1548 -0.4988
 1019TIP3   OH224471   1.374   0.416  13.307 -0.3258  0.0621  0.5166
 1019TIP3    H124472   1.350   0.393  13.397  1.9565  0.3359  1.2689
 1019TIP3    H224473   1.371   0.333  13.260  0.0534 -0.3953  1.2731
 1020TIP3   OH224474   1.552   1.589  11.874  0.0859 -0.4222  0.4570
 1020TIP3    H124475   1.489   1.544  11.930 -0.7465  1.3728  1.0488
 1020TIP3    H224476   1.637   1.557  11.902 -0.4859 -3.6956 -1.0349
 1021TIP3   OH224477   4.658   2.182  11.938 -0.7551 -0.1035  0.0739
 1021TIP3    H124478   4.611   2.263  11.957  2.2112  1.4611  1.3905
 1021TIP3    H224479   4.658   2.134  12.021  2.0514  1.1746  0.9337
 1022TIP3   OH224480   0.329   4.555   0.217  0.0619 -0.0956  0.6548
 1022TIP3    H124481   0.267   4.548   0.145 -0.6220  0.1370  1.2126
 1022TIP3    H224482   0.410   4.585   0.176 -0.8030  1.7530  0.2169
 1023TIP3   OH224483   6.417   4.878  10.778 -0.2679  0.0238  0.1250
 1023TIP3    H124484   6.483   4.876  10.848 -3.0006 -0.1526  2.8848
 1023TIP3    H224485   6.388   4.787  10.769 -1.3083  0.3375  0.1697
 1024TIP3   OH224486   4.527   3.672  13.378 -0.7616 -0.4221 -0.7046
 1024TIP3    H124487   4.501   3.761  13.352  1.2664  0.3282 -0.3401
 1024TIP3    H224488   4.489   3.615  13.311 -0.6581  0.9017 -1.9285
 1025TIP3   OH224489   5.067   2.699  12.538 -0.2383  0.3201 -0.6861
 1025TIP3    H124490   4.985   2.748  12.528  0.2977  0.8173 -3.5558
 1025TIP3    H224491   5.125   2.759  12.585 -1.1382  0.3910  0.3865
 1026TIP3   OH224492   3.241   3.608   1.480 -0.2632  0.2398  0.3940
 1026TIP3    H124493   3.146   3.623   1.484 -0.1320  1.1180  0.5802
 1026TIP3    H224494   3.263   3.575   1.567 -0.4264 -0.1569  0.2863
 1027TIP3   OH224495   3.184   0.058  11.177 -0.4019  0.7096 -0.0598
 1027TIP3    H124496   3.108   0.080  11.231  0.3913  0.3378  1.2628
 1027TIP3    H224497   3.252   0.036  11.240 -0.6038 -4.0731 -1.1270
 1028TIP3   OH224498   2.494   2.116  12.640 -0.4786  0.2002 -0.2811
 1028TIP3    H124499   2.496   2.089  12.732  2.8007 -0.0926 -0.3370
 1028TIP3    H224500   2.493   2.034  12.591 -0.2637  0.3161 -0.4819
 1029TIP3   OH224501   6.734   2.626  14.078 -0.0547  0.4084 -0.4281
 1029TIP3    H124502   6.682   2.704  14.100  0.1196  0.5376 -0.4715
 1029TIP3    H224503   6.672   2.567  14.035 -0.4878  0.0038  0.7242
 1030TIP3   OH224504   1.440   1.535  10.248  0.2621  0.1614 -0.2558
 1030TIP3    H124505   1.425   1.627  10.228  0.5172 -0.2036 -2.4314
 1030TIP3    H224506   1.535   1.526  10.246  0.2230 -0.2154 -0.4458
 1031TIP3   OH224507   1.038   3.221  10.666 -0.4970 -0.3786  0.3532
 1031TIP3    H124508   1.060   3.285  10.599  0.8481 -0.3011  0.8428
 1031TIP3    H224509   0.988   3.153  10.620 -0.9031  0.4191 -0.4013
 1032TIP3   OH224510   0.505   4.630  14.618  0.0459 -0.4012  0.4802
 1032TIP3    H124511   0.445   4.696  14.581  1.4222  0.3583 -0.4946
 1032TIP3    H224512   0.505   4.648  14.712  0.5914  1.1835  0.2065
 1033TIP3   OH224513   1.656   0.739   1.010 -0.0588  0.1500 -0.1773
 1033TIP3    H124514   1.577   0.690   1.033 -1.0579  1.5458 -0.5148
 1033TIP3    H224515   1.717   0.721   1.082 -1.7844  1.4483  1.7358
 1034TIP3   OH224516   1.489   5.270  14.516 -0.3703 -0.0597 -0.6280
 1034TIP3    H124517   1.478   5.293  14.608  0.9408 -1.3533 -0.1062
 1034TIP3    H224518   1.460   5.347  14.468 -2.3129  0.1768  0.8049
 1035TIP3   OH224519   5.531   1.890  14.755  0.5172  0.1399  0.5170
 1035TIP3    H124520   5.566   1.802  14.766  0.9500  0.0273 -1.4205
 1035TIP3    H224521   5.592   1.946  14.803  1.1253 -0.4672  0.4737
 1036TIP3   OH224522   2.310   0.187  13.827  0.2529 -0.4422 -0.2088
 1036TIP3    H124523   2.332   0.254  13.763 -0.3869 -0.5322 -0.5405
 1036TIP3    H224524   2.394   0.154  13.858  0.6946 -2.1143 -2.8307
 1037TIP3   OH224525   3.394   4.308  15.641  0.4691 -0.0981 -0.0300
 1037TIP3    H124526   3.479   4.348  15.624  0.4600 -0.0546  0.0287
 1037TIP3    H224527   3.371   4.336  15.730 -1.1808  2.7510 -1.2179
 1038TIP3   OH224528   1.396   1.605  15.387  0.3756  0.0509 -0.1372
 1038TIP3    H124529   1.490   1.621  15.375  0.0024  3.1279  0.3936
 1038TIP3    H224530   1.362   1.685  15.427 -2.5295 -0.9170 -0.4112
 1039TIP3   OH224531   4.726   2.250  12.332 -0.2049  0.1740 -0.0453
 1039TIP3    H124532   4.817   2.253  12.362 -0.5598  1.8676  0.9925
 1039TIP3    H224533   4.716   2.330  12.279 -0.8444 -0.4771 -0.9443
 1040TIP3   OH224534   0.985   3.398   0.412  0.2999  0.2691 -0.2547
 1040TIP3    H124535   1.056   3.339   0.437  0.9395  0.3474 -1.7418
 1040TIP3    H224536   0.909   3.341   0.401 -0.2433  0.3421  2.5392
 1041TIP3   OH224537   6.044   6.288  11.473 -0.0259 -0.4622  0.5914
 1041TIP3    H124538   6.029   6.367  11.526  0.0960  0.9458 -1.3415
 1041TIP3    H224539   6.087   6.227  11.533  1.5414  1.6052  1.7320
 1042TIP3   OH224540   1.920   2.492   0.755 -0.5172  0.2793  0.0761
 1042TIP3    H124541   1.973   2.461   0.828 -0.0645 -1.7292 -1.0322
 1042TIP3    H224542   1.971   2.470   0.677 -2.3061 -0.4523 -0.9630
 1043TIP3   OH224543   3.658   1.617  12.547  0.3163  0.1473  0.2446
 1043TIP3    H124544   3.650   1.641  12.454  2.3075  0.7311  0.1588
 1043TIP3    H224545   3.620   1.691  12.594 -1.0006 -0.2969 -0.0864
 1044TIP3   OH224546   0.537   1.406  14.221  0.4786  0.0799  0.1354
 1044TIP3    H124547   0.452   1.383  14.181  0.1844  1.0194  0.2002
 1044TIP3    H224548   0.543   1.348  14.297 -0.0821 -0.0320  0.1063
 1045TIP3   OH224549   5.814   0.848  12.660 -0.4108 -0.4187 -0.9569
 1045TIP3    H124550   5.886   0.906  12.685 -0.1501 -1.1802  0.1592
 1045TIP3    H224551   5.752   0.855  12.733 -0.2288 -1.7511 -0.6417
 1046TIP3   OH224552   1.607   4.161  11.409 -0.3595  0.6284  0.4349
 1046TIP3    H124553   1.645   4.194  11.328 -1.0944 -2.2237 -1.2022
 1046TIP3    H224554   1.513   4.175  11.398 -0.6009 -1.0160  0.0836
 1047TIP3   OH224555   6.377   4.387  10.855 -0.0082  0.3161 -0.7128
 1047TIP3    H124556   6.445   4.407  10.920 -0.7090 -0.8217  0.3964
 1047TIP3    H224557   6.304   4.353  10.906 -0.8829  0.1609 -2.0359
 1048TIP3   OH224558   6.524   0.357  14.344  0.2672 -0.9182 -0.2283
 1048TIP3    H124559   6.454   0.367  14.280  0.9270  1.4445 -0.7007
 1048TIP3    H224560   6.502   0.278  14.393 -2.3041 -0.6713 -0.8560
 1049TIP3   OH224561   2.690   1.339  12.319 -0.3283  0.5509  0.6525
 1049TIP3    H124562   2.627   1.287  12.369 -1.3538 -0.0170 -1.1696
 1049TIP3    H224563   2.762   1.278  12.302 -1.5768 -0.3967 -1.5725
 1050TIP3   OH224564   0.444   0.919  12.072  0.0766  0.0240 -0.1034
 1050TIP3    H124565   0.386   0.995  12.078  0.8470  0.5469  1.0205
 1050TIP3    H224566   0.531   0.957  12.055  0.4642 -0.6127  0.4312
 1051TIP3   OH224567   3.335   6.820  10.481  0.4531  0.1199  0.6015
 1051TIP3    H124568   3.305   6.909  10.459  0.1587 -0.3762 -1.2314
 1051TIP3    H224569   3.344   6.777  10.396  3.1332 -0.8404  1.2780
 1052TIP3   OH224570   6.098   4.623  10.978 -0.2044 -0.0233 -0.1114
 1052TIP3    H124571   6.038   4.619  11.053 -0.6794 -2.0210 -0.5569
 1052TIP3    H224572   6.059   4.566  10.912  1.1007  0.3333 -1.2391
 1053TIP3   OH224573   1.867   2.148  14.006 -0.0007  0.2905 -0.0166
 1053TIP3    H124574   1.917   2.137  14.087  1.3733 -0.6902 -0.9376
 1053TIP3    H224575   1.871   2.242  13.988 -0.2303  0.5033  0.9826
 1054TIP3   OH224576   3.572   3.747  13.232 -0.1582 -0.6875  0.3849
 1054TIP3    H124577   3.604   3.668  13.277  0.8417 -0.4533  0.1110
 1054TIP3    H224578   3.606   3.820  13.285  0.1374 -0.4287 -0.1571
 1055TIP3   OH224579   4.226   3.397   0.660  0.3264 -0.1781  0.1098
 1055TIP3    H124580   4.150   3.351   0.624  0.5987 -0.6521  0.1464
 1055TIP3    H224581   4.270   3.333   0.715  0.0209  0.4817  1.1600
 1056TIP3   OH224582   5.788   6.383   2.094 -0.1212  0.1738  0.0515
 1056TIP3    H124583   5.865   6.353   2.142  0.0842 -0.4671 -0.6575
 1056TIP3    H224584   5.717   6.380   2.158  0.0791 -0.9876  0.2399
 1057TIP3   OH224585   4.388   6.675   0.891  0.8391 -0.3269 -0.0213
 1057TIP3    H124586   4.439   6.753   0.868 -1.3259  1.6120  1.2403
 1057TIP3    H224587   4.298   6.697   0.866  0.0186 -2.0504  1.2245
 1058TIP3   OH224588   5.383   5.605   1.997 -0.6532  0.2464 -0.7116
 1058TIP3    H124589   5.328   5.668   1.950  0.6260  1.8057 -0.2146
 1058TIP3    H224590   5.369   5.522   1.952 -2.3886  0.8708 -1.4022
 1059TIP3   OH224591   7.030   2.723   4.922 -0.4890  0.1646 -0.4635
 1059TIP3    H124592   7.071   2.636   4.919 -0.6859 -0.0597  1.5030
 1059TIP3    H224593   7.100   2.784   4.899 -0.2824 -0.4952 -1.6230
 1060TIP3   OH224594   4.908   0.300  13.020 -0.3375  0.5591  0.0163
 1060TIP3    H124595   4.994   0.317  12.981 -0.7434  2.2714 -0.2144
 1060TIP3    H224596   4.927   0.248  13.097  1.0068  1.5175  0.3720
 1061TIP3   OH224597   5.874   1.175  12.616 -0.0690 -0.3065  0.4085
 1061TIP3    H124598   5.907   1.262  12.594  0.4416 -0.6630 -0.2344
 1061TIP3    H224599   5.929   1.146  12.688  0.3874 -0.4947 -0.0140
 1062TIP3   OH224600   3.340   1.906  11.050  0.2522 -0.0511  0.5239
 1062TIP3    H124601   3.371   1.820  11.020 -1.6202 -0.5206 -0.1931
 1062TIP3    H224602   3.419   1.960  11.053  1.4766 -1.8106  1.0653
 1063TIP3   OH224603   5.009   4.090  12.037  0.2434 -0.4974  0.6266
 1063TIP3    H124604   4.930   4.139  12.012 -0.4410 -0.5911  2.4076
 1063TIP3    H224605   5.008   4.013  11.981  0.2421  0.5357 -0.8390
 1064TIP3   OH224606   5.226   4.923  14.902 -0.9515 -0.3824 -0.3450
 1064TIP3    H124607   5.281   4.926  14.824 -0.9713  0.2603 -0.3399
 1064TIP3    H224608   5.285   4.948  14.973 -0.3534 -3.0882  0.2014
 1065TIP3   OH224609   1.890   4.869  10.034 -0.1044 -0.2905  0.0259
 1065TIP3    H124610   1.978   4.887  10.000 -0.4287 -1.6806 -1.6535
 1065TIP3    H224611   1.858   4.797   9.981 -2.8233  1.0844 -0.3481
 1066TIP3   OH224612   5.827   5.478  10.097  0.2959 -0.3710 -0.5222
 1066TIP3    H124613   5.916   5.468  10.063  0.3424 -0.6037 -0.3324
 1066TIP3    H224614   5.788   5.392  10.087  0.7585 -0.8282  1.2871
 1067TIP3   OH224615   3.235   4.545  12.348  0.2592 -0.3222 -0.2614
 1067TIP3    H124616   3.301   4.576  12.286  0.7758 -0.8874  0.0031
 1067TIP3    H224617   3.284   4.522  12.427 -0.2375 -0.7898 -0.0805
 1068TIP3   OH224618   3.695   0.787  10.463  0.5577 -0.5852 -0.3494
 1068TIP3    H124619   3.650   0.866  10.434 -0.8293 -0.3471  2.1876
 1068TIP3    H224620   3.781   0.817  10.492  1.2852 -0.5724 -2.3449
 1069TIP3   OH224621   7.025   3.984  12.579 -0.2536  0.1334  0.0950
 1069TIP3    H124622   7.061   3.897  12.600  0.6448  0.4630 -0.0587
 1069TIP3    H224623   6.994   4.018  12.663 -1.0796 -0.5428  0.0756
 1070TIP3   OH224624   0.032   4.642  13.631  0.1588  0.4203  0.6957
 1070TIP3    H124625  -0.013   4.561  13.607  1.4886  0.0694 -0.7745
 1070TIP3    H224626   0.124   4.616  13.641  0.3511  1.4510  1.8611
 1071TIP3   OH224627   2.744   0.230   1.189 -0.4935  0.6829  0.1515
 1071TIP3    H124628   2.807   0.162   1.208 -1.2576 -0.2641 -0.6099
 1071TIP3    H224629   2.721   0.266   1.275  0.8177  0.8313  0.4598
 1072TIP3   OH224630   0.787   4.832  11.617  0.2912 -0.5794 -0.2655
 1072TIP3    H124631   0.849   4.769  11.579  1.8473 -0.5822  2.0465
 1072TIP3    H224632   0.783   4.808  11.710 -1.5029  0.8234  0.0634
 1073TIP3   OH224633   0.932   6.627   0.860  0.0215 -0.5202  0.0374
 1073TIP3    H124634   0.942   6.617   0.766 -0.5769  1.8341 -0.3305
 1073TIP3    H224635   1.010   6.585   0.897  0.7382 -0.6502 -1.5619
 1074TIP3   OH224636   6.913   0.267  12.430 -0.0327 -0.6433  1.0239
 1074TIP3    H124637   6.994   0.237  12.389 -0.2670 -0.6353  0.5605
 1074TIP3    H224638   6.921   0.239  12.522  0.6265 -0.3726  1.0511
 1075TIP3   OH224639   3.231   7.036  13.218 -0.1038  0.0069  0.0550
 1075TIP3    H124640   3.215   7.042  13.312  0.2420  0.8466  0.0691
 1075TIP3    H224641   3.323   7.060  13.207 -0.2244  0.2323 -0.5216
 1076TIP3   OH224642   2.815   5.639  10.641  0.6544  0.5908 -0.4557
 1076TIP3    H124643   2.760   5.565  10.615  0.3687  0.6124  0.0716
 1076TIP3    H224644   2.785   5.712  10.588 -1.4432  1.2116  1.4368
 1077TIP3   OH224645   3.325   3.909  13.673 -0.1386  0.2460  0.0351
 1077TIP3    H124646   3.244   3.959  13.660 -0.8959 -0.8414  0.3999
 1077TIP3    H224647   3.319   3.837  13.611  1.5219  1.2250 -1.3486
 1078TIP3   OH224648   3.006   2.085  10.247  0.4701  0.0748 -0.4418
 1078TIP3    H124649   3.024   2.179  10.244  0.7419 -0.0006 -1.4092
 1078TIP3    H224650   2.984   2.068  10.339  0.1928  1.1173 -0.3050
 1079TIP3   OH224651   4.968   0.507  11.580 -0.5472 -0.1872  0.0727
 1079TIP3    H124652   4.910   0.548  11.644 -1.2024 -0.2873 -0.4535
 1079TIP3    H224653   4.916   0.502  11.500 -0.3665 -1.7187  0.0294
 1080TIP3   OH224654   0.250   0.289  14.913  0.2646 -0.1719  0.0453
 1080TIP3    H124655   0.328   0.342  14.895  0.4164 -0.5701 -0.4939
 1080TIP3    H224656   0.281   0.199  14.910 -0.4583 -0.3914 -1.4317
 1081TIP3   OH224657   1.749   3.369  11.583  0.1171 -0.1583  0.0941
 1081TIP3    H124658   1.810   3.415  11.526 -0.1886  0.0412 -0.0794
 1081TIP3    H224659   1.677   3.432  11.596  0.1026 -0.2662  0.5561
 1082TIP3   OH224660   0.255   5.609  10.334  0.1017 -0.5875  0.1447
 1082TIP3    H124661   0.212   5.694  10.325  1.0938  0.1819  2.1942
 1082TIP3    H224662   0.182   5.547  10.339 -0.7453  0.4524  1.4601
 1083TIP3   OH224663   5.411   2.574   3.750  0.1169  0.1435  0.0918
 1083TIP3    H124664   5.359   2.653   3.740 -1.6673 -0.9915  0.0314
 1083TIP3    H224665   5.392   2.522   3.672  2.3765  0.2181 -0.5809
 1084TIP3   OH224666   2.046   6.794  10.190 -0.7875  0.1789  0.1204
 1084TIP3    H124667   2.019   6.722  10.133  4.7455 -0.6049 -2.1619
 1084TIP3    H224668   2.046   6.871  10.132 -1.6138  0.9217  1.0793
 1085TIP3   OH224669   2.744   3.702  11.990 -0.0332  0.3276 -0.6482
 1085TIP3    H124670   2.792   3.749  12.059 -0.0620 -1.3049  0.5479
 1085TIP3    H224671   2.808   3.641  11.955 -0.9159 -1.2284  0.3265
 1086TIP3   OH224672   4.398   4.421   3.770 -0.6423  0.0448 -0.6070
 1086TIP3    H124673   4.306   4.429   3.743 -0.2611  1.9884 -1.4985
 1086TIP3    H224674   4.444   4.395   3.691 -0.5151 -1.9210  0.0700
 1087TIP3   OH224675   5.898   4.838  13.657  0.2166 -0.2300  0.2519
 1087TIP3    H124676   5.802   4.835  13.653  0.2364 -0.4081 -0.1905
 1087TIP3    H224677   5.918   4.931  13.668 -0.0020 -0.1670  0.1289
 1088TIP3   OH224678   2.547   0.595   0.883 -0.1467  0.1220  0.3202
 1088TIP3    H124679   2.498   0.610   0.964  1.1416 -0.4053  1.2265
 1088TIP3    H224680   2.605   0.521   0.903 -0.0942 -0.2960 -1.2218
 1089TIP3   OH224681   5.781   0.970  12.067  0.5371 -0.2480  0.1461
 1089TIP3    H124682   5.837   1.048  12.064  1.5265 -0.9730 -1.1318
 1089TIP3    H224683   5.829   0.908  12.122  1.5596 -1.2404 -1.7635
 1090TIP3   OH224684   3.262   1.909  14.225 -0.0319  0.1495  0.3951
 1090TIP3    H124685   3.282   1.850  14.153  1.8047  0.8943  0.2314
 1090TIP3    H224686   3.167   1.903  14.237 -0.3117 -0.3169 -1.7934
 1091TIP3   OH224687   5.692   3.016  15.452  0.2015 -0.2210 -0.2889
 1091TIP3    H124688   5.720   2.987  15.539  0.7833 -1.8296 -0.9685
 1091TIP3    H224689   5.737   3.099  15.438 -0.6048  0.5249  1.2824
 1092TIP3   OH224690   0.825   1.000  12.591 -0.1235  0.2141 -0.4266
 1092TIP3    H124691   0.886   1.032  12.524 -0.3876  1.5745 -0.0452
 1092TIP3    H224692   0.877   0.996  12.671  0.0602 -0.9199 -0.5932
 1093TIP3   OH224693   6.451   4.631  14.621  0.3762 -0.2803  0.4447
 1093TIP3    H124694   6.498   4.714  14.637 -0.2386  0.3042 -0.6580
 1093TIP3    H224695   6.486   4.571  14.687 -0.1555  1.2339  2.1869
 1094TIP3   OH224696   0.876   3.167  15.272  0.1651 -0.6109  0.3251
 1094TIP3    H124697   0.953   3.176  15.328 -0.8679 -1.0138  1.8673
 1094TIP3    H224698   0.900   3.098  15.210  1.1773 -0.4724  0.5436
 1095TIP3   OH224699   1.970   1.952   2.700 -0.1557 -0.7937 -0.2266
 1095TIP3    H124700   1.946   1.869   2.660 -0.3832 -2.3796  2.9323
 1095TIP3    H224701   2.065   1.956   2.693  0.1731 -2.7847  2.0212
 1096TIP3   OH224702   2.277   6.396  14.044  0.0424  0.1682  0.3328
 1096TIP3    H124703   2.268   6.353  14.130  1.9500 -0.0343  0.4840
 1096TIP3    H224704   2.365   6.371  14.015 -0.3900  0.6491 -1.4688
 1097TIP3   OH224705   0.894   0.547   0.061  0.5357  0.0931 -0.2725
 1097TIP3    H124706   0.931   0.569  -0.025 -1.9227 -0.1837 -1.5018
 1097TIP3    H224707   0.825   0.612   0.074 -1.8624 -2.2581 -0.4892
 1098TIP3   OH224708   1.330   1.103  12.831  0.1790  0.2004 -0.0712
 1098TIP3    H124709   1.345   1.104  12.925  0.2318  0.4286 -0.0811
 1098TIP3    H224710   1.247   1.149  12.819 -0.2701 -0.6111 -0.0630
 1099TIP3   OH224711   0.700   1.932  11.658 -0.5843  0.1912 -0.0440
 1099TIP3    H124712   0.785   1.954  11.622  0.7489 -1.9786  1.5232
 1099TIP3    H224713   0.647   1.908  11.582 -0.6462  3.6794 -1.2944
 1100TIP3   OH224714   4.154   2.043  11.780 -0.6963 -0.4137  0.2337
 1100TIP3    H124715   4.121   2.119  11.829  1.4683 -0.8707  2.5732
 1100TIP3    H224716   4.249   2.052  11.783 -0.4387 -2.1503 -1.2559
 1101TIP3   OH224717   5.987   1.171  12.021 -0.4617  0.2227 -0.2864
 1101TIP3    H124718   5.973   1.186  11.927  1.8399  0.1532 -0.7035
 1101TIP3    H224719   6.050   1.099  12.025 -1.7825 -0.9375  1.4010
 1102TIP3   OH224720   0.723   5.686  10.082  0.0129  0.2682 -0.4024
 1102TIP3    H124721   0.632   5.670  10.058 -0.3701  2.2302 -0.4069
 1102TIP3    H224722   0.732   5.649  10.169 -0.3609 -1.2086 -0.9563
 1103TIP3   OH224723   6.128   0.966   1.814 -0.3097  0.2384  0.1286
 1103TIP3    H124724   6.077   0.903   1.865 -0.4749  0.0185 -0.3050
 1103TIP3    H224725   6.091   0.961   1.726  0.0544  0.5304 -0.0416
 1104TIP3   OH224726   1.587   0.898   0.550  0.1442  0.0226  0.3937
 1104TIP3    H124727   1.524   0.839   0.510  1.2969 -0.2051 -1.1805
 1104TIP3    H224728   1.583   0.878   0.643 -2.2510  0.1882  0.3816
 1105TIP3   OH224729   4.592   3.242  14.322  0.5691  0.3563  0.0927
 1105TIP3    H124730   4.505   3.277  14.303  0.6329  1.1191  1.1349
 1105TIP3    H224731   4.593   3.157  14.278 -1.7491 -0.9467  2.3146
 1106TIP3   OH224732   2.476   1.708   0.678  0.3794  0.6648 -0.0613
 1106TIP3    H124733   2.520   1.768   0.618  0.9747 -0.4606 -0.7897
 1106TIP3    H224734   2.489   1.622   0.639 -1.3178  0.1552  0.4313
 1107TIP3   OH224735   6.319   6.486   0.604 -0.6463 -0.8376  0.1756
 1107TIP3    H124736   6.260   6.435   0.548  1.6393 -0.9437 -2.3509
 1107TIP3    H224737   6.302   6.577   0.580  0.4752 -0.8933 -0.9390
 1108TIP3   OH224738   1.952   1.825  12.753  0.0255 -0.2535 -0.9285
 1108TIP3    H124739   1.921   1.855  12.667 -2.0125 -0.8661 -0.4646
 1108TIP3    H224740   1.945   1.901  12.810 -0.5408 -0.3496 -0.8623
 1109TIP3   OH224741   5.806   1.152  10.908 -0.5411 -0.7608  0.2891
 1109TIP3    H124742   5.862   1.085  10.869  0.1462  1.7766 -3.7005
 1109TIP3    H224743   5.720   1.137  10.869 -0.8150 -0.3259  0.7018
 1110TIP3   OH224744   4.041   6.890   1.400  0.2104  0.6879  0.4421
 1110TIP3    H124745   3.958   6.844   1.407  0.2223  0.5124 -0.4456
 1110TIP3    H224746   4.107   6.824   1.421  0.2281  0.2787 -0.8218
 1111TIP3   OH224747   5.948   4.309  12.450  0.4126  0.1111 -0.0502
 1111TIP3    H124748   5.936   4.255  12.528  0.0514 -0.0581 -0.2211
 1111TIP3    H224749   5.990   4.251  12.386 -0.1762 -0.0354 -0.3082
 1112TIP3   OH224750   5.186   0.519  15.077 -0.0729  0.0779 -0.1613
 1112TIP3    H124751   5.094   0.509  15.051  0.1035 -0.1524 -0.7292
 1112TIP3    H224752   5.183   0.557  15.165 -0.7091  0.1784 -0.2238
 1113TIP3   OH224753   1.760   3.492   9.735  0.1730  0.3689  0.7129
 1113TIP3    H124754   1.856   3.495   9.735  0.1839  0.9144 -0.7140
 1113TIP3    H224755   1.734   3.570   9.784  0.4354 -0.1878  1.7779
 1114TIP3   OH224756   0.464   4.025  12.253  0.1402 -0.2944 -0.2974
 1114TIP3    H124757   0.499   4.109  12.225 -2.2501  0.3225 -1.7165
 1114TIP3    H224758   0.392   4.047  12.312 -1.6986 -1.2001 -2.0868
 1115TIP3   OH224759   0.296   3.954   1.030  0.4338  0.2110 -0.1264
 1115TIP3    H124760   0.276   3.972   1.122  0.9709 -0.2685  0.0942
 1115TIP3    H224761   0.215   3.916   0.995 -0.4703  2.2668 -0.4097
 1116TIP3   OH224762   6.604   1.307  12.887  0.0912  0.0290 -0.1291
 1116TIP3    H124763   6.533   1.367  12.910 -1.0642 -0.7319 -1.5457
 1116TIP3    H224764   6.608   1.246  12.961  0.8776  1.4465  1.0442
 1117TIP3   OH224765   4.391   2.216  13.722  0.3745  0.0584 -0.0861
 1117TIP3    H124766   4.457   2.249  13.783  0.8043 -0.7626 -0.0944
 1117TIP3    H224767   4.338   2.155  13.775  0.1489  0.0749 -0.2878
 1118TIP3   OH224768   3.668   4.641  10.703  0.2363 -0.6818  0.2727
 1118TIP3    H124769   3.592   4.664  10.757 -0.0423 -3.0115  0.9845
 1118TIP3    H224770   3.739   4.694  10.739 -0.9289  1.2777 -0.1705
 1119TIP3   OH224771   1.834   5.003  12.256  0.4009 -0.2060 -0.2892
 1119TIP3    H124772   1.776   4.930  12.232  0.4884 -0.7515  1.0512
 1119TIP3    H224773   1.919   4.962  12.271  0.8465  0.4148 -1.0030
 1120TIP3   OH224774   2.020   0.362  13.974 -0.1548 -0.2405  0.1355
 1120TIP3    H124775   2.021   0.355  13.879 -1.1569  0.7321  0.0359
 1120TIP3    H224776   2.015   0.456  13.992 -0.0044 -0.4102  1.1499
 1121TIP3   OH224777   1.778   7.116  15.012  0.2141  0.2464  0.3778
 1121TIP3    H124778   1.815   7.125  15.100  1.5147  0.6204 -0.1808
 1121TIP3    H224779   1.846   7.071  14.962 -0.8731 -0.7756 -0.2283
 1122TIP3   OH224780   6.516   0.023  11.077 -0.6402 -0.3254 -0.1198
 1122TIP3    H124781   6.560   0.022  10.992 -3.1392 -1.5486 -1.4852
 1122TIP3    H224782   6.437   0.074  11.063 -1.2310 -0.7535  1.4393
 1123TIP3   OH224783   6.731   4.074  14.448  0.1041  0.2522  0.0524
 1123TIP3    H124784   6.644   4.103  14.476  0.0336 -0.6202  0.7668
 1123TIP3    H224785   6.722   4.059  14.354 -0.2589  1.0702 -0.0568
 1124TIP3   OH224786   1.265   4.684  14.201  0.0201  0.4987 -0.1773
 1124TIP3    H124787   1.226   4.747  14.141  0.6685  0.3573 -0.7536
 1124TIP3    H224788   1.289   4.736  14.278  0.7860  1.0242 -0.7459
 1125TIP3   OH224789   2.983   2.510  11.205 -0.1229 -0.5310 -0.4538
 1125TIP3    H124790   2.989   2.434  11.264  0.0019  1.3081  2.0415
 1125TIP3    H224791   3.046   2.490  11.135  0.6776 -2.2644  0.6695
 1126TIP3   OH224792   2.813   0.599  14.354  0.1095  0.1961 -0.2360
 1126TIP3    H124793   2.843   0.515  14.319 -3.7029 -1.9176  0.9963
 1126TIP3    H224794   2.756   0.635  14.286 -1.0439 -0.0201  0.5818
 1127TIP3   OH224795   1.547   5.267  13.199  0.0510  0.4762 -0.0887
 1127TIP3    H124796   1.576   5.320  13.125  1.0421  0.7566  0.4751
 1127TIP3    H224797   1.521   5.331  13.266 -0.5040  0.2298 -0.0599
 1128TIP3   OH224798   0.257   2.179  13.775  0.6579 -0.1461 -0.5496
 1128TIP3    H124799   0.295   2.162  13.861  0.7977  1.5798 -0.2171
 1128TIP3    H224800   0.283   2.269  13.755 -0.5599 -0.0241 -1.7643
 1129TIP3   OH224801   0.295   0.797   1.153 -0.8663 -0.1250 -0.1113
 1129TIP3    H124802   0.289   0.705   1.127 -0.0782  0.2176 -1.5922
 1129TIP3    H224803   0.226   0.841   1.102 -1.1933  0.1311  0.5346
 1130TIP3   OH224804   4.589   2.142   2.508 -0.0748 -0.0152 -0.4508
 1130TIP3    H124805   4.610   2.235   2.506 -1.0050  0.1950 -0.8131
 1130TIP3    H224806   4.671   2.098   2.484  0.7436  0.6271  0.9891
 1131TIP3   OH224807   5.929   0.763   1.672 -0.1489  0.1257  0.5955
 1131TIP3    H124808   5.975   0.785   1.592  0.4432 -0.6894  0.7029
 1131TIP3    H224809   5.987   0.703   1.718 -1.4687 -1.2670  0.5443
 1132TIP3   OH224810   3.628   2.498  12.680  0.6063 -0.6615 -0.4436
 1132TIP3    H124811   3.575   2.494  12.601  0.7993 -0.4516 -0.5855
 1132TIP3    H224812   3.716   2.474  12.651  0.6717 -0.6090 -0.2887
 1133TIP3   OH224813   5.577   4.256  13.740  0.0156  0.2127  0.1068
 1133TIP3    H124814   5.618   4.243  13.826 -0.0892 -0.7826  0.0181
 1133TIP3    H224815   5.622   4.194  13.682 -1.0589 -0.3352 -0.1721
 1134TIP3   OH224816   6.083   4.178   9.428 -0.1409 -0.0648 -0.8832
 1134TIP3    H124817   6.059   4.201   9.338 -2.9869  1.0338  0.0232
 1134TIP3    H224818   6.011   4.123   9.457  2.0972 -2.7627 -0.0612
 1135TIP3   OH224819   4.687   0.675  10.496  0.4422  0.2077 -0.3504
 1135TIP3    H124820   4.687   0.694  10.403 -0.0680  1.1652 -0.1631
 1135TIP3    H224821   4.768   0.626  10.511 -0.1053 -1.1387 -1.5121
 1136TIP3   OH224822   6.906   6.186  12.297 -0.0741  0.4794  0.2007
 1136TIP3    H124823   6.848   6.262  12.304 -1.4653 -0.4584 -0.7213
 1136TIP3    H224824   6.849   6.115  12.267  1.5258 -0.5246 -0.5700
 1137TIP3   OH224825   5.154   3.153   3.696 -0.3327  0.6946 -0.0568
 1137TIP3    H124826   5.141   3.216   3.766 -0.7810  0.1117  0.3943
 1137TIP3    H224827   5.084   3.172   3.633  0.6325  1.8403 -0.8380
 1138TIP3   OH224828   1.597   5.631   4.148 -0.2476 -0.2120  0.2801
 1138TIP3    H124829   1.691   5.645   4.139 -0.2872 -0.3812 -0.3899
 1138TIP3    H224830   1.557   5.702   4.099 -0.4513 -2.8940 -3.8959
 1139TIP3   OH224831   1.387   2.697  14.253 -0.0957  0.5878  0.2006
 1139TIP3    H124832   1.465   2.737  14.291  1.9943 -2.2160 -0.7599
 1139TIP3    H224833   1.365   2.754  14.179  0.0532  2.2439  1.3688
 1140TIP3   OH224834   2.723   3.231   0.894  0.1092 -0.3616  0.0077
 1140TIP3    H124835   2.754   3.168   0.960 -0.6481  1.1193  1.8711
 1140TIP3    H224836   2.708   3.312   0.943 -1.4405  0.5434 -1.8307
 1141TIP3   OH224837   4.622   1.616   4.755 -0.2376  0.2663  0.0309
 1141TIP3    H124838   4.673   1.695   4.773 -0.4746  0.3335  0.4146
 1141TIP3    H224839   4.582   1.633   4.669  0.8001 -0.0093 -0.5261
 1142TIP3   OH224840   0.249   2.708   0.378  0.3931  0.4594  0.1366
 1142TIP3    H124841   0.319   2.669   0.431  0.0545  0.8525  0.8961
 1142TIP3    H224842   0.272   2.686   0.288  0.4868 -1.0411  0.4998
 1143TIP3   OH224843   6.894   6.170   0.279 -0.0810 -0.6018  0.3639
 1143TIP3    H124844   6.924   6.128   0.359 -1.7185  0.0449  1.3869
 1143TIP3    H224845   6.966   6.227   0.252  0.1923 -0.2190  1.8467
 1144TIP3   OH224846   1.017   3.010  13.033 -0.6420 -0.2291 -0.3884
 1144TIP3    H124847   1.018   2.918  13.059 -0.1404  0.1025  0.8785
 1144TIP3    H224848   1.070   3.014  12.954  1.4426 -0.7033  0.8924
 1145TIP3   OH224849   2.396   2.427  10.981 -0.3426  0.4762  0.0569
 1145TIP3    H124850   2.337   2.502  10.986  0.4475  1.0676  0.8326
 1145TIP3    H224851   2.372   2.382  10.900 -2.2334  0.3652  0.6509
 1146TIP3   OH224852   1.648   1.441   1.860  0.0883 -0.2324  0.3365
 1146TIP3    H124853   1.670   1.525   1.820  0.4208 -0.1692  0.6520
 1146TIP3    H224854   1.693   1.441   1.944 -0.4410 -0.4521  0.6279
 1147TIP3   OH224855   1.022   5.564  12.837 -0.4747  0.2720 -0.2190
 1147TIP3    H124856   0.940   5.606  12.863 -0.9457 -1.5156  1.4559
 1147TIP3    H224857   1.000   5.471  12.830  1.2209 -0.1419 -0.5535
 1148TIP3   OH224858   6.633   2.342   1.541 -0.1976  0.0695 -0.4887
 1148TIP3    H124859   6.638   2.314   1.449  1.0856 -0.0111 -0.4057
 1148TIP3    H224860   6.639   2.261   1.591 -0.8213  0.1218 -0.3162
 1149TIP3   OH224861   0.663   6.846   9.995 -0.3363 -0.2338 -0.1553
 1149TIP3    H124862   0.719   6.918   9.965 -1.6651  0.9843  0.1766
 1149TIP3    H224863   0.623   6.880  10.075 -0.8297 -1.4445  0.1163
 1150TIP3   OH224864   6.937   4.641  11.400 -0.6544 -0.7533 -0.0721
 1150TIP3    H124865   7.007   4.625  11.337  0.2449 -2.2453  1.2379
 1150TIP3    H224866   6.862   4.667  11.346  0.8628  0.8649 -1.5049
 1151TIP3   OH224867   5.029   0.511  11.051  0.6385 -0.1692  0.1256
 1151TIP3    H124868   5.121   0.526  11.073  0.1772  1.9155  0.8265
 1151TIP3    H224869   5.024   0.526  10.957  0.7911  1.0438  0.3041
 1152TIP3   OH224870   3.917   0.514  11.438  0.2420  0.3986 -0.2781
 1152TIP3    H124871   3.824   0.520  11.416 -0.3200 -0.3515  1.7252
 1152TIP3    H224872   3.925   0.559  11.522  0.9056 -2.9425  1.6032
 1153TIP3   OH224873   1.752   1.938  14.679 -0.8477  0.1745 -0.1297
 1153TIP3    H124874   1.837   1.907  14.649 -0.6379 -0.2936  0.9042
 1153TIP3    H224875   1.723   1.999  14.611  0.4152  0.5078 -0.3921
 1154TIP3   OH224876   1.126   0.294   9.648  0.1467 -0.2801  0.4548
 1154TIP3    H124877   1.044   0.343   9.641 -0.8387 -1.9188 -0.1212
 1154TIP3    H224878   1.195   0.361   9.640 -1.1193  0.9474 -0.8112
 1155TIP3   OH224879   3.888   3.095  14.304  0.5380  0.9309  0.3959
 1155TIP3    H124880   3.818   3.032  14.288  0.0803  1.8524 -1.6263
 1155TIP3    H224881   3.863   3.138  14.386 -1.2244  1.1052 -0.1746
 1156TIP3   OH224882   6.557   5.312  12.100  0.4150  0.2573  0.1903
 1156TIP3    H124883   6.564   5.255  12.023 -0.2136 -0.0419  0.3437
 1156TIP3    H224884   6.473   5.288  12.139 -0.6300  2.3817 -0.6067
 1157TIP3   OH224885   3.288   2.588  11.268 -0.6325 -0.7875 -0.3428
 1157TIP3    H124886   3.270   2.504  11.311 -0.9484 -0.2729  0.5344
 1157TIP3    H224887   3.339   2.564  11.190  1.8172 -1.5545  1.3951
 1158TIP3   OH224888   4.107   5.121   9.968  0.1118  0.2863  0.1098
 1158TIP3    H124889   4.135   5.046   9.917 -0.7966 -0.6234  0.8997
 1158TIP3    H224890   4.128   5.098  10.059  1.4999  1.7681  0.2154
 1159TIP3   OH224891   6.856   3.737  11.881  0.1834 -0.1972 -0.3053
 1159TIP3    H124892   6.809   3.655  11.893  1.7405 -0.8447  1.9657
 1159TIP3    H224893   6.937   3.711  11.836 -0.2747  0.4847 -1.6001
 1160TIP3   OH224894   3.138   3.952  11.989 -0.1391 -0.1251 -0.5923
 1160TIP3    H124895   3.229   3.977  12.006  0.0522 -1.0988 -0.1321
 1160TIP3    H224896   3.109   4.012  11.920  0.9241  0.0377 -0.9112
 1161TIP3   OH224897   1.300   5.671  14.765  0.3307 -0.0829  0.0060
 1161TIP3    H124898   1.350   5.590  14.774 -0.5706 -0.4384  2.5751
 1161TIP3    H224899   1.311   5.715  14.850  0.1377  2.1121 -1.0403
 1162TIP3   OH224900   6.614   3.353   0.077  0.1128  0.5356  0.0927
 1162TIP3    H124901   6.704   3.385   0.080 -0.5924  2.6240  0.6087
 1162TIP3    H224902   6.600   3.312   0.162  1.6608 -3.2396 -1.2891
 1163TIP3   OH224903   5.419   3.317  11.555 -0.5642 -0.1819 -0.5006
 1163TIP3    H124904   5.458   3.231  11.572  1.0485  0.3205 -1.5130
 1163TIP3    H224905   5.325   3.299  11.546 -0.3587 -1.6999  0.1394
 1164TIP3   OH224906   3.388   4.077  11.980 -0.1621 -0.2117  0.3168
 1164TIP3    H124907   3.406   4.070  12.074  3.2042  0.9066 -0.1164
 1164TIP3    H224908   3.458   4.026  11.939 -1.8803 -1.1302 -1.6381
 1165TIP3   OH224909   0.816   2.385  14.002 -0.0419 -0.3624  0.0873
 1165TIP3    H124910   0.851   2.433  14.077  0.9644 -1.1059  0.1041
 1165TIP3    H224911   0.738   2.341  14.036 -0.6414  0.7563  0.2194
 1166TIP3   OH224912   2.814   3.354  12.380 -0.2598  0.2048 -0.4118
 1166TIP3    H124913   2.744   3.314  12.328 -1.4071  1.6849 -0.0733
 1166TIP3    H224914   2.875   3.282  12.397 -0.8436 -0.7587 -2.1236
 1167TIP3   OH224915   5.910   1.816  10.586 -0.0326 -0.1236  0.5371
 1167TIP3    H124916   5.867   1.894  10.552 -0.5133 -0.6696 -0.1371
 1167TIP3    H224917   5.978   1.795  10.522  0.4240  0.0167  0.9642
 1168TIP3   OH224918   0.057   3.202   9.892  0.1685 -0.5877  0.2754
 1168TIP3    H124919   0.120   3.146   9.847 -0.2154 -0.5882 -0.2682
 1168TIP3    H224920   0.110   3.250   9.957  0.7662 -0.4340 -0.3151
 1169TIP3   OH224921   0.083   5.066  11.651  0.0064  0.0613 -0.4452
 1169TIP3    H124922   0.123   5.153  11.657  0.5183  0.0119 -2.3322
 1169TIP3    H224923  -0.006   5.082  11.620  0.4528 -0.0923 -1.9110
 1170TIP3   OH224924   0.210   0.049  11.827 -0.1940 -0.2743  0.2730
 1170TIP3    H124925   0.187   0.053  11.920  0.1501  0.7975  0.3175
 1170TIP3    H224926   0.126   0.055  11.782 -0.2437  0.8155  0.4904
 1171TIP3   OH224927   0.609   0.209   2.887 -0.2100 -0.9130  0.4751
 1171TIP3    H124928   0.634   0.274   2.820 -0.9049  0.2842  1.3382
 1171TIP3    H224929   0.676   0.217   2.954  0.0789 -1.5920  0.2724
 1172TIP3   OH224930   2.832   5.370  15.074  0.1956 -0.0114  0.3412
 1172TIP3    H124931   2.901   5.369  15.008 -0.8537 -2.0526 -0.7928
 1172TIP3    H224932   2.764   5.426  15.037  0.7150  1.0529  0.9449
 1173TIP3   OH224933   5.142   6.693  10.796  0.3825  0.2795  0.8508
 1173TIP3    H124934   5.126   6.673  10.703  1.2741 -1.9729  1.1062
 1173TIP3    H224935   5.237   6.688  10.805  0.2523 -0.3068  2.0217
 1174TIP3   OH224936   6.616   4.003  13.374  0.0952 -0.7077  0.2824
 1174TIP3    H124937   6.592   3.926  13.322 -0.9935 -0.8074  0.9243
 1174TIP3    H224938   6.702   3.980  13.411  0.5419 -0.9334 -0.8533
 1175TIP3   OH224939   5.868   2.817   5.680  0.1362 -0.7899  0.0723
 1175TIP3    H124940   5.777   2.806   5.654 -0.2024 -1.2675  1.3784
 1175TIP3    H224941   5.871   2.785   5.770  1.7562 -1.4737 -0.2039
 1176TIP3   OH224942   5.286   6.034  14.110 -0.1155  0.4300 -0.0781
 1176TIP3    H124943   5.292   6.001  14.020  1.1313  2.1289 -0.6672
 1176TIP3    H224944   5.293   5.956  14.164  1.7443 -0.4055 -1.4164
 1177TIP3   OH224945   6.841   3.834  11.328 -0.4560 -0.3163  0.5282
 1177TIP3    H124946   6.778   3.899  11.358  1.2694  1.8585 -0.2464
 1177TIP3    H224947   6.854   3.854  11.235  1.5102 -0.4980  0.7072
 1178TIP3   OH224948   0.552   2.941   0.358  0.8279 -0.4782 -0.9985
 1178TIP3    H124949   0.505   2.980   0.432 -1.4647 -1.2911 -1.9281
 1178TIP3    H224950   0.606   3.012   0.324  0.8162  0.3205  0.5568
 1179TIP3   OH224951   1.126   3.193  12.780  0.0416  0.1652 -0.0698
 1179TIP3    H124952   1.046   3.246  12.775 -1.2869 -1.6707  0.5896
 1179TIP3    H224953   1.102   3.110  12.739  1.2956 -0.7990  1.0726
 1180TIP3   OH224954   2.452   1.675  14.146 -0.0637  0.3601  0.2961
 1180TIP3    H124955   2.530   1.678  14.091 -0.1929  0.7356  0.1339
 1180TIP3    H224956   2.486   1.671  14.236  0.1383  1.4886  0.2728
 1181TIP3   OH224957   3.664   2.293  11.567  0.2195  0.6684  0.1618
 1181TIP3    H124958   3.576   2.269  11.537  0.3615 -0.6760  0.7709
 1181TIP3    H224959   3.650   2.337  11.651  0.0763  1.2396 -0.1565
 1182TIP3   OH224960   2.719   0.262  10.990  0.0104 -0.2733 -0.0019
 1182TIP3    H124961   2.753   0.295  11.073 -0.2383  1.2025 -0.4717
 1182TIP3    H224962   2.638   0.309  10.976  0.2929 -0.1449 -1.3242
 1183TIP3   OH224963   5.825   5.558  10.731 -0.2932  0.2002 -0.2342
 1183TIP3    H124964   5.849   5.502  10.805 -0.3563  1.9755  1.2090
 1183TIP3    H224965   5.730   5.565  10.735 -0.1689  1.9879  0.8968
 1184TIP3   OH224966   5.446   5.530  12.282 -0.3781  0.0329 -0.2419
 1184TIP3    H124967   5.438   5.597  12.213 -3.5989  0.5120  0.4506
 1184TIP3    H224968   5.425   5.448  12.238 -0.4111  0.0534 -0.2641
 1185TIP3   OH224969   5.881   0.786  11.583  0.8619  0.0956  0.0341
 1185TIP3    H124970   5.810   0.727  11.605 -1.3008  2.1148 -1.0406
 1185TIP3    H224971   5.881   0.852  11.652  0.2010  1.2937 -1.0554
 1186TIP3   OH224972   2.700   5.573  13.315  0.1177 -0.4872  0.1825
 1186TIP3    H124973   2.741   5.602  13.234  0.8555  0.5155  0.8955
 1186TIP3    H224974   2.771   5.565  13.378 -0.4151 -1.4523  0.6982
 1187TIP3   OH224975   3.734   5.756  11.114  0.4335  0.0533  0.7193
 1187TIP3    H124976   3.708   5.807  11.037 -1.2165  1.6245  2.2228
 1187TIP3    H224977   3.700   5.668  11.097 -1.3530  0.7864  0.3280
 1188TIP3   OH224978   6.706   4.182   9.820 -0.1446 -0.2819 -0.3205
 1188TIP3    H124979   6.709   4.231   9.737 -1.5421 -1.1040 -0.8902
 1188TIP3    H224980   6.676   4.246   9.884  0.9422  0.3628 -0.4220
 1189TIP3   OH224981   1.489   5.126   4.145  0.1706  0.3606  0.4134
 1189TIP3    H124982   1.533   5.203   4.181  1.3449  0.5716 -1.3362
 1189TIP3    H224983   1.511   5.127   4.052 -1.7979 -0.7573 -0.1363
 1190TIP3   OH224984   6.414   2.327  13.682  0.3234  0.3514  0.1082
 1190TIP3    H124985   6.436   2.300  13.593 -0.1364 -1.6332  0.5488
 1190TIP3    H224986   6.323   2.353  13.677  0.4371  0.7144 -0.0962
 1191TIP3   OH224987   2.415   2.428   1.706 -0.1344  0.4246 -0.7745
 1191TIP3    H124988   2.479   2.401   1.640 -0.1207  0.1379 -0.6474
 1191TIP3    H224989   2.377   2.509   1.671 -2.1972 -1.1919 -2.5410
 1192TIP3   OH224990   0.715   6.882  13.244  0.2703  0.5622  0.0093
 1192TIP3    H124991   0.629   6.921  13.258  0.2361  0.9445 -1.1623
 1192TIP3    H224992   0.764   6.901  13.324 -0.9609 -0.3273  1.0096
 1193TIP3   OH224993   1.068   6.641  12.849 -0.2661  0.3332  0.1461
 1193TIP3    H124994   1.042   6.715  12.904 -0.9854 -0.2612  0.6205
 1193TIP3    H224995   1.163   6.634  12.862 -0.2778  0.8163  0.5407
 1194TIP3   OH224996   6.923   1.961   2.365 -0.3717 -0.2706  0.4861
 1194TIP3    H124997   6.853   2.021   2.392 -0.8439  0.4842 -2.0915
 1194TIP3    H224998   6.877   1.882   2.336 -0.4898  0.9437 -3.0914
 1195TIP3   OH224999   2.138   5.675  14.407  0.4947 -0.6619 -0.1357
 1195TIP3    H125000   2.133   5.669  14.502  0.3836 -1.4877 -0.1830
 1195TIP3    H225001   2.194   5.750  14.390  0.2815 -0.3378  0.5761
 1196TIP3   OH225002   1.479   2.887  15.633  0.7262  0.0141 -0.6102
 1196TIP3    H125003   1.522   2.809  15.601  0.1847 -0.5822  0.0858
 1196TIP3    H225004   1.440   2.861  15.717 -0.2680  0.7493 -0.8190
 1197TIP3   OH225005   1.579   2.533  14.917 -0.1279 -0.0491  0.4102
 1197TIP3    H125006   1.620   2.568  14.996 -1.3086 -0.6875  1.3322
 1197TIP3    H225007   1.587   2.604  14.853  0.4487  0.6503  1.2339
 1198TIP3   OH225008   3.270   5.843  13.066 -0.4245  0.8384  0.3508
 1198TIP3    H125009   3.315   5.833  12.982 -0.4508 -0.4125  0.4642
 1198TIP3    H225010   3.285   5.934  13.090  1.8842  0.5426  0.2887
 1199TIP3   OH225011   4.835   1.472  14.034 -0.4394  0.2443 -0.3995
 1199TIP3    H125012   4.827   1.547  13.976  0.1437 -0.0324 -0.8451
 1199TIP3    H225013   4.826   1.396  13.977 -0.5695 -0.0292 -0.0214
 1200TIP3   OH225014   0.885   4.541  14.410  0.1537 -0.5002 -0.1178
 1200TIP3    H125015   0.866   4.449  14.431 -0.1594 -0.7231 -1.3220
 1200TIP3    H225016   0.954   4.565  14.471  0.9865 -1.8653 -0.4754
 1201TIP3   OH225017   5.628   6.841   2.898 -0.1555 -0.3011 -0.1002
 1201TIP3    H125018   5.681   6.876   2.826 -1.8285 -1.3002 -1.8918
 1201TIP3    H225019   5.678   6.766   2.930  0.1476 -0.4445 -0.8839
 1202TIP3   OH225020   3.959   5.090  14.268  0.2524  0.4973 -0.5500
 1202TIP3    H125021   3.957   4.995  14.255  1.1576  0.2146  1.0927
 1202TIP3    H225022   3.935   5.127  14.183 -1.5073 -1.1989 -0.8590
 1203TIP3   OH225023   0.795   6.071   9.236  0.2101  0.5703 -0.3791
 1203TIP3    H125024   0.833   6.072   9.324  0.9983 -0.7447 -0.6713
 1203TIP3    H225025   0.835   6.145   9.191  2.7619 -0.9123 -0.7611
 1204TIP3   OH225026   2.095   4.383  15.146 -0.3009 -0.3957 -0.3012
 1204TIP3    H125027   2.045   4.425  15.077  1.3217  0.5002 -0.9869
 1204TIP3    H225028   2.055   4.297  15.157  0.5470 -1.3584 -3.7175
 1205TIP3   OH225029   3.730   7.015   3.734  0.1651  0.2062  0.5480
 1205TIP3    H125030   3.672   7.089   3.717 -2.4585 -1.4979  1.4189
 1205TIP3    H225031   3.678   6.957   3.790  1.6714 -2.7989 -0.9538
 1206TIP3   OH225032   2.407   6.677  10.587  0.1460  0.4217  0.1573
 1206TIP3    H125033   2.495   6.640  10.577  0.1222  0.6392 -0.9395
 1206TIP3    H225034   2.410   6.759  10.539 -0.9442 -0.0529 -0.7737
 1207TIP3   OH225035   4.596   0.441  11.175  0.3381  0.0973  0.2905
 1207TIP3    H125036   4.569   0.532  11.180  0.3251  0.0704  0.7272
 1207TIP3    H225037   4.646   0.426  11.255 -1.9759 -1.0302  1.6495
 1208TIP3   OH225038   0.278   4.443   9.695  0.2785  0.0496 -0.1307
 1208TIP3    H125039   0.368   4.470   9.680  0.6822 -1.2769 -0.2497
 1208TIP3    H225040   0.244   4.420   9.609  0.8387 -2.3442  0.2156
 1209TIP3   OH225041   0.657   4.035   2.885  0.2202 -0.0372 -0.0453
 1209TIP3    H125042   0.667   4.112   2.942  2.3517 -0.2935  0.0025
 1209TIP3    H225043   0.563   4.016   2.887 -0.2272  1.9770  0.7023
 1210TIP3   OH225044   2.865   3.463  13.107  0.1816 -0.1049  0.5124
 1210TIP3    H125045   2.914   3.487  13.028 -1.1139 -0.5092 -0.4519
 1210TIP3    H225046   2.862   3.368  13.105 -1.1977 -0.0898  0.1497
 1211TIP3   OH225047   5.211   2.917  12.630  0.3279  0.3991 -0.0657
 1211TIP3    H125048   5.258   2.940  12.550  1.1946  0.5369  0.4684
 1211TIP3    H225049   5.185   3.002  12.667  0.1826  0.3487 -0.0532
 1212TIP3   OH225050   5.894   6.813   1.203  0.8828 -0.2861 -0.2761
 1212TIP3    H125051   5.803   6.829   1.177  1.3342  0.3962 -1.5821
 1212TIP3    H225052   5.908   6.872   1.277  0.4387  0.0544 -0.4552
 1213TIP3   OH225053   4.192   2.423   0.650  0.3635 -0.5806  0.3708
 1213TIP3    H125054   4.259   2.437   0.716 -0.1170  0.2419  0.6994
 1213TIP3    H225055   4.142   2.505   0.648  0.2955 -0.6217 -0.9298
 1214TIP3   OH225056   2.623   0.314  10.572  0.2496  0.4174 -0.7073
 1214TIP3    H125057   2.635   0.405  10.545 -0.0031  0.3581 -1.0274
 1214TIP3    H225058   2.530   0.307  10.592  0.5285  0.6250  0.8289
 1215TIP3   OH225059   6.513   3.333   2.418 -0.6719 -0.6316  0.7208
 1215TIP3    H125060   6.562   3.273   2.361 -0.6883  0.5039 -0.5476
 1215TIP3    H225061   6.555   3.418   2.404 -0.7167 -0.3054  2.4085
 1216TIP3   OH225062   3.072   5.372  12.106  0.2091 -0.1345  0.0855
 1216TIP3    H125063   3.027   5.456  12.111  2.8670  1.3035  2.2851
 1216TIP3    H225064   3.164   5.393  12.118  1.0444 -3.3240  0.1873
 1217TIP3   OH225065   6.245   6.298  12.655  0.1910  0.0934  0.1948
 1217TIP3    H125066   6.202   6.293  12.570  2.8863  0.5219 -1.2959
 1217TIP3    H225067   6.283   6.211  12.668 -2.6188 -0.9818  2.4878
 1218TIP3   OH225068   6.327   2.692   1.018 -0.5439 -0.6172 -0.6292
 1218TIP3    H125069   6.300   2.681   0.926 -2.6050 -2.0797  0.0678
 1218TIP3    H225070   6.279   2.769   1.048  0.3633  0.0407 -0.8373
 1219TIP3   OH225071   0.078   3.871   3.707  0.5919  0.2749 -0.5273
 1219TIP3    H125072   0.156   3.892   3.758  0.8423  0.0968 -0.8339
 1219TIP3    H225073   0.063   3.949   3.653  0.1524  0.5849  0.0205
 1220TIP3   OH225074   7.081   3.971  15.230 -0.4958  0.2719 -0.1641
 1220TIP3    H125075   7.005   3.939  15.181 -0.9049  1.2812 -0.2077
 1220TIP3    H225076   7.108   4.049  15.183 -0.4786  0.8761  0.8287
 1221TIP3   OH225077   2.116   5.355   2.071  0.0014 -0.5669  0.0142
 1221TIP3    H125078   2.041   5.305   2.039 -1.8495  1.6798  0.5578
 1221TIP3    H225079   2.092   5.381   2.160  1.6509 -0.1791  0.3862
 1222TIP3   OH225080   0.549   2.604   4.089  0.4799 -0.1870  0.2523
 1222TIP3    H125081   0.525   2.515   4.117  1.1654 -0.2942  0.5120
 1222TIP3    H225082   0.621   2.591   4.027  0.9761  0.2154  0.7391
 1223TIP3   OH225083   5.189   3.296   5.192  0.1009  0.0272 -0.1315
 1223TIP3    H125084   5.195   3.332   5.281 -0.9381  1.5469 -0.6261
 1223TIP3    H225085   5.235   3.213   5.196 -0.1130 -0.0317  1.8830
 1224TIP3   OH225086   5.671   2.139  15.491  0.9355  0.0603 -0.0220
 1224TIP3    H125087   5.632   2.156  15.405  0.2699 -0.8385  0.0817
 1224TIP3    H225088   5.597   2.112  15.546  1.5933 -1.0325  0.3656
 1225TIP3   OH225089   3.061   6.921  10.059 -0.2514 -0.3586 -0.4174
 1225TIP3    H125090   3.109   6.854  10.011 -0.0111 -1.2570  1.0043
 1225TIP3    H225091   2.969   6.893  10.053 -0.0956 -1.1467  0.6309
 1226TIP3   OH225092   5.491   1.082  15.103 -0.5487  0.1246 -0.3570
 1226TIP3    H125093   5.415   1.094  15.046  0.2796  1.0411 -1.3020
 1226TIP3    H225094   5.503   0.987  15.106 -1.6472 -0.0287 -0.2826
 1227TIP3   OH225095   4.374   6.014  10.952  0.4236 -0.0090  0.2888
 1227TIP3    H125096   4.336   6.000  11.039 -2.0210  0.7339 -0.5987
 1227TIP3    H225097   4.366   5.929  10.909  0.9756 -0.1835  0.5137
 1228TIP3   OH225098   6.858   4.464   0.589 -0.2019  0.3693  0.0628
 1228TIP3    H125099   6.812   4.394   0.543  1.4921 -0.8636  0.1472
 1228TIP3    H225100   6.848   4.443   0.682  1.0808 -0.3411  0.0713
 1229TIP3   OH225101   5.981   0.861   4.034 -0.6657  0.5055 -0.7361
 1229TIP3    H125102   5.991   0.806   3.956 -0.8270  1.0563 -1.1557
 1229TIP3    H225103   6.070   0.883   4.060 -0.6059  0.1943 -0.6695
 1230TIP3   OH225104   0.041   4.141  12.395  0.4142  0.2389  0.2501
 1230TIP3    H125105   0.136   4.149  12.406  0.6765  0.1674 -1.6754
 1230TIP3    H225106   0.015   4.080  12.464  1.5759  1.0911  1.5052
 1231TIP3   OH225107   0.526   4.389  13.244  0.3195  0.5752 -0.1608
 1231TIP3    H125108   0.512   4.442  13.166 -0.3867  0.4466 -0.1236
 1231TIP3    H225109   0.490   4.440  13.316  2.4209  1.4310  0.3501
 1232TIP3   OH225110   4.583   7.024   2.573 -0.3246 -0.9476  0.3120
 1232TIP3    H125111   4.580   7.049   2.665 -0.2104 -2.1596  0.6639
 1232TIP3    H225112   4.556   6.932   2.572 -0.8177 -0.8078 -0.9276
 1233TIP3   OH225113   6.952   6.743   9.587  0.1820  0.0814  0.4434
 1233TIP3    H125114   7.042   6.731   9.618  0.2954  0.3334  0.2262
 1233TIP3    H225115   6.915   6.655   9.585 -0.1929  0.1528  2.3325
 1234TIP3   OH225116   3.412   0.197  10.201  0.2486 -0.2184  0.0352
 1234TIP3    H125117   3.351   0.127  10.181 -0.3087  0.0657  0.6836
 1234TIP3    H225118   3.455   0.217  10.118  0.0756 -0.9987 -0.2505
 1235TIP3   OH225119   2.721   2.179  13.170  0.2551  0.2551 -0.6476
 1235TIP3    H125120   2.757   2.264  13.195 -0.9223  0.4147  0.6191
 1235TIP3    H225121   2.638   2.173  13.218  0.0381 -1.3562 -1.1693
 1236TIP3   OH225122   5.551   4.331   9.985 -0.6007 -0.0750 -0.6620
 1236TIP3    H125123   5.471   4.279   9.978  0.1353 -1.0543 -2.4359
 1236TIP3    H225124   5.528   4.415   9.945 -0.6789 -0.4660 -1.4721
 1237TIP3   OH225125   2.321   5.328  11.152  0.0584 -0.0445  0.3802
 1237TIP3    H125126   2.305   5.417  11.121  0.5790  0.0864  0.4844
 1237TIP3    H225127   2.278   5.273  11.086 -1.3210  0.3016  0.9516
 1238TIP3   OH225128   4.075   5.865  10.339  0.2358 -0.0311  0.4720
 1238TIP3    H125129   4.086   5.774  10.311 -0.5278 -0.4355  1.4583
 1238TIP3    H225130   4.087   5.915  10.258  4.2430 -0.6857  0.4189
 1239TIP3   OH225131   6.176   4.540  15.001 -0.5327 -0.4692  0.5810
 1239TIP3    H125132   6.250   4.599  14.992  0.3842 -1.5255  0.8917
 1239TIP3    H225133   6.118   4.562  14.928  1.5479 -1.6164 -1.5733
 1240TIP3   OH225134   6.146   2.902  11.649 -0.0885 -0.3821 -0.3744
 1240TIP3    H125135   6.066   2.955  11.642 -0.2569 -0.4821  0.6671
 1240TIP3    H225136   6.170   2.908  11.741  0.8479 -0.7439 -0.5943
 1241TIP3   OH225137   0.187   6.037  15.109 -0.0104  0.2334 -0.4178
 1241TIP3    H125138   0.245   6.053  15.035  0.9087 -1.1657 -0.0374
 1241TIP3    H225139   0.119   5.979  15.075  0.9100 -1.1438  0.0068
 1242TIP3   OH225140   6.311   6.542  11.253 -0.4606 -0.0262  0.5486
 1242TIP3    H125141   6.376   6.508  11.315  0.0439  1.1764  0.7117
 1242TIP3    H225142   6.315   6.482  11.179 -0.7623 -1.2438  1.4817
 1243TIP3   OH225143   5.656   3.655  12.936  0.1159  0.3466  0.6739
 1243TIP3    H125144   5.638   3.654  12.842 -0.0091 -1.9824  0.6433
 1243TIP3    H225145   5.601   3.725  12.971 -0.0940  1.0222 -0.9360
 1244TIP3   OH225146   2.793   0.324  12.910 -0.4085 -0.5353  0.7309
 1244TIP3    H125147   2.836   0.240  12.923  2.0924  0.5591  0.0026
 1244TIP3    H225148   2.762   0.321  12.819  1.2787 -0.0440  0.1054
 1245TIP3   OH225149   6.463   0.753   1.066 -0.0031  0.6828  0.2540
 1245TIP3    H125150   6.545   0.800   1.050  1.0136 -0.5917  1.4591
 1245TIP3    H225151   6.490   0.671   1.107 -1.7824 -0.5039 -0.8024
 1246TIP3   OH225152   6.090   0.501   0.535  0.1063 -0.1063  0.2382
 1246TIP3    H125153   6.071   0.408   0.546 -0.9793 -0.2642 -2.2045
 1246TIP3    H225154   6.064   0.542   0.617 -1.6102 -1.6686  0.5194
 1247TIP3   OH225155   1.459   4.655  12.506  0.7177  0.3046 -0.3042
 1247TIP3    H125156   1.375   4.611  12.500  0.6278  0.4974 -0.4803
 1247TIP3    H225157   1.507   4.627  12.429  0.4750  0.8921 -0.6794
 1248TIP3   OH225158   3.634   3.445  14.414  0.5247  0.4266 -0.7925
 1248TIP3    H125159   3.611   3.400  14.333  2.1334  1.7799 -2.0770
 1248TIP3    H225160   3.551   3.457  14.460 -0.1656 -2.2159 -1.2066
 1249TIP3   OH225161   1.365   0.038  10.600  0.4063  0.2352 -0.0019
 1249TIP3    H125162   1.299   0.103  10.576  1.1210  0.6286 -0.9425
 1249TIP3    H225163   1.413   0.078  10.673  1.0760  0.9281 -0.8114
 1250TIP3   OH225164   4.429   4.638   1.945 -0.6524  0.5739 -0.6795
 1250TIP3    H125165   4.372   4.686   1.885 -2.5230 -0.2622  0.3326
 1250TIP3    H225166   4.407   4.546   1.931  1.6296  0.0875 -1.3657
 1251TIP3   OH225167   4.641   5.306  12.824  0.1810  0.0466 -0.6224
 1251TIP3    H125168   4.697   5.267  12.755  1.7684  1.6006 -0.2959
 1251TIP3    H225169   4.607   5.386  12.784  1.3341  1.1055  0.4388
 1252TIP3   OH225170   5.012   6.809  11.002 -0.8788 -0.2833 -0.3392
 1252TIP3    H125171   5.059   6.737  10.960  0.6031 -1.1392  2.5433
 1252TIP3    H225172   5.056   6.888  10.971 -0.7961 -0.7376 -1.4548
 1253TIP3   OH225173   0.089   3.664  10.757  0.0521 -0.4654  0.1154
 1253TIP3    H125174  -0.006   3.654  10.765  0.1396 -0.5374  1.3248
 1253TIP3    H225175   0.123   3.575  10.771  0.3121 -0.3733  0.0755
 1254TIP3   OH225176   4.439   1.189  12.521  0.5077  0.0324  0.5525
 1254TIP3    H125177   4.534   1.190  12.524  0.5645 -2.1075  1.0522
 1254TIP3    H225178   4.417   1.106  12.479 -1.1470  1.0212 -0.6562
 1255TIP3   OH225179   5.168   3.665  14.446  0.2922 -0.0355 -0.0962
 1255TIP3    H125180   5.222   3.723  14.394  0.7019 -0.1992  0.1433
 1255TIP3    H225181   5.085   3.713  14.457 -0.6794 -0.9026 -2.7739
 1256TIP3   OH225182   2.997   2.005  11.336  0.3505 -0.4054 -0.0589
 1256TIP3    H125183   3.009   2.090  11.294 -0.2497  0.8027  2.0696
 1256TIP3    H225184   2.937   1.958  11.278  0.4974  0.6910 -1.1490
 1257TIP3   OH225185   1.307   5.549  12.845 -0.0221 -0.1435  0.1237
 1257TIP3    H125186   1.213   5.531  12.842 -0.3013  0.4847  2.7694
 1257TIP3    H225187   1.322   5.607  12.771 -1.9015  0.4169  0.1175
 1258TIP3   OH225188   4.582   0.858  13.202  0.1491 -0.2329 -0.0602
 1258TIP3    H125189   4.570   0.948  13.231  0.1599  0.0394 -0.8830
 1258TIP3    H225190   4.541   0.805  13.271 -0.5779  0.4284  0.0208
 1259TIP3   OH225191   3.945   6.066  10.740 -0.7643 -0.2305 -0.1955
 1259TIP3    H125192   4.016   6.015  10.700  0.6444  1.7456 -0.3461
 1259TIP3    H225193   3.877   6.068  10.673 -0.5873 -1.3400 -0.4313
 1260TIP3   OH225194   0.878   0.526   0.497  0.7318 -0.4318 -0.0372
 1260TIP3    H125195   0.909   0.568   0.417  1.5609 -0.8829  0.0361
 1260TIP3    H225196   0.782   0.527   0.489  0.7970 -0.2291 -0.9049
 1261TIP3   OH225197   6.794   3.202  11.888 -0.5180 -0.1203  0.1525
 1261TIP3    H125198   6.758   3.155  11.812 -1.4572  1.3357 -0.3322
 1261TIP3    H225199   6.718   3.226  11.941  0.0394 -0.1203  0.9729
 1262TIP3   OH225200   6.753   3.263  14.705 -0.1486 -0.3682  0.4966
 1262TIP3    H125201   6.801   3.312  14.771  1.7859 -1.7467  0.2110
 1262TIP3    H225202   6.748   3.174  14.740  2.8213 -1.6857 -1.9549
 1263TIP3   OH225203   4.250   4.658   0.640 -0.0108 -0.2329 -0.0206
 1263TIP3    H125204   4.294   4.594   0.696  2.5351  2.4877  1.3355
 1263TIP3    H225205   4.253   4.619   0.552 -0.1584 -2.6621  0.9637
 1264TIP3   OH225206   7.036   1.554  12.998 -0.2347  0.8654  0.2155
 1264TIP3    H125207   6.965   1.491  12.980  0.1153  0.2829  0.8149
 1264TIP3    H225208   7.116   1.507  12.976 -0.0248  1.5249 -0.4598
 1265TIP3   OH225209   0.187   0.825   0.531 -0.2017 -0.7234  0.1554
 1265TIP3    H125210   0.145   0.760   0.475  1.0960 -0.5087 -1.1108
 1265TIP3    H225211   0.184   0.906   0.480 -0.0137 -0.2491  0.8828
 1266TIP3   OH225212   2.334   3.519  13.791  0.2916  0.1607 -0.6037
 1266TIP3    H125213   2.349   3.609  13.763 -0.7147  0.3123 -0.7043
 1266TIP3    H225214   2.242   3.502  13.770 -0.2797 -0.0237  1.7121
 1267TIP3   OH225215   1.130   1.732  11.144 -0.2415  0.5410 -0.1661
 1267TIP3    H125216   1.210   1.700  11.101  0.3921  1.2471  0.4672
 1267TIP3    H225217   1.062   1.672  11.113  1.0077 -1.9234  1.5147
 1268TIP3   OH225218   1.824   6.562  11.403  0.0119 -0.0747  0.4886
 1268TIP3    H125219   1.838   6.619  11.327  1.7113 -0.0785  0.7496
 1268TIP3    H225220   1.909   6.559  11.446 -1.7358  3.6387  5.0877
 1269TIP3   OH225221   3.785   4.368   1.548  0.3215 -0.5707  0.1994
 1269TIP3    H125222   3.853   4.426   1.583 -0.5098 -0.3515  1.5501
 1269TIP3    H225223   3.801   4.366   1.454 -0.1459  2.6320 -0.0844
 1270TIP3   OH225224   5.706   4.458   3.661 -0.3805  0.0957  0.4342
 1270TIP3    H125225   5.685   4.365   3.655  0.3620 -0.2192  2.0547
 1270TIP3    H225226   5.621   4.501   3.668 -0.6958 -0.5877  0.9046
 1271TIP3   OH225227   0.212   6.008  12.930 -0.0819  0.0603  1.0485
 1271TIP3    H125228   0.130   5.968  12.902  0.9103 -0.6498 -1.1058
 1271TIP3    H225229   0.280   5.960  12.883  1.2450  3.9769 -1.6309
 1272TIP3   OH225230   0.720   2.069   4.513 -0.3000 -0.0373 -0.4618
 1272TIP3    H125231   0.807   2.080   4.550 -0.4042  1.0479 -0.4999
 1272TIP3    H225232   0.665   2.131   4.561 -1.0220 -0.5825 -0.5569
 1273TIP3   OH225233   6.963   2.458  12.424 -0.1344 -0.5984  0.3653
 1273TIP3    H125234   6.891   2.407  12.387  0.6994 -1.3422 -0.2944
 1273TIP3    H225235   6.925   2.504  12.499 -1.2452 -1.0891  0.1166
 1274TIP3   OH225236   6.707   0.698  15.237 -0.8238 -0.1124 -0.2983
 1274TIP3    H125237   6.693   0.604  15.229 -0.7041 -0.2075  0.5770
 1274TIP3    H225238   6.756   0.722  15.158 -0.2978 -0.9010 -0.2192
 1275TIP3   OH225239   5.603   3.063  14.631 -0.0135  0.3645  0.2696
 1275TIP3    H125240   5.662   3.057  14.556  2.6876 -1.1748  2.3199
 1275TIP3    H225241   5.526   3.012  14.606  0.7161  0.0778 -1.4962
 1276TIP3   OH225242   1.751   2.992  13.070  0.2950 -0.0459 -0.3241
 1276TIP3    H125243   1.659   2.964  13.069 -0.1533  1.3273  0.4740
 1276TIP3    H225244   1.762   3.039  12.987  1.3128 -3.1410 -2.1396
 1277TIP3   OH225245   3.187   3.737   3.479  0.3601 -0.1397  0.1056
 1277TIP3    H125246   3.102   3.728   3.522  0.7710 -1.8126  0.6345
 1277TIP3    H225247   3.215   3.827   3.499 -0.5285 -0.1158  1.3447
 1278TIP3   OH225248   1.352   5.733  11.600 -0.6865  0.3661  0.6024
 1278TIP3    H125249   1.321   5.669  11.665 -1.6489 -0.7961 -0.9369
 1278TIP3    H225250   1.296   5.720  11.524  0.4470  1.6424 -0.5151
 1279TIP3   OH225251   5.331   0.912  11.165  0.4299  0.3753  0.0609
 1279TIP3    H125252   5.418   0.896  11.129  0.5754 -0.8398  0.8971
 1279TIP3    H225253   5.295   0.825  11.184  0.1418  0.8930  2.2791
 1280TIP3   OH225254   0.479   0.787  11.415 -0.0943  0.0145 -0.2299
 1280TIP3    H125255   0.486   0.870  11.368 -0.0144  1.1366  1.6572
 1280TIP3    H225256   0.440   0.811  11.500  0.0318 -1.8656  0.3975
 1281TIP3   OH225257   6.690   2.656  14.569 -0.3578 -0.0022 -0.0872
 1281TIP3    H125258   6.632   2.658  14.492  0.9162  0.4779 -1.0853
 1281TIP3    H225259   6.778   2.667  14.532  0.3533 -0.4370  1.4013
 1282TIP3   OH225260   2.329   5.060   0.637 -0.4610 -0.0908 -0.1745
 1282TIP3    H125261   2.251   5.051   0.691 -1.2227  0.7398 -1.0928
 1282TIP3    H225262   2.295   5.084   0.550  0.7157 -1.3048 -1.0218
 1283TIP3   OH225263   3.192   3.262  13.666 -0.9872 -0.0137  0.2366
 1283TIP3    H125264   3.256   3.219  13.723  0.7790 -0.3486 -1.8225
 1283TIP3    H225265   3.109   3.256  13.713  0.0173 -1.8379  1.9363
 1284TIP3   OH225266   4.414   6.310  13.514 -0.5372 -0.1600 -0.1304
 1284TIP3    H125267   4.390   6.371  13.444  0.0476  0.2303  0.0071
 1284TIP3    H225268   4.381   6.351  13.594 -2.0071 -1.0275 -0.2465
 1285TIP3   OH225269   5.556   2.687   3.505  0.3833  0.4637 -0.8835
 1285TIP3    H125270   5.561   2.601   3.548 -0.9406  1.7498  2.1647
 1285TIP3    H225271   5.524   2.669   3.417 -0.9528 -2.0729  0.0327
 1286TIP3   OH225272   5.323   1.405  12.523 -0.0997  0.1754 -0.8734
 1286TIP3    H125273   5.394   1.470  12.517  0.4602 -0.3601 -0.1451
 1286TIP3    H225274   5.311   1.392  12.617  0.2972 -1.3145 -1.0056
 1287TIP3   OH225275   0.980   1.563   9.880 -0.6258 -0.5175 -0.4091
 1287TIP3    H125276   0.930   1.483   9.862 -3.3220  0.9410  0.0597
 1287TIP3    H225277   1.011   1.592   9.794 -0.4145 -1.5486 -0.6964
 1288TIP3   OH225278   2.165   4.960   0.349 -0.3654  0.4511  0.3257
 1288TIP3    H125279   2.219   4.883   0.329  0.2710  0.1282  2.9033
 1288TIP3    H225280   2.098   4.927   0.409  0.9896  2.1225  2.9477
 1289TIP3   OH225281   4.841   3.581  15.397  0.1627 -0.1040 -0.4638
 1289TIP3    H125282   4.768   3.581  15.459 -0.6205 -1.2697 -1.3425
 1289TIP3    H225283   4.917   3.554  15.449 -0.0956  0.7499  0.3792
 1290TIP3   OH225284   7.059   3.149  11.877  0.1392 -0.0723 -0.3989
 1290TIP3    H125285   6.972   3.187  11.884  0.9002  1.6022  0.4619
 1290TIP3    H225286   7.107   3.184  11.953  1.2934 -1.7006 -0.3235
 1291TIP3   OH225287   4.563   2.625   0.481  0.2036 -0.5159  0.0878
 1291TIP3    H125288   4.586   2.540   0.518  1.5938  0.0598  0.6018
 1291TIP3    H225289   4.541   2.606   0.389  0.1802 -1.4640  0.2818
 1292TIP3   OH225290   3.032   1.275   2.632 -0.4822 -0.2023 -0.5707
 1292TIP3    H125291   3.105   1.226   2.668 -1.4370 -2.0853 -1.0753
 1292TIP3    H225292   3.069   1.323   2.557  0.5223  0.1060  0.1034
 1293TIP3   OH225293   3.733   4.279  11.959  0.0260  0.5845 -0.1568
 1293TIP3    H125294   3.710   4.211  11.896  0.5341  0.6779 -0.4457
 1293TIP3    H225295   3.806   4.326  11.919 -0.8904  1.8831 -0.3569
 1294TIP3   OH225296   1.686   3.774   1.010  0.5997  0.2944 -0.1178
 1294TIP3    H125297   1.665   3.749   1.100  1.8119 -0.3827 -0.0007
 1294TIP3    H225298   1.662   3.698   0.957 -0.1465  0.7062 -0.3843
 1295TIP3   OH225299   3.829   0.300   4.506  0.1794  0.0425  0.0875
 1295TIP3    H125300   3.899   0.265   4.451  0.1589  0.7496 -0.3966
 1295TIP3    H225301   3.862   0.384   4.537  0.6333 -0.8032  2.0534
 1296TIP3   OH225302   2.267   5.360  13.807  0.3239  0.0810  0.1600
 1296TIP3    H125303   2.210   5.436  13.806 -0.2212 -0.2946  0.9729
 1296TIP3    H225304   2.337   5.383  13.869  0.6791  0.2767 -0.3102
 1297TIP3   OH225305   5.880   1.196  10.210 -0.0472  0.1356  0.2265
 1297TIP3    H125306   5.848   1.184  10.299  0.8420  1.7269  0.7937
 1297TIP3    H225307   5.832   1.132  10.158 -2.3802  0.8086  1.4331
 1298TIP3   OH225308   3.356   7.073   0.673  0.2995  0.6681  0.1192
 1298TIP3    H125309   3.320   7.129   0.742 -1.1984  3.6000 -2.7142
 1298TIP3    H225310   3.279   7.029   0.636  1.0877 -0.9719  0.3722
 1299TIP3   OH225311   1.779   3.358  10.007 -0.3156  0.0099  0.4761
 1299TIP3    H125312   1.765   3.417   9.933  0.4523 -1.3208 -0.7662
 1299TIP3    H225313   1.872   3.368  10.029  0.7217 -3.0175 -1.8870
 1300TIP3   OH225314   1.502   0.581   0.158 -0.9024 -0.1153 -0.0518
 1300TIP3    H125315   1.593   0.597   0.183 -0.7715  0.2343 -0.7200
 1300TIP3    H225316   1.502   0.492   0.123  0.0261  1.0958 -3.5970
 1301TIP3   OH225317   3.618   1.467   0.959  0.0858 -0.2422 -0.3137
 1301TIP3    H125318   3.680   1.397   0.980  0.4111  0.2717  0.4848
 1301TIP3    H225319   3.672   1.544   0.942 -0.2780 -0.1472 -1.0806
 1302TIP3   OH225320   0.193   3.090  10.766  0.2880  0.0730  0.6971
 1302TIP3    H125321   0.164   3.081  10.857  1.3331 -0.9484  0.9634
 1302TIP3    H225322   0.269   3.031  10.760 -0.6751 -1.0717 -1.2476
 1303TIP3   OH225323   1.958   4.779  11.243  0.6851  0.0594 -0.4188
 1303TIP3    H125324   1.933   4.870  11.259 -0.4232 -0.0672 -1.3518
 1303TIP3    H225325   1.876   4.730  11.245  1.3795 -1.1088  1.1551
 1304TIP3   OH225326   4.038   4.210   5.123  0.2113  0.3720  0.2701
 1304TIP3    H125327   4.025   4.212   5.218 -1.0779 -3.8011  0.3505
 1304TIP3    H225328   3.953   4.183   5.087  1.5671 -1.6205 -1.6936
 1305TIP3   OH225329   0.793   6.050  11.179  0.3621  0.7878  0.3962
 1305TIP3    H125330   0.832   6.056  11.267 -0.5705  1.0580  0.8054
 1305TIP3    H225331   0.853   5.994  11.130  1.6613  1.7785  0.7812
 1306TIP3   OH225332   2.386   6.549  12.263  0.3495 -0.1362  0.7731
 1306TIP3    H125333   2.334   6.470  12.276 -0.1329  0.0172 -0.1458
 1306TIP3    H225334   2.413   6.575  12.351  2.1224 -2.3732  0.9733
 1307TIP3   OH225335   3.976   2.742  10.847 -0.1987  0.2250 -1.1145
 1307TIP3    H125336   3.956   2.726  10.755 -1.1060 -2.0341 -0.5782
 1307TIP3    H225337   3.896   2.717  10.893  1.5078 -2.5669  0.5864
 1308TIP3   OH225338   0.384   3.726  11.706  0.8175  0.2802  0.5228
 1308TIP3    H125339   0.319   3.786  11.669  0.9766  0.0298 -0.1876
 1308TIP3    H225340   0.468   3.767  11.685  0.9379 -0.3772 -0.3140
 1309TIP3   OH225341   3.088   1.685  13.281 -0.0650  0.2624 -0.6730
 1309TIP3    H125342   3.030   1.761  13.289 -0.3953  0.0949 -1.3709
 1309TIP3    H225343   3.171   1.722  13.251  1.9530  1.2316  4.9513
 1310TIP3   OH225344   1.010   4.603   1.669  0.1633 -0.2540  0.3215
 1310TIP3    H125345   0.920   4.612   1.636  1.0202  1.7708 -1.7315
 1310TIP3    H225346   1.014   4.666   1.742  0.0988  0.1595 -0.0280
 1311TIP3   OH225347   1.029   6.770   9.124  0.3819 -0.2058  0.3291
 1311TIP3    H125348   1.056   6.716   9.049 -0.5299 -2.4415  1.4885
 1311TIP3    H225349   0.956   6.721   9.162 -2.2903  3.1750  0.0322
 1312TIP3   OH225350   6.326   3.926  13.107  0.1622  0.6125  0.0899
 1312TIP3    H125351   6.378   3.902  13.184  0.6499  1.6769  0.1053
 1312TIP3    H225352   6.365   3.877  13.035 -0.9547 -1.2244  0.6623
 1313TIP3   OH225353   6.299   0.025  10.757 -0.1934 -0.0469  0.2931
 1313TIP3    H125354   6.362   0.085  10.717  0.8327  0.6086  2.6905
 1313TIP3    H225355   6.348  -0.056  10.771 -0.9865 -0.7990 -1.0921
 1314TIP3   OH225356   2.799   6.067   0.210 -0.0581 -0.7517  0.2817
 1314TIP3    H125357   2.841   5.981   0.207  3.1310  0.6933 -1.1159
 1314TIP3    H225358   2.799   6.091   0.303  1.4484 -1.2158  0.4250
 1315TIP3   OH225359   1.170   1.126  10.593  0.0696 -0.1526 -0.0486
 1315TIP3    H125360   1.134   1.194  10.535  0.2909 -0.0601 -0.0835
 1315TIP3    H225361   1.102   1.112  10.659 -0.2442 -0.3629 -0.4150
 1316TIP3   OH225362   3.892   1.981  10.025 -0.6910 -0.1242  0.0580
 1316TIP3    H125363   3.877   2.075  10.022 -1.2340 -0.1715  0.8535
 1316TIP3    H225364   3.986   1.972  10.044 -0.2666  0.2141 -1.7168
 1317TIP3   OH225365   0.851   3.885  15.230 -0.1432 -0.0618  0.1039
 1317TIP3    H125366   0.871   3.965  15.278  0.4124  0.9048 -1.6313
 1317TIP3    H225367   0.865   3.908  15.138 -2.0793 -1.5150 -0.6338
 1318TIP3   OH225368   4.421   5.432  10.657 -0.4279  0.1972  0.3125
 1318TIP3    H125369   4.479   5.427  10.733  0.2779  1.7070 -0.0955
 1318TIP3    H225370   4.351   5.369  10.677  0.7036 -0.7925  1.3461
 1319TIP3   OH225371   1.399   2.959  10.738  0.3521  0.3866 -0.0294
 1319TIP3    H125372   1.464   2.965  10.668 -2.3513 -0.4695 -2.8429
 1319TIP3    H225373   1.348   2.880  10.716 -1.5087  0.9104  2.1148
 1320TIP3   OH225374   3.519   1.705   2.069  0.1981 -0.8803 -0.6486
 1320TIP3    H125375   3.550   1.710   2.160 -1.4565  0.7915 -0.1284
 1320TIP3    H225376   3.595   1.731   2.017  0.6766 -0.1555  0.3704
 1321TIP3   OH225377   4.582   2.813   9.901 -0.4373  0.3167  0.1994
 1321TIP3    H125378   4.568   2.899   9.861 -0.6711  0.1257 -0.1385
 1321TIP3    H225379   4.498   2.768   9.892 -0.3334  0.0735  0.4277
 1322TIP3   OH225380   4.701   2.715  13.134  0.6388 -0.1470 -0.5482
 1322TIP3    H125381   4.651   2.656  13.190  0.8616  0.3723  0.2199
 1322TIP3    H225382   4.663   2.801  13.150  2.0460  0.3378  0.4004
 1323TIP3   OH225383   2.932   2.264  12.469 -0.3550  0.5772 -0.4000
 1323TIP3    H125384   2.937   2.255  12.374  1.7413 -1.2605 -0.1953
 1323TIP3    H225385   2.907   2.177  12.500  1.0333  0.5798  0.8232
 1324TIP3   OH225386   0.970   0.260  13.725  0.5415  0.2292  0.0056
 1324TIP3    H125387   0.923   0.313  13.790 -1.6775 -0.5424 -0.8871
 1324TIP3    H225388   1.033   0.210  13.777 -1.2973 -0.5030  1.6571
 1325TIP3   OH225389   1.102   0.647   9.700  0.2979 -0.6978  0.2374
 1325TIP3    H125390   1.067   0.661   9.788 -1.2020 -0.7426 -0.3234
 1325TIP3    H225391   1.053   0.573   9.666  0.1791 -0.0817 -0.9954
 1326TIP3   OH225392   4.498   0.591  13.056  0.0490 -1.0218 -0.1451
 1326TIP3    H125393   4.579   0.583  13.105 -0.9054 -2.4567  1.2937
 1326TIP3    H225394   4.493   0.683  13.032  1.8154 -0.8052  0.1989
 1327TIP3   OH225395   6.346   4.153  14.753  0.2824 -0.1739 -0.5779
 1327TIP3    H125396   6.299   4.204  14.819  1.5053  0.1499  0.0891
 1327TIP3    H225397   6.305   4.067  14.754 -0.7987  0.3241 -0.6008
 1328TIP3   OH225398   5.611   2.506  10.807 -0.1522  0.4620 -0.1419
 1328TIP3    H125399   5.689   2.471  10.850 -0.6106  1.7144  1.8419
 1328TIP3    H225400   5.632   2.504  10.713  3.1270  2.6058  0.3908
 1329TIP3   OH225401   1.671   0.190  14.758  0.0923 -0.2436  0.0492
 1329TIP3    H125402   1.626   0.257  14.707 -1.3871  0.3470  2.0132
 1329TIP3    H225403   1.754   0.178  14.713  0.8491  3.5691  0.0773
 1330TIP3   OH225404   1.254   5.082  13.869  0.5312  1.0781  0.0093
 1330TIP3    H125405   1.350   5.075  13.869  0.4964  0.1119 -1.4220
 1330TIP3    H225406   1.235   5.149  13.803  0.2048  0.0749 -0.9526
 1331TIP3   OH225407   1.597   5.326  11.815 -0.0967 -0.1102  0.3982
 1331TIP3    H125408   1.617   5.249  11.762 -0.6354  0.0734 -0.0866
 1331TIP3    H225409   1.644   5.312  11.897  0.7841 -0.3807 -0.1456
 1332TIP3   OH225410   4.163   6.335  12.180 -0.1938  0.5276  0.4726
 1332TIP3    H125411   4.211   6.327  12.262  2.6465 -0.1105 -1.1409
 1332TIP3    H225412   4.143   6.429  12.173  1.5056  0.9561  0.9014
 1333TIP3   OH225413   5.956   5.663   9.870 -0.5489  0.1402 -0.8023
 1333TIP3    H125414   5.947   5.568   9.883 -2.1187  0.1997 -1.2103
 1333TIP3    H225415   5.870   5.691   9.838  0.4577  1.4084 -2.5763
 1334TIP3   OH225416   2.474   2.122  15.138  0.2629  0.5401 -0.0615
 1334TIP3    H125417   2.386   2.151  15.160  0.0559 -0.8500  1.1610
 1334TIP3    H225418   2.474   2.028  15.159  1.3901  0.0113 -2.0954
 1335TIP3   OH225419   5.091   6.595  12.789 -0.5385  0.6232  0.4020
 1335TIP3    H125420   5.170   6.570  12.837 -1.8281 -0.8162  1.9230
 1335TIP3    H225421   5.072   6.684  12.817  0.3277  0.8305  0.3378
 1336TIP3   OH225422   5.050   1.979  15.135  0.4515  0.4570 -0.9050
 1336TIP3    H125423   5.140   1.951  15.116 -0.0927 -0.2455 -2.6141
 1336TIP3    H225424   5.060   2.046  15.203  2.1093 -1.0256  0.4283
 1337TIP3   OH225425   3.369   0.483  11.164 -0.3273  0.3262  0.1231
 1337TIP3    H125426   3.413   0.506  11.082  0.8364 -1.6788  0.1355
 1337TIP3    H225427   3.425   0.520  11.232 -1.9006  3.0422  0.1138
 1338TIP3   OH225428   0.797   4.958  10.961 -0.1512 -0.0187  0.1717
 1338TIP3    H125429   0.744   4.913  11.026  0.2157 -1.4491 -0.4657
 1338TIP3    H225430   0.751   4.945  10.878 -0.9666  2.3479  0.1758
 1339TIP3   OH225431   3.828   2.163  12.806  0.2905  0.2312  0.5517
 1339TIP3    H125432   3.825   2.191  12.898  0.2492  0.0641  0.6010
 1339TIP3    H225433   3.736   2.161  12.779  0.3190  0.5953  0.4103
 1340TIP3   OH225434   0.812   5.233  11.912  0.1215  0.3125 -0.2192
 1340TIP3    H125435   0.814   5.161  11.974 -0.4392 -0.5996 -1.2217
 1340TIP3    H225436   0.886   5.289  11.937 -1.6090  1.4536  2.9454
 1341TIP3   OH225437   7.079   4.421  11.572 -0.6834  0.0493  0.3504
 1341TIP3    H125438   7.083   4.513  11.545  0.9907 -0.7231 -2.3530
 1341TIP3    H225439   7.162   4.405  11.616 -1.5537  0.1300  2.0981
 1342TIP3   OH225440   1.486   4.831   2.285  0.3011  0.1503  0.0780
 1342TIP3    H125441   1.497   4.885   2.363 -1.5803  0.2620  0.3099
 1342TIP3    H225442   1.477   4.893   2.213  1.2884  0.0610 -0.1326
 1343TIP3   OH225443   3.665   0.961  11.162  0.3307 -0.4163 -0.0446
 1343TIP3    H125444   3.639   1.053  11.149 -1.1323 -0.9288 -1.1313
 1343TIP3    H225445   3.664   0.924  11.074 -0.0219 -1.6976  0.4778
 1344TIP3   OH225446   6.315   6.768  10.654 -0.0626  0.6596  0.6631
 1344TIP3    H125447   6.387   6.830  10.670  1.1796 -0.2077 -1.2105
 1344TIP3    H225448   6.254   6.817  10.597 -0.8058  1.2649  1.9425
 1345TIP3   OH225449   6.600   4.835  14.490 -0.2761 -0.0509 -0.0388
 1345TIP3    H125450   6.522   4.836  14.434 -0.1559 -0.8790 -0.2251
 1345TIP3    H225451   6.673   4.842  14.429 -0.1762  0.0146  0.0883
 1346TIP3   OH225452   4.500   5.591  15.151  0.2391 -0.5498 -0.0071
 1346TIP3    H125453   4.425   5.606  15.209  0.4946  1.8541 -0.1962
 1346TIP3    H225454   4.543   5.513  15.187 -0.3225  0.1185  2.2732
 1347TIP3   OH225455   2.136   1.110  12.510 -0.3642 -0.1941  0.4427
 1347TIP3    H125456   2.164   1.045  12.445 -2.6795 -0.0070 -0.8424
 1347TIP3    H225457   2.180   1.191  12.483  1.0189 -0.7476  0.9223
 1348TIP3   OH225458   3.259   0.531  15.656 -0.0206 -0.0394  0.4890
 1348TIP3    H125459   3.199   0.492  15.720  1.1131 -1.8025  0.5201
 1348TIP3    H225460   3.344   0.530  15.700  0.3697  0.7979 -0.2330
 1349TIP3   OH225461   5.615   4.751  14.296 -0.3216 -0.5469  0.5898
 1349TIP3    H125462   5.658   4.671  14.326 -1.4920 -1.5884 -0.4196
 1349TIP3    H225463   5.611   4.743  14.201 -0.0659  0.9303  0.4263
 1350TIP3   OH225464   2.831   5.529  11.830  0.1160 -0.9901  1.0064
 1350TIP3    H125465   2.851   5.446  11.786  0.4106 -0.7371  0.6539
 1350TIP3    H225466   2.917   5.563  11.855 -0.0693 -1.3354  2.1730
 1351TIP3   OH225467   5.284   7.101   0.464  0.4833 -0.1648  0.2131
 1351TIP3    H125468   5.266   7.138   0.378  0.4450 -2.1212 -0.6960
 1351TIP3    H225469   5.199   7.074   0.498  0.3667  1.4890  1.3663
 1352TIP3   OH225470   5.013   6.173   3.330 -0.0445  0.1101  0.1001
 1352TIP3    H125471   5.041   6.099   3.275  0.6795 -0.3057  1.0027
 1352TIP3    H225472   5.063   6.247   3.297  1.4596 -0.4293  1.0709
 1353TIP3   OH225473   5.885   5.696  13.352 -0.6505  0.0139 -0.4165
 1353TIP3    H125474   5.836   5.754  13.293  0.3214  1.3517  0.0414
 1353TIP3    H225475   5.896   5.747  13.432  2.5262  0.2893 -0.9106
 1354TIP3   OH225476   2.776   0.993  14.280 -0.1974 -0.3505  1.1096
 1354TIP3    H125477   2.723   1.035  14.348 -1.4329 -1.0354  0.6144
 1354TIP3    H225478   2.715   0.931  14.238  0.3374  0.4943 -1.0191
 1355TIP3   OH225479   1.411   5.048  12.963 -0.2418 -0.1082  0.5825
 1355TIP3    H125480   1.402   5.051  13.058 -1.4753 -1.7194  0.5534
 1355TIP3    H225481   1.457   4.966  12.946  1.5271  0.9728 -0.1673
 1356TIP3   OH225482   1.015   1.147   9.957 -0.4378 -0.1880 -0.0911
 1356TIP3    H125483   1.038   1.219  10.015  0.9386  0.3128 -1.2131
 1356TIP3    H225484   1.041   1.177   9.870  0.5846 -2.2004 -0.5272
 1357TIP3   OH225485   3.642   0.510  15.014 -0.1070  0.2571 -0.5213
 1357TIP3    H125486   3.597   0.488  15.095  0.7929 -0.0686 -0.0988
 1357TIP3    H225487   3.696   0.586  15.036  1.3397 -0.7810 -0.3715
 1358TIP3   OH225488   5.303   4.485  10.729 -0.0001 -0.3914  0.8068
 1358TIP3    H125489   5.306   4.393  10.758 -1.9012 -1.2143 -1.2815
 1358TIP3    H225490   5.239   4.526  10.788 -3.6462 -1.9850 -1.6521
 1359TIP3   OH225491   6.900   2.538   0.245 -0.4286  0.0962 -0.5613
 1359TIP3    H125492   6.934   2.480   0.176 -1.2197  0.4568 -1.2622
 1359TIP3    H225493   6.890   2.480   0.321 -1.3990 -0.7586 -1.3047
 1360TIP3   OH225494   1.235   0.380  13.542  0.3112 -0.2264 -0.3857
 1360TIP3    H125495   1.290   0.410  13.614  0.7934 -1.4551 -0.2095
 1360TIP3    H225496   1.167   0.447  13.534 -0.6353 -0.7632  2.1865
 1361TIP3   OH225497   0.450   1.694   2.716  0.0973 -0.1391 -0.2134
 1361TIP3    H125498   0.395   1.664   2.643  0.8938  0.2332 -0.9867
 1361TIP3    H225499   0.532   1.719   2.675  0.8254 -0.5956  0.9098
 1362TIP3   OH225500   2.409   0.076   1.651  0.1932 -0.1791  0.0854
 1362TIP3    H125501   2.330   0.068   1.597 -0.1922 -2.2221  0.8829
 1362TIP3    H225502   2.378   0.115   1.733  0.1540 -0.2635  0.1108
 1363TIP3   OH225503   2.240   4.863  12.475  0.4405 -0.1066 -0.0003
 1363TIP3    H125504   2.252   4.946  12.522  1.0046  0.1479 -0.5841
 1363TIP3    H225505   2.326   4.844  12.437  0.1315 -0.5930 -0.4644
 1364TIP3   OH225506   5.675   5.361  13.996  0.0604  0.2389  0.1036
 1364TIP3    H125507   5.717   5.439  14.031 -0.0282 -0.1393  1.0802
 1364TIP3    H225508   5.654   5.309  14.073  0.9883 -1.1986 -0.5699
 1365TIP3   OH225509   0.444   4.506  14.372  0.2321 -0.0317 -0.5674
 1365TIP3    H125510   0.486   4.566  14.434 -0.3814  0.1223 -0.2900
 1365TIP3    H225511   0.351   4.516  14.390  0.0943 -0.5809 -0.9776
 1366TIP3   OH225512   0.851   0.414   9.891 -0.2234  0.2807  0.3988
 1366TIP3    H125513   0.925   0.469   9.917 -0.0846  0.8480 -1.0770
 1366TIP3    H225514   0.855   0.412   9.795  0.0806 -2.7517  0.3726
 1367TIP3   OH225515   3.004   1.882   1.541  0.0993 -0.0870 -0.0256
 1367TIP3    H125516   2.992   1.877   1.446 -1.4507 -0.5435  0.1584
 1367TIP3    H225517   2.952   1.809   1.576  1.9050 -0.8887  1.1103
 1368TIP3   OH225518   5.251   1.201  10.963  0.4056  0.3406  0.2042
 1368TIP3    H125519   5.334   1.155  10.976  0.4953  0.5702  0.4621
 1368TIP3    H225520   5.185   1.140  10.995  0.2839 -0.6474 -1.7701
 1369TIP3   OH225521   1.993   1.113  10.900  0.2777 -0.3755 -0.1755
 1369TIP3    H125522   2.058   1.175  10.866  0.6511  0.5224  1.9784
 1369TIP3    H225523   1.912   1.136  10.854  1.3032 -1.1511 -2.5061
 1370TIP3   OH225524   0.358   2.985  11.330 -0.2970  0.1320 -0.1193
 1370TIP3    H125525   0.279   3.039  11.333 -0.0818  0.4153  0.5105
 1370TIP3    H225526   0.424   3.042  11.292 -0.5420 -0.3069 -1.2478
 1371TIP3   OH225527   5.531   6.002  10.906 -0.2859  0.2357  0.2598
 1371TIP3    H125528   5.554   6.002  10.813 -1.9251  1.2948 -0.1803
 1371TIP3    H225529   5.609   6.035  10.950  1.0100 -1.5489 -0.5568
 1372TIP3   OH225530   3.009   0.350  10.880 -0.4925  0.6331 -0.1496
 1372TIP3    H125531   2.922   0.381  10.855 -1.2879 -1.0855  0.3245
 1372TIP3    H225532   3.015   0.369  10.973 -0.4326  0.5800 -0.1437
 1373TIP3   OH225533   6.060   4.625  12.708 -0.3716  0.5998  0.0749
 1373TIP3    H125534   6.123   4.558  12.735 -0.8293  0.4213  0.7226
 1373TIP3    H225535   6.114   4.698  12.677  0.1351  0.0548 -0.3481
 1374TIP3   OH225536   0.635   4.109  13.625  0.2268  0.2453 -0.4551
 1374TIP3    H125537   0.587   4.028  13.612  0.4464  0.4867 -3.3686
 1374TIP3    H225538   0.578   4.162  13.682  0.1626 -1.9034  1.6421
 1375TIP3   OH225539   5.968   6.563  15.346 -0.2922 -0.1264  0.6849
 1375TIP3    H125540   5.875   6.569  15.368 -0.2968  0.9136  0.4097
 1375TIP3    H225541   5.976   6.603  15.260  0.4542  0.0234  0.8119
 1376TIP3   OH225542   2.148   4.564  13.020 -0.0507 -0.1357 -1.3368
 1376TIP3    H125543   2.057   4.535  13.011 -0.6193  1.2707 -0.5318
 1376TIP3    H225544   2.177   4.578  12.930 -0.6707 -0.4955 -1.6041
 1377TIP3   OH225545   4.469   5.206   5.106 -0.2636  0.5214 -0.0486
 1377TIP3    H125546   4.446   5.115   5.126 -1.8180  0.6462 -1.1090
 1377TIP3    H225547   4.423   5.258   5.171  0.1828  0.5873  0.2186
 1378TIP3   OH225548   3.821   6.900   1.023 -0.0586  0.0096 -0.3982
 1378TIP3    H125549   3.739   6.943   1.045 -0.4130 -1.0376  0.4205
 1378TIP3    H225550   3.801   6.806   1.024  0.9160 -0.2375 -1.1665
 1379TIP3   OH225551   6.582   6.711  11.283  0.6326  0.6282  0.3293
 1379TIP3    H125552   6.507   6.686  11.338 -1.3649  1.8128 -1.7079
 1379TIP3    H225553   6.578   6.806  11.280  1.8909  0.6761 -0.3321
 1380TIP3   OH225554   5.855   2.757  10.791 -0.1083  0.3595  0.2257
 1380TIP3    H125555   5.777   2.718  10.829 -0.9744 -0.5799 -2.2899
 1380TIP3    H225556   5.823   2.833  10.743  0.0692 -1.2199 -2.6102
 1381TIP3   OH225557   1.810   4.844  11.859  0.2531 -0.6280 -0.3003
 1381TIP3    H125558   1.879   4.867  11.797  0.3038  0.3090  0.0885
 1381TIP3    H225559   1.772   4.764  11.824 -0.7384  0.6627 -2.3597
 1382TIP3   OH225560   1.749   1.544  12.822 -0.3682 -0.1744 -0.0524
 1382TIP3    H125561   1.711   1.569  12.907 -0.3391  0.8951 -0.3368
 1382TIP3    H225562   1.805   1.618  12.799  0.5472 -0.9724 -0.4582
 1383TIP3   OH225563   3.051   4.516  12.594 -0.3364  0.0869 -0.0368
 1383TIP3    H125564   3.068   4.610  12.597 -1.3188  0.2772 -0.1606
 1383TIP3    H225565   2.980   4.502  12.657 -0.9131 -0.3967 -0.7688
 1384TIP3   OH225566   3.759   6.889  13.951  0.2487 -0.4816  0.5371
 1384TIP3    H125567   3.689   6.828  13.927  0.0761 -0.0216 -0.1447
 1384TIP3    H225568   3.837   6.854  13.909 -0.1875  0.7186 -1.4116
 1385TIP3   OH225569   4.064   2.997   4.449  0.3697  0.1436 -0.6302
 1385TIP3    H125570   4.131   3.064   4.461  0.8941 -0.3883 -0.4926
 1385TIP3    H225571   4.077   2.966   4.360  0.5622 -0.2170 -0.4817
 1386TIP3   OH225572   5.293   2.272  12.138 -0.4089  0.0562  0.1668
 1386TIP3    H125573   5.258   2.184  12.127 -0.0765  0.1913 -2.8070
 1386TIP3    H225574   5.337   2.291  12.055  0.5033  2.6146  1.1288
 1387TIP3   OH225575   3.992   7.032  11.629  0.4903  0.5381 -0.0511
 1387TIP3    H125576   3.951   6.951  11.657 -0.0794  0.9125  0.2263
 1387TIP3    H225577   3.931   7.068  11.564  0.4281  1.0446  0.2813
 1388TIP3   OH225578   4.470   2.575  12.781  0.3266  0.3585  0.2201
 1388TIP3    H125579   4.543   2.636  12.798  1.2432 -0.3144 -1.0913
 1388TIP3    H225580   4.488   2.500  12.837 -0.6919  1.1552  1.6838
 1389TIP3   OH225581   0.523   4.197   5.254 -0.0737 -0.3544  0.1775
 1389TIP3    H125582   0.617   4.176   5.257 -0.1593 -0.5982  2.1502
 1389TIP3    H225583   0.480   4.112   5.261 -0.4229 -0.1200  1.0147
 1390TIP3   OH225584   6.714   1.038  10.511 -0.6929 -0.1655 -0.4812
 1390TIP3    H125585   6.675   1.091  10.581  1.0500 -0.0590  0.4768
 1390TIP3    H225586   6.726   0.952  10.550  0.1770 -0.1397 -0.6726
 1391TIP3   OH225587   5.714   2.661  11.820 -0.1311 -0.9045 -0.1410
 1391TIP3    H125588   5.643   2.673  11.884 -0.3702  0.0699 -0.5743
 1391TIP3    H225589   5.669   2.636  11.740 -0.0021 -0.1489 -0.4552
 1392TIP3   OH225590   1.882   4.049   0.569 -0.0541 -0.2985 -0.0306
 1392TIP3    H125591   1.875   4.119   0.633 -0.3809  0.2488 -0.6557
 1392TIP3    H225592   1.951   4.077   0.509 -1.2534  0.2575 -1.1993
 1393TIP3   OH225593   6.442   0.576  10.582 -0.0247  0.1263 -0.0404
 1393TIP3    H125594   6.473   0.539  10.499  0.3632  2.4603 -1.0123
 1393TIP3    H225595   6.347   0.583  10.570  0.1535  1.5929 -0.8360
 1394TIP3   OH225596   5.333   4.159  14.152  0.6890  0.1539 -0.3030
 1394TIP3    H125597   5.261   4.109  14.112  0.9388  1.2056 -2.1538
 1394TIP3    H225598   5.331   4.244  14.108  4.0941 -0.3186 -1.6480
 1395TIP3   OH225599   2.599   2.723  13.501  0.2705  0.1100 -0.1853
 1395TIP3    H125600   2.686   2.748  13.533  0.5600 -0.9378 -0.1409
 1395TIP3    H225601   2.604   2.735  13.406  0.3047  0.4977 -0.1386
 1396TIP3   OH225602   4.482   1.090  13.020  0.1882  0.4571 -0.2619
 1396TIP3    H125603   4.519   1.004  13.001 -1.0284  0.0878 -1.0447
 1396TIP3    H225604   4.544   1.152  12.980  1.7382  0.0563  1.3830
 1397TIP3   OH225605   1.983   2.642  13.467 -0.4103  0.5157  0.0619
 1397TIP3    H125606   1.939   2.669  13.387  0.6713  1.0530 -0.3608
 1397TIP3    H225607   1.986   2.721  13.521  0.0082  0.4761  0.0997
 1398TIP3   OH225608   6.731   6.386   5.994 -0.0789 -0.0598  0.4310
 1398TIP3    H125609   6.761   6.353   6.079 -1.5851  0.5632  1.2346
 1398TIP3    H225610   6.723   6.480   6.006 -2.9252 -0.2247  0.5158
 1399TIP3   OH225611   4.063   6.356   9.788  0.1699  0.3578  0.1796
 1399TIP3    H125612   4.146   6.310   9.787 -0.1480 -0.2828  1.2551
 1399TIP3    H225613   3.999   6.293   9.755  0.3055  1.3293 -2.0772
 1400TIP3   OH225614   1.621   5.529  12.718 -0.3569 -0.6136 -0.1091
 1400TIP3    H125615   1.537   5.484  12.713 -0.7689  0.0941  0.1990
 1400TIP3    H225616   1.599   5.621  12.703  0.2711 -0.3336  0.6411
 1401TIP3   OH225617   1.901   6.918   9.899 -0.0172  0.1581  0.5251
 1401TIP3    H125618   1.970   6.853   9.907 -0.8662 -0.5815  2.7378
 1401TIP3    H225619   1.830   6.872   9.855  0.0316  0.1418  0.4642
 1402TIP3   OH225620   4.685   1.616  12.089  0.0290 -0.1618  0.0014
 1402TIP3    H125621   4.619   1.580  12.148  0.1937  0.1955  0.4087
 1402TIP3    H225622   4.745   1.543  12.072  0.8774  0.1261  1.5459
 1403TIP3   OH225623   3.309   0.559   9.793 -0.5549 -0.0552 -0.8433
 1403TIP3    H125624   3.216   0.581   9.788 -0.3015  1.7799  1.0990
 1403TIP3    H225625   3.331   0.568   9.886  1.3893 -1.3093 -1.1282
 1404TIP3   OH225626   4.148   4.958  10.858  0.5175  0.0069 -0.4327
 1404TIP3    H125627   4.211   4.936  10.927  0.4741 -1.2429 -0.7762
 1404TIP3    H225628   4.125   4.874  10.819 -1.2372  0.4630 -0.4298
 1405TIP3   OH225629   3.770   1.078  15.057 -0.0875  0.1778 -0.4016
 1405TIP3    H125630   3.763   1.134  15.134  2.4849 -0.7305  0.6156
 1405TIP3    H225631   3.813   1.133  14.991  1.9311 -0.3246  0.4145
 1406TIP3   OH225632   1.373   1.670  11.628  0.2907  0.0959  0.3920
 1406TIP3    H125633   1.283   1.638  11.632 -0.2574  1.6042  0.7140
 1406TIP3    H225634   1.397   1.686  11.719 -0.2275  2.5564  0.1741
 1407TIP3   OH225635   0.509   5.586  10.236  0.0023 -0.0158  0.0347
 1407TIP3    H125636   0.435   5.595  10.296  0.4685  0.8787  0.4950
 1407TIP3    H225637   0.468   5.573  10.150 -0.7461  1.8387  0.0573
 1408TIP3   OH225638   3.650   4.044  10.305 -0.1560 -0.6416 -0.2287
 1408TIP3    H125639   3.645   4.054  10.400  0.7569  0.9609 -0.3065
 1408TIP3    H225640   3.728   4.094  10.281  0.0232 -1.6155 -1.7532
 1409TIP3   OH225641   6.078   5.422  10.681  0.0638 -0.5141  0.2143
 1409TIP3    H125642   6.026   5.343  10.696 -1.5904  0.6014  0.6127
 1409TIP3    H225643   6.030   5.469  10.613  1.2203 -0.0013 -0.2688
 1410TIP3   OH225644   2.689   4.499  14.527  0.4590 -0.2402  0.2442
 1410TIP3    H125645   2.731   4.464  14.448 -0.9742 -0.1396 -0.5992
 1410TIP3    H225646   2.685   4.593  14.511 -2.9054 -0.4733 -1.2374
 1411TIP3   OH225647   1.374   1.342  12.560 -0.5465 -0.1449  0.3746
 1411TIP3    H125648   1.436   1.274  12.584 -0.0367  0.6207  1.2693
 1411TIP3    H225649   1.391   1.414  12.621 -0.2948  1.2496 -1.2620
 1412TIP3   OH225650   1.096   1.578   9.586 -0.9954  0.4835 -0.0732
 1412TIP3    H125651   1.041   1.506   9.556 -0.5278  0.6769 -1.4583
 1412TIP3    H225652   1.182   1.539   9.600 -0.9747  0.5929  0.1226
 1413TIP3   OH225653   5.662   7.110  12.788 -0.2802  0.4652  0.5919
 1413TIP3    H125654   5.679   7.202  12.808  1.3587 -0.1370  2.2215
 1413TIP3    H225655   5.678   7.102  12.694  1.5654  1.4472  0.7977
 1414TIP3   OH225656   4.347   4.142  13.512 -0.0436  0.0054 -0.5799
 1414TIP3    H125657   4.329   4.217  13.455 -2.0950 -0.3328 -0.4683
 1414TIP3    H225658   4.399   4.083  13.458 -2.0737 -0.3866 -2.2557
 1415TIP3   OH225659   0.132   4.841  10.661 -0.2137 -0.2083  0.3764
 1415TIP3    H125660   0.120   4.836  10.566  0.4136  0.4252  0.2589
 1415TIP3    H225661   0.161   4.753  10.686  1.4941  0.1103 -0.3091
 1416TIP3   OH225662   6.387   6.198  10.114 -0.5117  0.4087  0.1309
 1416TIP3    H125663   6.442   6.272  10.137  0.6423  0.1281 -1.5161
 1416TIP3    H225664   6.448   6.130  10.085 -1.6726  0.6628 -3.4081
 1417TIP3   OH225665   5.483   1.993  14.164 -0.3627  0.5447  0.1082
 1417TIP3    H125666   5.518   2.067  14.113  1.2660  0.4882  1.0605
 1417TIP3    H225667   5.520   2.005  14.251 -0.9557 -0.8149  0.5676
 1418TIP3   OH225668   0.290   4.423  12.626  0.8796 -0.0324 -0.0423
 1418TIP3    H125669   0.249   4.445  12.543  4.0628  0.4244 -1.6608
 1418TIP3    H225670   0.266   4.332  12.641 -1.0355  0.3333 -0.5719
 1419TIP3   OH225671   4.710   1.036  13.611  0.8696  0.0092 -0.5289
 1419TIP3    H125672   4.676   0.963  13.664  0.9472  0.6111  0.3636
 1419TIP3    H225673   4.662   1.112  13.642  1.9971  0.6312 -0.2787
 1420TIP3   OH225674   3.000   3.877  15.089 -0.3371  0.0381 -0.3708
 1420TIP3    H125675   3.007   3.973  15.092 -1.8006  0.2482 -1.9982
 1420TIP3    H225676   3.039   3.853  15.004  0.7319 -0.9106  0.3604
 1421TIP3   OH225677   2.675   5.930  11.558 -0.5267 -0.3985 -0.0106
 1421TIP3    H125678   2.666   5.890  11.645 -0.3591  1.0688  0.7174
 1421TIP3    H225679   2.584   5.944  11.530 -0.6589 -2.9172 -1.1253
 1422TIP3   OH225680   4.992   3.071  11.590 -0.1051 -0.2702  0.4264
 1422TIP3    H125681   4.996   2.980  11.618 -0.2403 -0.4509 -0.1333
 1422TIP3    H225682   4.907   3.078  11.545  1.0368 -0.5777 -1.9412
 1423TIP3   OH225683   0.247   3.748  12.070  0.2370  0.6729 -0.1340
 1423TIP3    H125684   0.265   3.682  12.003 -1.1327  0.4064 -0.2835
 1423TIP3    H225685   0.209   3.822  12.021  0.0741  0.8389  0.2382
 1424TIP3   OH225686   2.082   4.676   3.339 -0.1701  0.2041  0.0609
 1424TIP3    H125687   2.139   4.645   3.268  2.1559  2.8844  0.5848
 1424TIP3    H225688   2.094   4.611   3.409  0.0152 -0.7533 -0.8245
 1425TIP3   OH225689   7.031   3.216  15.656 -0.4249 -0.3476  0.2389
 1425TIP3    H125690   7.011   3.308  15.636 -0.2261 -0.4377 -0.4126
 1425TIP3    H225691   7.077   3.220  15.740  2.3971  0.5240 -1.1885
 1426TIP3   OH225692   5.108   6.763   1.774  0.4724  0.1825  0.4644
 1426TIP3    H125693   5.175   6.732   1.713  1.1134  0.7505  0.8673
 1426TIP3    H225694   5.127   6.856   1.787 -1.0617  0.6420 -0.2647
 1427TIP3   OH225695   1.482   4.656   1.669  0.1461  0.0737 -0.5937
 1427TIP3    H125696   1.422   4.684   1.738  0.9371 -0.4339  0.3256
 1427TIP3    H225697   1.563   4.703   1.687  0.1727  0.4537 -1.5963
 1428TIP3   OH225698   5.471   1.167   0.415  0.4557 -0.2473 -0.0248
 1428TIP3    H125699   5.565   1.172   0.395  0.2084 -2.4740 -2.2175
 1428TIP3    H225700   5.458   1.076   0.443 -1.2668 -0.4359 -1.2776
 1429TIP3   OH225701   2.726   6.835   0.335 -0.3006  0.2623 -0.1064
 1429TIP3    H125702   2.731   6.740   0.322  0.3550  0.3552 -0.5874
 1429TIP3    H225703   2.632   6.854   0.335 -0.4391 -0.4002  0.0864
 1430TIP3   OH225704   1.282   2.335   4.164  0.4284 -0.2853  0.6223
 1430TIP3    H125705   1.276   2.430   4.172 -0.0978 -0.3661  1.3305
 1430TIP3    H225706   1.312   2.320   4.075  0.0688  0.5353  0.3526
 1431TIP3   OH225707   6.041   1.246   3.245  0.1228 -0.0581 -0.6221
 1431TIP3    H125708   6.071   1.196   3.169  0.5074 -1.9691  0.7016
 1431TIP3    H225709   5.950   1.220   3.256  1.1085 -3.2481  1.9434
 1432TIP3   OH225710   4.561   2.691  11.382  0.5464  0.7305 -0.5269
 1432TIP3    H125711   4.525   2.700  11.294  0.6176 -2.2017 -0.9708
 1432TIP3    H225712   4.486   2.668  11.436  0.8367  0.3946 -0.2618
 1433TIP3   OH225713   6.459   3.928   9.658  0.3834 -0.2208  0.1672
 1433TIP3    H125714   6.384   3.905   9.713 -0.6060  1.0694 -0.6080
 1433TIP3    H225715   6.422   3.946   9.572  1.4005  1.7009  0.0835
 1434TIP3   OH225716   4.619   6.072  13.047  0.2643 -0.2514  0.0850
 1434TIP3    H125717   4.605   6.026  13.130  0.8733 -0.2480  0.1939
 1434TIP3    H225718   4.575   6.156  13.058 -0.2464 -0.5215  0.1473
 1435TIP3   OH225719   7.016   3.706  12.691  0.0920  0.0735  0.8011
 1435TIP3    H125720   7.107   3.678  12.687 -0.1760 -0.7723  0.3492
 1435TIP3    H225721   6.967   3.634  12.650 -0.8320  0.2522  1.5526
 1436TIP3   OH225722   1.111   2.078  10.606 -0.3000  0.6248  0.2365
 1436TIP3    H125723   1.019   2.106  10.600 -0.6421  0.2780  2.8135
 1436TIP3    H225724   1.111   1.990  10.569 -0.8042  0.9298 -0.5387
 1437TIP3   OH225725   1.349   0.910   2.548  0.8116 -0.3821 -0.1353
 1437TIP3    H125726   1.290   0.847   2.589  1.8000 -1.5388 -0.4474
 1437TIP3    H225727   1.397   0.949   2.621  0.5615 -0.3703  0.0221
 1438TIP3   OH225728   0.129   3.892   5.629  0.7277 -0.1655  0.9514
 1438TIP3    H125729   0.199   3.836   5.593 -0.8035 -1.0958 -0.7526
 1438TIP3    H225730   0.060   3.830   5.653 -1.2742  0.9439 -1.5702
 1439TIP3   OH225731   4.150   0.627   9.984  0.2140 -0.1192  0.4421
 1439TIP3    H125732   4.241   0.641   9.958 -0.0444 -1.7141 -1.5760
 1439TIP3    H225733   4.156   0.596  10.075  1.7085 -0.4966  0.2373
 1440TIP3   OH225734   0.454   2.407  13.613 -0.4724 -0.2204  0.8026
 1440TIP3    H125735   0.439   2.501  13.605  1.0930 -0.0696 -1.6904
 1440TIP3    H225736   0.538   2.400  13.658  1.5106 -0.1035 -2.5253
 1441TIP3   OH225737   0.542   3.192  11.296  0.2496 -0.1431 -0.2450
 1441TIP3    H125738   0.628   3.228  11.275 -0.8735  1.8515 -1.8646
 1441TIP3    H225739   0.502   3.257  11.354  0.0722 -1.3867  1.0573
 1442TIP3   OH225740   6.649   2.282  10.303  0.0800  0.5009  0.2804
 1442TIP3    H125741   6.694   2.213  10.254  0.4219 -0.0372  1.3106
 1442TIP3    H225742   6.556   2.268  10.284  0.2185  0.3920 -0.3223
 1443TIP3   OH225743   0.970   0.293  12.122 -0.3808 -0.1821 -0.1266
 1443TIP3    H125744   1.061   0.316  12.107  0.0858 -1.3208  0.7737
 1443TIP3    H225745   0.956   0.213  12.071 -0.1798 -1.2909  1.4430
 1444TIP3   OH225746   5.764   7.102  10.234  0.2319  0.3352 -0.2173
 1444TIP3    H125747   5.682   7.077  10.277  0.2276  0.1395 -0.3361
 1444TIP3    H225748   5.832   7.056  10.284  0.0633 -1.8040 -1.7905
 1445TIP3   OH225749   1.665   2.266  10.825  0.3098 -0.1450 -0.6460
 1445TIP3    H125750   1.671   2.316  10.907  1.1547 -0.8226 -0.2834
 1445TIP3    H225751   1.631   2.329  10.762  2.1115  1.1572 -0.4078
 1446TIP3   OH225752   4.320   6.873   1.150 -0.3634  0.2192  0.2934
 1446TIP3    H125753   4.314   6.905   1.239  2.5644 -0.7450  0.9632
 1446TIP3    H225754   4.314   6.777   1.158  1.2737  0.0236 -0.2899
 1447TIP3   OH225755   6.990   2.937  15.031 -0.0719 -0.3171  0.1365
 1447TIP3    H125756   6.992   3.023  15.072 -0.6683 -1.2865  2.3818
 1447TIP3    H225757   6.899   2.908  15.043  0.3281 -1.5843  0.2144
 1448TIP3   OH225758   4.005   1.068  14.368 -0.4451 -0.2569 -0.0636
 1448TIP3    H125759   4.032   1.160  14.367  0.0355 -0.3977 -0.1389
 1448TIP3    H225760   4.031   1.035  14.454 -1.0915 -0.1907  0.1684
 1449TIP3   OH225761   4.412   2.441  15.118  0.0113  0.4950  0.2904
 1449TIP3    H125762   4.423   2.361  15.066  0.7826  2.1588 -2.2874
 1449TIP3    H225763   4.498   2.456  15.157  0.5883  1.3155 -1.2246
 1450TIP3   OH225764   2.891   5.170  13.569 -0.5640  0.0582  0.2431
 1450TIP3    H125765   2.909   5.114  13.494 -1.2530  0.8988 -0.5774
 1450TIP3    H225766   2.962   5.152  13.630  0.8110  0.3827 -1.1968
 1451TIP3   OH225767   0.021   1.794  12.976 -0.1950  0.1481  0.3684
 1451TIP3    H125768  -0.029   1.719  13.009  0.0116 -1.0219 -1.8129
 1451TIP3    H225769   0.096   1.755  12.931 -0.2196  1.6339 -1.0486
 1452TIP3   OH225770   0.448   2.532   0.503  0.1739 -0.2714 -0.1398
 1452TIP3    H125771   0.446   2.449   0.456  0.5422 -0.1906 -0.3052
 1452TIP3    H225772   0.506   2.515   0.578  0.8213  0.0300 -0.5598
 1453TIP3   OH225773   2.155   0.236  13.049  0.5382 -0.2162  0.8709
 1453TIP3    H125774   2.205   0.276  12.978  0.8343  0.2216  1.3215
 1453TIP3    H225775   2.192   0.148  13.058  0.1215 -0.4793  0.1153
 1454TIP3   OH225776   1.695   1.669  14.782 -0.7662 -1.2833  0.3003
 1454TIP3    H125777   1.779   1.640  14.817 -1.1487  1.0013  3.5711
 1454TIP3    H225778   1.712   1.758  14.750 -2.0839 -0.3881  1.9717
 1455TIP3   OH225779   5.292   5.799  12.385  0.2904  0.3678  0.4568
 1455TIP3    H125780   5.294   5.737  12.458  1.6698 -0.7461 -0.4733
 1455TIP3    H225781   5.241   5.873  12.418 -3.2516 -2.0196  0.9486
 1456TIP3   OH225782   6.773   7.030  15.653 -0.2308 -0.3914  0.3768
 1456TIP3    H125783   6.773   7.047  15.559  0.3321  0.0452  0.4514
 1456TIP3    H225784   6.752   7.114  15.693  1.1013 -0.1810  0.6927
 1457TIP3   OH225785   2.560   3.294  12.541  0.5346  0.0629 -0.2059
 1457TIP3    H125786   2.560   3.207  12.501 -0.0585  0.6350 -1.5229
 1457TIP3    H225787   2.651   3.321  12.539  0.6634 -0.3638 -0.1883
 1458TIP3   OH225788   6.435   2.616   1.648 -0.2233 -0.1069 -0.9628
 1458TIP3    H125789   6.442   2.630   1.743 -0.3152 -2.2123 -0.5998
 1458TIP3    H225790   6.519   2.647   1.614  0.5253 -0.9442  0.0425
 1459TIP3   OH225791   1.080   0.798  13.856 -0.1936 -0.1011 -0.2243
 1459TIP3    H125792   1.171   0.790  13.827  0.2858  2.6226  0.3212
 1459TIP3    H225793   1.072   0.887  13.889 -2.7952 -0.6056  0.7900
 1460TIP3   OH225794   3.555   6.350  10.059 -0.8464 -0.3052 -0.0193
 1460TIP3    H125795   3.622   6.372   9.995  0.0749  0.0224  1.0398
 1460TIP3    H225796   3.510   6.274  10.021  2.8811 -3.3914  1.0634
 1461TIP3   OH225797   5.700   0.658  10.371 -0.0557  0.5707  0.3155
 1461TIP3    H125798   5.684   0.569  10.403  2.5144  0.4273  1.4192
 1461TIP3    H225799   5.743   0.645  10.286 -1.1815  0.8474 -0.3280
 1462TIP3   OH225800   6.754   0.863  13.001 -0.5206  0.3473 -0.4498
 1462TIP3    H125801   6.849   0.853  12.999 -0.4204  1.1732 -0.0578
 1462TIP3    H225802   6.732   0.903  12.917 -0.6972 -1.1087 -1.1412
 1463TIP3   OH225803   5.762   5.053  15.129  0.2937  0.5317  0.1549
 1463TIP3    H125804   5.840   5.006  15.100  0.5377  0.4078  0.9994
 1463TIP3    H225805   5.713   4.989  15.181 -1.1536  0.1200 -1.6080
 1464TIP3   OH225806   1.040   5.728   4.089  0.1585 -1.0428 -0.3746
 1464TIP3    H125807   1.089   5.776   4.021 -0.7237 -0.1224 -0.3929
 1464TIP3    H225808   1.095   5.653   4.110  2.1424  0.5350  0.4293
 1465TIP3   OH225809   6.154   6.166  12.120  0.1573 -0.4452  0.1827
 1465TIP3    H125810   6.070   6.200  12.152 -1.0890 -2.4867 -0.7245
 1465TIP3    H225811   6.202   6.143  12.200 -0.5936 -0.2473  0.7051
 1466TIP3   OH225812   2.170   0.724  10.772  0.1821  0.4457  0.3346
 1466TIP3    H125813   2.084   0.755  10.801 -0.6484 -2.3764  1.2532
 1466TIP3    H225814   2.201   0.670  10.844  2.2772  0.5205 -0.4456
 1467TIP3   OH225815   6.574   5.928  15.337 -0.1806  0.1490  0.2965
 1467TIP3    H125816   6.564   5.871  15.413 -0.6457  0.8455  0.7736
 1467TIP3    H225817   6.657   5.974  15.352 -0.4502  0.5532  0.5736
 1468TIP3   OH225818   6.497   4.613   9.752 -0.0978  0.5160  0.6385
 1468TIP3    H125819   6.435   4.684   9.769 -4.5610 -2.2023 -2.3151
 1468TIP3    H225820   6.473   4.545   9.814 -1.4018 -1.1921 -1.6067
 1469TIP3   OH225821   4.850   3.134  10.489  0.0129  0.3169  0.8082
 1469TIP3    H125822   4.858   3.160  10.397  0.2233  1.8568  1.2178
 1469TIP3    H225823   4.767   3.087  10.494 -0.5531  1.1808  0.0193
 1470TIP3   OH225824   4.492   5.191  13.785 -0.1378 -0.8001  0.2093
 1470TIP3    H125825   4.520   5.269  13.832  1.0829 -1.4646  0.6375
 1470TIP3    H225826   4.425   5.151  13.841 -0.5318 -0.2506  0.1388
 1471TIP3   OH225827   3.226   1.794  14.727  0.2665  0.4080  0.0269
 1471TIP3    H125828   3.187   1.712  14.757  1.5724 -0.1702  0.1788
 1471TIP3    H225829   3.248   1.778  14.636 -1.1331  1.2292 -0.4954
 1472TIP3   OH225830   2.450   5.992  15.292 -0.2514  0.7058  0.0598
 1472TIP3    H125831   2.471   5.917  15.236 -0.6318  0.4417  0.2595
 1472TIP3    H225832   2.533   6.039  15.303  0.3286 -0.4768  1.0880
 1473TIP3   OH225833   3.608   3.270  12.404  0.3807  0.7047 -0.2137
 1473TIP3    H125834   3.529   3.254  12.352 -0.1623 -1.0303  1.0423
 1473TIP3    H225835   3.601   3.362  12.429 -0.3175  1.0610 -1.5829
 1474TIP3   OH225836   1.911   1.103  11.156 -0.1304  0.0530 -0.4378
 1474TIP3    H125837   1.817   1.087  11.165  0.3097 -2.1032  0.7883
 1474TIP3    H225838   1.927   1.101  11.061 -1.3831  1.1310 -0.7017
 1475TIP3   OH225839   2.594   6.908  15.043  0.4647  0.0841 -0.4291
 1475TIP3    H125840   2.571   6.815  15.045 -1.3950  0.3992 -2.5684
 1475TIP3    H225841   2.540   6.944  14.973  3.1152  2.2759 -1.5159
 1476TIP3   OH225842   5.015   2.326  12.358  0.1911 -0.1518 -0.7644
 1476TIP3    H125843   5.055   2.401  12.313 -1.3243 -0.0164 -1.9726
 1476TIP3    H225844   5.062   2.250  12.323  1.5874  0.1778  0.3049
 1477TIP3   OH225845   3.518   3.603  11.393 -0.7503  0.2241 -0.1529
 1477TIP3    H125846   3.486   3.524  11.351  0.7341 -1.0564  0.9916
 1477TIP3    H225847   3.441   3.643  11.433 -1.0533 -3.0343  3.0302
 1478TIP3   OH225848   4.235   2.595   2.984 -0.5535  0.2363 -0.1188
 1478TIP3    H125849   4.269   2.520   3.033  1.8291  0.8773 -0.6777
 1478TIP3    H225850   4.210   2.658   3.052 -0.6077 -0.2424  0.3187
 1479TIP3   OH225851   1.087   2.290   3.824  0.0064  0.4207  0.2201
 1479TIP3    H125852   1.135   2.368   3.798  0.1764 -0.5104 -2.6126
 1479TIP3    H225853   1.028   2.272   3.751 -1.2444 -1.1745  1.5197
 1480TIP3   OH225854   2.985   6.312  11.917 -0.3353  0.4587 -0.5975
 1480TIP3    H125855   2.973   6.223  11.885 -0.4093  0.6233 -1.0353
 1480TIP3    H225856   3.010   6.301  12.009 -0.1269 -0.0175 -0.7077
 1481TIP3   OH225857   3.904   3.281  12.135 -0.0586  0.4065  0.0082
 1481TIP3    H125858   3.998   3.269  12.150 -0.3083 -1.9777  0.0560
 1481TIP3    H225859   3.898   3.317  12.047  0.9256  2.0083  0.5580
 1482TIP3   OH225860   2.197   2.829  14.557 -0.3694 -0.0418  0.3290
 1482TIP3    H125861   2.203   2.897  14.623  1.4893  1.3343 -1.1590
 1482TIP3    H225862   2.277   2.777  14.568  0.6170  0.9815 -1.5669
 1483TIP3   OH225863   1.786   2.885   2.185 -0.3563  0.2174  0.7763
 1483TIP3    H125864   1.700   2.874   2.145  0.0399 -1.2450  0.2424
 1483TIP3    H225865   1.799   2.980   2.190 -1.3217  0.4514 -0.6105
 1484TIP3   OH225866   3.208   4.442  14.092 -0.0217 -0.0372 -0.4807
 1484TIP3    H125867   3.120   4.479  14.100 -0.8572 -1.9766 -0.0801
 1484TIP3    H225868   3.243   4.481  14.012 -1.7809 -0.2449 -1.4109
 1485TIP3   OH225869   1.289   2.373   2.258 -0.3668  0.0322 -0.2744
 1485TIP3    H125870   1.295   2.356   2.352 -1.4832 -1.5343 -0.4494
 1485TIP3    H225871   1.378   2.359   2.226  0.0150  0.5360  0.5306
 1486TIP3   OH225872   5.661   4.030  15.437  0.1785  0.4204 -0.6785
 1486TIP3    H125873   5.577   3.997  15.468  1.6677 -1.4956  1.7137
 1486TIP3    H225874   5.672   3.991  15.350 -1.1432  0.2731 -0.8008
 1487TIP3   OH225875   0.851   7.111  13.042  0.1476 -0.1530  0.3443
 1487TIP3    H125876   0.889   7.097  13.129 -1.1224  0.7259  1.0696
 1487TIP3    H225877   0.892   7.192  13.011 -1.0247  0.7496  1.0913
 1488TIP3   OH225878   1.206   1.995   1.055 -0.2665  0.2643 -0.2171
 1488TIP3    H125879   1.189   1.901   1.048  1.0986 -0.0684  0.5635
 1488TIP3    H225880   1.121   2.033   1.078 -1.0495 -0.6341 -1.4784
 1489TIP3   OH225881   7.068   4.431   9.626  0.0620 -0.3284 -0.0646
 1489TIP3    H125882   6.983   4.415   9.585  0.3353 -0.1219 -0.7361
 1489TIP3    H225883   7.119   4.353   9.606  0.0360 -0.4487  0.3308
 1490TIP3   OH225884   4.692   2.949  10.140  0.5343  0.1037 -0.5644
 1490TIP3    H125885   4.677   2.903  10.222 -0.9555  0.7268 -0.4441
 1490TIP3    H225886   4.638   2.902  10.076 -1.4441  1.8882 -0.3262
 1491TIP3   OH225887   1.395   3.021   0.518  0.1823 -0.0429 -0.5191
 1491TIP3    H125888   1.425   2.932   0.501  0.1588  0.0886 -1.2445
 1491TIP3    H225889   1.363   3.018   0.609  1.5804 -0.3900 -0.0149
 1492TIP3   OH225890   3.195   6.720   9.829 -0.5391 -0.5396  0.4021
 1492TIP3    H125891   3.266   6.664   9.799 -2.9408 -3.2265 -0.7424
 1492TIP3    H225892   3.183   6.783   9.758  1.0590  0.3765  0.9025
 1493TIP3   OH225893   5.678   1.509  13.761 -0.0707 -0.3824  0.2688
 1493TIP3    H125894   5.663   1.577  13.695 -0.0503 -0.5643  0.0749
 1493TIP3    H225895   5.725   1.553  13.831  0.1362 -0.2485  0.0458
 1494TIP3   OH225896   3.301   6.806  12.177 -0.0132 -0.2378  0.4489
 1494TIP3    H125897   3.313   6.756  12.257  0.4286 -0.0742  0.4902
 1494TIP3    H225898   3.372   6.776  12.119  1.5156  1.7255  1.1746
 1495TIP3   OH225899   2.969   0.625   0.346  0.6994 -0.2782 -0.0040
 1495TIP3    H125900   3.052   0.667   0.325  0.6576 -0.6359 -0.9455
 1495TIP3    H225901   2.926   0.613   0.261 -1.6232  2.4987  0.6235
 1496TIP3   OH225902   3.258   4.674   0.106 -0.3025  0.1424 -0.2637
 1496TIP3    H125903   3.244   4.758   0.151  0.2550  0.9985 -1.6063
 1496TIP3    H225904   3.170   4.641   0.090 -0.5953  1.1485 -0.8697
 1497TIP3   OH225905   1.914   1.392   9.317  0.3581  0.1829 -0.0631
 1497TIP3    H125906   1.960   1.346   9.388  0.3080  0.3140  0.0521
 1497TIP3    H225907   1.914   1.329   9.245  0.1317 -0.0665  0.1544
 1498TIP3   OH225908   6.658   6.203  10.658  0.0664 -0.4918  0.0578
 1498TIP3    H125909   6.564   6.199  10.675  0.4244 -2.3036  1.9574
 1498TIP3    H225910   6.699   6.177  10.740  2.1954 -1.2246 -1.1539
 1499TIP3   OH225911   2.547   5.927  13.732 -0.8354  0.2805  0.2367
 1499TIP3    H125912   2.531   5.990  13.802  1.4519  0.4157  0.7155
 1499TIP3    H225913   2.492   5.852  13.753 -0.9370  0.7258  1.6265
 1500TIP3   OH225914   3.329   3.656  12.568 -0.3116 -0.8887  0.4001
 1500TIP3    H125915   3.273   3.606  12.509 -2.8856  0.9945  1.0509
 1500TIP3    H225916   3.324   3.746  12.536  0.8856 -0.3559  1.6000
 1501TIP3   OH225917   5.637   5.556  13.111  0.4209 -0.1285  0.1369
 1501TIP3    H125918   5.687   5.558  13.029 -1.8416 -0.8655 -1.3543
 1501TIP3    H225919   5.646   5.467  13.143  0.4904 -0.1135  0.1590
 1502TIP3   OH225920   5.245   4.536  11.743 -0.2590 -0.1009 -0.4379
 1502TIP3    H125921   5.259   4.617  11.790  1.2224 -0.8263  0.4211
 1502TIP3    H225922   5.187   4.561  11.670 -1.3645  1.3257  0.8480
 1503TIP3   OH225923   0.684   6.742   9.752 -0.6158  0.2775  0.2493
 1503TIP3    H125924   0.669   6.763   9.844  0.4696  2.5219 -0.0282
 1503TIP3    H225925   0.708   6.826   9.711  2.2070 -1.1702 -1.4002
 1504TIP3   OH225926   0.089   0.984  12.124 -0.1460  0.4932 -0.7627
 1504TIP3    H125927   0.003   0.971  12.084  0.4919 -0.0877 -1.9859
 1504TIP3    H225928   0.103   0.905  12.177  0.1998 -0.0344 -1.6303
 1505TIP3   OH225929   1.227   3.216  12.382  0.0277 -0.1915 -0.5044
 1505TIP3    H125930   1.162   3.149  12.361 -0.1788  0.0504 -0.6411
 1505TIP3    H225931   1.309   3.168  12.388  0.2353 -0.1964 -2.6280
 1506TIP3   OH225932   3.297   2.370   9.609 -0.2717  0.3403 -0.5158
 1506TIP3    H125933   3.369   2.317   9.576 -0.0608 -0.9412  1.8378
 1506TIP3    H225934   3.312   2.457   9.571  1.3864 -0.3840 -1.6129
 1507TIP3   OH225935   0.607   1.919   5.856  0.5026  0.6623 -0.0099
 1507TIP3    H125936   0.528   1.938   5.907  0.9917  0.5721  0.7917
 1507TIP3    H225937   0.679   1.948   5.911  1.0649  0.1492 -0.4630
 1508TIP3   OH225938   0.637   3.888  13.873 -0.7688  0.2037 -0.3900
 1508TIP3    H125939   0.605   3.978  13.870  0.1610  0.5276 -1.5332
 1508TIP3    H225940   0.669   3.877  13.962 -1.2844  0.8714 -0.1171
 1509TIP3   OH225941   6.101   2.454  13.098 -0.2309 -0.5566  0.7133
 1509TIP3    H125942   6.068   2.369  13.067  1.0460 -1.1893  0.9987
 1509TIP3    H225943   6.024   2.510  13.102 -1.3559 -2.1169  1.8888
 1510TIP3   OH225944   5.487   5.176  11.708  0.5709 -0.2992 -0.0932
 1510TIP3    H125945   5.458   5.131  11.787  0.1052 -0.6242 -0.4432
 1510TIP3    H225946   5.558   5.233  11.738  0.7607 -0.8110  0.4631
 1511TIP3   OH225947   4.828   2.582  14.242 -0.2798 -0.2712 -0.5037
 1511TIP3    H125948   4.853   2.551  14.155  4.1517  0.1255  0.3989
 1511TIP3    H225949   4.863   2.670  14.247 -0.1568 -0.3930  1.7747
 1512TIP3   OH225950   7.072   4.700  15.469 -0.1612 -0.5056  0.2025
 1512TIP3    H125951   7.015   4.679  15.543 -1.3667  1.4170 -0.1046
 1512TIP3    H225952   7.016   4.690  15.392 -0.5521  2.4759 -0.0364
 1513TIP3   OH225953   4.964   4.853  10.104  0.0479  0.1439 -0.1499
 1513TIP3    H125954   4.907   4.776  10.112 -0.8128  0.8222  0.4833
 1513TIP3    H225955   4.920   4.909  10.040  0.6699  0.1109 -0.6091
 1514TIP3   OH225956   1.447   2.669  12.427  0.4552  0.1587 -0.3381
 1514TIP3    H125957   1.470   2.735  12.361 -2.2530  0.3786 -1.2253
 1514TIP3    H225958   1.359   2.640  12.401  0.1673 -1.3123  1.9971
 1515TIP3   OH225959   4.899   4.193   0.044 -0.0131 -0.1207  0.0277
 1515TIP3    H125960   4.875   4.210  -0.047  2.0929  0.7008 -0.4217
 1515TIP3    H225961   4.994   4.199   0.046  0.1438 -1.8978  1.9497
 1516TIP3   OH225962   1.940   2.330  13.410 -0.2556 -0.1356  0.1258
 1516TIP3    H125963   2.014   2.390  13.406 -0.5773  0.3445  1.1776
 1516TIP3    H225964   1.918   2.314  13.318  1.0061 -0.1235 -0.1998
 1517TIP3   OH225965   4.925   6.102  15.617 -0.7790 -0.4112 -0.0949
 1517TIP3    H125966   4.907   6.114  15.710 -0.4781  0.0314 -0.0910
 1517TIP3    H225967   4.896   6.184  15.576  1.3006  0.3943 -0.0715
 1518TIP3   OH225968   5.505   2.522  13.127 -0.2280  0.0163 -0.0400
 1518TIP3    H125969   5.434   2.532  13.064  0.7478  1.1752 -1.0321
 1518TIP3    H225970   5.559   2.452  13.091 -0.2577 -0.0753  0.0949
 1519TIP3   OH225971   3.410   4.912  10.482  0.7838 -0.0215 -0.8074
 1519TIP3    H125972   3.472   4.984  10.475 -0.7488  1.3060 -1.5527
 1519TIP3    H225973   3.366   4.910  10.397 -0.8818 -0.1918  0.0136
 1520TIP3   OH225974   0.065   5.497  12.438 -0.3551  0.0442 -0.2504
 1520TIP3    H125975   0.037   5.569  12.494  0.8726  0.6682 -0.4020
 1520TIP3    H225976   0.080   5.424  12.498 -1.0647  0.0770 -0.0281
 1521TIP3   OH225977   3.893   0.423  10.156  0.8203  0.1214 -0.4397
 1521TIP3    H125978   3.873   0.510  10.121 -1.6768 -0.9364 -1.9046
 1521TIP3    H225979   3.858   0.362  10.091  1.2436 -1.9881  1.1990
 1522TIP3   OH225980   5.675   1.517  10.432  0.3212 -0.5590  0.0247
 1522TIP3    H125981   5.657   1.439  10.380  0.9166 -1.4054  1.0453
 1522TIP3    H225982   5.709   1.483  10.515  2.3951  0.7934 -0.1865
 1523TIP3   OH225983   2.514   4.565   3.096  0.3999 -0.2056  0.3885
 1523TIP3    H125984   2.568   4.633   3.137 -0.4001  0.0603  1.0301
 1523TIP3    H225985   2.577   4.505   3.057  1.1050  1.3875 -1.0136
 1524TIP3   OH225986   0.986   4.499  12.011 -0.3145 -0.2242  0.3939
 1524TIP3    H125987   0.969   4.405  12.021  2.7639 -1.0068 -0.5079
 1524TIP3    H225988   0.935   4.525  11.934 -0.6697 -1.3482  0.2314
 1525TIP3   OH225989   0.661   3.330  10.175  0.1704  0.7204  0.6651
 1525TIP3    H125990   0.688   3.306  10.087 -1.2589  0.6625  0.2199
 1525TIP3    H225991   0.706   3.413  10.192  1.2966  0.2058  0.3257
 1526TIP3   OH225992   6.370   0.765  11.686 -0.3905  0.6939  0.3717
 1526TIP3    H125993   6.387   0.682  11.642 -1.2331 -0.2100  1.6764
 1526TIP3    H225994   6.455   0.810  11.685 -0.0943  0.1492 -0.9811
 1527TIP3   OH225995   3.199   0.925  11.582 -0.3912 -0.1024 -0.5851
 1527TIP3    H125996   3.167   0.859  11.644 -2.5248  1.5936  0.2490
 1527TIP3    H225997   3.147   0.910  11.502 -1.4901  0.9915 -0.1199
 1528TIP3   OH225998   1.996   1.168  13.818  0.5433 -0.0697 -0.4319
 1528TIP3    H125999   2.016   1.201  13.731  1.6630 -0.1619 -0.2285
 1528TIP3    H226000   2.066   1.105  13.836 -0.2838 -0.8524  0.1015
 1529TIP3   OH226001   4.967   3.652  11.935 -0.4930  0.9730 -0.4060
 1529TIP3    H126002   4.916   3.616  11.862 -0.6738  0.1729  0.0971
 1529TIP3    H226003   4.948   3.593  12.008  1.0760  0.7070 -0.1799
 1530TIP3   OH226004   5.443   6.792  12.868  0.4456  0.8113  0.0202
 1530TIP3    H126005   5.431   6.704  12.902  1.0605  1.1171  1.0879
 1530TIP3    H226006   5.441   6.849  12.945 -1.4248  1.9183 -0.7716
 1531TIP3   OH226007   6.604   2.176  13.009  0.5767 -0.2697  0.0052
 1531TIP3    H126008   6.523   2.170  13.059  0.9898 -0.3136  0.6925
 1531TIP3    H226009   6.580   2.220  12.928  0.1791  1.2857  0.9267
 1532TIP3   OH226010   5.273   1.402  12.801 -0.1787  0.1044 -0.5635
 1532TIP3    H126011   5.332   1.329  12.821 -1.8807 -0.9113  1.0112
 1532TIP3    H226012   5.185   1.366  12.811 -1.1028  1.9222 -1.5622
 1533TIP3   OH226013   5.178   1.764  10.608  0.3108  0.3571  0.3649
 1533TIP3    H126014   5.191   1.774  10.702  0.8752 -1.5046  0.5401
 1533TIP3    H226015   5.258   1.721  10.578 -0.1035  0.4086 -0.8678
 1534TIP3   OH226016   0.960   6.750   2.607  0.5464  0.8681  0.2844
 1534TIP3    H126017   0.881   6.701   2.629  1.2977  0.3958  2.1818
 1534TIP3    H226018   0.929   6.839   2.591 -0.3365  0.8383  1.6232
 1535TIP3   OH226019   4.545   4.581  13.261 -0.0254  0.5656 -0.4018
 1535TIP3    H126020   4.539   4.625  13.345  0.1008  0.7766 -0.5031
 1535TIP3    H226021   4.533   4.488  13.282 -0.1424  0.6328 -0.1723
 1536TIP3   OH226022   1.267   6.000  11.653  0.0258  0.2659 -0.5496
 1536TIP3    H126023   1.254   5.988  11.747  0.5821  0.7353 -0.4077
 1536TIP3    H226024   1.308   5.918  11.624 -1.1970 -0.3514 -0.6095
 1537TIP3   OH226025   4.234   4.940  13.214  0.1371 -0.2803  0.6903
 1537TIP3    H126026   4.208   4.878  13.283  0.8787 -1.7654 -0.3148
 1537TIP3    H226027   4.182   4.915  13.138  1.4802 -0.6065 -0.1398
 1538TIP3   OH226028   5.966   5.966  11.800  0.4015 -0.7107 -0.0797
 1538TIP3    H126029   5.937   5.986  11.889  3.0126  0.3324  0.6218
 1538TIP3    H226030   5.909   5.894  11.772 -2.1963  0.6181  1.4086
 1539TIP3   OH226031   2.452   2.905  13.628 -0.2995  0.2084 -0.2693
 1539TIP3    H126032   2.463   2.908  13.723  1.5697  2.6112 -0.4734
 1539TIP3    H226033   2.458   2.812  13.606  1.4117 -0.2290  1.7467
 1540TIP3   OH226034   0.362   6.923  14.706 -0.5971  0.0938  0.3755
 1540TIP3    H126035   0.342   7.016  14.697 -1.0673  0.2819  2.6743
 1540TIP3    H226036   0.393   6.896  14.620 -2.2254  1.9290 -0.8593
 1541TIP3   OH226037   3.373   0.438   0.812 -0.9308 -0.0149  0.4937
 1541TIP3    H126038   3.325   0.496   0.754 -0.0638 -1.0218 -1.3001
 1541TIP3    H226039   3.339   0.351   0.793  2.5569 -1.0513 -2.0979
 1542TIP3   OH226040   6.093   2.688   9.867 -0.0039 -0.9681  0.0283
 1542TIP3    H126041   6.179   2.723   9.845  0.3617 -1.8171  0.0423
 1542TIP3    H226042   6.062   2.742   9.940  0.7073 -0.9339  0.3091
 1543TIP3   OH226043   3.104   1.690  13.612  0.4337  0.6508 -0.8137
 1543TIP3    H126044   3.098   1.616  13.552 -0.1556  0.4551 -0.5220
 1543TIP3    H226045   3.196   1.694  13.636  0.6088  0.5020 -1.4403
 1544TIP3   OH226046   0.993   5.273  14.347 -0.6042  0.0790 -0.3902
 1544TIP3    H126047   0.989   5.182  14.374  0.8292  0.0902 -0.0797
 1544TIP3    H226048   1.083   5.285  14.315 -0.1957  1.8319  1.2503
 1545TIP3   OH226049   0.065   1.976   5.160 -0.4946 -0.0942  0.1375
 1545TIP3    H126050   0.139   2.036   5.154  0.2074 -0.9616  0.0918
 1545TIP3    H226051  -0.007   2.023   5.118 -0.4891  1.5278  1.8101
 1546TIP3   OH226052   2.329   4.745  13.671 -0.3009 -0.5828  0.3863
 1546TIP3    H126053   2.306   4.837  13.668 -0.9851 -0.7564  0.0390
 1546TIP3    H226054   2.424   4.744  13.664 -0.3089  0.0829  0.1244
 1547TIP3   OH226055   4.748   2.497   0.686  0.0945 -0.5806 -0.1425
 1547TIP3    H126056   4.795   2.524   0.607 -0.5607  1.2872  0.0474
 1547TIP3    H226057   4.687   2.430   0.656  0.3974 -0.4566 -1.0820
 1548TIP3   OH226058   4.092   1.317  11.591  0.1086  0.1589 -0.7043
 1548TIP3    H126059   4.096   1.411  11.576  1.2523  0.2574  0.0853
 1548TIP3    H226060   4.126   1.305  11.680 -2.5834 -0.7621  0.3071
 1549TIP3   OH226061   5.878   3.744  12.663  0.2604  0.1193 -0.1662
 1549TIP3    H126062   5.957   3.799  12.659  1.4295 -1.2992  1.3859
 1549TIP3    H226063   5.871   3.721  12.756 -1.5323 -0.4828 -0.4174
 1550TIP3   OH226064   5.811   3.575  12.055 -0.4640 -0.1379  0.1276
 1550TIP3    H126065   5.768   3.616  11.980  1.6385  1.2982 -0.3753
 1550TIP3    H226066   5.886   3.631  12.073  0.7040 -2.0423  1.5039
 1551TIP3   OH226067   3.788   6.449  11.411 -0.1301  0.6529  0.3192
 1551TIP3    H126068   3.870   6.494  11.426 -0.0118  1.4787 -2.2670
 1551TIP3    H226069   3.814   6.364  11.374 -0.4410  0.1528  1.2103
 1552TIP3   OH226070   6.422   3.108  11.800 -0.5692  0.1969 -0.1760
 1552TIP3    H126071   6.477   3.031  11.810 -2.0745 -0.8942  0.1183
 1552TIP3    H226072   6.455   3.170  11.865 -0.5275 -0.9541  0.9358
 1553TIP3   OH226073   1.915   6.545  14.653  0.0557 -0.4422  0.6847
 1553TIP3    H126074   1.945   6.586  14.735 -0.4970 -0.7769  1.0582
 1553TIP3    H226075   1.950   6.602  14.584 -0.1787  0.3174  1.1802
 1554TIP3   OH226076   2.710   3.487  14.404  0.7486  0.3045 -0.3284
 1554TIP3    H126077   2.684   3.563  14.353  1.2045  1.2019  0.7364
 1554TIP3    H226078   2.638   3.424  14.392 -0.0164  1.2113 -0.5951
 1555TIP3   OH226079   1.305   3.091  13.226 -0.0704 -0.3193 -0.3259
 1555TIP3    H126080   1.234   3.034  13.256 -0.8729  1.5888  1.6227
 1555TIP3    H226081   1.262   3.166  13.187  0.8440  0.6682  0.4891
 1556TIP3   OH226082   0.876   6.348  11.248  0.3421  0.2649  0.0092
 1556TIP3    H126083   0.852   6.267  11.292  0.3301  1.2322  1.8982
 1556TIP3    H226084   0.844   6.337  11.158  1.6806 -2.3821 -0.2492
 1557TIP3   OH226085   1.982   0.630  14.141 -0.1356 -0.0675  0.5151
 1557TIP3    H126086   1.913   0.564  14.138  1.4274 -1.7332 -0.3768
 1557TIP3    H226087   1.943   0.707  14.100 -1.5270 -0.8823  0.2565
 1558TIP3   OH226088   0.660   2.321  15.228  0.5724  0.3629 -0.2804
 1558TIP3    H126089   0.701   2.328  15.142  1.6800  1.9525  0.3309
 1558TIP3    H226090   0.570   2.293  15.210  1.1248 -0.5325 -1.8459
 1559TIP3   OH226091   2.749   2.923  15.168 -0.2179 -0.2349 -0.3627
 1559TIP3    H126092   2.796   2.953  15.246 -1.8188 -0.9838  0.9620
 1559TIP3    H226093   2.664   2.967  15.174  0.5811  2.0760 -3.3519
 1560TIP3   OH226094   2.658   3.309  13.469  0.3397 -0.2436 -0.6798
 1560TIP3    H126095   2.658   3.375  13.400 -0.4211 -0.2553 -0.6982
 1560TIP3    H226096   2.706   3.235  13.431 -0.6321 -0.4953 -1.4433
 1561TIP3   OH226097   3.928   4.920  12.429  0.1901  0.4186  0.0743
 1561TIP3    H126098   3.935   5.010  12.399 -1.1386  0.8028  0.8201
 1561TIP3    H226099   3.950   4.867  12.353  0.6599  1.3601 -0.4640
 1562TIP3   OH226100   6.500   4.963  12.643 -0.0607 -0.2119 -0.1105
 1562TIP3    H126101   6.460   5.039  12.600 -1.0073  0.4901  1.8812
 1562TIP3    H226102   6.532   4.909  12.571  1.5336  2.4955 -1.6282
 1563TIP3   OH226103   1.019   1.831  11.409  0.5732 -0.3212  0.3725
 1563TIP3    H126104   1.027   1.786  11.493 -2.5669 -0.0902  0.8970
 1563TIP3    H226105   0.989   1.763  11.348 -1.1989  0.3230  0.4631
 1564TIP3   OH226106   0.290   2.899  10.355  0.1286  0.1202 -0.3262
 1564TIP3    H126107   0.377   2.865  10.375 -0.2915  0.4456  2.3092
 1564TIP3    H226108   0.306   2.976  10.300  1.5919  0.7504  0.9241
 1565TIP3   OH226109   0.670   0.152   4.982 -0.0902  0.0371 -0.3794
 1565TIP3    H126110   0.761   0.173   5.002 -0.9502  1.9506  1.9508
 1565TIP3    H226111   0.663   0.058   5.002  1.0393  0.1940  0.9236
 1566TIP3   OH226112   6.698   0.989  12.739 -0.9422  0.2724 -0.1197
 1566TIP3    H126113   6.739   0.945  12.664 -1.3853  0.0309 -0.2184
 1566TIP3    H226114   6.672   1.075  12.704 -2.0171 -0.1963 -0.5131
 1567TIP3   OH226115   4.902   3.112  10.199 -0.4733 -0.2753  0.4673
 1567TIP3    H126116   4.888   3.189  10.144  1.8832  0.2589  0.4727
 1567TIP3    H226117   4.832   3.051  10.175 -1.4966  1.2796 -0.6325
 1568TIP3   OH226118   2.352   6.785  12.017  0.3443  0.4611 -0.2964
 1568TIP3    H126119   2.340   6.725  11.943 -0.6566  0.9973 -0.5911
 1568TIP3    H226120   2.324   6.736  12.094  0.3312  0.2727 -0.4208
 1569TIP3   OH226121   4.217   3.741  11.346  0.2499  0.1324  0.0394
 1569TIP3    H126122   4.287   3.743  11.281  0.2373 -1.0119 -0.0196
 1569TIP3    H226123   4.222   3.654  11.386  0.6379  0.9966  2.0028
 1570TIP3   OH226124   0.667   1.483  13.913 -0.1339  0.6919  0.6095
 1570TIP3    H126125   0.705   1.570  13.908  0.2343  0.5100  0.2077
 1570TIP3    H226126   0.668   1.462  14.007  1.4883  0.3793  0.5460
 1571TIP3   OH226127   1.313   5.879  10.047 -0.3325 -0.1626  0.6691
 1571TIP3    H126128   1.269   5.913   9.969  0.3283  1.0069  0.7844
 1571TIP3    H226129   1.400   5.919  10.045  0.0112 -0.8417  1.5200
 1572TIP3   OH226130   6.386   1.681  12.162 -0.4629  0.2627  0.3880
 1572TIP3    H126131   6.479   1.674  12.182 -0.6556  1.6865  2.0434
 1572TIP3    H226132   6.383   1.710  12.071  0.6276 -1.5370 -0.2679
 1573TIP3   OH226133   2.025   6.204   1.842 -0.4947 -0.8591 -0.2312
 1573TIP3    H126134   2.107   6.156   1.833  0.2346 -0.3815  2.8499
 1573TIP3    H226135   2.044   6.292   1.808  1.0058 -0.1069  2.3504
 1574TIP3   OH226136   3.103   3.268   3.322  0.0276  0.3426  0.0576
 1574TIP3    H126137   3.112   3.358   3.354 -0.4592  0.6824 -0.7165
 1574TIP3    H226138   3.141   3.214   3.391  0.5202  1.1574  0.4419
 1575TIP3   OH226139   1.007   5.618  14.712 -0.2306 -0.5394 -0.5829
 1575TIP3    H126140   1.101   5.596  14.709 -0.3320 -1.3861  1.1964
 1575TIP3    H226141   1.005   5.709  14.741  0.0371 -0.6388 -0.2461
 1576TIP3   OH226142   2.051   6.152   0.338  0.1669 -0.0764 -0.4930
 1576TIP3    H126143   2.123   6.145   0.401 -1.6941 -0.1079  1.8058
 1576TIP3    H226144   2.041   6.246   0.323  0.0926 -0.0088 -0.0394
 1577TIP3   OH226145   4.127   4.785  13.396 -0.8581  0.1486  0.3515
 1577TIP3    H126146   4.049   4.837  13.378 -1.3063  0.2094  2.3017
 1577TIP3    H226147   4.105   4.697  13.367 -1.1139  0.4635 -0.4185
 1578TIP3   OH226148   1.576   1.945   4.048 -0.6917  0.1058  0.0618
 1578TIP3    H126149   1.567   2.037   4.024  2.1757  0.1389 -1.3091
 1578TIP3    H226150   1.583   1.898   3.965 -0.4895 -1.1253  0.7329
 1579TIP3   OH226151   0.682   0.919  12.824  0.0671 -0.2441 -0.2197
 1579TIP3    H126152   0.765   0.952  12.856  0.5378 -1.3194 -0.2707
 1579TIP3    H226153   0.677   0.951  12.733  0.8300 -0.8501 -0.4907
 1580TIP3   OH226154   3.654   3.536  11.641  0.6978  0.1091 -0.8874
 1580TIP3    H126155   3.621   3.587  11.567 -0.6945  1.4517  0.5899
 1580TIP3    H226156   3.733   3.495  11.608  0.0181  0.4975 -3.1823
 1581TIP3   OH226157   0.429   3.031  11.728  0.2437 -0.7590  0.0470
 1581TIP3    H126158   0.415   2.955  11.671  0.3282 -0.0187 -1.0065
 1581TIP3    H226159   0.523   3.048  11.724  0.3001 -0.9028  0.6877
 1582TIP3   OH226160   6.610   6.315  15.557  0.6765 -0.0128  0.0296
 1582TIP3    H126161   6.597   6.229  15.597  1.4980 -1.3240 -2.3753
 1582TIP3    H226162   6.702   6.336  15.575  0.0267  1.3368  2.2406
 1583TIP3   OH226163   3.792   5.386  11.669 -0.1277 -0.1512  0.1831
 1583TIP3    H126164   3.775   5.300  11.631  0.0958 -0.7672  1.3963
 1583TIP3    H226165   3.774   5.448  11.599 -0.4651 -1.1785 -0.6654
 1584TIP3   OH226166   0.835   4.195  11.524 -0.4445 -0.4022 -0.0101
 1584TIP3    H126167   0.825   4.277  11.573  1.6864  1.0091 -1.7077
 1584TIP3    H226168   0.747   4.158  11.520 -1.2941  1.2417  1.7375
 1585TIP3   OH226169   0.436   3.996   0.818  0.5670 -0.3763  0.4217
 1585TIP3    H126170   0.394   3.988   0.903  1.4683 -0.0377  0.9101
 1585TIP3    H226171   0.372   4.042   0.764 -0.7478 -2.1702  0.3647
 1586TIP3   OH226172   4.249   4.444  14.120  0.3263  0.0323 -0.6275
 1586TIP3    H126173   4.281   4.357  14.147  0.9686  0.9761  1.9200
 1586TIP3    H226174   4.328   4.497  14.111 -0.1500  0.8311 -0.2339
 1587TIP3   OH226175   3.412   5.559  10.373  0.0291 -0.3288 -0.4167
 1587TIP3    H126176   3.330   5.552  10.420 -0.1229  0.7416 -0.4941
 1587TIP3    H226177   3.400   5.505  10.295 -0.3445 -0.7194 -0.0909
 1588TIP3   OH226178   0.263   4.041  15.349  0.3492  0.8547  0.5612
 1588TIP3    H126179   0.342   3.991  15.327 -0.5298  0.0233 -0.8962
 1588TIP3    H226180   0.194   3.976  15.353 -0.5714  1.7773  0.0448
 1589TIP3   OH226181   5.101   6.197  14.266  0.4961  0.1027  0.1017
 1589TIP3    H126182   5.173   6.141  14.236  0.8884  1.1941 -1.0785
 1589TIP3    H226183   5.062   6.231  14.186 -0.0710  1.1020  0.7734
 1590TIP3   OH226184   3.975   0.593  14.421  0.2005 -0.6748 -0.4461
 1590TIP3    H126185   4.043   0.584  14.354 -0.6599 -0.3300 -1.3863
 1590TIP3    H226186   4.024   0.608  14.502  1.3181 -2.9461 -0.6356
 1591TIP3   OH226187   2.405   2.962  14.271 -0.5892 -0.1996  0.4191
 1591TIP3    H126188   2.335   3.007  14.223 -0.4722 -0.0243  0.4107
 1591TIP3    H226189   2.404   2.873  14.236  2.5584  0.9623 -3.4371
 1592TIP3   OH226190   0.176   2.920  12.669 -0.2124 -0.1461  0.1315
 1592TIP3    H126191   0.208   2.831  12.683  1.8559  0.3693 -0.9988
 1592TIP3    H226192   0.109   2.911  12.601 -0.8648 -0.9505  0.8525
 1593TIP3   OH226193   2.913   1.652  11.093 -0.0772 -0.6204 -0.3890
 1593TIP3    H126194   2.899   1.740  11.127  2.2979 -0.4658  0.3822
 1593TIP3    H226195   2.870   1.595  11.157  0.5582 -0.1128  0.5246
 1594TIP3   OH226196   3.394   5.393  13.782  0.5127 -0.2776  0.4175
 1594TIP3    H126197   3.421   5.304  13.762 -0.1949 -0.6415  1.0148
 1594TIP3    H226198   3.458   5.449  13.738  0.7876 -1.0757 -0.2067
 1595TIP3   OH226199   3.154   0.902  12.964 -0.1569  0.4715 -1.2099
 1595TIP3    H126200   3.130   0.959  12.891  0.0695  1.3334 -0.6288
 1595TIP3    H226201   3.249   0.908  12.970 -0.2719  1.8589  0.2446
 1596TIP3   OH226202   2.437   4.982  11.111 -0.6001 -0.0934 -0.6541
 1596TIP3    H126203   2.470   4.910  11.056  1.2493 -0.3528  0.6724
 1596TIP3    H226204   2.456   4.953  11.201  0.5805  2.2077 -0.0937
 1597TIP3   OH226205   6.425   5.289  15.258 -0.0256 -0.4859 -0.6496
 1597TIP3    H126206   6.417   5.369  15.310 -0.8934  0.6600 -2.4329
 1597TIP3    H226207   6.374   5.224  15.306 -0.4677  0.4171  0.1329
 1598TIP3   OH226208   4.282   4.597  14.658 -0.2414 -0.9057 -0.6896
 1598TIP3    H126209   4.287   4.531  14.590 -1.6208  0.7175 -2.4877
 1598TIP3    H226210   4.190   4.624  14.658  0.2230  0.8419  0.1183
 1599TIP3   OH226211   4.618   1.806   1.164  0.0273 -0.5929  0.3038
 1599TIP3    H126212   4.539   1.844   1.201  0.7226  0.4980  0.7245
 1599TIP3    H226213   4.670   1.780   1.240  0.7311  0.1096  0.0737
 1600TIP3   OH226214   0.381   0.099  10.689 -0.0116  0.8415 -0.1140
 1600TIP3    H126215   0.317   0.164  10.660 -1.5856 -0.3198  0.5833
 1600TIP3    H226216   0.423   0.069  10.608 -0.1551  1.8027 -0.5627
 1601TIP3   OH226217   5.856   3.516   4.999  0.0041 -0.0591  0.1086
 1601TIP3    H126218   5.948   3.537   4.983 -0.0905  0.9571  0.7768
 1601TIP3    H226219   5.846   3.523   5.094 -0.7842 -0.0800  0.0378
 1602TIP3   OH226220   1.112   4.041   1.416  0.3763  0.4004 -0.2859
 1602TIP3    H126221   1.038   4.085   1.374 -0.8471 -1.0336  0.2622
 1602TIP3    H226222   1.189   4.087   1.384 -0.7920  2.5812 -0.1386
 1603TIP3   OH226223   5.122   2.489   4.434 -0.3067 -0.2267  0.1715
 1603TIP3    H126224   5.075   2.563   4.472 -0.8915  0.2462 -1.3984
 1603TIP3    H226225   5.161   2.524   4.353  3.4495 -0.3555  1.6961
 1604TIP3   OH226226   0.239   3.932   9.777  0.1885 -0.1576 -0.4187
 1604TIP3    H126227   0.295   3.899   9.848 -1.8860 -1.0269  0.9224
 1604TIP3    H226228   0.276   3.895   9.698  1.0053 -1.4363  0.5205
 1605TIP3   OH226229   4.624   3.022  13.041  0.8825  0.0137  0.0627
 1605TIP3    H126230   4.565   3.019  12.965 -0.2370 -0.2305  0.9091
 1605TIP3    H226231   4.580   2.969  13.107  2.1885 -0.3674  0.6612
 1606TIP3   OH226232   5.898   7.057  12.950  0.2719  0.1511  0.3463
 1606TIP3    H126233   5.810   7.072  12.915  0.5012  0.0974 -0.2654
 1606TIP3    H226234   5.954   7.117  12.901  0.5967  0.0966  0.6483
 1607TIP3   OH226235   4.166   1.330  14.315 -0.6125  0.0341  0.4787
 1607TIP3    H126236   4.257   1.305  14.327 -1.0275 -1.7308  0.2758
 1607TIP3    H226237   4.169   1.423  14.294  1.1005  0.1021  0.8847
 1608TIP3   OH226238   5.005   0.606   3.189 -0.2562 -0.1089  0.1852
 1608TIP3    H126239   5.020   0.649   3.273 -0.4849 -0.1301  0.2393
 1608TIP3    H226240   5.027   0.673   3.123 -1.6134  0.4697  0.2691
 1609TIP3   OH226241   0.821   6.882  11.505  0.1228  0.5067 -0.0115
 1609TIP3    H126242   0.878   6.825  11.454  1.5831  0.8362  1.2083
 1609TIP3    H226243   0.781   6.940  11.440 -0.7451 -1.2797 -1.1767
 1610TIP3   OH226244   0.474   5.636   9.942 -0.2014  0.1660 -0.2298
 1610TIP3    H126245   0.435   5.707   9.993 -0.8341  0.1286 -0.6541
 1610TIP3    H226246   0.470   5.667   9.851  1.7891  0.6471 -0.2018
 1611TIP3   OH226247   6.851   5.455  12.720  0.2753 -0.3623 -0.2183
 1611TIP3    H126248   6.761   5.454  12.688  0.0021  0.5548  0.4939
 1611TIP3    H226249   6.885   5.541  12.696  0.6476 -0.3358  0.3790
 1612TIP3   OH226250   5.243   2.306  13.197 -0.3267  0.2076  0.5041
 1612TIP3    H126251   5.182   2.236  13.172 -1.9955  1.7302  0.1186
 1612TIP3    H226252   5.329   2.271  13.173 -1.1888 -1.3344 -0.5750
 1613TIP3   OH226253   3.819   5.308  11.187  0.5141  0.1156 -0.0637
 1613TIP3    H126254   3.746   5.368  11.201 -0.3246 -1.1945  1.4873
 1613TIP3    H226255   3.804   5.272  11.099  0.9959  2.0541 -0.9876
 1614TIP3   OH226256   4.933   0.923   2.534 -0.4799  0.3350  0.1991
 1614TIP3    H126257   5.004   0.865   2.507 -0.8686 -0.4164  0.7387
 1614TIP3    H226258   4.858   0.895   2.481 -1.9696 -2.8710  3.5281
 1615TIP3   OH226259   5.704   1.321  10.635  0.3566  0.7870  0.3713
 1615TIP3    H126260   5.771   1.261  10.601  0.3468  0.8527  0.2332
 1615TIP3    H226261   5.754   1.390  10.679  0.3426  0.2291  1.2930
 1616TIP3   OH226262   4.916   4.704  15.363 -0.4097 -0.3860  0.6185
 1616TIP3    H126263   4.850   4.738  15.423 -0.8788 -1.8936  0.9962
 1616TIP3    H226264   4.932   4.615  15.393  2.3313  0.1323  0.9789
 1617TIP3   OH226265   4.768   1.015  10.187 -0.0770 -0.1488 -0.3364
 1617TIP3    H126266   4.814   1.043  10.267  1.3363  0.4923 -1.3380
 1617TIP3    H226267   4.706   0.949  10.217  2.0161 -1.6298  1.0073
 1618TIP3   OH226268   0.159   1.013   1.720  0.2108  0.1616  0.3334
 1618TIP3    H126269   0.175   0.930   1.764  0.7503 -0.2234 -0.5543
 1618TIP3    H226270   0.122   1.070   1.788 -0.6584 -0.9498  0.8201
 1619TIP3   OH226271   4.161   0.168   4.125 -0.2727  1.2130 -0.0248
 1619TIP3    H126272   4.149   0.178   4.031 -2.2264  0.6512  0.1298
 1619TIP3    H226273   4.156   0.257   4.160 -0.1330  1.3615 -0.3791
 1620TIP3   OH226274   2.231   6.554   5.490 -0.9105  0.3902 -0.0706
 1620TIP3    H126275   2.222   6.460   5.508 -2.5056  0.4653 -0.3091
 1620TIP3    H226276   2.308   6.581   5.540 -0.7814 -0.9237  0.4801
 1621TIP3   OH226277   2.008   3.443  14.749  0.4361 -0.1208 -0.3077
 1621TIP3    H126278   2.091   3.458  14.794 -0.3778  3.4051  0.2781
 1621TIP3    H226279   2.008   3.505  14.676 -1.3038 -0.7211 -0.8809
 1622TIP3   OH226280   0.627   5.912   5.118  0.7213 -0.3680 -0.0850
 1622TIP3    H126281   0.701   5.925   5.058  1.4817 -0.3571  0.8317
 1622TIP3    H226282   0.563   5.863   5.066  1.1870 -0.0069 -1.0315
 1623TIP3   OH226283   3.139   3.435  10.371 -0.0118  0.3579  0.1980
 1623TIP3    H126284   3.048   3.432  10.401  0.2302  1.4900  1.1327
 1623TIP3    H226285   3.139   3.497  10.298  0.1398  1.0846  0.7958
 1624TIP3   OH226286   3.036   5.587   9.664 -0.8642 -0.3493  0.1375
 1624TIP3    H126287   3.057   5.632   9.746 -3.4918  1.3477 -0.0237
 1624TIP3    H226288   3.031   5.494   9.688 -0.0768 -0.0536  1.5374
 1625TIP3   OH226289   1.287   7.113  10.259 -0.0558  0.4772  0.0052
 1625TIP3    H126290   1.202   7.076  10.281 -0.1426  1.3032  1.1130
 1625TIP3    H226291   1.347   7.076  10.325  0.2533  0.6835 -0.1584
 1626TIP3   OH226292   5.152   4.267   1.001 -0.0644 -0.0126 -0.1542
 1626TIP3    H126293   5.083   4.209   0.969  1.6656 -1.9043 -0.6791
 1626TIP3    H226294   5.233   4.229   0.967  1.1831  2.7735 -0.5513
 1627TIP3   OH226295   1.785   5.274   0.697  0.2345  0.2579  0.5418
 1627TIP3    H126296   1.690   5.281   0.705  0.4358  1.1049  3.5423
 1627TIP3    H226297   1.819   5.333   0.765  2.9783  1.4844 -1.6708
 1628TIP3   OH226298   6.409   3.638  10.970  0.2223 -0.2470  0.1437
 1628TIP3    H126299   6.365   3.553  10.970 -1.6828  0.6649 -1.8309
 1628TIP3    H226300   6.360   3.691  11.032 -0.9627  0.4665 -1.3310
 1629TIP3   OH226301   3.385   3.159  12.226 -0.1732  0.1188  0.5587
 1629TIP3    H126302   3.428   3.083  12.188 -1.4629 -0.9407  1.1203
 1629TIP3    H226303   3.411   3.232  12.170 -0.5100 -1.0714 -1.2427
 1630TIP3   OH226304   2.870   6.901  11.305  0.4866  0.3410 -0.1087
 1630TIP3    H126305   2.809   6.973  11.318  0.2014  0.4146 -1.6694
 1630TIP3    H226306   2.832   6.850  11.234  1.4544 -0.5131 -0.0350
 1631TIP3   OH226307   0.667   3.151  11.036 -0.4449 -0.2759 -0.0813
 1631TIP3    H126308   0.585   3.200  11.029 -0.8324 -0.0775  3.6581
 1631TIP3    H226309   0.644   3.076  11.092  2.0388  0.1896  1.6931
 1632TIP3   OH226310   0.917   2.270  13.284  0.5457  0.0447 -0.4491
 1632TIP3    H126311   0.868   2.253  13.365 -2.3871 -1.0311 -2.2923
 1632TIP3    H226312   1.008   2.274  13.312 -0.3108 -0.4408  2.8725
 1633TIP3   OH226313   2.050   0.917  14.692  0.0510 -0.1862  0.1843
 1633TIP3    H126314   2.009   1.003  14.689  0.2370 -0.1079 -0.2003
 1633TIP3    H226315   2.031   0.878  14.607  0.6301 -0.2102  0.0609
 1634TIP3   OH226316   4.306   1.719  12.347 -0.7414  0.1892  0.1698
 1634TIP3    H126317   4.256   1.706  12.427 -3.2396  1.2182 -1.1170
 1634TIP3    H226318   4.397   1.718  12.376 -1.5048 -0.1203  2.8942
 1635TIP3   OH226319   3.778   5.749   1.414  0.0901  0.5883  0.9181
 1635TIP3    H126320   3.728   5.707   1.485 -2.1249  1.7322  0.1285
 1635TIP3    H226321   3.777   5.842   1.437  0.0411  0.8705 -0.2152
 1636TIP3   OH226322   3.131   4.478  13.419 -0.9999  0.3011  0.0446
 1636TIP3    H126323   3.224   4.482  13.443 -1.3125 -1.0431  1.6517
 1636TIP3    H226324   3.113   4.385  13.407 -2.2894  0.4833  0.4073
 1637TIP3   OH226325   3.512   4.702  11.373  0.3082 -0.0085  0.5929
 1637TIP3    H126326   3.585   4.642  11.389  0.0938 -0.2253  0.7703
 1637TIP3    H226327   3.434   4.653  11.401  0.0982  0.2295  0.4299
 1638TIP3   OH226328   0.587   1.182  13.416 -0.5648  0.4317  0.2939
 1638TIP3    H126329   0.630   1.101  13.443  0.1459  0.1624 -1.5310
 1638TIP3    H226330   0.656   1.249  13.421 -0.3514  0.3330 -0.9810
 1639TIP3   OH226331   4.699   4.470  12.812  0.2218 -0.0661 -0.7788
 1639TIP3    H126332   4.781   4.474  12.861 -0.7537  0.9204  0.8436
 1639TIP3    H226333   4.700   4.382  12.773  1.3354 -0.6510  0.4688
 1640TIP3   OH226334   0.757   3.812  10.971  0.8370  0.1298 -0.0826
 1640TIP3    H126335   0.818   3.812  11.044  0.6560  2.9800  0.1531
 1640TIP3    H226336   0.812   3.818  10.893  0.9512 -0.8688 -0.0911
 1641TIP3   OH226337   0.335   6.893   9.890 -0.1432  0.3537  0.5060
 1641TIP3    H126338   0.265   6.957   9.905 -1.6564 -1.0349 -0.3203
 1641TIP3    H226339   0.307   6.845   9.812  1.6527 -0.4032  0.2783
 1642TIP3   OH226340   2.509   4.677   9.921 -0.2172  0.1665  0.0770
 1642TIP3    H126341   2.552   4.705   9.839  1.6144 -1.8184  0.2630
 1642TIP3    H226342   2.425   4.722   9.920  0.1498  0.9935 -2.4206
 1643TIP3   OH226343   0.918   6.511  10.321 -0.5298  0.3760 -0.1567
 1643TIP3    H126344   0.887   6.601  10.330 -2.3484 -0.0396 -1.5856
 1643TIP3    H226345   1.009   6.520  10.292 -0.4250  1.7169  0.4960
 1644TIP3   OH226346   5.392   3.797   1.009 -0.1646 -1.0510  0.3463
 1644TIP3    H126347   5.394   3.788   1.104 -1.3939 -0.2894  0.4598
 1644TIP3    H226348   5.313   3.749   0.982  0.7146 -2.1366 -0.4134
 1645TIP3   OH226349   3.940   1.556   1.070  0.2227  0.3353  0.7530
 1645TIP3    H126350   3.873   1.614   1.105 -1.2988 -0.3347 -0.9133
 1645TIP3    H226351   3.904   1.468   1.082  0.3541  0.0123 -0.9960
 1646TIP3   OH226352   4.370   1.088   1.364  0.6916 -0.8393  0.3106
 1646TIP3    H126353   4.365   0.994   1.381 -1.8098 -1.1211 -1.3883
 1646TIP3    H226354   4.438   1.096   1.296  1.5024 -1.2833  1.0476
 1647TIP3   OH226355   5.501   0.174   0.094  0.0366 -0.3320 -0.2812
 1647TIP3    H126356   5.480   0.266   0.080 -1.3064 -0.6568 -0.4968
 1647TIP3    H226357   5.594   0.174   0.117  0.6319  0.8721 -2.4258
 1648TIP3   OH226358   6.527   4.246   9.491 -0.5476 -0.9871  0.2938
 1648TIP3    H126359   6.432   4.254   9.494 -0.5161 -0.7438  2.1353
 1648TIP3    H226360   6.559   4.331   9.520  0.2905 -0.6023 -1.6331
 1649TIP3   OH226361   1.421   3.150  11.222  0.0641  0.7969 -0.2150
 1649TIP3    H126362   1.450   3.071  11.268 -1.4599 -0.5693 -1.4565
 1649TIP3    H226363   1.389   3.117  11.138 -0.7977  2.7456 -0.6892
 1650TIP3   OH226364   5.286   6.961  11.067  0.6832  0.6470 -0.3864
 1650TIP3    H126365   5.340   7.021  11.015  0.8139  1.0571  0.2065
 1650TIP3    H226366   5.348   6.920  11.127  0.4150  0.7558 -0.0337
 1651TIP3   OH226367   5.200   2.836   1.073 -0.1074 -0.1187 -0.0858
 1651TIP3    H126368   5.231   2.760   1.123 -1.2465 -0.5054  0.0640
 1651TIP3    H226369   5.279   2.887   1.056  0.8632 -1.8511 -1.0951
 1652TIP3   OH226370   3.964   5.278  10.651 -0.3597 -0.6432  0.1433
 1652TIP3    H126371   4.060   5.285  10.652 -0.4057  0.2554 -0.8027
 1652TIP3    H226372   3.945   5.212  10.585 -0.4411  0.4467 -0.9518
 1653TIP3   OH226373   6.024   2.680  11.528  0.7794 -0.2642  0.6951
 1653TIP3    H126374   6.059   2.766  11.552 -0.2711  0.4520 -0.2420
 1653TIP3    H226375   5.934   2.698  11.501  0.7027 -1.5906  0.0168
 1654TIP3   OH226376   0.872   1.297  11.250  0.2736 -0.3867 -0.4741
 1654TIP3    H126377   0.890   1.255  11.166  0.3767  0.3025 -0.8036
 1654TIP3    H226378   0.781   1.326  11.243  0.2821 -0.3280 -0.3432
 1655TIP3   OH226379   2.137   1.782  14.198  0.1998  0.2418  0.0821
 1655TIP3    H126380   2.225   1.764  14.162  0.4871  1.3340  0.1974
 1655TIP3    H226381   2.147   1.773  14.292 -0.1336 -0.8944  0.0231
 1656TIP3   OH226382   4.294   1.305  13.706  0.6251  1.0447  0.2637
 1656TIP3    H126383   4.206   1.309  13.669 -1.3529  1.1700  4.4510
 1656TIP3    H226384   4.325   1.396  13.704 -0.0657  1.2850  0.2622
 1657TIP3   OH226385   5.356   5.268  12.088 -0.3442 -0.2438 -0.0293
 1657TIP3    H126386   5.293   5.236  12.023  1.1863 -0.7915 -1.2888
 1657TIP3    H226387   5.338   5.215  12.166 -0.5258 -1.3721 -0.8122
 1658TIP3   OH226388   1.003   6.993  15.083 -0.1505 -0.7526  0.0284
 1658TIP3    H126389   0.956   6.924  15.037  0.3968 -0.2827 -1.2788
 1658TIP3    H226390   1.038   6.950  15.161  0.8282 -2.1814 -1.1405
 1659TIP3   OH226391   2.496   5.510  14.455 -0.0921  0.3625  0.1109
 1659TIP3    H126392   2.526   5.462  14.532  0.4964 -1.5580 -1.2351
 1659TIP3    H226393   2.418   5.462  14.425  0.9076 -0.2425 -1.6630
 1660TIP3   OH226394   6.393   4.128   3.178 -0.0785 -0.2774  0.3917
 1660TIP3    H126395   6.370   4.205   3.126  0.2285  0.3022  1.0994
 1660TIP3    H226396   6.479   4.101   3.145  0.7520  0.9100  1.4838
 1661TIP3   OH226397   4.884   2.479  13.362 -0.2293  0.2242 -0.6251
 1661TIP3    H126398   4.798   2.494  13.323 -0.3976 -0.9194 -0.7370
 1661TIP3    H226399   4.891   2.383  13.368  0.0249  0.3197  1.5975
 1662TIP3   OH226400   3.414   0.554  12.543 -0.1546  0.0577  0.8477
 1662TIP3    H126401   3.324   0.538  12.573 -0.9227 -0.3090 -1.4131
 1662TIP3    H226402   3.432   0.644  12.570 -2.6414  1.4908 -1.6901
 1663TIP3   OH226403   6.328   1.775  10.900 -0.5951 -0.7869 -0.2728
 1663TIP3    H126404   6.294   1.783  10.990  1.9233 -0.0485  0.7040
 1663TIP3    H226405   6.287   1.847  10.852 -0.7610 -0.1983  0.7233
 1664TIP3   OH226406   4.006   0.373  11.083 -0.1393  0.6258 -0.4942
 1664TIP3    H126407   4.038   0.313  11.015  2.0122  0.2245  0.8025
 1664TIP3    H226408   4.042   0.458  11.058 -0.6170  0.7855 -0.6540
 1665TIP3   OH226409   1.970   5.928  12.758  0.0027  0.2226 -0.0365
 1665TIP3    H126410   1.954   5.984  12.682  1.3607  0.6757 -0.0248
 1665TIP3    H226411   1.890   5.934  12.810 -0.5631  0.7044 -0.9411
 1666TIP3   OH226412   0.193   0.937  15.536 -0.3995  0.3717 -0.5478
 1666TIP3    H126413   0.219   1.029  15.547 -0.2108  0.1321  1.2112
 1666TIP3    H226414   0.255   0.902  15.472  0.3665  1.1311 -0.2336
 1667TIP3   OH226415   5.997   5.106  15.336 -0.8225 -0.5242 -0.5737
 1667TIP3    H126416   5.911   5.078  15.304 -2.2846  1.8238  0.9981
 1667TIP3    H226417   5.983   5.126  15.428  1.7914 -1.3311  0.0865
 1668TIP3   OH226418   6.292   6.837  13.367  0.0333  0.1219  0.3453
 1668TIP3    H126419   6.379   6.812  13.400 -0.1373 -0.1201  0.6150
 1668TIP3    H226420   6.238   6.759  13.380 -0.0030 -0.0275 -0.6546
 1669TIP3   OH226421   6.054   3.879   2.657  0.2074 -0.5183  0.0096
 1669TIP3    H126422   5.995   3.828   2.601  1.5462 -0.6884 -1.3187
 1669TIP3    H226423   6.040   3.969   2.630  0.6141 -0.5693 -0.3871
 1670TIP3   OH226424   3.414   6.809   1.220 -0.3743 -0.5502  0.4042
 1670TIP3    H126425   3.372   6.764   1.294 -1.0568  0.1863  0.4793
 1670TIP3    H226426   3.404   6.749   1.146 -2.0404 -0.1836  0.2966
 1671TIP3   OH226427   5.236   2.415  15.139  0.0499  0.0037 -0.5012
 1671TIP3    H126428   5.226   2.372  15.054  3.5278 -1.6457 -0.2575
 1671TIP3    H226429   5.324   2.391  15.168 -0.4051  1.7807  2.9025
 1672TIP3   OH226430   4.153   2.987  12.583 -0.2217  0.2105  1.0507
 1672TIP3    H126431   4.098   2.914  12.555  0.3507  1.1998 -3.5292
 1672TIP3    H226432   4.241   2.951  12.587 -0.0027  0.4349 -0.7792
 1673TIP3   OH226433   3.222   2.190  14.026  0.3032 -0.2412 -0.0666
 1673TIP3    H126434   3.252   2.277  14.052 -1.8487  0.9611 -1.3672
 1673TIP3    H226435   3.203   2.145  14.108 -0.6414  1.3217  0.6140
 1674TIP3   OH226436   1.108   0.020  10.838  0.2888  0.3160 -0.6493
 1674TIP3    H126437   1.127   0.109  10.867 -0.5125  0.8180 -1.6152
 1674TIP3    H226438   1.186  -0.030  10.860  0.1111  0.8705  1.4531
 1675TIP3   OH226439   2.416   1.885  10.367 -0.5266 -0.5741  0.0945
 1675TIP3    H126440   2.385   1.816  10.309 -0.9814 -1.1457  0.9907
 1675TIP3    H226441   2.371   1.964  10.336  0.2462 -0.6023 -1.1351
 1676TIP3   OH226442   5.908   5.749  13.037  0.2634  0.4977 -0.6432
 1676TIP3    H126443   5.860   5.681  12.990  1.4385 -0.0303 -1.1083
 1676TIP3    H226444   5.888   5.830  12.989 -0.3621  0.3295 -0.6732
 1677TIP3   OH226445   3.678   1.959  11.018  0.3156  0.3686  0.1429
 1677TIP3    H126446   3.721   2.021  10.958  2.0788 -0.2223  0.7383
 1677TIP3    H226447   3.684   1.875  10.973 -1.8429  0.5462 -0.5484
 1678TIP3   OH226448   0.605   0.633   0.843 -0.5368  0.4527 -0.4916
 1678TIP3    H126449   0.543   0.705   0.857  1.0981  1.5096  2.0677
 1678TIP3    H226450   0.565   0.580   0.774 -3.2950  2.1294 -0.3379
 1679TIP3   OH226451   4.534   3.873   3.120  0.2087 -0.2002 -0.0762
 1679TIP3    H126452   4.492   3.787   3.120 -0.4577  0.0942 -1.6382
 1679TIP3    H226453   4.621   3.857   3.157 -0.1761 -1.3896  0.3741
 1680TIP3   OH226454   5.674   6.373  12.005  0.1840 -0.5653  0.4371
 1680TIP3    H126455   5.632   6.291  11.981 -1.5399  0.5409 -0.6248
 1680TIP3    H226456   5.665   6.428  11.926 -0.4763  1.2664  1.7034
 1681TIP3   OH226457   5.133   5.944  15.209  0.2649 -0.5068 -0.0328
 1681TIP3    H126458   5.137   5.937  15.114  1.0196 -0.7804  0.0083
 1681TIP3    H226459   5.225   5.950  15.237  0.0480 -0.2965  0.6667
 1682TIP3   OH226460   4.726   2.801   1.897  0.3191  0.4402 -0.2089
 1682TIP3    H126461   4.698   2.711   1.882 -2.6241  1.2805 -0.4026
 1682TIP3    H226462   4.714   2.845   1.813  1.9155  0.9898 -0.1774
 1683TIP3   OH226463   4.602   5.588  10.216 -0.0168  0.0688  0.4535
 1683TIP3    H126464   4.645   5.503  10.209  1.9952  0.8889  1.6967
 1683TIP3    H226465   4.570   5.591  10.306  0.9868  1.0299  0.8123
 1684TIP3   OH226466   3.891   3.649  10.681 -0.5157  0.4318  0.9679
 1684TIP3    H126467   3.813   3.652  10.625  0.1285  1.4856  0.1058
 1684TIP3    H226468   3.964   3.654  10.620  0.2447 -0.5965  1.7703
 1685TIP3   OH226469   6.581   1.434  10.333 -0.1880  0.1714 -0.2601
 1685TIP3    H126470   6.618   1.346  10.332 -0.0574  0.2212  0.1472
 1685TIP3    H226471   6.615   1.475  10.254 -2.7870 -1.1740 -2.2287
 1686TIP3   OH226472   5.527   6.372   5.214 -0.5139 -0.0773  0.1177
 1686TIP3    H126473   5.541   6.400   5.305  0.9345  0.0476 -0.1096
 1686TIP3    H226474   5.579   6.434   5.162 -2.1760  0.5168 -0.8994
 1687TIP3   OH226475   6.376   3.019  12.901  0.0797  0.5358  0.3373
 1687TIP3    H126476   6.457   3.043  12.856  0.2588  0.2909  0.5198
 1687TIP3    H226477   6.336   2.952  12.845  0.3809  0.1174  0.6140
 1688TIP3   OH226478   3.376   4.886   9.848  0.8288 -0.1415  0.0457
 1688TIP3    H126479   3.457   4.914   9.890  0.4222  0.6086  0.3551
 1688TIP3    H226480   3.324   4.847   9.919  1.4336 -1.8454 -0.4004
 1689TIP3   OH226481   2.089   6.453   0.292  0.2518  0.2985 -0.0399
 1689TIP3    H126482   2.138   6.521   0.245 -0.4037  1.0740  0.3802
 1689TIP3    H226483   2.053   6.397   0.223  1.1324  0.1198 -0.3776
 1690TIP3   OH226484   3.770   0.958  11.509  0.2551 -0.2025  0.1899
 1690TIP3    H126485   3.767   1.047  11.543  1.7801 -0.5894  1.4641
 1690TIP3    H226486   3.755   0.967  11.415 -1.3635  1.1872  0.5381
 1691TIP3   OH226487   0.973   3.863  13.106 -0.7063 -0.2537 -0.2228
 1691TIP3    H126488   0.912   3.929  13.074 -0.4902  0.7280  1.2943
 1691TIP3    H226489   1.059   3.905  13.099 -0.5096 -0.5680  0.2348
 1692TIP3   OH226490   3.952   2.424  10.657 -0.4343  0.5499  0.0947
 1692TIP3    H126491   3.864   2.428  10.619 -0.0315  0.7445 -0.8455
 1692TIP3    H226492   3.938   2.396  10.748 -1.7103  3.2215  0.8109
 1693TIP3   OH226493   3.453   5.149  13.271  0.8266  0.1928 -0.0430
 1693TIP3    H126494   3.490   5.062  13.259  0.6146  0.2365 -1.1309
 1693TIP3    H226495   3.404   5.165  13.190  3.2464  2.4843 -1.2001
 1694TIP3   OH226496   4.119   6.385  12.965  0.0112 -0.0442  0.5920
 1694TIP3    H126497   4.037   6.395  12.917 -0.5747  0.0910  1.5879
 1694TIP3    H226498   4.184   6.364  12.898 -0.8207 -0.0823 -0.2206
 1695TIP3   OH226499   4.020   0.024  10.592 -0.1200  0.0516  0.1370
 1695TIP3    H126500   3.996   0.112  10.620 -0.7906  0.4295 -1.4714
 1695TIP3    H226501   4.001  -0.032  10.668 -0.3560  1.1875  0.9385
 1696TIP3   OH226502   4.441   2.821   0.634 -0.2668 -0.1502 -0.5144
 1696TIP3    H126503   4.403   2.867   0.558 -0.4083 -2.1199 -1.7093
 1696TIP3    H226504   4.483   2.744   0.596 -0.3829 -1.2193  1.4374
 1697TIP3   OH226505   2.567   4.063  14.625  0.4298 -0.7361 -0.1799
 1697TIP3    H126506   2.654   4.054  14.663  0.2337  1.0744  0.8117
 1697TIP3    H226507   2.547   4.157  14.632 -1.4853 -1.0639 -0.6266
 1698TIP3   OH226508   2.174   3.542   0.338  0.3913  0.0941  0.2277
 1698TIP3    H126509   2.224   3.467   0.368  0.0816 -1.0279 -1.9065
 1698TIP3    H226510   2.083   3.520   0.360  0.2268 -0.4808 -0.9736
 1699TIP3   OH226511   3.718   0.765  12.347 -0.2754  0.7319 -0.4836
 1699TIP3    H126512   3.654   0.800  12.409 -3.0772 -0.0242 -2.7506
 1699TIP3    H226513   3.698   0.809  12.264  0.0415 -1.7836 -2.0017
 1700TIP3   OH226514   6.596   6.739  10.137 -0.1112  0.6011 -0.3612
 1700TIP3    H126515   6.576   6.685  10.213  0.0804  0.3211 -0.5071
 1700TIP3    H226516   6.595   6.679  10.063  0.7713  0.6627 -0.4354
 1701TIP3   OH226517   0.179   5.708  12.828  0.4111  0.9504  0.1202
 1701TIP3    H126518   0.114   5.715  12.758  0.5970  0.2361 -0.1297
 1701TIP3    H226519   0.219   5.622  12.815  2.1833  1.8014 -0.4073
 1702TIP3   OH226520   0.049   6.214  11.050 -0.1246 -0.0057  0.1148
 1702TIP3    H126521  -0.008   6.139  11.034 -1.1888  1.1383 -1.8401
 1702TIP3    H226522   0.136   6.184  11.024 -0.2379 -1.0451  0.8909
 1703TIP3   OH226523   2.805   0.719  14.913 -0.0129 -0.2636 -0.0090
 1703TIP3    H126524   2.795   0.801  14.866  0.6417 -0.7979 -1.1046
 1703TIP3    H226525   2.869   0.670  14.863 -0.6763 -1.6130  0.4106
 1704TIP3   OH226526   0.944   3.368   0.874  0.0341  0.8832 -0.8243
 1704TIP3    H126527   0.991   3.289   0.903 -0.5637  0.3955 -1.1567
 1704TIP3    H226528   0.892   3.339   0.799 -0.7720  1.4151 -0.4914
 1705TIP3   OH226529   6.041   5.829  10.172 -0.0578  0.0399 -0.0076
 1705TIP3    H126530   6.010   5.883  10.099  0.2986  0.0116 -0.1842
 1705TIP3    H226531   6.133   5.852  10.181  0.1524 -0.6857 -0.2230
 1706TIP3   OH226532   5.496   2.176  13.168  0.8252  0.1280  0.2140
 1706TIP3    H126533   5.587   2.205  13.179  1.1141 -0.9828  0.9441
 1706TIP3    H226534   5.494   2.135  13.082  1.2941 -0.7985  0.6364
 1707TIP3   OH226535   2.825   1.926  11.159  0.8009  0.5857  0.1978
 1707TIP3    H126536   2.835   1.961  11.070 -0.8274 -0.2570 -0.3656
 1707TIP3    H226537   2.746   1.969  11.193  0.8141  0.1320  0.8257
 1708TIP3   OH226538   1.226   3.776  11.891 -0.2535 -0.4475  0.1541
 1708TIP3    H126539   1.260   3.695  11.928  1.4513  0.4314  0.5918
 1708TIP3    H226540   1.300   3.837  11.893 -0.8010  0.4280 -2.3253
 1709TIP3   OH226541   0.803   6.677  12.049 -0.4209  0.0993  0.0583
 1709TIP3    H126542   0.827   6.769  12.056 -0.2649  0.0820 -0.2292
 1709TIP3    H226543   0.725   6.677  11.994  0.5366 -0.0684 -1.3543
 1710TIP3   OH226544   4.959   3.266  14.925 -0.3960 -0.1274 -0.2016
 1710TIP3    H126545   4.894   3.280  14.994 -0.0273  1.9774 -0.2115
 1710TIP3    H226546   5.032   3.323  14.950  0.5397 -0.8047 -1.3272
 1711TIP3   OH226547   2.978   6.826   0.203 -0.1381  0.2704  0.5897
 1711TIP3    H126548   2.895   6.829   0.249  0.5377 -1.3448  2.0118
 1711TIP3    H226549   3.044   6.824   0.272  1.1652  2.2480 -0.5077
 1712TIP3   OH226550   2.222   5.407  11.410 -0.0235 -0.6524 -0.3019
 1712TIP3    H126551   2.252   5.375  11.325 -0.3989  0.1967 -0.7653
 1712TIP3    H226552   2.128   5.389  11.411 -0.7091  2.2813 -1.4937
 1713TIP3   OH226553   4.539   1.558  13.974  0.0848  0.0214  0.3791
 1713TIP3    H126554   4.518   1.616  14.047 -1.3265 -0.0255  0.0362
 1713TIP3    H226555   4.545   1.471  14.013 -1.2891 -0.0964  0.3704
 1714TIP3   OH226556   3.526   2.492   4.664  0.1694  0.4851 -0.5428
 1714TIP3    H126557   3.568   2.484   4.579  1.6072  2.6878 -0.1162
 1714TIP3    H226558   3.573   2.432   4.721  0.7431  0.6974 -0.7874
 1715TIP3   OH226559   4.277   4.048   0.645 -0.3884 -0.5539 -0.1006
 1715TIP3    H126560   4.293   4.141   0.662 -1.4710 -0.2099 -0.8752
 1715TIP3    H226561   4.183   4.036   0.659  0.0030 -1.9456  1.7260
 1716TIP3   OH226562   2.077   3.280   1.856 -0.0406 -0.8395 -0.4040
 1716TIP3    H126563   2.082   3.312   1.946  1.1864  0.3578 -0.8665
 1716TIP3    H226564   2.031   3.350   1.808 -0.5053 -1.3748 -0.7553
 1717TIP3   OH226565   6.072   0.400  15.250  0.2267  0.0216  0.0262
 1717TIP3    H126566   6.066   0.352  15.332 -1.1468  1.2460  0.6871
 1717TIP3    H226567   6.134   0.471  15.268  0.9722 -0.4899 -0.4413
 1718TIP3   OH226568   2.730   1.653   3.691  0.4518 -0.2905 -0.5468
 1718TIP3    H126569   2.689   1.592   3.751  2.3087 -1.0472 -0.0045
 1718TIP3    H226570   2.693   1.738   3.715  0.0364 -0.7869  0.6517
 1719TIP3   OH226571   0.681   0.483  12.156 -0.3308 -0.7112  0.7378
 1719TIP3    H126572   0.732   0.512  12.080  0.1900 -0.4328  1.1832
 1719TIP3    H226573   0.722   0.528  12.230 -1.6929  0.0997  1.0332
 1720TIP3   OH226574   4.164   0.448   3.701 -0.5182  0.1042  0.3862
 1720TIP3    H126575   4.177   0.395   3.622 -1.1134  2.6258 -1.5605
 1720TIP3    H226576   4.248   0.491   3.714 -0.1979 -0.8586  1.6259
 1721TIP3   OH226577   0.665   6.724  11.661 -0.1784  0.2063  0.0294
 1721TIP3    H126578   0.707   6.795  11.612  0.9995 -0.6902 -0.3031
 1721TIP3    H226579   0.587   6.704  11.610 -0.1440  0.7724 -0.2604
 1722TIP3   OH226580   3.175   0.343  10.079  0.5618 -0.9751  0.6162
 1722TIP3    H126581   3.259   0.388  10.088  0.7223 -1.3163  0.8526
 1722TIP3    H226582   3.182   0.295   9.996  0.6514 -1.1106  0.7021
 1723TIP3   OH226583   7.041   5.640   2.806  0.3688 -0.2092  0.0687
 1723TIP3    H126584   6.986   5.701   2.757 -0.4379 -0.3767  0.7337
 1723TIP3    H226585   7.024   5.661   2.898  1.3368 -0.3494  0.2917
 1724TIP3   OH226586   2.868   6.569  14.830  0.0649  0.5877 -0.0183
 1724TIP3    H126587   2.908   6.493  14.788  0.4914  0.5116  0.5058
 1724TIP3    H226588   2.867   6.547  14.923 -0.1190  1.0848  0.1017
 1725TIP3   OH226589   6.199   4.879  10.513 -0.9138  0.0146  0.1135
 1725TIP3    H126590   6.105   4.874  10.531 -0.9328  3.0094  1.3874
 1725TIP3    H226591   6.240   4.887  10.599  0.3851  0.0287 -0.4761
 1726TIP3   OH226592   0.717   2.144  11.079  0.0356 -0.3114 -0.5199
 1726TIP3    H126593   0.782   2.213  11.068  0.0419 -0.3300 -0.6010
 1726TIP3    H226594   0.722   2.121  11.171  0.5352 -0.6997 -0.6393
 1727TIP3   OH226595   5.195   0.533  11.831 -0.1340 -0.1635 -0.7368
 1727TIP3    H126596   5.153   0.479  11.765 -1.7253  0.8648 -0.6144
 1727TIP3    H226597   5.123   0.575  11.877  0.9160 -1.0945  1.9148
 1728TIP3   OH226598   2.249   0.054  10.324 -0.5718  0.3913  0.2238
 1728TIP3    H126599   2.240   0.119  10.254 -1.6671  1.3007  1.1597
 1728TIP3    H226600   2.337   0.068  10.358  0.4907 -0.9617 -1.7939
 1729TIP3   OH226601   1.345   6.675  12.144  0.2541 -0.6488  0.2812
 1729TIP3    H126602   1.282   6.747  12.150  1.7369  0.9507 -1.7033
 1729TIP3    H226603   1.297   6.605  12.100 -0.5606  0.0235  0.0598
 1730TIP3   OH226604   1.066   3.622   4.418 -0.4519 -0.8178 -0.2340
 1730TIP3    H126605   1.040   3.672   4.341 -0.8998 -0.4282  0.1661
 1730TIP3    H226606   0.991   3.626   4.477  0.7519  1.0352  1.2972
 1731TIP3   OH226607   4.451   4.320   2.216 -0.4389  0.3853 -0.3048
 1731TIP3    H126608   4.474   4.384   2.283 -1.9007 -0.0948  0.7359
 1731TIP3    H226609   4.371   4.355   2.177 -0.3734 -0.0332 -0.8163
 1732TIP3   OH226610   5.823   5.748  11.741  0.1182  0.1981 -0.2014
 1732TIP3    H126611   5.889   5.694  11.698 -0.1240 -0.1364 -0.1563
 1732TIP3    H226612   5.746   5.691  11.747  0.8908 -0.7506  3.0584
 1733TIP3   OH226613   5.488   0.931   9.870 -0.4607  0.2500 -0.1271
 1733TIP3    H126614   5.545   0.991   9.823 -0.4083  0.1561 -0.1847
 1733TIP3    H226615   5.470   0.860   9.808  1.4909 -1.0825  0.7020
 1734TIP3   OH226616   3.907   5.643  10.810  0.1502  0.5347  0.0538
 1734TIP3    H126617   3.836   5.671  10.868  0.1886  1.2025 -0.2091
 1734TIP3    H226618   3.972   5.604  10.868  0.5928  2.0173  0.5827
 1735TIP3   OH226619   5.691   4.189  14.589 -0.3550 -0.2805  0.1575
 1735TIP3    H126620   5.658   4.212  14.503  0.9330  2.4689  0.2837
 1735TIP3    H226621   5.740   4.266  14.618  0.8893 -1.8111  2.5456
 1736TIP3   OH226622   5.491   3.535  11.686  0.0585 -0.0101  0.3273
 1736TIP3    H126623   5.494   3.441  11.671  0.6013  0.2343 -1.2444
 1736TIP3    H226624   5.428   3.567  11.622 -0.0535  0.7122  0.7877
 1737TIP3   OH226625   5.376   6.474  14.963 -0.1545 -0.5999 -0.1131
 1737TIP3    H126626   5.387   6.555  15.012  0.1425 -0.7876  0.1327
 1737TIP3    H226627   5.464   6.451  14.933 -0.1945 -0.9725  0.0486
 1738TIP3   OH226628   2.764   0.953   2.385  0.0157  0.7988  0.1055
 1738TIP3    H126629   2.775   0.989   2.297  1.7356 -0.9512 -0.4645
 1738TIP3    H226630   2.830   0.997   2.438  0.8541 -0.1086 -0.1573
 1739TIP3   OH226631   6.617   5.038   3.094 -0.1754 -0.1533 -0.3459
 1739TIP3    H126632   6.576   5.107   3.042  1.4669  0.0649 -1.4207
 1739TIP3    H226633   6.603   5.065   3.185 -0.6914  0.8961 -0.7230
 1740TIP3   OH226634   3.692   4.189  12.906  0.5310 -0.1595 -0.1696
 1740TIP3    H126635   3.785   4.175  12.924  0.6920  0.2292 -0.6700
 1740TIP3    H226636   3.690   4.217  12.814 -0.0592  0.0866 -0.0811
 1741TIP3   OH226637   3.007   0.481   5.416  0.0813  0.1307 -0.1998
 1741TIP3    H126638   3.047   0.559   5.378  0.9988 -0.0631  0.3241
 1741TIP3    H226639   2.963   0.512   5.495  1.7185 -0.0718  0.8407
 1742TIP3   OH226640   1.746   3.675  12.760 -0.4316 -0.3150 -0.9378
 1742TIP3    H126641   1.690   3.707  12.831  2.0372  2.9644 -0.2418
 1742TIP3    H226642   1.712   3.719  12.682 -1.2194 -1.4716 -1.2668
 1743TIP3   OH226643   3.336   6.925   2.180  0.1730  0.2345 -0.4354
 1743TIP3    H126644   3.417   6.920   2.129  0.5623 -0.0581  0.2018
 1743TIP3    H226645   3.326   6.838   2.218 -1.0778 -0.0946 -1.4487
 1744TIP3   OH226646   4.995   3.945   2.086  0.0886  0.0997  0.5665
 1744TIP3    H126647   5.029   4.003   2.017  0.0555 -0.8285 -0.2479
 1744TIP3    H226648   4.995   4.000   2.165 -0.4761  1.3940 -0.2871
 1745TIP3   OH226649   5.252   0.020  13.448  0.1601  1.3598  0.0490
 1745TIP3    H126650   5.199  -0.051  13.483  1.4759  0.3808  0.1273
 1745TIP3    H226651   5.249   0.087  13.517 -0.5061  1.0987  0.2854
 1746TIP3   OH226652   1.828   1.227   1.527  0.2468  0.0676 -0.6885
 1746TIP3    H126653   1.752   1.204   1.474  0.0729  0.1126 -0.4584
 1746TIP3    H226654   1.831   1.322   1.527  0.4871  0.0614 -0.9570
 1747TIP3   OH226655   3.885   6.006   3.135  0.5602 -0.2482 -0.1156
 1747TIP3    H126656   3.901   6.036   3.224  0.4788 -2.0736  0.5413
 1747TIP3    H226657   3.929   5.922   3.129 -1.8033 -1.5165 -0.8904
 1748TIP3   OH226658   6.371   1.143  14.391  0.1950  0.5249  0.1480
 1748TIP3    H126659   6.344   1.060  14.430 -0.0617  0.4100 -0.2618
 1748TIP3    H226660   6.390   1.122  14.300  1.0581  0.7355  0.2677
 1749TIP3   OH226661   5.115   2.140  11.673  0.2249  0.0738  0.4311
 1749TIP3    H126662   5.137   2.220  11.627 -0.3067 -1.0461 -1.8856
 1749TIP3    H226663   5.055   2.168  11.743 -2.1740  1.4336 -2.0001
 1750TIP3   OH226664   5.525   6.931  15.099 -0.2531  0.4517 -0.5442
 1750TIP3    H126665   5.613   6.956  15.072  0.3670 -1.4248 -0.4081
 1750TIP3    H226666   5.485   7.012  15.130  1.0851  1.5127 -1.4779
 1751TIP3   OH226667   6.848   4.875  11.069  0.2404 -0.0710  0.3029
 1751TIP3    H126668   6.905   4.938  11.112  0.4640 -0.9008  1.2813
 1751TIP3    H226669   6.866   4.886  10.976  2.5847 -0.7857  0.5928
 1752TIP3   OH226670   3.886   3.506  11.475 -0.3727 -0.2460 -0.4373
 1752TIP3    H126671   3.968   3.535  11.515 -1.0765  0.3039  0.6556
 1752TIP3    H226672   3.899   3.519  11.381  0.9569 -0.6184 -0.3237
 1753TIP3   OH226673   1.505   3.161   2.053 -0.0554  0.2837  0.0816
 1753TIP3    H126674   1.555   3.200   1.982 -0.0759 -1.3342 -0.8843
 1753TIP3    H226675   1.427   3.215   2.060 -1.1465 -0.7360 -2.7078
 1754TIP3   OH226676   7.015   4.096   9.645  0.0299  0.1172  0.5371
 1754TIP3    H126677   6.923   4.080   9.625  0.2944  1.3576 -2.2326
 1754TIP3    H226678   7.061   4.019   9.612  0.0515 -0.2816  1.4707
 1755TIP3   OH226679   2.294   1.015   9.834  0.5058 -0.3424  0.0515
 1755TIP3    H126680   2.257   1.064   9.761 -1.0434 -0.8176  0.4990
 1755TIP3    H226681   2.303   0.926   9.802 -0.6314 -0.6596  0.5693
 1756TIP3   OH226682   1.206   4.200   0.691  0.8612  0.0746  0.0148
 1756TIP3    H126683   1.192   4.218   0.598  0.4003 -0.1573  0.0373
 1756TIP3    H226684   1.127   4.154   0.719  1.4189 -0.7405  0.2863
 1757TIP3   OH226685   1.780   4.690   4.231  0.4338  0.0584 -0.6745
 1757TIP3    H126686   1.785   4.623   4.163  0.6280  0.8802 -1.4929
 1757TIP3    H226687   1.807   4.771   4.187  0.1628  0.6859  0.2765
 1758TIP3   OH226688   1.891   2.833  10.035 -0.2216 -0.5639  0.3932
 1758TIP3    H126689   1.819   2.800   9.981 -0.0019 -1.9233  0.8902
 1758TIP3    H226690   1.862   2.815  10.125  0.6614 -0.9691  0.6003
 1759TIP3   OH226691   4.921   1.535  15.580 -0.1842  0.5923 -0.5273
 1759TIP3    H126692   4.886   1.568  15.497  0.9028  1.0036 -0.8453
 1759TIP3    H226693   5.013   1.515  15.561  0.2265  1.1852  0.6956
 1760TIP3   OH226694   5.824   4.053   9.450  0.1941 -0.3550  0.4587
 1760TIP3    H126695   5.767   4.038   9.374  2.2791 -1.4382 -1.0240
 1760TIP3    H226696   5.852   3.965   9.476 -0.5265 -0.0006  2.5818
 1761TIP3   OH226697   2.612   4.306  15.329  0.3149  0.4244  0.7627
 1761TIP3    H126698   2.598   4.313  15.234 -0.0068 -0.0093  0.7752
 1761TIP3    H226699   2.695   4.260  15.337  1.0325  1.6789  0.6907
 1762TIP3   OH226700   5.794   3.361  11.368  0.1847  0.0225  0.4874
 1762TIP3    H126701   5.821   3.354  11.276 -0.0836  0.4697  0.3712
 1762TIP3    H226702   5.825   3.447  11.395  1.3590 -0.6035  1.1885
 1763TIP3   OH226703   3.373   2.235  10.757  0.0759 -0.1495  0.0482
 1763TIP3    H126704   3.391   2.161  10.700  0.4295  0.5734 -0.8060
 1763TIP3    H226705   3.435   2.226  10.829  0.5195 -0.3630 -0.3571
 1764TIP3   OH226706   6.204   0.306   2.837 -0.1751  0.5870 -0.1177
 1764TIP3    H126707   6.113   0.306   2.809 -0.2931 -1.3224  0.1667
 1764TIP3    H226708   6.254   0.293   2.757 -0.2857 -0.6294  0.0018
 1765TIP3   OH226709   4.847   1.002  11.883  0.2688 -0.1070 -0.3117
 1765TIP3    H126710   4.758   1.030  11.903 -0.2640 -2.1187  0.4487
 1765TIP3    H226711   4.872   1.051  11.805 -1.8818 -0.2127 -1.1193
 1766TIP3   OH226712   0.014   4.014   2.300 -0.4775 -0.5189  0.1166
 1766TIP3    H126713   0.019   4.073   2.376 -0.2931 -0.1361 -0.1909
 1766TIP3    H226714   0.105   3.992   2.280 -0.5539 -1.0943  0.3650
 1767TIP3   OH226715   0.424   3.536  12.873  0.0262 -0.2254 -0.3275
 1767TIP3    H126716   0.347   3.577  12.913  0.4525  0.6688 -0.4078
 1767TIP3    H226717   0.498   3.582  12.912  0.5558 -1.4180  0.1345
 1768TIP3   OH226718   3.931   4.478   3.049 -0.4944  0.0738  0.1831
 1768TIP3    H126719   3.925   4.559   2.998 -0.3913  0.2275  0.4105
 1768TIP3    H226720   4.003   4.430   3.009 -1.0025 -0.2184 -0.3852
 1769TIP3   OH226721   2.969   0.410   0.644  0.2455  0.0410 -0.4126
 1769TIP3    H126722   2.993   0.502   0.637 -1.4448  0.7131  1.5904
 1769TIP3    H226723   2.950   0.383   0.554  1.3182  1.4625 -1.1051
 1770TIP3   OH226724   4.944   1.172   1.683  0.4642 -0.4847  0.0882
 1770TIP3    H126725   4.985   1.113   1.747  1.2601  0.3312  0.3403
 1770TIP3    H226726   4.920   1.114   1.610 -0.3284 -1.4068  1.0373
 1771TIP3   OH226727   0.740   5.636  12.828  0.0260 -0.1901  0.2046
 1771TIP3    H126728   0.725   5.731  12.826 -2.1752 -0.4847 -0.1541
 1771TIP3    H226729   0.665   5.602  12.877  1.6929 -1.6284  1.8831
 1772TIP3   OH226730   3.522   4.336   0.507 -0.1742 -0.2815 -0.6769
 1772TIP3    H126731   3.553   4.315   0.595 -0.2981 -0.3113 -0.6406
 1772TIP3    H226732   3.528   4.432   0.502 -0.4778 -0.2556 -0.5216
 1773TIP3   OH226733   5.256   3.023   5.211 -0.6712 -0.2229  0.2649
 1773TIP3    H126734   5.325   3.001   5.274 -1.1954  0.0961  0.9652
 1773TIP3    H226735   5.181   2.969   5.237 -0.6961 -0.5685 -0.4909
 1774TIP3   OH226736   4.539   2.244  13.497  0.1834  0.2067  0.2745
 1774TIP3    H126737   4.632   2.221  13.492 -0.2123 -1.1967 -1.9077
 1774TIP3    H226738   4.506   2.192  13.571  0.6175 -1.4167 -0.6333
 1775TIP3   OH226739   6.226   2.701  15.448 -0.6093  0.0936 -1.0870
 1775TIP3    H126740   6.286   2.647  15.499 -0.2327  2.7669  1.5175
 1775TIP3    H226741   6.162   2.638  15.412  0.0676 -2.1261  1.3355
 1776TIP3   OH226742   2.460   6.182   2.948 -0.0222 -0.1722 -0.3672
 1776TIP3    H126743   2.547   6.217   2.928  0.7315 -1.7057  0.0706
 1776TIP3    H226744   2.443   6.119   2.877 -0.9165  0.3374 -0.6149
 1777TIP3   OH226745   0.433   4.806  13.777  0.0876 -0.6162 -0.1386
 1777TIP3    H126746   0.420   4.715  13.748 -0.2502 -0.4034 -0.6564
 1777TIP3    H226747   0.355   4.825  13.830  0.1697 -0.6349 -0.0113
 1778TIP3   OH226748   5.406   5.821  11.601 -0.4226 -0.3687 -0.1822
 1778TIP3    H126749   5.357   5.902  11.581 -0.6971 -0.5193 -0.1277
 1778TIP3    H226750   5.416   5.823  11.696 -0.5061 -0.4409 -0.1712
 1779TIP3   OH226751   0.215   6.885  11.312 -0.1129 -0.7936  0.3678
 1779TIP3    H126752   0.224   6.974  11.346  2.1527 -0.8014 -0.0368
 1779TIP3    H226753   0.299   6.844  11.332 -1.1431 -2.8926  0.6254
 1780TIP3   OH226754   2.371   3.471  11.266  0.2980  0.0589  0.6304
 1780TIP3    H126755   2.350   3.407  11.333  0.1863 -0.0219  0.5192
 1780TIP3    H226756   2.286   3.495  11.228  0.5342 -1.6132 -1.0607
 1781TIP3   OH226757   6.574   5.934   2.241  0.4172 -0.2242 -0.1461
 1781TIP3    H126758   6.560   5.842   2.264  2.3550 -0.5400 -0.0834
 1781TIP3    H226759   6.660   5.935   2.199  0.6405  1.6455  0.3017
 1782TIP3   OH226760   1.519   5.198   9.707 -0.6890  0.1451  0.1312
 1782TIP3    H126761   1.556   5.222   9.792 -0.1914 -2.7522  0.8182
 1782TIP3    H226762   1.426   5.183   9.726 -1.3937  2.8185 -0.6475
 1783TIP3   OH226763   4.895   2.474  13.992 -0.3100  0.3638 -0.0755
 1783TIP3    H126764   4.922   2.383  14.009  0.4156  0.8862  1.8502
 1783TIP3    H226765   4.971   2.513  13.950  0.1283  0.5440  0.8446
 1784TIP3   OH226766   1.665   6.047  12.889 -0.3049 -0.0958  0.1161
 1784TIP3    H126767   1.603   6.033  12.960 -0.6189 -0.0752 -0.1522
 1784TIP3    H226768   1.751   6.044  12.931 -0.4975  0.1429  0.5340
 1785TIP3   OH226769   2.164   6.613  13.921 -0.5943  0.1241  0.4766
 1785TIP3    H126770   2.182   6.536  13.976  0.5276 -0.4942 -0.7144
 1785TIP3    H226771   2.215   6.598  13.841  0.4355  2.5607  0.5927
 1786TIP3   OH226772   5.887   2.271  11.649 -0.2646 -0.0927  0.0291
 1786TIP3    H126773   5.910   2.234  11.733 -0.3927  1.3065  0.7198
 1786TIP3    H226774   5.793   2.254  11.640  0.1147 -1.9695 -0.7751
 1787TIP3   OH226775   5.798   5.838  13.974 -0.2087 -0.0859  0.0389
 1787TIP3    H126776   5.744   5.913  14.001  1.8057  1.5222 -0.1356
 1787TIP3    H226777   5.877   5.878  13.937  0.5496 -2.3234 -0.9074
 1788TIP3   OH226778   3.351   2.825   1.317 -0.1679  0.2807 -0.6234
 1788TIP3    H126779   3.395   2.858   1.395 -0.2894 -2.1327  0.5661
 1788TIP3    H226780   3.265   2.796   1.348 -0.0260 -1.1988 -1.4830
 1789TIP3   OH226781   2.342   1.586  10.528  0.4662 -0.1817  0.8629
 1789TIP3    H126782   2.299   1.501  10.526 -3.0437  1.4036  1.9370
 1789TIP3    H226783   2.357   1.602  10.621  2.3548 -0.1327  0.5852
 1790TIP3   OH226784   3.077   2.921  13.480  0.1064  0.4268  0.3680
 1790TIP3    H126785   3.038   2.865  13.413 -1.2171  0.0282  1.4271
 1790TIP3    H226786   3.171   2.920  13.461 -0.0553 -1.0534 -0.4461
 1791TIP3   OH226787   2.410   4.259   0.333  0.3452  0.4069  0.1334
 1791TIP3    H126788   2.396   4.350   0.359  0.0503  0.4692 -0.2413
 1791TIP3    H226789   2.491   4.234   0.377  0.0036  0.5979  0.8847
 1792TIP3   OH226790   5.844   4.866  11.009  0.0332 -0.2771  0.0238
 1792TIP3    H126791   5.831   4.958  10.986  1.8534  0.2050  0.6923
 1792TIP3    H226792   5.813   4.817  10.933  0.1887  0.9618 -0.8696
 1793TIP3   OH226793   5.739   5.425  14.841 -0.6926 -0.0791  0.3010
 1793TIP3    H126794   5.771   5.441  14.929  3.0672  0.5644 -0.9940
 1793TIP3    H226795   5.776   5.341  14.816 -4.2641 -1.8287  0.2542
 1794TIP3   OH226796   5.821   5.496  12.574 -0.5574  0.2592 -0.1571
 1794TIP3    H126797   5.759   5.568  12.557  0.0294  0.9236  0.4413
 1794TIP3    H226798   5.781   5.420  12.533 -1.5880  0.7630 -0.1242
 1795TIP3   OH226799   6.247   1.331  13.000 -0.7282  0.9409 -0.0622
 1795TIP3    H126800   6.261   1.332  13.094 -1.2011 -1.1955  0.0689
 1795TIP3    H226801   6.295   1.254  12.969 -1.2453  1.1439 -1.4446
 1796TIP3   OH226802   1.044   4.965   0.988 -0.0594  0.3016 -0.0476
 1796TIP3    H126803   1.034   4.955   0.894  0.0481  2.2752 -0.3066
 1796TIP3    H226804   0.957   4.948   1.024 -0.4477  0.9586 -0.6553
 1797TIP3   OH226805   6.632   2.235  14.929 -0.2702  0.1165  0.4477
 1797TIP3    H126806   6.654   2.239  14.836 -0.3418 -0.5643  0.3920
 1797TIP3    H226807   6.651   2.144  14.954  1.4991  0.7261  1.5426
 1798TIP3   OH226808   4.489   3.975  14.080  0.0025 -0.7098  0.5216
 1798TIP3    H126809   4.576   4.013  14.088  0.1159 -0.1996 -2.0626
 1798TIP3    H226810   4.485   3.908  14.147  1.2497  1.2338  2.6659
 1799TIP3   OH226811   1.951   0.616  12.097  0.4493 -0.0693 -0.3235
 1799TIP3    H126812   2.019   0.554  12.124  1.4109  1.5686  1.2999
 1799TIP3    H226813   1.901   0.633  12.178  1.5604  2.7994 -0.1027
 1800TIP3   OH226814   5.062   5.864   0.688  0.2315  0.1712 -0.3498
 1800TIP3    H126815   5.113   5.784   0.672 -0.2615 -0.3775  0.6710
 1800TIP3    H226816   5.018   5.847   0.772  0.8662  1.9028  0.3766
 1801TIP3   OH226817   4.830   5.766  11.162 -0.4205  0.5218 -0.5719
 1801TIP3    H126818   4.786   5.721  11.090  1.3826 -1.0963 -0.7497
 1801TIP3    H226819   4.877   5.696  11.209  1.6532  2.0473 -0.2251
 1802TIP3   OH226820   1.183   3.427  12.203  0.0138  0.3088  0.9946
 1802TIP3    H126821   1.230   3.461  12.279  0.3695 -1.7837  1.7848
 1802TIP3    H226822   1.199   3.332  12.205 -0.8127  0.0612 -1.1151
 1803TIP3   OH226823   2.731   1.071  11.596 -0.4644  0.3470 -0.0363
 1803TIP3    H126824   2.713   1.022  11.516 -1.2107 -0.1108  0.4068
 1803TIP3    H226825   2.821   1.102  11.584  1.0745 -3.2772  0.7210
 1804TIP3   OH226826   0.467   1.721   0.391  0.6254 -0.2541  0.1569
 1804TIP3    H126827   0.406   1.648   0.380  0.6956 -0.1364 -1.1497
 1804TIP3    H226828   0.553   1.679   0.396  0.5391 -0.3501  0.9380
 1805TIP3   OH226829   0.093   0.605  12.607 -0.1520  0.4553 -0.0056
 1805TIP3    H126830   0.022   0.547  12.579  1.5760 -1.6652 -0.2107
 1805TIP3    H226831   0.133   0.635  12.526  0.9717 -0.7048  0.0952
 1806TIP3   OH226832   5.274   2.325  13.465  0.3563 -0.3289  0.3444
 1806TIP3    H126833   5.257   2.317  13.371  2.2225  0.3745 -0.1005
 1806TIP3    H226834   5.201   2.377  13.499 -0.7193 -1.1959 -0.5605
 1807TIP3   OH226835   0.557   5.499  11.597  0.3265 -0.0501  0.1820
 1807TIP3    H126836   0.575   5.580  11.643 -0.2110  0.5796 -0.6887
 1807TIP3    H226837   0.468   5.509  11.565 -0.2237 -1.5094  1.1311
 1808TIP3   OH226838   3.299   4.773  15.302 -0.0239  0.5849 -0.4121
 1808TIP3    H126839   3.353   4.821  15.365  0.3143 -0.0064 -0.2456
 1808TIP3    H226840   3.277   4.691  15.347 -0.8447  0.7063 -0.5807
 1809TIP3   OH226841   2.471   5.373  13.996 -0.2798 -0.1638 -0.1654
 1809TIP3    H126842   2.547   5.317  13.979  2.3578  3.6304 -2.5070
 1809TIP3    H226843   2.495   5.423  14.074 -1.0145  0.0981 -0.0993
 1810TIP3   OH226844   1.929   4.129   0.845 -0.3120  0.9863 -0.0038
 1810TIP3    H126845   2.018   4.103   0.822 -1.4534 -1.0102 -2.8356
 1810TIP3    H226846   1.916   4.097   0.934  1.6181  0.8937  0.2794
 1811TIP3   OH226847   3.568   3.097  11.507 -0.7703 -0.7486  0.3250
 1811TIP3    H126848   3.478   3.081  11.535 -0.6438 -0.7615  0.7205
 1811TIP3    H226849   3.577   3.044  11.427 -1.1141 -0.7422  0.2810
 1812TIP3   OH226850   6.330   7.053  11.502  0.1405 -0.8525  1.0047
 1812TIP3    H126851   6.315   6.978  11.559 -0.6590 -0.3973  1.4205
 1812TIP3    H226852   6.316   7.129  11.559  0.8504 -0.3899  0.5705
 1813TIP3   OH226853   4.957   3.775   2.551  0.1557  0.2134 -0.0814
 1813TIP3    H126854   5.001   3.859   2.562  0.0352  0.3470 -0.5991
 1813TIP3    H226855   4.988   3.743   2.467 -2.0850  1.1264 -1.3369
 1814TIP3   OH226856   5.824   1.635   2.970 -0.3765  0.7670 -0.2984
 1814TIP3    H126857   5.842   1.565   3.033 -1.2883  0.2215 -0.6277
 1814TIP3    H226858   5.757   1.688   3.012 -1.9085 -0.3035 -1.2687
 1815TIP3   OH226859   0.377   0.738   1.565 -0.2538  0.5037 -0.4762
 1815TIP3    H126860   0.309   0.714   1.629 -0.0375  1.6557  0.2291
 1815TIP3    H226861   0.418   0.816   1.603 -0.1969  1.2984 -2.0825
 1816TIP3   OH226862   2.692   6.601  10.517  0.2716 -0.4496 -0.5694
 1816TIP3    H126863   2.751   6.562  10.453  0.5471  0.4774 -0.8865
 1816TIP3    H226864   2.749   6.625  10.590  0.3153  0.5297 -0.9129
 1817TIP3   OH226865   4.744   3.351   9.886  0.8190  0.3309  0.1736
 1817TIP3    H126866   4.764   3.438   9.919  0.3906  1.2041 -1.7469
 1817TIP3    H226867   4.812   3.332   9.822  1.4699 -1.1991  1.2471
 1818TIP3   OH226868   5.325   0.368  10.989  0.4544 -0.6325  0.5658
 1818TIP3    H126869   5.252   0.307  10.999  0.3266 -0.3707  1.2605
 1818TIP3    H226870   5.316   0.401  10.900 -0.3427 -0.5181  0.6831
 1819TIP3   OH226871   6.726   5.715  14.815  0.0359 -0.3352 -0.2693
 1819TIP3    H126872   6.682   5.637  14.782 -0.6766  1.0148 -2.8161
 1819TIP3    H226873   6.655   5.769  14.850  0.4016 -0.3629  0.5456
 1820TIP3   OH226874   5.934   4.341   0.211  0.0988  0.1618  0.6894
 1820TIP3    H126875   5.863   4.277   0.218  0.3982 -0.1754  0.6728
 1820TIP3    H226876   6.000   4.310   0.273  0.3371  0.3355  0.5242
 1821TIP3   OH226877   1.251   3.277   2.035  0.1201 -0.2347 -0.5200
 1821TIP3    H126878   1.160   3.306   2.043 -0.7944 -2.0093 -3.0733
 1821TIP3    H226879   1.267   3.273   1.940  2.3314 -1.4891 -0.1696
 1822TIP3   OH226880   1.693   0.840  15.568  0.2410  0.2117 -0.1803
 1822TIP3    H126881   1.607   0.798  15.564  0.4695 -0.4173  1.0359
 1822TIP3    H226882   1.708   0.872  15.479 -0.8690 -0.4361 -0.6245
 1823TIP3   OH226883   3.472   2.043  10.410 -0.1712 -0.3728 -0.1354
 1823TIP3    H126884   3.409   1.978  10.441 -0.2024 -0.6495 -0.7797
 1823TIP3    H226885   3.488   2.021  10.319  1.9821 -1.2250  0.3689
 1824TIP3   OH226886   3.933   1.717   0.583  0.2715  0.1151 -0.3918
 1824TIP3    H126887   3.901   1.806   0.573 -0.1514  0.0048 -0.0221
 1824TIP3    H226888   3.855   1.665   0.602  0.6865 -0.1239  0.7227
 1825TIP3   OH226889   2.651   1.420  15.031  0.1634 -0.0244  0.1687
 1825TIP3    H126890   2.582   1.353  15.022 -0.6287  0.6114  1.2670
 1825TIP3    H226891   2.708   1.386  15.101  1.4786 -0.9405 -1.2823
 1826TIP3   OH226892   0.300   1.454   9.938  0.7104  0.4085  0.5266
 1826TIP3    H126893   0.276   1.364   9.958  3.9318 -0.3100  1.6258
 1826TIP3    H226894   0.331   1.490  10.021  2.9703  1.2869 -0.6323
 1827TIP3   OH226895   4.102   1.234  11.850 -0.0174  0.3211 -0.1380
 1827TIP3    H126896   4.110   1.184  11.931 -0.6576 -1.0430 -0.8742
 1827TIP3    H226897   4.042   1.305  11.871 -0.6988 -0.3981  0.4266
 1828TIP3   OH226898   1.560   6.639  12.649 -0.3850 -0.5949 -0.2357
 1828TIP3    H126899   1.585   6.558  12.605  1.9417 -0.0353 -0.0608
 1828TIP3    H226900   1.529   6.696  12.578 -0.1058 -0.9348 -0.6341
 1829TIP3   OH226901   6.542   4.789  12.442  0.1360 -0.5158 -0.1771
 1829TIP3    H126902   6.616   4.818  12.388  1.5927 -1.9997  0.9222
 1829TIP3    H226903   6.554   4.694  12.450 -1.5522 -0.6926  0.5494
 1830TIP3   OH226904   6.611   4.676  10.149  1.3600 -0.4193  0.2124
 1830TIP3    H126905   6.536   4.628  10.184  1.1522 -0.5924 -0.4495
 1830TIP3    H226906   6.584   4.768  10.151  1.2738 -0.4478  0.3275
 1831TIP3   OH226907   1.977   5.397  14.016  0.3313  0.1637 -0.4162
 1831TIP3    H126908   1.987   5.404  14.111  0.6899  1.1881 -0.5228
 1831TIP3    H226909   2.023   5.472  13.981  0.1443 -0.1682 -1.4107
 1832TIP3   OH226910   3.639   1.948  13.002  0.4507  0.0984  0.3800
 1832TIP3    H126911   3.563   1.985  12.957 -0.8326 -1.7927  0.8980
 1832TIP3    H226912   3.615   1.950  13.095 -0.4607 -3.4794  0.3470
 1833TIP3   OH226913   6.071   3.126   2.603  0.2999 -0.1551 -0.5600
 1833TIP3    H126914   6.126   3.164   2.534 -0.3813  1.8496 -0.0460
 1833TIP3    H226915   6.081   3.031   2.591  3.3537  0.0989 -0.8668
 1834TIP3   OH226916   1.632   2.038  15.098 -0.5089 -0.0125  0.3925
 1834TIP3    H126917   1.631   2.035  15.002 -0.3284  0.0814  0.3883
 1834TIP3    H226918   1.622   1.946  15.124 -1.2258  0.0299  0.2898
 1835TIP3   OH226919   2.038   5.796   1.437  0.1959 -0.6143 -0.7322
 1835TIP3    H126920   2.133   5.782   1.444  0.2728  0.0847 -0.3339
 1835TIP3    H226921   2.028   5.866   1.374  0.1605  1.6791  1.6307
 1836TIP3   OH226922   4.019   3.047  13.975  0.1585 -0.5878  0.0460
 1836TIP3    H126923   3.947   3.084  14.025 -0.2740 -0.4303 -0.6817
 1836TIP3    H226924   4.034   2.961  14.013  0.9006  0.1499  1.4925
 1837TIP3   OH226925   4.722   4.396  10.761  0.0598 -0.4803  0.0426
 1837TIP3    H126926   4.763   4.328  10.709 -0.0697 -0.7606  0.3015
 1837TIP3    H226927   4.629   4.390  10.739  0.2050  0.4462 -0.8779
 1838TIP3   OH226928   3.940   5.471  10.408 -0.2075  0.6126 -0.2635
 1838TIP3    H126929   4.000   5.443  10.477 -0.8289 -0.8287 -0.2758
 1838TIP3    H226930   3.856   5.485  10.453 -0.1161  1.6810 -0.4019
 1839TIP3   OH226931   0.186   0.410  10.877  0.3308  0.3946 -0.0129
 1839TIP3    H126932   0.147   0.358  10.947  0.5829 -1.3555 -1.0988
 1839TIP3    H226933   0.126   0.485  10.866 -1.0486 -0.5954  0.4335
 1840TIP3   OH226934   5.232   6.360  12.107 -0.3621  0.1872  0.3526
 1840TIP3    H126935   5.150   6.406  12.087  0.1177  0.1009 -2.0787
 1840TIP3    H226936   5.293   6.391  12.041  2.5864  2.5959  3.8228
 1841TIP3   OH226937   1.610   3.590  11.626 -0.6378 -0.2551  0.3076
 1841TIP3    H126938   1.568   3.662  11.578  1.2660  0.9637  0.3577
 1841TIP3    H226939   1.639   3.629  11.708 -1.9805 -1.8059  1.5928
 1842TIP3   OH226940   5.932   5.562  10.473  0.3675  0.1460 -0.3858
 1842TIP3    H126941   5.966   5.652  10.473  0.8332 -0.0212  0.6973
 1842TIP3    H226942   5.883   5.555  10.555  1.0084 -0.8363 -0.0696
 1843TIP3   OH226943   4.355   5.693  13.134 -0.1991 -0.2450  0.1633
 1843TIP3    H126944   4.266   5.724  13.114 -0.4001 -1.0414 -0.1943
 1843TIP3    H226945   4.370   5.723  13.224  0.9739  3.9983 -1.1837
 1844TIP3   OH226946   6.766   5.896  10.435  0.0055 -0.5643 -0.2795
 1844TIP3    H126947   6.808   5.954  10.499 -0.7830  0.4418 -0.6529
 1844TIP3    H226948   6.832   5.884  10.367 -0.9501  2.8494 -2.0250
 1845TIP3   OH226949   6.466   6.406  11.463  0.4903 -0.2849 -0.6321
 1845TIP3    H126950   6.432   6.370  11.544  0.0087 -1.7288 -1.4470
 1845TIP3    H226951   6.561   6.396  11.469  0.4207 -0.8274 -0.4512
 1846TIP3   OH226952   2.671   4.807   9.699 -0.3149  0.0435 -0.4643
 1846TIP3    H126953   2.759   4.841   9.715 -0.4707  0.4434 -0.4627
 1846TIP3    H226954   2.621   4.882   9.668 -1.7938  0.8856  3.4494
 1847TIP3   OH226955   6.487   5.038  14.268 -0.0977 -0.0780 -0.2145
 1847TIP3    H126956   6.441   5.052  14.185  1.3981  0.9988 -0.9004
 1847TIP3    H226957   6.577   5.018  14.243  0.5097  0.7964  1.1429
 1848TIP3   OH226958   0.363   0.414  15.444  0.1729  0.4140  0.4037
 1848TIP3    H126959   0.360   0.429  15.539  0.6508  1.1246  0.3067
 1848TIP3    H226960   0.440   0.462  15.414  2.3716 -2.9104  0.2010
 1849TIP3   OH226961   4.887   7.040  11.882  0.2634  0.0083 -0.1845
 1849TIP3    H126962   4.831   7.096  11.936  2.3563  2.1710 -0.0858
 1849TIP3    H226963   4.950   7.002  11.944 -1.1087 -2.5888 -0.2533
 1850TIP3   OH226964   6.100   1.201  13.477  0.9314 -0.4484 -0.0122
 1850TIP3    H126965   6.010   1.208  13.507 -0.0877  1.6439 -3.0494
 1850TIP3    H226966   6.101   1.125  13.419  1.6763 -1.5835  1.4134
 1851TIP3   OH226967   6.722   6.111   0.068 -0.2870 -0.0803  0.0994
 1851TIP3    H126968   6.783   6.133   0.138  2.1209 -0.6851 -1.6968
 1851TIP3    H226969   6.777   6.078  -0.003 -2.5148  1.2083 -2.4088
 1852TIP3   OH226970   7.041   6.301  10.550  0.2743 -0.1028 -0.0634
 1852TIP3    H126971   7.069   6.272  10.463  1.5169 -0.9600  0.5958
 1852TIP3    H226972   6.985   6.376  10.533 -0.8280 -1.2302 -1.6935
 1853TIP3   OH226973   4.326   6.067   0.739  0.2247 -0.1047 -0.0879
 1853TIP3    H126974   4.296   6.065   0.829 -1.1002  1.1542 -0.4720
 1853TIP3    H226975   4.259   6.017   0.691  1.3907 -1.5612 -0.2824
 1854TIP3   OH226976   1.360   4.285  15.625  0.2969 -0.5355 -0.0699
 1854TIP3    H126977   1.288   4.347  15.635 -0.1143 -1.2151  1.2983
 1854TIP3    H226978   1.357   4.260  15.532 -1.8551 -1.3021  0.1605
 1855TIP3   OH226979   1.467   3.107   0.180 -0.0691  0.4038  0.4698
 1855TIP3    H126980   1.528   3.101   0.254  1.5658  1.0015 -0.7561
 1855TIP3    H226981   1.490   3.189   0.137 -0.7251 -0.1063 -0.9083
 1856TIP3   OH226982   5.533   0.252  11.152 -0.8980  0.0825  0.2543
 1856TIP3    H126983   5.466   0.282  11.091 -1.5349  0.3364  1.0635
 1856TIP3    H226984   5.606   0.313  11.139 -1.4038  0.7323  0.4372
 1857TIP3   OH226985   1.294   5.528   0.716 -0.0414  0.1943 -0.1304
 1857TIP3    H126986   1.265   5.609   0.759 -0.9578 -0.0177 -0.3454
 1857TIP3    H226987   1.239   5.521   0.638  2.1120  1.0160 -1.8716
 1858TIP3   OH226988   5.142   5.908   2.650 -0.1003  0.3963  0.0234
 1858TIP3    H126989   5.154   6.001   2.630  0.4045  0.2129 -0.5755
 1858TIP3    H226990   5.230   5.876   2.672  0.0727 -0.3174 -1.5292
 1859TIP3   OH226991   6.216   2.776  10.373  0.5291 -0.2310  0.2773
 1859TIP3    H126992   6.148   2.733  10.424 -0.1949  0.9915  0.3823
 1859TIP3    H226993   6.207   2.869  10.393  0.5235  0.2501 -1.6962
 1860TIP3   OH226994   0.538   3.061  10.521 -0.2277  0.1768 -0.3000
 1860TIP3    H126995   0.533   2.966  10.506 -2.5048  0.2306 -0.2307
 1860TIP3    H226996   0.521   3.070  10.615 -0.0744  0.6493 -0.3197
 1861TIP3   OH226997   2.740   0.809   0.466  0.3805 -0.1739 -0.1765
 1861TIP3    H126998   2.746   0.787   0.559 -2.9721 -2.0102 -0.2639
 1861TIP3    H226999   2.742   0.905   0.464 -3.9717  0.2069  2.4231
 1862TIP3   OH227000   4.899   0.225   0.471  0.2391  0.1063 -0.0486
 1862TIP3    H127001   4.927   0.137   0.446 -1.8077 -0.5980 -0.0467
 1862TIP3    H227002   4.962   0.252   0.537  1.6896 -0.7893 -1.0021
 1863TIP3   OH227003   4.552   6.062  14.072  0.5204 -0.1728 -0.2026
 1863TIP3    H127004   4.582   6.114  14.146 -0.0642  0.4933 -0.4149
 1863TIP3    H227005   4.628   6.055  14.015  0.3172  1.4686 -0.7266
 1864TIP3   OH227006   5.843   6.188  13.660 -0.2800  0.1004 -0.8189
 1864TIP3    H127007   5.822   6.279  13.678 -0.1068 -0.1905  1.1688
 1864TIP3    H227008   5.904   6.191  13.587  2.6128  1.9609  1.4184
 1865TIP3   OH227009   5.066   2.613   3.703  0.3192  0.2691  0.4483
 1865TIP3    H127010   5.036   2.545   3.643 -0.8782  0.4476  0.8295
 1865TIP3    H227011   5.144   2.650   3.661 -0.2917  0.1535 -0.8131
 1866TIP3   OH227012   7.113   4.487  13.192 -0.0271 -0.1155 -0.0403
 1866TIP3    H127013   7.194   4.533  13.212  0.0627 -0.6328  0.8076
 1866TIP3    H227014   7.129   4.446  13.107  0.1495  0.7938 -0.4577
 1867TIP3   OH227015   2.338   3.486  15.197 -0.0585  0.0398 -0.1932
 1867TIP3    H127016   2.265   3.482  15.258  0.2407  0.1711  0.1739
 1867TIP3    H227017   2.366   3.577  15.197 -0.7775  0.2844 -1.3890
 1868TIP3   OH227018   3.800   0.492  14.245  0.0885 -0.6596 -0.4195
 1868TIP3    H127019   3.739   0.453  14.307  0.9029 -2.3409 -0.6022
 1868TIP3    H227020   3.847   0.558  14.295 -0.4873 -0.7700  0.2756
 1869TIP3   OH227021   7.067   5.067  12.014 -0.2500 -0.7107  0.1956
 1869TIP3    H127022   7.125   5.138  12.043 -0.5435 -0.5985  0.5059
 1869TIP3    H227023   7.127   4.996  11.991 -0.0055 -0.8263  1.1323
 1870TIP3   OH227024   6.521   3.660   9.627  0.8482 -0.2223 -0.2491
 1870TIP3    H127025   6.445   3.613   9.662  0.4229  0.6562  0.0418
 1870TIP3    H227026   6.485   3.743   9.597  1.3736 -0.5559 -1.9063
 1871TIP3   OH227027   6.467   1.356  10.983 -0.0095  0.5149  0.2636
 1871TIP3    H127028   6.501   1.442  10.958 -2.2628  2.0725  2.0512
 1871TIP3    H227029   6.425   1.323  10.904 -1.7832  2.5559  0.2405
 1872TIP3   OH227030   2.488   2.655  12.992 -0.0047  0.6902 -0.7720
 1872TIP3    H127031   2.430   2.649  13.068 -0.9408 -2.2945 -1.5820
 1872TIP3    H227032   2.453   2.727  12.941 -0.7447  1.2947  0.5251
 1873TIP3   OH227033   4.406   0.825  13.451  0.2937 -0.1272 -0.1076
 1873TIP3    H127034   4.403   0.889  13.522  1.2558  0.2385 -0.3715
 1873TIP3    H227035   4.339   0.854  13.389 -0.7093 -0.5843  0.7591
 1874TIP3   OH227036   5.531   0.677   0.349 -0.4086 -0.4726 -0.0234
 1874TIP3    H127037   5.510   0.756   0.299 -2.3055 -0.4553  0.7367
 1874TIP3    H227038   5.621   0.692   0.380  0.4282 -0.0275 -2.4596
 1875TIP3   OH227039   6.290   5.446  12.492 -0.2335  0.2041 -0.5159
 1875TIP3    H127040   6.246   5.361  12.501 -0.2871  0.3582  0.8195
 1875TIP3    H227041   6.229   5.499  12.441  0.5159 -1.0416 -2.8722
 1876TIP3   OH227042   3.511   4.330  10.026  0.7774  0.3969  0.0878
 1876TIP3    H127043   3.518   4.375   9.942 -2.0244  0.7728 -0.0235
 1876TIP3    H227044   3.422   4.297  10.029  1.1009 -0.4896  2.5119
 1877TIP3   OH227045   0.572   3.100   1.026 -0.4435  0.2610 -0.6871
 1877TIP3    H127046   0.566   3.190   0.995  0.5916  1.2843  1.8664
 1877TIP3    H227047   0.491   3.087   1.075 -0.6597 -0.2921 -1.1738
 1878TIP3   OH227048   3.445   0.276  15.483 -0.1692  0.1378 -0.2211
 1878TIP3    H127049   3.491   0.338  15.539  1.2417 -1.1862  0.1557
 1878TIP3    H227050   3.515   0.226  15.440 -1.2476 -0.4986 -1.3044
 1879TIP3   OH227051   1.273   1.439   0.554 -0.3166 -0.5006  0.4989
 1879TIP3    H127052   1.219   1.476   0.484  0.3805 -1.4452 -0.5638
 1879TIP3    H227053   1.336   1.383   0.510  0.7621 -0.3898  1.8184
 1880TIP3   OH227054   6.933   5.625  11.843 -0.3642  0.1060 -0.4879
 1880TIP3    H127055   7.026   5.643  11.857 -0.5330  1.5610 -1.1087
 1880TIP3    H227056   6.891   5.711  11.840 -1.6096 -0.4873 -1.0592
 1881TIP3   OH227057   5.493   1.741   9.792  0.2270  0.2925 -0.2521
 1881TIP3    H127058   5.454   1.656   9.812  1.3224  0.2717  2.1744
 1881TIP3    H227059   5.423   1.804   9.807  0.3993  0.0727  1.6464
 1882TIP3   OH227060   6.589   6.456   0.649 -0.2440  0.0358 -0.2588
 1882TIP3    H127061   6.621   6.451   0.559 -1.3420  0.6819 -0.7089
 1882TIP3    H227062   6.494   6.441   0.642 -0.3142 -0.1070  0.8095
 1883TIP3   OH227063   0.507   2.906  12.013  0.0108 -0.1341 -1.1278
 1883TIP3    H127064   0.561   2.828  11.999  0.2327 -0.0399 -0.8153
 1883TIP3    H227065   0.419   2.880  11.985  0.2871 -0.1816 -1.9680
 1884TIP3   OH227066   2.142   4.487   0.938  0.1601 -0.2254 -0.1293
 1884TIP3    H127067   2.064   4.483   0.883  0.0000  0.6552  0.0234
 1884TIP3    H227068   2.136   4.572   0.983  1.6311  0.2608 -0.7799
 1885TIP3   OH227069   3.263   5.631   3.066  0.0337 -0.3479 -0.1828
 1885TIP3    H127070   3.211   5.572   3.121  3.6299 -1.1572  2.7703
 1885TIP3    H227071   3.285   5.704   3.124 -0.4870  1.6543 -2.3659
 1886TIP3   OH227072   4.722   7.022  14.059  0.3145 -0.2498 -0.1999
 1886TIP3    H127073   4.689   7.091  14.116 -1.2589 -1.2202  0.1255
 1886TIP3    H227074   4.754   6.955  14.120  1.6169  0.0679 -0.5096
 1887TIP3   OH227075   3.372   5.752  11.060 -0.1051  0.5716 -0.2556
 1887TIP3    H127076   3.395   5.708  10.978 -1.3207 -2.6663  0.9833
 1887TIP3    H227077   3.298   5.808  11.038 -0.8225 -0.7444 -1.2893
 1888TIP3   OH227078   3.299   0.839   0.691 -0.2616 -0.0427 -0.5831
 1888TIP3    H127079   3.282   0.749   0.718 -0.8083  0.7565  2.0352
 1888TIP3    H227080   3.393   0.841   0.675  0.3685 -0.4551  2.4140
 1889TIP3   OH227081   6.599   2.508  11.854  0.0602  0.0429  0.6654
 1889TIP3    H127082   6.633   2.426  11.819 -1.8803 -0.0210 -1.3327
 1889TIP3    H227083   6.504   2.493  11.862 -0.0489  1.3392  2.5142
 1890TIP3   OH227084   5.990   2.440  14.222  0.3874 -0.8874 -0.3895
 1890TIP3    H127085   5.927   2.392  14.277 -0.3983  0.3141 -0.1936
 1890TIP3    H227086   5.940   2.463  14.143  1.3621 -2.1708 -1.4363
 1891TIP3   OH227087   5.768   1.902  12.525 -0.5079  0.0908  0.2467
 1891TIP3    H127088   5.812   1.974  12.479 -0.1592 -0.4233 -0.2239
 1891TIP3    H227089   5.721   1.855  12.457  0.7614 -1.2299  0.2340
 1892TIP3   OH227090   5.894   1.976  13.212 -0.4256 -0.1353 -0.1611
 1892TIP3    H127091   5.874   1.976  13.118 -1.1364 -0.6734 -0.0209
 1892TIP3    H227092   5.825   1.922  13.251  0.3053 -0.5622  0.5799
 1893TIP3   OH227093   7.105   4.384  13.827  0.1142  0.2049 -0.2609
 1893TIP3    H127094   7.084   4.321  13.897  3.2142  0.4053  1.0572
 1893TIP3    H227095   7.082   4.469  13.863  2.9015  0.4470  1.2520
 1894TIP3   OH227096   5.667   3.562  12.658  0.8758  0.2672  0.8752
 1894TIP3    H127097   5.757   3.537  12.635  0.9275 -0.8906  2.2385
 1894TIP3    H227098   5.620   3.561  12.574  2.0997  0.8396  0.1457
 1895TIP3   OH227099   1.568   4.789  12.953  0.2262 -1.0859 -0.2550
 1895TIP3    H127100   1.636   4.765  12.891  0.3281  3.8748 -2.5318
 1895TIP3    H227101   1.610   4.853  13.010 -2.2593  1.9731 -1.5998
 1896TIP3   OH227102   3.211   6.363  11.649 -0.4224 -0.5480 -0.0128
 1896TIP3    H127103   3.271   6.422  11.603  1.1313 -0.3874  2.0267
 1896TIP3    H227104   3.135   6.417  11.669 -0.1567  0.0058 -0.4616
 1897TIP3   OH227105   1.186   0.769  13.478 -0.3051 -0.1997  1.0062
 1897TIP3    H127106   1.115   0.706  13.464  0.1265 -0.8979  1.8897
 1897TIP3    H227107   1.219   0.788  13.390 -3.4800  2.4462  0.1719
 1898TIP3   OH227108   3.022   5.732  12.637 -0.0181 -0.9967  0.2276
 1898TIP3    H127109   3.031   5.807  12.695 -2.6675 -0.1637 -0.2619
 1898TIP3    H227110   2.990   5.661  12.693  0.1549 -1.0307  0.2816
 1899TIP3   OH227111   3.054   4.101  11.773  0.2763 -0.1754 -0.1989
 1899TIP3    H127112   3.080   4.190  11.749  0.4752 -1.0028 -3.5997
 1899TIP3    H227113   3.043   4.056  11.689 -1.8980 -2.8035  1.3328
 1900TIP3   OH227114   2.423   6.814  13.160 -0.1345  0.3616  0.2713
 1900TIP3    H127115   2.444   6.728  13.195 -1.9162 -0.2551 -0.0916
 1900TIP3    H227116   2.401   6.866  13.237  0.1286  0.2594  0.4183
 1901TIP3   OH227117   2.347   2.970   0.127  0.1196  0.2369 -0.0045
 1901TIP3    H127118   2.266   2.974   0.075 -2.3504 -0.3376  3.4572
 1901TIP3    H227119   2.365   2.877   0.136  1.5190  0.3702 -1.1132
 1902TIP3   OH227120   3.685   3.871   0.886  0.0140  0.4402  0.1977
 1902TIP3    H127121   3.712   3.779   0.882 -1.2734 -0.0176  1.2592
 1902TIP3    H227122   3.748   3.912   0.945  0.8989  0.3822 -0.6754
 1903TIP3   OH227123   3.877   0.512  13.896  0.0123 -0.5399 -0.5887
 1903TIP3    H127124   3.883   0.602  13.928 -0.3688 -0.2663 -1.2458
 1903TIP3    H227125   3.881   0.457  13.974  0.5229  0.0389 -0.2061
 1904TIP3   OH227126   6.960   5.916  11.023 -0.7900 -0.1260  0.4934
 1904TIP3    H127127   6.965   5.924  11.118 -0.2237 -2.0935  0.6858
 1904TIP3    H227128   6.996   5.829  11.005 -2.5119 -0.5209 -1.3785
 1905TIP3   OH227129   1.210   4.084  12.121  0.3722  0.3253 -0.0730
 1905TIP3    H127130   1.167   4.135  12.190  1.8454 -1.1064  2.0113
 1905TIP3    H227131   1.138   4.045  12.072 -0.7538  0.0132  1.7359
 1906TIP3   OH227132   1.489   1.656  13.040 -0.4194  0.0157 -0.3800
 1906TIP3    H127133   1.493   1.600  13.118  2.2534  1.8428  0.9358
 1906TIP3    H227134   1.465   1.742  13.073  1.4102  0.9853 -1.3822
 1907TIP3   OH227135   6.155   6.878  11.957 -0.4574 -0.0113 -0.2418
 1907TIP3    H127136   6.065   6.894  11.986 -0.8754  1.1347 -2.0087
 1907TIP3    H227137   6.208   6.938  12.010 -0.9457  0.5278 -0.3518
 1908TIP3   OH227138   1.635   4.207  12.139 -0.1732  0.2379 -0.1576
 1908TIP3    H127139   1.660   4.281  12.195 -0.1223  0.1345 -0.0436
 1908TIP3    H227140   1.579   4.153  12.194 -0.8008  0.5643 -0.4690
 1909TIP3   OH227141   5.963   0.469  10.440  0.5370 -0.3370 -0.7042
 1909TIP3    H127142   6.014   0.455  10.360 -0.8996  0.4363 -1.8014
 1909TIP3    H227143   5.942   0.381  10.471  1.0495 -0.6433 -1.2072
 1910TIP3   OH227144   0.744   3.225   0.735  0.8349 -0.0644 -0.0184
 1910TIP3    H127145   0.704   3.187   0.813 -0.5152  0.9535 -0.1703
 1910TIP3    H227146   0.730   3.160   0.667  1.2430 -0.5800  0.3832
 1911TIP3   OH227147   4.567   3.136   2.359  0.0142  0.2065 -0.1233
 1911TIP3    H127148   4.531   3.083   2.430 -0.9179 -0.4081 -1.0230
 1911TIP3    H227149   4.496   3.194   2.333  0.4076  0.5579 -0.4297
 1912TIP3   OH227150   6.796   4.091   2.157  0.2167  0.3433 -0.9044
 1912TIP3    H127151   6.821   4.149   2.229 -1.5615 -1.2479  1.1525
 1912TIP3    H227152   6.716   4.130   2.122  0.0319  0.1135 -0.7398
 1913TIP3   OH227153   0.652   7.051  14.109  0.1251 -0.1309  0.1055
 1913TIP3    H127154   0.563   7.016  14.102  0.5772 -1.2653 -0.2247
 1913TIP3    H227155   0.671   7.084  14.021  0.4785 -1.0466 -0.1738
 1914TIP3   OH227156   4.529   5.106   4.189 -0.3704  0.0219 -0.2402
 1914TIP3    H127157   4.607   5.051   4.201 -2.2801 -2.5608  1.8023
 1914TIP3    H227158   4.552   5.167   4.120  3.1997 -1.0597 -0.1926
 1915TIP3   OH227159   4.903   6.110   0.667  0.0798 -0.4238 -0.1098
 1915TIP3    H127160   4.942   6.027   0.695 -1.3970 -1.0937  0.0929
 1915TIP3    H227161   4.886   6.157   0.749 -0.0261 -0.3785 -0.1576
 1916TIP3   OH227162   2.135   4.148  13.950  0.5278 -0.0384 -0.7192
 1916TIP3    H127163   2.164   4.234  13.921 -2.7746  1.5778  0.3734
 1916TIP3    H227164   2.139   4.152  14.045 -0.1105 -0.9563 -0.6388
 1917TIP3   OH227165   2.149   4.745  13.874  0.0324 -0.7993  0.7014
 1917TIP3    H127166   2.088   4.708  13.810  1.2053 -0.4449 -0.6895
 1917TIP3    H227167   2.227   4.767  13.822 -0.1680  2.6186  1.5753
 1918TIP3   OH227168   7.045   2.534   4.154 -0.2308  0.2579  0.1379
 1918TIP3    H127169   7.124   2.527   4.209 -0.0434  2.2416  0.1977
 1918TIP3    H227170   7.035   2.628   4.139 -1.2021 -0.1236 -1.9216
 1919TIP3   OH227171   5.453   5.111  10.014  0.3916 -0.0769 -0.8793
 1919TIP3    H127172   5.503   5.050  10.068  0.3637 -0.5586 -1.3938
 1919TIP3    H227173   5.375   5.130  10.066 -0.2438 -1.5116 -1.2705
 1920TIP3   OH227174   1.727   1.684  12.372  0.5801 -0.3030  0.2657
 1920TIP3    H127175   1.698   1.773  12.395 -0.0791 -0.4845  0.1734
 1920TIP3    H227176   1.684   1.628  12.437  1.8694 -0.4661  1.0095
 1921TIP3   OH227177   3.269   0.478   2.104  0.4570  0.2878 -0.0257
 1921TIP3    H127178   3.175   0.470   2.088  0.4791 -0.6041  0.2602
 1921TIP3    H227179   3.289   0.571   2.087 -1.1229  1.4098  3.3762
 1922TIP3   OH227180   2.183   4.207  12.965  0.2178 -0.0906 -0.0483
 1922TIP3    H127181   2.191   4.255  13.047  1.1330 -0.3358  0.0110
 1922TIP3    H227182   2.254   4.241  12.910  1.6857 -2.2287  0.4352
 1923TIP3   OH227183   0.742   2.094  11.345  1.0799  0.0879 -0.3361
 1923TIP3    H127184   0.731   2.161  11.413 -1.2425 -0.8423  0.3224
 1923TIP3    H227185   0.697   2.017  11.381 -1.1617 -0.1759 -3.2832
 1924TIP3   OH227186   3.541   0.544  14.759 -0.4015  0.3357 -0.2785
 1924TIP3    H127187   3.610   0.592  14.713  0.3607 -1.5218 -1.1694
 1924TIP3    H227188   3.574   0.536  14.849 -2.0886  4.3447  0.8919
 1925TIP3   OH227189   0.431   5.329  12.541  0.5086  0.4651 -0.0471
 1925TIP3    H127190   0.464   5.373  12.620  1.4295 -0.4274  0.0862
 1925TIP3    H227191   0.487   5.252  12.532 -1.2495 -0.8656 -0.0992
 1926TIP3   OH227192   5.366   4.224  12.473 -0.6777 -0.2850  0.0238
 1926TIP3    H127193   5.439   4.162  12.467 -1.2629 -1.0169  0.2962
 1926TIP3    H227194   5.356   4.257  12.383 -0.9628 -1.3116 -0.3404
 1927TIP3   OH227195   3.742   4.171   6.130  0.1818 -0.5252  0.2199
 1927TIP3    H127196   3.655   4.132   6.134 -0.2892 -0.7950 -5.0549
 1927TIP3    H227197   3.802   4.097   6.127  0.0543 -0.6071 -1.0633
 1928TIP3   OH227198   0.964   6.361  12.816 -0.2632 -0.1569  0.2221
 1928TIP3    H127199   0.989   6.453  12.818  0.2098 -0.2906  0.6200
 1928TIP3    H227200   0.885   6.356  12.870 -0.2470  0.0036  0.2607
 1929TIP3   OH227201   0.122   7.044  14.920  0.1332 -0.3808  1.1352
 1929TIP3    H127202   0.054   7.007  14.976 -0.8046 -1.4029 -0.5948
 1929TIP3    H227203   0.140   6.975  14.855  2.1645  0.2158  0.9821
 1930TIP3   OH227204   3.289   0.742   2.835 -0.2489 -0.0120 -0.3649
 1930TIP3    H127205   3.339   0.678   2.885  0.5618 -0.2477 -1.4320
 1930TIP3    H227206   3.355   0.793   2.788 -0.9366 -2.1836 -4.1160
 1931TIP3   OH227207   3.115   4.243  13.800  0.4333 -0.4457 -0.5094
 1931TIP3    H127208   3.083   4.199  13.721 -0.1179 -1.7959  0.4305
 1931TIP3    H227209   3.207   4.261  13.782  0.2004 -0.2901 -1.6362
 1932TIP3   OH227210   6.790   7.121  14.729  1.1808 -0.9366 -0.1496
 1932TIP3    H127211   6.783   7.214  14.711 -1.2460 -1.0029  0.2339
 1932TIP3    H227212   6.843   7.116  14.809  1.4923  0.0769 -0.2829
 1933TIP3   OH227213   6.282   3.878  11.443  0.3640 -0.6309 -0.7751
 1933TIP3    H127214   6.373   3.855  11.423  0.8901  1.2948 -0.7679
 1933TIP3    H227215   6.241   3.888  11.357 -0.0042 -1.9559 -0.7809
 1934TIP3   OH227216   4.992   6.007  12.182  0.2794 -0.1168  0.0474
 1934TIP3    H127217   4.959   5.917  12.179  0.3186 -0.2114  1.5922
 1934TIP3    H227218   4.945   6.048  12.254 -2.0730  2.1298 -2.5266
 1935TIP3   OH227219   6.594   0.157  10.576  0.3472 -0.5728  0.5138
 1935TIP3    H127220   6.632   0.235  10.534  0.0221 -0.4223  0.4983
 1935TIP3    H227221   6.586   0.093  10.506 -0.3879 -0.2526  0.2935
 1936TIP3   OH227222   3.751   0.387  11.131  0.2503 -1.0425 -1.1001
 1936TIP3    H127223   3.844   0.368  11.141  0.3447 -0.3899 -0.6184
 1936TIP3    H227224   3.748   0.462  11.072  0.0340 -0.9986 -1.0340
 1937TIP3   OH227225   0.924   1.208   2.225 -0.0716 -0.0195 -0.0573
 1937TIP3    H127226   0.993   1.274   2.212 -1.1866  1.1320 -0.3587
 1937TIP3    H227227   0.911   1.169   2.139  0.3191 -0.3573  0.0362
 1938TIP3   OH227228   0.115   0.438  15.097 -0.4755 -0.2190  0.0515
 1938TIP3    H127229   0.164   0.387  15.033  3.0098  0.7451  1.7174
 1938TIP3    H227230   0.115   0.527  15.062 -0.1181 -0.0188  0.5497
 1939TIP3   OH227231   4.458   6.180  11.268  0.6422  0.1996 -0.7939
 1939TIP3    H127232   4.364   6.194  11.271  0.8506  1.6528  0.3443
 1939TIP3    H227233   4.468   6.088  11.246 -1.1411 -0.8893  2.2845
 1940TIP3   OH227234   1.581   2.741  11.685 -0.4045  0.2485  0.3463
 1940TIP3    H127235   1.495   2.775  11.712 -1.0676  1.8880 -3.2534
 1940TIP3    H227236   1.642   2.813  11.703 -0.0742 -0.2459  1.2582
 1941TIP3   OH227237   6.676   4.318  13.507  0.2939  0.0852 -0.1339
 1941TIP3    H127238   6.587   4.334  13.474  1.3056  1.9177 -2.1596
 1941TIP3    H227239   6.698   4.231  13.475 -0.2142  0.2366 -0.9228
 1942TIP3   OH227240   6.675   1.167  10.265  0.1817 -0.8703  0.2228
 1942TIP3    H127241   6.759   1.160  10.220  0.1992 -0.1498  0.1348
 1942TIP3    H227242   6.683   1.107  10.339  1.8121  1.0773  1.7819
 1943TIP3   OH227243   2.151   0.867   3.254  0.2077 -0.5528 -0.1169
 1943TIP3    H127244   2.183   0.947   3.296  0.6695  0.6011 -2.4995
 1943TIP3    H227245   2.056   0.877   3.252  0.2232 -0.3496  0.1241
 1944TIP3   OH227246   5.303   4.857  13.832 -0.4636 -0.2655  0.5778
 1944TIP3    H127247   5.360   4.918  13.785 -0.0995 -0.4991  0.7109
 1944TIP3    H227248   5.216   4.897  13.827 -0.3703 -0.1328 -0.0147
 1945TIP3   OH227249   5.674   2.178  10.769 -0.4624  0.2015  0.1067
 1945TIP3    H127250   5.593   2.187  10.819  0.2786 -0.3369  1.4537
 1945TIP3    H227251   5.741   2.158  10.835  0.2956 -2.0633 -1.2435
 1946TIP3   OH227252   7.058   2.714   5.411  0.1206  0.1481  0.5111
 1946TIP3    H127253   7.081   2.669   5.330  1.4629  0.6287  0.6046
 1946TIP3    H227254   6.962   2.709   5.414  0.1445 -1.4776 -0.1629
 1947TIP3   OH227255   2.420   0.466  15.407 -0.0290  0.1760 -0.3682
 1947TIP3    H127256   2.424   0.374  15.435 -0.5903 -0.2644 -1.6739
 1947TIP3    H227257   2.511   0.490  15.393  0.0852 -0.3455 -0.5445
 1948TIP3   OH227258   3.136   6.928   0.619  0.0452 -0.3426 -0.3049
 1948TIP3    H127259   3.108   6.868   0.550 -0.7437  0.4347 -0.6712
 1948TIP3    H227260   3.167   6.870   0.690 -0.3814 -1.1656 -0.7762
 1949TIP3   OH227261   1.363   2.524   4.645  0.2911  0.8074  0.6720
 1949TIP3    H127262   1.419   2.480   4.581 -0.7437 -1.8730  1.4546
 1949TIP3    H227263   1.399   2.498   4.730 -1.8993 -0.8615  1.1918
 1950TIP3   OH227264   2.741   2.034   9.742  0.1692  0.1699  0.4753
 1950TIP3    H127265   2.807   2.023   9.811  0.2044 -0.6095  0.3312
 1950TIP3    H227266   2.763   1.966   9.678 -0.3688  0.3497  0.1004
 1951TIP3   OH227267   7.109   4.627   3.286  0.8243  0.4089 -0.1036
 1951TIP3    H127268   7.173   4.571   3.330 -0.0986 -0.3335  0.3301
 1951TIP3    H227269   7.031   4.623   3.341  0.5786  1.7902 -0.2944
 1952TIP3   OH227270   4.499   4.911  13.771 -0.1019  0.5527 -0.4491
 1952TIP3    H127271   4.475   4.903  13.864 -1.9625  0.7287 -0.8853
 1952TIP3    H227272   4.530   5.001  13.762  0.4282  0.4327  0.0507
 1953TIP3   OH227273   5.648   1.092   9.717 -0.1127 -0.5083 -0.4688
 1953TIP3    H127274   5.727   1.102   9.664  0.7175 -1.4832  0.5314
 1953TIP3    H227275   5.598   1.171   9.700  1.9742  1.0725  0.3274
 1954TIP3   OH227276   7.115   5.636  13.035  0.3878  0.1261 -0.0913
 1954TIP3    H127277   7.161   5.693  12.974 -0.2921 -0.3924 -1.1254
 1954TIP3    H227278   7.162   5.552  13.030 -1.4933 -0.8997 -2.3438
 1955TIP3   OH227279   0.882   2.788  10.557 -0.3553 -0.3331 -0.0216
 1955TIP3    H127280   0.896   2.880  10.579 -0.4796 -0.5388  0.9517
 1955TIP3    H227281   0.952   2.767  10.494 -0.6748  0.5713 -0.7015
 1956TIP3   OH227282   1.582   0.168  11.413 -0.2300 -0.8765 -0.4768
 1956TIP3    H127283   1.634   0.181  11.333  0.6181  0.4554  0.2458
 1956TIP3    H227284   1.618   0.089  11.453  1.1827 -0.0420 -0.0546
 1957TIP3   OH227285   5.885   1.148   9.603  0.6272 -1.0685  0.4629
 1957TIP3    H127286   5.869   1.193   9.520  1.0810 -0.8460  0.4961
 1957TIP3    H227287   5.972   1.109   9.594  0.3144 -1.8035  0.5010
 1958TIP3   OH227288   2.542   2.358  11.984 -0.1081  0.4443  0.1217
 1958TIP3    H127289   2.516   2.282  11.931  0.0781 -0.1658  0.8764
 1958TIP3    H227290   2.463   2.412  11.989 -0.3201  0.1676 -0.2143
 1959TIP3   OH227291   3.559   0.601  13.935 -0.0127  0.1424  0.0440
 1959TIP3    H127292   3.560   0.505  13.942  2.4913 -0.0060 -1.2648
 1959TIP3    H227293   3.555   0.632  14.025 -3.8901 -1.0548  0.4730
 1960TIP3   OH227294   1.966   4.752   0.806  0.2741  0.1987  1.1164
 1960TIP3    H127295   2.033   4.816   0.830 -1.4790  3.7648 -2.4038
 1960TIP3    H227296   2.001   4.708   0.729 -0.6301  0.8411  0.3092
 1961TIP3   OH227297   0.496   2.036  12.226  0.0087 -0.4449 -0.1410
 1961TIP3    H127298   0.515   2.039  12.133  1.0272 -1.8069 -0.0071
 1961TIP3    H227299   0.569   1.987  12.264 -1.1063 -1.1664  1.1626
 1962TIP3   OH227300   1.489   5.162  10.636 -0.1957  0.2288 -0.0938
 1962TIP3    H127301   1.399   5.133  10.645 -0.9803  2.1193 -1.2859
 1962TIP3    H227302   1.528   5.098  10.576 -1.3882  0.5673 -1.2895
 1963TIP3   OH227303   5.857   0.248  12.472 -0.1099  0.4317  0.4605
 1963TIP3    H127304   5.838   0.282  12.560 -1.1900  1.6744 -0.2021
 1963TIP3    H227305   5.771   0.224  12.437  0.1872  0.7722 -0.5508
 1964TIP3   OH227306   0.718   1.497  10.113  0.1326 -0.2454 -0.1145
 1964TIP3    H127307   0.797   1.549  10.096  0.3777  0.1680  2.0243
 1964TIP3    H227308   0.712   1.438  10.038  2.4635 -0.2665 -0.3641
 1965TIP3   OH227309   5.354   3.662   2.854 -0.4230  0.1245 -0.0874
 1965TIP3    H127310   5.397   3.733   2.807  1.1114 -0.0329  1.0045
 1965TIP3    H227311   5.260   3.677   2.839 -0.0728  1.3288 -1.3274
 1966TIP3   OH227312   5.866   4.057  10.176  0.2591  0.0196 -0.0718
 1966TIP3    H127313   5.793   4.044  10.237 -0.3538 -2.0955 -1.1697
 1966TIP3    H227314   5.854   4.146  10.143 -1.7662 -0.2393 -0.1495
 1967TIP3   OH227315   3.864   1.496  10.815 -1.1014 -0.0609  0.3317
 1967TIP3    H127316   3.904   1.499  10.727 -1.0809  3.2040  0.3301
 1967TIP3    H227317   3.776   1.463  10.800 -0.1792 -2.4163 -0.4121
 1968TIP3   OH227318   7.061   1.269  11.192  0.1441  0.1356  0.2183
 1968TIP3    H127319   7.127   1.334  11.217  2.4896 -1.7415 -0.6510
 1968TIP3    H227320   6.980   1.319  11.184  1.4057  2.5758  1.4100
 1969TIP3   OH227321   3.214   2.413  10.649 -0.0595 -0.4376  0.4796
 1969TIP3    H127322   3.272   2.489  10.647 -1.7532  1.1287  3.5555
 1969TIP3    H227323   3.265   2.346  10.696  0.6570 -0.5245 -0.3868
 1970TIP3   OH227324   4.519   2.926  12.053 -0.4914  0.4241  0.0554
 1970TIP3    H127325   4.590   2.965  12.104 -1.1459  1.0212  0.5228
 1970TIP3    H227326   4.495   2.994  11.990  1.6473 -0.9704 -2.5028
 1971TIP3   OH227327   3.502   1.079   3.839 -0.1195 -0.0354  0.0515
 1971TIP3    H127328   3.497   0.984   3.852 -0.6418  0.0252  0.3061
 1971TIP3    H227329   3.587   1.093   3.796  0.2430 -0.5497  0.5899
 1972TIP3   OH227330   5.318   4.825  12.979 -0.0588  0.1659 -0.1291
 1972TIP3    H127331   5.401   4.869  12.995 -0.1296  0.4167 -0.4331
 1972TIP3    H227332   5.331   4.736  13.012  0.2129  0.3030  0.1418
 1973TIP3   OH227333   6.174   1.108  12.305  0.1918  0.2037  0.1212
 1973TIP3    H127334   6.215   1.026  12.277 -1.2047 -0.6184  0.3817
 1973TIP3    H227335   6.082   1.098  12.282 -0.1659  1.3569  0.9375
 1974TIP3   OH227336   2.800   1.073  12.355  0.2486  0.4682  0.0753
 1974TIP3    H127337   2.852   1.130  12.298  1.1472 -0.7795 -0.4104
 1974TIP3    H227338   2.787   0.994  12.303  2.7887 -1.5330  2.2248
 1975TIP3   OH227339   5.509   2.746  11.974  0.5751 -0.1887 -0.0407
 1975TIP3    H127340   5.506   2.782  12.062  0.2053 -1.7521  0.6311
 1975TIP3    H227341   5.423   2.765  11.937  0.6496  0.2725  0.0238
 1976TIP3   OH227342   5.936   2.404  12.387  0.6623 -0.0171  0.3725
 1976TIP3    H127343   5.942   2.484  12.439  0.1081 -0.0020  0.4113
 1976TIP3    H227344   5.886   2.430  12.309 -0.9972 -0.7243  1.1726
 1977TIP3   OH227345   1.473   6.305  14.073 -0.0549  0.0424  0.3497
 1977TIP3    H127346   1.411   6.294  14.145 -0.0262  1.5156  0.6314
 1977TIP3    H227347   1.420   6.298  13.994  0.0072 -2.1897  0.4538
 1978TIP3   OH227348   0.345   5.164  11.362  0.7044  0.3102 -0.3524
 1978TIP3    H127349   0.317   5.193  11.449 -0.2115  0.6770 -0.7605
 1978TIP3    H227350   0.406   5.233  11.333  2.2962 -0.6149  0.6360
 1979TIP3   OH227351   1.848   1.218  14.747  0.1477 -0.1333 -0.3887
 1979TIP3    H127352   1.901   1.296  14.763  0.7294 -0.8496  1.5114
 1979TIP3    H227353   1.824   1.224  14.655  0.5674  2.0330 -0.4211
 1980TIP3   OH227354   4.995   0.372  10.764  0.5541  0.0878  0.8061
 1980TIP3    H127355   4.981   0.466  10.757  0.4559  0.0383  0.2449
 1980TIP3    H227356   4.910   0.338  10.794  0.6386  0.1965  1.1644
 1981TIP3   OH227357   1.404   2.346  13.933 -0.0161  0.0171 -0.6798
 1981TIP3    H127358   1.371   2.362  14.022  1.1744  1.5400 -0.4572
 1981TIP3    H227359   1.370   2.260  13.909 -0.9775 -0.0936  0.9654
 1982TIP3   OH227360   7.006   0.388  10.462  0.0430  0.1864  0.1839
 1982TIP3    H127361   7.046   0.304  10.439  0.1151  0.1485  0.4497
 1982TIP3    H227362   7.073   0.453  10.440 -1.0011  0.4386 -2.6877
 1983TIP3   OH227363   4.013   2.638  13.783  0.8852 -0.3228  0.7967
 1983TIP3    H127364   4.075   2.636  13.711  0.4592  0.4728  0.3935
 1983TIP3    H227365   3.959   2.715  13.766  0.4583 -0.4087  1.6975
 1984TIP3   OH227366   5.276   3.154   0.863  0.3420 -0.8834 -0.2932
 1984TIP3    H127367   5.210   3.086   0.844 -0.1955 -0.5425  0.3206
 1984TIP3    H227368   5.335   3.112   0.927  1.0629 -1.3814 -1.2578
 1985TIP3   OH227369   2.082   3.551   1.304  0.0082  0.3931 -0.5001
 1985TIP3    H127370   2.009   3.495   1.329 -0.8949  1.7442  0.0237
 1985TIP3    H227371   2.058   3.584   1.218  0.5807 -0.0831 -0.8479
 1986TIP3   OH227372   0.414   2.460  12.431 -0.2276 -0.0616 -0.2405
 1986TIP3    H127373   0.455   2.498  12.508 -0.3457 -0.5945  0.0866
 1986TIP3    H227374   0.322   2.486  12.437 -0.6993 -1.7600  0.8899
 1987TIP3   OH227375   0.921   6.213  14.081 -0.5593  0.1148  0.3076
 1987TIP3    H127376   0.908   6.263  14.162  3.7471 -0.2617  1.5101
 1987TIP3    H227377   0.967   6.134  14.110 -0.5813 -0.9428 -2.3360
 1988TIP3   OH227378   5.039   4.645   2.479  0.1591 -0.7173  0.5273
 1988TIP3    H127379   5.005   4.686   2.399  0.2876 -1.3753  0.1318
 1988TIP3    H227380   5.057   4.719   2.537 -1.2622 -0.2973  0.4818
 1989TIP3   OH227381   0.566   0.610   4.045 -0.1082  0.1027  0.2644
 1989TIP3    H127382   0.470   0.609   4.045 -0.1318 -0.9370 -0.8816
 1989TIP3    H227383   0.589   0.694   4.084 -1.5143  0.8806 -0.4783
 1990TIP3   OH227384   5.961   3.947  14.723 -0.3230  0.0417 -0.2153
 1990TIP3    H127385   6.041   3.945  14.670 -0.5632  0.2293 -0.5912
 1990TIP3    H227386   5.992   3.954  14.813  0.0722  0.6772 -0.3944
 1991TIP3   OH227387   5.914   0.711  14.560 -1.1683 -0.7367  0.1730
 1991TIP3    H127388   5.828   0.751  14.570 -1.0204 -0.4079  0.1587
 1991TIP3    H227389   5.896   0.620  14.539 -1.5132 -0.6221 -0.0371
 1992TIP3   OH227390   6.068   3.127  11.272 -0.4967  0.3801 -0.6440
 1992TIP3    H127391   6.113   3.163  11.348 -1.3207  0.8718 -0.3667
 1992TIP3    H227392   6.019   3.052  11.307 -0.1858  0.0765 -0.8642
 1993TIP3   OH227393   6.411   4.473  15.545  0.4391  0.5089  0.0279
 1993TIP3    H127394   6.347   4.483  15.615 -0.2036 -1.7524 -0.1555
 1993TIP3    H227395   6.391   4.545  15.484 -2.2996 -0.3829 -0.2655
 1994TIP3   OH227396   3.772   3.745   1.270  0.2269  0.5688 -0.2928
 1994TIP3    H127397   3.724   3.675   1.226  0.0797  0.1842  0.4581
 1994TIP3    H227398   3.861   3.711   1.278  0.5551  1.1512 -1.4001
 1995TIP3   OH227399   5.088   5.657  10.665  0.5678 -0.4197 -0.1940
 1995TIP3    H127400   5.026   5.585  10.670  1.9206 -1.5597  1.6889
 1995TIP3    H227401   5.084   5.686  10.574 -3.4730  0.3506  0.0301
 1996TIP3   OH227402   5.897   4.342  14.193 -0.4301  0.8264  0.0988
 1996TIP3    H127403   5.933   4.421  14.235  0.6515  1.0512 -1.1718
 1996TIP3    H227404   5.969   4.279  14.196 -0.9075  0.2776  0.0729
 1997TIP3   OH227405   5.924   6.024  10.009 -0.0454  0.6903  0.3087
 1997TIP3    H127406   5.982   6.094  10.037 -0.0276  1.4614 -1.5371
 1997TIP3    H227407   5.919   6.033   9.914 -1.6849 -0.5305  0.2351
 1998TIP3   OH227408   5.738   6.033  11.115  0.3970  0.7879 -0.0115
 1998TIP3    H127409   5.800   5.960  11.127  0.6021  0.9172 -0.2777
 1998TIP3    H227410   5.720   6.063  11.204 -1.6624 -1.1959  0.3482
 1999TIP3   OH227411   5.627   3.920   0.935  0.1227  0.7151 -0.2185
 1999TIP3    H127412   5.542   3.881   0.955  0.4127  1.4173  2.7202
 1999TIP3    H227413   5.606   3.999   0.884 -0.8261 -0.0438 -1.0365
 2000TIP3   OH227414   3.328   6.260  15.101  0.6457 -0.2058  0.3645
 2000TIP3    H127415   3.338   6.293  15.190  1.9311 -0.4375  0.3207
 2000TIP3    H227416   3.279   6.178  15.110  1.5117 -0.6678  0.9538
 2001TIP3   OH227417   6.497   0.132  14.518  0.7184 -0.1896 -0.2391
 2001TIP3    H127418   6.512   0.101  14.607  1.0011  0.3975 -0.0751
 2001TIP3    H227419   6.427   0.077  14.484  1.3442 -1.1356 -0.0322
 2002TIP3   OH227420   3.153   5.509   0.011  0.4195  0.0017  0.4126
 2002TIP3    H127421   3.243   5.526  -0.017 -0.0220 -0.4875 -1.3900
 2002TIP3    H227422   3.161   5.489   0.105  2.1785 -0.0125  0.2923
 2003TIP3   OH227423   2.903   1.832  12.996  0.1532 -0.1379  0.1683
 2003TIP3    H127424   2.853   1.854  13.075  2.1086 -0.3318  1.5253
 2003TIP3    H227425   2.933   1.916  12.962 -0.2978 -0.0862 -0.1060
 2004TIP3   OH227426   4.585   4.429  11.637 -0.4102 -0.0931  0.1165
 2004TIP3    H127427   4.559   4.496  11.575 -0.7281 -0.4681 -0.1620
 2004TIP3    H227428   4.665   4.463  11.678 -0.4318  0.3386 -0.1951
 2005TIP3   OH227429   3.369   4.712   4.860  0.7998 -0.0667 -0.0997
 2005TIP3    H127430   3.426   4.676   4.929  1.0772 -1.0311 -0.8077
 2005TIP3    H227431   3.387   4.657   4.784  1.4615  1.7736 -1.3398
 2006TIP3   OH227432   0.709   0.748   0.071 -0.0554  0.0592  0.5256
 2006TIP3    H127433   0.682   0.795   0.150 -0.8301  2.1028 -0.8699
 2006TIP3    H227434   0.630   0.704   0.041 -0.3004  0.9275 -0.1566
 2007TIP3   OH227435   4.421   5.306  10.938 -0.2930 -0.1628  0.4211
 2007TIP3    H127436   4.337   5.351  10.949  0.2349  0.7920  0.6207
 2007TIP3    H227437   4.483   5.359  10.987  0.7607  0.1541 -1.2003
 2008TIP3   OH227438   3.321   0.352   0.406  0.2059 -0.4311 -0.0690
 2008TIP3    H127439   3.263   0.360   0.330 -0.6565 -1.0815  0.4985
 2008TIP3    H227440   3.403   0.319   0.370 -0.1372 -0.5738 -0.7376
 2009TIP3   OH227441   0.507   4.926  12.132  0.1072  0.4644  1.1968
 2009TIP3    H127442   0.414   4.932  12.112  0.3790 -1.1169 -0.9382
 2009TIP3    H227443   0.513   4.859  12.200 -0.2085 -0.8968 -0.0684
 2010TIP3   OH227444   4.303   2.348  10.774  0.4961  0.1764  0.2108
 2010TIP3    H127445   4.296   2.437  10.739  1.5913  0.0922 -0.2669
 2010TIP3    H227446   4.213   2.318  10.780  0.1363  1.1331 -0.1136
 2011TIP3   OH227447   2.536   1.368   9.492  0.0976  0.1911  0.0675
 2011TIP3    H127448   2.529   1.274   9.510  3.1183 -0.2067 -0.3384
 2011TIP3    H227449   2.449   1.393   9.460 -1.0755 -2.2210  1.1427
 2012TIP3   OH227450   3.675   0.747  13.007 -0.5118  0.1930 -0.0273
 2012TIP3    H127451   3.627   0.668  12.982 -1.6167  0.6466  0.5802
 2012TIP3    H227452   3.608   0.815  13.014  0.2793  0.9547  0.4195
 2013TIP3   OH227453   1.056   1.348  10.778 -0.2302 -0.0466  0.1644
 2013TIP3    H127454   1.042   1.330  10.871 -0.7456 -0.0442  0.0915
 2013TIP3    H227455   1.150   1.339  10.766  0.1096  1.7424  1.0754
 2014TIP3   OH227456   6.156   6.588  13.429  0.5616  0.1158 -0.1001
 2014TIP3    H127457   6.210   6.520  13.468  0.5915  0.9815  1.4450
 2014TIP3    H227458   6.068   6.550  13.425  0.8908 -0.5993 -0.8322
 2015TIP3   OH227459   2.605   4.543   1.769  0.3518 -0.4683  0.0007
 2015TIP3    H127460   2.622   4.454   1.800 -1.1472 -0.1625  1.8601
 2015TIP3    H227461   2.510   4.553   1.775  0.0726  0.1416 -3.4642
 2016TIP3   OH227462   6.202   1.329  10.983  0.4559  0.0432 -0.4660
 2016TIP3    H127463   6.178   1.266  11.052  0.6217 -1.8464 -2.0479
 2016TIP3    H227464   6.298   1.331  10.987  0.5592 -1.2544 -1.5795
 2017TIP3   OH227465   3.689   2.995  10.323 -0.6757  0.1544  0.2622
 2017TIP3    H127466   3.631   2.989  10.399  0.2571 -2.7060  0.8786
 2017TIP3    H227467   3.775   2.970  10.358  0.2302  0.9455 -1.3243
 2018TIP3   OH227468   2.165   2.433   3.126 -0.3842 -0.1754 -0.4325
 2018TIP3    H127469   2.141   2.517   3.165 -0.4315  0.9783 -2.7757
 2018TIP3    H227470   2.252   2.447   3.090 -0.0784 -1.3945 -0.2117
 2019TIP3   OH227471   3.032   6.742  12.532  0.1773  0.2199 -0.5662
 2019TIP3    H127472   2.948   6.764  12.572  0.1741  1.1515 -1.0339
 2019TIP3    H227473   3.086   6.820  12.547  0.0787  0.7484 -2.5816
 2020TIP3   OH227474   2.741   4.422  14.133  0.5378 -0.5088  0.1262
 2020TIP3    H127475   2.677   4.362  14.171 -1.1643  0.9544 -0.2908
 2020TIP3    H227476   2.755   4.389  14.044 -0.6407 -0.1470 -0.2132
 2021TIP3   OH227477   1.925   5.169   3.355  0.0465 -0.3405 -0.3156
 2021TIP3    H127478   1.875   5.202   3.429  0.0595 -0.3707 -0.2934
 2021TIP3    H227479   1.983   5.103   3.392  1.3216  0.8771 -0.0209
 2022TIP3   OH227480   3.118   1.124  12.801 -0.2283 -0.4280 -0.3517
 2022TIP3    H127481   3.200   1.144  12.755 -0.5699 -0.4379 -0.9719
 2022TIP3    H227482   3.050   1.139  12.736 -0.8406  0.9207  0.5436
 2023TIP3   OH227483   4.790   5.283  10.489 -0.3316 -0.2074 -0.1042
 2023TIP3    H127484   4.792   5.251  10.399 -1.2488 -0.0292 -0.1968
 2023TIP3    H227485   4.736   5.219  10.536 -1.6421  0.8263 -0.1488
 2024TIP3   OH227486   1.957   2.124   0.684  0.1840 -0.0154 -0.3055
 2024TIP3    H127487   1.874   2.128   0.637 -1.0524  2.7151  1.8252
 2024TIP3    H227488   2.015   2.073   0.627 -2.3752 -0.4311 -2.7285
 2025TIP3   OH227489   0.737   0.856  13.590  0.4236 -0.2491  0.9214
 2025TIP3    H127490   0.666   0.874  13.527  0.7073  0.9814  0.9368
 2025TIP3    H227491   0.798   0.929  13.578  1.2067 -0.7875  1.6037
 2026TIP3   OH227492   3.665   4.993   5.010  0.0953 -0.2427 -0.4232
 2026TIP3    H127493   3.719   5.058   4.965  0.5948  0.4897  1.1444
 2026TIP3    H227494   3.659   5.025   5.100 -2.3487 -0.6804 -0.3426
 2027TIP3   OH227495   4.844   6.697  14.854  0.0603  0.5577 -0.6491
 2027TIP3    H127496   4.859   6.683  14.948 -0.9746 -0.2465 -0.5856
 2027TIP3    H227497   4.756   6.732  14.849 -0.0166  0.2798 -1.3433
 2028TIP3   OH227498   3.780   6.287  15.368  0.2255  0.4648  0.4977
 2028TIP3    H127499   3.768   6.259  15.459  0.4735 -0.1096  0.3547
 2028TIP3    H227500   3.870   6.321  15.366 -0.2390  1.7800  0.7942
 2029TIP3   OH227501   3.706   2.616  12.023  0.1779  0.6505  0.4537
 2029TIP3    H127502   3.779   2.669  11.990  1.5183 -1.8416 -0.8177
 2029TIP3    H227503   3.643   2.616  11.951  0.2878  0.3223  0.3579
 2030TIP3   OH227504   6.204   6.324  12.371  0.1871 -0.7624  0.1577
 2030TIP3    H127505   6.275   6.342  12.309 -0.2210  1.2634  0.2118
 2030TIP3    H227506   6.143   6.396  12.359 -1.4610 -2.0018  0.7351
 2031TIP3   OH227507   4.661   2.684  11.998 -0.2346 -0.3939  0.2024
 2031TIP3    H127508   4.587   2.654  11.945  0.3397 -1.2785 -0.1014
 2031TIP3    H227509   4.633   2.770  12.030  0.0860  1.0290 -2.9473
 2032TIP3   OH227510   4.305   5.157  13.982 -0.3757 -0.1769  0.0008
 2032TIP3    H127511   4.375   5.123  14.039  1.5169  2.3388 -0.6653
 2032TIP3    H227512   4.259   5.221  14.037  0.9131  1.6246 -0.9248
 2033TIP3   OH227513   1.826   7.101  11.451  0.2937 -0.4937  0.8114
 2033TIP3    H127514   1.773   7.085  11.372 -0.7138 -0.8592  1.5413
 2033TIP3    H227515   1.802   7.029  11.510  0.5033  0.1781  1.7251
 2034TIP3   OH227516   6.884   6.128  10.317 -0.5085  0.0467  0.9713
 2034TIP3    H127517   6.974   6.097  10.304 -0.6966  0.4310 -1.9912
 2034TIP3    H227518   6.875   6.202  10.256 -2.3012  1.1997  2.5328
 2035TIP3   OH227519   1.368   6.287  10.524 -0.4799  0.3192  0.1464
 2035TIP3    H127520   1.297   6.340  10.561 -0.2073 -1.1908  3.1579
 2035TIP3    H227521   1.447   6.317  10.570 -0.0275 -1.3533  0.5188
 2036TIP3   OH227522   2.682   0.390   2.761  0.1060  0.4673 -0.2659
 2036TIP3    H127523   2.600   0.341   2.764 -0.0870  0.8354  1.1689
 2036TIP3    H227524   2.655   0.482   2.756  0.4389  0.5509 -0.5668
 2037TIP3   OH227525   1.527   6.782   4.180 -0.1328 -0.2400 -0.2381
 2037TIP3    H127526   1.582   6.818   4.250 -1.1861  1.0031 -0.0190
 2037TIP3    H227527   1.585   6.722   4.133  0.1385 -2.5808  2.7893
 2038TIP3   OH227528   4.248   2.060  12.045 -0.0055 -0.7671  0.6499
 2038TIP3    H127529   4.200   1.987  12.006 -0.2403 -0.7285  0.8679
 2038TIP3    H227530   4.322   2.074  11.985 -0.3604 -0.7108  0.2159
 2039TIP3   OH227531   7.097   4.344  14.703 -0.1031  0.5352  0.4195
 2039TIP3    H127532   7.175   4.325  14.755 -0.6807 -0.9406  0.7903
 2039TIP3    H227533   7.079   4.263  14.657 -1.8030  0.6431  0.8461
 2040TIP3   OH227534   2.200   5.640  12.056  0.0474  0.1762  0.0870
 2040TIP3    H127535   2.263   5.568  12.064 -0.8486 -0.6560 -0.1565
 2040TIP3    H227536   2.155   5.643  12.141  1.2767  1.6241  0.7268
 2041TIP3   OH227537   3.473   0.615  14.242 -0.5601  0.3033 -0.7430
 2041TIP3    H127538   3.520   0.539  14.278 -0.9072  0.3834 -0.1055
 2041TIP3    H227539   3.423   0.650  14.316  0.2210  1.6523 -0.8280
 2042TIP3   OH227540   4.010   3.221  14.950  0.6165 -0.4049 -0.0608
 2042TIP3    H127541   4.058   3.303  14.939  1.3330 -0.7262  0.5822
 2042TIP3    H227542   3.935   3.245  15.006 -0.1386  0.1449 -1.2573
 2043TIP3   OH227543   7.071   6.526   1.436 -0.3713  0.2972 -0.0389
 2043TIP3    H127544   7.090   6.436   1.409  1.8206  0.9140 -0.7884
 2043TIP3    H227545   7.009   6.518   1.508 -0.2452 -1.8022 -0.1286
 2044TIP3   OH227546   3.373   5.497  10.115  0.0027 -0.0849  0.6978
 2044TIP3    H127547   3.436   5.548  10.063  0.8924 -2.5827 -0.8558
 2044TIP3    H227548   3.296   5.490  10.059 -0.6031  0.5548  1.4257
 2045TIP3   OH227549   2.380   6.205  10.621  0.2742  0.2484 -0.1486
 2045TIP3    H127550   2.353   6.178  10.533  0.2473 -0.1456 -0.0207
 2045TIP3    H227551   2.452   6.266  10.607  1.2491 -0.9365 -0.4024
 2046TIP3   OH227552   0.706   7.043   3.019 -0.2159 -0.9472 -0.0251
 2046TIP3    H127553   0.687   7.063   3.110 -1.3302  0.2720 -0.4941
 2046TIP3    H227554   0.796   7.073   3.006 -0.4253 -0.1179  0.3908
 2047TIP3   OH227555   5.229   0.304   1.449  0.0516 -0.5519  0.2665
 2047TIP3    H127556   5.283   0.340   1.378  0.7895  0.4016  1.2698
 2047TIP3    H227557   5.185   0.380   1.486 -0.1904 -1.0122  0.9368
 2048TIP3   OH227558   7.002   1.988  14.575 -0.7250 -0.0107  0.4317
 2048TIP3    H127559   7.028   1.936  14.499 -0.6199 -0.4252  0.7463
 2048TIP3    H227560   7.022   2.078  14.551  1.3004 -0.3268  0.7726
 2049TIP3   OH227561   5.559   3.806  11.047  0.0017  0.4747 -0.3234
 2049TIP3    H127562   5.549   3.770  10.958  1.9551 -0.9185 -0.0522
 2049TIP3    H227563   5.489   3.870  11.055 -0.6284  0.1724 -2.6426
 2050TIP3   OH227564   1.069   0.003  12.244  0.0883 -0.3610 -0.3408
 2050TIP3    H127565   1.047   0.095  12.257 -0.2194 -0.4317 -0.3660
 2050TIP3    H227566   1.069  -0.008  12.149  0.8688 -0.2067 -0.3664
 2051TIP3   OH227567   2.751   1.697   1.373  0.1321  0.4125 -0.5552
 2051TIP3    H127568   2.689   1.624   1.365 -2.8262  2.8434 -1.6057
 2051TIP3    H227569   2.770   1.702   1.467  0.2439 -1.5188 -0.4299
 2052TIP3   OH227570   7.060   7.089  14.247  0.1810  0.4032 -0.0177
 2052TIP3    H127571   7.036   7.012  14.195  0.2613 -0.2827  0.9328
 2052TIP3    H227572   7.156   7.091  14.244  0.1905  0.3068  0.1685
 2053TIP3   OH227573   1.688   4.224  11.132 -0.7506  0.2459  0.0578
 2053TIP3    H127574   1.746   4.285  11.087 -0.0735  1.7714  2.7920
 2053TIP3    H227575   1.735   4.140  11.129 -0.0125  0.6726 -0.6718
 2054TIP3   OH227576   3.758   0.997  10.192 -0.3885 -0.0135 -0.3983
 2054TIP3    H127577   3.708   0.970  10.269  0.2020 -1.0792 -0.3670
 2054TIP3    H227578   3.693   1.038  10.135 -1.1816 -0.7581 -0.0621
 2055TIP3   OH227579   1.041   6.724  15.370  0.2183 -0.2283 -0.8542
 2055TIP3    H127580   1.064   6.651  15.313 -1.3031 -1.7980  0.4053
 2055TIP3    H227581   0.948   6.712  15.387  0.6227  0.0327  2.0410
 2056TIP3   OH227582   0.864   1.207   4.019  0.0651 -0.3312  0.1593
 2056TIP3    H127583   0.842   1.285   3.967  2.2145 -0.7102 -1.4828
 2056TIP3    H227584   0.807   1.212   4.095  0.0120  2.7803  0.0538
 2057TIP3   OH227585   5.635   4.550  11.593 -0.0587 -0.6424 -0.6250
 2057TIP3    H127586   5.717   4.568  11.640 -0.3100 -0.6669 -0.1750
 2057TIP3    H227587   5.663   4.536  11.503  0.3011  0.5739 -0.7248
 2058TIP3   OH227588   3.785   3.279   0.548  0.3343  0.2389 -1.0249
 2058TIP3    H127589   3.839   3.201   0.562  0.2660  0.4567  0.6040
 2058TIP3    H227590   3.843   3.342   0.507  0.9206 -0.0309 -0.6220
 2059TIP3   OH227591   0.321   1.316  10.218 -0.2726  0.2063 -0.3460
 2059TIP3    H127592   0.323   1.404  10.255  3.3011  0.5074 -0.9039
 2059TIP3    H227593   0.413   1.289  10.216 -1.3298 -4.5171  1.9300
 2060TIP3   OH227594   4.779   1.283   2.756 -0.5381  0.2714  0.4596
 2060TIP3    H127595   4.784   1.326   2.842 -0.4320  1.5699 -0.1736
 2060TIP3    H227596   4.687   1.256   2.748 -0.3698 -0.6120  1.3196
 2061TIP3   OH227597   5.870   6.968  13.487  0.2029 -0.6514 -0.1011
 2061TIP3    H127598   5.919   6.921  13.554 -0.5804 -2.4783 -0.7283
 2061TIP3    H227599   5.935   7.024  13.444  1.2105 -1.2199  0.6415
 2062TIP3   OH227600   6.649   3.644  14.952  0.6101  0.1391 -0.1993
 2062TIP3    H127601   6.697   3.601  14.881  0.1349 -0.4697 -0.1650
 2062TIP3    H227602   6.557   3.629  14.931  0.2327  3.6635 -1.7889
 2063TIP3   OH227603   0.452   6.111  11.361  0.1763 -0.1205 -0.1216
 2063TIP3    H127604   0.485   6.033  11.317  0.8877  0.4696 -0.6562
 2063TIP3    H227605   0.528   6.146  11.407 -0.1841  0.1662  0.2635
 2064TIP3   OH227606   1.096   3.763   3.600 -0.0756  0.6733 -0.0393
 2064TIP3    H127607   1.162   3.831   3.586 -0.2943  0.6740 -1.1651
 2064TIP3    H227608   1.136   3.702   3.662  0.7294  1.0095 -0.2177
 2065TIP3   OH227609   5.199   3.342  11.867 -0.3891 -0.1232 -0.0401
 2065TIP3    H127610   5.121   3.388  11.899  0.1403  0.7501 -0.0033
 2065TIP3    H227611   5.227   3.391  11.791  1.9174  1.4463  1.6939
 2066TIP3   OH227612   6.861   1.719  11.269  0.2778 -0.5801 -0.3898
 2066TIP3    H127613   6.857   1.662  11.192  0.0585  0.3985 -1.1207
 2066TIP3    H227614   6.942   1.769  11.257 -0.7315  0.9832 -1.0280
 2067TIP3   OH227615   4.241   3.632  10.942  0.1963  0.2637  0.0695
 2067TIP3    H127616   4.286   3.606  11.022 -1.1252 -0.7550  0.5180
 2067TIP3    H227617   4.257   3.560  10.880 -1.4161 -0.5096  0.4978
 2068TIP3   OH227618   4.445   6.916   2.281  0.7278 -0.0277 -0.5988
 2068TIP3    H127619   4.476   6.986   2.338  1.5529 -0.3804 -0.6037
 2068TIP3    H227620   4.366   6.952   2.240 -0.3273 -0.0263  1.2949
 2069TIP3   OH227621   0.634   5.684   1.901  0.1133 -0.2420  0.1400
 2069TIP3    H127622   0.661   5.775   1.902  0.9551 -0.4729 -0.5876
 2069TIP3    H227623   0.669   5.647   1.982  0.6263 -0.1560 -0.0436
 2070TIP3   OH227624   2.874   5.060   0.215  0.5392  0.5566 -0.4046
 2070TIP3    H127625   2.798   5.015   0.250  0.3720  0.5888 -0.7218
 2070TIP3    H227626   2.887   5.021   0.128  0.7642  0.6855 -0.4300
 2071TIP3   OH227627   3.794   5.101  11.746 -0.1585 -0.4672  0.0508
 2071TIP3    H127628   3.884   5.075  11.726  0.2447  0.9643 -0.1510
 2071TIP3    H227629   3.790   5.102  11.842  0.2946  0.1880  0.0734
 2072TIP3   OH227630   3.161   6.392  13.318  0.1744 -0.0376 -0.0392
 2072TIP3    H127631   3.175   6.478  13.279 -1.4798 -0.1698 -1.0498
 2072TIP3    H227632   3.089   6.406  13.381  1.6186 -0.1936  1.7224
 2073TIP3   OH227633   4.730   3.782  11.415 -0.2329  0.3033  0.2025
 2073TIP3    H127634   4.685   3.862  11.387 -0.6403 -0.2363 -0.7234
 2073TIP3    H227635   4.664   3.713  11.406  0.6020 -0.4086 -0.6241
 2074TIP3   OH227636   3.892   6.076   2.066  0.5530  0.2717  0.2712
 2074TIP3    H127637   3.899   6.169   2.090 -0.2881  0.8596 -1.5385
 2074TIP3    H227638   3.839   6.037   2.135 -0.6513  1.5580  0.1095
 2075TIP3   OH227639   5.588   0.091  13.592 -0.0825  0.0637 -0.4702
 2075TIP3    H127640   5.498   0.060  13.603 -0.2063  0.5869  0.0524
 2075TIP3    H227641   5.642   0.024  13.634 -0.3216  0.3658  0.3319
 2076TIP3   OH227642   0.415   0.368  10.267  0.3644  0.0422  0.1959
 2076TIP3    H127643   0.385   0.352  10.178  0.0108  0.1602  0.2925
 2076TIP3    H227644   0.401   0.285  10.312 -2.7229  0.8852  1.0486
 2077TIP3   OH227645   3.598   2.537  11.444  0.3136  0.0568 -0.2522
 2077TIP3    H127646   3.630   2.566  11.529  2.0797 -0.4182 -0.7150
 2077TIP3    H227647   3.586   2.443  11.453  2.1054 -0.2868 -0.9429
 2078TIP3   OH227648   5.830   5.312   5.503 -0.1283  0.7450  0.4684
 2078TIP3    H127649   5.903   5.290   5.445  0.7487  0.8565  1.4951
 2078TIP3    H227650   5.799   5.228   5.537 -0.1669  0.7302  0.3959
 2079TIP3   OH227651   0.607   1.860  11.413  0.1317  0.3206 -0.0098
 2079TIP3    H127652   0.659   1.814  11.347 -0.6267 -1.2085  0.4112
 2079TIP3    H227653   0.520   1.822  11.407  0.2308 -0.4756  2.4132
 2080TIP3   OH227654   6.176   6.109  10.897  0.6346  0.1550  0.0799
 2080TIP3    H127655   6.128   6.030  10.924 -0.6138  0.5001 -1.0811
 2080TIP3    H227656   6.215   6.141  10.979  0.8945 -1.4660  0.6353
 2081TIP3   OH227657   5.017   3.756  12.910  0.4262  0.4060  0.7133
 2081TIP3    H127658   5.079   3.734  12.980  0.6754  1.8180  0.9790
 2081TIP3    H227659   5.012   3.852  12.912 -1.2072  0.3584  0.1966
 2082TIP3   OH227660   1.133   3.894  10.843  0.5173 -0.0217  0.1030
 2082TIP3    H127661   1.088   3.809  10.839 -2.1217  1.2235  1.0665
 2082TIP3    H227662   1.190   3.887  10.919 -0.1891 -0.7404  0.5923
 2083TIP3   OH227663   5.508   2.428   1.270 -0.3103 -0.1945  0.1317
 2083TIP3    H127664   5.481   2.449   1.360 -1.6221  1.8005 -0.6737
 2083TIP3    H227665   5.562   2.502   1.243  1.4805 -1.5520 -0.2166
 2084TIP3   OH227666   5.659   0.595   1.226 -0.5570  0.6744 -0.0575
 2084TIP3    H127667   5.706   0.562   1.149  0.2597 -0.0416  0.7293
 2084TIP3    H227668   5.626   0.681   1.199 -0.3670  0.3934 -1.2329
 2085TIP3   OH227669   4.991   7.050  11.625 -0.4601 -0.7360  0.7391
 2085TIP3    H127670   4.949   7.097  11.697 -1.0129 -1.9211  1.2200
 2085TIP3    H227671   5.084   7.068  11.636 -0.5675 -0.6543  1.5799
 2086TIP3   OH227672   2.612   4.360   0.056  0.3898  0.5496  0.7040
 2086TIP3    H127673   2.674   4.298   0.017  0.1610  0.0061  1.1922
 2086TIP3    H227674   2.589   4.322   0.140 -0.7016  0.6781  0.4801
 2087TIP3   OH227675   5.306   1.411   3.162  1.0638  0.4569 -0.0046
 2087TIP3    H127676   5.249   1.473   3.208  0.6431 -0.0904  0.2272
 2087TIP3    H227677   5.351   1.464   3.096  0.0119  0.8400 -0.4422
 2088TIP3   OH227678   0.272   2.742   9.417 -0.2138 -0.0416  0.3933
 2088TIP3    H127679   0.193   2.786   9.383  1.0896  2.2237  0.0446
 2088TIP3    H227680   0.288   2.784   9.501 -0.0204 -1.3356  1.0230
 2089TIP3   OH227681   0.634   7.032  11.378 -0.2556  0.0135  0.2309
 2089TIP3    H127682   0.594   7.000  11.298 -0.5012  1.1784 -0.1293
 2089TIP3    H227683   0.561   7.066  11.430 -0.0326 -0.1923  0.6864
 2090TIP3   OH227684   3.686   0.707  11.277 -0.0185 -0.3016  0.6660
 2090TIP3    H127685   3.775   0.734  11.296 -0.4199  0.6157  1.2844
 2090TIP3    H227686   3.645   0.783  11.237  0.3136 -1.6342 -2.5349
 2091TIP3   OH227687   7.013   5.292  13.683 -0.1403  0.1385 -0.3138
 2091TIP3    H127688   6.994   5.231  13.755 -0.8109 -0.1186 -0.6922
 2091TIP3    H227689   7.105   5.314  13.694  1.0885 -3.3667 -1.9162
 2092TIP3   OH227690   0.870   2.360  11.134 -0.8328  0.2994  0.2982
 2092TIP3    H127691   0.962   2.385  11.128 -1.1335  2.1889  2.0686
 2092TIP3    H227692   0.832   2.386  11.050  0.4071 -1.5915 -0.9200
 2093TIP3   OH227693   0.068   2.807  13.598 -0.0664  0.2358 -0.3632
 2093TIP3    H127694   0.117   2.887  13.619  2.0327 -0.8081 -1.0193
 2093TIP3    H227695   0.027   2.782  13.680 -3.4565  3.6162 -0.7614
 2094TIP3   OH227696   4.729   3.586   0.574 -0.0093 -0.2012 -0.2065
 2094TIP3    H127697   4.654   3.557   0.523  0.8824  2.1904 -3.1552
 2094TIP3    H227698   4.691   3.643   0.642 -0.9762  0.2129 -1.0578
 2095TIP3   OH227699   2.805   4.914   0.534  0.6856  0.5973 -0.0687
 2095TIP3    H127700   2.770   4.927   0.446 -0.4905  0.3775  0.3523
 2095TIP3    H227701   2.824   4.820   0.539  0.7281  0.6053 -0.0799
 2096TIP3   OH227702   2.882   3.447   2.271 -0.1353  0.2315  0.3173
 2096TIP3    H127703   2.904   3.514   2.336 -3.5063  1.4445  0.4329
 2096TIP3    H227704   2.917   3.480   2.189  2.0704 -0.1310  1.0561
 2097TIP3   OH227705   4.248   2.141  15.431 -0.2110 -0.3874  0.0553
 2097TIP3    H127706   4.198   2.128  15.512  0.8753 -0.7348  0.6982
 2097TIP3    H227707   4.301   2.061  15.423 -0.7348 -0.6142 -1.3222
 2098TIP3   OH227708   3.001   3.551  12.887  0.3568  0.0322 -0.5774
 2098TIP3    H127709   3.083   3.589  12.856 -0.2502  0.9614 -1.0984
 2098TIP3    H227710   2.992   3.470  12.838  1.8103 -1.0066  0.7452
 2099TIP3   OH227711   1.695   6.080   2.292 -0.1439 -0.0976  0.2620
 2099TIP3    H127712   1.704   6.072   2.197 -0.2545 -2.3996  0.3877
 2099TIP3    H227713   1.741   6.161   2.314 -0.0648  0.4397 -1.7379
 2100TIP3   OH227714   3.898   2.923  11.332  0.4983 -0.3373 -0.1523
 2100TIP3    H127715   3.974   2.942  11.387  0.9803 -1.4359 -0.4190
 2100TIP3    H227716   3.902   2.988  11.262  1.5411 -0.7683 -0.5022
 2101TIP3   OH227717   5.445   2.808   0.807 -0.0785  0.0133  0.2698
 2101TIP3    H127718   5.367   2.771   0.764  0.4474 -0.4834 -0.2646
 2101TIP3    H227719   5.459   2.892   0.763  0.2541 -0.3359 -0.3027
 2102TIP3   OH227720   2.840   4.394   0.632  0.1397 -0.4203 -0.0018
 2102TIP3    H127721   2.790   4.394   0.714  0.0559 -0.6083 -0.0519
 2102TIP3    H227722   2.899   4.319   0.640  2.4963  1.4070  1.3113
 2103TIP3   OH227723   2.435   1.246  12.128 -0.8076 -0.9969 -0.3156
 2103TIP3    H127724   2.506   1.304  12.154 -1.1833 -0.2610 -0.8993
 2103TIP3    H227725   2.474   1.158  12.130  0.1055 -0.6099 -0.5791
 2104TIP3   OH227726   3.889   0.138   2.774 -0.5011 -0.0498  0.4347
 2104TIP3    H127727   3.841   0.140   2.691 -0.7108 -3.1871  0.3624
 2104TIP3    H227728   3.825   0.161   2.840 -1.6654 -2.2214  0.1386
 2105TIP3   OH227729   3.897   4.466  12.875 -0.0564  0.3614 -0.2945
 2105TIP3    H127730   3.898   4.380  12.917  0.9160 -0.1747 -1.3375
 2105TIP3    H227731   3.875   4.447  12.784  2.0075  0.9574 -0.9746
 2106TIP3   OH227732   6.957   5.270   3.623  0.4332  0.0555 -0.5537
 2106TIP3    H127733   6.917   5.356   3.611  1.3589  0.3467 -1.7536
 2106TIP3    H227734   7.016   5.281   3.698  0.6837  0.5288 -0.8150
 2107TIP3   OH227735   4.371   6.013  12.785  0.4300  0.0741 -0.4015
 2107TIP3    H127736   4.292   5.960  12.776  0.2363  0.3324 -0.2520
 2107TIP3    H227737   4.338   6.102  12.800  0.7078 -0.0782  1.4093
 2108TIP3   OH227738   1.181   0.068  15.081 -0.1479  0.2719 -0.1308
 2108TIP3    H127739   1.128   0.140  15.045 -0.9442  0.3657  1.1689
 2108TIP3    H227740   1.121  -0.007  15.084 -0.5279  0.6065  2.1707
 2109TIP3   OH227741   5.198   6.647  11.735 -0.3508 -0.6005  0.4817
 2109TIP3    H127742   5.204   6.688  11.822  1.5683  1.5492 -0.5600
 2109TIP3    H227743   5.105   6.648  11.714 -0.7491 -0.3211  2.1038
 2110TIP3   OH227744   6.245   2.383  14.583 -0.0617  0.2897 -0.2600
 2110TIP3    H127745   6.271   2.353  14.496  0.9541 -1.0071  0.4636
 2110TIP3    H227746   6.170   2.441  14.567 -0.4028 -0.5611 -1.9170
 2111TIP3   OH227747   2.824   0.480  10.725  0.0069  0.2973  0.2596
 2111TIP3    H127748   2.856   0.461  10.636 -0.6497 -1.3884  0.3476
 2111TIP3    H227749   2.745   0.427  10.734  0.1990  0.2492  1.9613
 2112TIP3   OH227750   6.103   6.526  12.148  0.0123  0.0903  0.1563
 2112TIP3    H127751   6.038   6.596  12.156  0.0188 -0.0151  1.4987
 2112TIP3    H227752   6.092   6.492  12.059 -4.0172 -2.0268  1.2226
 2113TIP3   OH227753   4.982   6.787  13.006 -0.1918  0.0460  0.2947
 2113TIP3    H127754   5.003   6.808  13.097 -1.1807 -0.1586  0.5775
 2113TIP3    H227755   5.038   6.845  12.954  0.5447  0.0027  1.0254
 2114TIP3   OH227756   3.491   2.484  12.471  0.7776  0.2424  0.7481
 2114TIP3    H127757   3.487   2.554  12.405 -1.9316  0.7303  1.3173
 2114TIP3    H227758   3.452   2.408  12.428  0.7726  0.0008  1.1726
 2115TIP3   OH227759   6.216   7.000  13.765  0.1849 -1.0727  0.1061
 2115TIP3    H127760   6.160   7.078  13.761  1.4323 -0.1573 -0.0539
 2115TIP3    H227761   6.169   6.934  13.715  0.5450  0.5240 -2.5429
 2116TIP3   OH227762   0.748   2.322  11.995 -0.5360 -0.3468  0.5458
 2116TIP3    H127763   0.805   2.372  12.054 -0.2171  2.5054 -1.9288
 2116TIP3    H227764   0.808   2.270  11.942 -0.5647 -0.5635  0.7277
 2117TIP3   OH227765   4.118   5.241   0.719  0.1413  0.1016  0.2566
 2117TIP3    H127766   4.027   5.264   0.732  0.3164  0.6132  0.5844
 2117TIP3    H227767   4.136   5.175   0.785 -0.3767 -1.0729 -0.7246
 2118TIP3   OH227768   1.930   3.935  12.611  0.6424  0.1156 -0.3467
 2118TIP3    H127769   1.964   4.023  12.594  1.4462 -0.3271 -1.1580
 2118TIP3    H227770   1.896   3.939  12.700  0.1803  1.3890 -0.5539
 2119TIP3   OH227771   3.600   0.495   9.910  0.0852  0.1235 -0.5772
 2119TIP3    H127772   3.638   0.582   9.898 -0.6529  0.4488 -0.5920
 2119TIP3    H227773   3.629   0.446   9.832  0.2374  0.4524 -0.7292
 2120TIP3   OH227774   1.600   2.428  14.352  0.1233 -0.3112  0.1691
 2120TIP3    H127775   1.689   2.393  14.352  0.6917  1.0599  0.5776
 2120TIP3    H227776   1.607   2.510  14.302 -1.1335 -0.7035 -0.6886
 2121TIP3   OH227777   5.329   3.866   9.827  0.4121 -0.2948  0.2760
 2121TIP3    H127778   5.340   3.959   9.804  1.0750 -0.7207 -1.2659
 2121TIP3    H227779   5.258   3.836   9.771 -0.1404 -0.6009  1.1438
 2122TIP3   OH227780   4.454   0.188  10.325  0.2471  0.1186  0.0586
 2122TIP3    H127781   4.360   0.172  10.316  0.1855 -0.2859  1.2754
 2122TIP3    H227782   4.459   0.279  10.356  0.1870 -0.1848  0.9999
 2123TIP3   OH227783   1.743   4.628   0.901  0.3679  0.3826 -0.1035
 2123TIP3    H127784   1.810   4.692   0.877  1.3982 -0.9417 -0.8649
 2123TIP3    H227785   1.781   4.543   0.880 -0.5179 -0.6015  1.9314
 2124TIP3   OH227786   5.666   4.013  12.836 -0.4515 -0.1670 -1.0814
 2124TIP3    H127787   5.650   4.096  12.881 -1.1161  0.3550 -2.2402
 2124TIP3    H227788   5.727   3.967  12.893 -2.3206 -0.1569  1.0638
 2125TIP3   OH227789   6.777   3.314  12.780  0.0628 -0.0205  0.2235
 2125TIP3    H127790   6.845   3.253  12.754 -1.2563 -1.3896 -0.1759
 2125TIP3    H227791   6.790   3.391  12.725  1.8756  0.1783  0.8725
 2126TIP3   OH227792   6.520   2.650   2.060  0.0556  0.4558  0.2626
 2126TIP3    H127793   6.467   2.678   1.986 -1.1646 -1.0768  0.5164
 2126TIP3    H227794   6.466   2.668   2.137  1.2163  1.8180  0.8327
 2127TIP3   OH227795   0.565   0.640  11.155 -0.2009  0.0086  0.0933
 2127TIP3    H127796   0.545   0.580  11.227 -0.0913 -3.3118 -2.4053
 2127TIP3    H227797   0.480   0.676  11.130 -0.2596  1.1031  1.6877
 2128TIP3   OH227798   3.087   5.272  14.392 -0.1251  0.2303 -0.3434
 2128TIP3    H127799   3.101   5.337  14.323 -1.7721 -0.4069 -1.3290
 2128TIP3    H227800   3.027   5.208  14.354 -1.0913 -0.1551  1.6690
 2129TIP3   OH227801   6.302   6.525   1.363  0.0181 -0.0116 -0.3422
 2129TIP3    H127802   6.230   6.576   1.328  1.3017  1.6735 -0.6842
 2129TIP3    H227803   6.361   6.591   1.401  1.4100 -1.3169 -0.1525
 2130TIP3   OH227804   0.348   6.326  12.195 -0.0674  0.2659  0.1949
 2130TIP3    H127805   0.348   6.373  12.278 -0.3788 -0.8683  0.8698
 2130TIP3    H227806   0.306   6.242  12.216 -1.4774  0.5237 -1.4418
 2131TIP3   OH227807   0.979   0.276  11.476  0.4659  0.5243  0.1547
 2131TIP3    H127808   0.899   0.243  11.518 -0.5522  0.7230 -1.5238
 2131TIP3    H227809   0.998   0.212  11.407  1.9081  0.3729  0.6511
 2132TIP3   OH227810   6.682   6.080   1.559 -0.1444  0.0886 -0.4625
 2132TIP3    H127811   6.601   6.128   1.539  1.0438  1.9198 -1.1445
 2132TIP3    H227812   6.654   5.989   1.570 -2.1701  0.5267 -1.4929
 2133TIP3   OH227813   3.838   6.604   1.511 -0.2837  0.2661  0.2445
 2133TIP3    H127814   3.804   6.597   1.421 -1.0236  1.8519  0.3797
 2133TIP3    H227815   3.923   6.560   1.507 -0.7801 -0.6453 -0.9643
 2134TIP3   OH227816   2.498   6.312  11.749  0.2121 -0.2689  0.0484
 2134TIP3    H127817   2.491   6.350  11.836 -0.3892 -3.0890  1.3612
 2134TIP3    H227818   2.589   6.325  11.725 -0.1072  2.5644  0.0038
 2135TIP3   OH227819   4.018   3.895  13.020 -0.4607 -0.0871 -0.0197
 2135TIP3    H127820   3.964   3.818  13.036 -0.8041  0.1123 -0.2095
 2135TIP3    H227821   4.085   3.891  13.088  0.5940 -1.5051 -1.0819
 2136TIP3   OH227822   0.390   3.510  14.088  0.5673 -0.5340 -1.0823
 2136TIP3    H127823   0.416   3.546  14.172  0.4249 -0.2266 -1.1687
 2136TIP3    H227824   0.470   3.510  14.036  0.0949  2.1013 -1.9664
 2137TIP3   OH227825   4.953   0.704  12.671 -0.3238 -0.3486 -0.1170
 2137TIP3    H127826   4.871   0.681  12.714 -1.1946 -0.9774 -1.9793
 2137TIP3    H227827   4.973   0.628  12.617 -0.5327  1.1879 -2.5184
 2138TIP3   OH227828   5.297   4.667  14.145  0.1315  0.4290 -0.2420
 2138TIP3    H127829   5.369   4.721  14.113  1.5887 -0.8429  0.7553
 2138TIP3    H227830   5.288   4.690  14.237 -0.7348  0.5552 -0.3487
 2139TIP3   OH227831   1.524   0.208  14.229  0.1559  0.0006  0.3107
 2139TIP3    H127832   1.487   0.130  14.271  0.6060 -0.2901  0.1719
 2139TIP3    H227833   1.599   0.231  14.284 -0.7301  1.1139  1.1022
 2140TIP3   OH227834   1.361   1.128   3.008  0.5962  0.2024 -0.0701
 2140TIP3    H127835   1.298   1.105   2.940 -1.0215  0.6387  1.1876
 2140TIP3    H227836   1.315   1.108   3.090  2.5611 -0.5832  0.9177
 2141TIP3   OH227837   1.154   0.658  12.681 -0.0712  0.5383 -0.0319
 2141TIP3    H127838   1.060   0.674  12.668  0.3447  2.9377 -0.7013
 2141TIP3    H227839   1.167   0.667  12.775 -0.5265  0.1376  0.0692
 2142TIP3   OH227840   4.846   2.068  10.630  0.2933  0.3795  0.2359
 2142TIP3    H127841   4.869   2.108  10.546  2.1243  0.8400  0.9093
 2142TIP3    H227842   4.883   1.980  10.626  0.8812  0.5888  0.7332
 2143TIP3   OH227843   6.250   4.715   4.637  0.7436 -0.9013  0.0559
 2143TIP3    H127844   6.175   4.773   4.623  1.3474 -0.3892 -1.2541
 2143TIP3    H227845   6.273   4.727   4.730  1.9228  2.3605 -0.5271
 2144TIP3   OH227846   0.971   7.055  11.696  0.1729  0.0175  0.2306
 2144TIP3    H127847   0.931   6.978  11.657 -1.3327  1.3313 -0.9864
 2144TIP3    H227848   1.036   7.084  11.632  1.3485 -0.6851  1.0692
 2145TIP3   OH227849   5.922   1.747   5.326 -0.1363 -0.0437  0.1746
 2145TIP3    H127850   6.014   1.771   5.337 -0.2632  1.1488 -1.1220
 2145TIP3    H227851   5.877   1.829   5.309 -0.8887 -0.9091 -2.6396
 2146TIP3   OH227852   2.741   1.676   3.029 -0.0156  0.1463 -0.7346
 2146TIP3    H127853   2.756   1.706   2.940  0.1175  3.3135  0.2331
 2146TIP3    H227854   2.781   1.744   3.084  0.5047 -2.0042  1.7721
 2147TIP3   OH227855   4.232   0.406  12.738 -0.2322 -0.3956 -0.3370
 2147TIP3    H127856   4.196   0.425  12.651 -0.0947 -0.1042 -0.3307
 2147TIP3    H227857   4.155   0.400  12.795 -0.2395  3.1512  0.2833
 2148TIP3   OH227858   0.451   0.861   3.179 -0.6991 -0.4120 -0.2512
 2148TIP3    H127859   0.449   0.766   3.192  1.0972 -0.5873 -0.9339
 2148TIP3    H227860   0.492   0.895   3.259 -0.3253 -0.3321 -0.4746
 2149TIP3   OH227861   3.669   6.198   3.704  0.4648  0.3548 -0.1614
 2149TIP3    H127862   3.576   6.201   3.681 -0.7534  0.0873  3.8465
 2149TIP3    H227863   3.696   6.110   3.679 -0.3089  0.4445 -1.4218
 2150TIP3   OH227864   3.068   0.757  13.383  0.0391 -0.0605 -0.0854
 2150TIP3    H127865   3.116   0.828  13.339  3.1558 -1.9130  0.0515
 2150TIP3    H227866   3.097   0.761  13.474 -1.0365 -0.5311  0.2927
 2151TIP3   OH227867   2.819   5.908  11.205  0.6805  0.2851 -0.2594
 2151TIP3    H127868   2.774   5.828  11.180  0.3047 -0.1281  1.5661
 2151TIP3    H227869   2.752   5.976  11.198  0.2491 -0.0208  0.6740
 2152TIP3   OH227870   1.933   3.531   0.501 -0.2525  0.2827 -0.2194
 2152TIP3    H127871   1.933   3.598   0.570 -1.3574  0.2519 -0.1664
 2152TIP3    H227872   1.840   3.513   0.485 -0.0133  0.0887 -1.5332
 2153TIP3   OH227873   5.383   1.012  14.724  0.2675 -0.1436  0.3710
 2153TIP3    H127874   5.345   1.067  14.793  0.8678 -0.3998  0.9151
 2153TIP3    H227875   5.334   0.930  14.728 -0.5863  0.3108 -0.3984
 2154TIP3   OH227876   6.476   4.396  14.770  0.4182  0.4087  0.1032
 2154TIP3    H127877   6.447   4.305  14.765  1.5450  0.0296  0.1869
 2154TIP3    H227878   6.571   4.391  14.760  0.3852  1.6761 -1.0247
 2155TIP3   OH227879   0.354   7.116  13.724 -0.5769 -0.3153 -0.0002
 2155TIP3    H127880   0.316   7.178  13.786 -1.5186 -1.2207  0.3558
 2155TIP3    H227881   0.446   7.141  13.718 -0.5943  0.1258  1.3322
 2156TIP3   OH227882   3.744   6.582  15.033 -0.4711 -0.1811  0.4066
 2156TIP3    H127883   3.714   6.507  15.084 -2.5382 -0.3413 -0.9025
 2156TIP3    H227884   3.694   6.656  15.068  1.4418  0.6346  1.5899
 2157TIP3   OH227885   4.347   1.097   9.956  0.0230 -0.6499 -0.0416
 2157TIP3    H127886   4.443   1.101   9.959  0.0086 -0.0870 -0.2221
 2157TIP3    H227887   4.321   1.090  10.048  0.1364  2.0978  0.2822
 2158TIP3   OH227888   1.554   1.820  14.264 -0.0630 -0.2220 -0.5106
 2158TIP3    H127889   1.549   1.913  14.287 -1.9600 -0.6159  0.9373
 2158TIP3    H227890   1.574   1.819  14.171  0.9157  1.6055 -0.3670
 2159TIP3   OH227891   2.115   4.556  15.383 -0.6055  0.2637 -0.1107
 2159TIP3    H127892   2.110   4.507  15.301 -0.8099  0.5563 -0.2745
 2159TIP3    H227893   2.199   4.601  15.380  0.1463 -1.0236  0.5844
 2160TIP3   OH227894   6.798   1.766  10.856  0.5629  0.0689 -0.5789
 2160TIP3    H127895   6.823   1.719  10.777 -0.6334  1.6943 -2.0076
 2160TIP3    H227896   6.732   1.829  10.827  0.4208  1.0532  1.6347
 2161TIP3   OH227897   4.196   1.994  11.472  0.6814  0.1965  0.5978
 2161TIP3    H127898   4.275   1.940  11.469  1.4925  0.7510  4.9839
 2161TIP3    H227899   4.228   2.084  11.464  0.1316  0.3492 -0.0433
 2162TIP3   OH227900   3.347   0.111  12.103  0.7217  0.2009  0.2430
 2162TIP3    H127901   3.258   0.131  12.132  0.2985 -0.4893 -0.5482
 2162TIP3    H227902   3.402   0.169  12.155 -0.0234 -0.6922  2.1197
 2163TIP3   OH227903   2.654   4.476  11.804  0.0702 -0.5825 -0.3604
 2163TIP3    H127904   2.744   4.503  11.826  0.0189 -2.3085  2.3583
 2163TIP3    H227905   2.599   4.519  11.869 -0.5481 -2.9254  0.7651
 2164TIP3   OH227906   5.575   1.912   1.115 -0.3638  0.3060  0.1376
 2164TIP3    H127907   5.651   1.928   1.171 -0.3896 -1.6423  0.8226
 2164TIP3    H227908   5.611   1.905   1.026  0.0729  0.6719  0.2853
 2165TIP3   OH227909   5.455   3.518   9.552  0.5649 -0.6339 -0.0661
 2165TIP3    H127910   5.443   3.474   9.467 -1.3974  2.1986 -1.4150
 2165TIP3    H227911   5.496   3.601   9.531 -0.8796  0.5804  1.5712
 2166TIP3   OH227912   5.113   2.080   3.129 -0.3624  0.3613 -0.5182
 2166TIP3    H127913   5.203   2.068   3.100 -0.5688 -1.7309 -0.5089
 2166TIP3    H227914   5.116   2.064   3.223 -0.4074  2.6967 -0.0597
 2167TIP3   OH227915   3.128   1.874  11.840  0.7096  0.3290  0.3163
 2167TIP3    H127916   3.160   1.837  11.757  0.7921  2.1874 -0.5344
 2167TIP3    H227917   3.079   1.952  11.814 -0.8807 -0.0671  1.9110
 2168TIP3   OH227918   3.927   5.466   1.315 -0.3419  0.2592  0.3198
 2168TIP3    H127919   3.921   5.462   1.410  0.6992 -1.6034  0.3522
 2168TIP3    H227920   3.975   5.546   1.297  0.1438  0.2222  1.4110
 2169TIP3   OH227921   3.511   4.032  14.166  0.5783 -0.2716 -0.4466
 2169TIP3    H127922   3.461   4.026  14.085 -1.1577  1.1723  0.4279
 2169TIP3    H227923   3.453   3.996  14.233  1.0796  0.5520  0.4684
 2170TIP3   OH227924   1.919   1.780  13.155  0.0202 -0.4081  0.4229
 2170TIP3    H127925   1.874   1.829  13.224 -0.2486  0.0778 -0.0887
 2170TIP3    H227926   1.963   1.709  13.201  1.4118  0.9841  1.3798
 2171TIP3   OH227927   6.550   5.726  11.665  0.6111 -0.4235  0.1708
 2171TIP3    H127928   6.518   5.732  11.575 -2.6462 -3.1675  0.9469
 2171TIP3    H227929   6.596   5.642  11.669 -0.8511 -1.2205  1.3871
 2172TIP3   OH227930   1.273   1.510   3.307  0.0545 -0.2898 -0.1246
 2172TIP3    H127931   1.263   1.584   3.367 -0.7037 -1.5257  1.3599
 2172TIP3    H227932   1.361   1.520   3.272 -0.6016  2.2382 -1.3212
 2173TIP3   OH227933   2.953   2.142   3.172 -0.3473  0.8306 -0.5776
 2173TIP3    H127934   2.987   2.159   3.259 -0.2285  1.0377 -0.6644
 2173TIP3    H227935   2.917   2.226   3.143 -1.5796  0.4584 -0.2056
 2174TIP3   OH227936   5.669   0.627   1.495  0.1399  0.0783  0.2587
 2174TIP3    H127937   5.658   0.630   1.400  0.0043 -0.8906  0.2361
 2174TIP3    H227938   5.761   0.606   1.508  0.3110  0.8596  0.3586
 2175TIP3   OH227939   1.635   2.226   4.017  0.0777  0.3574  0.7880
 2175TIP3    H127940   1.550   2.263   3.992 -0.9447 -0.5616  2.6470
 2175TIP3    H227941   1.678   2.205   3.934 -2.3186 -0.9246 -0.2306
 2176TIP3   OH227942   4.648   6.394   4.038  0.1305  0.8183 -0.1176
 2176TIP3    H127943   4.741   6.376   4.025  0.3466  0.8477  1.2869
 2176TIP3    H227944   4.612   6.312   4.071 -0.7003  0.2977 -2.1838
 2177TIP3   OH227945   4.125   1.077  10.628  0.1913 -0.4129 -0.0878
 2177TIP3    H127946   4.139   0.984  10.642  1.7332 -0.2694 -0.4122
 2177TIP3    H227947   4.114   1.087  10.534 -1.6308 -0.4310  0.0976
 2178TIP3   OH227948   4.742   3.161  15.080 -0.3330  0.2562 -0.0054
 2178TIP3    H127949   4.793   3.085  15.052 -0.6459 -0.1822  0.6186
 2178TIP3    H227950   4.651   3.137  15.061 -0.4144  0.5660 -0.0099
 2179TIP3   OH227951   2.425   6.628  12.793  0.1699  0.1186 -0.7461
 2179TIP3    H127952   2.451   6.558  12.853 -3.2001 -0.6611  0.0227
 2179TIP3    H227953   2.470   6.706  12.825 -0.0618 -0.6659  1.7071
 2180TIP3   OH227954   2.837   1.919   0.861  0.1972  0.2920 -0.2114
 2180TIP3    H127955   2.796   2.001   0.834  0.9702  0.7728  0.0496
 2180TIP3    H227956   2.871   1.936   0.949 -1.5336 -0.9861  0.7713
 2181TIP3   OH227957   6.326   4.897  12.021  0.6951  0.3752 -0.3188
 2181TIP3    H127958   6.242   4.939  12.002 -0.5248 -1.5326  0.5516
 2181TIP3    H227959   6.374   4.900  11.938 -0.5842  0.7504 -1.0655
 2182TIP3   OH227960   0.234   0.683  14.947 -0.3642  0.4177  0.2868
 2182TIP3    H127961   0.166   0.727  14.896  0.3977  0.5744 -0.6233
 2182TIP3    H227962   0.298   0.655  14.882 -1.9213 -4.2715  0.4134
 2183TIP3   OH227963   6.685   5.639  11.109  0.4174 -0.1413  0.4832
 2183TIP3    H127964   6.778   5.619  11.103  0.2075 -1.1779  0.6187
 2183TIP3    H227965   6.677   5.725  11.067  1.5723  0.3968  1.3131
 2184TIP3   OH227966   1.503   0.150  10.794  0.1631 -0.3342  0.3288
 2184TIP3    H127967   1.595   0.165  10.819 -0.7762  0.1897  4.0575
 2184TIP3    H227968   1.457   0.228  10.823 -1.3172  0.5177 -3.6445
 2185TIP3   OH227969   5.077   0.436   2.233  0.0366  0.2041 -0.0084
 2185TIP3    H127970   5.102   0.528   2.225  0.2051  0.2777  1.1701
 2185TIP3    H227971   5.058   0.408   2.143  1.1708  1.0396 -0.5256
 2186TIP3   OH227972   4.808   2.348  11.651 -0.2198  0.5994 -0.1483
 2186TIP3    H127973   4.749   2.330  11.578  0.7715 -0.5686 -0.7070
 2186TIP3    H227974   4.804   2.443  11.663  0.1788  0.9141 -2.2186
 2187TIP3   OH227975   3.405   0.582  10.897 -0.2003  0.1874  0.2302
 2187TIP3    H127976   3.481   0.625  10.858 -0.3903  1.4546  1.1767
 2187TIP3    H227977   3.375   0.519  10.831  1.0224  0.4261 -0.5736
 2188TIP3   OH227978   3.169   1.047   0.550 -0.1844  0.3699 -0.2160
 2188TIP3    H127979   3.188   1.014   0.462  1.5144  0.0272  0.2441
 2188TIP3    H227980   3.211   0.984   0.609  1.1739  2.0724  0.7449
 2189TIP3   OH227981   3.768   5.968  11.424 -0.1506  0.7252 -0.1014
 2189TIP3    H127982   3.681   5.937  11.447 -0.6346  1.1129 -1.3211
 2189TIP3    H227983   3.827   5.924  11.486 -1.0822 -0.4927 -0.0522
 2190TIP3   OH227984   4.062   0.828  11.526 -0.1118  0.1900 -0.1114
 2190TIP3    H127985   4.009   0.845  11.447  0.6628 -0.1873 -0.7258
 2190TIP3    H227986   4.147   0.868  11.507 -0.3417  1.3408  1.1290
 2191TIP3   OH227987   5.638   6.681  10.378 -0.0383 -0.2602  0.5350
 2191TIP3    H127988   5.704   6.688  10.448 -0.3596 -0.0260  0.8179
 2191TIP3    H227989   5.687   6.652  10.302  0.4606  0.2840  0.6414
 2192TIP3   OH227990   4.013   3.367   4.085  0.4870  0.5199 -0.0439
 2192TIP3    H127991   3.991   3.430   4.016  1.8950  0.4335 -0.5967
 2192TIP3    H227992   3.993   3.413   4.166  2.2273  2.0209 -0.4053
 2193TIP3   OH227993   5.554   0.452   0.117 -0.4893 -0.1671  0.2614
 2193TIP3    H127994   5.631   0.494   0.156  0.7870 -1.1804 -1.0165
 2193TIP3    H227995   5.568   0.460   0.022 -0.2458 -3.1892 -0.0840
 2194TIP3   OH227996   6.392   0.247  13.408 -0.4757 -0.1129  0.8958
 2194TIP3    H127997   6.348   0.267  13.326  0.9052 -0.1041  0.1194
 2194TIP3    H227998   6.412   0.154  13.403 -0.5031 -0.1424  1.2791
 2195TIP3   OH227999   3.329   3.026  10.886 -0.0143 -0.1234 -0.3012
 2195TIP3    H128000   3.378   3.036  10.804  1.9367 -0.9230  0.6946
 2195TIP3    H228001   3.384   2.970  10.940 -0.9041  0.9250  1.8218
 2196TIP3   OH228002   1.066   6.001  14.247 -0.4680  0.3966  0.0050
 2196TIP3    H128003   1.125   5.995  14.172  1.1266  0.3395  1.2142
 2196TIP3    H228004   1.124   6.011  14.322 -1.9941 -0.1764  1.3107
 2197TIP3   OH228005   1.925   6.837  11.811 -0.1468  0.2215  0.0624
 2197TIP3    H128006   1.987   6.868  11.744  0.6565 -0.6715  0.3678
 2197TIP3    H228007   1.945   6.888  11.889  0.2862 -0.1331  0.1882
 2198TIP3   OH228008   4.296   4.925  15.508  0.1782 -0.3960 -0.1053
 2198TIP3    H128009   4.218   4.964  15.470 -0.3816 -2.2563 -1.0138
 2198TIP3    H228010   4.295   4.953  15.600 -1.1075  0.2771 -0.3029
 2199TIP3   OH228011   6.861   0.384  15.557  0.3361  0.2159 -0.3855
 2199TIP3    H128012   6.842   0.448  15.625  1.3002  1.5160 -1.2902
 2199TIP3    H228013   6.909   0.433  15.491  2.8732 -1.8518 -0.2405
 2200TIP3   OH228014   2.335   0.819  13.047  0.5771 -0.5207  0.3248
 2200TIP3    H128015   2.314   0.734  13.008 -0.4459 -1.0575  1.9273
 2200TIP3    H228016   2.254   0.869  13.041  0.3599 -0.6605  1.8010
 2201TIP3   OH228017   5.199   0.314   0.501 -0.4882  0.4714 -0.2120
 2201TIP3    H128018   5.242   0.398   0.519 -2.7528  1.7290 -0.1870
 2201TIP3    H228019   5.257   0.269   0.440  1.4045  1.4884  0.7558
 2202TIP3   OH228020   1.856   3.644  10.158  0.6047  0.3567 -0.2448
 2202TIP3    H128021   1.850   3.686  10.243 -0.1890  2.7872 -1.4149
 2202TIP3    H228022   1.856   3.550  10.177  1.8071  0.8234  2.4689
 2203TIP3   OH228023   6.106   1.871  13.846  0.4802 -0.6360  0.5841
 2203TIP3    H128024   6.079   1.866  13.937  1.0441 -0.9662  0.7326
 2203TIP3    H228025   6.175   1.938  13.845 -1.2507  1.2582 -0.0236
 2204TIP3   OH228026   3.815   4.727  11.947  0.0342 -0.2352  0.0487
 2204TIP3    H128027   3.869   4.757  12.021 -1.4119 -0.6046  1.3112
 2204TIP3    H228028   3.729   4.764  11.965 -0.6185 -1.2513 -0.8843
 2205TIP3   OH228029   1.050   2.495   4.815  0.6730 -0.4765 -0.6254
 2205TIP3    H128030   1.029   2.410   4.855  1.2138  0.2532  1.3221
 2205TIP3    H228031   1.103   2.473   4.739  0.0113 -1.9232 -0.7128
 2206TIP3   OH228032   3.534   6.321  11.465  0.2933 -0.2126  0.3740
 2206TIP3    H128033   3.619   6.362  11.451 -0.8070  2.2602  0.5144
 2206TIP3    H228034   3.471   6.389  11.445 -1.6515 -1.4996  1.7840
 2207TIP3   OH228035   5.326   2.059  14.781 -0.8376 -0.1580  0.3648
 2207TIP3    H128036   5.411   2.022  14.756 -1.8207 -3.1081  0.9775
 2207TIP3    H228037   5.268   2.036  14.708 -1.3080  1.1636  0.2987
 2208TIP3   OH228038   3.845   2.933  11.695  0.0116 -0.1387  0.1969
 2208TIP3    H128039   3.821   3.020  11.662  0.6859 -0.5846 -1.5886
 2208TIP3    H228040   3.941   2.934  11.697  0.0393 -1.0050 -0.3643
 2209TIP3   OH228041   6.631   0.080   2.478  0.1504  0.0595  0.3319
 2209TIP3    H128042   6.555   0.046   2.524  1.5349  0.1478  2.8816
 2209TIP3    H228043   6.601   0.095   2.388 -2.3751 -1.2973  0.8740
 2210TIP3   OH228044   0.586   0.342   0.001 -0.4056  0.3330 -0.3650
 2210TIP3    H128045   0.670   0.338   0.048  0.0197  1.8268 -0.9483
 2210TIP3    H228046   0.542   0.418   0.037  0.1799  1.8861 -2.6934
 2211TIP3   OH228047   5.026   2.793  13.692  0.3452  0.6411  0.5052
 2211TIP3    H128048   5.095   2.727  13.681 -1.1939 -0.9735  0.1975
 2211TIP3    H228049   5.074   2.872  13.718  2.5073  0.1378 -1.5420
 2212TIP3   OH228050   4.872   5.816  14.931  0.6441  0.2651 -0.5045
 2212TIP3    H128051   4.944   5.763  14.968 -0.4773 -0.0299  1.3865
 2212TIP3    H228052   4.908   5.904  14.925  1.8850 -0.2850 -1.7921
 2213TIP3   OH228053   2.180   3.591  14.350 -0.1164  0.1245 -0.4986
 2213TIP3    H128054   2.211   3.503  14.373  1.1888  0.6390 -0.1531
 2213TIP3    H228055   2.149   3.583  14.260  1.6001 -0.3479 -1.0906
 2214TIP3   OH228056   5.629   6.669  13.337 -0.5880  0.0345 -0.1998
 2214TIP3    H128057   5.649   6.617  13.415  2.1676  1.8596  0.4482
 2214TIP3    H228058   5.574   6.740  13.369 -1.3575 -0.4724 -0.3829
 2215TIP3   OH228059   6.421   2.180   0.772 -0.3421  0.2804  0.3592
 2215TIP3    H128060   6.357   2.168   0.702 -1.9790  1.7911  1.5006
 2215TIP3    H228061   6.464   2.263   0.752 -1.0514  0.8864  1.2838
 2216TIP3   OH228062   5.853   6.789   2.279 -0.4946  0.3265 -0.3481
 2216TIP3    H128063   5.873   6.877   2.311 -0.6446 -0.0807  0.9168
 2216TIP3    H228064   5.760   6.778   2.296 -0.5612  0.0637 -0.8688
 2217TIP3   OH228065   2.318   2.010   0.507  0.3181 -0.2799  0.2620
 2217TIP3    H128066   2.289   1.947   0.441  1.1787 -0.3724 -0.0448
 2217TIP3    H228067   2.406   1.979   0.532  0.1202 -0.0793  1.2347
 2218TIP3   OH228068   4.003   2.690  14.774  0.0298 -0.4800 -0.3767
 2218TIP3    H128069   3.935   2.756  14.776  0.5998  0.2650 -2.7036
 2218TIP3    H228070   4.045   2.695  14.860 -0.5026  1.5679 -0.2067
 2219TIP3   OH228071   3.773   0.001  13.025  0.4118 -0.3413  0.1826
 2219TIP3    H128072   3.742  -0.012  12.935 -0.7291  0.7904  0.3696
 2219TIP3    H228073   3.853  -0.051  13.031  0.9243  0.1394 -1.7226
 2220TIP3   OH228074   3.981   2.132   0.746 -0.5929  0.6679 -0.5986
 2220TIP3    H128075   3.953   2.224   0.751  2.1967  1.5703  0.2941
 2220TIP3    H228076   4.056   2.134   0.687 -0.0568 -0.9395 -0.0115
 2221TIP3   OH228077   5.846   3.628  11.400 -0.6155  0.0650  0.2883
 2221TIP3    H128078   5.763   3.648  11.357 -1.2601  0.4821  1.6646
 2221TIP3    H228079   5.847   3.684  11.477  0.6730 -0.3858  0.6239
 2222TIP3   OH228080   1.400   0.454   2.068 -0.0968  0.5790  0.2298
 2222TIP3    H128081   1.457   0.416   2.002 -0.9784  0.5616 -0.5373
 2222TIP3    H228082   1.432   0.543   2.080  0.6922  0.2679  0.5353
 2223TIP3   OH228083   4.710   4.201  13.017 -0.1219  0.3420  0.2957
 2223TIP3    H128084   4.641   4.178  13.079 -1.2089  1.7051 -0.3467
 2223TIP3    H228085   4.752   4.117  12.995 -1.5314 -0.5156  0.7465
 2224TIP3   OH228086   0.085   6.423  13.092 -0.4427 -0.1610  0.5210
 2224TIP3    H128087   0.170   6.460  13.066  0.1327 -1.2580  0.8001
 2224TIP3    H228088   0.028   6.441  13.017  0.4716 -0.8490 -0.3620
 2225TIP3   OH228089   0.688   0.137   3.570 -0.0856 -0.4998  0.5985
 2225TIP3    H128090   0.661   0.088   3.493 -3.0861  0.5105  0.8667
 2225TIP3    H228091   0.690   0.072   3.640 -0.3305 -0.8840  0.2556
 2226TIP3   OH228092   1.178   2.394  14.449 -0.0371  0.2112 -0.0138
 2226TIP3    H128093   1.083   2.405  14.456 -0.3508 -1.7947 -0.3845
 2226TIP3    H228094   1.210   2.405  14.538 -0.9528 -1.4402  0.5695
 2227TIP3   OH228095   3.758   1.090  13.089 -0.0831  0.2536 -0.5611
 2227TIP3    H128096   3.748   1.127  13.177  2.3118 -0.5888  0.1526
 2227TIP3    H228097   3.747   0.995  13.101  2.2228 -0.1026 -0.7045
 2228TIP3   OH228098   1.441   5.110  11.962 -0.6796 -0.3417 -0.1060
 2228TIP3    H128099   1.518   5.080  12.011 -1.2599 -1.6402  0.0347
 2228TIP3    H228100   1.462   5.094  11.870 -0.1995  0.6993 -0.1952
 2229TIP3   OH228101   2.455   3.192   3.166 -0.7880  0.2784 -0.3654
 2229TIP3    H128102   2.516   3.185   3.093 -0.5975 -3.0601 -0.0654
 2229TIP3    H228103   2.369   3.200   3.126 -0.5074  0.7420 -0.8833
 2230TIP3   OH228104   5.123   0.928  10.828 -0.0139 -0.4688  0.2174
 2230TIP3    H128105   5.115   0.930  10.924  0.3300 -0.8076  0.2538
 2230TIP3    H228106   5.141   0.837  10.808  3.4374  0.1220  0.1176
 2231TIP3   OH228107   3.015   5.972  14.610  0.7417 -0.2863  0.1442
 2231TIP3    H128108   3.043   5.916  14.538  0.4259  1.3823 -1.3332
 2231TIP3    H228109   2.919   5.966  14.610  0.6928  0.4094 -0.1701
 2232TIP3   OH228110   2.474   4.586  10.195  0.2856 -0.1338 -0.1281
 2232TIP3    H128111   2.419   4.658  10.227  0.3414 -0.2206  0.1656
 2232TIP3    H228112   2.483   4.603  10.101  1.7126  1.2053  0.2040
 2233TIP3   OH228113   0.220   5.796  11.536 -0.0877 -0.0373 -0.2423
 2233TIP3    H128114   0.182   5.851  11.603 -0.3021  0.9199 -1.1237
 2233TIP3    H228115   0.181   5.827  11.454  2.1274  0.6197 -1.1282
 2234TIP3   OH228116   1.173   6.575  15.188 -0.5230 -0.1351  0.1303
 2234TIP3    H128117   1.226   6.496  15.177 -0.2626 -0.2991  2.2588
 2234TIP3    H228118   1.237   6.646  15.197 -0.7172  0.0172  0.3145
 2235TIP3   OH228119   1.741   1.247  12.919  0.6079 -0.1051  0.3745
 2235TIP3    H128120   1.770   1.338  12.919  0.0397  0.2439 -3.2095
 2235TIP3    H228121   1.800   1.203  12.858 -1.2273 -1.2597 -0.6613
 2236TIP3   OH228122   5.287   7.039  15.466 -0.1969  0.1955 -0.2659
 2236TIP3    H128123   5.372   7.066  15.499  0.7099 -1.2889 -1.2349
 2236TIP3    H228124   5.224   7.080  15.524  1.1337  2.1438 -0.1276
 2237TIP3   OH228125   3.213   2.174  11.139 -0.0055  0.7300  0.2944
 2237TIP3    H128126   3.298   2.165  11.097  1.0461  1.4283  2.1598
 2237TIP3    H228127   3.163   2.233  11.081  1.4096  1.7283  0.0450
 2238TIP3   OH228128   7.091   0.718  13.733  0.9475 -0.6671 -0.3586
 2238TIP3    H128129   7.121   0.783  13.796  1.4525  0.9548 -2.1583
 2238TIP3    H228130   7.158   0.717  13.665  0.1042 -1.8391 -1.2356
 2239TIP3   OH228131   4.391   6.293  10.650 -0.0893 -0.0767 -0.8897
 2239TIP3    H128132   4.339   6.341  10.585 -0.5375 -0.0395 -0.5145
 2239TIP3    H228133   4.395   6.204  10.616 -1.8727 -0.5107 -0.1061
 2240TIP3   OH228134   5.071   6.241  11.335 -0.0963  0.0829  0.3836
 2240TIP3    H128135   4.992   6.287  11.306 -0.6923 -0.3918  1.1909
 2240TIP3    H228136   5.077   6.165  11.277 -1.3090 -0.8907  1.4951
 2241TIP3   OH228137   6.235   2.162  14.738  0.0194 -0.0792  0.0858
 2241TIP3    H128138   6.258   2.235  14.681  0.2385  0.4483  0.8382
 2241TIP3    H228139   6.294   2.092  14.713 -0.7289 -0.2851 -1.1938
 2242TIP3   OH228140   5.278   0.352  13.236  0.1040 -0.5634 -0.7350
 2242TIP3    H128141   5.231   0.398  13.167  1.1946  0.1202 -1.0440
 2242TIP3    H228142   5.218   0.354  13.311  0.1835  1.5608 -0.6731
 2243TIP3   OH228143   4.561   5.474  12.627  0.2992  0.2357 -0.8647
 2243TIP3    H128144   4.493   5.541  12.623 -0.8068 -0.9145 -2.9630
 2243TIP3    H228145   4.532   5.406  12.566  0.5579 -2.9590  2.2417
 2244TIP3   OH228146   5.294   0.170   1.018  0.2849  0.4137  1.0425
 2244TIP3    H128147   5.355   0.237   0.989 -0.3504  0.3959 -0.4236
 2244TIP3    H228148   5.238   0.214   1.082 -0.6895  1.5597 -0.5404
 2245TIP3   OH228149   6.729   6.345  11.504 -0.0500  0.3968 -0.0715
 2245TIP3    H128150   6.754   6.425  11.459 -0.5972  0.7075  0.1711
 2245TIP3    H228151   6.724   6.369  11.597  0.2224 -0.0273  0.0568
 2246TIP3   OH228152   5.715   3.448  10.932  0.3519 -0.1600  0.4643
 2246TIP3    H128153   5.792   3.400  10.961  2.5716  2.6904 -0.2355
 2246TIP3    H228154   5.705   3.423  10.840 -0.1013 -1.1397  0.7663
 2247TIP3   OH228155   3.561   4.113   1.372 -1.0734  0.2593 -0.1285
 2247TIP3    H128156   3.569   4.045   1.305 -3.6037  0.2513 -0.5207
 2247TIP3    H228157   3.613   4.186   1.337 -0.1978 -0.6615 -0.8047
 2248TIP3   OH228158   0.257   4.388  13.944  0.0773  0.4914 -0.4994
 2248TIP3    H128159   0.251   4.322  14.014  1.2267  1.9580  1.0650
 2248TIP3    H228160   0.170   4.388  13.904 -1.2366  0.8677  2.1568
 2249TIP3   OH228161   3.619   7.027  11.911  0.1394 -0.1563 -0.6311
 2249TIP3    H128162   3.525   7.043  11.903  0.1477  0.4207  0.2231
 2249TIP3    H228163   3.643   6.981  11.831 -1.2814 -2.3317  0.1045
 2250TIP3   OH228164   3.455   4.533  11.681  0.4039  0.1756  0.2185
 2250TIP3    H128165   3.494   4.520  11.767 -1.7619  1.0953  1.3950
 2250TIP3    H228166   3.420   4.622  11.683 -0.5527 -0.1348 -1.2392
 2251TIP3   OH228167   5.347   2.878  12.227 -0.3864  0.4841  0.1617
 2251TIP3    H128168   5.290   2.880  12.150  1.6735 -0.4656 -1.4751
 2251TIP3    H228169   5.332   2.792  12.266  1.4214 -0.7250 -1.5802
 2252TIP3   OH228170   2.584   2.781  11.526 -0.3523  0.6085  0.1521
 2252TIP3    H128171   2.578   2.829  11.443 -0.1142  0.4308  0.0306
 2252TIP3    H228172   2.606   2.847  11.591  0.0166  0.6570 -0.0203
 2253TIP3   OH228173   4.138   0.836   0.246 -0.1882 -0.8247  0.2979
 2253TIP3    H128174   4.161   0.929   0.250 -1.7574 -0.4395  0.7668
 2253TIP3    H228175   4.111   0.814   0.335  0.1955 -1.7547  0.1968
 2254TIP3   OH228176   2.362   4.607  11.000  0.3726 -0.1120  0.5775
 2254TIP3    H128177   2.371   4.559  10.917 -1.2178 -2.0117  1.3928
 2254TIP3    H228178   2.383   4.542  11.067  1.2380  1.2787  1.7042
 2255TIP3   OH228179   4.190   3.297  12.189  0.2935  0.1948  0.0566
 2255TIP3    H128180   4.276   3.270  12.157 -0.0737  1.7678 -2.4922
 2255TIP3    H228181   4.198   3.294  12.284  2.9474 -0.3213 -0.1088
 2256TIP3   OH228182   7.004   0.203  13.239  0.1590 -0.7050 -0.1020
 2256TIP3    H128183   7.069   0.202  13.168 -1.1410 -3.4598 -1.4205
 2256TIP3    H228184   6.920   0.202  13.194 -0.7774 -0.1185  1.5533
 2257TIP3   OH228185   6.519   2.822  14.097 -0.2691 -0.7899 -0.0844
 2257TIP3    H128186   6.423   2.823  14.091 -0.2390  1.7554 -2.6533
 2257TIP3    H228187   6.543   2.913  14.117  1.6319 -1.1832 -0.3784
 2258TIP3   OH228188   3.893   0.318  14.876 -0.3987 -0.6419  0.3545
 2258TIP3    H128189   3.889   0.377  14.952 -0.1376 -1.4038  0.9822
 2258TIP3    H228190   3.830   0.354  14.814 -0.8146 -0.1470  1.0440
 2259TIP3   OH228191   1.081   0.631  10.883 -0.2048  0.3486 -0.3368
 2259TIP3    H128192   1.003   0.659  10.932  0.1722 -2.0969  1.8407
 2259TIP3    H228193   1.154   0.664  10.935  0.2740  1.1211 -1.4516
 2260TIP3   OH228194   0.646   1.344  11.026  0.0580  0.3684  0.3221
 2260TIP3    H128195   0.611   1.279  11.086  0.2358  1.0352  1.1564
 2260TIP3    H228196   0.676   1.292  10.950 -2.1001 -0.2825 -0.1599
 2261TIP3   OH228197   7.056   2.840  13.970  0.6232  0.5459 -0.1826
 2261TIP3    H128198   7.047   2.745  13.976 -0.7214  0.5969 -0.8715
 2261TIP3    H228199   6.965   2.872  13.963  1.1159  1.7139 -1.9325
 2262TIP3   OH228200   6.450   1.554  10.591 -0.3234  0.5097  0.1072
 2262TIP3    H128201   6.473   1.479  10.537  1.7238  0.0280  1.5197
 2262TIP3    H228202   6.380   1.522  10.648  0.3419 -0.2547  0.5031
 2263TIP3   OH228203   0.604   2.772  14.387  0.0330 -0.2163  0.2077
 2263TIP3    H128204   0.576   2.692  14.343 -2.1296  0.7293 -0.2577
 2263TIP3    H228205   0.677   2.744  14.443  0.0582 -2.2713 -0.7593
 2264TIP3   OH228206   2.142   5.995  11.623  0.6898  0.3516 -0.8586
 2264TIP3    H128207   2.131   6.005  11.529 -2.3630 -0.4392 -0.6729
 2264TIP3    H228208   2.058   6.021  11.661  1.7256  0.3804  1.6520
 2265TIP3   OH228209   1.471   6.996  10.415  0.2568  0.1531  0.0831
 2265TIP3    H128210   1.449   7.072  10.470  0.9399  0.8087 -0.5252
 2265TIP3    H228211   1.561   7.012  10.388  0.0446 -0.3227 -0.9475
 2266TIP3   OH228212   3.535   5.567  11.214  0.0979 -0.0614 -0.1128
 2266TIP3    H128213   3.485   5.618  11.150 -0.3785 -2.6169 -1.9575
 2266TIP3    H228214   3.469   5.524  11.268  0.4936  1.4209  1.6577
 2267TIP3   OH228215   2.903   6.609  12.168 -0.5102 -0.2395 -0.2254
 2267TIP3    H128216   2.970   6.545  12.191  1.0008  1.3458  0.0214
 2267TIP3    H228217   2.830   6.591  12.227 -0.3798 -2.0710 -0.5686
 2268TIP3   OH228218   0.269   3.187  11.582 -0.0211 -0.1235 -0.8484
 2268TIP3    H128219   0.315   3.129  11.642 -1.2051 -0.0733  0.1539
 2268TIP3    H228220   0.328   3.262  11.571 -0.0425  0.1813  0.8251
 2269TIP3   OH228221   0.753   6.564  11.389 -0.3165 -0.2851  0.5505
 2269TIP3    H128222   0.793   6.484  11.353  1.6545  1.2903 -0.9655
 2269TIP3    H228223   0.659   6.544  11.392  0.0456 -2.4212 -0.3776
 2270TIP3   OH228224   0.549   2.918  11.093 -0.0769  0.5291  0.0625
 2270TIP3    H128225   0.524   2.912  11.185 -2.6307  1.1606 -0.5204
 2270TIP3    H228226   0.602   2.839  11.077 -1.1743 -0.5749  1.6055
 2271TIP3   OH228227   2.606   3.330  10.799 -0.0383  0.5852 -0.0393
 2271TIP3    H128228   2.576   3.295  10.716  0.9409 -0.1762 -0.0978
 2271TIP3    H228229   2.614   3.425  10.784 -0.1101  0.4873 -0.7246
 2272TIP3   OH228230   0.849   6.328  10.959  0.5933 -0.3726 -0.1686
 2272TIP3    H128231   0.831   6.280  10.878  0.4173 -1.9049  0.7203
 2272TIP3    H228232   0.939   6.304  10.982 -0.0305 -1.6100  1.1198
 2273TIP3   OH228233   0.949   6.723  11.276 -0.0087 -0.5277  0.1840
 2273TIP3    H128234   0.905   6.640  11.293 -0.1011 -0.0137  3.0559
 2273TIP3    H228235   1.022   6.724  11.338  0.1354  1.4259  0.0535
 2274TIP3   OH228236   4.608   2.793  10.703 -0.1653 -0.1739  0.1377
 2274TIP3    H128237   4.599   2.833  10.790 -3.4884 -0.5341  0.1034
 2274TIP3    H228238   4.617   2.699  10.721 -1.2284 -0.2900  0.1355
 2275TIP3   OH228239   3.469   6.037  11.815 -0.0306 -0.4195  0.2144
 2275TIP3    H128240   3.485   6.035  11.909 -1.5888 -0.1725  0.5122
 2275TIP3    H228241   3.514   6.115  11.784 -0.1249 -0.0964  0.8871
 2276TIP3   OH228242   3.013   3.558  11.449 -0.6190  0.3393 -0.2826
 2276TIP3    H128243   3.023   3.478  11.397 -1.2922  0.1642 -0.1557
 2276TIP3    H228244   3.011   3.527  11.539  1.5761  0.7261 -0.0328
 2277TIP3   OH228245   3.374   2.330   9.988 -0.4073 -0.3832 -0.4008
 2277TIP3    H128246   3.403   2.361  10.073 -0.8364  0.4395 -0.5460
 2277TIP3    H228247   3.422   2.249   9.974  1.2907  0.5737 -0.3334
 2278TIP3   OH228248   5.562   5.680  14.121  0.5550 -0.3293 -0.3484
 2278TIP3    H128249   5.638   5.624  14.137  1.8466  1.2093 -0.8318
 2278TIP3    H228250   5.559   5.691  14.026 -0.3636 -0.4891 -0.3457
 2279TIP3   OH228251   1.547   0.360  14.606  0.1017 -0.5538 -0.2535
 2279TIP3    H128252   1.476   0.386  14.547  0.6181 -0.1858 -0.7231
 2279TIP3    H228253   1.582   0.442  14.641  1.0326 -0.6462 -0.9099
 2280TIP3   OH228254   0.986   5.992  11.637 -0.1576  0.5731 -0.5427
 2280TIP3    H128255   1.082   5.996  11.628  0.2390 -0.6056  2.0998
 2280TIP3    H228256   0.971   5.917  11.695 -2.8915 -0.7972 -2.7812
 2281TIP3   OH228257   5.651   1.755  15.074  0.0545  0.2741 -0.3303
 2281TIP3    H128258   5.690   1.794  14.995  1.3701  1.0226  0.6417
 2281TIP3    H228259   5.644   1.828  15.135 -0.6496 -0.3582  0.3642
 2282TIP3   OH228260   2.865   1.133  11.083 -0.0937 -0.0663 -0.2699
 2282TIP3    H128261   2.901   1.188  11.152  0.7903 -0.1448 -0.6625
 2282TIP3    H228262   2.869   1.044  11.118 -1.4236  0.0761  0.3212
 2283TIP3   OH228263   6.265   5.775  11.704 -0.7552  0.4598 -0.0038
 2283TIP3    H128264   6.339   5.714  11.707 -2.2010 -1.5084 -1.5198
 2283TIP3    H228265   6.284   5.839  11.772  1.1304 -1.3856  1.3354
 2284TIP3   OH228266   6.115   2.281   9.670  0.0691  0.2312 -0.1541
 2284TIP3    H128267   6.066   2.207   9.636  0.4781 -0.6824  1.1682
 2284TIP3    H228268   6.153   2.322   9.592  0.1176 -1.1486 -0.8873
 2285TIP3   OH228269   3.432   0.014  11.300  0.0675  0.3972 -0.4727
 2285TIP3    H128270   3.476   0.094  11.330 -0.6342  0.0886  1.5223
 2285TIP3    H228271   3.501  -0.052  11.297  0.1818  0.4790  0.3326
 2286TIP3   OH228272   6.269   4.708  12.496 -0.0596  0.2674 -0.2404
 2286TIP3    H128273   6.274   4.619  12.531 -2.0915  0.1003 -0.2455
 2286TIP3    H228274   6.360   4.734  12.484  0.5920 -1.8094 -0.2500
 2287TIP3   OH228275   2.215   3.797  12.439 -0.0088 -0.2212  0.3896
 2287TIP3    H128276   2.169   3.745  12.374 -0.3690  0.2250  0.2845
 2287TIP3    H228277   2.169   3.880  12.441  0.4465  0.0304  0.6925
 2288TIP3   OH228278   3.977   0.487  11.714 -0.6718  0.4487 -0.4817
 2288TIP3    H128279   3.948   0.417  11.655 -0.7600  0.7830 -0.8359
 2288TIP3    H228280   4.014   0.441  11.789 -1.7849  0.0083 -0.1780
 2289TIP3   OH228281   5.932   3.225  10.850  0.0349  0.8667  0.0277
 2289TIP3    H128282   6.028   3.231  10.845 -0.0097  1.6778  0.0123
 2289TIP3    H228283   5.902   3.252  10.763 -0.1575 -1.3280 -0.6405
 2290TIP3   OH228284   3.517   1.062  13.582  0.1325  0.0208  0.2088
 2290TIP3    H128285   3.533   1.089  13.491  1.5686 -2.3481 -0.3345
 2290TIP3    H228286   3.505   0.967  13.576  0.7731 -0.2532  2.5596
 2291TIP3   OH228287   0.993   1.426  11.918 -0.5820  0.3131 -0.0187
 2291TIP3    H128288   1.036   1.346  11.949  0.2334  1.1913  1.2777
 2291TIP3    H228289   0.987   1.415  11.823  0.0768 -1.0079  0.0614
 2292TIP3   OH228290   6.745   5.961  13.404 -0.3148 -0.6236 -0.3306
 2292TIP3    H128291   6.814   5.971  13.470  0.7021 -2.6735 -0.9975
 2292TIP3    H228292   6.790   5.976  13.321 -0.6315 -1.9673 -0.7711
 2293TIP3   OH228293   0.616   1.617  10.982  0.1252  0.3593 -0.2022
 2293TIP3    H128294   0.668   1.635  10.903  0.7777 -2.8141 -0.6229
 2293TIP3    H228295   0.634   1.525  11.003 -3.8052 -0.3984  0.7741
 2294TIP3   OH228296   2.248   4.078  11.618  0.8027  1.0668 -0.0390
 2294TIP3    H128297   2.305   4.077  11.695 -0.1292  0.0085  0.6688
 2294TIP3    H228298   2.239   3.986  11.593 -1.0635  1.1369  0.2406
 2295TIP3   OH228299   3.077   6.861  13.056 -0.1775 -0.3255 -0.3238
 2295TIP3    H128300   3.113   6.774  13.077 -0.8171 -0.7556 -0.9651
 2295TIP3    H228301   3.132   6.922  13.105  0.9350 -1.0226 -0.6665
 2296TIP3   OH228302   1.644   6.476  10.381 -0.3048 -0.4622  0.3805
 2296TIP3    H128303   1.675   6.410  10.318  2.1260  0.8056  0.1340
 2296TIP3    H228304   1.641   6.429  10.464  0.3341 -1.1864  0.0116
 2297TIP3   OH228305   5.456   6.207  13.098  0.0981  0.2926 -0.1629
 2297TIP3    H128306   5.406   6.257  13.163  1.2436 -0.2633  1.1824
 2297TIP3    H228307   5.534   6.177  13.145  1.5768  0.8663 -2.1189
 2298TIP3   OH228308   1.679   5.033  10.116 -0.0617  0.2564  0.0152
 2298TIP3    H128309   1.594   4.990  10.114  0.0768 -0.0330  0.1246
 2298TIP3    H228310   1.742   4.960  10.124  0.1225  0.5339  1.3282
 2299TIP3   OH228311   0.762   6.016  12.563  0.0023 -0.2614  0.0004
 2299TIP3    H128312   0.847   5.993  12.527  0.9025  0.1161  1.7810
 2299TIP3    H228313   0.710   6.044  12.487  1.1455 -1.3734 -1.2226
 2300TIP3   OH228314   4.081   5.774  13.082  0.5553 -0.0129  0.0321
 2300TIP3    H128315   4.035   5.772  13.166  0.5036  0.0075  0.0038
 2300TIP3    H228316   4.019   5.735  13.020 -0.0222  1.3959 -0.3107
 2301TIP3   OH228317   6.568   5.232  10.323 -0.0860  0.0309 -0.3851
 2301TIP3    H128318   6.565   5.241  10.418  0.6017 -2.9009  0.0106
 2301TIP3    H228319   6.632   5.297  10.294 -3.7625  4.5486  0.4037
 2302TIP3   OH228320   5.698   4.855  15.329 -0.1179 -0.4251  0.1950
 2302TIP3    H128321   5.681   4.795  15.402 -0.2685 -0.1218  0.4145
 2302TIP3    H228322   5.645   4.932  15.349  1.8322  0.7440  1.1170
 2303TIP3   OH228323   0.116   1.611  14.360 -0.3928 -0.2149 -0.1429
 2303TIP3    H128324   0.202   1.606  14.401 -0.4425  0.8435  0.1104
 2303TIP3    H228325   0.130   1.586  14.269  0.0415 -0.8018  0.0850
 2304TIP3   OH228326   1.507   7.018  11.709  0.4450  0.1557  0.3313
 2304TIP3    H128327   1.588   6.974  11.684 -0.9344 -2.8431  0.8087
 2304TIP3    H228328   1.453   6.950  11.748 -2.6322  1.8690 -0.6089
 2305TIP3   OH228329   5.896   0.076   9.915 -0.5646  0.2614 -0.3358
 2305TIP3    H128330   5.929   0.129   9.841  1.5879 -0.5729 -0.0386
 2305TIP3    H228331   5.954   0.000   9.918 -1.4399 -0.3884  1.4205
 2306TIP3   OH228332   2.903   4.445  11.554 -0.6182  0.2671 -0.6605
 2306TIP3    H128333   2.979   4.388  11.567 -1.0762 -0.0336  0.9160
 2306TIP3    H228334   2.917   4.519  11.612 -1.5689  0.1518 -0.2530
 2307TIP3   OH228335   6.648   4.990   0.422 -0.0300  0.3544  0.6498
 2307TIP3    H128336   6.590   5.055   0.461 -0.7052  0.2711 -0.1886
 2307TIP3    H228337   6.589   4.925   0.384  0.6297 -0.2722  0.6750
 2308TIP3   OH228338   2.964   1.759  12.013  0.8111 -0.0770 -0.2907
 2308TIP3    H128339   2.953   1.664  12.021  0.1108  0.1150  1.5159
 2308TIP3    H228340   3.027   1.770  11.941  0.7767 -1.8816 -0.6532
 2309TIP3   OH228341   0.147   4.589  11.815  0.0448 -0.0621  0.3936
 2309TIP3    H128342   0.161   4.495  11.802  0.6985 -0.0048  0.5999
 2309TIP3    H228343   0.235   4.623  11.836 -0.3704  0.3997  1.4455
 2310TIP3   OH228344   1.953   0.359  10.721  0.6703  0.6623 -0.2243
 2310TIP3    H128345   1.897   0.308  10.662 -0.6156  1.0136  0.6476
 2310TIP3    H228346   1.904   0.440  10.736  0.8853  0.5039  1.4395
 2311TIP3   OH228347   5.169   4.419   2.479  0.0378 -0.6854 -0.1168
 2311TIP3    H128348   5.124   4.501   2.462 -0.1194 -0.6334  0.5395
 2311TIP3    H228349   5.139   4.392   2.565  2.4124  0.1575  1.0828
 2312TIP3   OH228350   4.160   1.871  14.193  0.2487 -0.1527  0.2934
 2312TIP3    H128351   4.159   1.946  14.253  2.1321 -0.3436  0.6231
 2312TIP3    H228352   4.092   1.891  14.129 -0.6358  0.8831  1.4975
 2313TIP3   OH228353   3.224   7.019   0.133 -0.6543  0.2006 -0.2176
 2313TIP3    H128354   3.233   6.935   0.178 -0.2253  0.7306  0.7082
 2313TIP3    H228355   3.240   6.999   0.041 -2.3232 -1.0558 -0.2911
 2314TIP3   OH228356   5.623   2.031  12.249  0.2017 -0.4748  0.2424
 2314TIP3    H128357   5.669   1.948  12.236 -0.8504 -1.0947  0.3604
 2314TIP3    H228358   5.685   2.085  12.299  0.8944 -1.1839  0.1797
 2315TIP3   OH228359   0.515   0.131   4.497 -0.1163 -0.3693 -0.2240
 2315TIP3    H128360   0.436   0.088   4.467  0.0064 -1.8881  1.4383
 2315TIP3    H228361   0.583   0.064   4.492  0.5325  0.2050  0.5574
 2316TIP3   OH228362   2.479   4.272  13.611 -0.4294  0.0052  0.4473
 2316TIP3    H128363   2.502   4.217  13.536 -1.3546 -0.1509  0.2665
 2316TIP3    H228364   2.414   4.334  13.578 -0.3081  0.4119  0.9469
 2317TIP3   OH228365   6.755   4.317   0.866 -0.0604  0.1163  0.4380
 2317TIP3    H128366   6.690   4.359   0.922  0.6441 -1.4331  2.5331
 2317TIP3    H228367   6.715   4.234   0.840  0.8135 -0.5772  1.2457
 2318TIP3   OH228368   5.221   4.471  12.575 -0.1957 -0.0497 -0.1142
 2318TIP3    H128369   5.296   4.419  12.547 -1.3823 -1.9576  0.0304
 2318TIP3    H228370   5.251   4.518  12.653  1.6860  1.5742 -1.7111
 2319TIP3   OH228371   3.483   2.816  14.762 -0.2341 -0.2643 -0.1773
 2319TIP3    H128372   3.491   2.821  14.667 -0.6161  1.6518 -0.1449
 2319TIP3    H228373   3.574   2.819  14.793 -0.1619  0.7030 -0.4480
 2320TIP3   OH228374   3.596   0.196   0.267  0.1520  0.4969  0.1848
 2320TIP3    H128375   3.597   0.128   0.334 -0.3762 -0.5831 -0.8720
 2320TIP3    H228376   3.536   0.163   0.200 -0.6443  2.3147 -0.0474
 2321TIP3   OH228377   4.481   0.888   0.992 -0.0057  0.4481 -0.1908
 2321TIP3    H128378   4.519   0.937   1.064  0.6148  0.7907 -0.7474
 2321TIP3    H228379   4.481   0.948   0.918 -0.3367 -0.0049 -0.5730
 2322TIP3   OH228380   5.738   6.787   0.525  0.4610  0.2611 -0.2809
 2322TIP3    H128381   5.729   6.697   0.493  2.1133  0.8181 -2.5601
 2322TIP3    H228382   5.829   6.794   0.554  0.1029  0.9653  0.7368
 2323TIP3   OH228383   3.020   5.528  10.792 -0.0614 -0.3006 -0.0479
 2323TIP3    H128384   3.033   5.623  10.795 -1.5997 -0.0809  0.4872
 2323TIP3    H228385   2.925   5.517  10.786  0.1173 -1.8087 -0.5414
 2324TIP3   OH228386   3.863   2.376   0.706  0.4023  0.6498  0.3437
 2324TIP3    H128387   3.924   2.445   0.730 -0.8152  1.3853  1.4430
 2324TIP3    H228388   3.783   2.421   0.682 -0.6459 -0.3529  1.7528
 2325TIP3   OH228389   4.940   6.825   2.004  0.5727  0.0492 -0.4289
 2325TIP3    H128390   5.012   6.785   1.954  0.4697 -0.7093  0.0220
 2325TIP3    H228391   4.870   6.835   1.939 -0.1375 -2.4356 -0.1154
 2326TIP3   OH228392   7.091   1.341  12.012  0.2298  0.9389  0.2316
 2326TIP3    H128393   7.113   1.324  11.921  1.9623  0.0277  0.7833
 2326TIP3    H228394   6.997   1.323  12.018  0.5397 -1.3584 -0.8677
 2327TIP3   OH228395   5.374   4.092  10.981 -0.2576  0.5025 -0.3383
 2327TIP3    H128396   5.454   4.144  10.994  0.1663  0.2762 -1.8510
 2327TIP3    H228397   5.400   4.024  10.918 -1.2234 -0.5876  0.4008
 2328TIP3   OH228398   6.147   3.945  10.826 -0.7133  0.2705  0.5813
 2328TIP3    H128399   6.206   3.958  10.752 -0.7321 -1.7807  0.1413
 2328TIP3    H228400   6.071   4.000  10.806 -0.4972  0.1516 -0.6659
 2329TIP3   OH228401   0.293   2.073   2.968 -0.0790  0.4758 -0.2965
 2329TIP3    H128402   0.359   2.115   2.914 -0.6944  0.5917 -0.9756
 2329TIP3    H228403   0.292   1.982   2.939  0.7553  0.1357  0.6848
 2330TIP3   OH228404   4.779   1.495   9.859  0.2955 -0.0639  0.2883
 2330TIP3    H128405   4.720   1.528   9.792 -0.9843 -0.1441  1.3408
 2330TIP3    H228406   4.847   1.447   9.810 -1.7048 -1.8878 -0.8799
 2331TIP3   OH228407   4.349   1.542  15.000  0.4038  0.1843  0.2723
 2331TIP3    H128408   4.296   1.578  14.929  0.8222  0.6727  0.2056
 2331TIP3    H228409   4.290   1.481  15.045  0.4733 -0.9918 -1.1574
 2332TIP3   OH228410   4.376   0.340  13.758  0.0923  0.7835  0.5518
 2332TIP3    H128411   4.325   0.261  13.745  1.9174 -0.8491  2.5611
 2332TIP3    H228412   4.341   0.402  13.694 -2.2576 -1.1937 -0.2287
 2333TIP3   OH228413   6.142   1.961  14.112 -0.7129 -0.5315 -0.0773
 2333TIP3    H128414   6.173   1.945  14.201  1.6693 -0.0552 -0.7396
 2333TIP3    H228415   6.111   2.052  14.114  0.1957 -0.2077  0.0945
 2334TIP3   OH228416   0.468   6.006   1.096 -0.3097 -0.0574 -0.1154
 2334TIP3    H128417   0.477   6.046   1.182 -1.1388  0.1181 -0.1052
 2334TIP3    H228418   0.433   6.075   1.040  0.1737 -0.1848 -0.5875
 2335TIP3   OH228419   1.840   6.314   9.924 -0.3968 -0.1440 -0.1024
 2335TIP3    H128420   1.811   6.321   9.834 -0.0864 -0.5064 -0.2320
 2335TIP3    H228421   1.903   6.242   9.924  2.3002  2.0326 -0.3005
 2336TIP3   OH228422   5.845   4.447   0.718  0.0146 -0.0462 -0.2800
 2336TIP3    H128423   5.866   4.358   0.690 -2.9327 -0.8194 -0.3275
 2336TIP3    H228424   5.791   4.482   0.647 -1.2888  0.7016  1.0341
 2337TIP3   OH228425   4.545   3.569  11.393  0.4179 -0.3012 -0.6477
 2337TIP3    H128426   4.609   3.509  11.356 -0.3722 -1.2234 -0.5490
 2337TIP3    H228427   4.479   3.513  11.433 -0.4472  0.6215 -0.7294
 2338TIP3   OH228428   6.808   1.367   5.032 -0.4259  0.5557  0.7154
 2338TIP3    H128429   6.775   1.455   5.014  0.6528  1.2879  2.1252
 2338TIP3    H228430   6.882   1.380   5.091 -2.3160 -1.4784  3.8456
 2339TIP3   OH228431   4.080   2.775  12.404 -0.9997  0.6248  0.0585
 2339TIP3    H128432   4.049   2.701  12.351 -2.4527  1.3072 -0.0844
 2339TIP3    H228433   4.129   2.830  12.343  0.1280 -0.2243  0.1739
 2340TIP3   OH228434   4.826   6.700   1.339  0.5286  0.2313  0.1802
 2340TIP3    H128435   4.833   6.604   1.344 -1.0211  0.1218  0.6068
 2340TIP3    H228436   4.792   6.726   1.424 -0.0383  1.0633 -0.2878
 2341TIP3   OH228437   2.239   1.667  10.042 -0.9292 -0.5540  0.0468
 2341TIP3    H128438   2.327   1.674  10.078 -0.0615 -3.0445 -1.3034
 2341TIP3    H228439   2.183   1.650  10.117  0.0421 -0.6922  0.7585
 2342TIP3   OH228440   1.259   0.291  14.498 -0.2534 -0.0916  0.0237
 2342TIP3    H128441   1.275   0.260  14.587  3.3728  0.5247 -0.2645
 2342TIP3    H228442   1.284   0.216  14.443 -0.3418  0.2623 -0.4993
 2343TIP3   OH228443   1.105   4.060  13.368 -1.2263 -0.4015 -0.1430
 2343TIP3    H128444   1.031   4.120  13.356 -0.0142  1.3548  0.7609
 2343TIP3    H228445   1.159   4.073  13.290 -0.0661  1.0789  0.8536
 2344TIP3   OH228446   4.657   6.423   9.587 -0.0806  0.0146  0.4903
 2344TIP3    H128447   4.663   6.344   9.533 -1.5571  0.0706  0.2099
 2344TIP3    H228448   4.737   6.421   9.640  0.2140 -1.3412  0.0564
 2345TIP3   OH228449   4.875   1.526  15.293  0.3956 -0.4975 -0.4034
 2345TIP3    H128450   4.798   1.474  15.270  1.4370 -1.7477 -1.2470
 2345TIP3    H228451   4.860   1.612  15.253 -1.6950  0.1866  1.6298
 2346TIP3   OH228452   6.952   6.531  11.040  0.1941 -0.3155 -0.1668
 2346TIP3    H128453   6.857   6.525  11.029 -0.0359 -0.1697  1.3947
 2346TIP3    H228454   6.974   6.454  11.093  0.9086 -0.2275 -0.3351
 2347TIP3   OH228455   5.240   1.448  11.115  0.4127 -0.1125  0.4816
 2347TIP3    H128456   5.256   1.420  11.025 -1.8277 -0.5884  0.1604
 2347TIP3    H228457   5.269   1.374  11.169 -1.1922 -1.2138 -0.0891
 2348TIP3   OH228458   0.241   0.237  11.110  0.1359 -0.3565  0.0062
 2348TIP3    H128459   0.289   0.182  11.172 -3.1709 -1.4942  1.7899
 2348TIP3    H228460   0.258   0.326  11.140 -0.9706 -0.8496  2.3848
 2349TIP3   OH228461   6.428   4.614  12.952  0.3228  0.1449 -0.4540
 2349TIP3    H128462   6.420   4.547  12.884 -1.4877  0.1710 -0.3028
 2349TIP3    H228463   6.489   4.678  12.915 -0.3760 -0.0066 -1.9141
 2350TIP3   OH228464   4.492   2.432  15.488 -0.5198 -0.0126  0.1255
 2350TIP3    H128465   4.464   2.476  15.407 -0.7510  1.0801  0.7799
 2350TIP3    H228466   4.530   2.502  15.541 -1.5623 -0.4434  1.5057
 2351TIP3   OH228467   0.736   4.843  12.669  0.0624  0.7492 -0.4876
 2351TIP3    H128468   0.691   4.769  12.710 -0.5979  1.8367  0.8460
 2351TIP3    H228469   0.809   4.863  12.728  0.8877  0.4998 -1.3999
 2352TIP3   OH228470   1.372   1.070   4.696  0.5457 -0.1586 -0.7136
 2352TIP3    H128471   1.302   1.043   4.637 -0.5484 -0.2013  0.5518
 2352TIP3    H228472   1.391   1.160   4.671  0.0014 -0.1347 -1.0567
 2353TIP3   OH228473   1.200   4.447  11.063 -0.7149 -0.3047 -0.2813
 2353TIP3    H128474   1.185   4.367  11.012  0.1329 -1.9254  1.8646
 2353TIP3    H228475   1.291   4.439  11.093 -1.2140  0.4963  1.5470
 2354TIP3   OH228476   3.287   6.596  12.375 -0.2170  0.1264  0.1188
 2354TIP3    H128477   3.214   6.538  12.354  1.3670 -1.8933 -0.1038
 2354TIP3    H228478   3.365   6.542  12.363  1.2857  1.9200  1.2603
 2355TIP3   OH228479   3.369   4.519  13.577 -0.5502 -0.3339 -0.0177
 2355TIP3    H128480   3.428   4.444  13.576 -0.4744 -0.2934 -1.8070
 2355TIP3    H228481   3.309   4.502  13.650 -0.1340 -1.8151  0.0024
 2356TIP3   OH228482   0.426   0.603   9.984  0.1167  0.0651 -0.3701
 2356TIP3    H128483   0.390   0.620   9.897  0.8993 -0.6778 -0.8564
 2356TIP3    H228484   0.363   0.545  10.026 -0.9318  1.4888  0.0761
 2357TIP3   OH228485   6.404   4.220  12.376 -0.1281  0.2074  1.0317
 2357TIP3    H128486   6.420   4.312  12.352 -1.0412  0.1620  0.2010
 2357TIP3    H228487   6.439   4.170  12.302  1.7681 -0.2303  2.1474
 2358TIP3   OH228488   4.433   3.298  11.246 -0.0446  0.5616 -0.0427
 2358TIP3    H128489   4.341   3.271  11.238 -0.3973  1.5677  0.4278
 2358TIP3    H228490   4.444   3.315  11.340  1.0928 -1.0998  0.1634
 2359TIP3   OH228491   3.261   5.782  10.639  0.3255 -0.2034 -0.0471
 2359TIP3    H128492   3.225   5.716  10.579 -2.1272  0.9969 -0.0353
 2359TIP3    H228493   3.202   5.779  10.714  1.1588  0.8907  0.6655
 2360TIP3   OH228494   4.268   7.081   2.160  0.2809 -0.2665  0.2134
 2360TIP3    H128495   4.248   7.088   2.253 -0.9197  0.4258 -0.0828
 2360TIP3    H228496   4.184   7.061   2.118 -0.0901  3.3989 -1.1645
 2361TIP3   OH228497   6.311   1.492  13.253  0.6964 -0.4244 -0.1061
 2361TIP3    H128498   6.310   1.413  13.307  0.8913 -2.0098 -2.3138
 2361TIP3    H228499   6.402   1.504  13.229  0.5463 -0.0095 -0.4765
 2362TIP3   OH228500   4.128   1.339  14.714  0.5058  0.2479  0.2636
 2362TIP3    H128501   4.091   1.357  14.627 -0.8748 -1.9331  0.3353
 2362TIP3    H228502   4.150   1.426  14.748 -1.2120  1.3813 -1.2778
 2363TIP3   OH228503   2.439   6.392  10.298 -0.6766 -0.0561  0.7049
 2363TIP3    H128504   2.466   6.431  10.215 -1.2481  0.0480  0.5641
 2363TIP3    H228505   2.518   6.350  10.332 -0.3906  0.0765  0.2059
 2364TIP3   OH228506   0.942   4.968   3.385 -0.0707 -0.1988  0.3265
 2364TIP3    H128507   0.948   4.960   3.290 -0.6953  0.1075  0.2548
 2364TIP3    H228508   0.967   4.882   3.418  0.8247 -0.0986 -0.0808
 2365TIP3   OH228509   2.160   4.200  14.222 -0.3832 -0.9472 -0.1470
 2365TIP3    H128510   2.205   4.283  14.238 -1.0176 -0.4719 -0.7819
 2365TIP3    H228511   2.111   4.184  14.302 -0.0291 -0.8669  0.0920
 2366TIP3   OH228512   4.890   1.111   0.491 -0.6013  0.2228  0.0688
 2366TIP3    H128513   4.977   1.146   0.474 -0.6599 -0.4246 -1.8289
 2366TIP3    H228514   4.902   1.016   0.492 -1.3419  0.1068 -0.6543
 2367TIP3   OH228515   3.667   6.644   3.577  0.2115  0.1064  0.0056
 2367TIP3    H128516   3.575   6.667   3.590  0.6310  1.3487  1.0351
 2367TIP3    H228517   3.680   6.569   3.635 -0.3589 -0.6618 -0.8367
 2368TIP3   OH228518   2.281   3.335  12.592  0.2789  0.2896 -0.4806
 2368TIP3    H128519   2.295   3.321  12.498  0.4617  1.4427 -0.6350
 2368TIP3    H228520   2.206   3.395  12.596 -0.7259 -0.9617  0.1662
 2369TIP3   OH228521   6.192   2.743  14.786 -0.3036  0.2892  0.4234
 2369TIP3    H128522   6.272   2.762  14.737  0.1478 -1.4357  0.4102
 2369TIP3    H228523   6.121   2.761  14.724  0.2575 -2.1749 -1.1010
 2370TIP3   OH228524   4.635   5.336  14.931  0.5095 -0.3064 -0.2949
 2370TIP3    H128525   4.629   5.242  14.914  1.3016 -0.3990 -0.0930
 2370TIP3    H228526   4.591   5.348  15.015  0.9084 -0.5854 -0.0424
 2371TIP3   OH228527   3.978   2.057  11.276  1.2406  0.1274  0.1056
 2371TIP3    H128528   4.072   2.072  11.275  1.1391  0.8431  0.2690
 2371TIP3    H228529   3.955   2.036  11.185  1.2514  2.0577 -0.3765
 2372TIP3   OH228530   6.488   4.190  11.519 -0.2229  0.4161  0.1252
 2372TIP3    H128531   6.404   4.181  11.564 -1.6331  1.9562 -2.0028
 2372TIP3    H228532   6.541   4.243  11.579 -0.1646 -1.7280  2.1332
 2373TIP3   OH228533   2.322   6.379  11.556 -0.1279 -0.2588  0.3825
 2373TIP3    H128534   2.374   6.349  11.482 -3.0149 -2.1792 -1.0789
 2373TIP3    H228535   2.366   6.342  11.633  1.4185 -0.5731 -0.6118
 2374TIP3   OH228536   5.939   5.618  12.129 -0.2509  0.2947 -0.5375
 2374TIP3    H128537   5.855   5.622  12.085 -0.9006 -1.8021  0.3868
 2374TIP3    H228538   5.958   5.708  12.153 -2.9799  0.6778  0.5515
 2375TIP3   OH228539   4.628   0.681  13.540  0.0799  0.3705  0.4044
 2375TIP3    H128540   4.621   0.709  13.631  0.9428  0.1518  0.5533
 2375TIP3    H228541   4.551   0.717  13.497  1.6091  3.9323  0.3236
 2376TIP3   OH228542   3.497   3.670  12.962 -0.3462 -0.6890  0.0488
 2376TIP3    H128543   3.482   3.761  12.934 -2.3579 -1.3487 -1.2464
 2376TIP3    H228544   3.541   3.678  13.046 -1.4300  1.5139  0.4719
 2377TIP3   OH228545   5.614   5.935  13.494  0.2705  0.0969 -0.0184
 2377TIP3    H128546   5.535   5.988  13.482 -0.1996 -0.3702  0.8731
 2377TIP3    H228547   5.582   5.844  13.491  0.9348 -0.1207 -0.6971
 2378TIP3   OH228548   0.211   2.691   1.740  0.2194  0.2367 -0.1054
 2378TIP3    H128549   0.261   2.772   1.744  3.3678 -1.5739 -0.0608
 2378TIP3    H228550   0.267   2.630   1.693 -1.6876 -2.1637  0.5147
 2379TIP3   OH228551   4.967   3.875  13.492  0.6819 -0.0173  0.0893
 2379TIP3    H128552   4.931   3.792  13.524 -0.3382  0.9355  1.5853
 2379TIP3    H228553   4.922   3.890  13.409 -0.7351  0.0410  0.8341
 2380TIP3   OH228554   3.737   5.535  10.617  0.7656  0.0133  0.2578
 2380TIP3    H128555   3.803   5.555  10.683 -0.8449  1.8599  1.4146
 2380TIP3    H228556   3.695   5.455  10.648  0.6554  0.3453  0.9776
 2381TIP3   OH228557   3.852   1.412  11.279 -0.0186  0.2380 -0.6690
 2381TIP3    H128558   3.881   1.469  11.350  0.9407 -0.1489 -0.7294
 2381TIP3    H228559   3.904   1.439  11.204  0.7583 -0.9754 -0.5942
 2382TIP3   OH228560   6.863   2.305  10.923 -0.0149  0.0317  0.2724
 2382TIP3    H128561   6.768   2.303  10.935 -0.0440  1.1120  0.2983
 2382TIP3    H228562   6.897   2.244  10.989 -0.5714  1.1563  1.6416
 2383TIP3   OH228563   2.915   2.037   4.114 -0.6131 -0.2149  0.0192
 2383TIP3    H128564   3.001   2.066   4.142 -1.3201  1.8411  0.2440
 2383TIP3    H228565   2.929   1.997   4.028  0.3679  1.4970 -0.6487
 2384TIP3   OH228566   4.927   2.189  11.925  0.0659  0.0119 -0.2145
 2384TIP3    H128567   4.944   2.265  11.981  1.3223 -0.0211 -0.5222
 2384TIP3    H228568   4.832   2.178  11.928  0.0805  0.1613  1.6986
 2385TIP3   OH228569   2.621   1.792  13.493  0.0102  0.6043 -0.5594
 2385TIP3    H128570   2.564   1.866  13.474  0.2244  0.8111 -0.4077
 2385TIP3    H228571   2.599   1.726  13.427 -0.5226  0.6146 -0.3977
 2386TIP3   OH228572   2.199   6.021  15.212  0.2069 -0.5265 -0.2390
 2386TIP3    H128573   2.139   6.024  15.286 -1.6793 -0.3053 -1.6975
 2386TIP3    H228574   2.281   6.057  15.246 -0.7726  0.1269  1.5652
 2387TIP3   OH228575   2.027   1.687   9.646 -0.1111  0.3159  0.2077
 2387TIP3    H128576   2.025   1.592   9.642  0.1869  0.3025  0.3221
 2387TIP3    H228577   2.120   1.709   9.649 -0.1647  0.6390 -0.3830
 2388TIP3   OH228578   6.462   2.038   9.759  0.2728 -0.7394  0.3721
 2388TIP3    H128579   6.386   2.086   9.793 -0.0735 -0.1137 -1.2109
 2388TIP3    H228580   6.451   2.040   9.664  2.5077 -0.2589  0.0813
 2389TIP3   OH228581   6.027   1.379  12.462  0.4193 -0.1805  0.1766
 2389TIP3    H128582   5.991   1.464  12.489 -0.4876 -0.3641 -0.4087
 2389TIP3    H228583   6.103   1.367  12.518 -0.1545  0.4527  1.1354
 2390TIP3   OH228584   2.462   0.160  15.396  0.6651 -0.2278  0.5058
 2390TIP3    H128585   2.474   0.133  15.305  0.9351  0.5064  0.3224
 2390TIP3    H228586   2.524   0.105  15.445  0.3354 -0.8033  0.2836
 2391TIP3   OH228587   3.115   4.016  11.333  0.6009 -0.2075  0.1240
 2391TIP3    H128588   3.204   4.001  11.362  0.3644 -2.5010 -0.1539
 2391TIP3    H228589   3.096   3.943  11.274 -0.3285  2.0130 -2.5828
 2392TIP3   OH228590   1.669   0.731  10.487  0.1406  0.5019 -0.3050
 2392TIP3    H128591   1.751   0.707  10.444  0.9716  0.5786  1.1571
 2392TIP3    H228592   1.608   0.661  10.464  0.4129  0.7603 -1.9202
 2393TIP3   OH228593   4.173   6.352  12.529 -0.1060  0.1606 -0.1350
 2393TIP3    H128594   4.096   6.310  12.568  1.7701 -1.6951  1.7934
 2393TIP3    H228595   4.210   6.285  12.471  0.1575  1.0052 -0.9803
 2394TIP3   OH228596   3.943   5.888  11.203 -0.8633 -0.1467 -0.0752
 2394TIP3    H128597   3.875   5.840  11.156 -1.9849  1.3908 -0.1066
 2394TIP3    H228598   3.900   5.915  11.285 -0.5284  1.4164 -0.3926
 2395TIP3   OH228599   2.743   1.328  10.954 -0.5244 -0.5819 -0.2759
 2395TIP3    H128600   2.793   1.388  11.009 -0.0879  0.5045 -1.7590
 2395TIP3    H228601   2.772   1.241  10.979  0.8942 -0.0335  0.0495
 2396TIP3   OH228602   2.672   3.445  11.233  0.3700  0.0878 -0.2761
 2396TIP3    H128603   2.680   3.521  11.290  1.3328 -0.5387  0.4425
 2396TIP3    H228604   2.581   3.448  11.203 -0.0920  0.5904  1.0757
 2397TIP3   OH228605   3.711   5.287  12.412 -0.1693  0.1259  0.0302
 2397TIP3    H128606   3.693   5.374  12.376  1.0611  0.6345  0.5991
 2397TIP3    H228607   3.634   5.266  12.465 -1.1535  0.1840 -1.3266
 2398TIP3   OH228608   3.409   5.355  12.505  0.6770  0.0177  0.0864
 2398TIP3    H128609   3.325   5.392  12.478  0.4069  0.3977  1.3764
 2398TIP3    H228610   3.461   5.430  12.533  0.5717 -0.4218  1.5423
 2399TIP3   OH228611   6.079   0.577   9.862  0.3830  0.1497 -0.7573
 2399TIP3    H128612   6.088   0.648   9.798 -0.9694  2.0401  0.9996
 2399TIP3    H228613   5.985   0.557   9.863 -0.0734  1.7740  2.0857
 2400TIP3   OH228614   6.121   6.569   0.014  0.0187  0.1464 -0.0469
 2400TIP3    H128615   6.193   6.507  -0.002 -0.1904 -0.0850 -0.0900
 2400TIP3    H228616   6.042   6.515   0.009 -0.1955  0.5009 -0.5388
 2401TIP3   OH228617   0.855   1.378  12.348 -0.6380 -0.0634 -0.4449
 2401TIP3    H128618   0.806   1.461  12.342  0.2908  0.4185 -1.7159
 2401TIP3    H228619   0.905   1.386  12.429 -1.1861  0.2542 -0.1268
 2402TIP3   OH228620   2.198   4.289  11.874  0.1214  0.0213 -0.5956
 2402TIP3    H128621   2.241   4.319  11.794  2.4002 -1.2550  0.0814
 2402TIP3    H228622   2.257   4.312  11.945  0.3919 -2.8730  0.2677
 2403TIP3   OH228623   1.254   6.239  12.236 -0.2683  0.3666  0.3765
 2403TIP3    H128624   1.346   6.253  12.215 -0.3379  0.0542 -0.1445
 2403TIP3    H228625   1.208   6.312  12.194 -0.5272 -0.8219 -1.5448
 2404TIP3   OH228626   3.699   1.997  13.317  0.2667 -0.1311 -0.2993
 2404TIP3    H128627   3.673   2.088  13.306  1.7943  0.6691  1.9803
 2404TIP3    H228628   3.666   1.972  13.404  0.0881 -1.6807 -0.7755
 2405TIP3   OH228629   5.016   5.783  10.906  0.0989 -0.1909  0.2917
 2405TIP3    H128630   5.040   5.706  10.957  0.2582 -1.2419 -1.2943
 2405TIP3    H228631   5.048   5.765  10.818 -2.7254  0.1846 -0.9428
 2406TIP3   OH228632   5.682   0.665  14.865  0.2331 -0.2341  0.7320
 2406TIP3    H128633   5.716   0.754  14.858 -0.7935  0.0428 -1.7676
 2406TIP3    H228634   5.653   0.643  14.776  0.6743 -3.1699  1.2120
 2407TIP3   OH228635   3.436   3.096  15.185 -0.0462  0.0085 -0.4865
 2407TIP3    H128636   3.361   3.051  15.148  0.0792 -1.3084  0.7825
 2407TIP3    H228637   3.400   3.150  15.255  0.0102  0.5875 -0.8988
 2408TIP3   OH228638   0.259   0.599  12.277 -0.0332  0.2339 -0.1772
 2408TIP3    H128639   0.277   0.611  12.184  2.2608  0.5994  0.2531
 2408TIP3    H228640   0.214   0.679  12.303  0.2314  0.5843 -0.7709
 2409TIP3   OH228641   1.030   3.806  12.086 -0.3276  0.0065  0.0555
 2409TIP3    H128642   1.097   3.797  12.018 -0.7933  0.1863 -0.4384
 2409TIP3    H228643   0.962   3.860  12.045 -0.7342 -0.1030  0.5758
 2410TIP3   OH228644   5.493   2.985  14.151 -0.2173 -0.1945 -0.0556
 2410TIP3    H128645   5.475   3.079  14.149 -0.0393 -0.1753 -0.8753
 2410TIP3    H228646   5.462   2.957  14.237 -2.2301  0.2241 -0.6023
 2411TIP3   OH228647   3.926   0.953  11.806  0.1213  0.0357 -0.4748
 2411TIP3    H128648   3.933   1.001  11.888 -0.8084 -0.5457 -0.0329
 2411TIP3    H228649   3.971   1.007  11.742  0.2984  0.8106  0.2900
 2412TIP3   OH228650   0.965   7.083  13.277  0.1117  0.2979 -0.1192
 2412TIP3    H128651   0.973   7.044  13.364  3.3551 -1.5500 -1.0881
 2412TIP3    H228652   0.977   7.177  13.291 -1.7300  0.3327  1.6056
 2413TIP3   OH228653   0.032   2.300  11.620 -0.2244 -0.5614  0.3674
 2413TIP3    H128654   0.110   2.330  11.667  1.5027 -0.3707 -2.3346
 2413TIP3    H228655  -0.002   2.379  11.578 -0.2670 -1.0538 -0.5681
 2414TIP3   OH228656   6.051   4.169   9.736  0.1035  0.1300 -0.1583
 2414TIP3    H128657   6.065   4.101   9.802 -0.8688  0.3076  0.2449
 2414TIP3    H228658   6.138   4.182   9.696  1.2587  1.5767  2.5460
 2415TIP3   OH228659   0.287   6.032  13.435 -0.0184 -0.2293  0.1665
 2415TIP3    H128660   0.244   6.021  13.350  1.8315 -0.0256 -0.8452
 2415TIP3    H228661   0.255   6.116  13.468 -0.2875 -0.0185 -0.6193
 2416TIP3   OH228662   1.520   5.510   9.746  0.6628  0.2851 -0.2740
 2416TIP3    H128663   1.611   5.491   9.769  0.0897  0.0857  2.1329
 2416TIP3    H228664   1.524   5.592   9.697  2.1448  0.2334 -0.2751
 2417TIP3   OH228665   2.440   1.004   1.135 -0.0367  0.1284  0.3642
 2417TIP3    H128666   2.369   0.943   1.158 -0.9155  0.7154 -0.6616
 2417TIP3    H228667   2.401   1.062   1.069  1.8365 -0.4516 -1.3625
 2418TIP3   OH228668   1.889   5.117  13.855 -0.2034  0.0672  0.4438
 2418TIP3    H128669   1.820   5.066  13.814  0.7408 -0.7248 -0.2075
 2418TIP3    H228670   1.957   5.125  13.788  0.0444  1.4611  0.8140
 2419TIP3   OH228671   2.530   3.772  13.197  0.5079 -0.1096  0.5303
 2419TIP3    H128672   2.540   3.713  13.123  0.6954 -0.6336  0.9682
 2419TIP3    H228673   2.598   3.746  13.259  0.4188  0.3849  0.8477
 2420TIP3   OH228674   2.456   3.283  11.020 -0.1253  0.2716  0.4620
 2420TIP3    H128675   2.503   3.320  10.945 -0.4961  0.1374  0.1590
 2420TIP3    H228676   2.405   3.357  11.054  0.0466  0.3339  0.5875
 2421TIP3   OH228677   0.326   1.508   0.353  0.1221 -0.6979  0.2251
 2421TIP3    H128678   0.234   1.493   0.375 -0.0063  0.4186  0.5290
 2421TIP3    H228679   0.339   1.462   0.271 -1.0949  0.2766 -0.5470
 2422TIP3   OH228680   5.533   1.013  12.123  0.0233  0.5168  0.4629
 2422TIP3    H128681   5.513   1.104  12.144  1.0713  0.5040  1.6127
 2422TIP3    H228682   5.627   1.013  12.103 -0.3343  0.0045 -1.5026
 2423TIP3   OH228683   6.766   3.439  15.462 -0.1256 -0.3438  0.4505
 2423TIP3    H128684   6.723   3.490  15.530 -1.1277  0.7898 -0.9839
 2423TIP3    H228685   6.695   3.395  15.416  0.3720  0.1297 -0.8290
 2424TIP3   OH228686   4.471   2.341  11.020  0.3396  0.1567  0.3704
 2424TIP3    H128687   4.520   2.263  10.994 -0.5262  0.1103 -1.2983
 2424TIP3    H228688   4.464   2.392  10.939 -0.7312  1.0513  1.0083
 2425TIP3   OH228689   0.127   1.687   1.338  0.0592 -0.1492  0.0286
 2425TIP3    H128690   0.053   1.744   1.360 -1.1345 -0.7410 -2.0961
 2425TIP3    H228691   0.197   1.747   1.312 -0.2985  0.4032  0.3278
 2426TIP3   OH228692   6.382   2.219   1.396  0.1480 -0.2279  0.2106
 2426TIP3    H128693   6.373   2.283   1.467  2.1155  0.5557 -0.1721
 2426TIP3    H228694   6.433   2.265   1.329  1.1689 -2.0188 -0.2963
 2427TIP3   OH228695   4.393   0.388  11.980 -0.4242 -0.2902  0.2441
 2427TIP3    H128696   4.388   0.310  12.035 -1.4662 -0.3883  0.0338
 2427TIP3    H228697   4.443   0.451  12.032  2.8774 -1.9680 -0.6803
 2428TIP3   OH228698   0.781   1.117  12.063  1.0626 -0.3204  0.3174
 2428TIP3    H128699   0.860   1.157  12.027  0.8663 -0.3991 -0.2078
 2428TIP3    H228700   0.731   1.088  11.986 -1.2085  2.9196  0.3586
 2429TIP3   OH228701   5.801   1.775  11.112 -0.4477  0.0143  0.0409
 2429TIP3    H128702   5.892   1.781  11.082 -0.2248 -1.3507  0.3993
 2429TIP3    H228703   5.758   1.720  11.046 -1.0747  0.8097 -0.2328
 2430TIP3   OH228704   1.260   1.443   2.338 -0.1479 -0.4569  0.0397
 2430TIP3    H128705   1.181   1.430   2.285 -0.0076 -1.3199  0.0357
 2430TIP3    H228706   1.226   1.456   2.427 -0.3915  1.1344 -0.2432
 2431TIP3   OH228707   3.496   0.810  13.731 -0.0772  0.0217  0.1834
 2431TIP3    H128708   3.499   0.730  13.784 -0.2035  0.6857  1.2222
 2431TIP3    H228709   3.422   0.859  13.766 -0.1700  0.4802 -0.6280
 2432TIP3   OH228710   6.581   2.051  11.116 -0.1797 -0.2309  0.9773
 2432TIP3    H128711   6.588   2.012  11.029 -1.8232 -0.2629  0.8312
 2432TIP3    H228712   6.596   1.978  11.176 -0.2941 -0.4746  0.7109
 2433TIP3   OH228713   0.973   1.900  10.934  0.6137 -0.1561 -0.1869
 2433TIP3    H128714   1.049   1.892  10.991  0.3819 -1.3166 -0.0300
 2433TIP3    H228715   0.998   1.854  10.854  0.6305  0.7599 -0.7310
 2434TIP3   OH228716   3.182   4.308  14.917 -0.4667  0.6640  0.3044
 2434TIP3    H128717   3.266   4.273  14.948  0.7598  1.5395 -1.8048
 2434TIP3    H228718   3.203   4.354  14.836 -3.0204  0.8486 -0.3608
 2435TIP3   OH228719   3.622   6.442  14.620  0.0823  0.1961 -0.1082
 2435TIP3    H128720   3.674   6.395  14.685 -1.2312 -0.9925  0.1145
 2435TIP3    H228721   3.686   6.470  14.554  1.2896  0.6101  1.1937
 2436TIP3   OH228722   5.635   3.532  13.512 -0.4090  0.4773  0.3084
 2436TIP3    H128723   5.706   3.530  13.577  0.8351  1.2436 -0.9624
 2436TIP3    H228724   5.675   3.495  13.433 -1.5961  0.4372 -0.2893
 2437TIP3   OH228725   2.287   6.670  14.324  0.3291 -0.1447  0.3926
 2437TIP3    H128726   2.322   6.737  14.265  0.1651  0.8804  1.4292
 2437TIP3    H228727   2.214   6.631  14.276 -1.0718  2.0325  0.6245
 2438TIP3   OH228728   5.298   3.375   1.277  0.4991  1.0147 -0.4909
 2438TIP3    H128729   5.226   3.388   1.216 -1.7582  0.0312  1.7598
 2438TIP3    H228730   5.373   3.353   1.222 -1.4980 -0.3066 -2.8747
 2439TIP3   OH228731   3.349   5.558  12.077  0.6033  0.5085 -0.1212
 2439TIP3    H128732   3.346   5.650  12.049  2.1571  1.3871  2.2095
 2439TIP3    H228733   3.341   5.508  11.997 -1.2469  2.6344 -1.4006
 2440TIP3   OH228734   6.635   5.231   2.144 -0.5680 -0.0365  0.5471
 2440TIP3    H128735   6.629   5.258   2.052  2.9437  0.1418  0.2199
 2440TIP3    H228736   6.606   5.140   2.144 -0.4595 -0.0960 -0.8054
 2441TIP3   OH228737   0.705   2.214   1.197 -0.1677 -0.4805 -0.1203
 2441TIP3    H128738   0.644   2.201   1.270 -0.6643  1.7289 -0.0865
 2441TIP3    H228739   0.656   2.265   1.133  0.6622 -1.3525 -1.5035
 2442TIP3   OH228740   1.525   0.911  13.860 -0.3436 -0.0666 -0.1223
 2442TIP3    H128741   1.533   0.883  13.769  1.2181 -1.0671  0.2808
 2442TIP3    H228742   1.606   0.959  13.878  0.8553 -2.4920  1.5413
 2443TIP3   OH228743   4.947   1.817  11.087  0.3694 -0.1070 -0.0491
 2443TIP3    H128744   4.920   1.899  11.046  0.6905  0.1099  0.1619
 2443TIP3    H228745   4.909   1.749  11.033  2.1346  0.1349 -1.6812
 2444TIP3   OH228746   1.029   6.878   0.894 -0.5411  0.0021  0.2850
 2444TIP3    H128747   0.985   6.801   0.858  0.6602 -0.6839  0.2281
 2444TIP3    H228748   0.980   6.898   0.973 -0.9339 -0.7775  0.2525
 2445TIP3   OH228749   4.092   5.901   2.047  0.0084  0.6239 -0.2302
 2445TIP3    H128750   4.035   5.969   2.085 -0.7172 -0.1200  0.0566
 2445TIP3    H228751   4.044   5.870   1.970  1.2134  1.7306 -1.4844
 2446TIP3   OH228752   2.696   5.845  10.509  0.9317 -0.1135 -0.4313
 2446TIP3    H128753   2.767   5.908  10.497  1.1600 -0.6521 -2.1464
 2446TIP3    H228754   2.622   5.885  10.463  0.1028  0.3846  1.2299
 2447TIP3   OH228755   1.073   1.516   0.385  0.4156  0.0403  0.3508
 2447TIP3    H128756   1.059   1.580   0.314 -1.7259  0.7452  1.3228
 2447TIP3    H228757   1.029   1.437   0.354  0.0919  0.1256  0.5936
 2448TIP3   OH228758   3.302   4.572  13.862  0.2185  0.1979 -1.1319
 2448TIP3    H128759   3.395   4.569  13.882 -0.2305 -0.5097  1.2018
 2448TIP3    H228760   3.279   4.665  13.866  0.2161  0.1686  1.9268
 2449TIP3   OH228761   5.068   7.080  13.077  0.8784 -0.2418 -0.0928
 2449TIP3    H128762   5.053   7.101  12.985  0.6401  0.6043  0.1308
 2449TIP3    H228763   5.050   7.162  13.123  0.6882 -0.7469  0.7372
 2450TIP3   OH228764   1.742   5.191  13.368  0.1378 -0.3441 -0.5215
 2450TIP3    H128765   1.766   5.242  13.291 -2.2786  0.7250 -0.6307
 2450TIP3    H228766   1.699   5.113  13.332  1.8235 -1.4468 -0.2810
 2451TIP3   OH228767   6.697   4.479  15.233 -0.4543  0.1917 -0.6875
 2451TIP3    H128768   6.696   4.404  15.175 -0.3734 -0.4033  0.0645
 2451TIP3    H228769   6.622   4.466  15.292  0.2492  0.0722  0.2119
 2452TIP3   OH228770   0.553   0.921   9.604  0.5131 -0.5287 -0.4279
 2452TIP3    H128771   0.481   0.867   9.638  0.2247 -1.6193 -2.5662
 2452TIP3    H228772   0.517   0.959   9.523  1.0452  2.1650  0.5087
 2453TIP3   OH228773   5.821   3.782  12.398  0.0375 -0.4488 -0.5161
 2453TIP3    H128774   5.838   3.761  12.490 -0.3188 -0.6794 -0.5002
 2453TIP3    H228775   5.891   3.738  12.350  1.3312  1.2009 -0.2360
 2454TIP3   OH228776   1.943   1.134   0.530 -0.2889  0.2078 -0.1007
 2454TIP3    H128777   1.908   1.045   0.530 -1.2615  0.5670 -0.9532
 2454TIP3    H228778   2.035   1.123   0.553 -0.3505 -1.0362 -0.3511
 2455TIP3   OH228779   6.615   1.708  13.919 -0.4382 -0.0631 -0.1988
 2455TIP3    H128780   6.530   1.741  13.947 -0.2539 -0.7232  1.2001
 2455TIP3    H228781   6.638   1.763  13.844 -0.4464  2.5051  1.5770
 2456TIP3   OH228782   4.082   5.858  10.625 -0.1249 -0.0995  0.2242
 2456TIP3    H128783   4.095   5.866  10.531 -3.0555 -1.5587 -0.4074
 2456TIP3    H228784   4.040   5.773  10.637  2.1978 -1.0295  3.1583
 2457TIP3   OH228785   4.313   4.677  11.831  0.0471 -0.3728 -0.0987
 2457TIP3    H128786   4.347   4.588  11.820  1.6399  0.1744  0.0814
 2457TIP3    H228787   4.391   4.732  11.827 -1.0325  1.1330 -1.3695
 2458TIP3   OH228788   0.004   2.257  12.478  0.0469 -0.4891  0.6476
 2458TIP3    H128789  -0.065   2.318  12.452  0.6723  0.1035  0.3464
 2458TIP3    H228790  -0.041   2.188  12.526 -0.9807 -1.0149 -1.0330
 2459TIP3   OH228791   4.222   1.513  12.956  0.4835  0.4469 -0.1665
 2459TIP3    H128792   4.151   1.564  12.996 -0.5213 -1.0162 -0.0120
 2459TIP3    H228793   4.241   1.445  13.020 -0.4629 -1.3459 -1.7168
 2460TIP3   OH228794   6.053   4.062  15.122 -0.1851  0.0403 -0.3072
 2460TIP3    H128795   5.985   4.036  15.183 -0.7599  2.6363  0.3129
 2460TIP3    H228796   6.124   4.095  15.177  1.5929 -2.4203 -0.9490
 2461TIP3   OH228797   0.778   0.824  11.165  0.5546 -0.0360  0.3559
 2461TIP3    H128798   0.689   0.800  11.189  0.3193  0.4360 -0.0241
 2461TIP3    H228799   0.772   0.917  11.141  0.3901 -0.7963 -3.1810
 2462TIP3   OH228800   6.715   0.078  14.347  0.7920 -0.4652 -0.0314
 2462TIP3    H128801   6.759   0.163  14.348  1.6917 -0.8962  2.3330
 2462TIP3    H228802   6.636   0.091  14.401  0.4636 -0.9107 -0.3950
 2463TIP3   OH228803   1.599   5.033  14.280  0.1445 -0.4580 -0.0262
 2463TIP3    H128804   1.520   4.986  14.309 -1.9478  0.7296 -3.2522
 2463TIP3    H228805   1.630   4.984  14.204  0.6762  0.8008 -0.6520
 2464TIP3   OH228806   3.674   3.171  12.868 -0.2072 -1.2202  0.5123
 2464TIP3    H128807   3.739   3.190  12.936  0.1914  0.1529 -0.1982
 2464TIP3    H228808   3.604   3.234  12.883  0.0382 -0.6771 -0.5208
 2465TIP3   OH228809   3.638   1.292  14.313  0.0570  0.1432  0.2936
 2465TIP3    H128810   3.710   1.346  14.346  1.2590 -1.4185  0.3197
 2465TIP3    H228811   3.605   1.246  14.390  1.2642 -1.6573 -0.1911
 2466TIP3   OH228812   2.952   5.947  13.856  0.5233 -0.4354 -0.3839
 2466TIP3    H128813   2.922   6.029  13.819 -0.0794 -0.2690  0.4436
 2466TIP3    H228814   3.024   5.919  13.799 -0.9644 -0.6770 -2.2301
 2467TIP3   OH228815   4.417   2.211  13.240 -0.0675  0.4134 -0.1636
 2467TIP3    H128816   4.454   2.124  13.225  0.0709  0.6189 -1.0591
 2467TIP3    H228817   4.465   2.245  13.316 -0.1879 -0.3206  0.2515
 2468TIP3   OH228818   6.119   6.069  11.592 -0.1729  0.2758 -0.1894
 2468TIP3    H128819   6.067   6.034  11.665 -0.5596 -1.2205 -1.1390
 2468TIP3    H228820   6.132   5.994  11.533  1.2696  1.1253 -1.0200
 2469TIP3   OH228821   5.627   5.980  10.661  0.0997 -0.6994 -0.1989
 2469TIP3    H128822   5.591   6.047  10.603  1.2455  0.0542 -0.0477
 2469TIP3    H228823   5.722   5.984  10.648  0.3952 -0.4883  1.7527
 2470TIP3   OH228824   4.141   2.023  14.604  0.3044  0.1937 -0.4183
 2470TIP3    H128825   4.049   2.032  14.628  0.7122  0.2663  1.2024
 2470TIP3    H228826   4.146   2.061  14.516 -1.2824 -0.2325 -0.7275
 2471TIP3   OH228827   0.986   3.372   2.071  0.0997  0.0464  0.5583
 2471TIP3    H128828   0.953   3.426   2.000 -0.4898  0.5425  1.1907
 2471TIP3    H228829   0.907   3.338   2.114  0.4653 -1.2813  0.2002
 2472TIP3   OH228830   6.045   2.868  15.313 -0.1316 -0.1539 -0.2343
 2472TIP3    H128831   6.112   2.874  15.382 -1.2046  0.8826  0.7630
 2472TIP3    H228832   5.979   2.810  15.350 -0.5979  0.2045 -0.4992
 2473TIP3   OH228833   5.284   3.629  10.657  0.1522  0.2910 -0.2730
 2473TIP3    H128834   5.204   3.602  10.610  0.7625 -0.7896 -0.7434
 2473TIP3    H228835   5.345   3.655  10.588  0.7745 -0.5092 -0.0413
 2474TIP3   OH228836   3.064   6.271  11.369 -0.0390  0.5360 -0.2021
 2474TIP3    H128837   2.994   6.211  11.395 -0.0203  0.1351 -1.0339
 2474TIP3    H228838   3.120   6.279  11.447  0.3318 -1.0710 -0.2807
 2475TIP3   OH228839   1.219   1.256  13.391 -0.6363  0.0206  0.3716
 2475TIP3    H128840   1.230   1.239  13.485 -1.3025 -2.5405  0.0675
 2475TIP3    H228841   1.126   1.280  13.382 -0.3394  1.2701  0.4539
 2476TIP3   OH228842   4.530   1.191  13.746 -0.4787 -0.5783  0.5486
 2476TIP3    H128843   4.486   1.107  13.757  1.5072 -2.0456 -1.7636
 2476TIP3    H228844   4.464   1.247  13.705 -0.5322 -2.5713 -2.4339
 2477TIP3   OH228845   4.139   0.331  11.366  0.6092  0.0038  0.3029
 2477TIP3    H128846   4.106   0.290  11.286  0.7044 -0.0737  0.3042
 2477TIP3    H228847   4.080   0.405  11.380 -0.4277 -0.9188  1.0559
 2478TIP3   OH228848   6.616   4.427  10.976  0.2875 -0.4373  0.1835
 2478TIP3    H128849   6.697   4.478  10.968 -0.7923  1.9873  2.8095
 2478TIP3    H228850   6.636   4.359  11.040  0.8143 -1.2911 -0.8569
 2479TIP3   OH228851   0.122   1.863  11.947 -0.8347 -0.0407 -0.3645
 2479TIP3    H128852   0.067   1.785  11.947 -0.7382 -0.1558  1.4221
 2479TIP3    H228853   0.178   1.853  12.024 -0.8987  1.8278 -0.0149
 2480TIP3   OH228854   6.701   0.868  13.651 -0.2660 -0.1608 -0.0531
 2480TIP3    H128855   6.658   0.787  13.676 -1.0234  0.4257  0.6000
 2480TIP3    H228856   6.745   0.848  13.569 -1.8456 -0.7592 -0.7806
 2481TIP3   OH228857   4.068   1.073  13.112  0.4811 -0.3117 -0.2481
 2481TIP3    H128858   4.079   1.119  13.195  2.4040  0.4647 -0.8834
 2481TIP3    H228859   3.974   1.079  13.094 -0.0953 -1.0490  2.1330
 2482TIP3   OH228860   2.164   5.282  12.726  0.1386 -0.1250 -0.2077
 2482TIP3    H128861   2.094   5.237  12.775 -0.6349 -0.2213 -1.3533
 2482TIP3    H228862   2.118   5.352  12.679  1.1047  0.9397  0.3826
 2483TIP3   OH228863   4.851   4.496   2.611  0.2306  0.1745 -0.2081
 2483TIP3    H128864   4.813   4.408   2.609  0.9198 -0.1529  0.4815
 2483TIP3    H228865   4.872   4.515   2.520  0.5714 -0.6052 -0.3015
 2484TIP3   OH228866   2.012   1.747  13.782 -0.2675  0.0822 -0.5197
 2484TIP3    H128867   1.967   1.830  13.796 -1.0829 -0.3280 -0.6689
 2484TIP3    H228868   2.096   1.758  13.827 -0.6528  0.7262  0.0711
 2485TIP3   OH228869   2.252   0.200  12.057  0.8428  0.4717 -0.0321
 2485TIP3    H128870   2.334   0.164  12.092  1.6324  0.4216 -1.8223
 2485TIP3    H228871   2.208   0.124  12.019 -0.2547  0.4280  1.2808
 2486TIP3   OH228872   2.613   6.893  12.098 -1.0496 -0.1476  0.0002
 2486TIP3    H128873   2.614   6.973  12.045 -1.2109 -0.5680 -0.6505
 2486TIP3    H228874   2.524   6.859  12.090 -1.2331  0.0757  1.0019
 2487TIP3   OH228875   6.920   3.158   9.820  0.4980 -0.2985  0.1901
 2487TIP3    H128876   7.016   3.158   9.820  0.5093  0.3794  1.1791
 2487TIP3    H228877   6.896   3.073   9.856  0.7160 -0.6313 -0.4353
 2488TIP3   OH228878   2.445   5.438   3.111  0.3217  0.1223  0.5282
 2488TIP3    H128879   2.374   5.376   3.128 -1.4140  1.4320 -1.5158
 2488TIP3    H228880   2.430   5.509   3.173  1.0394 -0.4656  1.4044
 2489TIP3   OH228881   1.865   3.190  14.731 -0.0022  0.0118 -0.5346
 2489TIP3    H128882   1.887   3.282  14.717  0.1410 -0.1527 -1.4121
 2489TIP3    H228883   1.851   3.183  14.826  3.8353  0.0842  0.1683
 2490TIP3   OH228884   1.698   0.349  13.040  0.1286  0.6696  0.1995
 2490TIP3    H128885   1.751   0.270  13.048  2.2803  2.1403  1.6266
 2490TIP3    H228886   1.762   0.421  13.037 -1.7540  2.4368 -0.0349
 2491TIP3   OH228887   3.297   4.607  12.004 -0.4606 -0.3705  0.4352
 2491TIP3    H128888   3.278   4.519  12.037  0.1741 -0.4533  0.5930
 2491TIP3    H228889   3.387   4.601  11.970 -0.9501 -0.1783 -0.9464
 2492TIP3   OH228890   3.329   6.532  11.488  0.1321  0.5273 -0.0828
 2492TIP3    H128891   3.382   6.609  11.513  0.8428  0.2419 -0.6566
 2492TIP3    H228892   3.318   6.541  11.394  1.1261 -0.6126 -0.3310
 2493TIP3   OH228893   3.688   0.788   2.853 -0.0650 -0.1675 -0.0814
 2493TIP3    H128894   3.689   0.710   2.909  0.8518  0.5883  0.9960
 2493TIP3    H228895   3.743   0.765   2.778  0.8123 -0.3072  0.5953
 2494TIP3   OH228896   2.264   4.883  14.364  0.1699 -0.3837 -0.3509
 2494TIP3    H128897   2.321   4.958  14.383 -0.1166 -0.2197 -0.1144
 2494TIP3    H228898   2.270   4.871  14.269 -1.2733  1.1776 -0.6871
 2495TIP3   OH228899   0.956   2.943  15.519  0.3578 -0.3253 -0.0857
 2495TIP3    H128900   0.978   2.850  15.527  0.2832 -0.3463 -0.1252
 2495TIP3    H228901   0.971   2.963  15.426 -1.0590 -0.6643 -0.4188
 2496TIP3   OH228902   4.272   5.944   3.218  0.4682  0.2505 -0.3885
 2496TIP3    H128903   4.364   5.922   3.200  0.8265  1.3635 -0.0232
 2496TIP3    H228904   4.226   5.860   3.218  1.3095 -0.2345 -1.5975
 2497TIP3   OH228905   4.015   2.632  11.780 -0.0583  0.6465  0.0830
 2497TIP3    H128906   3.958   2.687  11.835 -2.4548 -2.1884  0.6851
 2497TIP3    H228907   3.961   2.556  11.759  2.8181 -1.1532 -1.3169
 2498TIP3   OH228908   0.300   1.891  15.512  0.4000 -0.6002 -0.0237
 2498TIP3    H128909   0.275   1.973  15.469  0.9175  0.1361  1.0420
 2498TIP3    H228910   0.237   1.827  15.478 -0.4380  0.3710 -0.3769
 2499TIP3   OH228911   4.664   2.601  15.627 -0.5568 -0.4076 -0.3756
 2499TIP3    H128912   4.635   2.532  15.687 -1.3304  0.6864  0.5251
 2499TIP3    H228913   4.716   2.660  15.681  1.0584 -0.8363 -1.3805
 2500TIP3   OH228914   0.807   6.438   9.490 -0.5747 -0.1907  0.1786
 2500TIP3    H128915   0.712   6.434   9.506 -0.4159 -1.2783  0.9896
 2500TIP3    H228916   0.841   6.359   9.533  0.7679  0.4926  0.4098
 2501TIP3   OH228917   2.691   2.137   0.733  0.1495  0.2889 -0.1680
 2501TIP3    H128918   2.727   2.206   0.677 -1.7285  1.5164  0.0746
 2501TIP3    H228919   2.676   2.179   0.818  1.1601 -1.0563  0.7251
 2502TIP3   OH228920   0.373   0.027  12.369  0.2550  0.3171 -0.4748
 2502TIP3    H128921   0.398  -0.053  12.417 -1.1491  0.4261  0.4983
 2502TIP3    H228922   0.278   0.022  12.364  0.1200  2.1028 -0.0821
 2503TIP3   OH228923   1.075   4.958   3.702 -0.0975  0.1247  0.3608
 2503TIP3    H128924   1.064   5.002   3.618  0.2510 -0.3838  0.0425
 2503TIP3    H228925   1.064   5.027   3.767 -2.0745  0.2230 -0.0290
 2504TIP3   OH228926   5.958   5.228  14.359  0.6304  0.3443  0.1709
 2504TIP3    H128927   5.953   5.192  14.448  0.3976  0.1550  0.0827
 2504TIP3    H228928   6.039   5.278  14.358  1.5342 -1.0863 -0.0479
 2505TIP3   OH228929   2.393   1.041   0.136 -0.2598 -0.2249 -0.3325
 2505TIP3    H128930   2.334   0.988   0.190  1.6607 -1.9238  0.2169
 2505TIP3    H228931   2.354   1.039   0.048 -0.7100 -1.7891 -0.1163
 2506TIP3   OH228932   5.457   0.964  14.303  0.0024 -0.0333  0.0051
 2506TIP3    H128933   5.512   1.013  14.364 -1.0774  0.8498  0.3023
 2506TIP3    H228934   5.372   0.958  14.347 -0.5843 -0.0257 -1.0809
 2507TIP3   OH228935   1.813   1.051  15.056  0.6369 -0.4206  0.1701
 2507TIP3    H128936   1.767   1.036  14.973 -1.4048  0.5250  1.0576
 2507TIP3    H228937   1.857   1.135  15.044 -1.3993  0.7799  0.6968
 2508TIP3   OH228938   6.282   2.027  10.038  0.4095 -0.2243 -0.1132
 2508TIP3    H128939   6.231   1.974   9.978 -0.8517 -1.5578  1.9953
 2508TIP3    H228940   6.365   1.980  10.047 -0.0326 -0.9171  0.4139
 2509TIP3   OH228941   0.851   2.898  13.379 -0.1465 -0.1064 -0.3815
 2509TIP3    H128942   0.915   2.961  13.411 -1.7322  1.0910  0.5993
 2509TIP3    H228943   0.869   2.818  13.429  0.4655  0.2605  0.0030
 2510TIP3   OH228944   1.148   5.397   9.662 -0.0149 -0.2455 -0.3206
 2510TIP3    H128945   1.060   5.360   9.653 -0.6967  1.4294 -0.7749
 2510TIP3    H228946   1.200   5.325   9.699 -1.0300 -1.9891 -2.0863
 2511TIP3   OH228947   0.326   1.865  10.530 -0.0163 -0.3271 -0.0188
 2511TIP3    H128948   0.413   1.871  10.570  0.5766  0.5577 -1.3233
 2511TIP3    H228949   0.279   1.941  10.563  0.4080  0.2958 -0.7872
 2512TIP3   OH228950   2.010   2.361  12.706 -0.7814 -0.6529  0.2070
 2512TIP3    H128951   2.054   2.442  12.731 -1.4307  0.4937 -2.1012
 2512TIP3    H228952   2.079   2.305  12.671 -0.5507 -0.5351  0.4692
 2513TIP3   OH228953   4.200   1.690  11.437  0.3802 -0.2028  0.1045
 2513TIP3    H128954   4.269   1.639  11.480  1.3885  0.4281 -0.7263
 2513TIP3    H228955   4.221   1.685  11.344 -0.7636 -0.0640 -0.1747
 2514TIP3   OH228956   2.891   6.363   1.650  0.0451 -0.3596 -0.4340
 2514TIP3    H128957   2.818   6.426   1.650  0.5094  0.1860 -0.9074
 2514TIP3    H228958   2.910   6.351   1.743  1.6138  2.2017 -0.3242
 2515TIP3   OH228959   4.847   4.293  11.850  0.1306  0.2991 -0.1094
 2515TIP3    H128960   4.832   4.386  11.832 -1.0243 -0.2931 -2.8898
 2515TIP3    H228961   4.893   4.261  11.772 -1.8178 -1.9312 -0.4567
 2516TIP3   OH228962   3.884   4.696   5.547  0.2532 -0.2931 -0.1851
 2516TIP3    H128963   3.875   4.756   5.473  0.6207 -0.7653 -0.6171
 2516TIP3    H228964   3.803   4.644   5.545 -0.7218  1.0786  1.0256
 2517TIP3   OH228965   1.899   5.247  11.420  0.1924 -0.2677 -0.4226
 2517TIP3    H128966   1.905   5.222  11.512 -0.1435  1.3267  0.0732
 2517TIP3    H228967   1.823   5.200  11.387  0.9256 -1.6526 -0.1800
 2518TIP3   OH228968   0.957   2.101   1.087  0.4796 -0.2868 -0.3261
 2518TIP3    H128969   0.923   2.014   1.064  1.1155 -0.7177  0.3137
 2518TIP3    H228970   0.888   2.141   1.140  1.1613 -1.4073  1.5146
 2519TIP3   OH228971   4.027   1.071   1.872 -0.7388 -0.0713 -0.2688
 2519TIP3    H128972   3.942   1.030   1.854 -0.2762 -1.4633  0.5248
 2519TIP3    H228973   4.007   1.142   1.933 -1.3088 -0.6939  0.3002
 2520TIP3   OH228974   4.659   1.734  14.493 -0.4795 -0.3319  0.2852
 2520TIP3    H128975   4.685   1.723  14.584  1.3696  0.1298 -0.1463
 2520TIP3    H228976   4.728   1.787  14.454 -1.5632  0.0281 -1.2438
 2521TIP3   OH228977   7.046   3.913  10.723  0.2899  0.1053 -0.4542
 2521TIP3    H128978   7.046   3.819  10.710  1.6065  0.3654 -2.7768
 2521TIP3    H228979   6.977   3.946  10.665  0.3379  0.6407 -0.2179
 2522TIP3   OH228980   5.686   0.766   4.667  0.7814  0.2616 -0.6191
 2522TIP3    H128981   5.777   0.783   4.690  1.0527 -1.5629 -0.2145
 2522TIP3    H228982   5.655   0.706   4.733 -0.7065  0.7527 -0.8301
 2523TIP3   OH228983   3.804   1.482  14.418 -0.2551  0.1292  0.5292
 2523TIP3    H128984   3.807   1.497  14.513 -1.3788  0.8669  0.4675
 2523TIP3    H228985   3.895   1.486  14.390  0.2033 -1.0770  1.7118
 2524TIP3   OH228986   7.112   6.414  10.805 -0.0940  0.3107  0.3701
 2524TIP3    H128987   7.120   6.354  10.731  0.6857 -0.6346  1.2026
 2524TIP3    H228988   7.089   6.358  10.879  1.1840  0.9573  1.2831
 2525TIP3   OH228989   6.128   2.990   1.919  0.5957  0.1872 -0.5890
 2525TIP3    H128990   6.084   3.073   1.902  0.1070 -0.0781 -0.6482
 2525TIP3    H228991   6.097   2.964   2.006  0.9512  0.1977 -0.4607
 2526TIP3   OH228992   6.522   4.557   5.052 -0.2484  0.1071 -0.5888
 2526TIP3    H128993   6.609   4.580   5.086  1.4514 -1.8770 -3.1740
 2526TIP3    H228994   6.510   4.465   5.076 -1.4548  0.2239 -0.6703
 2527TIP3   OH228995   4.648   4.351  14.087 -0.5105 -0.4621  0.1269
 2527TIP3    H128996   4.673   4.378  13.999 -0.2340 -0.7929  0.1046
 2527TIP3    H228997   4.730   4.349  14.136 -0.5100 -1.3927  0.0966
 2528TIP3   OH228998   4.197   3.753  12.818  0.7917 -0.0000 -0.0816
 2528TIP3    H128999   4.136   3.803  12.871  2.1920  1.6162  0.0735
 2528TIP3    H229000   4.250   3.819  12.773  2.1590 -1.3475 -0.5209
 2529TIP3   OH229001   2.030   3.230  11.259 -0.0909  0.2140 -0.2403
 2529TIP3    H129002   1.948   3.271  11.232 -0.8636 -0.0864  1.5171
 2529TIP3    H229003   2.016   3.136  11.245  0.2577  0.2233 -0.6762
 2530TIP3   OH229004   0.611   4.641  12.068 -0.3049  0.1797  0.0108
 2530TIP3    H129005   0.637   4.551  12.088 -0.5435 -0.1918 -1.3135
 2530TIP3    H229006   0.609   4.684  12.154  0.7770 -0.8051  0.5586
 2531TIP3   OH229007   6.120   0.607  11.515  0.6818 -0.1469  0.0460
 2531TIP3    H129008   6.056   0.548  11.556 -0.2558 -0.5871 -1.9210
 2531TIP3    H229009   6.083   0.694  11.526 -0.3508 -0.4027 -1.1047
 2532TIP3   OH229010   0.470   6.623   3.510  0.3843  0.0264 -0.1627
 2532TIP3    H129011   0.565   6.626   3.493  0.5591 -0.3669  0.7214
 2532TIP3    H229012   0.442   6.540   3.472  0.4171  0.0646 -0.2736
 2533TIP3   OH229013   4.615   4.602  12.070 -0.4436  0.0250  1.0114
 2533TIP3    H129014   4.639   4.676  12.127 -1.2427  0.8551  0.2889
 2533TIP3    H229015   4.686   4.597  12.006 -2.1712  2.6886 -1.3271
 2534TIP3   OH229016   5.514   4.528  10.994  0.1398  0.5840 -0.2034
 2534TIP3    H129017   5.521   4.455  11.056  1.4605  0.8606 -0.0038
 2534TIP3    H229018   5.551   4.493  10.912 -0.9865  0.4339 -0.6696
 2535TIP3   OH229019   1.787   0.195  10.199  0.0129  0.0843 -0.0805
 2535TIP3    H129020   1.754   0.281  10.176  2.5470  0.6552 -1.9423
 2535TIP3    H229021   1.806   0.152  10.116 -2.2464 -2.8209  0.7172
 2536TIP3   OH229022   3.073   3.946  13.599 -0.1102  0.5567 -0.1451
 2536TIP3    H129023   2.982   3.970  13.615  0.1403  0.5391  1.4356
 2536TIP3    H229024   3.069   3.884  13.526 -1.2498  1.2922 -0.7453
 2537TIP3   OH229025   7.066   6.013  12.115  0.5146  0.1236  0.1712
 2537TIP3    H129026   7.014   6.088  12.142  0.3231  0.6164 -1.4489
 2537TIP3    H229027   7.090   5.970  12.197 -1.3131  0.6304  1.0350
 2538TIP3   OH229028   1.814   4.109  15.037  0.0935  0.1080  0.0415
 2538TIP3    H129029   1.770   4.024  15.044  0.2866  0.0190  0.2148
 2538TIP3    H229030   1.867   4.115  15.117  0.0702  0.3990  0.0346
 2539TIP3   OH229031   6.328   5.363  10.803 -0.2257  0.0629 -0.5278
 2539TIP3    H129032   6.345   5.361  10.897  1.2119 -0.1176 -0.7669
 2539TIP3    H229033   6.232   5.361  10.796 -0.3459 -0.4858  0.9029
 2540TIP3   OH229034   6.627   6.812  10.483  0.7328  0.1710  0.3647
 2540TIP3    H129035   6.710   6.799  10.436  0.6190  0.8327 -0.0297
 2540TIP3    H229036   6.645   6.882  10.545  0.9030 -0.7578  1.3887
 2541TIP3   OH229037   5.361   3.350  12.528  1.0178 -0.5592  0.1757
 2541TIP3    H129038   5.270   3.371  12.508  0.6885 -0.6141  1.5245
 2541TIP3    H229039   5.402   3.336  12.443 -0.0865  0.0668 -0.4738
 2542TIP3   OH229040   7.131   1.727   2.136 -0.9212 -0.4175  0.1940
 2542TIP3    H129041   7.077   1.801   2.163 -0.4124 -0.1601  0.5228
 2542TIP3    H229042   7.153   1.745   2.045 -1.0216 -0.2968  0.1938
 2543TIP3   OH229043   4.049   6.330  15.315 -0.8248  0.3796  0.0903
 2543TIP3    H129044   4.050   6.235  15.304 -1.2513  0.3681  0.1329
 2543TIP3    H229045   4.137   6.351  15.346 -1.0468 -0.1297  1.1318
 2544TIP3   OH229046   4.746   2.915   5.235 -0.6106 -0.4105 -0.2850
 2544TIP3    H129047   4.676   2.866   5.277 -0.8506 -1.4169 -1.7970
 2544TIP3    H229048   4.817   2.851   5.226  0.4586  0.5321  1.0224
 2545TIP3   OH229049   1.142   2.858  12.763  0.1972  0.8103 -0.0331
 2545TIP3    H129050   1.217   2.801  12.747 -0.3922 -0.5981  1.9070
 2545TIP3    H229051   1.093   2.857  12.681  1.5515  0.6442 -0.8732
 2546TIP3   OH229052   0.237   0.238  15.272 -0.0573  0.3352  0.0263
 2546TIP3    H129053   0.208   0.316  15.224 -0.5517  0.4548  0.5023
 2546TIP3    H229054   0.285   0.274  15.347 -0.3592  0.1823  0.2930
 2547TIP3   OH229055   5.528   0.682  12.672 -0.2161  0.6249 -0.4515
 2547TIP3    H129056   5.544   0.656  12.581 -2.1936  1.0303 -0.9643
 2547TIP3    H229057   5.610   0.663  12.717  1.9187  3.1544 -2.8811
 2548TIP3   OH229058   0.608   0.509   0.417  0.1414  0.0209  0.8363
 2548TIP3    H129059   0.636   0.435   0.362 -0.1248  1.7124 -1.7601
 2548TIP3    H229060   0.531   0.543   0.372  0.6238  2.2580  1.6043
 2549TIP3   OH229061   5.981   6.818  13.024  0.5869 -0.2408  0.5100
 2549TIP3    H129062   5.932   6.828  13.105 -2.9422 -0.9945 -1.3429
 2549TIP3    H229063   5.967   6.900  12.977  0.1396 -0.8984 -0.5273
 2550TIP3   OH229064   6.350   6.707   2.619 -1.0788 -0.1784 -0.2374
 2550TIP3    H129065   6.315   6.796   2.620  0.9329  0.6633  0.8778
 2550TIP3    H229066   6.426   6.712   2.561  0.5954 -0.4627  1.8023
 2551TIP3   OH229067   6.019   0.048  10.783 -0.4401  0.1455  0.1969
 2551TIP3    H129068   6.113   0.046  10.766 -0.6994  0.6991 -1.4263
 2551TIP3    H229069   5.978   0.018  10.702 -1.6828  0.1421  0.7941
 2552TIP3   OH229070   1.608   1.153   0.391 -0.2268  0.1725 -0.0531
 2552TIP3    H129071   1.628   1.154   0.297 -0.0814 -0.0681 -0.0273
 2552TIP3    H229072   1.652   1.074   0.423  1.2516  1.1955  0.5570
 2553TIP3   OH229073   7.080   3.850  11.001  0.0612  0.2670 -0.5483
 2553TIP3    H129074   7.161   3.799  11.010 -0.2420 -0.1451 -0.0702
 2553TIP3    H229075   7.080   3.880  10.911  0.3431 -0.4319 -0.7867
 2554TIP3   OH229076   3.125   3.788  10.897 -0.5385 -0.1443  0.0132
 2554TIP3    H129077   3.157   3.765  10.810  2.1432  0.4497  0.7567
 2554TIP3    H229078   3.154   3.878  10.911 -2.1561  0.2655  1.0248
 2555TIP3   OH229079   1.293   6.695   4.871  0.6252 -0.5211 -0.5871
 2555TIP3    H129080   1.314   6.756   4.942  0.8563  0.2072 -1.2720
 2555TIP3    H229081   1.264   6.750   4.799 -0.7268 -1.3191 -0.6963
 2556TIP3   OH229082   6.195   0.170  14.000 -0.6947 -0.6217  0.0229
 2556TIP3    H129083   6.163   0.143  13.913 -1.1328  2.0811 -0.7312
 2556TIP3    H229084   6.220   0.262  13.989  0.0157 -0.4405  2.5901
 2557TIP3   OH229085   0.659   0.915   9.933  0.2664 -0.4083  0.1566
 2557TIP3    H129086   0.741   0.900   9.979 -0.9499 -1.4332  2.1490
 2557TIP3    H229087   0.675   0.992   9.879  2.4590 -0.4909  0.6201
 2558TIP3   OH229088   6.224   4.898  13.652  0.4016 -0.4506  0.0550
 2558TIP3    H129089   6.195   4.892  13.743  0.4148 -0.5361  0.0538
 2558TIP3    H229090   6.236   4.991  13.637  0.1217 -0.4125  0.0548
 2559TIP3   OH229091   4.594   4.661  12.669 -0.2548  0.2119 -0.1340
 2559TIP3    H129092   4.589   4.715  12.748 -0.9160 -0.6942  0.4645
 2559TIP3    H229093   4.626   4.576  12.699  0.0107  0.0148 -0.9348
 2560TIP3   OH229094   2.779   0.613   4.556 -0.3139 -0.0924  0.9007
 2560TIP3    H129095   2.794   0.556   4.481 -0.2458  0.3851  0.5471
 2560TIP3    H229096   2.685   0.633   4.553 -0.5090 -0.8544  1.5134
 2561TIP3   OH229097   6.988   1.520  10.420  0.4711  0.4717  0.4565
 2561TIP3    H129098   7.012   1.529  10.328 -0.7723 -1.5301 -0.1154
 2561TIP3    H229099   6.954   1.431  10.428 -1.2924  1.2345  2.4250
 2562TIP3   OH229100   7.046   0.050  10.928 -0.5555 -0.1538 -0.4503
 2562TIP3    H129101   7.076   0.008  11.008 -0.7733 -0.0146 -0.2955
 2562TIP3    H229102   7.126   0.060  10.875 -0.7654 -2.6711 -1.4017
 2563TIP3   OH229103   4.420   0.666  10.543  0.1206 -0.1663 -0.0790
 2563TIP3    H129104   4.512   0.691  10.533 -0.0988  0.3251 -1.0741
 2563TIP3    H229105   4.396   0.699  10.629  0.8714 -0.2773  0.1842
 2564TIP3   OH229106   0.999   1.727  12.002  0.2750 -0.0680  0.0515
 2564TIP3    H129107   0.980   1.647  12.050  1.7324 -0.6666 -0.3005
 2564TIP3    H229108   1.068   1.702  11.940 -2.2936  0.3111 -3.2652
 2565TIP3   OH229109   2.523   4.319  15.029  0.3525  0.4555  0.0438
 2565TIP3    H129110   2.480   4.246  14.986  0.5904 -0.1047  0.7302
 2565TIP3    H229111   2.466   4.394  15.013 -0.4740 -0.1117  0.2674
 2566TIP3   OH229112   7.078   4.786  12.139  0.1618  0.3985  0.2025
 2566TIP3    H129113   7.019   4.725  12.183  1.1472 -0.0531  0.9426
 2566TIP3    H229114   7.098   4.852  12.205 -0.1320  0.9833 -0.2898
 2567TIP3   OH229115   0.365   6.907   2.030  0.2292  0.6277  0.3752
 2567TIP3    H129116   0.417   6.826   2.024  0.0536  0.6007 -1.1572
 2567TIP3    H229117   0.357   6.923   2.124 -0.5338 -1.6664  0.7884
 2568TIP3   OH229118   4.233   4.038  15.267  0.3181  0.2912  0.4025
 2568TIP3    H129119   4.210   4.032  15.360 -0.0093 -1.0364  0.2610
 2568TIP3    H229120   4.245   3.947  15.240 -1.3136  0.5145 -1.2745
 2569TIP3   OH229121   7.117   5.292   3.063  0.4320  0.4203  0.0461
 2569TIP3    H129122   7.173   5.364   3.033 -0.4593  1.6311  1.1522
 2569TIP3    H229123   7.120   5.297   3.159 -0.7950 -0.0886  0.1351
 2570TIP3   OH229124   4.456   1.999   3.240 -0.2175 -0.7448  0.1757
 2570TIP3    H129125   4.458   1.957   3.154 -0.8337  1.1340 -0.8105
 2570TIP3    H229126   4.377   2.052   3.240  1.8883  2.7376  0.1330
 2571TIP3   OH229127   2.789   4.596   3.099 -0.6054 -0.1032  0.7845
 2571TIP3    H129128   2.874   4.621   3.137 -1.0319  2.1682  0.4111
 2571TIP3    H229129   2.797   4.619   3.006 -2.3488  2.4601  1.1667
 2572TIP3   OH229130   4.023   5.543  12.306  0.3466  0.2124  0.4271
 2572TIP3    H129131   3.967   5.615  12.336 -0.9013 -1.1836  1.5727
 2572TIP3    H229132   4.111   5.568  12.334 -0.3640  0.3569  2.6807
 2573TIP3   OH229133   4.844   6.360   4.864 -0.2375  0.1690 -0.0267
 2573TIP3    H129134   4.868   6.320   4.780  0.8060  2.6256 -1.0024
 2573TIP3    H229135   4.809   6.288   4.916  0.0787 -1.6512 -2.1837
 2574TIP3   OH229136   1.993   1.387  13.027  0.2690 -0.1230 -0.1270
 2574TIP3    H129137   2.065   1.417  13.083  0.8630 -1.7165  0.0121
 2574TIP3    H229138   1.924   1.452  13.040  0.8513  0.2202  1.5062
 2575TIP3   OH229139   2.622   4.295  10.253  0.5591  0.0270 -0.5792
 2575TIP3    H129140   2.534   4.304  10.289  0.0568 -2.4657 -1.0414
 2575TIP3    H229141   2.617   4.334  10.166 -0.0024  0.1239 -0.5049
 2576TIP3   OH229142   1.481   4.107  15.096  0.0810  0.5372  0.1090
 2576TIP3    H129143   1.489   4.037  15.031 -1.3393  0.3000  0.1377
 2576TIP3    H229144   1.565   4.153  15.094  1.8911 -2.3871  1.5474
 2577TIP3   OH229145   4.146   4.838  14.398  0.0582 -0.2282  0.7338
 2577TIP3    H129146   4.081   4.846  14.467 -0.2668  0.1021  0.3979
 2577TIP3    H229147   4.122   4.758  14.351  0.6845 -0.8283  1.4093
 2578TIP3   OH229148   6.303   4.626  10.713 -0.2510  0.2025  0.2025
 2578TIP3    H129149   6.216   4.625  10.675  0.1467 -0.3105 -0.7368
 2578TIP3    H229150   6.312   4.540  10.755 -0.7238  0.8010  1.5868
 2579TIP3   OH229151   6.723   6.128  13.007 -0.3034  0.3181  0.2077
 2579TIP3    H129152   6.683   6.189  13.069  1.0202  2.0524 -0.5446
 2579TIP3    H229153   6.724   6.177  12.924 -0.9399 -1.4785 -0.9123
 2580TIP3   OH229154   1.447   1.803  12.693  0.0510 -0.1184 -0.5584
 2580TIP3    H129155   1.535   1.823  12.724  0.0508  2.2194 -1.8464
 2580TIP3    H229156   1.396   1.882  12.711 -1.3697 -0.8104 -1.3087
 2581TIP3   OH229157   0.537   6.490   5.401 -0.3571 -0.7436 -0.0453
 2581TIP3    H129158   0.519   6.462   5.312  0.3883 -1.5813  0.0566
 2581TIP3    H229159   0.571   6.412   5.445 -0.0615 -0.1717  0.7784
 2582TIP3   OH229160   2.624   1.055  12.068 -0.1702 -0.0952  0.1599
 2582TIP3    H129161   2.585   1.031  11.984  1.7507 -0.0232 -0.8061
 2582TIP3    H229162   2.686   0.984  12.087  1.3599  1.1747  0.1406
 2583TIP3   OH229163   2.272   6.838  14.039 -0.1696  0.0728 -0.2109
 2583TIP3    H129164   2.232   6.907  13.986 -0.8416 -0.8154 -0.9094
 2583TIP3    H229165   2.241   6.756  13.998  2.3742 -0.6716 -0.8113
 2584TIP3   OH229166   2.731   1.240   5.444  0.3463 -0.1122 -0.2910
 2584TIP3    H129167   2.736   1.315   5.384  0.2121 -1.1248 -1.6012
 2584TIP3    H229168   2.640   1.240   5.474  0.1914 -0.0779 -0.7449
 2585TIP3   OH229169   2.797   0.351  13.783 -0.2179 -0.4080  0.0413
 2585TIP3    H129170   2.867   0.304  13.829 -0.5743  0.4021  1.4569
 2585TIP3    H229171   2.843   0.409  13.723  0.4089  0.8275  1.6510
 2586TIP3   OH229172   2.891   2.767   3.885  0.4239 -0.1035 -0.1149
 2586TIP3    H129173   2.822   2.705   3.861  1.9963 -1.7072 -0.7395
 2586TIP3    H229174   2.881   2.778   3.980 -1.7116  1.0643 -0.4110
 2587TIP3   OH229175   5.553   5.080  11.455 -0.8849 -0.3065 -0.8387
 2587TIP3    H129176   5.547   4.986  11.474 -1.2065 -0.1708 -0.2701
 2587TIP3    H229177   5.533   5.123  11.538 -1.6548  0.2807 -1.3190
 2588TIP3   OH229178   2.279   4.138   3.820 -0.4300  0.1450  0.2786
 2588TIP3    H129179   2.216   4.187   3.768 -1.8053 -1.5160  0.2947
 2588TIP3    H229180   2.229   4.111   3.898  0.7339  0.0382  1.0074
 2589TIP3   OH229181   5.329   5.507  11.237 -0.2735  0.6760 -0.1562
 2589TIP3    H129182   5.334   5.552  11.321 -0.0076  2.2322 -0.9584
 2589TIP3    H229183   5.305   5.417  11.259  3.7639 -0.0945  1.9016
 2590TIP3   OH229184   5.299   5.691  10.165 -0.2634 -0.7590  0.5936
 2590TIP3    H129185   5.258   5.669  10.082 -0.4558  0.4420  0.3571
 2590TIP3    H229186   5.326   5.782  10.155 -0.1192 -0.6567  1.7823
 2591TIP3   OH229187   0.699   4.302  11.994  0.1957  0.2991 -0.0077
 2591TIP3    H129188   0.754   4.274  11.921  0.5639 -0.1344  0.4311
 2591TIP3    H229189   0.750   4.281  12.073 -0.6383 -0.2061  0.4103
 2592TIP3   OH229190   2.336   3.859   4.018 -0.6312 -0.3401 -0.0237
 2592TIP3    H129191   2.412   3.896   4.063  0.1521 -0.7298 -0.9796
 2592TIP3    H229192   2.265   3.922   4.036  0.2960  0.8475 -0.3633
 2593TIP3   OH229193   6.319   3.857  10.089  0.3508 -0.0458  0.1393
 2593TIP3    H129194   6.325   3.804  10.009 -0.5433  0.1492 -0.0707
 2593TIP3    H229195   6.405   3.897  10.098 -0.0412  1.3957 -1.7659
 2594TIP3   OH229196   6.794   4.274   0.254 -0.7188 -0.6414  0.6405
 2594TIP3    H129197   6.886   4.251   0.243 -0.2992  1.2508 -0.3293
 2594TIP3    H229198   6.773   4.250   0.344  1.3163  0.7541  1.5400
 2595TIP3   OH229199   5.399   3.598  12.697  0.1143  0.3284  0.2514
 2595TIP3    H129200   5.413   3.513  12.655  1.8337  0.4550  0.4938
 2595TIP3    H229201   5.486   3.637  12.700 -0.8832  3.0127 -1.7646
 2596TIP3   OH229202   6.107   5.457  14.547 -0.2516  0.4795  0.3880
 2596TIP3    H129203   6.100   5.548  14.516 -1.4138  0.3123  0.1306
 2596TIP3    H229204   6.070   5.460  14.636 -1.9948 -0.0728 -0.2933
 2597TIP3   OH229205   3.184   3.354  15.012 -0.1784  0.1155  0.6332
 2597TIP3    H129206   3.166   3.283  15.074  1.2001  0.6776  1.7386
 2597TIP3    H229207   3.220   3.311  14.935 -3.6726 -0.8036 -0.6815
 2598TIP3   OH229208   1.888   7.114  15.319  0.6652  0.1083  0.2615
 2598TIP3    H129209   1.803   7.143  15.353  0.2101  0.9049 -1.4251
 2598TIP3    H229210   1.916   7.046  15.380 -0.7331  0.4884  1.3974
 2599TIP3   OH229211   6.914   5.512   1.201  0.0612  0.0885 -0.0383
 2599TIP3    H129212   6.914   5.530   1.295  0.9060  0.4962 -0.1117
 2599TIP3    H229213   6.878   5.590   1.161 -0.0324  0.0262 -0.0772
 2600TIP3   OH229214   5.973   1.141  11.741  0.2332 -0.1032  0.2462
 2600TIP3    H129215   5.978   1.201  11.666 -1.5127 -0.4216 -0.1602
 2600TIP3    H229216   6.025   1.065  11.713 -1.7539 -0.9594 -1.4265
 2601TIP3   OH229217   6.518   6.955   0.143  0.0775  0.2564  0.1807
 2601TIP3    H129218   6.528   6.967   0.049  0.5200  1.2344  0.3448
 2601TIP3    H229219   6.604   6.973   0.179  0.1501 -1.0315  0.6990
 2602TIP3   OH229220   3.621   0.020  10.016 -0.2723  0.3669 -0.4732
 2602TIP3    H129221   3.588   0.109  10.028 -0.4118  0.3793 -0.9485
 2602TIP3    H229222   3.554  -0.025   9.965 -0.6628 -0.3070  0.6000
 2603TIP3   OH229223   5.243   0.244  13.672  0.1550 -0.0826 -0.8663
 2603TIP3    H129224   5.292   0.319  13.707  0.2383  0.1888 -1.5536
 2603TIP3    H229225   5.267   0.171  13.730  1.5231  0.0040 -1.2918
 2604TIP3   OH229226   2.839   1.204  11.913  0.3711  0.3966 -0.2027
 2604TIP3    H129227   2.868   1.114  11.898  0.9711  0.4804  0.4144
 2604TIP3    H229228   2.755   1.195  11.956  1.5504  0.0630  2.1857
 2605TIP3   OH229229   1.436   0.691  13.327  0.0316  0.0231  0.3242
 2605TIP3    H129230   1.414   0.599  13.337  0.5804 -0.1008  0.4145
 2605TIP3    H229231   1.498   0.693  13.254  0.4880  0.2512  0.7158
 2606TIP3   OH229232   5.720   4.089   0.523  0.4925  0.1123  0.2060
 2606TIP3    H129233   5.645   4.052   0.570  0.3407 -0.3704 -0.4015
 2606TIP3    H229234   5.755   4.015   0.473  0.3035  0.7505 -0.8849
 2607TIP3   OH229235   7.071   6.221  12.829 -0.4357 -0.2619  0.9812
 2607TIP3    H129236   6.985   6.192  12.802 -1.3179 -0.0812  3.3137
 2607TIP3    H229237   7.120   6.141  12.847 -0.3253 -0.3534  0.2947
 2608TIP3   OH229238   0.831   5.506   9.475  0.0105  0.6763  0.4345
 2608TIP3    H129239   0.757   5.483   9.532  0.0099  0.0640  0.1950
 2608TIP3    H229240   0.872   5.422   9.454  0.5282  0.9763  0.2263
 2609TIP3   OH229241   4.021   3.153   1.988  0.6211 -0.9976 -0.6322
 2609TIP3    H129242   4.007   3.156   1.894 -2.7149  2.3240 -0.2742
 2609TIP3    H229243   4.101   3.204   2.001 -0.7994  1.6861 -1.6146
 2610TIP3   OH229244   3.076   4.190  14.071 -0.2510  0.7853 -0.5205
 2610TIP3    H129245   3.071   4.228  13.983  2.6039 -0.7742 -1.4783
 2610TIP3    H229246   3.149   4.236  14.113 -1.0554  0.9332  0.7898
 2611TIP3   OH229247   0.447   1.597  10.512  0.0675 -0.4555 -0.0078
 2611TIP3    H129248   0.399   1.677  10.529 -1.8150 -1.1492 -1.6599
 2611TIP3    H229249   0.507   1.619  10.441  0.6200 -0.1619  0.5397
 2612TIP3   OH229250   6.571   2.313   3.589  0.6100 -0.0231 -0.3472
 2612TIP3    H129251   6.620   2.377   3.641  2.2748  1.3230 -3.3641
 2612TIP3    H229252   6.490   2.358   3.566  1.5289  0.8951 -1.9810
 2613TIP3   OH229253   3.344   0.292   1.745  0.4455  0.2311 -0.0615
 2613TIP3    H129254   3.326   0.224   1.680 -1.7520  0.3495  0.3244
 2613TIP3    H229255   3.308   0.257   1.826 -3.1200  2.7236 -0.3357
 2614TIP3   OH229256   3.173   4.369  12.039 -0.3205  0.0762  0.3029
 2614TIP3    H129257   3.114   4.431  11.997  0.5758  0.5337 -0.3265
 2614TIP3    H229258   3.233   4.342  11.970  2.9958  2.9812  1.7593
 2615TIP3   OH229259   5.701   4.600   3.402 -0.0427 -0.7879  0.6098
 2615TIP3    H129260   5.645   4.546   3.346  2.0264 -0.7775 -1.6426
 2615TIP3    H229261   5.645   4.672   3.430 -1.2500 -0.8932 -1.3516
 2616TIP3   OH229262   5.485   1.845  12.872  0.0404 -0.7934  0.4269
 2616TIP3    H129263   5.501   1.751  12.882 -0.0840 -0.8747 -0.0940
 2616TIP3    H229264   5.462   1.855  12.779  1.3043 -0.0625  0.1706
 2617TIP3   OH229265   1.235   5.282  11.910 -0.4889  0.0098  0.1423
 2617TIP3    H129266   1.320   5.252  11.945  1.4275  1.6191 -2.7260
 2617TIP3    H229267   1.202   5.207  11.861 -1.9329 -1.3699  2.9776
 2618TIP3   OH229268   7.047   0.814  12.710 -0.3433  0.0976  0.0633
 2618TIP3    H129269   7.105   0.745  12.677 -0.5549 -0.9447  1.7634
 2618TIP3    H229270   6.974   0.816  12.648  0.8551  0.5668 -1.4072
 2619TIP3   OH229271   3.520   4.249  11.033  0.3019  0.4143 -0.3728
 2619TIP3    H129272   3.612   4.247  11.008  0.3391  0.8990 -0.2819
 2619TIP3    H229273   3.521   4.242  11.128  0.1568 -1.5435 -0.4675
 2620TIP3   OH229274   4.099   4.234   0.959 -0.0528 -0.6389  0.5259
 2620TIP3    H129275   4.032   4.225   1.028  0.9458 -1.1876  1.4573
 2620TIP3    H229276   4.166   4.289   0.999  0.2030 -0.3621 -0.2831
 2621TIP3   OH229277   2.920   3.596  15.216  0.0607 -0.0555 -0.1923
 2621TIP3    H129278   2.885   3.597  15.305 -0.7032 -0.6440 -0.4769
 2621TIP3    H229279   2.879   3.672  15.174 -0.1031 -0.1706 -0.2399
 2622TIP3   OH229280   5.422   5.856  12.836  0.1752  0.3844 -0.2453
 2622TIP3    H129281   5.485   5.926  12.820 -0.5288  0.6961 -1.9294
 2622TIP3    H229282   5.338   5.901  12.848 -0.0265 -0.0958  0.1879
 2623TIP3   OH229283   0.687   3.717  11.328  0.4839 -0.2558 -0.4011
 2623TIP3    H129284   0.636   3.799  11.327 -0.1042 -0.5703  1.2915
 2623TIP3    H229285   0.753   3.730  11.260 -0.0952  1.3072 -0.7154
 2624TIP3   OH229286   2.416   2.156  11.061  0.8858  0.1298 -0.4767
 2624TIP3    H129287   2.331   2.175  11.100  1.4094  0.1507  0.7155
 2624TIP3    H229288   2.436   2.233  11.007  1.3952  1.4638  1.4884
 2625TIP3   OH229289   0.686   1.788   2.608  0.2378 -0.4082  0.9873
 2625TIP3    H129290   0.722   1.760   2.524 -0.3008  1.3694  0.1196
 2625TIP3    H229291   0.756   1.842   2.647 -0.4541  0.9306  0.4529
 2626TIP3   OH229292   2.054   4.248  11.540 -0.0578  0.0789 -0.1550
 2626TIP3    H129293   2.139   4.209  11.559 -0.2791 -0.2021  0.2674
 2626TIP3    H229294   2.001   4.176  11.506  0.4791  0.6620 -2.4061
 2627TIP3   OH229295   4.022   1.318  13.668  0.2421  0.3875  0.0544
 2627TIP3    H129296   3.931   1.322  13.637 -0.1521 -0.0637  1.1342
 2627TIP3    H229297   4.031   1.394  13.726  0.2435 -0.1392  0.7532
 2628TIP3   OH229298   0.271   3.562  13.251 -0.2163 -0.0588  0.1291
 2628TIP3    H129299   0.212   3.596  13.318  0.8651  1.1254  0.5246
 2628TIP3    H229300   0.271   3.467  13.264 -2.6277 -0.2013 -0.4090
 2629TIP3   OH229301   1.073   5.937   0.275  0.4709  0.0663  0.2706
 2629TIP3    H129302   1.157   5.966   0.313  0.5165  2.5278 -1.4693
 2629TIP3    H229303   1.097   5.898   0.191 -0.0422 -0.4873  0.3740
 2630TIP3   OH229304   1.967   5.600  14.705 -0.9184 -0.0794  0.2503
 2630TIP3    H129305   1.976   5.505  14.709 -0.9919 -0.1870 -1.5122
 2630TIP3    H229306   2.057   5.633  14.712 -0.9253 -0.2410  1.2353
 2631TIP3   OH229307   3.991   2.775  13.330  0.5405 -0.0085  0.3318
 2631TIP3    H129308   4.019   2.860  13.295  1.6069 -0.3502  0.2975
 2631TIP3    H229309   4.043   2.765  13.410  1.2781 -1.1196 -0.2636
 2632TIP3   OH229310   0.412   6.433  11.620  0.8682 -0.2167 -0.6568
 2632TIP3    H129311   0.362   6.514  11.619  2.3052  0.6835 -1.0801
 2632TIP3    H229312   0.352   6.367  11.585 -1.1527  0.1072  1.8534
 2633TIP3   OH229313   3.009   4.796  12.537 -0.0662  0.6323 -0.1846
 2633TIP3    H129314   2.919   4.776  12.564  0.0610  2.5551  2.0091
 2633TIP3    H229315   2.999   4.847  12.457 -0.9746  1.1472  0.2398
 2634TIP3   OH229316   1.857   1.193   9.089  0.2437 -0.4033 -0.1769
 2634TIP3    H129317   1.886   1.281   9.068  0.8445 -0.5925 -0.1395
 2634TIP3    H229318   1.936   1.140   9.087  0.4503 -0.3998  2.9235
 2635TIP3   OH229319   3.195   1.405  12.220  0.0246 -0.1682  0.4872
 2635TIP3    H129320   3.223   1.349  12.147  0.9586 -1.1051  1.5391
 2635TIP3    H229321   3.273   1.456  12.242 -0.4092  0.5002  0.4965
 2636TIP3   OH229322   4.086   6.002  11.605 -0.2678 -0.1551  0.1678
 2636TIP3    H129323   4.009   5.997  11.662  1.4842 -0.8841  2.6669
 2636TIP3    H229324   4.153   6.044  11.660  1.5185 -0.8211 -1.3971
 2637TIP3   OH229325   2.983   2.483  10.445 -0.2703  0.4745  0.5232
 2637TIP3    H129326   3.054   2.498  10.507 -0.4876 -0.9619  1.1628
 2637TIP3    H229327   3.019   2.420  10.382 -0.6526  0.4984  0.2793
 2638TIP3   OH229328   6.723   1.143   0.700 -0.3294 -0.0328 -0.1632
 2638TIP3    H129329   6.724   1.139   0.604  1.1357 -2.6487 -0.1366
 2638TIP3    H229330   6.788   1.210   0.722  3.0308 -2.6962 -1.1053
 2639TIP3   OH229331   5.179   2.632   0.698 -0.3198  0.0178  0.0543
 2639TIP3    H129332   5.157   2.598   0.785  0.9703 -0.4955  0.2059
 2639TIP3    H229333   5.258   2.584   0.673 -0.2795  0.6549 -1.1117
 2640TIP3   OH229334   3.849   3.183  10.531  0.2674 -0.0591 -0.6882
 2640TIP3    H129335   3.868   3.094  10.503 -1.0325 -0.0275 -1.8008
 2640TIP3    H229336   3.879   3.238  10.459  0.3335  0.3424 -0.3608
 2641TIP3   OH229337   4.750   4.650  11.463 -0.8684 -0.4922  0.1374
 2641TIP3    H129338   4.674   4.663  11.407  0.8694  1.9115 -1.8903
 2641TIP3    H229339   4.818   4.615  11.405 -0.3260 -2.5339  1.8742
 2642TIP3   OH229340   1.082   2.327  10.389  0.8150  0.2777 -0.0345
 2642TIP3    H129341   1.077   2.264  10.317  0.1091 -0.5195  0.7055
 2642TIP3    H229342   1.089   2.412  10.345  1.5215 -0.2882 -1.0370
 2643TIP3   OH229343   0.875   0.388  15.189 -0.3297  0.2705 -0.7220
 2643TIP3    H129344   0.797   0.379  15.243 -1.7885  1.5658 -2.4721
 2643TIP3    H229345   0.925   0.458  15.230  0.9197 -1.7512  1.4319
 2644TIP3   OH229346   1.026   4.275  14.742 -0.1152 -0.1900 -0.2240
 2644TIP3    H129347   0.983   4.221  14.675  0.1886 -0.2227 -0.3954
 2644TIP3    H229348   1.117   4.246  14.741 -0.1991 -0.4960  0.5141
 2645TIP3   OH229349   0.843   1.919   0.490 -0.0378 -0.4012 -0.5702
 2645TIP3    H129350   0.880   1.918   0.578 -0.6707 -2.9603 -0.2502
 2645TIP3    H229351   0.763   1.867   0.496 -0.4326 -0.1112 -2.5185
 2646TIP3   OH229352   5.725   5.440   0.004 -0.2897  0.9785  1.1212
 2646TIP3    H129353   5.645   5.491   0.020  0.5802  2.8374 -0.1855
 2646TIP3    H229354   5.796   5.499   0.025  0.7930  0.9432 -1.9656
 2647TIP3   OH229355   0.749   5.966  10.876  0.0749  0.2843 -0.0019
 2647TIP3    H129356   0.818   5.905  10.900  0.3112  0.2617 -0.7235
 2647TIP3    H229357   0.791   6.028  10.817 -0.4590  0.4274 -0.2414
 2648TIP3   OH229358   4.970   4.380  12.666  0.0349  0.5916 -0.3006
 2648TIP3    H129359   5.059   4.393  12.633 -0.1681  2.0812 -0.3331
 2648TIP3    H229360   4.916   4.441  12.615 -1.3161 -1.4596 -1.4553
 2649TIP3   OH229361   0.403   2.217  11.566 -0.6234 -0.6246  0.3177
 2649TIP3    H129362   0.401   2.194  11.473  0.2230 -0.3927  0.2371
 2649TIP3    H229363   0.470   2.285  11.572 -0.4138 -0.9015  1.1535
 2650TIP3   OH229364   3.157   6.438   0.273  0.0570  0.5402 -0.7750
 2650TIP3    H129365   3.236   6.479   0.309 -0.1985  1.4747 -1.2470
 2650TIP3    H229366   3.185   6.350   0.249  0.6562  0.4654  0.1393
 2651TIP3   OH229367   3.568   3.363  10.106  0.0342  0.4752 -0.3123
 2651TIP3    H129368   3.627   3.390  10.035  0.4469  0.4835  0.0242
 2651TIP3    H229369   3.512   3.439  10.120  0.3384  0.6916 -0.2412
 2652TIP3   OH229370   6.620   6.335   0.957  0.5285 -0.0850  0.0565
 2652TIP3    H129371   6.665   6.259   0.920 -1.7655 -0.8037 -1.4318
 2652TIP3    H229372   6.612   6.397   0.884 -1.0215 -0.0729  0.1986
 2653TIP3   OH229373   3.859   2.431  13.906 -0.0162  0.4394  0.2651
 2653TIP3    H129374   3.797   2.441  13.834  0.4687 -0.7624 -0.3437
 2653TIP3    H229375   3.918   2.507  13.898 -2.1299  2.3402  1.6554
 2654TIP3   OH229376   4.391   5.884  11.269 -0.3405  0.0336  0.6147
 2654TIP3    H129377   4.316   5.931  11.231  0.4649  0.6467 -0.2643
 2654TIP3    H229378   4.359   5.853  11.354 -1.9115 -0.6050 -0.1742
 2655TIP3   OH229379   1.718   4.913   0.801 -0.2307  0.0360 -0.1321
 2655TIP3    H129380   1.795   4.879   0.756 -0.0921 -1.0573  0.9027
 2655TIP3    H229381   1.750   4.941   0.886 -0.6999  1.0499 -0.2770
 2656TIP3   OH229382   5.989   1.863  11.677  0.4159  0.7628  0.1639
 2656TIP3    H129383   6.054   1.832  11.615  0.1069 -1.0708  0.6760
 2656TIP3    H229384   5.923   1.908  11.624  0.7844  0.3264 -0.6747
 2657TIP3   OH229385   6.869   1.171  11.603 -0.1885  0.0432 -0.1950
 2657TIP3    H129386   6.942   1.194  11.544 -1.1169  1.0550 -0.9898
 2657TIP3    H229387   6.795   1.221  11.570 -1.2565 -0.9419  0.6231
 2658TIP3   OH229388   0.009   1.247   0.117 -0.0999 -0.2499  0.5435
 2658TIP3    H129389  -0.067   1.225   0.063 -0.2683 -0.2853  0.7896
 2658TIP3    H229390   0.038   1.332   0.085 -0.6346  0.0611  0.8600
 2659TIP3   OH229391   5.462   0.894   0.195  0.6690 -0.0800 -0.5794
 2659TIP3    H129392   5.399   0.967   0.190  0.6498 -0.0709 -0.2352
 2659TIP3    H229393   5.523   0.910   0.123  0.3316 -0.0389 -0.8656
 2660TIP3   OH229394   0.910   1.322   0.267  0.9650  1.0053  0.5813
 2660TIP3    H129395   0.833   1.373   0.291 -0.4902  0.1446 -1.8436
 2660TIP3    H229396   0.919   1.335   0.173  2.2180 -0.9731  0.3673
 2661TIP3   OH229397   3.575   5.256   0.582 -0.3814 -0.0647 -0.1137
 2661TIP3    H129398   3.605   5.347   0.581 -1.0512  0.1556 -0.2431
 2661TIP3    H229399   3.513   5.249   0.509 -1.1905 -0.3249  0.5769
 2662TIP3   OH229400   2.633   0.651  10.145  0.2443  0.0468  0.7088
 2662TIP3    H129401   2.540   0.670  10.159  0.1782  0.4193 -0.1963
 2662TIP3    H229402   2.676   0.736  10.149  0.4390 -0.0338  0.2907
 2663TIP3   OH229403   5.421   2.679  15.287 -0.1381  0.0958 -0.6061
 2663TIP3    H129404   5.371   2.754  15.255  1.9766  1.4563 -0.9282
 2663TIP3    H229405   5.488   2.665  15.220  0.7342 -0.8069  0.4113
 2664TIP3   OH229406   3.371   5.160  12.993 -0.4018 -0.3576  0.3352
 2664TIP3    H129407   3.290   5.195  12.956  1.1018  2.0330 -0.9845
 2664TIP3    H229408   3.419   5.126  12.918 -0.1357 -1.7418  1.1042
 2665TIP3   OH229409   3.768   4.887  10.845  0.5695  0.0903  0.1621
 2665TIP3    H129410   3.862   4.865  10.844  1.1862  2.5102  0.2063
 2665TIP3    H229411   3.765   4.979  10.870 -1.9006 -0.1378  0.9765
 2666TIP3   OH229412   4.240   0.463   1.796  1.0016 -0.0682 -0.2528
 2666TIP3    H129413   4.167   0.406   1.771  1.5085 -0.6550 -0.4375
 2666TIP3    H229414   4.310   0.402   1.822  0.9970  0.4991  1.1615
 2667TIP3   OH229415   5.452   5.764  13.103 -0.0120 -0.5542 -0.0417
 2667TIP3    H129416   5.452   5.790  13.011  1.9266 -0.3267 -0.0276
 2667TIP3    H229417   5.523   5.699  13.109  1.0198  0.6489  1.5711
 2668TIP3   OH229418   6.719   3.012  11.068  0.1101  0.1538 -0.0723
 2668TIP3    H129419   6.780   2.962  11.121 -0.7965 -1.1845 -0.2544
 2668TIP3    H229420   6.633   2.992  11.104 -0.3503  0.8799 -0.7223
 2669TIP3   OH229421   1.867   3.386   4.328  0.0226  0.5299 -0.0331
 2669TIP3    H129422   1.958   3.377   4.354  0.1208  4.1188  1.4979
 2669TIP3    H229423   1.817   3.386   4.410 -0.6838  3.3216 -0.3359
 2670TIP3   OH229424   7.069   1.027  12.456 -0.7019  0.0538 -0.6082
 2670TIP3    H129425   7.063   1.022  12.552  0.1573  0.5211 -0.5145
 2670TIP3    H229426   7.003   1.093  12.432  1.9491  3.2218  0.1214
 2671TIP3   OH229427   3.032   2.456  10.019  0.5425  0.0183  0.1370
 2671TIP3    H129428   2.963   2.504   9.972 -1.3461 -0.6397  2.1084
 2671TIP3    H229429   3.066   2.394   9.954 -1.7393 -0.6407 -0.5267
 2672TIP3   OH229430   4.520   5.483   1.290  0.3087  0.5289 -0.9450
 2672TIP3    H129431   4.557   5.395   1.288 -1.3982 -0.2276 -0.9048
 2672TIP3    H229432   4.575   5.534   1.230  1.4970 -0.4657 -0.7468
 2673TIP3   OH229433   4.477   0.937   2.621  0.2925  0.1072 -0.5131
 2673TIP3    H129434   4.406   0.881   2.591 -0.6227  0.5802  0.6906
 2673TIP3    H229435   4.544   0.876   2.652 -0.8573 -0.3820  1.1624
 2674TIP3   OH229436   5.564   3.009  14.977  0.0651  0.2490  0.5447
 2674TIP3    H129437   5.476   3.033  14.949  0.7214  1.5809 -0.5039
 2674TIP3    H229438   5.584   3.069  15.049  0.7626  1.1737 -0.3978
 2675TIP3   OH229439   1.756   3.316  11.861  0.4692  0.0622 -0.3590
 2675TIP3    H129440   1.761   3.351  11.772  1.1774 -0.0412 -0.3688
 2675TIP3    H229441   1.662   3.310  11.879  0.3096 -0.1496 -1.1920
 2676TIP3   OH229442   1.943   6.763  13.837 -0.2321 -0.1211  0.1844
 2676TIP3    H129443   1.967   6.748  13.745  0.7599 -1.6278  0.6471
 2676TIP3    H229444   1.993   6.697  13.885 -1.6421 -0.1317  1.7009
 2677TIP3   OH229445   1.980   4.717  15.148  0.0133 -0.6410 -0.3872
 2677TIP3    H129446   1.976   4.658  15.223  2.0275 -2.4676 -1.5965
 2677TIP3    H229447   2.056   4.773  15.166 -1.1453  0.8197  0.1633
 2678TIP3   OH229448   2.017   0.739  13.733  0.2416  0.6086 -0.2498
 2678TIP3    H129449   2.066   0.657  13.740  2.1760  1.7900  0.6876
 2678TIP3    H229450   2.017   0.776  13.821 -0.6035  1.6400 -0.6476
 2679TIP3   OH229451   3.410   1.648  11.013 -0.2529 -0.8412  0.0653
 2679TIP3    H129452   3.496   1.633  11.053 -0.1402  1.0470  0.6140
 2679TIP3    H229453   3.348   1.607  11.072  0.1756 -1.0888  0.3465
 2680TIP3   OH229454   1.760   3.774  12.452  0.5842 -0.8289 -0.0017
 2680TIP3    H129455   1.834   3.807  12.503 -0.1744  0.7299  0.1488
 2680TIP3    H229456   1.745   3.841  12.386 -1.0150 -0.8766  0.2853
 2681TIP3   OH229457   6.618   4.432  10.663  0.1016  0.9847 -0.5066
 2681TIP3    H129458   6.713   4.448  10.661  0.2400  0.4437  0.7174
 2681TIP3    H229459   6.590   4.466  10.748 -0.9749  1.9453 -1.2088
 2682TIP3   OH229460   1.528   3.146  12.629 -0.3125 -0.7190  0.4720
 2682TIP3    H129461   1.516   3.239  12.609  0.2403 -0.6680  0.3668
 2682TIP3    H229462   1.480   3.133  12.710 -0.0878 -0.2516  0.6873
 2683TIP3   OH229463   4.177   6.669  10.677 -0.0157 -0.4101 -0.0420
 2683TIP3    H129464   4.089   6.691  10.709 -0.5706 -2.5723  0.0603
 2683TIP3    H229465   4.236   6.701  10.745 -0.7253  0.8452  0.0136
 2684TIP3   OH229466   2.251   5.342  11.830  0.2521  0.1263  0.4773
 2684TIP3    H129467   2.220   5.327  11.920 -1.5449  1.9188  0.2216
 2684TIP3    H229468   2.182   5.394  11.789  1.9488  1.0817 -1.3455
 2685TIP3   OH229469   4.892   0.800   3.399 -0.1248 -0.2710 -0.0387
 2685TIP3    H129470   4.905   0.824   3.307  0.5662  0.4493  0.2339
 2685TIP3    H229471   4.957   0.852   3.447 -0.2773 -0.8605  0.8300
 2686TIP3   OH229472   3.569   0.823  12.124  0.4992 -0.1535 -0.3062
 2686TIP3    H129473   3.579   0.899  12.067 -0.2556  1.0432  1.0963
 2686TIP3    H229474   3.608   0.751  12.075  1.5111  1.1878 -1.5532
 2687TIP3   OH229475   4.689   0.259  13.813  0.2309  0.3054 -0.0908
 2687TIP3    H129476   4.597   0.250  13.787  0.0634 -1.4233  0.9715
 2687TIP3    H229477   4.687   0.265  13.908  1.0960  2.7630 -0.1706
 2688TIP3   OH229478   3.041   5.559  14.055 -0.4983 -0.1216 -0.1937
 2688TIP3    H129479   3.059   5.650  14.077  0.2164 -0.5122  0.9866
 2688TIP3    H229480   3.082   5.546  13.970 -0.9804  0.7635 -0.5730
 2689TIP3   OH229481   6.072   0.835  13.572  0.6562  0.4989  0.4108
 2689TIP3    H129482   6.051   0.903  13.508 -0.7264  0.6007  0.9206
 2689TIP3    H229483   6.017   0.761  13.547  2.1089 -0.4469 -0.1092
 2690TIP3   OH229484   2.579   4.184   1.649 -0.4884  0.1994  0.1191
 2690TIP3    H129485   2.575   4.197   1.744 -1.1621 -0.9580  0.2703
 2690TIP3    H229486   2.645   4.116   1.637 -2.6571 -2.0637  0.0902
 2691TIP3   OH229487   6.943   5.138  11.599  0.0214  0.0892 -0.1956
 2691TIP3    H129488   6.900   5.086  11.667 -2.1305 -0.0290 -1.5459
 2691TIP3    H229489   6.950   5.225  11.637  0.7759 -0.4441  0.9337
 2692TIP3   OH229490   2.739   4.604  10.245  0.3106 -0.3220  0.1277
 2692TIP3    H129491   2.645   4.592  10.227  0.0805 -0.5227  1.3740
 2692TIP3    H229492   2.764   4.527  10.296  1.5921 -1.1388 -1.6148
 2693TIP3   OH229493   6.488   1.254   0.840 -0.6020 -0.3518  0.4538
 2693TIP3    H129494   6.428   1.277   0.770 -0.9085  0.2400  0.9035
 2693TIP3    H229495   6.547   1.189   0.801 -0.5814  0.1810 -0.4350
 2694TIP3   OH229496   0.654   6.448   1.806  0.4273 -0.7458 -0.0595
 2694TIP3    H129497   0.599   6.423   1.732  0.4087 -1.7748  0.2869
 2694TIP3    H229498   0.615   6.529   1.839 -0.6017 -1.2042 -0.1148
 2695TIP3   OH229499   3.146   5.031  10.535  0.3686  0.1860 -0.8438
 2695TIP3    H129500   3.116   5.112  10.575 -1.2621 -0.5211 -0.5678
 2695TIP3    H229501   3.228   5.011  10.580 -0.4686  0.4005  0.8537
 2696TIP3   OH229502   6.967   1.245  15.295 -0.1998 -0.0828 -0.2931
 2696TIP3    H129503   6.957   1.306  15.368 -0.6784 -0.8284  0.2748
 2696TIP3    H229504   6.879   1.212  15.279 -0.5324  1.6880 -2.6777
 2697TIP3   OH229505   3.925   3.810  12.450 -0.3800 -0.7921  0.0837
 2697TIP3    H129506   3.981   3.737  12.477 -1.4266 -1.1881  1.2642
 2697TIP3    H229507   3.874   3.831  12.528 -1.4398 -0.0325 -0.7849
 2698TIP3   OH229508   5.328   7.089  12.156 -0.0258 -0.1280  0.6601
 2698TIP3    H129509   5.273   7.151  12.204 -1.4870 -0.6439 -0.2750
 2698TIP3    H229510   5.418   7.116  12.175 -0.6128  1.2683  1.5592
 2699TIP3   OH229511   6.388   5.823   0.411 -0.6062  0.4494 -0.1427
 2699TIP3    H129512   6.395   5.912   0.378 -1.5069  0.0150 -1.6070
 2699TIP3    H229513   6.471   5.782   0.389 -0.3904  0.7764  0.0608
 2700TIP3   OH229514   6.812   2.841  12.932 -0.3823 -0.5343  0.1052
 2700TIP3    H129515   6.890   2.886  12.963 -0.6365 -1.7662  2.7775
 2700TIP3    H229516   6.742   2.905  12.940 -0.1693 -0.3676  0.6326
 2701TIP3   OH229517   2.330   2.758  12.549  0.5748  0.3148 -0.2269
 2701TIP3    H129518   2.297   2.769  12.460  0.4791  2.0499 -0.0244
 2701TIP3    H229519   2.424   2.773  12.542  0.3582  2.0882  0.1597
 2702TIP3   OH229520   1.837   1.388  13.916 -1.3527 -0.5422 -0.3025
 2702TIP3    H129521   1.844   1.416  13.825 -2.2549  1.7444  0.2684
 2702TIP3    H229522   1.927   1.387  13.948 -1.2003  0.8659 -0.6261
 2703TIP3   OH229523   5.028   0.465   0.265  0.0074 -0.0569 -0.1135
 2703TIP3    H129524   5.112   0.491   0.228  0.2676  0.1966  0.6285
 2703TIP3    H229525   5.050   0.429   0.351 -0.5534 -0.8535 -0.2985
 2704TIP3   OH229526   5.365   3.717   1.273 -0.2588  0.5296  0.0111
 2704TIP3    H129527   5.432   3.750   1.333 -1.5668  2.5900  0.4423
 2704TIP3    H229528   5.284   3.718   1.324 -1.0035  0.0632 -1.1047
 2705TIP3   OH229529   6.417   0.762  11.293 -0.5501  0.4854 -0.1653
 2705TIP3    H129530   6.340   0.707  11.309 -0.1723  0.1677  0.5886
 2705TIP3    H229531   6.417   0.775  11.198 -1.7846  0.8596 -0.1291
 2706TIP3   OH229532   3.953   6.528  11.157  0.2791  0.1279 -0.0372
 2706TIP3    H129533   3.971   6.567  11.071 -0.4324 -1.1308 -0.7994
 2706TIP3    H229534   4.035   6.484  11.180  0.8402  1.4024  0.4790
 2707TIP3   OH229535   3.294   4.122  10.489  0.2436  0.3006 -0.0090
 2707TIP3    H129536   3.337   4.062  10.428  0.9571  0.5712  0.2241
 2707TIP3    H229537   3.202   4.093  10.490  0.3004  0.0661 -0.9255
 2708TIP3   OH229538   2.171   0.201  14.665 -0.1727  0.4321 -0.2755
 2708TIP3    H129539   2.247   0.183  14.610 -0.0029  0.6225 -0.1048
 2708TIP3    H229540   2.200   0.271  14.723 -0.4374  0.4164 -0.1244
 2709TIP3   OH229541   4.188   2.561  11.415  0.0163  0.2692  0.2343
 2709TIP3    H129542   4.115   2.622  11.415  0.8888  1.3758  1.7843
 2709TIP3    H229543   4.250   2.597  11.478  0.4403 -2.3888  1.4653
 2710TIP3   OH229544   0.486   2.519  10.030 -0.2652  0.3287  0.3711
 2710TIP3    H129545   0.439   2.436  10.022  0.2532 -0.1291  1.7967
 2710TIP3    H229546   0.571   2.502   9.990  0.9784 -0.8328  3.2459
 2711TIP3   OH229547   1.674   5.684  10.981 -0.2285 -0.1403 -0.3815
 2711TIP3    H129548   1.737   5.748  10.948 -1.0428  0.3943 -0.9221
 2711TIP3    H229549   1.694   5.603  10.934  0.2936 -0.0844 -0.2644
 2712TIP3   OH229550   5.633   3.287  13.742  0.2987  0.6006 -0.4858
 2712TIP3    H129551   5.557   3.265  13.689 -0.4306 -0.3676  0.9068
 2712TIP3    H229552   5.601   3.355  13.802  0.4940  0.1145  0.1751
 2713TIP3   OH229553   4.203   2.942  11.967 -0.5031  0.1909 -0.4906
 2713TIP3    H129554   4.208   2.851  11.996 -1.8288  0.3518  0.3155
 2713TIP3    H229555   4.221   2.993  12.046 -0.1429  0.6390 -0.8570
 2714TIP3   OH229556   6.873   6.676  10.380  0.4809  0.4866 -0.4603
 2714TIP3    H129557   6.944   6.691  10.443  0.0310 -0.2644  0.2422
 2714TIP3    H229558   6.860   6.581  10.380 -0.9958  0.6599 -0.0426
 2715TIP3   OH229559   6.299   0.977   0.963 -0.2146 -0.4852 -0.1184
 2715TIP3    H129560   6.392   0.993   0.978 -0.2104  0.2111 -0.8148
 2715TIP3    H229561   6.292   0.882   0.959  0.7926 -0.5346 -1.9192
 2716TIP3   OH229562   5.522   5.394  11.914  0.2010 -0.2919 -0.6583
 2716TIP3    H129563   5.505   5.337  11.990  0.9146  1.1982  0.6682
 2716TIP3    H229564   5.440   5.442  11.902 -0.1597 -1.0378 -1.3353
 2717TIP3   OH229565   6.143   2.500  12.741 -0.2288 -0.1674  0.0164
 2717TIP3    H129566   6.082   2.523  12.812 -1.0264  1.2921 -1.0892
 2717TIP3    H229567   6.112   2.551  12.666  1.9181  0.0323 -0.7872
 2718TIP3   OH229568   5.485   5.249  12.892 -0.4712  0.4551  0.5145
 2718TIP3    H129569   5.567   5.297  12.885 -0.5869  0.7259  0.9605
 2718TIP3    H229570   5.470   5.212  12.805  1.0113 -1.0653  0.8447
 2719TIP3   OH229571   6.923   3.013  13.713  0.0568  0.0899 -0.6318
 2719TIP3    H129572   6.854   2.948  13.708  2.6241 -2.9409 -0.2302
 2719TIP3    H229573   6.878   3.094  13.735 -3.1714 -2.0674  1.7361
 2720TIP3   OH229574   5.338   3.765  10.118 -0.2099 -0.1160 -0.1546
 2720TIP3    H129575   5.358   3.770  10.025 -0.2159  0.4804 -0.1290
 2720TIP3    H229576   5.424   3.759  10.161 -0.1527  0.6885 -0.1425
 2721TIP3   OH229577   6.385   4.834   9.848  0.1086  0.5760 -0.4447
 2721TIP3    H129578   6.451   4.884   9.800 -0.5282  2.1596  0.2476
 2721TIP3    H229579   6.408   4.848   9.940 -0.7199  0.5046 -0.2222
 2722TIP3   OH229580   4.342   5.175  13.269 -0.5543 -0.0663  0.2057
 2722TIP3    H129581   4.346   5.251  13.211  1.2966  0.3926  0.8432
 2722TIP3    H229582   4.297   5.108  13.218  0.1743  0.6124 -1.4098
 2723TIP3   OH229583   3.898   2.429  14.754  0.0839  0.4534  0.9276
 2723TIP3    H129584   3.933   2.517  14.734 -1.1900  0.7861  0.0576
 2723TIP3    H229585   3.870   2.435  14.845  0.4373  0.8108  1.0155
 2724TIP3   OH229586   1.133   1.727  13.189 -0.3168  0.3456  0.2828
 2724TIP3    H129587   1.153   1.816  13.218  3.0133  0.5541 -2.1073
 2724TIP3    H229588   1.070   1.739  13.118  0.8442  0.9250 -0.6721
 2725TIP3   OH229589   5.971   3.825   3.441 -0.5174  0.0764  0.1534
 2725TIP3    H129590   6.045   3.883   3.459 -0.1451 -0.9676  2.2872
 2725TIP3    H229591   5.905   3.849   3.506 -0.9130 -0.9209  0.1383
 2726TIP3   OH229592   5.014   0.431  12.576  0.5214  0.2710 -0.3132
 2726TIP3    H129593   4.992   0.347  12.617  0.6240  0.9156  1.0762
 2726TIP3    H229594   5.082   0.408  12.512 -0.8003 -0.9941 -1.3565
 2727TIP3   OH229595   2.412   3.550  11.580  0.4429  0.0203  0.2853
 2727TIP3    H129596   2.371   3.626  11.621 -0.8869 -1.8386  2.7407
 2727TIP3    H229597   2.341   3.486  11.573  1.3370 -0.7980 -2.4010
 2728TIP3   OH229598   1.120   0.657  12.021 -0.2168  0.2250 -0.1175
 2728TIP3    H129599   1.157   0.570  12.009 -1.8380 -0.6335  0.6909
 2728TIP3    H229600   1.196   0.715  12.029  1.0041 -1.5079  2.0228
 2729TIP3   OH229601   5.437   2.882  14.505  0.0781 -0.2596 -0.5112
 2729TIP3    H129602   5.363   2.845  14.553  0.8481 -0.4914  0.5379
 2729TIP3    H229603   5.493   2.806  14.487  1.1775  0.2009  0.7650
 2730TIP3   OH229604   0.255   4.559  11.504 -0.1786  0.3238 -0.0391
 2730TIP3    H129605   0.214   4.644  11.519  0.0170  0.6126 -1.0994
 2730TIP3    H229606   0.262   4.520  11.591 -0.3393  1.3630  0.4488
 2731TIP3   OH229607   5.253   2.639  12.328 -0.1752  0.5435  0.4136
 2731TIP3    H129608   5.211   2.653  12.412  0.1080  1.6119  0.3867
 2731TIP3    H229609   5.337   2.598  12.350  0.1981  1.4390  0.7175
 2732TIP3   OH229610   1.420   0.485  11.211 -0.2367  0.2366  0.0802
 2732TIP3    H129611   1.489   0.483  11.278 -0.5022  0.3263  0.3565
 2732TIP3    H229612   1.339   0.500  11.260 -0.6944 -1.5597 -0.0683
 2733TIP3   OH229613   6.536   6.267   5.850  0.1845 -0.0547  0.3768
 2733TIP3    H129614   6.612   6.298   5.899  0.4743 -0.7274  0.3695
 2733TIP3    H229615   6.491   6.346   5.821  0.1750  0.3477  1.4727
 2734TIP3   OH229616   0.157   1.415  15.368  0.0531  0.1486 -0.0047
 2734TIP3    H129617   0.176   1.334  15.322  1.0875  0.0798  0.5203
 2734TIP3    H229618   0.066   1.406  15.396  0.5414 -1.4275  1.2176
 2735TIP3   OH229619   3.306   4.732  10.079  0.9055 -0.0858  0.8085
 2735TIP3    H129620   3.321   4.645  10.116  1.6622 -0.3073  0.0024
 2735TIP3    H229621   3.218   4.728  10.043  1.2500 -0.8024  0.0191
 2736TIP3   OH229622   6.185   6.333   1.163 -0.2466  0.2542  0.1064
 2736TIP3    H129623   6.269   6.310   1.123  0.7884 -2.4927  3.3492
 2736TIP3    H229624   6.208   6.392   1.236 -0.9626 -1.0202  1.4234
 2737TIP3   OH229625   6.305   2.277   2.430  0.4191  0.3196  0.4740
 2737TIP3    H129626   6.234   2.215   2.446 -0.4224  0.8324 -1.1183
 2737TIP3    H229627   6.371   2.226   2.383  0.9526 -0.0525  1.5985
 2738TIP3   OH229628   1.337   6.262   9.668  0.0350  0.5839 -0.5609
 2738TIP3    H129629   1.256   6.212   9.655  0.6146 -0.4148 -0.3537
 2738TIP3    H229630   1.375   6.270   9.581 -0.3314  1.1534 -0.6757
 2739TIP3   OH229631   2.460   0.061  12.196  0.0933 -0.1307 -0.1913
 2739TIP3    H129632   2.454  -0.027  12.234  0.5821  0.0410  0.2952
 2739TIP3    H229633   2.545   0.063  12.154 -0.4525 -0.3275 -1.3465
 2740TIP3   OH229634   1.319   6.056  14.616  0.5017 -0.4371  0.5609
 2740TIP3    H129635   1.299   6.049  14.710  1.4911 -0.6843  0.7615
 2740TIP3    H229636   1.385   6.125  14.611 -1.3563  1.4000 -0.2463
 2741TIP3   OH229637   0.322   4.785  14.473  0.0742  0.0084 -0.2108
 2741TIP3    H129638   0.288   4.866  14.511 -3.0927 -0.4076 -1.7855
 2741TIP3    H229639   0.364   4.813  14.392 -0.2411  0.1805 -0.3194
 2742TIP3   OH229640   4.774   3.508  10.440  0.5046  0.2788  0.4248
 2742TIP3    H129641   4.700   3.484  10.496 -0.0994 -2.4083 -1.3145
 2742TIP3    H229642   4.747   3.589  10.397 -0.3654  0.6576  1.6380
 2743TIP3   OH229643   7.112   0.907  10.704 -0.0387 -0.1895  0.1760
 2743TIP3    H129644   7.155   0.988  10.734 -0.6563  0.1558  0.1462
 2743TIP3    H229645   7.059   0.879  10.778  1.5469 -1.5720  0.8344
 2744TIP3   OH229646   2.950   4.833   1.165 -0.2921 -0.0761 -0.1659
 2744TIP3    H129647   2.875   4.856   1.110 -1.1408  2.0003  1.7263
 2744TIP3    H229648   3.024   4.881   1.127 -1.2601  2.9063  1.4790
 2745TIP3   OH229649   2.857   6.490  10.281  0.2950  0.0420  0.2400
 2745TIP3    H129650   2.949   6.498  10.307  0.0214  3.7829  0.6053
 2745TIP3    H229651   2.847   6.552  10.209 -1.9856 -0.1714  0.3034
 2746TIP3   OH229652   6.180   1.214   1.012 -0.1004  0.1960 -0.2490
 2746TIP3    H129653   6.231   1.132   1.006  1.0542  0.9234 -0.7590
 2746TIP3    H229654   6.243   1.282   0.988 -1.0481  1.2412  0.1966
 2747TIP3   OH229655   4.878   6.195   0.962 -0.0218 -0.0062 -0.1014
 2747TIP3    H129656   4.912   6.164   1.046  0.7628 -0.2462 -0.4924
 2747TIP3    H229657   4.939   6.264   0.936 -1.2415  1.2698  0.3340
 2748TIP3   OH229658   0.502   2.225   1.369 -0.0554 -0.0102  0.0555
 2748TIP3    H129659   0.418   2.215   1.324  0.0380  0.5041 -0.2285
 2748TIP3    H229660   0.496   2.164   1.443 -1.0977  0.7828  0.6500
 2749TIP3   OH229661   3.673   3.343  13.764 -0.0034  0.3413 -0.0300
 2749TIP3    H129662   3.723   3.264  13.783  2.7628  1.7375 -0.9195
 2749TIP3    H229663   3.592   3.332  13.813  2.1377 -1.0084  3.6322
 2750TIP3   OH229664   3.983   3.401   5.074 -0.8162 -0.1585 -0.1028
 2750TIP3    H129665   4.059   3.375   5.125 -1.2417  0.6366  0.9737
 2750TIP3    H229666   3.918   3.429   5.139 -2.3208 -1.5026 -0.9403
 2751TIP3   OH229667   0.123   3.180  11.254  0.6026 -0.7201 -0.8902
 2751TIP3    H129668   0.077   3.146  11.331  1.3517  0.1531 -0.0331
 2751TIP3    H229669   0.142   3.271  11.275  1.8732 -0.7922 -1.6135
 2752TIP3   OH229670   0.828   2.431  10.869 -0.2646  0.2084  0.5694
 2752TIP3    H129671   0.752   2.379  10.842  1.2637 -2.5313  1.1594
 2752TIP3    H229672   0.887   2.428  10.794  0.4785 -0.3043  1.1482
 2753TIP3   OH229673   1.655   6.276  11.145  0.3314  0.4229 -0.2952
 2753TIP3    H129674   1.729   6.219  11.124  0.4736  1.0272 -1.4827
 2753TIP3    H229675   1.693   6.363  11.149 -0.1052  0.5935  0.3466
 2754TIP3   OH229676   1.477   3.931  11.849  0.3528 -0.1282 -0.2143
 2754TIP3    H129677   1.547   3.977  11.895  0.8410 -0.9652 -0.0974
 2754TIP3    H229678   1.435   3.998  11.795  0.8846  0.4975  0.1408
 2755TIP3   OH229679   1.030   0.110   9.820 -0.7937 -0.0607  0.1385
 2755TIP3    H129680   1.096   0.041   9.828 -0.9143 -0.4395 -1.7250
 2755TIP3    H229681   1.066   0.170   9.754 -1.1598  1.1181  0.9762
 2756TIP3   OH229682   4.493   1.305   9.723 -0.0447 -0.0867 -0.8592
 2756TIP3    H129683   4.399   1.304   9.742  0.1385 -0.4331  0.0432
 2756TIP3    H229684   4.523   1.218   9.748  0.7433  0.4276  0.0070
 2757TIP3   OH229685   4.070   3.743  14.823  0.3405 -0.6432  0.0559
 2757TIP3    H129686   4.071   3.814  14.887  2.1845 -0.2410 -0.3688
 2757TIP3    H229687   4.109   3.780  14.744 -0.7856 -1.4791 -0.9345
 2758TIP3   OH229688   4.023   4.599  14.300 -0.0663  0.3909  0.0791
 2758TIP3    H129689   3.965   4.524  14.311  1.2469 -0.4866  1.3409
 2758TIP3    H229690   4.097   4.566  14.249  1.0969  0.4738  1.6538
 2759TIP3   OH229691   7.101   1.920  11.582  0.3032  0.3804  0.6155
 2759TIP3    H129692   7.107   1.943  11.490 -0.2138 -0.4919  0.3497
 2759TIP3    H229693   7.150   1.838  11.590 -0.5115 -0.0958  0.9006
 2760TIP3   OH229694   2.036   4.935  13.084  0.1278 -0.3260 -0.0097
 2760TIP3    H129695   2.126   4.912  13.109  0.2639 -0.4184 -0.5661
 2760TIP3    H229696   2.015   4.875  13.013  0.0633  0.4768 -0.6882
 2761TIP3   OH229697   5.770   1.970  11.526  0.4008  0.1696 -0.2012
 2761TIP3    H129698   5.723   1.901  11.573  0.7299 -0.1562 -0.3425
 2761TIP3    H229699   5.735   2.052  11.562 -1.4756 -0.0180 -1.4719
 2762TIP3   OH229700   3.836   4.116   0.796  0.5860  0.5453  0.2845
 2762TIP3    H129701   3.800   4.030   0.773  0.0114  0.6747  0.6631
 2762TIP3    H229702   3.881   4.102   0.878 -0.7379  0.8828  1.1029
 2763TIP3   OH229703   5.194   5.190  11.597 -0.3282 -0.0749 -0.5012
 2763TIP3    H129704   5.139   5.208  11.673  0.2511 -3.3347  0.8667
 2763TIP3    H229705   5.282   5.177  11.634  0.2612 -0.3418 -1.9260
 2764TIP3   OH229706   5.523   3.499  14.084 -0.2201  0.0134 -0.0650
 2764TIP3    H129707   5.559   3.414  14.059 -0.5217 -0.7148  1.8249
 2764TIP3    H229708   5.442   3.506  14.033 -0.1948 -0.8452 -0.2479
 2765TIP3   OH229709   0.294   5.727   5.276  0.1868 -0.1941 -0.3294
 2765TIP3    H129710   0.358   5.744   5.345 -1.6175 -3.1951  2.3361
 2765TIP3    H229711   0.347   5.703   5.200  2.2306  0.4584  0.8230
 2766TIP3   OH229712   1.691   3.372  13.172  0.5032  0.3256  0.0715
 2766TIP3    H129713   1.618   3.345  13.116  1.2202  0.0171 -0.7395
 2766TIP3    H229714   1.757   3.304  13.160  0.2931 -0.2635  2.0763
 2767TIP3   OH229715   6.962   0.163   5.445 -0.3642 -0.3497 -0.0011
 2767TIP3    H129716   6.998   0.098   5.385 -0.3978 -0.4238  0.0592
 2767TIP3    H229717   7.036   0.219   5.467 -0.4844  0.0473 -0.5892
 2768TIP3   OH229718   5.196   1.882  11.191  0.1841  0.1352 -0.0459
 2768TIP3    H129719   5.279   1.839  11.169 -0.1802  0.6140 -2.6852
 2768TIP3    H229720   5.130   1.830  11.147 -0.5947  1.4604 -0.4947
 2769TIP3   OH229721   3.122   3.814  15.335  0.8092  0.3206  0.5022
 2769TIP3    H129722   3.217   3.811  15.324  0.6782  0.8104 -0.9490
 2769TIP3    H229723   3.088   3.818  15.246 -0.7589 -3.9689  0.6633
 2770TIP3   OH229724   5.292   0.459   3.579 -0.1712 -0.5449 -0.2070
 2770TIP3    H129725   5.304   0.554   3.571 -0.3341 -0.4958  0.0822
 2770TIP3    H229726   5.214   0.450   3.634 -1.3688 -0.8546 -1.8827
 2771TIP3   OH229727   3.858   4.924   3.945  0.2236 -0.2212  0.0929
 2771TIP3    H129728   3.878   4.849   4.001  0.7926  1.8913  2.8760
 2771TIP3    H229729   3.933   4.929   3.885 -0.0555 -2.0904 -0.4835
 2772TIP3   OH229730   0.644   1.460   0.305  0.1691  0.4689  0.0330
 2772TIP3    H129731   0.621   1.378   0.262 -0.0295  0.0443  0.9513
 2772TIP3    H229732   0.638   1.525   0.235  0.3098 -0.2846 -0.6986
 2773TIP3   OH229733   4.596   2.985   0.394 -0.9929  0.3512 -0.3571
 2773TIP3    H129734   4.654   2.954   0.324 -0.7252 -0.5574  0.2531
 2773TIP3    H229735   4.508   2.966   0.362 -0.9483  1.1606 -1.0125
 2774TIP3   OH229736   3.000   2.949  15.625 -0.3812  0.3079  0.1765
 2774TIP3    H129737   3.023   2.873  15.679  0.5968  0.1292 -0.4797
 2774TIP3    H229738   2.919   2.982  15.664 -0.2043 -0.3891  1.1681
 2775TIP3   OH229739   2.983   4.933  13.390 -0.2018 -0.7688 -0.2315
 2775TIP3    H129740   3.051   4.932  13.322  1.8074 -0.1734  1.6636
 2775TIP3    H229741   2.987   4.846  13.429  0.5354 -0.2559  0.8605
 2776TIP3   OH229742   3.899   0.528   1.994 -0.1614 -0.3538 -0.4099
 2776TIP3    H129743   3.865   0.458   1.939 -1.1675 -0.2779  0.0737
 2776TIP3    H229744   3.864   0.508   2.081  1.2642 -0.3885  0.1737
 2777TIP3   OH229745   6.532   1.920  11.954  0.2937  0.0183  0.3123
 2777TIP3    H129746   6.582   1.888  11.878  1.7384  1.1419  0.7303
 2777TIP3    H229747   6.553   2.014  11.958 -1.1682  0.3437  1.0680
 2778TIP3   OH229748   1.882   0.828  13.960 -0.5404 -0.0421  0.0507
 2778TIP3    H129749   1.826   0.752  13.941  0.3096 -1.0682  1.4148
 2778TIP3    H229750   1.822   0.902  13.964 -1.7900 -1.0616  1.1533
 2779TIP3   OH229751   1.295   6.643  14.509  0.3777 -0.8138  0.2567
 2779TIP3    H129752   1.241   6.626  14.432  0.1059  0.0260  0.2542
 2779TIP3    H229753   1.384   6.619  14.482  0.3541 -0.1021 -0.4611
 2780TIP3   OH229754   3.095   6.564   3.827  0.8964  0.2417 -0.5502
 2780TIP3    H129755   3.062   6.521   3.749 -0.4413 -0.0605  0.1538
 2780TIP3    H229756   3.027   6.551   3.893  2.1867  0.0514  0.8274
 2781TIP3   OH229757   0.590   4.318   2.330 -0.0460  0.2866  0.8660
 2781TIP3    H129758   0.594   4.323   2.425 -0.2632  2.0167  0.8052
 2781TIP3    H229759   0.513   4.369   2.306 -0.8855 -1.3929 -0.1682
 2782TIP3   OH229760   2.936   1.781  14.616  0.0713  0.0917  0.2128
 2782TIP3    H129761   2.970   1.712  14.559 -3.2004 -0.4532 -1.2840
 2782TIP3    H229762   2.969   1.862  14.578  0.4107 -0.4293 -0.6409
 2783TIP3   OH229763   5.686   3.043   9.561 -0.5512  0.1480 -0.0636
 2783TIP3    H129764   5.616   3.028   9.624  0.4722 -0.5680  0.9431
 2783TIP3    H229765   5.669   2.980   9.490  0.1314 -1.4446  1.1144
 2784TIP3   OH229766   6.164   5.828   0.110  0.4109  0.4240 -0.3128
 2784TIP3    H129767   6.117   5.746   0.124  1.0236  0.4049  2.0761
 2784TIP3    H229768   6.214   5.841   0.190  0.2354  3.2100 -0.5541
 2785TIP3   OH229769   5.502   6.421  13.774 -0.6574 -0.6564  0.3916
 2785TIP3    H129770   5.537   6.332  13.776  1.2050  0.0253  0.6677
 2785TIP3    H229771   5.419   6.416  13.820 -0.5685 -2.2403  0.4286
 2786TIP3   OH229772   1.178   4.016  10.252 -0.0497 -0.4243 -0.1936
 2786TIP3    H129773   1.140   4.069  10.322 -0.0576 -2.0409  1.0927
 2786TIP3    H229774   1.272   4.029  10.260 -0.0448 -0.6894  0.1901
 2787TIP3   OH229775   4.624   3.774  11.905 -0.2552  0.1943  0.1365
 2787TIP3    H129776   4.693   3.726  11.860  0.2591 -0.4993  1.6016
 2787TIP3    H229777   4.665   3.857  11.929 -0.6031  0.6656 -0.8374
 2788TIP3   OH229778   5.812   0.067  11.263  0.3928  0.7265  0.2185
 2788TIP3    H129779   5.795   0.110  11.179  0.7438  0.0512 -0.2145
 2788TIP3    H229780   5.908   0.060  11.266  0.3425  0.0268  0.2952
 2789TIP3   OH229781   0.986   6.313   2.305  0.0782 -0.3356  0.4711
 2789TIP3    H129782   0.981   6.394   2.356  0.9740  0.8780 -1.2716
 2789TIP3    H229783   0.942   6.248   2.359 -0.5020  1.2684  2.0165
 2790TIP3   OH229784   0.306   1.015  10.496 -0.3699  0.1319  1.0108
 2790TIP3    H129785   0.233   1.061  10.538 -0.4709  1.0858 -0.1505
 2790TIP3    H229786   0.312   1.054  10.409 -0.7587 -2.4163 -0.2487
 2791TIP3   OH229787   0.682   0.426  10.310  0.2652 -0.8164 -0.2803
 2791TIP3    H129788   0.599   0.390  10.278  0.1851 -0.9414  0.0653
 2791TIP3    H229789   0.712   0.483  10.239  0.7217 -2.0527 -1.0913
 2792TIP3   OH229790   6.554   0.821   0.712 -0.2643  0.3889  0.3150
 2792TIP3    H129791   6.513   0.741   0.680 -1.1034  0.5647  0.9270
 2792TIP3    H229792   6.503   0.892   0.672  0.0792  0.6128  0.2724
 2793TIP3   OH229793   4.924   4.291   0.668 -0.9289  0.0702 -0.1136
 2793TIP3    H129794   4.940   4.370   0.719 -1.2361 -0.5435  0.9588
 2793TIP3    H229795   4.834   4.268   0.687 -1.3695  0.3600 -1.7111
 2794TIP3   OH229796   6.668   4.971  10.411 -0.2100  0.2872  0.2996
 2794TIP3    H129797   6.630   5.050  10.449  0.1844  0.9576 -0.6535
 2794TIP3    H229798   6.633   4.899  10.463 -1.1258  1.0404  0.7433
 2795TIP3   OH229799   5.057   6.862  13.260 -0.0665 -0.2526 -0.2587
 2795TIP3    H129800   5.101   6.846  13.344 -0.6615  0.5498  0.2196
 2795TIP3    H229801   5.091   6.946  13.230  0.4291 -0.7148 -1.0201
 2796TIP3   OH229802   1.451   3.339  10.932 -0.7133  0.7136 -0.4192
 2796TIP3    H129803   1.515   3.268  10.940  1.2235  2.1560 -2.2345
 2796TIP3    H229804   1.387   3.306  10.868  1.9757  1.6699 -3.8850
 2797TIP3   OH229805   0.693   0.143   9.613 -0.2972  0.3950 -0.4128
 2797TIP3    H129806   0.781   0.125   9.582 -0.8585 -2.5846 -0.5408
 2797TIP3    H229807   0.647   0.178   9.537 -0.5219 -2.8746 -1.9341
 2798TIP3   OH229808   5.614   6.119   9.529 -0.2626  0.2835  0.0234
 2798TIP3    H129809   5.523   6.090   9.517 -0.3798  0.3378  0.7695
 2798TIP3    H229810   5.625   6.126   9.624 -0.0717  2.1468 -0.0990
 2799TIP3   OH229811   5.355   2.728   4.454 -0.0525 -0.6962  0.3061
 2799TIP3    H129812   5.408   2.789   4.403 -1.5026 -0.3852 -0.9045
 2799TIP3    H229813   5.277   2.779   4.479 -1.9624 -2.3302 -1.8806
 2800TIP3   OH229814   5.676   0.413  14.963  0.3109  0.2720 -0.1676
 2800TIP3    H129815   5.590   0.405  15.004  0.7559  0.3716  0.8116
 2800TIP3    H229816   5.677   0.502  14.928  0.1400  0.3838  0.1077
 2801TIP3   OH229817   0.205   6.158  10.021 -0.2178  0.0972  0.0013
 2801TIP3    H129818   0.133   6.215   9.992 -1.4874 -1.2934  0.2711
 2801TIP3    H229819   0.275   6.172   9.957 -0.7499  1.4444 -0.3101
 2802TIP3   OH229820   5.000   6.703   3.493 -0.6460  0.8485 -0.0274
 2802TIP3    H129821   5.008   6.618   3.536  0.5123  1.2693  0.6188
 2802TIP3    H229822   4.907   6.725   3.500 -0.8884 -0.1797  0.1332
 2803TIP3   OH229823   5.590   5.875  12.030 -1.1888 -0.0167 -0.6571
 2803TIP3    H129824   5.676   5.917  12.024 -1.0225  0.2681  2.1457
 2803TIP3    H229825   5.579   5.858  12.124 -3.8446 -0.8209 -1.0402
 2804TIP3   OH229826   5.229   0.742  10.558 -0.0782  0.1413  0.3549
 2804TIP3    H129827   5.137   0.747  10.581  0.0401 -3.6337  2.3333
 2804TIP3    H229828   5.230   0.696  10.474 -0.0122 -1.8938  1.4220
 2805TIP3   OH229829   1.254   5.541  11.804  0.6212  0.0834 -0.2468
 2805TIP3    H129830   1.230   5.578  11.889 -0.4863  1.1462 -0.9854
 2805TIP3    H229831   1.230   5.449  11.811 -1.3861  0.5721 -0.0566
 2806TIP3   OH229832   1.356   0.327  11.771 -0.2985  0.4781  0.5141
 2806TIP3    H129833   1.264   0.304  11.757  0.3910 -1.4618 -1.3897
 2806TIP3    H229834   1.386   0.359  11.686  1.0248  0.1472  0.8365
 2807TIP3   OH229835   5.603   2.018  11.125 -0.2329 -0.2932 -0.3336
 2807TIP3    H129836   5.629   1.926  11.127 -2.7396 -1.0961 -0.6708
 2807TIP3    H229837   5.541   2.023  11.052 -1.8550  1.1222  1.0563
 2808TIP3   OH229838   4.079   4.947  13.668 -0.0700 -0.0791  0.3578
 2808TIP3    H129839   4.156   4.974  13.617 -0.0847  0.3469  0.5567
 2808TIP3    H229840   4.107   4.957  13.760  0.5924 -2.6090  0.4901
 2809TIP3   OH229841   4.890   3.668  11.632 -0.2030 -0.2370  0.0558
 2809TIP3    H129842   4.834   3.616  11.690 -0.8849 -0.0935 -0.4682
 2809TIP3    H229843   4.837   3.684  11.554  0.6281 -0.2510 -0.5318
 2810TIP3   OH229844   3.988   3.917   0.503  0.1522  0.1497  0.2656
 2810TIP3    H129845   3.949   3.865   0.433  0.1025  0.0471  0.3686
 2810TIP3    H229846   3.948   3.883   0.583 -1.5096  1.7654  0.1923
 2811TIP3   OH229847   2.930   4.897  11.964  0.4925 -0.5203 -0.0706
 2811TIP3    H129848   2.841   4.894  11.929 -0.1362 -0.0496  1.4163
 2811TIP3    H229849   2.945   4.989  11.985  1.7944 -0.3928 -1.3638
 2812TIP3   OH229850   4.924   4.100  10.837 -0.1859  0.3483 -0.5356
 2812TIP3    H129851   4.881   4.022  10.873  0.3721 -0.3269 -1.3225
 2812TIP3    H229852   4.877   4.118  10.755 -0.8636  1.3548  0.0398
 2813TIP3   OH229853   1.877   5.519  10.379 -0.1950 -0.3138 -0.0962
 2813TIP3    H129854   1.973   5.516  10.383 -0.1368 -0.5441 -1.2401
 2813TIP3    H229855   1.858   5.531  10.286 -1.2771  0.0943  0.1670
 2814TIP3   OH229856   1.744   5.864  12.333  0.5198  0.2777  0.0379
 2814TIP3    H129857   1.722   5.784  12.284 -0.1633  0.9238 -0.7412
 2814TIP3    H229858   1.660   5.909  12.343  0.7898  0.5431  1.1228
 2815TIP3   OH229859   4.173   4.505  12.896 -0.2515  0.1249  0.0035
 2815TIP3    H129860   4.216   4.490  12.812  1.8044  0.0664  0.9980
 2815TIP3    H229861   4.080   4.508  12.875  0.1935  0.0711 -2.2561
 2816TIP3   OH229862   1.916   0.555   9.956  0.4210 -0.0748  0.4052
 2816TIP3    H129863   1.927   0.576   9.863 -1.1274 -1.0916 -0.0457
 2816TIP3    H229864   1.961   0.471   9.967 -0.0153 -0.3120  0.3958
 2817TIP3   OH229865   1.891   0.413   9.627 -0.2928 -0.7980  0.1026
 2817TIP3    H129866   1.936   0.389   9.547 -0.8125  1.0517 -0.7894
 2817TIP3    H229867   1.936   0.491   9.659 -2.0120  0.3699 -0.1508
 2818TIP3   OH229868   2.932   3.275  15.273 -0.4300  0.0700 -0.3772
 2818TIP3    H129869   2.976   3.354  15.305  0.3651  0.5761 -2.5332
 2818TIP3    H229870   2.859   3.308  15.220 -1.5291 -0.7227  0.5996
 2819TIP3   OH229871   1.966   0.511  13.484 -0.3317  0.2276 -0.1704
 2819TIP3    H129872   1.939   0.603  13.486 -0.2593  0.2489 -0.1809
 2819TIP3    H229873   1.888   0.464  13.453 -0.2183  0.3411 -0.6428
 2820TIP3   OH229874   5.758   2.987  12.837 -0.1681  0.4748 -0.3922
 2820TIP3    H129875   5.822   2.941  12.892  0.0863  1.7191  0.3774
 2820TIP3    H229876   5.803   3.067  12.811 -0.8520  0.6148 -1.1628
 2821TIP3   OH229877   5.355   4.942  14.632  0.1312  0.1019  0.1742
 2821TIP3    H129878   5.374   5.025  14.589  1.1998 -0.6516 -0.8543
 2821TIP3    H229879   5.328   4.883  14.562 -1.8449 -0.1129  1.0442
 2822TIP3   OH229880   1.317   6.610   9.809 -0.1047  0.3026  0.1033
 2822TIP3    H129881   1.304   6.680   9.745 -0.8575  0.6985  0.6741
 2822TIP3    H229882   1.410   6.587   9.801  0.5829  2.5206  1.0476
 2823TIP3   OH229883   5.875   4.859   1.990  0.3835 -0.0300 -0.2818
 2823TIP3    H129884   5.835   4.838   2.074  0.3207 -0.0140 -0.3076
 2823TIP3    H229885   5.807   4.906   1.942  0.6815  0.6559 -0.0455
 2824TIP3   OH229886   2.837   6.011  10.708 -0.4325 -0.6152  0.7903
 2824TIP3    H129887   2.919   6.033  10.752  0.0207 -0.5877 -0.0636
 2824TIP3    H229888   2.862   5.989  10.619 -1.5351  1.0394  0.0251
 2825TIP3   OH229889   0.519   5.800  10.826  0.3964  0.2683 -0.1566
 2825TIP3    H129890   0.542   5.756  10.744 -0.5243  2.7323 -1.8599
 2825TIP3    H229891   0.586   5.868  10.836  0.9028 -0.4348  1.5773
 2826TIP3   OH229892   5.889   2.996  11.015  0.0067  0.4035 -0.4770
 2826TIP3    H129893   5.913   3.059  10.947  2.2704  0.5871  0.3842
 2826TIP3    H229894   5.925   2.913  10.985 -1.4373 -0.1397 -0.7782
 2827TIP3   OH229895   1.478   6.896  14.250  0.0671  0.2734  0.1978
 2827TIP3    H129896   1.554   6.955  14.240  0.3609  0.4079  2.5948
 2827TIP3    H229897   1.490   6.831  14.181  1.2231  1.4595 -0.8051
 2828TIP3   OH229898   0.810   4.322  13.249  0.1972 -0.1672 -0.2915
 2828TIP3    H129899   0.798   4.242  13.299 -1.8697  0.0800 -0.2768
 2828TIP3    H229900   0.723   4.362  13.247  1.0034  1.6903 -0.9494
 2829TIP3   OH229901   4.664   2.334  13.789  0.1158  0.4309  0.3609
 2829TIP3    H129902   4.713   2.380  13.857  0.7313  0.4177 -0.0705
 2829TIP3    H229903   4.690   2.376  13.707  1.2573 -1.1171 -0.1289
 2830TIP3   OH229904   3.723   6.525  13.775  0.2230 -0.1237  0.9798
 2830TIP3    H129905   3.674   6.595  13.818  0.2623  1.0360 -0.7641
 2830TIP3    H229906   3.742   6.462  13.845 -0.1918  1.3882  2.5103
 2831TIP3   OH229907   0.477   2.250   0.336 -0.2469  0.0886  0.3028
 2831TIP3    H129908   0.474   2.165   0.293  1.2047  0.8385 -1.3891
 2831TIP3    H229909   0.507   2.311   0.268  1.3691  1.4708  2.1335
 2832TIP3   OH229910   6.223   6.962   0.153 -0.8241  0.3834 -0.6079
 2832TIP3    H129911   6.215   6.989   0.061 -0.0878 -0.9483 -1.0930
 2832TIP3    H229912   6.317   6.954   0.167 -0.8318  2.1378  0.7784
 2833TIP3   OH229913   1.943   2.440  15.460 -0.1996 -0.3252 -0.0569
 2833TIP3    H129914   1.942   2.536  15.466  1.8585 -0.0448 -2.4485
 2833TIP3    H229915   1.878   2.411  15.524 -1.2292  2.6665  0.4036
 2834TIP3   OH229916   4.462   2.242  14.928 -0.4050  0.1750  0.4970
 2834TIP3    H129917   4.385   2.221  14.875 -0.4044  0.4939  0.3721
 2834TIP3    H229918   4.527   2.178  14.901 -0.1636  0.7903 -0.4150
 2835TIP3   OH229919   3.397   1.941  10.691  0.0214 -0.3884  0.2194
 2835TIP3    H129920   3.316   1.941  10.639 -0.5727 -0.2813  1.1361
 2835TIP3    H229921   3.414   1.848  10.709  0.8888 -0.5256 -1.1510
 2836TIP3   OH229922   5.186   3.997  10.076 -0.5596 -0.2086  0.0283
 2836TIP3    H129923   5.102   3.966  10.042  0.1449 -0.9955 -1.0504
 2836TIP3    H229924   5.238   3.918  10.089  0.4462  0.3336 -0.5340
 2837TIP3   OH229925   5.387   1.697  11.139 -0.4608 -0.1173 -0.7888
 2837TIP3    H129926   5.463   1.715  11.194 -0.4871 -0.3839 -0.6616
 2837TIP3    H229927   5.366   1.605  11.157  0.2312 -0.5609 -2.1192
 2838TIP3   OH229928   5.604   0.068  11.537  0.1410 -0.0661 -0.5012
 2838TIP3    H129929   5.600   0.075  11.633 -1.1369  0.6992 -0.5805
 2838TIP3    H229930   5.539   0.001  11.516  0.8970 -0.7184 -0.8056
 2839TIP3   OH229931   4.454   7.073  11.728  1.0263 -1.1681 -0.1194
 2839TIP3    H129932   4.547   7.091  11.740  0.7389  0.6632 -0.3370
 2839TIP3    H229933   4.417   7.158  11.702 -0.9549 -1.4712  1.4984
 2840TIP3   OH229934   4.604   1.602   0.713  0.8902 -0.0446 -0.0938
 2840TIP3    H129935   4.539   1.649   0.766  1.3530  1.7780 -1.0705
 2840TIP3    H229936   4.596   1.510   0.742 -0.7861  0.4286  1.1306
 2841TIP3   OH229937   0.925   2.674  15.413  0.4224  0.0600  0.0740
 2841TIP3    H129938   0.832   2.698  15.417  0.3934 -0.0894  0.3042
 2841TIP3    H229939   0.925   2.578  15.418  0.6049  0.0756  0.3902
 2842TIP3   OH229940   6.840   6.774  11.074 -0.3779 -0.2401  0.0218
 2842TIP3    H129941   6.891   6.697  11.098 -1.2836 -0.3404  1.7735
 2842TIP3    H229942   6.819   6.761  10.981  0.0803 -1.7485  0.1091
 2843TIP3   OH229943   2.428   0.079  11.787 -0.4762 -0.4150  0.1828
 2843TIP3    H129944   2.336   0.068  11.812 -0.2383 -1.4680  0.6348
 2843TIP3    H229945   2.439   0.174  11.778 -1.3158 -0.1954  1.2527
 2844TIP3   OH229946   4.293   5.704   0.710 -0.5411  0.8169 -0.4632
 2844TIP3    H129947   4.229   5.645   0.670  0.8737 -0.3312 -1.1247
 2844TIP3    H229948   4.290   5.783   0.655 -0.6261  0.3507 -1.1409
 2845TIP3   OH229949   1.665   0.338   0.098 -0.2971  0.2464 -0.1178
 2845TIP3    H129950   1.711   0.256   0.115  1.9733  1.2447 -1.0928
 2845TIP3    H229951   1.686   0.359   0.007 -2.0693  1.1844 -0.3654
 2846TIP3   OH229952   2.280   6.180  10.365  0.4660  0.6260  0.4893
 2846TIP3    H129953   2.196   6.224  10.350 -0.1896 -0.2652  1.4053
 2846TIP3    H229954   2.344   6.234  10.319 -0.4170  2.1134  0.9357
 2847TIP3   OH229955   6.214   4.162   3.887 -0.2325  0.0631  0.1436
 2847TIP3    H129956   6.133   4.115   3.869 -0.4720 -0.0312  1.3732
 2847TIP3    H229957   6.236   4.204   3.804 -0.6727 -1.1981 -0.6436
 2848TIP3   OH229958   1.425   3.012  12.856 -0.0367 -0.3891 -0.1226
 2848TIP3    H129959   1.424   3.006  12.952  0.5653  0.5424 -0.0402
 2848TIP3    H229960   1.372   2.938  12.826  0.4358 -1.1716  0.9076
 2849TIP3   OH229961   3.526   5.595   1.130 -0.0793 -0.1339  0.3458
 2849TIP3    H129962   3.449   5.564   1.082 -0.2911  3.2336 -1.8520
 2849TIP3    H229963   3.592   5.610   1.062  1.4855 -0.0770  1.8122
 2850TIP3   OH229964   4.114   1.549   0.862  0.2514 -0.0497 -0.2789
 2850TIP3    H129965   4.194   1.504   0.888 -0.6856 -1.2953  0.5064
 2850TIP3    H229966   4.048   1.521   0.924 -1.2755 -0.5131 -2.0052
 2851TIP3   OH229967   2.917   0.342  15.572 -0.2174  0.1548  0.0497
 2851TIP3    H129968   2.933   0.325  15.480  3.2115 -0.0060  0.5689
 2851TIP3    H229969   2.944   0.262  15.617 -0.2151  0.8244  1.3119
 2852TIP3   OH229970   0.206   5.185  14.203 -0.1317 -0.3549 -0.0490
 2852TIP3    H129971   0.298   5.210  14.219 -0.8991  2.7886  0.1460
 2852TIP3    H229972   0.159   5.217  14.280 -1.8653  1.5453 -1.7938
 2853TIP3   OH229973   0.072   0.955   9.886  0.0944 -0.7810 -0.3057
 2853TIP3    H129974   0.131   0.881   9.870  0.8117 -0.7692  1.9333
 2853TIP3    H229975  -0.013   0.925   9.854  0.0441 -3.2206  1.8150
 2854TIP3   OH229976   0.114   3.394  10.750  0.1365  0.0405 -0.1797
 2854TIP3    H129977   0.024   3.363  10.750 -0.4580  1.4406 -2.9709
 2854TIP3    H229978   0.167   3.315  10.755 -1.0553 -0.7659  3.7979
 2855TIP3   OH229979   6.866   1.073  11.868  0.0578 -0.2439 -0.4160
 2855TIP3    H129980   6.842   1.152  11.916 -0.2445 -0.7206  0.2344
 2855TIP3    H229981   6.873   1.101  11.777 -0.0427  0.5289 -0.1913
 2856TIP3   OH229982   6.865   2.858  12.634  0.4605 -0.0220 -0.0119
 2856TIP3    H129983   6.869   2.843  12.728 -0.8670  2.0226  0.4331
 2856TIP3    H229984   6.771   2.869  12.615  0.7173 -0.1939 -1.5497
 2857TIP3   OH229985   0.249   6.074  12.259 -0.2145  0.1776  0.6230
 2857TIP3    H129986   0.161   6.100  12.287  0.2589  1.6666  0.7943
 2857TIP3    H229987   0.293   6.048  12.340 -0.2943  0.0479  0.6253
 2858TIP3   OH229988   5.232   1.150  12.042  0.0681 -0.2673 -0.7304
 2858TIP3    H129989   5.300   1.182  12.102 -1.0636 -1.9108  1.5623
 2858TIP3    H229990   5.192   1.230  12.008  0.5978  0.7589  0.9091
 2859TIP3   OH229991   3.453   4.840   9.588 -0.0543 -0.3575 -0.0629
 2859TIP3    H129992   3.417   4.832   9.676 -0.2223  0.3565 -0.0551
 2859TIP3    H229993   3.485   4.930   9.584  0.0355 -0.4132 -0.7007
 2860TIP3   OH229994   5.553   6.748   9.993  0.1093  0.8388 -0.0319
 2860TIP3    H129995   5.621   6.702  10.042  0.5588  2.2765  0.7625
 2860TIP3    H229996   5.540   6.696   9.913  1.7577  0.2577  0.0563
 2861TIP3   OH229997   7.049   4.999  14.403 -0.0855 -0.6729 -0.2449
 2861TIP3    H129998   7.079   5.077  14.450 -0.2699 -0.6372 -0.1848
 2861TIP3    H229999   7.104   4.995  14.325 -0.6439  0.0056 -0.6844
 2862TIP3   OH230000   5.343   0.492   4.000  0.1387 -0.2435 -0.1352
 2862TIP3    H130001   5.415   0.540   4.040  0.6757 -0.5507 -0.7119
 2862TIP3    H230002   5.380   0.455   3.920 -1.1922  1.3694 -1.5943
 2863TIP3   OH230003   6.686   5.348   3.155  0.8586  0.0430 -0.2871
 2863TIP3    H130004   6.752   5.340   3.087 -0.3217  2.4316 -1.8420
 2863TIP3    H230005   6.735   5.374   3.233  1.8053  1.5822 -1.3520
 2864TIP3   OH230006   1.926   5.263   0.236  0.3119  0.3140  0.1157
 2864TIP3    H130007   1.863   5.220   0.294  0.1366  1.5905  0.9040
 2864TIP3    H230008   1.949   5.196   0.172 -1.0267 -0.5069  0.4564
 2865TIP3   OH230009   5.901   1.545  11.704  0.4024 -0.0362  0.1845
 2865TIP3    H130010   5.956   1.574  11.631  1.5271 -1.4470  0.4345
 2865TIP3    H230011   5.940   1.586  11.781 -0.0835  0.5117  0.1488
 2866TIP3   OH230012   6.363   2.618   2.597 -0.5684  0.1766  0.0442
 2866TIP3    H130013   6.334   2.565   2.671  1.1420 -0.6567  0.1394
 2866TIP3    H230014   6.382   2.704   2.635  1.6652 -0.6337  0.9043
 2867TIP3   OH230015   3.683   4.941  10.602 -0.3760  0.3931 -0.0316
 2867TIP3    H130016   3.718   4.921  10.689 -1.2601  0.2974  0.3162
 2867TIP3    H230017   3.635   4.862  10.577 -0.5016  0.5896 -0.4197
 2868TIP3   OH230018   2.951   3.595  10.822  0.0296  0.2098 -0.5511
 2868TIP3    H130019   2.906   3.557  10.898 -0.0166 -1.7829 -1.5360
 2868TIP3    H230020   3.032   3.632  10.859  0.2899 -1.2451  0.4113
 2869TIP3   OH230021   1.898   1.431   3.470 -0.5278  0.6755 -0.0778
 2869TIP3    H130022   1.852   1.428   3.554  0.0436  2.3604  0.3261
 2869TIP3    H230023   1.951   1.510   3.474  1.1018 -0.3077 -1.2223
 2870TIP3   OH230024   3.982   4.557  11.631 -0.3776  0.0591  0.0364
 2870TIP3    H130025   4.044   4.630  11.640  0.1037 -0.3861  0.3882
 2870TIP3    H230026   3.984   4.514  11.717 -1.0228 -0.0831 -0.0182
 2871TIP3   OH230027   1.448   4.506  10.431  0.3857 -0.4227 -0.2519
 2871TIP3    H130028   1.449   4.417  10.395 -3.8135  0.4082 -3.1281
 2871TIP3    H230029   1.491   4.559  10.364 -0.8076  0.1972 -0.5478
 2872TIP3   OH230030   0.616   1.707  13.499  0.4162 -0.0055  0.1465
 2872TIP3    H130031   0.678   1.771  13.533 -0.3790  0.9244 -0.1085
 2872TIP3    H230032   0.597   1.650  13.573 -0.3868  1.2730  0.9591
 2873TIP3   OH230033   2.780   0.834  12.148 -0.2109  0.4742 -0.9247
 2873TIP3    H130034   2.875   0.832  12.155 -0.1183 -1.6320 -2.0848
 2873TIP3    H230035   2.755   0.745  12.125 -2.4399  1.0984 -1.2159
 2874TIP3   OH230036   2.354   1.280  10.292  0.6145 -0.3640  0.6553
 2874TIP3    H130037   2.441   1.320  10.290  1.2065 -1.6169 -0.9817
 2874TIP3    H230038   2.363   1.207  10.354  1.5884 -2.1576 -1.4643
 2875TIP3   OH230039   4.755   0.971  13.925  0.1928 -0.6941 -0.0740
 2875TIP3    H130040   4.733   0.880  13.906 -0.9630 -0.3281 -0.6110
 2875TIP3    H230041   4.711   0.989  14.008  0.1525 -0.5258 -0.1330
 2876TIP3   OH230042   4.990   0.654  10.801  0.2230  0.3410 -0.5421
 2876TIP3    H130043   4.977   0.725  10.739  1.3378  1.8267  0.8395
 2876TIP3    H230044   4.949   0.685  10.882  2.1742  0.1992  0.5733
 2877TIP3   OH230045   6.541   6.399  14.135 -0.3648  0.4312  0.1001
 2877TIP3    H130046   6.448   6.378  14.133 -0.6119  1.4025  0.5207
 2877TIP3    H230047   6.577   6.358  14.057 -0.7448 -1.6732  0.9611
 2878TIP3   OH230048   0.853   0.058   0.877 -0.4276 -0.3128  0.0829
 2878TIP3    H130049   0.867   0.058   0.972  1.9751 -2.1970 -0.2004
 2878TIP3    H230050   0.778   0.117   0.865 -2.2208 -1.6192  3.3218
 2879TIP3   OH230051   1.811   2.561  12.292  0.4974  0.0067  0.5872
 2879TIP3    H130052   1.900   2.529  12.282 -0.2163 -1.4869 -1.9368
 2879TIP3    H230053   1.764   2.488  12.333 -0.8751 -2.1590 -4.1257
 2880TIP3   OH230054   5.873   3.742  13.495 -0.3758 -0.2320  0.0154
 2880TIP3    H130055   5.955   3.783  13.523 -0.4806  0.0281 -0.0508
 2880TIP3    H230056   5.856   3.675  13.561 -1.2521  1.1818  1.3098
 2881TIP3   OH230057   6.755   2.648  13.764 -0.5933 -0.5160 -0.3619
 2881TIP3    H130058   6.805   2.706  13.821 -0.6121 -0.5380 -0.3233
 2881TIP3    H230059   6.697   2.707  13.715  0.3866 -0.3376 -1.3674
 2882TIP3   OH230060   2.002   5.147  12.882  0.2322 -0.3962  0.1560
 2882TIP3    H130061   1.999   5.054  12.903 -1.5517 -0.6987 -1.2431
 2882TIP3    H230062   1.927   5.184  12.928  0.2398  0.1509 -0.2663
 2883TIP3   OH230063   2.454   4.157   5.967  0.5100  0.1197  0.3823
 2883TIP3    H130064   2.430   4.080   5.916  1.9345  0.4532 -0.8659
 2883TIP3    H230065   2.530   4.194   5.921  1.3328  0.9356  2.2659
 2884TIP3   OH230066   5.493   6.167   0.428 -0.6222  0.0768  0.3633
 2884TIP3    H130067   5.567   6.113   0.455 -0.4352 -0.4726 -1.1671
 2884TIP3    H230068   5.424   6.146   0.491  0.8659  1.6286  2.6895
 2885TIP3   OH230069   2.732   3.723  14.804  0.7317  0.2082  0.4565
 2885TIP3    H130070   2.825   3.724  14.778  1.0407 -2.2158  1.2863
 2885TIP3    H230071   2.734   3.733  14.899  0.0938  0.6546  0.4261
 2886TIP3   OH230072   0.541   1.333  10.529 -0.4023 -0.3799 -0.3759
 2886TIP3    H130073   0.509   1.424  10.534 -1.4465 -0.8147  2.4296
 2886TIP3    H230074   0.538   1.313  10.435 -3.1372  1.4913 -0.8330
 2887TIP3   OH230075   6.830   1.683  14.113 -0.1383 -0.2785  0.5395
 2887TIP3    H130076   6.890   1.662  14.041 -0.8358  0.0482 -0.1564
 2887TIP3    H230077   6.759   1.733  14.071 -0.4499  0.1023  1.4916
 2888TIP3   OH230078   5.616   6.348  10.295  0.1322  0.3356  0.1237
 2888TIP3    H130079   5.586   6.291  10.365  1.6149 -0.6965 -0.0528
 2888TIP3    H230080   5.694   6.391  10.331  1.5732 -1.0482 -1.2388
 2889TIP3   OH230081   2.991   3.671  12.474  0.2109  0.0878  0.2293
 2889TIP3    H130082   3.042   3.590  12.470 -0.9267 -0.7054  0.9114
 2889TIP3    H230083   2.954   3.671  12.563 -0.6632  0.8064 -0.1196
 2890TIP3   OH230084   4.577   5.308  10.203  0.5477 -0.4662 -0.1660
 2890TIP3    H130085   4.512   5.253  10.160  0.7669 -2.1052  1.4490
 2890TIP3    H230086   4.657   5.255  10.203  1.0676  0.2899  0.4664
 2891TIP3   OH230087   6.452   1.067  12.639  0.1231 -0.5032 -0.5314
 2891TIP3    H130088   6.416   0.998  12.584  0.7290  0.2970 -1.9700
 2891TIP3    H230089   6.431   1.149  12.593  2.6451  0.0725 -0.8252
 2892TIP3   OH230090   3.665   5.993   2.963 -0.0510  0.9322 -0.8550
 2892TIP3    H130091   3.736   6.009   3.026  0.8024  1.3789 -1.9105
 2892TIP3    H230092   3.585   6.003   3.015  0.6194 -0.9910  0.7088
 2893TIP3   OH230093   4.629   3.509   2.879 -0.9731 -0.3929 -0.4815
 2893TIP3    H130094   4.601   3.424   2.913 -0.0113 -1.1637 -1.5515
 2893TIP3    H230095   4.550   3.544   2.837 -2.1214  0.4724  2.1503
 2894TIP3   OH230096   1.063   1.442  11.377 -0.5568 -0.1526  0.4124
 2894TIP3    H130097   0.993   1.411  11.320 -0.5830  0.1097  0.3005
 2894TIP3    H230098   1.135   1.464  11.317 -1.2142  1.8329  0.3102
 2895TIP3   OH230099   4.548   0.951  10.561  0.1671 -0.5395 -0.4431
 2895TIP3    H130100   4.526   0.937  10.469 -0.1330 -0.1337 -0.4368
 2895TIP3    H230101   4.501   1.031  10.585  1.2080  0.0420 -0.2724
 2896TIP3   OH230102   6.093   4.807  13.410 -0.5094 -0.0373  0.0244
 2896TIP3    H130103   6.040   4.887  13.416  2.2300  2.0108 -0.8670
 2896TIP3    H230104   6.168   4.823  13.467  1.5744 -0.6657 -2.3408
 2897TIP3   OH230105   2.931   3.317   1.391 -0.2329  0.2026 -0.1594
 2897TIP3    H130106   2.873   3.249   1.357 -1.0305  0.8138 -0.0533
 2897TIP3    H230107   3.004   3.269   1.431 -1.4040 -0.6438  1.0498
 2898TIP3   OH230108   1.578   4.458  11.594 -0.3686 -0.5989  0.3655
 2898TIP3    H130109   1.651   4.427  11.540 -1.7653 -1.6664 -1.0075
 2898TIP3    H230110   1.507   4.475  11.531 -0.9459  1.6245  1.5154
 2899TIP3   OH230111   4.164   3.267  11.269 -0.3269  0.8879 -0.2140
 2899TIP3    H130112   4.134   3.225  11.350 -0.7463 -1.2452 -1.3910
 2899TIP3    H230113   4.084   3.275  11.217  0.0128  1.8546 -0.5957
 2900TIP3   OH230114   2.459   0.058   3.435  0.5641  0.4587 -0.2676
 2900TIP3    H130115   2.468  -0.026   3.391 -0.8202  0.4928 -0.6856
 2900TIP3    H230116   2.491   0.122   3.372  1.9131  0.2413  0.1712
 2901TIP3   OH230117   0.365   3.449   1.535 -0.2207 -0.1637  0.0632
 2901TIP3    H130118   0.316   3.500   1.599 -1.2751 -1.0928  0.0362
 2901TIP3    H230119   0.311   3.451   1.456 -0.5241 -1.6584  0.1987
 2902TIP3   OH230120   5.065   4.231  14.996 -0.0027  0.4507 -0.7592
 2902TIP3    H130121   5.160   4.237  15.011  0.2814  0.2127 -2.3355
 2902TIP3    H230122   5.054   4.148  14.949 -1.1624 -0.1685  0.5345
 2903TIP3   OH230123   2.585   2.587  14.064  0.1096  0.2468  0.1998
 2903TIP3    H130124   2.637   2.606  13.986  1.4313 -0.7484  0.7907
 2903TIP3    H230125   2.642   2.612  14.138 -0.5597 -0.1278  0.8576
 2904TIP3   OH230126   0.345   2.844   1.462 -0.1769 -0.3593 -0.2363
 2904TIP3    H130127   0.254   2.818   1.445  0.5910 -1.9733 -2.3518
 2904TIP3    H230128   0.349   2.857   1.557 -2.0432 -2.7914  0.2946
 2905TIP3   OH230129   1.997   1.474  10.947 -0.3971 -0.4133 -0.6491
 2905TIP3    H130130   2.000   1.545  10.883  2.2064 -0.1265 -0.3161
 2905TIP3    H230131   1.942   1.508  11.018  0.9996  1.4499 -0.3747
 2906TIP3   OH230132   7.025   6.488  12.875 -0.4691  0.4485 -0.1537
 2906TIP3    H130133   7.061   6.405  12.842  2.2008  1.6338 -0.4219
 2906TIP3    H230134   6.970   6.519  12.803  0.0668 -0.1506 -0.8386
 2907TIP3   OH230135   1.487   3.821  13.985  0.0488 -0.5443  0.3806
 2907TIP3    H130136   1.447   3.907  13.999 -0.3932 -0.8590  1.1429
 2907TIP3    H230137   1.443   3.787  13.907 -1.7125 -1.1642  1.5850
 2908TIP3   OH230138   1.786   2.040  12.534  0.5434 -0.4427  0.6011
 2908TIP3    H130139   1.718   2.025  12.469  1.2844 -0.9427 -0.0906
 2908TIP3    H230140   1.743   2.026  12.618 -0.3092 -0.2846  0.2021
 2909TIP3   OH230141   6.663   0.269  12.039  0.3312 -0.3858  0.2747
 2909TIP3    H130142   6.622   0.355  12.047  0.8718 -0.0524 -0.5186
 2909TIP3    H230143   6.650   0.229  12.125 -0.2600  0.3326  0.5326
 2910TIP3   OH230144   3.808   3.277  15.117 -0.6730  0.3549 -0.2550
 2910TIP3    H130145   3.752   3.350  15.092 -0.7494  0.4328  0.1295
 2910TIP3    H230146   3.845   3.303  15.202 -0.8690 -0.1383 -0.0117
 2911TIP3   OH230147   6.699   4.782  15.442  0.5277 -0.5682  0.2783
 2911TIP3    H130148   6.739   4.845  15.501 -0.9578  2.1184 -1.3617
 2911TIP3    H230149   6.621   4.751  15.488  0.5905 -0.2481  0.6001
 2912TIP3   OH230150   5.759   7.034  10.784  0.2341  0.1469 -0.1815
 2912TIP3    H130151   5.779   6.954  10.737 -1.2321 -0.1392 -0.3848
 2912TIP3    H230152   5.787   7.018  10.874  1.6162  0.1081 -0.6062
 2913TIP3   OH230153   6.134   4.396  11.648 -0.2151  0.3674 -0.1053
 2913TIP3    H130154   6.104   4.415  11.559 -1.2803  1.9298  0.5399
 2913TIP3    H230155   6.111   4.304  11.661 -0.5893  0.2779 -1.2286
 2914TIP3   OH230156   5.170   1.373   0.733 -0.2514 -0.0185  0.2028
 2914TIP3    H130157   5.130   1.375   0.646 -0.2472 -1.0532  0.1662
 2914TIP3    H230158   5.259   1.340   0.717  0.6958  2.2498  0.2786
 2915TIP3   OH230159   1.468   5.826  14.577  1.0324  0.0314 -0.0767
 2915TIP3    H130160   1.410   5.902  14.581  1.0976  0.2797 -2.3504
 2915TIP3    H230161   1.433   5.766  14.644 -0.4809  1.0738  0.1280
 2916TIP3   OH230162   6.932   4.321  10.776 -0.3038  0.3051 -0.2365
 2916TIP3    H130163   6.922   4.384  10.704 -0.5272  1.1979  0.5604
 2916TIP3    H230164   6.888   4.363  10.850 -0.2464 -0.6938  0.3718
 2917TIP3   OH230165   5.230   3.878   0.028 -0.0999 -0.0733  0.0874
 2917TIP3    H130166   5.192   3.961   0.057  0.7962 -0.1757  1.6695
 2917TIP3    H230167   5.156   3.830  -0.009 -1.2386  0.3609  1.6603
 2918TIP3   OH230168   7.115   6.319   9.883 -0.3025 -0.3688 -0.2634
 2918TIP3    H130169   7.064   6.238   9.891 -0.8335  0.0999  1.5120
 2918TIP3    H230170   7.050   6.388   9.871 -0.1017  0.1790  1.5749
 2919TIP3   OH230171   0.551   5.576  14.300  0.2665 -0.3739  0.2384
 2919TIP3    H130172   0.560   5.633  14.224  3.6498 -2.6703 -1.3358
 2919TIP3    H230173   0.623   5.601  14.358 -2.3037  1.4023  2.9402
 2920TIP3   OH230174   3.604   2.026   0.701  0.0726  0.4620 -0.1842
 2920TIP3    H130175   3.551   1.949   0.723 -1.6548  1.1345 -1.6945
 2920TIP3    H230176   3.605   2.078   0.781  0.8006 -0.8521  0.6942
 2921TIP3   OH230177   3.036   6.230  14.932  0.3759  0.5923  0.4905
 2921TIP3    H130178   3.024   6.289  14.857 -1.7645  0.5772  0.7744
 2921TIP3    H230179   3.040   6.143  14.894 -1.1906  0.5431  0.4078
 2922TIP3   OH230180   1.471   7.051  12.649  0.1644  0.0528  0.0025
 2922TIP3    H130181   1.502   7.070  12.738  1.2215 -0.4069 -0.2487
 2922TIP3    H230182   1.376   7.056  12.655  0.0590 -2.3152  1.7501
 2923TIP3   OH230183   2.850   1.063   2.678  0.0940 -0.3365 -0.3116
 2923TIP3    H130184   2.903   0.992   2.642  0.8642  0.6840 -1.2546
 2923TIP3    H230185   2.907   1.139   2.677 -0.8780  0.4309  0.2088
 2924TIP3   OH230186   3.306   5.603  12.326 -0.3940  0.4680  0.2380
 2924TIP3    H130187   3.346   5.687  12.349 -0.4708  0.3660  0.7709
 2924TIP3    H230188   3.326   5.591  12.233 -1.5973  1.7501 -0.2251
 2925TIP3   OH230189   2.014   2.940   0.359 -0.3165  0.2404 -0.3669
 2925TIP3    H130190   1.947   3.008   0.355 -0.2768  0.2927 -0.1463
 2925TIP3    H230191   1.993   2.890   0.437 -0.4067 -0.0669 -0.5845
 2926TIP3   OH230192   0.977   7.054   2.987  0.2280  0.2552 -0.3367
 2926TIP3    H130193   0.974   7.087   2.897  0.2369 -0.3870 -0.5724
 2926TIP3    H230194   1.070   7.037   3.003  0.1264 -0.4975 -0.5234
 2927TIP3   OH230195   5.486   5.609  14.561 -0.4114 -0.7442 -0.0978
 2927TIP3    H130196   5.527   5.611  14.475 -0.2055 -2.0503 -0.0525
 2927TIP3    H230197   5.530   5.678  14.611 -0.1078 -0.3907 -0.8433
 2928TIP3   OH230198   5.744   1.993  14.907 -0.1017  0.2028 -0.2951
 2928TIP3    H130199   5.766   2.024  14.994  0.8227 -1.4593  0.0889
 2928TIP3    H230200   5.816   2.022  14.851 -0.5086  0.9409 -0.4476
 2929TIP3   OH230201   2.209   3.302  14.417 -0.1488  0.0451 -0.3556
 2929TIP3    H130202   2.195   3.259  14.501 -0.3272  2.6705  1.0658
 2929TIP3    H230203   2.126   3.291  14.371  0.2198 -2.1344 -0.6152
 2930TIP3   OH230204   6.863   0.212   4.710  0.3551 -0.4379 -0.0080
 2930TIP3    H130205   6.825   0.127   4.730  0.0297 -0.3986 -0.4288
 2930TIP3    H230206   6.939   0.192   4.654 -0.1463 -0.4217 -0.7130
 2931TIP3   OH230207   6.392   6.955  10.184 -0.2248  0.2175  0.5614
 2931TIP3    H130208   6.446   6.884  10.150  2.2189  2.1508  0.1872
 2931TIP3    H230209   6.346   6.988  10.106 -1.7427 -1.1525  0.8121
 2932TIP3   OH230210   1.360   2.818  10.419 -0.7781 -0.2828 -0.1522
 2932TIP3    H130211   1.435   2.783  10.467 -0.3801  1.2191  0.3827
 2932TIP3    H230212   1.392   2.836  10.331 -1.8299 -4.2518 -1.5673
 2933TIP3   OH230213   6.516   6.739  13.508 -0.3147  0.1273 -0.0448
 2933TIP3    H130214   6.515   6.775  13.597 -2.3224  1.6395 -0.5836
 2933TIP3    H230215   6.576   6.796  13.460 -0.0895  0.0040  0.0893
 2934TIP3   OH230216   6.073   2.988  15.074  0.2213  0.0501 -0.0823
 2934TIP3    H130217   6.075   2.956  15.165  3.3525 -3.2936 -1.1154
 2934TIP3    H230218   6.025   2.921  15.026  2.2751 -0.5080 -1.4881
 2935TIP3   OH230219   1.706   0.460   2.457 -0.3316  0.1705  0.2169
 2935TIP3    H130220   1.651   0.538   2.455  0.3942  0.6789 -0.2380
 2935TIP3    H230221   1.747   0.457   2.371  0.0449 -0.4292  0.4115
 2936TIP3   OH230222   3.087   1.571   1.220 -0.4458 -0.3737 -0.0955
 2936TIP3    H130223   3.021   1.506   1.243 -0.5113 -1.2236 -2.4850
 2936TIP3    H230224   3.160   1.520   1.184  0.2270  0.7643 -0.4038
 2937TIP3   OH230225   5.133   1.161  13.466 -0.4408  0.1347 -0.1488
 2937TIP3    H130226   5.039   1.181  13.459 -0.4778  0.2201  0.5282
 2937TIP3    H230227   5.136   1.067  13.485 -0.3878  0.1097 -0.2849
 2938TIP3   OH230228   3.728   0.039   2.343 -0.3506  0.2246  0.5730
 2938TIP3    H130229   3.799   0.101   2.325  0.4372 -0.8901 -0.2448
 2938TIP3    H230230   3.663   0.055   2.274 -0.8806  1.1719  1.2611
 2939TIP3   OH230231   0.003   6.113  10.199  0.0727 -0.1781  0.1062
 2939TIP3    H130232  -0.065   6.119  10.131  0.7871 -0.6429 -0.6637
 2939TIP3    H230233   0.085   6.105  10.150  0.3526 -4.0656  0.9315
 2940TIP3   OH230234   7.010   1.178   0.438 -0.0994 -0.6165  0.3030
 2940TIP3    H130235   6.941   1.120   0.406 -0.2972 -0.4363  0.4021
 2940TIP3    H230236   6.971   1.224   0.512  0.5867 -1.5636  1.2827
 2941TIP3   OH230237   5.420   1.658  15.614 -0.5235 -0.1899  0.0425
 2941TIP3    H130238   5.339   1.686  15.656 -0.0615  1.2396  0.0631
 2941TIP3    H230239   5.478   1.636  15.686 -0.1398  1.0614  0.1359
 2942TIP3   OH230240   0.142   5.472  11.684  0.2044  0.4764 -0.1336
 2942TIP3    H130241   0.212   5.448  11.744 -1.4616 -0.6808  1.4665
 2942TIP3    H230242   0.133   5.567  11.694  0.1257  0.3402  1.2918
 2943TIP3   OH230243   0.519   5.747   0.362 -0.2378 -0.5437 -0.5599
 2943TIP3    H130244   0.468   5.756   0.443 -0.2762 -1.5803 -0.4573
 2943TIP3    H230245   0.461   5.703   0.301 -0.1113 -0.0144 -1.0768
 2944TIP3   OH230246   1.835   0.304  12.242  0.1608 -0.2874  0.1976
 2944TIP3    H130247   1.818   0.238  12.174  0.2772 -0.3726  0.2508
 2944TIP3    H230248   1.801   0.385  12.205 -3.3198 -0.9682  1.5416
 2945TIP3   OH230249   1.505   6.106  15.425 -0.2154 -0.4273 -0.6608
 2945TIP3    H130250   1.588   6.137  15.389 -0.8730  0.5424 -1.3852
 2945TIP3    H230251   1.529   6.063  15.507  0.9263  0.4570 -0.5134
 2946TIP3   OH230252   0.059   6.404  12.596  0.6211 -0.2035 -0.3361
 2946TIP3    H130253   0.055   6.352  12.676  0.3564  0.1679 -0.0982
 2946TIP3    H230254   0.074   6.494  12.627 -0.5234  0.1128 -0.6266
 2947TIP3   OH230255   4.998   6.944  12.543  0.1391  0.2612 -0.2298
 2947TIP3    H130256   4.940   6.918  12.471  0.8770  2.6178 -1.8016
 2947TIP3    H230257   4.959   6.905  12.621 -2.7318  0.5212 -1.4137
 2948TIP3   OH230258   4.356   1.416  11.468 -0.1558 -0.0764  0.3518
 2948TIP3    H130259   4.351   1.321  11.463 -2.4282 -0.0757  1.6457
 2948TIP3    H230260   4.389   1.434  11.556 -0.1950  0.3542  0.2811
 2949TIP3   OH230261   0.690   3.852   9.892 -0.2623 -0.4809 -0.5772
 2949TIP3    H130262   0.646   3.840   9.976 -0.6147  0.5103 -0.5959
 2949TIP3    H230263   0.780   3.824   9.907 -0.6845 -1.7435 -0.2977
 2950TIP3   OH230264   2.539   1.009  11.809  0.0713  0.1670 -0.0428
 2950TIP3    H130265   2.618   1.026  11.759 -0.6554  1.1824 -0.8721
 2950TIP3    H230266   2.507   0.925  11.776  0.8239 -0.2828  0.3476
 2951TIP3   OH230267   1.920   0.863  11.979  0.3341 -0.2907  0.2362
 2951TIP3    H130268   1.923   0.897  12.069  0.5099  0.4459 -0.0407
 2951TIP3    H230269   1.952   0.773  11.986 -0.7975 -0.6531  1.0973
 2952TIP3   OH230270   5.390   0.713   9.742 -0.6369 -0.0929 -0.2147
 2952TIP3    H130271   5.371   0.650   9.673 -1.1927 -0.7612  0.5303
 2952TIP3    H230272   5.337   0.684   9.816 -2.2154  2.1882 -0.3436
 2953TIP3   OH230273   0.394   0.387  13.731  0.1809 -0.2929 -0.4823
 2953TIP3    H130274   0.329   0.325  13.763  0.8572 -1.9987 -2.2435
 2953TIP3    H230275   0.434   0.422  13.811 -2.5663  0.5293  0.6247
 2954TIP3   OH230276   3.850   6.031   0.638  0.0401 -0.0568  0.3449
 2954TIP3    H130277   3.866   6.123   0.618  1.9775 -0.4354 -0.0659
 2954TIP3    H230278   3.790   6.002   0.570 -0.6681  0.9052  0.5313
 2955TIP3   OH230279   4.879   5.269   0.058  0.4954  0.1061  0.2012
 2955TIP3    H130280   4.921   5.246  -0.025  0.9319  1.2434  0.0877
 2955TIP3    H230281   4.952   5.291   0.116  0.1415  0.5170  0.5027
 2956TIP3   OH230282   5.996   1.982   3.192  0.1309 -0.3955 -0.1053
 2956TIP3    H130283   6.076   2.035   3.196  0.1414 -0.4559  0.6837
 2956TIP3    H230284   5.987   1.959   3.099  1.1218 -0.5283 -0.1834
 2957TIP3   OH230285   3.582   7.003   1.102 -0.3324  0.8109  0.3105
 2957TIP3    H130286   3.545   7.089   1.084 -0.7984  0.3045 -1.3231
 2957TIP3    H230287   3.517   6.960   1.157 -1.8178  0.2705 -1.7586
 2958TIP3   OH230288   4.839   4.875   1.629 -0.0694  0.2001 -0.2741
 2958TIP3    H130289   4.766   4.849   1.685 -0.3371  0.7437 -0.3630
 2958TIP3    H230290   4.802   4.873   1.540 -0.2585  1.4193 -0.2310
 2959TIP3   OH230291   4.533   3.253  13.921  0.1660 -0.0724  0.2762
 2959TIP3    H130292   4.566   3.193  13.855 -0.1945 -2.7504  2.3369
 2959TIP3    H230293   4.441   3.228  13.933 -0.2263  1.4254  0.6717
 2960TIP3   OH230294   6.662   5.985  11.723  0.0224 -0.0504 -0.3125
 2960TIP3    H130295   6.589   6.031  11.765  0.3348 -1.2485  1.6988
 2960TIP3    H230296   6.629   5.897  11.706  0.9133 -0.5529  0.4593
 2961TIP3   OH230297   1.348   5.250  11.430 -0.1161 -0.2017  0.1759
 2961TIP3    H130298   1.276   5.311  11.444  0.0902  0.2216 -0.5533
 2961TIP3    H230299   1.426   5.305  11.426  0.3131 -0.6934  1.3672
 2962TIP3   OH230300   3.208   2.246  12.591 -0.0154 -0.9029 -0.3068
 2962TIP3    H130301   3.202   2.164  12.641 -1.7809 -0.5967  0.0716
 2962TIP3    H230302   3.117   2.265  12.566  0.2316  1.3268  0.2527
 2963TIP3   OH230303   2.584   5.714   4.310  0.6875 -0.1682 -0.2455
 2963TIP3    H130304   2.538   5.742   4.389  0.4312 -0.4438 -0.2952
 2963TIP3    H230305   2.596   5.794   4.259 -0.7167 -0.2514 -0.7448
 2964TIP3   OH230306   0.640   3.480  12.249 -0.3327 -0.1228  0.4776
 2964TIP3    H130307   0.704   3.551  12.257 -0.8538  0.2404  1.5590
 2964TIP3    H230308   0.641   3.437  12.334 -2.2297  0.4951  0.8570
 2965TIP3   OH230309   5.934   3.287  11.116 -0.6265  0.0522  0.8053
 2965TIP3    H130310   5.916   3.240  11.034  1.2557  2.4389 -1.1510
 2965TIP3    H230311   5.981   3.224  11.170 -1.3821 -1.4255 -0.1858
 2966TIP3   OH230312   1.064   6.952   1.713 -0.0424 -0.4458  0.1611
 2966TIP3    H130313   1.061   6.887   1.643  0.5585 -0.4775  0.1588
 2966TIP3    H230314   0.978   6.946   1.755 -1.2123  1.0142 -1.8371
 2967TIP3   OH230315   1.713   6.661  11.885 -0.6561  0.4766  0.0964
 2967TIP3    H130316   1.715   6.585  11.827  0.9371 -1.8422  2.9293
 2967TIP3    H230317   1.787   6.715  11.856  1.3845 -1.6412  1.0280
 2968TIP3   OH230318   2.048   6.280   3.601 -0.5730  0.6082  0.0582
 2968TIP3    H130319   2.094   6.237   3.673 -0.2414  2.6805  1.1481
 2968TIP3    H230320   1.988   6.213   3.567  1.2050 -1.2581  0.4366
 2969TIP3   OH230321   4.795   6.519  14.560 -0.0352 -0.2667 -0.0888
 2969TIP3    H130322   4.700   6.517  14.574 -0.3178  0.9540 -1.5987
 2969TIP3    H230323   4.811   6.446  14.499 -0.3602  0.8461 -1.5583
 2970TIP3   OH230324   6.109   5.138  10.859 -0.2421 -0.4527  0.3431
 2970TIP3    H130325   6.175   5.101  10.919  0.3555  1.8947  1.2477
 2970TIP3    H230326   6.082   5.220  10.901  0.3947  1.4599 -2.6723
 2971TIP3   OH230327   4.025   6.537  11.797 -0.4439 -0.5088 -0.4202
 2971TIP3    H130328   3.963   6.480  11.842 -0.7613  0.2889  0.1950
 2971TIP3    H230329   4.110   6.515  11.835 -0.3644 -1.4777 -1.1331
 2972TIP3   OH230330   3.289   4.965  11.408 -0.1411 -0.2233 -0.0993
 2972TIP3    H130331   3.287   4.925  11.321  0.1633  2.2494 -1.3455
 2972TIP3    H230332   3.321   5.054  11.393 -4.4500  1.9790  1.8043
 2973TIP3   OH230333   5.838   4.439  13.259 -0.0650  0.1116 -0.2232
 2973TIP3    H130334   5.861   4.498  13.330  0.0392  0.7196 -0.7620
 2973TIP3    H230335   5.748   4.412  13.279 -0.4118  1.0893 -0.3960
 2974TIP3   OH230336   3.347   2.755  13.722 -0.5322  0.4643  0.4332
 2974TIP3    H130337   3.386   2.766  13.809 -1.3110  0.6492  0.7651
 2974TIP3    H230338   3.261   2.719  13.739 -0.4166 -0.1763 -0.3149
 2975TIP3   OH230339   1.721   3.934  10.571  0.3053  0.4333  0.2257
 2975TIP3    H130340   1.754   3.898  10.488 -0.1750 -0.0292  0.2313
 2975TIP3    H230341   1.788   3.998  10.597 -0.0074  1.2986 -1.0032
 2976TIP3   OH230342   1.815   2.696  15.347  0.3070 -0.1223 -0.0916
 2976TIP3    H130343   1.825   2.714  15.440  1.7004  0.3926 -0.3131
 2976TIP3    H230344   1.749   2.627  15.342  0.5722 -0.5003  1.3005
 2977TIP3   OH230345   0.247   4.853  12.101  0.2030  0.0077  0.5997
 2977TIP3    H130346   0.195   4.931  12.120 -1.0456 -0.5345 -0.4593
 2977TIP3    H230347   0.234   4.796  12.177 -2.1152 -0.7937 -0.3156
 2978TIP3   OH230348   3.526   1.949  10.144 -0.3755 -0.0249  0.8236
 2978TIP3    H130349   3.473   1.880  10.102  3.5976 -1.7567 -1.9119
 2978TIP3    H230350   3.521   2.023  10.084  1.0939 -0.6196 -0.0848
 2979TIP3   OH230351   7.048   0.846   0.000  0.2505  0.0966  0.5836
 2979TIP3    H130352   7.033   0.912  -0.067  2.6125 -0.5681 -0.6898
 2979TIP3    H230353   7.118   0.791  -0.035  0.9798 -0.8014  3.2222
 2980TIP3   OH230354   6.578   2.849  12.510  0.0797  0.1061 -0.4266
 2980TIP3    H130355   6.662   2.851  12.464  0.0164 -0.8904 -0.6126
 2980TIP3    H230356   6.518   2.809  12.447 -0.1901 -0.5434  0.2248
 2981TIP3   OH230357   2.353   3.786  13.691 -0.2768 -0.1609 -0.7338
 2981TIP3    H130358   2.401   3.774  13.610  2.7038  2.3541  0.4641
 2981TIP3    H230359   2.418   3.818  13.754 -2.4660 -1.6487  2.6154
 2982TIP3   OH230360   1.380   5.019   2.121 -0.5543 -0.0089 -0.0381
 2982TIP3    H130361   1.366   5.113   2.123  1.5566  0.4489  4.2244
 2982TIP3    H230362   1.433   5.004   2.042  0.4334  2.6628  0.0200
 2983TIP3   OH230363   3.775   4.652   1.842  0.2715 -0.1780  0.8134
 2983TIP3    H130364   3.856   4.627   1.797  0.2965 -3.7998  2.5263
 2983TIP3    H230365   3.795   4.643   1.935 -2.0425 -1.1956  1.2844
 2984TIP3   OH230366   1.573   0.943   3.072  0.1516  0.5606 -0.0701
 2984TIP3    H130367   1.502   1.002   3.044 -2.2483 -2.6105 -1.2957
 2984TIP3    H230368   1.646   0.964   3.014 -0.5706  2.3601 -0.3925
 2985TIP3   OH230369   2.643   2.264   0.094  0.2127 -0.3528  0.7510
 2985TIP3    H130370   2.647   2.341   0.151 -0.5739 -0.5928  1.1387
 2985TIP3    H230371   2.672   2.296   0.008  2.1941 -0.1558  1.4367
 2986TIP3   OH230372   4.588   0.181  11.327  0.3599  0.7388  0.1333
 2986TIP3    H130373   4.669   0.159  11.373  0.3796 -0.0685 -0.2716
 2986TIP3    H230374   4.519   0.169  11.392  0.6011  1.9650  0.6401
 2987TIP3   OH230375   0.796   3.255  10.811 -0.2261  0.1276 -0.5075
 2987TIP3    H130376   0.887   3.242  10.783  0.3221 -1.3502  1.7183
 2987TIP3    H230377   0.799   3.248  10.906 -2.7994 -0.6282 -0.4091
 2988TIP3   OH230378   2.912   0.569  12.354  0.2126  0.0185 -0.3998
 2988TIP3    H130379   2.817   0.578  12.366  0.4583  1.2039  1.0081
 2988TIP3    H230380   2.927   0.596  12.263 -0.6680  1.1109 -0.2529
 2989TIP3   OH230381   0.417   0.323   3.537  0.0957 -0.2130 -0.8713
 2989TIP3    H130382   0.461   0.408   3.531  0.6662 -0.4893 -0.7618
 2989TIP3    H230383   0.483   0.260   3.508 -1.2623 -0.3999 -3.9101
 2990TIP3   OH230384   4.436   6.141   1.236  0.1346  0.0114 -0.1776
 2990TIP3    H130385   4.401   6.230   1.247  0.9992  0.4017 -0.4860
 2990TIP3    H230386   4.530   6.154   1.222  0.1897 -0.9296 -0.7386
 2991TIP3   OH230387   2.296   6.602   9.429  0.0033 -0.0887  0.5750
 2991TIP3    H130388   2.385   6.632   9.444  0.2876 -0.8384  0.4263
 2991TIP3    H230389   2.306   6.512   9.399 -0.8222 -0.2824  0.8723
 2992TIP3   OH230390   5.040   0.703  13.253 -0.3582 -0.1513  0.2309
 2992TIP3    H130391   4.990   0.708  13.335  0.0538  0.1916  0.4664
 2992TIP3    H230392   4.980   0.735  13.186 -1.1299 -1.6212  0.1905
 2993TIP3   OH230393   2.923   3.948  10.156 -0.4410  0.1472  0.0130
 2993TIP3    H130394   2.988   3.885  10.123 -0.8867 -1.4517  1.9758
 2993TIP3    H230395   2.880   3.901  10.227 -1.5931  2.3248  0.8047
 2994TIP3   OH230396   4.268   6.438   3.761  0.3099 -0.4478 -0.1624
 2994TIP3    H130397   4.305   6.522   3.734  0.3396 -0.6870 -0.9062
 2994TIP3    H230398   4.340   6.376   3.750 -0.1529 -0.8333 -1.1419
 2995TIP3   OH230399   6.433   6.108  13.736  0.1199 -0.3905  0.4856
 2995TIP3    H130400   6.400   6.126  13.648 -0.9480  2.2916  1.3133
 2995TIP3    H230401   6.489   6.032  13.726 -0.8733 -0.8722 -2.2949
 2996TIP3   OH230402   4.626   2.938  12.627  0.3324 -0.2349 -0.3071
 2996TIP3    H130403   4.702   2.931  12.685  1.3545  0.4690 -1.5141
 2996TIP3    H230404   4.570   3.003  12.669  0.3324 -0.8289  0.6446
 2997TIP3   OH230405   0.331   6.734  10.806 -0.4041 -0.5379 -0.1714
 2997TIP3    H130406   0.409   6.748  10.754 -0.3591  0.0122  0.0420
 2997TIP3    H230407   0.315   6.817  10.850 -0.0621 -1.1612  1.2034
 2998TIP3   OH230408   4.141   4.759  10.505 -0.1634  0.3192  0.1987
 2998TIP3    H130409   4.179   4.843  10.529 -2.4471  1.1618  1.1185
 2998TIP3    H230410   4.163   4.748  10.413 -0.2681  2.2128 -0.0864
 2999TIP3   OH230411   3.624   6.645  10.761  0.3714 -0.0414  0.2363
 2999TIP3    H130412   3.659   6.574  10.815 -0.0850  0.8591  1.8037
 2999TIP3    H230413   3.611   6.717  10.823  0.4538  1.2788 -1.2299
 3000TIP3   OH230414   4.203   0.586  11.048 -0.2594  0.3694 -0.4158
 3000TIP3    H130415   4.221   0.643  11.123 -0.1407  0.5259 -0.5631
 3000TIP3    H230416   4.246   0.503  11.070 -1.1611  0.0440  0.1918
 3001TIP3   OH230417   4.957   5.467  12.495 -0.0300  0.3642  0.3448
 3001TIP3    H130418   5.025   5.457  12.428 -0.4202 -1.3406  0.1712
 3001TIP3    H230419   4.879   5.493  12.445 -0.2770 -0.7370  0.1360
 3002TIP3   OH230420   6.167   4.651   2.980  0.1742 -0.2600  0.3187
 3002TIP3    H130421   6.130   4.713   2.918 -0.6482 -0.3597  0.6874
 3002TIP3    H230422   6.195   4.577   2.926  0.6137  0.1752 -0.0583
 3003TIP3   OH230423   3.984   5.797  13.356  0.4431  0.1286 -0.3080
 3003TIP3    H130424   4.069   5.800  13.399  1.3601 -0.4870 -2.0010
 3003TIP3    H230425   3.953   5.887  13.357  0.2683  0.0940  1.8722
 3004TIP3   OH230426   5.585   4.736   9.689  0.5698 -0.5149 -1.0441
 3004TIP3    H130427   5.567   4.773   9.603 -0.0793 -1.0601 -1.1554
 3004TIP3    H230428   5.639   4.659   9.672 -2.4070 -2.6993 -1.3480
 3005TIP3   OH230429   5.805   0.286  10.147  0.3260 -0.0471  0.9702
 3005TIP3    H130430   5.799   0.380  10.128 -0.3017 -0.5494 -1.6939
 3005TIP3    H230431   5.889   0.276  10.190  0.6284  1.6657  0.8772
 3006TIP3   OH230432   0.037   0.056  15.343 -0.2472 -0.1567  0.1002
 3006TIP3    H130433   0.082  -0.028  15.346 -2.3375 -1.4009 -1.4410
 3006TIP3    H230434   0.105   0.119  15.317  1.0811 -1.5612  0.0811
 3007TIP3   OH230435   2.865   5.745  11.474  0.4097 -0.1632 -0.0860
 3007TIP3    H130436   2.821   5.787  11.548  0.5054  1.5530 -0.9396
 3007TIP3    H230437   2.814   5.773  11.398 -0.0650 -2.4047 -0.6588
 3008TIP3   OH230438   3.672   1.751  12.316 -0.0095 -0.5721  0.4845
 3008TIP3    H130439   3.757   1.778  12.352  0.5024 -1.7626  0.1911
 3008TIP3    H230440   3.622   1.833  12.312  0.9966  0.0972  0.9776
 3009TIP3   OH230441   2.021   2.372  11.986 -0.5687  0.1962 -0.0975
 3009TIP3    H130442   2.006   2.284  11.949 -1.8083  0.2265  0.3046
 3009TIP3    H230443   1.935   2.414  11.983 -0.0179  1.3353 -0.1038
 3010TIP3   OH230444   3.675   4.919  10.280 -0.4316  0.2120  0.6407
 3010TIP3    H130445   3.699   4.873  10.199  0.0760 -0.2038  1.0280
 3010TIP3    H230446   3.661   4.849  10.344 -3.2107  0.3589  0.3241
 3011TIP3   OH230447   7.089   0.558  11.469  0.6723  0.5422  0.3926
 3011TIP3    H130448   7.027   0.527  11.535  0.3152 -1.7219 -0.8920
 3011TIP3    H230449   7.035   0.582  11.394  1.2489 -0.9149 -0.5381
 3012TIP3   OH230450   5.393   2.545   9.884 -0.0081  0.3431  0.1747
 3012TIP3    H130451   5.374   2.554   9.791 -0.0602 -0.8884  0.0499
 3012TIP3    H230452   5.393   2.635   9.917 -0.8231  0.7385 -0.8425
 3013TIP3   OH230453   6.647   5.119   1.581 -0.3100 -0.4430 -0.1014
 3013TIP3    H130454   6.653   5.098   1.674 -0.7924 -0.3556 -0.0480
 3013TIP3    H230455   6.687   5.044   1.537 -1.5395 -1.2578  0.1079
 3014TIP3   OH230456   0.272   2.298  13.452  0.0951  0.2852  0.6321
 3014TIP3    H130457   0.324   2.347  13.516 -0.6521  0.1771  1.3346
 3014TIP3    H230458   0.191   2.348  13.443 -0.5486 -0.6438  1.1300
 3015TIP3   OH230459   3.619   5.933  13.277 -0.9322  0.5051 -0.3391
 3015TIP3    H130460   3.589   5.842  13.280 -0.5397  0.3087 -1.7635
 3015TIP3    H230461   3.558   5.980  13.334 -1.4323 -0.5635  0.0386
 3016TIP3   OH230462   1.749   6.571  13.018  0.3791 -0.0996 -0.0521
 3016TIP3    H130463   1.792   6.544  13.099  3.6862  0.9518 -1.2716
 3016TIP3    H230464   1.754   6.494  12.962  1.8365  0.3358 -0.5692
 3017TIP3   OH230465   3.579   6.438   5.175 -0.2526 -0.2145 -0.0417
 3017TIP3    H130466   3.509   6.429   5.239 -1.2961 -0.9128 -1.2359
 3017TIP3    H230467   3.543   6.496   5.108 -0.9112 -2.9082 -2.1849
 3018TIP3   OH230468   2.235   1.576  11.104 -0.0680 -0.0476 -0.0874
 3018TIP3    H130469   2.325   1.608  11.099 -0.1641  0.4904  1.1913
 3018TIP3    H230470   2.243   1.483  11.123  0.2188  0.0334  0.1934
 3019TIP3   OH230471   5.121   4.708  13.444  0.1599  0.2934  0.3298
 3019TIP3    H130472   5.061   4.758  13.499  0.2014 -1.0952  1.7100
 3019TIP3    H230473   5.128   4.623  13.487  1.8967 -0.1215 -0.6680
 3020TIP3   OH230474   5.708   2.216   0.968  0.4161  0.3892 -0.2932
 3020TIP3    H130475   5.732   2.277   0.898  2.0647 -0.7342 -0.7631
 3020TIP3    H230476   5.694   2.133   0.922  0.7493 -0.1836  0.6315
 3021TIP3   OH230477   5.404   2.614  12.604 -0.1521 -0.3912  0.4277
 3021TIP3    H130478   5.454   2.695  12.595 -0.8608 -0.0624 -0.7792
 3021TIP3    H230479   5.338   2.633  12.670 -0.3037  0.0177  0.1602
 3022TIP3   OH230480   3.918   0.274  14.079  0.9254 -0.0036 -0.5826
 3022TIP3    H130481   3.889   0.193  14.121  0.8427 -0.1199 -0.8648
 3022TIP3    H230482   3.932   0.335  14.152  0.5524 -0.1337 -0.4000
 3023TIP3   OH230483   4.786   1.003  14.953  0.0080  0.4125 -0.4107
 3023TIP3    H130484   4.715   1.024  14.893 -1.3207  2.1323  1.6259
 3023TIP3    H230485   4.786   1.075  15.017  0.8778 -1.6381  2.0490
 3024TIP3   OH230486   0.724   0.770  13.202 -0.2612 -0.6535 -0.3116
 3024TIP3    H130487   0.789   0.835  13.228 -0.8994 -0.4255  0.7897
 3024TIP3    H230488   0.769   0.686  13.211  0.5977 -0.3849 -1.8285
 3025TIP3   OH230489   1.413   1.018  15.646  0.3496  0.4260  0.0796
 3025TIP3    H130490   1.431   0.933  15.607  1.1991  0.6109  0.0652
 3025TIP3    H230491   1.443   1.081  15.581  2.3790  0.7443  1.2543
 3026TIP3   OH230492   3.360   2.688  10.221  0.1856  0.3646 -0.5300
 3026TIP3    H130493   3.396   2.776  10.231 -1.2142  1.1125 -1.7416
 3026TIP3    H230494   3.351   2.676  10.127  2.7641 -2.1320 -0.5762
 3027TIP3   OH230495   1.542   3.646  11.175  0.0745  0.8602  0.3150
 3027TIP3    H130496   1.588   3.571  11.213 -0.9314  0.2088  0.2824
 3027TIP3    H230497   1.567   3.720  11.230  0.2616  0.3069  0.9870
 3028TIP3   OH230498   6.537   0.696   1.845 -0.1214  0.0078  0.4691
 3028TIP3    H130499   6.625   0.666   1.823  0.2791  1.5650 -0.1738
 3028TIP3    H230500   6.546   0.790   1.856 -1.9599  0.4036 -0.9658
 3029TIP3   OH230501   0.118   1.481   4.838 -0.0299 -0.0750 -0.3697
 3029TIP3    H130502   0.091   1.572   4.842 -0.4789 -0.2561  0.8556
 3029TIP3    H230503   0.039   1.430   4.854  0.5976 -0.6401  1.0812
 3030TIP3   OH230504   2.020   5.311  14.626 -0.3970 -0.2051  0.2605
 3030TIP3    H130505   1.951   5.280  14.568 -0.5325 -1.8183  1.2366
 3030TIP3    H230506   2.102   5.291  14.579 -0.4950 -1.7704  0.7003
 3031TIP3   OH230507   0.511   1.718  11.659  0.3717 -0.0705  0.5187
 3031TIP3    H130508   0.468   1.803  11.664 -0.3464 -0.4679  1.6576
 3031TIP3    H230509   0.601   1.736  11.685  0.1484  0.3078  1.0753
 3032TIP3   OH230510   0.058   6.672  11.420 -0.0237  0.1402  0.1821
 3032TIP3    H130511   0.109   6.734  11.368 -1.2864  0.4526 -0.7157
 3032TIP3    H230512  -0.026   6.715  11.434 -0.0958 -0.4051  1.5698
 3033TIP3   OH230513   0.281   6.820  11.956 -0.9879 -0.0526  0.4002
 3033TIP3    H130514   0.283   6.735  12.001 -0.2881 -0.6055 -0.6077
 3033TIP3    H230515   0.321   6.881  12.018  0.9899 -1.0131  0.1644
 3034TIP3   OH230516   2.121   5.928  13.882  0.4446  0.7886 -0.7413
 3034TIP3    H130517   2.053   5.890  13.937  1.2851 -1.0289 -0.9006
 3034TIP3    H230518   2.107   6.023  13.890 -0.2940  0.5608  1.5278
 3035TIP3   OH230519   1.248   5.665  10.381  0.1609  0.6528  0.2414
 3035TIP3    H130520   1.308   5.596  10.407 -0.1356  0.8444  1.5070
 3035TIP3    H230521   1.276   5.741  10.433  0.4422  1.4795 -1.0699
 3036TIP3   OH230522   6.457   3.177   1.451 -0.1781  0.3621  0.5109
 3036TIP3    H130523   6.488   3.230   1.525  2.2553  0.8718 -0.7670
 3036TIP3    H230524   6.416   3.240   1.392  2.8631  1.0454 -1.0871
 3037TIP3   OH230525   0.435   3.281  10.992  0.7829  0.0226  0.5514
 3037TIP3    H130526   0.452   3.287  10.898 -0.4415 -0.3231  0.2834
 3037TIP3    H230527   0.344   3.252  10.998  0.6467  0.6192  1.8499
 3038TIP3   OH230528   0.468   0.697  15.449  0.1076  0.0331 -0.0057
 3038TIP3    H130529   0.436   0.782  15.422  0.9983  0.6221  0.7245
 3038TIP3    H230530   0.555   0.690  15.410  0.1735 -0.3925  0.2061
 3039TIP3   OH230531   1.709   1.463  12.562 -0.1544  0.3688  0.3625
 3039TIP3    H130532   1.728   1.372  12.539 -0.0160  0.7402 -1.1402
 3039TIP3    H230533   1.729   1.469  12.655  2.5721 -0.4654 -0.0838
 3040TIP3   OH230534   2.572   3.251  14.519 -0.2387 -0.3492 -0.0686
 3040TIP3    H130535   2.518   3.254  14.440  1.3301  1.9664 -1.1570
 3040TIP3    H230536   2.509   3.264  14.590 -1.6979 -2.5772 -0.8238
 3041TIP3   OH230537   1.201   6.502  10.267  0.3844  0.0966  0.5666
 3041TIP3    H130538   1.283   6.493  10.219  0.6429  3.9987 -0.0463
 3041TIP3    H230539   1.228   6.513  10.358  0.6241  1.2101  0.3866
 3042TIP3   OH230540   6.525   6.066  10.367 -0.2559  0.2176  0.3295
 3042TIP3    H130541   6.549   6.068  10.274  1.1152  0.6434  0.6703
 3042TIP3    H230542   6.590   6.007  10.407 -1.8063 -1.2777  0.7814
 3043TIP3   OH230543   2.628   1.585  11.633 -0.5124 -0.6758 -0.6724
 3043TIP3    H130544   2.700   1.522  11.626  1.4450  1.2478  0.6523
 3043TIP3    H230545   2.610   1.590  11.727 -0.2317  1.0826 -0.6728
 3044TIP3   OH230546   5.117   3.506  11.659  0.0173 -0.1186 -0.1107
 3044TIP3    H130547   5.025   3.529  11.644 -0.3782 -1.4896  0.1485
 3044TIP3    H230548   5.137   3.439  11.594  0.2079 -1.3432  1.1599
 3045TIP3   OH230549   1.556   6.190   1.382 -0.2761  0.1837 -0.6281
 3045TIP3    H130550   1.631   6.235   1.343 -1.0178  1.7472 -0.3483
 3045TIP3    H230551   1.593   6.135   1.451  0.5393  2.0420  0.5084
 3046TIP3   OH230552   0.865   1.122  14.592 -0.0602 -0.2896 -0.1170
 3046TIP3    H130553   0.925   1.194  14.612 -0.5670  0.1988 -0.3411
 3046TIP3    H230554   0.800   1.125  14.662  0.1247 -0.7695  0.0822
 3047TIP3   OH230555   6.026   0.861   2.692 -0.3583  0.1513 -0.1427
 3047TIP3    H130556   6.038   0.770   2.719 -0.3390  0.5065  1.1126
 3047TIP3    H230557   5.956   0.894   2.748 -0.3438  0.9248 -0.5661
 3048TIP3   OH230558   5.712   6.623   1.497  0.2954  0.1723  0.0261
 3048TIP3    H130559   5.706   6.696   1.435  0.0464 -0.7399 -1.0681
 3048TIP3    H230560   5.796   6.636   1.541 -0.0669  1.4965  0.3633
 3049TIP3   OH230561   6.744   3.088  12.476  0.1285 -0.1574  0.0335
 3049TIP3    H130562   6.681   3.141  12.428 -0.5938 -0.8142  0.2443
 3049TIP3    H230563   6.775   3.023  12.412 -0.2463 -0.5355  0.2305
 3050TIP3   OH230564   2.364   4.258  10.324 -0.3792  0.6493  0.0704
 3050TIP3    H130565   2.271   4.278  10.312 -0.0623  1.7060 -0.7425
 3050TIP3    H230566   2.368   4.216  10.410 -1.6191  0.4746  0.0673
 3051TIP3   OH230567   6.111   3.774  10.256 -0.3968 -0.1834  0.1604
 3051TIP3    H130568   6.164   3.818  10.190 -1.0197  1.3662  0.6249
 3051TIP3    H230569   6.174   3.740  10.319  0.1164  0.2343 -0.1175
 3052TIP3   OH230570   6.109   0.428  14.561 -0.0313  0.0858  0.1122
 3052TIP3    H130571   6.164   0.351  14.575  0.5755  0.5696  0.4084
 3052TIP3    H230572   6.126   0.484  14.636 -0.9938  0.2140  0.2514
 3053TIP3   OH230573   6.835   3.513  12.575  0.3038  0.0715  0.2038
 3053TIP3    H130574   6.886   3.453  12.520 -2.0002 -0.2530 -1.7623
 3053TIP3    H230575   6.755   3.530  12.524 -1.6679  0.3842  3.1494
 3054TIP3   OH230576   1.993   4.082  14.827  0.0236 -0.2897  0.3781
 3054TIP3    H130577   1.921   4.066  14.888 -0.8663 -0.3308 -0.6598
 3054TIP3    H230578   2.030   3.995  14.811  1.3340 -0.1126  2.0838
 3055TIP3   OH230579   3.488   5.161  11.955  0.5830  0.6383  0.0282
 3055TIP3    H130580   3.548   5.235  11.959  3.1433 -1.2404 -1.0742
 3055TIP3    H230581   3.530   5.093  12.007 -0.8955 -0.5849 -0.2942
 3056TIP3   OH230582   2.841   3.238  11.160 -0.4841 -0.2440 -0.2919
 3056TIP3    H130583   2.771   3.298  11.185 -0.3597 -1.2828  3.0156
 3056TIP3    H230584   2.826   3.220  11.068 -2.8259  1.7958 -0.3903
 3057TIP3   OH230585   0.959   5.019  14.439  0.2536  0.2252  0.0583
 3057TIP3    H130586   1.011   4.969  14.502 -0.9624 -2.5234 -0.9579
 3057TIP3    H230587   0.869   5.007  14.467 -0.2441 -0.2825 -1.6627
 3058TIP3   OH230588   3.710   6.990  11.530  0.2141  0.4124  0.0511
 3058TIP3    H130589   3.629   6.972  11.579  0.0993 -0.9993 -0.5931
 3058TIP3    H230590   3.687   7.059  11.469 -0.2072  0.7498  0.5799
 3059TIP3   OH230591   0.041   0.952   0.249 -0.4079 -0.5840 -0.3226
 3059TIP3    H130592  -0.044   0.915   0.274  0.0193 -0.5342  1.3384
 3059TIP3    H230593   0.044   0.945   0.154 -1.6409 -1.9820 -0.2873
 3060TIP3   OH230594   5.775   5.142   2.305 -0.0767 -0.4123 -0.1879
 3060TIP3    H130595   5.846   5.179   2.356  0.4852 -2.3631  0.5464
 3060TIP3    H230596   5.718   5.216   2.285  0.6332  0.7133  1.7233
 3061TIP3   OH230597   0.373   3.640  12.346 -1.0250 -0.4186  0.3149
 3061TIP3    H130598   0.375   3.592  12.429 -2.2752  0.0405  0.6300
 3061TIP3    H230599   0.321   3.718  12.365 -0.6819  0.0761 -0.7111
 3062TIP3   OH230600   4.236   2.422  13.162  0.4447  0.4013  0.3278
 3062TIP3    H130601   4.285   2.450  13.085  0.0200 -0.0467 -0.1093
 3062TIP3    H230602   4.274   2.338  13.187 -1.3283 -0.9475 -1.1986
 3063TIP3   OH230603   0.102   0.292  12.007  0.3145  0.3061 -0.1621
 3063TIP3    H130604   0.014   0.256  11.997  0.1972  0.5277  0.0435
 3063TIP3    H230605   0.153   0.222  12.048  0.2566  0.1509 -0.3506
 3064TIP3   OH230606   4.353   2.730   0.295 -0.3840 -0.2123 -0.3753
 3064TIP3    H130607   4.397   2.797   0.243  0.5557 -1.3314 -1.0787
 3064TIP3    H230608   4.306   2.778   0.362  1.2726  1.0947 -0.1060
 3065TIP3   OH230609   5.252   2.742  14.927 -0.1295 -0.0510 -0.2093
 3065TIP3    H130610   5.223   2.654  14.951  0.7841 -0.3674 -0.2611
 3065TIP3    H230611   5.256   2.789  15.011 -0.1708 -0.1881 -0.1301
 3066TIP3   OH230612   5.716   4.478   9.657  0.3528 -0.1387 -0.2182
 3066TIP3    H130613   5.754   4.443   9.577  0.0991 -0.3719 -0.2418
 3066TIP3    H230614   5.780   4.458   9.725 -0.6272 -2.4712  0.1207
 3067TIP3   OH230615   1.442   0.202   0.901  0.4204 -0.1990  0.0547
 3067TIP3    H130616   1.376   0.204   0.970 -0.9671  0.8269 -1.2434
 3067TIP3    H230617   1.502   0.273   0.922  0.7214 -0.6675  0.8364
 3068TIP3   OH230618   4.881   2.456  10.817 -0.4215  0.1016 -0.1803
 3068TIP3    H130619   4.920   2.500  10.893  1.4177 -1.3749 -0.2009
 3068TIP3    H230620   4.956   2.436  10.760 -1.3459 -1.7097 -0.8384
 3069TIP3   OH230621   6.178   5.482  13.410 -0.1256  0.5815 -0.0133
 3069TIP3    H130622   6.140   5.554  13.360  0.4452  0.8999 -0.0013
 3069TIP3    H230623   6.214   5.424  13.343  2.6938  2.1326 -0.0068
 3070TIP3   OH230624   3.228   2.486  12.709 -0.1488  0.1402  0.1300
 3070TIP3    H130625   3.211   2.413  12.649 -4.7122  0.5485  0.5317
 3070TIP3    H230626   3.275   2.446  12.782  1.1238 -1.4186 -1.4350
 3071TIP3   OH230627   4.183   0.065  11.002  0.4395 -0.1681  0.2264
 3071TIP3    H130628   4.107   0.093  10.951 -0.5642 -0.0174  1.7332
 3071TIP3    H230629   4.185  -0.030  10.991  0.8886 -0.0420 -0.9321
 3072TIP3   OH230630   0.004   6.690  10.614 -0.1365  0.1347 -0.0860
 3072TIP3    H130631   0.023   6.783  10.599 -0.2977  0.3114  0.7427
 3072TIP3    H230632   0.044   6.645  10.540 -0.1319  0.8734 -0.5443
 3073TIP3   OH230633   1.873   1.258   0.784 -0.1627 -0.0941  0.2127
 3073TIP3    H130634   1.803   1.194   0.771  1.7492 -1.9078 -1.9935
 3073TIP3    H230635   1.946   1.207   0.820  0.7569  1.3080  0.4237
 3074TIP3   OH230636   1.426   4.454  14.466 -0.3643  0.6000 -0.0360
 3074TIP3    H130637   1.502   4.468  14.523 -0.6174  1.0157  0.2041
 3074TIP3    H230638   1.442   4.511  14.391 -0.6604  1.0437  0.2321
 3075TIP3   OH230639   2.765   6.470  11.461 -0.2391  0.0130 -0.0687
 3075TIP3    H130640   2.799   6.512  11.540  0.3124 -1.0362  0.2618
 3075TIP3    H230641   2.811   6.386  11.456 -0.1864  0.0948 -1.5584
 3076TIP3   OH230642   6.446   3.840   5.335 -0.6591  0.8344 -0.4244
 3076TIP3    H130643   6.426   3.918   5.284 -1.5601  0.2507 -0.9957
 3076TIP3    H230644   6.531   3.858   5.375 -1.3858  2.5702  0.4117
 3077TIP3   OH230645   2.705   6.355  15.100 -0.2256 -0.0666 -0.1152
 3077TIP3    H130646   2.626   6.340  15.049 -1.5800 -1.2301  2.1696
 3077TIP3    H230647   2.681   6.332  15.190  2.5653  0.0291  0.7673
 3078TIP3   OH230648   5.425   5.973  14.395 -0.1900 -0.0010  0.3222
 3078TIP3    H130649   5.347   5.924  14.368  0.8243 -2.9131  2.2548
 3078TIP3    H230650   5.391   6.061  14.414 -2.2550 -0.0449 -2.4685
 3079TIP3   OH230651   4.146   6.631   0.585  0.2469 -0.1321  0.3052
 3079TIP3    H130652   4.121   6.629   0.493  0.7185 -0.3896  0.1792
 3079TIP3    H230653   4.211   6.702   0.591  0.5866 -0.4447  0.3416
 3080TIP3   OH230654   5.853   6.933  11.019  0.3920 -0.3054 -0.4749
 3080TIP3    H130655   5.944   6.905  11.028  0.1804 -0.8534  0.0412
 3080TIP3    H230656   5.822   6.942  11.109 -0.6474 -2.0818 -0.6155
 3081TIP3   OH230657   4.452   3.376  13.437 -0.1355 -0.0735 -0.6641
 3081TIP3    H130658   4.481   3.463  13.463  1.4488 -0.5396 -0.7423
 3081TIP3    H230659   4.442   3.381  13.342  0.4102 -0.0829 -0.7272
 3082TIP3   OH230660   5.171   0.732   2.339  0.5169  0.7889 -0.0455
 3082TIP3    H130661   5.079   0.728   2.312  0.5814 -0.1446 -0.1581
 3082TIP3    H230662   5.207   0.806   2.291 -0.4923  2.0309  1.0156
 3083TIP3   OH230663   5.977   1.402  12.177 -0.1628 -0.2180 -0.0769
 3083TIP3    H130664   6.007   1.385  12.267  2.8773 -0.5820 -1.0426
 3083TIP3    H230665   5.999   1.322  12.130  0.0922  0.6767 -1.5264
 3084TIP3   OH230666   2.809   1.071  10.684  0.7092  0.0650 -0.2086
 3084TIP3    H130667   2.877   1.085  10.749  0.9537 -0.8940 -0.2425
 3084TIP3    H230668   2.739   1.027  10.731  0.6917 -0.2068 -0.4870
 3085TIP3   OH230669   2.446   7.067   0.118  0.0199  0.0578 -0.0582
 3085TIP3    H130670   2.403   7.124   0.182  0.5166  0.0719  0.2714
 3085TIP3    H230671   2.540   7.078   0.135  0.1414 -0.3713 -0.4161
 3086TIP3   OH230672   5.017   1.195  10.431 -0.5808  0.5251  0.0814
 3086TIP3    H130673   4.985   1.265  10.488 -1.8394  0.1804 -0.1686
 3086TIP3    H230674   4.956   1.122  10.446 -0.1290 -0.0272 -0.6999
 3087TIP3   OH230675   6.904   1.640  13.523  0.5784  0.4167 -0.4831
 3087TIP3    H130676   6.902   1.567  13.585  1.5849  2.0859  1.6466
 3087TIP3    H230677   6.983   1.625  13.471 -0.0668 -0.7967 -1.1655
 3088TIP3   OH230678   2.288   4.403   5.787 -0.3306  0.0541  0.2325
 3088TIP3    H130679   2.294   4.493   5.821 -2.4602  0.3669 -0.0814
 3088TIP3    H230680   2.352   4.354   5.839  1.6524  1.9313 -0.3158
 3089TIP3   OH230681   6.652   5.490  14.387 -0.4874  0.5609  0.0308
 3089TIP3    H130682   6.718   5.554  14.414  1.0847 -0.9572 -0.0271
 3089TIP3    H230683   6.585   5.542  14.343 -0.3784  2.4164  1.9080
 3090TIP3   OH230684   5.667   3.352   5.605  0.2038  0.8652  0.6967
 3090TIP3    H130685   5.685   3.277   5.549  2.3135 -0.5228  3.0028
 3090TIP3    H230686   5.725   3.421   5.573 -0.6806  1.0650 -0.5325
 3091TIP3   OH230687   4.308   5.198  15.348  0.5589  1.0394  0.9532
 3091TIP3    H130688   4.333   5.219  15.258 -1.1099 -1.0359 -0.1088
 3091TIP3    H230689   4.358   5.120  15.369 -2.8706 -1.8461 -0.4023
 3092TIP3   OH230690   6.151   5.232  12.541  0.1509  0.2944 -0.2381
 3092TIP3    H130691   6.146   5.227  12.636  1.3936 -0.9374 -0.2027
 3092TIP3    H230692   6.126   5.144  12.511 -1.9596  1.1597 -1.1680
 3093TIP3   OH230693   2.171   0.721  12.425  0.5158 -0.3952  0.3991
 3093TIP3    H130694   2.233   0.726  12.352 -0.2598  1.2700 -0.1891
 3093TIP3    H230695   2.220   0.754  12.501  0.5254  0.4425  0.0413
 3094TIP3   OH230696   5.535   0.500  13.406  0.0490 -0.1856 -0.4819
 3094TIP3    H130697   5.494   0.447  13.475 -0.5956  0.7732 -0.1047
 3094TIP3    H230698   5.500   0.588  13.420  2.2461  0.7076 -0.1190
 3095TIP3   OH230699   0.295   0.057   0.841  0.3778  0.6387 -0.7315
 3095TIP3    H130700   0.234   0.059   0.768 -1.7126 -2.8386  0.6423
 3095TIP3    H230701   0.329  -0.033   0.841 -0.8917 -0.0474  3.2933
 3096TIP3   OH230702   2.815   5.964   9.491 -0.7631 -0.2017  0.3933
 3096TIP3    H130703   2.836   6.050   9.454 -2.8494 -0.4987 -1.7854
 3096TIP3    H230704   2.876   5.953   9.564  2.2312  1.4472 -1.6278
 3097TIP3   OH230705   2.488   0.670  11.963 -0.8951  0.1947 -0.4436
 3097TIP3    H130706   2.438   0.744  11.930 -1.0883 -0.2456 -1.1583
 3097TIP3    H230707   2.542   0.642  11.888  1.7010  1.6992  0.7305
 3098TIP3   OH230708   2.083   0.345  13.690  0.0091  0.1304  0.3917
 3098TIP3    H130709   2.012   0.390  13.644  0.7638  2.4432  1.3262
 3098TIP3    H230710   2.141   0.416  13.719  1.9670 -1.5768  0.8786
 3099TIP3   OH230711   6.158   3.172  11.743 -0.3739  0.2564  0.3455
 3099TIP3    H130712   6.227   3.117  11.781  1.3045  1.2618 -1.0752
 3099TIP3    H230713   6.165   3.255  11.790  2.2646  1.8001 -2.3979
 3100TIP3   OH230714   5.431   5.035  11.084  0.5012 -0.1160  0.5183
 3100TIP3    H130715   5.432   4.942  11.060  0.5663  0.2719 -1.0579
 3100TIP3    H230716   5.348   5.046  11.132 -0.7027 -0.5265 -1.3630
 3101TIP3   OH230717   7.016   1.763  12.320  0.3538  0.2251 -0.6319
 3101TIP3    H130718   6.984   1.763  12.410 -0.7772  0.7090 -1.0111
 3101TIP3    H230719   7.051   1.675  12.307 -1.6037 -0.6518 -0.4132
 3102TIP3   OH230720   3.826   5.313  13.228 -0.8657  0.1390 -0.3658
 3102TIP3    H130721   3.857   5.255  13.298  0.4798 -0.1001 -1.1348
 3102TIP3    H230722   3.823   5.257  13.151 -4.7753 -0.2816 -0.0992
 3103TIP3   OH230723   3.895   3.646  13.072  0.0898 -0.1246  0.1679
 3103TIP3    H130724   3.873   3.606  12.988  1.1261  1.6151 -1.0026
 3103TIP3    H230725   3.826   3.617  13.132 -0.6047 -1.5127 -1.2294
 3104TIP3   OH230726   0.656   5.422  10.471  0.2089  0.5657  0.5922
 3104TIP3    H130727   0.676   5.431  10.378  0.4836  0.6504  0.6598
 3104TIP3    H230728   0.571   5.378  10.473  1.5896 -2.3658  0.2953
 3105TIP3   OH230729   3.235   6.414   9.397  0.0843  0.5409 -0.2622
 3105TIP3    H130730   3.280   6.392   9.315  0.3232  2.2902 -0.6493
 3105TIP3    H230731   3.215   6.329   9.437  1.3080 -0.3318 -1.3937
 3106TIP3   OH230732   5.265   5.103  10.847 -0.2124 -0.5378  0.9321
 3106TIP3    H130733   5.291   5.163  10.777 -1.5113 -0.7594  0.2204
 3106TIP3    H230734   5.344   5.091  10.899  0.5535  0.3326  0.0156
 3107TIP3   OH230735   5.215   2.687  12.820 -0.4155 -0.8730  0.4008
 3107TIP3    H130736   5.123   2.664  12.811 -1.0664  1.8174 -0.9942
 3107TIP3    H230737   5.222   2.773  12.779  2.8910 -1.3121 -0.2354
 3108TIP3   OH230738   1.414   6.512  13.389  0.1660  0.1170  0.5802
 3108TIP3    H130739   1.441   6.574  13.456  1.0350  0.3869 -0.0138
 3108TIP3    H230740   1.320   6.528  13.378  0.1557  0.5389  1.2310
 3109TIP3   OH230741   5.269   5.518  11.879  0.0184  0.5680 -0.1336
 3109TIP3    H130742   5.228   5.597  11.845 -3.1957 -0.0452  1.8084
 3109TIP3    H230743   5.202   5.450  11.870  1.6145 -1.2627  0.8267
 3110TIP3   OH230744   1.919   6.409  11.079 -0.1324 -0.0216  0.2874
 3110TIP3    H130745   1.976   6.352  11.131  0.3120  1.1310  1.1188
 3110TIP3    H230746   1.978   6.473  11.041 -0.6416 -0.0164 -0.5258
 3111TIP3   OH230747   4.275   6.525  11.898  0.4990  0.3030  0.3833
 3111TIP3    H130748   4.328   6.583  11.844  1.0118 -1.1591 -0.7688
 3111TIP3    H230749   4.336   6.457  11.927 -0.0738  0.3348  1.7134
 3112TIP3   OH230750   3.929   0.916  11.281  0.2688  0.4336  0.2676
 3112TIP3    H130751   3.984   0.993  11.294 -1.1388  1.5114  0.0063
 3112TIP3    H230752   3.865   0.942  11.215 -0.1912 -0.9919  0.1084
 3113TIP3   OH230753   4.765   1.500  11.507 -0.2004  0.2061  0.1980
 3113TIP3    H130754   4.785   1.420  11.459  0.4694  2.4232 -3.5948
 3113TIP3    H230755   4.686   1.534  11.466  0.6620  2.4818  0.2680
 3114TIP3   OH230756   0.743   6.580   2.648  0.1376  1.2969  0.6900
 3114TIP3    H130757   0.751   6.567   2.553  2.3199  1.3481  0.8099
 3114TIP3    H230758   0.677   6.516   2.676  0.1640  0.6118 -0.7284
 3115TIP3   OH230759   4.940   0.488  14.706  0.2236 -0.2925 -0.5898
 3115TIP3    H130760   4.849   0.458  14.712 -0.1586  0.7837 -0.7626
 3115TIP3    H230761   4.974   0.479  14.795 -0.0529 -0.6931 -0.5208
 3116TIP3   OH230762   2.329   0.910  13.488  0.3887  0.0702  0.1967
 3116TIP3    H130763   2.266   0.845  13.458  0.3443 -0.2102  0.8874
 3116TIP3    H230764   2.367   0.946  13.407  0.2038 -0.5971 -0.1912
 3117TIP3   OH230765   6.737   3.044  14.907  0.3134 -0.1216  0.8113
 3117TIP3    H130766   6.658   2.993  14.923 -0.5475  0.4955 -1.1843
 3117TIP3    H230767   6.795   2.984  14.860  0.0814  0.1332  0.1929
 3118TIP3   OH230768   1.155   1.542  12.693  0.0228 -0.3800  0.2120
 3118TIP3    H130769   1.137   1.523  12.785  0.8622 -0.2035  0.4282
 3118TIP3    H230770   1.251   1.552  12.690 -0.1866  2.0683 -0.2066
 3119TIP3   OH230771   6.396   6.839   0.938  0.3058  0.1205 -0.4264
 3119TIP3    H130772   6.382   6.827   1.032  1.9721  0.3150 -0.1270
 3119TIP3    H230773   6.362   6.926   0.919 -1.5469 -0.5576 -0.3538
 3120TIP3   OH230774   2.964   3.238   0.468  0.4357 -0.4506  0.4274
 3120TIP3    H130775   2.920   3.288   0.537 -0.2499 -1.8606  1.0632
 3120TIP3    H230776   2.917   3.154   0.466  0.5914 -0.5419 -1.5964
 3121TIP3   OH230777   3.885   5.026   9.819  0.6368 -0.1919  0.2030
 3121TIP3    H130778   3.952   4.961   9.799 -0.0079 -1.5047  2.0504
 3121TIP3    H230779   3.934   5.102   9.852  1.2560 -1.0067  1.1949
 3122TIP3   OH230780   6.477   5.787  12.106 -0.5695 -0.2765 -0.1925
 3122TIP3    H130781   6.517   5.868  12.139 -0.0852 -0.5955  0.0175
 3122TIP3    H230782   6.412   5.816  12.042  0.2554  0.2399 -0.8100
 3123TIP3   OH230783   3.234   5.090  11.768  0.4777 -0.2889 -0.1991
 3123TIP3    H130784   3.192   5.018  11.720  0.3011  1.2039 -2.4742
 3123TIP3    H230785   3.326   5.085  11.742  0.9759 -1.0725  1.5452
 3124TIP3   OH230786   0.071   3.181  15.436  0.0463 -1.1136  0.1041
 3124TIP3    H130787   0.151   3.232  15.451 -0.1374 -0.6084 -0.6036
 3124TIP3    H230788   0.006   3.220  15.495 -0.4735  0.3992 -1.3923
 3125TIP3   OH230789   4.483   3.025   4.497  0.2752  0.0565 -0.5477
 3125TIP3    H130790   4.558   3.072   4.461  0.8302  0.0516  0.5696
 3125TIP3    H230791   4.469   2.952   4.436  1.6890 -0.4159 -0.3355
 3126TIP3   OH230792   6.656   4.395   9.995  0.0865  1.0998  0.5286
 3126TIP3    H130793   6.637   4.483  10.028  0.7927  0.8140  1.7444
 3126TIP3    H230794   6.582   4.374   9.938  0.1419  2.6635 -0.1675
 3127TIP3   OH230795   1.323   3.630  10.778 -0.2726  0.6058  0.1421
 3127TIP3    H130796   1.337   3.549  10.728  0.7951  0.7977  0.1019
 3127TIP3    H230797   1.238   3.618  10.819 -0.1174 -0.5595  0.1642
 3128TIP3   OH230798   5.626   1.221  10.365  0.1706 -0.0164  0.6185
 3128TIP3    H130799   5.588   1.148  10.416 -1.5197  0.7378  0.5033
 3128TIP3    H230800   5.594   1.207  10.276  1.1244  0.0204  0.2640
 3129TIP3   OH230801   5.267   7.047   2.027  0.0664  0.0727 -0.2281
 3129TIP3    H130802   5.189   7.032   2.081  1.0042  1.2903  1.5807
 3129TIP3    H230803   5.324   6.972   2.046  0.1089  0.1417 -0.0857
 3130TIP3   OH230804   2.476   5.449  10.885  0.0672  0.2554  0.5229
 3130TIP3    H130805   2.385   5.474  10.901 -0.2359 -0.7798  0.4888
 3130TIP3    H230806   2.489   5.370  10.937  0.6164 -0.2074 -0.2938
 3131TIP3   OH230807   0.126   1.961  12.336 -0.5137  0.3800  0.1938
 3131TIP3    H130808   0.040   1.922  12.318 -0.9502  1.7242 -0.7718
 3131TIP3    H230809   0.188   1.905  12.290 -0.9638 -0.0417  0.0877
 3132TIP3   OH230810   6.248   3.438  11.007  0.1589  0.1290 -0.7551
 3132TIP3    H130811   6.188   3.484  11.066  1.0473 -0.1815  0.4315
 3132TIP3    H230812   6.234   3.345  11.026  2.5072  0.0673  1.1836
 3133TIP3   OH230813   5.352   2.410  10.655 -0.4646 -0.1382 -0.1348
 3133TIP3    H130814   5.417   2.432  10.722 -0.8209  1.0000 -0.1526
 3133TIP3    H230815   5.404   2.373  10.583 -0.0906 -1.5482  0.8113
 3134TIP3   OH230816   2.037   6.443  11.489  0.1895 -0.1146 -0.1779
 3134TIP3    H130817   2.112   6.400  11.449  1.3801  0.1228  1.6519
 3134TIP3    H230818   2.060   6.449  11.582 -2.1860 -0.1840  0.4821
 3135TIP3   OH230819   2.869   6.587  10.735  0.4528  0.2942 -0.2273
 3135TIP3    H130820   2.938   6.645  10.703 -0.4377  1.2525 -0.4571
 3135TIP3    H230821   2.914   6.526  10.794  1.7412 -0.0299 -1.4830
 3136TIP3   OH230822   5.194   4.796   9.330  0.2960  0.0867 -0.2663
 3136TIP3    H130823   5.238   4.717   9.299  1.3781  0.1145  1.1321
 3136TIP3    H230824   5.146   4.828   9.253 -0.6054 -2.1933 -0.7471
 3137TIP3   OH230825   2.221   1.897   4.541  0.3903 -0.2960 -0.0196
 3137TIP3    H130826   2.226   1.910   4.636  1.5358  0.6619 -0.1712
 3137TIP3    H230827   2.293   1.837   4.521 -1.0000 -1.9876 -0.0859
 3138TIP3   OH230828   4.176   0.448  10.200 -0.1330 -0.1189 -0.0872
 3138TIP3    H130829   4.087   0.415  10.212  0.0922 -0.5346  0.5012
 3138TIP3    H230830   4.208   0.405  10.121 -0.0383 -0.9154  0.3667
 3139TIP3   OH230831   1.964   3.688  10.709 -0.4566  0.2116 -0.1443
 3139TIP3    H130832   1.946   3.698  10.615  0.2988 -0.4191 -0.3659
 3139TIP3    H230833   2.048   3.642  10.712 -2.0688 -2.9584  0.7898
 3140TIP3   OH230834   6.384   5.129  14.017 -0.2930 -0.1112  0.1225
 3140TIP3    H130835   6.387   5.209  14.071 -0.0112 -0.7942  1.1468
 3140TIP3    H230836   6.316   5.146  13.953 -0.4291  0.8536  0.5021
 3141TIP3   OH230837   0.896   1.495  12.619  0.0644  0.1088  0.4453
 3141TIP3    H130838   0.976   1.514  12.668 -1.2335  0.2508  2.6170
 3141TIP3    H230839   0.852   1.427  12.669 -0.4275 -1.1719 -1.6031
 3142TIP3   OH230840   2.264   6.475   0.494  0.0053 -0.2011 -0.7493
 3142TIP3    H130841   2.194   6.432   0.445 -0.6240 -1.1245  0.8734
 3142TIP3    H230842   2.292   6.547   0.438  0.4545 -2.1350 -3.1836
 3143TIP3   OH230843   0.878   6.779  14.973  0.2258 -0.2966 -0.2172
 3143TIP3    H130844   0.909   6.695  15.007  2.0535  0.8500  1.1427
 3143TIP3    H230845   0.807   6.804  15.033 -0.2461 -0.7793 -0.5568
 3144TIP3   OH230846   1.540   5.367   0.573  0.2083 -0.0090 -0.0042
 3144TIP3    H130847   1.469   5.414   0.616  2.4901  2.8478  0.9416
 3144TIP3    H230848   1.555   5.414   0.491  1.6833  0.1433  0.3194
 3145TIP3   OH230849   1.436   4.432  13.227  0.4110  0.7538  0.2624
 3145TIP3    H130850   1.362   4.485  13.256  1.2962  1.8430  0.6199
 3145TIP3    H230851   1.505   4.452  13.291  1.7388  1.5506 -1.3504
 3146TIP3   OH230852   1.169   0.539  15.074 -0.3279 -0.5749  0.6686
 3146TIP3    H130853   1.202   0.542  15.164 -2.2834  1.1483  1.4094
 3146TIP3    H230854   1.131   0.626  15.059 -1.1341 -1.2158 -1.4082
 3147TIP3   OH230855   5.712   3.473   0.713  0.9233 -0.4295 -0.1106
 3147TIP3    H130856   5.666   3.552   0.741  3.6667  1.0426  0.5304
 3147TIP3    H230857   5.731   3.487   0.620 -2.3514 -2.3924 -1.2541
 3148TIP3   OH230858   6.786   1.447   1.807 -0.1202 -0.4983  0.3649
 3148TIP3    H130859   6.870   1.491   1.798 -0.2289 -0.4650 -0.5972
 3148TIP3    H230860   6.763   1.420   1.718 -2.1997  1.5213  0.1714
 3149TIP3   OH230861   2.066   3.109  13.011  1.1345 -0.0210 -0.9046
 3149TIP3    H130862   2.029   3.119  12.923  0.4671 -0.3994 -0.6775
 3149TIP3    H230863   2.004   3.155  13.067  0.1047 -2.0118 -0.3168
 3150TIP3   OH230864   5.477   7.091   0.981  0.3090 -0.0091 -0.2238
 3150TIP3    H130865   5.492   7.155   0.912 -0.6767 -1.4356 -1.8135
 3150TIP3    H230866   5.421   7.136   1.044 -0.0172  0.8197 -1.0870
 3151TIP3   OH230867   0.022   2.120   3.007 -0.0160 -0.1494 -0.1000
 3151TIP3    H130868   0.116   2.103   3.002 -0.1655 -0.9793 -0.2122
 3151TIP3    H230869  -0.004   2.085   3.093 -0.1648  0.3956  0.0841
 3152TIP3   OH230870   4.495   6.476  14.256 -0.2388 -0.0170 -0.0466
 3152TIP3    H130871   4.439   6.527  14.198 -0.0762 -0.7060 -0.8109
 3152TIP3    H230872   4.465   6.500  14.344 -1.8854 -0.5530 -0.4319
 3153TIP3   OH230873   0.819   1.606  14.297 -0.0001 -0.7607 -0.3183
 3153TIP3    H130874   0.747   1.544  14.311 -0.7769  0.0549 -0.6531
 3153TIP3    H230875   0.894   1.565  14.341 -0.5917 -1.7483 -0.1924
 3154TIP3   OH230876   6.452   6.307  12.235  0.1003 -0.7373 -0.2978
 3154TIP3    H130877   6.512   6.372  12.269 -1.0726  1.5663 -2.3278
 3154TIP3    H230878   6.507   6.233  12.209  1.6415  0.0491  0.6307
 3155TIP3   OH230879   3.688   6.533  11.742  0.0105  0.3153 -0.3874
 3155TIP3    H130880   3.718   6.610  11.790  1.2486  0.3714 -1.2085
 3155TIP3    H230881   3.695   6.558  11.650 -2.1955  0.1626 -0.6463
 3156TIP3   OH230882   1.480   5.577  14.145  0.4910  0.2299  0.2428
 3156TIP3    H130883   1.469   5.488  14.110 -0.5335  1.1465 -1.9308
 3156TIP3    H230884   1.391   5.609  14.158  0.8248  1.3137 -0.0498
 3157TIP3   OH230885   6.043   5.234   2.183 -0.3388 -0.5032  0.0621
 3157TIP3    H130886   6.108   5.209   2.248 -0.7335  1.9838  1.5553
 3157TIP3    H230887   5.986   5.157   2.175  1.2121 -1.7729  0.6924
 3158TIP3   OH230888   6.544   4.606  13.216 -0.4356 -0.7219 -0.6320
 3158TIP3    H130889   6.630   4.623  13.177 -0.2149 -0.8769 -0.2129
 3158TIP3    H230890   6.490   4.578  13.142  0.6243 -3.4795 -0.4657
 3159TIP3   OH230891   3.254   2.198   0.854 -0.0220 -0.5680 -0.4770
 3159TIP3    H130892   3.182   2.170   0.911  0.9007 -1.1753  0.4236
 3159TIP3    H230893   3.278   2.119   0.805  0.7595 -0.6587  0.0402
 3160TIP3   OH230894   4.643   6.072  11.670 -0.3274 -0.0869 -0.3088
 3160TIP3    H130895   4.588   6.144  11.637 -0.4451 -1.2449 -2.9086
 3160TIP3    H230896   4.732   6.106  11.664 -0.4594  0.2580 -0.3685
 3161TIP3   OH230897   0.302   6.872  13.843 -0.2782 -0.1823  0.3061
 3161TIP3    H130898   0.380   6.827  13.876  0.1125 -0.4672 -0.9415
 3161TIP3    H230899   0.334   6.957  13.813 -0.6514  0.1365  0.8110
 3162TIP3   OH230900   1.435   0.612  13.934  0.2573 -0.2799  0.5283
 3162TIP3    H130901   1.345   0.615  13.900  0.4190 -0.3809  0.0746
 3162TIP3    H230902   1.480   0.682  13.888  0.3294 -0.0152  1.0032
 3163TIP3   OH230903   2.148   3.307  15.508  0.1680 -0.4905  0.4301
 3163TIP3    H130904   2.207   3.232  15.499 -1.6111 -1.9503  0.2903
 3163TIP3    H230905   2.097   3.307  15.427  1.2621  1.9722 -0.3430
 3164TIP3   OH230906   6.164   1.481  11.611 -0.6998  0.0046 -0.5348
 3164TIP3    H130907   6.216   1.562  11.611  1.3045 -1.2075 -1.5399
 3164TIP3    H230908   6.172   1.447  11.700  1.3972 -0.8115 -0.9796
 3165TIP3   OH230909   6.048   1.379  13.841  0.3436 -0.1884 -0.9850
 3165TIP3    H130910   5.974   1.332  13.879 -1.4251  3.6608  0.8994
 3165TIP3    H230911   6.106   1.396  13.916  2.1315 -1.3113 -2.0512
 3166TIP3   OH230912   5.779   4.302  14.904  0.3667 -0.0552 -0.4381
 3166TIP3    H130913   5.836   4.323  14.977  1.6899  0.5119 -1.5842
 3166TIP3    H230914   5.839   4.278  14.833 -0.7962  0.8196 -1.7698
 3167TIP3   OH230915   1.732   0.991   1.242 -0.4693 -0.1402 -0.3515
 3167TIP3    H130916   1.817   1.034   1.253 -1.7317  2.5256 -0.2687
 3167TIP3    H230917   1.754   0.900   1.222  2.3596  0.1546  0.9344
 3168TIP3   OH230918   1.028   4.002  11.784 -0.3639 -0.7192 -0.3100
 3168TIP3    H130919   1.041   3.927  11.725 -0.1642  1.3122 -3.0505
 3168TIP3    H230920   0.939   3.991  11.817 -1.1452 -1.1268 -2.3629
 3169TIP3   OH230921   5.115   5.460  13.455 -0.3588  0.0585 -0.1220
 3169TIP3    H130922   5.121   5.368  13.479 -0.2646 -0.3316 -1.6054
 3169TIP3    H230923   5.033   5.490  13.496  0.8133  0.0057  2.4678
 3170TIP3   OH230924   3.248   5.308  10.398 -0.2235  0.1056  0.3711
 3170TIP3    H130925   3.253   5.347  10.485  0.6424  0.4449  0.1746
 3170TIP3    H230926   3.329   5.259  10.389 -0.9298 -1.0823  0.2873
 3171TIP3   OH230927   6.106   1.742  12.275  0.1278 -0.0108 -0.0333
 3171TIP3    H130928   6.178   1.701  12.228 -0.7441 -2.4483  0.6279
 3171TIP3    H230929   6.031   1.737  12.215 -0.0771  0.3637  0.1811
 3172TIP3   OH230930   6.759   6.168  12.680  0.3196  0.1577 -0.0843
 3172TIP3    H130931   6.818   6.101  12.646  0.1071 -0.5892  0.9406
 3172TIP3    H230932   6.735   6.220  12.604  2.7166  0.8368 -0.4644
 3173TIP3   OH230933   6.614   3.732  10.809 -0.1079 -0.2446  0.2031
 3173TIP3    H130934   6.693   3.715  10.860  1.1055 -0.3827 -1.6389
 3173TIP3    H230935   6.605   3.828  10.811 -0.3695 -0.2765  1.0622
 3174TIP3   OH230936   5.179   2.060  10.789 -0.0474  0.2339  0.2405
 3174TIP3    H130937   5.159   1.993  10.855  1.8932 -0.1653  0.4865
 3174TIP3    H230938   5.236   2.016  10.726 -1.1002  0.8834 -1.2232
 3175TIP3   OH230939   4.876   7.120   0.144 -0.5412 -0.4208  0.1391
 3175TIP3    H130940   4.829   7.203   0.132 -0.5698 -0.2838  1.1600
 3175TIP3    H230941   4.838   7.062   0.078 -2.3875 -0.4111  1.1249
 3176TIP3   OH230942   6.108   1.110   0.095  0.7569  0.5855  0.5214
 3176TIP3    H130943   6.145   1.109   0.183  1.2336 -1.3608  0.3383
 3176TIP3    H230944   6.139   1.029   0.055 -0.7052  0.6937 -0.9248
 3177TIP3   OH230945   4.864   0.025  10.565  0.4223  0.2232 -0.2492
 3177TIP3    H130946   4.811   0.057  10.492  1.8130  1.4515 -0.7905
 3177TIP3    H230947   4.918   0.100  10.590  0.8159 -0.5284  1.2750
 3178TIP3   OH230948   4.709   0.244  10.787  0.1142 -0.1451 -0.0746
 3178TIP3    H130949   4.644   0.204  10.845 -1.0644  2.6412  0.6742
 3178TIP3    H230950   4.791   0.199  10.808 -1.1950 -2.5289  0.2337
 3179TIP3   OH230951   6.711   0.001  12.868 -0.4091  0.0387  0.1492
 3179TIP3    H130952   6.788  -0.035  12.823  1.4708  1.4885  2.0155
 3179TIP3    H230953   6.720   0.096  12.861 -1.7650  0.2495  0.8365
 3180TIP3   OH230954   2.510   5.902   3.424  0.0621  0.2412  0.1481
 3180TIP3    H130955   2.416   5.913   3.433 -0.1644 -1.5669  0.3607
 3180TIP3    H230956   2.548   5.979   3.467 -1.2905  0.4686  0.9736
 3181TIP3   OH230957   3.581   5.328  14.072  0.5290  0.2573  0.2587
 3181TIP3    H130958   3.672   5.356  14.074  0.0059  2.0513  0.5861
 3181TIP3    H230959   3.538   5.389  14.012 -0.0681 -1.9683 -1.7650
 3182TIP3   OH230960   2.080   4.021   5.559 -0.1838 -0.2923 -0.1386
 3182TIP3    H130961   2.075   3.930   5.588  1.5044 -0.2316  0.5003
 3182TIP3    H230962   2.174   4.038   5.554 -0.4477  1.8658  1.1982
 3183TIP3   OH230963   4.231   2.763   3.229  0.3333 -0.3761 -0.1218
 3183TIP3    H130964   4.317   2.801   3.244 -0.9413  2.9200 -0.3772
 3183TIP3    H230965   4.201   2.736   3.316  0.2611  1.7649  0.5710
 3184TIP3   OH230966   4.929   0.853  11.287  0.6634  0.4989  0.4075
 3184TIP3    H130967   4.882   0.797  11.349  1.5112 -0.0798  0.5431
 3184TIP3    H230968   4.998   0.893  11.340  1.8367 -0.5419 -0.2950
 3185TIP3   OH230969   4.960   2.190  15.518 -0.4776  0.0786  0.4057
 3185TIP3    H130970   4.955   2.137  15.597 -0.4162 -0.4523  0.0565
 3185TIP3    H230971   4.903   2.265  15.535 -1.7521 -0.8551  0.3182
 3186TIP3   OH230972   1.103   5.266   1.613 -0.6469  0.1726  0.0880
 3186TIP3    H130973   1.181   5.265   1.669 -0.2876  1.6339 -0.3449
 3186TIP3    H230974   1.064   5.351   1.628 -1.0613  0.2312 -1.1847
 3187TIP3   OH230975   0.398   1.662  14.474  0.0142 -1.1076  0.1995
 3187TIP3    H130976   0.394   1.732  14.539  1.9619 -1.0363  0.3037
 3187TIP3    H230977   0.466   1.603  14.506 -0.0595 -1.8818 -1.0089
 3188TIP3   OH230978   0.833   4.107   2.050  0.3410 -0.0025 -0.0613
 3188TIP3    H130979   0.844   4.012   2.055  0.6998  0.0576  0.3147
 3188TIP3    H230980   0.884   4.133   1.974 -0.6403 -0.2420 -0.8148
 3189TIP3   OH230981   7.043   4.510  11.996 -0.3187  0.2335  0.2644
 3189TIP3    H130982   7.052   4.479  12.087  1.3381 -1.4303 -0.3982
 3189TIP3    H230983   6.960   4.472  11.967 -1.0970  1.1614  1.1927
 3190TIP3   OH230984   6.682   1.135  13.696  0.2965  0.2915 -0.7606
 3190TIP3    H130985   6.622   1.157  13.624  0.2770 -0.3960 -0.9601
 3190TIP3    H230986   6.697   1.041  13.687 -1.8865 -0.4269  1.7894
 3191TIP3   OH230987   2.571   1.118   0.711  0.5520 -0.2382 -0.5184
 3191TIP3    H130988   2.518   1.170   0.651 -0.9772 -0.5566  0.4945
 3191TIP3    H230989   2.551   1.027   0.687  0.9316 -0.3649 -0.3625
 3192TIP3   OH230990   6.157   6.705  11.468 -0.1173 -0.1812  0.1422
 3192TIP3    H130991   6.231   6.737  11.519 -0.0365 -0.3404  0.1227
 3192TIP3    H230992   6.195   6.644  11.405 -0.3600 -0.8295  0.6193
 3193TIP3   OH230993   3.388   6.689   3.549  0.4275  0.3049  0.2169
 3193TIP3    H130994   3.325   6.726   3.611  0.0551 -0.1659  0.1235
 3193TIP3    H230995   3.418   6.764   3.498  1.2711  0.8244  1.4203
 3194TIP3   OH230996   6.056   4.371  10.841  0.2301  0.2367  0.7513
 3194TIP3    H130997   6.003   4.341  10.767 -0.2570  0.7379  0.8953
 3194TIP3    H230998   6.105   4.293  10.867  0.9243  0.2151 -0.5273
 3195TIP3   OH230999   0.556   2.156   9.785  0.1077  0.5585 -0.0887
 3195TIP3    H131000   0.465   2.130   9.794  0.4547 -0.4977  0.5616
 3195TIP3    H231001   0.557   2.217   9.711 -1.3128  1.6255  0.7184
 3196TIP3   OH231002   1.264   5.986  15.540 -0.4755  0.0756 -0.2387
 3196TIP3    H131003   1.344   5.936  15.559  0.0106  0.7540 -0.4998
 3196TIP3    H231004   1.289   6.048  15.472 -0.2149  2.8125  2.1458
 3197TIP3   OH231005   4.298   4.427  12.313  0.0798 -0.1128  0.0047
 3197TIP3    H131006   4.377   4.465  12.353 -0.4630 -1.4359  2.5199
 3197TIP3    H231007   4.332   4.372  12.242  1.3803 -0.2233  0.6759
 3198TIP3   OH231008   2.504   6.194   1.764 -0.8604 -0.3256 -0.5990
 3198TIP3    H131009   2.557   6.140   1.822 -1.6316  0.4039  0.8693
 3198TIP3    H231010   2.505   6.149   1.680  0.4990 -1.3055 -0.0862
 3199TIP3   OH231011   2.452   6.034  12.996 -0.4462 -0.4237  0.3368
 3199TIP3    H131012   2.417   5.945  12.986 -1.0102 -0.0228 -1.9879
 3199TIP3    H231013   2.387   6.090  12.952  1.4426  0.7366 -1.1694
 3200TIP3   OH231014   2.328   2.917  10.690  0.6147 -0.2118 -0.4929
 3200TIP3    H131015   2.238   2.894  10.711  0.3344  2.0990  1.1085
 3200TIP3    H231016   2.369   2.937  10.774  2.7253 -1.3958 -1.1580
 3201TIP3   OH231017   2.642   2.874  14.404  0.2977 -0.1721  0.1951
 3201TIP3    H131018   2.558   2.916  14.380  0.3996 -0.3844 -0.5649
 3201TIP3    H231019   2.707   2.943  14.390  0.2525  0.0113  0.8432
 3202TIP3   OH231020   0.281   5.172  13.557  0.0856 -0.0435 -0.1929
 3202TIP3    H131021   0.325   5.248  13.517  3.2286 -1.5126  0.2000
 3202TIP3    H231022   0.197   5.166  13.510  0.5424  2.4877 -1.5514
 3203TIP3   OH231023   5.395   6.263   4.993 -0.3763  0.3543 -0.1463
 3203TIP3    H131024   5.386   6.172   5.022  1.5242  0.2814  0.3571
 3203TIP3    H231025   5.410   6.312   5.074 -1.6039  1.1667 -0.3915
 3204TIP3   OH231026   0.498   2.499  13.017  0.1733  0.1669 -0.1604
 3204TIP3    H131027   0.587   2.464  13.007  0.8729  2.1313 -1.3893
 3204TIP3    H231028   0.484   2.500  13.112  0.8862 -1.4507  0.0071
 3205TIP3   OH231029   0.896   6.836  12.944  0.2932 -0.3660 -0.0146
 3205TIP3    H131030   0.819   6.783  12.924  0.5430 -0.5855 -0.4276
 3205TIP3    H231031   0.861   6.918  12.977 -0.1219 -1.8095  3.5770
 3206TIP3   OH231032   4.791   0.198  13.572 -0.1770 -0.3001 -0.5085
 3206TIP3    H131033   4.883   0.189  13.597 -0.5240 -0.8512  0.6707
 3206TIP3    H231034   4.752   0.250  13.643 -0.4207  1.5761 -1.9285
 3207TIP3   OH231035   4.557   6.255  10.995  0.1862  0.5261 -0.4821
 3207TIP3    H131036   4.572   6.338  10.951 -0.3850  1.7147  1.4373
 3207TIP3    H231037   4.468   6.231  10.972 -0.1289  1.1722  0.0263
 3208TIP3   OH231038   7.123   1.659  11.614 -0.4632 -0.3668  0.8344
 3208TIP3    H131039   7.133   1.624  11.703  0.1263 -0.9074  0.5716
 3208TIP3    H231040   7.045   1.615  11.580  0.8226 -2.2914  0.1548
 3209TIP3   OH231041   7.065   5.176   4.758  0.4603 -0.1221  0.1129
 3209TIP3    H131042   7.080   5.270   4.752 -0.8891  0.0356 -1.9590
 3209TIP3    H231043   6.986   5.166   4.811  0.6979 -0.1052  0.4715
 3210TIP3   OH231044   2.215   1.159  13.601  0.6784  0.5814  0.5012
 3210TIP3    H131045   2.255   1.086  13.554  1.7365  0.1178  2.0453
 3210TIP3    H231046   2.167   1.208  13.534  0.7794 -0.9594 -0.7389
 3211TIP3   OH231047   6.178   6.043   1.082 -0.2209 -0.2818 -0.0966
 3211TIP3    H131048   6.266   6.074   1.059 -1.4871  2.0356 -2.4647
 3211TIP3    H231049   6.171   6.059   1.176  1.7175 -0.0786  0.0590
 3212TIP3   OH231050   5.515   1.274   4.821  0.0861  0.1804 -0.1798
 3212TIP3    H131051   5.485   1.292   4.910  0.7297 -0.6781  0.2327
 3212TIP3    H231052   5.570   1.196   4.830  0.7521  0.5071 -1.2186
 3213TIP3   OH231053   4.554   4.243  10.973 -0.4213  0.4449 -0.0271
 3213TIP3    H131054   4.559   4.308  11.042 -1.6530  1.6659 -1.0270
 3213TIP3    H231055   4.542   4.294  10.893 -0.0928 -0.9646 -1.0165
 3214TIP3   OH231056   6.958   3.562  14.262  0.1943  0.7142 -0.2405
 3214TIP3    H131057   6.940   3.636  14.204 -1.7944  1.6904  1.4958
 3214TIP3    H231058   6.923   3.589  14.347 -2.1628 -2.8378  0.0972
 3215TIP3   OH231059   3.716   2.084  15.179  0.1673 -0.5740 -0.3703
 3215TIP3    H131060   3.810   2.098  15.168  0.4085  0.9362  2.6576
 3215TIP3    H231061   3.674   2.147  15.120  0.9858 -1.2138 -1.6899
 3216TIP3   OH231062   1.822   0.869  13.252  0.1452  0.3976  0.2073
 3216TIP3    H131063   1.751   0.886  13.315  0.0634 -1.0896  0.5589
 3216TIP3    H231064   1.836   0.774  13.257  3.2478  0.8002  1.2974
 3217TIP3   OH231065   5.050   1.236  12.733  0.4448 -0.2005 -0.1382
 3217TIP3    H131066   5.081   1.167  12.673  4.1538  2.0825 -1.2030
 3217TIP3    H231067   5.076   1.206  12.820 -0.4986 -1.3178 -0.2179
 3218TIP3   OH231068   2.316   1.720   9.743 -0.6277  0.8895 -0.4076
 3218TIP3    H131069   2.273   1.690   9.824 -1.8114  2.7124 -0.2907
 3218TIP3    H231070   2.388   1.775   9.774  0.8581 -0.8514 -0.6234
 3219TIP3   OH231071   0.793   5.304  15.614  0.0485 -0.0741 -0.2374
 3219TIP3    H131072   0.859   5.251  15.659 -0.9031 -0.2984  0.9384
 3219TIP3    H231073   0.804   5.391  15.651 -0.4077 -0.1463  0.0734
 3220TIP3   OH231074   5.348   0.419  10.711  0.3304  0.2273 -0.3405
 3220TIP3    H131075   5.319   0.328  10.703  0.9417 -0.1136  1.0117
 3220TIP3    H231076   5.297   0.466  10.645 -0.1662 -1.0541 -0.9037
 3221TIP3   OH231077   2.731   2.746  13.867  0.3065  1.0867 -0.1743
 3221TIP3    H131078   2.785   2.824  13.880  0.3188  1.2751 -1.2939
 3221TIP3    H231079   2.641   2.778  13.872  0.2925  0.9590  0.5623
 3222TIP3   OH231080   6.344   4.034  13.445 -0.0145  0.4299  0.1658
 3222TIP3    H131081   6.340   3.990  13.360  1.0540  2.1531 -0.8294
 3222TIP3    H231082   6.437   4.030  13.469 -0.5493 -1.7192  2.2351
 3223TIP3   OH231083   6.069   0.146  10.170  0.3520  0.1107 -0.0309
 3223TIP3    H131084   6.130   0.200  10.221  0.1690  0.0977  0.2052
 3223TIP3    H231085   6.090   0.165  10.079  1.6588 -0.9494  0.0262
 3224TIP3   OH231086   1.142   2.088  14.619 -0.1720 -0.0711 -0.2514
 3224TIP3    H131087   1.072   2.063  14.558  1.5508  0.0008 -2.3912
 3224TIP3    H231088   1.222   2.085  14.566  1.5404 -0.5624  2.1876
 3225TIP3   OH231089   5.121   1.965  11.924 -0.2459  0.1449  0.0685
 3225TIP3    H131090   5.101   2.047  11.878  2.1187  0.5456 -0.3821
 3225TIP3    H231091   5.036   1.934  11.956 -1.1244  3.4629  1.4385
 3226TIP3   OH231092   2.359   2.106  11.890 -0.8213 -0.3074 -0.3999
 3226TIP3    H131093   2.345   2.057  11.971 -1.6747 -0.4014 -0.5835
 3226TIP3    H231094   2.407   2.046  11.833  0.2306 -0.0509  0.2129
 3227TIP3   OH231095   2.069   2.251  10.827 -0.2977  0.0971 -0.3688
 3227TIP3    H131096   2.056   2.174  10.881 -0.4077 -0.1334 -0.7186
 3227TIP3    H231097   2.164   2.264  10.826 -0.2050 -0.5563 -1.0145
 3228TIP3   OH231098   0.501   4.973  13.573  0.6389  0.1165 -0.2816
 3228TIP3    H131099   0.435   5.042  13.574  1.8031  1.2837  0.1866
 3228TIP3    H231100   0.466   4.905  13.631  0.8780  1.7779  1.9554
 3229TIP3   OH231101   2.811   0.749  11.275 -0.1217  0.0319  0.5215
 3229TIP3    H131102   2.841   0.682  11.335 -0.7238 -0.7191 -0.0010
 3229TIP3    H231103   2.830   0.715  11.188  0.4505  0.9683  0.2587
 3230TIP3   OH231104   1.367   6.838  13.363 -0.0678 -0.0955 -0.2479
 3230TIP3    H131105   1.376   6.926  13.327 -0.5747  0.3559  0.6745
 3230TIP3    H231106   1.394   6.779  13.292 -0.8655  0.7534 -1.2838
 3231TIP3   OH231107   6.005   5.078  13.377  0.8130  0.5246 -0.0715
 3231TIP3    H131108   6.049   5.117  13.301 -0.9795  1.8551 -0.4901
 3231TIP3    H231109   5.935   5.139  13.398 -0.4156 -1.1683  0.9939
 3232TIP3   OH231110   6.437   6.253  14.572 -0.4197  0.2747  0.3706
 3232TIP3    H131111   6.387   6.216  14.499  0.5228 -2.9182  1.1684
 3232TIP3    H231112   6.507   6.303  14.530 -2.2141  1.9285 -0.7803
 3233TIP3   OH231113   1.712   3.146   2.704  0.4408 -0.0816  0.2825
 3233TIP3    H131114   1.634   3.117   2.657 -0.2972 -0.5129  1.7384
 3233TIP3    H231115   1.746   3.067   2.746  0.9300  0.3383  0.6948
 3234TIP3   OH231116   5.947   1.605  13.039 -0.7077 -0.0921  0.0510
 3234TIP3    H131117   5.990   1.690  13.026 -0.8292  0.0664  0.6616
 3234TIP3    H231118   5.968   1.556  12.960 -1.4529  0.8454 -0.7525
 3235TIP3   OH231119   6.356   1.977  12.656 -0.0971 -0.1955 -0.2970
 3235TIP3    H131120   6.443   2.016  12.660  0.3715 -1.2847  0.3000
 3235TIP3    H231121   6.303   2.031  12.714  1.5218 -2.8000  4.0510
 3236TIP3   OH231122   1.436   1.801  14.517  0.3222  0.4210 -0.0505
 3236TIP3    H131123   1.348   1.766  14.520  0.9674 -1.4834 -1.2000
 3236TIP3    H231124   1.470   1.773  14.431  2.1824  0.6926  0.5377
 3237TIP3   OH231125   6.861   3.662  10.218  0.2201  0.1201 -0.5276
 3237TIP3    H131126   6.864   3.753  10.190 -1.7265  0.2468 -0.4927
 3237TIP3    H231127   6.768   3.646  10.236  0.7151 -1.4333  0.9212
 3238TIP3   OH231128   4.021   2.786  15.071 -0.0296 -0.5358  0.2057
 3238TIP3    H131129   3.968   2.771  15.149 -1.0026  1.3070 -0.0453
 3238TIP3    H231130   4.085   2.714  15.071 -0.4647 -0.9911  2.2802
 3239TIP3   OH231131   0.661   1.129   9.725  0.2358  0.4595 -0.1751
 3239TIP3    H131132   0.586   1.188   9.712  1.4017  1.8097 -1.1259
 3239TIP3    H231133   0.642   1.054   9.668  1.2857  2.5003 -3.4902
 3240TIP3   OH231134   1.587   2.031  15.388  0.4341 -0.1304  0.0563
 3240TIP3    H131135   1.600   2.032  15.293 -0.0788 -1.9438 -0.0732
 3240TIP3    H231136   1.665   1.988  15.422 -0.0091 -0.7249  0.3264
 3241TIP3   OH231137   5.576   2.483  10.101 -0.2339 -0.2067 -0.0621
 3241TIP3    H131138   5.518   2.513  10.031 -0.9085 -1.5058 -0.0938
 3241TIP3    H231139   5.606   2.397  10.071 -1.0676 -1.0856  1.5440
 3242TIP3   OH231140   1.531   4.495   1.403  0.1193 -0.6684 -0.3008
 3242TIP3    H131141   1.608   4.448   1.435 -0.4680 -1.1136  0.5182
 3242TIP3    H231142   1.457   4.450   1.445 -0.4080  1.8472  1.7563
 3243TIP3   OH231143   4.967   3.359  12.059 -0.4938 -0.3476  0.3621
 3243TIP3    H131144   4.966   3.265  12.039  0.0273  0.0147 -1.5681
 3243TIP3    H231145   4.874   3.383  12.061 -0.6309 -0.4197 -1.9732
 3244TIP3   OH231146   5.802   2.880  12.040  0.2870 -0.0739 -0.1381
 3244TIP3    H131147   5.712   2.888  12.008  0.3561  0.4930 -0.1845
 3244TIP3    H231148   5.841   2.813  11.984 -0.4460 -1.2055  0.6351
 3245TIP3   OH231149   2.973   5.710   2.725 -0.0381  0.1442  0.1210
 3245TIP3    H131150   2.931   5.702   2.810  0.2117  0.8030  0.3142
 3245TIP3    H231151   2.938   5.791   2.688  0.7906  0.5210  0.1409
 3246TIP3   OH231152   5.160   0.430  12.991  0.5421 -0.6370 -0.0048
 3246TIP3    H131153   5.215   0.381  12.930  0.1552  0.2973 -1.1313
 3246TIP3    H231154   5.191   0.521  12.984  0.9730 -0.6173  1.7387
 3247TIP3   OH231155   6.949   2.666  12.237 -0.6301 -0.8208  0.5739
 3247TIP3    H131156   6.971   2.611  12.162  2.0167  0.0291  0.6562
 3247TIP3    H231157   6.976   2.614  12.313 -0.5165 -0.4392  0.7938
 3248TIP3   OH231158   5.237   6.089  11.503  0.2942  0.1693  0.0758
 3248TIP3    H131159   5.217   6.179  11.477 -1.0579 -0.0384  0.2981
 3248TIP3    H231160   5.254   6.044  11.421 -1.0939  0.1720 -0.2425
 3249TIP3   OH231161   1.273   5.407   0.159 -0.3143 -0.3596  0.8133
 3249TIP3    H131162   1.259   5.314   0.141 -0.9131  0.0394 -0.9222
 3249TIP3    H231163   1.188   5.448   0.145  0.0212  0.5099  1.2326
 3250TIP3   OH231164   3.135   2.345  10.253 -0.7476  0.0957 -0.4899
 3250TIP3    H131165   3.110   2.400  10.178 -1.4656 -0.1121 -0.4152
 3250TIP3    H231166   3.229   2.360  10.263  0.0333 -2.0332 -3.2090
 3251TIP3   OH231167   1.227   5.468  13.208 -0.4737  0.2250 -0.1945
 3251TIP3    H131168   1.220   5.500  13.118 -0.5043  0.7494 -0.0087
 3251TIP3    H231169   1.269   5.540  13.256  0.4673 -0.4315  0.0026
 3252TIP3   OH231170   3.562   6.054  14.579  0.0091  0.1260  0.2654
 3252TIP3    H131171   3.469   6.055  14.602 -0.1052 -0.6956 -0.0959
 3252TIP3    H231172   3.570   6.118  14.508 -0.1028  0.8693  0.9190
 3253TIP3   OH231173   7.052   3.088  10.982  0.2818 -0.4792 -0.4204
 3253TIP3    H131174   7.060   3.182  10.967 -0.4659 -0.5505 -1.3849
 3253TIP3    H231175   6.966   3.065  10.946  0.5874 -1.5798 -0.4929
 3254TIP3   OH231176   3.894   4.534   5.079  0.1231  0.3945 -0.5019
 3254TIP3    H131177   3.864   4.624   5.064  1.0549  0.6114 -1.1915
 3254TIP3    H231178   3.944   4.538   5.161  0.9543  0.7255 -1.0061
 3255TIP3   OH231179   2.080   4.232  11.165  0.4982  0.6390  0.3172
 3255TIP3    H131180   2.060   4.314  11.210 -0.6135  0.4018  0.2932
 3255TIP3    H231181   2.035   4.240  11.080  0.2524 -0.0453  0.3736
 3256TIP3   OH231182   1.460   6.898  14.527  0.0870  0.0882  0.0318
 3256TIP3    H131183   1.462   6.901  14.431 -1.2877  2.0847  0.0089
 3256TIP3    H231184   1.407   6.820  14.547  0.1089 -0.1648 -0.8332
 3257TIP3   OH231185   1.712   1.996  10.912 -0.2177  0.0102 -0.4991
 3257TIP3    H131186   1.681   2.086  10.904  1.6229  0.7688  0.2540
 3257TIP3    H231187   1.770   1.983  10.837 -0.0369 -0.3552 -0.3015
 3258TIP3   OH231188   1.887   5.701  13.689 -0.6134  0.2113 -0.2818
 3258TIP3    H131189   1.794   5.713  13.710 -0.4067  0.1092  0.7342
 3258TIP3    H231190   1.921   5.789  13.679 -0.6193  0.2838  0.2935
 3259TIP3   OH231191   5.661   6.027  14.123 -0.2705 -0.2754 -0.0115
 3259TIP3    H131192   5.729   6.051  14.185 -1.3749  0.3846  1.0040
 3259TIP3    H231193   5.600   5.973  14.175 -0.3885 -1.0907 -0.9630
 3260TIP3   OH231194   6.374   2.722  13.407  0.3001 -0.6331  0.2420
 3260TIP3    H131195   6.449   2.755  13.358  0.9412  0.0194  1.6012
 3260TIP3    H231196   6.399   2.634  13.436 -0.5592 -1.5215 -1.5650
 3261TIP3   OH231197   5.422   3.739  10.472  0.2652  0.2857  0.8232
 3261TIP3    H131198   5.391   3.829  10.460  0.1758 -0.0419 -2.0652
 3261TIP3    H231199   5.462   3.716  10.389  0.9894 -2.1163  1.7535
 3262TIP3   OH231200   0.130   6.677  13.524 -0.9263 -0.9505 -0.0599
 3262TIP3    H131201   0.058   6.639  13.475 -2.0288 -0.4629  1.1252
 3262TIP3    H231202   0.125   6.637  13.611 -0.3085 -0.2709  0.3105
 3263TIP3   OH231203   0.642   2.668  11.895  0.7436  0.1062  0.0712
 3263TIP3    H131204   0.655   2.666  11.989  1.4341 -0.7333 -0.0292
 3263TIP3    H231205   0.698   2.598  11.861  0.8191  0.6568 -0.9985
 3264TIP3   OH231206   3.008   5.920   9.711  0.7324  0.6590  0.1642
 3264TIP3    H131207   3.020   5.843   9.767 -1.7271  1.8679  2.6185
 3264TIP3    H231208   3.042   5.993   9.762 -0.2888  1.6447 -0.4928
 3265TIP3   OH231209   0.679   5.934   1.665  0.1856  0.1696 -0.0179
 3265TIP3    H131210   0.588   5.905   1.662 -0.5391  2.3006 -1.2934
 3265TIP3    H231211   0.698   5.943   1.758 -2.0431  2.6932  0.3181
 3266TIP3   OH231212   3.810   4.063  11.144 -0.8684 -0.1407  0.0621
 3266TIP3    H131213   3.766   3.985  11.110 -1.4621  0.5274 -0.7731
 3266TIP3    H231214   3.903   4.046  11.130 -0.8551 -1.4146  1.5022
 3267TIP3   OH231215   1.729   6.491  15.437 -0.0613 -0.2458 -0.0255
 3267TIP3    H131216   1.670   6.433  15.484  0.1669 -0.7531 -0.3566
 3267TIP3    H231217   1.817   6.457  15.454  0.0741 -0.0121 -0.2346
 3268TIP3   OH231218   3.639   1.655   5.240 -0.4000 -0.3531 -0.9345
 3268TIP3    H131219   3.709   1.603   5.199  0.4981  1.5364 -1.9403
 3268TIP3    H231220   3.562   1.637   5.186  0.0092 -0.3156 -1.5496
 3269TIP3   OH231221   6.044   7.102  12.296 -0.0661 -0.5121  0.1788
 3269TIP3    H131222   5.966   7.059  12.259  0.2483 -0.8911 -0.0595
 3269TIP3    H231223   6.113   7.082  12.233  0.2363 -0.2218  0.4194
 3270TIP3   OH231224   4.047   4.257  13.182  0.3238  0.1099  0.5118
 3270TIP3    H131225   3.961   4.295  13.165 -0.5552 -1.6385  0.8653
 3270TIP3    H231226   4.074   4.220  13.098  1.3687  1.7852  0.0603
 3271TIP3   OH231227   1.839   7.019  14.537  0.5739  0.0588 -0.4685
 3271TIP3    H131228   1.756   7.005  14.583 -0.8434  3.6897 -1.5676
 3271TIP3    H231229   1.879   7.095  14.581  1.4505  0.6866 -2.2404
 3272TIP3   OH231230   4.474   3.466  14.076 -0.4548  0.0957 -0.0306
 3272TIP3    H131231   4.418   3.419  14.137  0.8228 -1.2619  0.1650
 3272TIP3    H231232   4.537   3.401  14.046  0.1339  1.2086 -1.3330
 3273TIP3   OH231233   0.462   0.892  10.974  0.1299  0.5468  0.2111
 3273TIP3    H131234   0.466   0.913  10.880  2.8077 -1.6381 -0.3068
 3273TIP3    H231235   0.402   0.817  10.979  2.2489 -1.3113 -0.3476
 3274TIP3   OH231236   2.440   6.923   3.308 -0.4431  0.1810  0.4547
 3274TIP3    H131237   2.534   6.932   3.323 -0.7480  1.9950  1.5029
 3274TIP3    H231238   2.409   6.871   3.383 -0.5874  1.5302  1.3662
 3275TIP3   OH231239   1.342   0.286  11.457 -0.0824  0.1988  0.9677
 3275TIP3    H131240   1.424   0.258  11.418 -0.1123 -0.3489  1.2947
 3275TIP3    H231241   1.310   0.209  11.505 -1.1583  0.1626  0.2227
 3276TIP3   OH231242   1.031   3.269  13.437 -0.6776 -0.1392 -0.2638
 3276TIP3    H131243   1.074   3.355  13.432 -0.1878 -0.4223 -0.9407
 3276TIP3    H231244   0.947   3.288  13.479 -1.3518  0.9686 -1.9998
 3277TIP3   OH231245   2.443   1.561   0.974  0.5106  0.4218  0.5246
 3277TIP3    H131246   2.494   1.483   0.996 -1.3419 -1.4263 -1.2310
 3277TIP3    H231247   2.464   1.579   0.883  0.2480  1.4445  0.6572
 3278TIP3   OH231248   5.585   4.660  15.103 -0.1107  0.6712 -0.0052
 3278TIP3    H131249   5.604   4.599  15.174  0.0586  0.7602  0.0270
 3278TIP3    H231250   5.490   4.676  15.110 -0.2299  0.1127 -0.2585
 3279TIP3   OH231251   3.391   2.707  12.619  0.0535  0.8207 -0.6082
 3279TIP3    H131252   3.409   2.643  12.550 -1.4847  0.5574 -0.7959
 3279TIP3    H231253   3.333   2.662  12.679  0.8934  1.2566  0.5738
 3280TIP3   OH231254   1.241   1.981  11.700  0.0378  0.4952 -0.3306
 3280TIP3    H131255   1.279   2.036  11.632 -1.9871  0.8293 -1.2496
 3280TIP3    H231256   1.205   2.042  11.764  2.7403  0.2110  1.6850
 3281TIP3   OH231257   0.105   0.268  13.503 -0.4817  0.9261 -0.0649
 3281TIP3    H131258   0.085   0.179  13.530 -1.3425  0.3068 -2.4406
 3281TIP3    H231259   0.024   0.316  13.519 -0.3467  1.0369  0.2854
 3282TIP3   OH231260   4.627   6.466  15.107 -0.2545  0.2823  0.0414
 3282TIP3    H131261   4.568   6.422  15.045 -0.1273  1.1112 -0.6852
 3282TIP3    H231262   4.571   6.490  15.180 -0.4938 -0.3482  0.0702
 3283TIP3   OH231263   5.254   6.075   9.864 -0.0667 -0.0224  0.1538
 3283TIP3    H131264   5.199   6.073   9.785  0.2371  0.3448 -0.0685
 3283TIP3    H231265   5.269   5.982   9.884 -2.3190 -0.1873  1.3179
 3284TIP3   OH231266   5.167   2.110  11.305  0.2637 -0.2655  0.0057
 3284TIP3    H131267   5.229   2.155  11.248 -0.6843 -0.3510 -1.1227
 3284TIP3    H231268   5.180   2.017  11.285 -0.6207 -0.2571 -0.6850
 3285TIP3   OH231269   6.444   6.467   4.518 -0.2618  0.4199 -0.2812
 3285TIP3    H131270   6.380   6.505   4.578 -1.8014  0.8421 -2.0645
 3285TIP3    H231271   6.474   6.540   4.464  0.5009 -0.0575 -0.5236
 3286TIP3   OH231272   5.850   0.016  15.505 -0.3855 -0.0098  0.0994
 3286TIP3    H131273   5.786   0.025  15.435 -0.4738 -0.7745  0.0815
 3286TIP3    H231274   5.823   0.080  15.571  0.1311  1.2542 -0.8693
 3287TIP3   OH231275   4.329   1.730  14.487  0.0907  0.2204  0.3333
 3287TIP3    H131276   4.358   1.819  14.502 -0.9118  0.5776  0.2109
 3287TIP3    H231277   4.234   1.736  14.479  0.2271 -0.2995 -3.3489
 3288TIP3   OH231278   5.930   3.088   4.956  0.1625 -0.2469  0.2317
 3288TIP3    H131279   5.866   3.158   4.965 -0.4722 -0.5600 -1.4152
 3288TIP3    H231280   6.008   3.131   4.922  0.3100 -0.1169  0.7194
 3289TIP3   OH231281   6.450   6.062  11.863  0.2352 -0.1336 -0.1503
 3289TIP3    H131282   6.504   6.064  11.941 -0.2641  2.0247  0.1967
 3289TIP3    H231283   6.374   6.009  11.888  0.7177 -0.5796  0.3786
 3290TIP3   OH231284   4.057   0.283  13.828 -0.1615 -0.3114 -0.2479
 3290TIP3    H131285   4.120   0.248  13.891  0.2070  1.3138  0.3365
 3290TIP3    H231286   3.988   0.321  13.882  1.3031  3.2550 -0.6188
 3291TIP3   OH231287   5.967   5.815   5.280  0.0718 -0.4016  0.0818
 3291TIP3    H131288   5.981   5.728   5.318  1.5434 -0.1844  0.1190
 3291TIP3    H231289   5.932   5.799   5.193 -0.0924 -1.0124  0.2576
 3292TIP3   OH231290   5.905   6.491  13.357 -0.2422  0.1526  0.0023
 3292TIP3    H131291   5.835   6.482  13.421  1.6781 -0.1056  2.1744
 3292TIP3    H231292   5.862   6.474  13.273 -2.4016 -1.9464  1.3901
 3293TIP3   OH231293   0.085   7.122  13.602  0.9458  0.6631 -0.5523
 3293TIP3    H131294   0.097   7.062  13.528 -0.1252  0.2906 -0.4396
 3293TIP3    H231295   0.169   7.121  13.647  0.5267 -1.9817  0.3344
 3294TIP3   OH231296   5.179   1.955   5.117  0.6874  0.2341 -0.0674
 3294TIP3    H131297   5.185   1.899   5.194  0.5344 -0.8521 -0.8162
 3294TIP3    H231298   5.190   2.043   5.150 -2.2003  0.0893  1.6249
 3295TIP3   OH231299   3.651   4.188   0.328  0.3995  0.4628 -0.2669
 3295TIP3    H131300   3.598   4.238   0.390  0.0827  0.0681 -0.2109
 3295TIP3    H231301   3.739   4.190   0.364 -0.2576 -2.2078  1.8031
 3296TIP3   OH231302   5.279   0.060  11.741 -0.3072 -0.2605  0.4811
 3296TIP3    H131303   5.231   0.126  11.791  1.5323  0.5381  1.3031
 3296TIP3    H231304   5.371   0.077  11.762  0.4919 -0.5924 -2.3018
 3297TIP3   OH231305   2.962   4.746   3.425 -0.5616  0.3952  0.4126
 3297TIP3    H131306   2.980   4.802   3.350  1.0735 -0.2995  0.2458
 3297TIP3    H231307   2.878   4.704   3.405  0.5601 -0.9637 -1.8100
 3298TIP3   OH231308   0.524   5.524  11.237  0.5152 -0.3686  0.4373
 3298TIP3    H131309   0.467   5.510  11.313 -1.9849  0.0795 -1.2269
 3298TIP3    H231310   0.524   5.619  11.225 -0.2424 -0.5057 -0.8588
 3299TIP3   OH231311   2.016   3.031  11.753  0.1280 -0.7768  0.0992
 3299TIP3    H131312   1.949   3.070  11.697  0.5835 -0.1138  0.0106
 3299TIP3    H231313   2.052   2.959  11.702  0.4674 -0.2419 -0.4308
 3300TIP3   OH231314   2.521   0.969  11.098 -0.4184 -0.1162  0.1213
 3300TIP3    H131315   2.459   1.042  11.099  2.0093  2.0811  0.0007
 3300TIP3    H231316   2.486   0.906  11.162 -1.6834  1.9645  1.5759
 3301TIP3   OH231317   3.238   6.133  12.457  0.0808  0.2127 -0.1359
 3301TIP3    H131318   3.162   6.171  12.502  1.4813  1.2964  1.4287
 3301TIP3    H231319   3.271   6.067  12.517 -0.4246 -1.3150 -1.4529
 3302TIP3   OH231320   2.248   2.637  11.002  0.3923 -0.1071  0.7712
 3302TIP3    H131321   2.220   2.638  10.910 -0.0164  0.7694  0.8916
 3302TIP3    H231322   2.168   2.656  11.051  0.5148 -1.0195  1.3493
 3303TIP3   OH231323   0.219   1.715   2.306 -0.0295  0.6264  0.1581
 3303TIP3    H131324   0.243   1.624   2.291  0.6895  0.8646 -0.2154
 3303TIP3    H231325   0.151   1.733   2.241  0.7892  0.7298 -0.7025
 3304TIP3   OH231326   5.331   5.490   1.173  0.5614  0.2366  0.3066
 3304TIP3    H131327   5.302   5.418   1.117  0.3226  0.5798 -0.0093
 3304TIP3    H231328   5.409   5.524   1.131  0.0698  0.8514 -0.1200
 3305TIP3   OH231329   6.878   4.626  12.269  0.1962 -0.0291 -0.5519
 3305TIP3    H131330   6.809   4.690  12.250  0.2724  0.2595  0.1024
 3305TIP3    H231331   6.831   4.544  12.282 -0.1156  0.2930  0.5347
 3306TIP3   OH231332   0.071   3.494  12.655 -0.4099 -0.1398  0.2052
 3306TIP3    H131333   0.164   3.519  12.658 -0.8472  1.5592  0.8924
 3306TIP3    H231334   0.061   3.434  12.730  0.6720 -2.6638 -1.5091
 3307TIP3   OH231335   6.905   3.012  12.095  0.3082 -0.1956 -0.1018
 3307TIP3    H131336   6.945   3.089  12.137  0.6510  0.7108 -1.9784
 3307TIP3    H231337   6.857   3.048  12.020 -3.2212 -1.3623  1.3989
 3308TIP3   OH231338   1.679   5.528  12.341 -0.1791 -0.0779 -0.0810
 3308TIP3    H131339   1.678   5.539  12.436 -0.7032  1.0724 -0.2052
 3308TIP3    H231340   1.705   5.437  12.328  1.1309  0.0794  1.1282
 3309TIP3   OH231341   2.717   5.802  11.828  0.2403  0.1356  0.1755
 3309TIP3    H131342   2.636   5.766  11.865 -1.2253  0.7470 -2.2378
 3309TIP3    H231343   2.779   5.729  11.831 -1.4739 -1.4674 -1.0563
 3310TIP3   OH231344   3.650   4.152  12.205 -0.3286  0.5726 -0.1575
 3310TIP3    H131345   3.708   4.127  12.277 -0.5872  1.5892  0.4164
 3310TIP3    H231346   3.709   4.177  12.134 -0.0757 -0.3024 -0.2758
 3311TIP3   OH231347   0.519   3.946   5.126  0.2548 -0.1120  0.3052
 3311TIP3    H131348   0.444   3.921   5.181  0.4295  0.2715  0.7267
 3311TIP3    H231349   0.484   3.951   5.038 -0.4726  1.1363  0.6424
 3312TIP3   OH231350   4.622   3.411  15.268  0.0213  0.4710 -0.2894
 3312TIP3    H131351   4.619   3.344  15.199  1.7860  1.1094 -1.0615
 3312TIP3    H231352   4.715   3.433  15.275 -0.0553  0.2261  2.5359
 3313TIP3   OH231353   3.087   2.696  13.727 -0.1702  0.4123 -0.1843
 3313TIP3    H131354   3.002   2.664  13.756  0.1841  0.8687  1.4445
 3313TIP3    H231355   3.072   2.789  13.707 -0.2561  0.2696 -0.7874
 3314TIP3   OH231356   1.847   2.245   0.919  0.0849 -0.3316  0.1181
 3314TIP3    H131357   1.896   2.217   0.842 -0.2873  0.1502 -0.2952
 3314TIP3    H231358   1.867   2.178   0.985  1.1084 -0.2686 -0.1087
 3315TIP3   OH231359   3.144   1.663   9.768  0.5798  0.1987  0.0425
 3315TIP3    H131360   3.148   1.577   9.809  0.0236 -0.7709 -1.8628
 3315TIP3    H231361   3.202   1.658   9.693 -0.4258  1.0558 -0.8258
 3316TIP3   OH231362   0.617   3.333  14.907 -0.5858 -0.1673 -0.3225
 3316TIP3    H131363   0.565   3.256  14.929  0.2983 -0.9226 -0.7986
 3316TIP3    H231364   0.600   3.394  14.979 -2.1623 -0.3477 -0.4976
 3317TIP3   OH231365   0.244   0.044  12.740 -0.6581  0.5471 -0.0919
 3317TIP3    H131366   0.214   0.091  12.817 -1.3218  1.5904 -0.9665
 3317TIP3    H231367   0.271   0.112  12.679  0.9531 -0.2940 -0.3625
 3318TIP3   OH231368   3.337   7.049   2.427 -0.0536  0.9784 -0.0711
 3318TIP3    H131369   3.341   7.022   2.336 -0.0731  0.1369  0.1749
 3318TIP3    H231370   3.252   7.092   2.437 -1.0376 -0.9328  0.0880
 3319TIP3   OH231371   5.579   3.507   1.388  0.0910  0.1236  0.1478
 3319TIP3    H131372   5.493   3.465   1.386 -0.8300  1.9015  0.2427
 3319TIP3    H231373   5.579   3.565   1.311  1.7192 -0.7741 -0.5715
 3320TIP3   OH231374   0.661   3.410   1.571 -0.3881 -0.3033  0.0357
 3320TIP3    H131375   0.573   3.430   1.602  0.0831 -0.0118  1.2471
 3320TIP3    H231376   0.699   3.495   1.551  0.3048 -0.2523  1.4853
 3321TIP3   OH231377   6.786   3.374  12.224 -0.7881 -0.6646 -0.2060
 3321TIP3    H131378   6.748   3.376  12.137  0.2783  0.9421 -0.6912
 3321TIP3    H231379   6.713   3.356  12.283 -2.0765  1.0267 -1.2102
 3322TIP3   OH231380   0.329   2.091  14.012  0.0018 -0.1286  0.0033
 3322TIP3    H131381   0.402   2.118  14.068 -0.5555  1.8546 -0.1667
 3322TIP3    H231382   0.266   2.051  14.072  0.8683 -1.1695  0.2601
 3323TIP3   OH231383   7.028   3.698   1.721  0.2889 -0.7449  0.1622
 3323TIP3    H131384   7.012   3.783   1.762  0.7986  0.5233 -2.1006
 3323TIP3    H231385   6.941   3.663   1.703  0.0283 -1.5571  2.5664
 3324TIP3   OH231386   6.180   6.020  14.949 -0.4225 -0.3890  0.0506
 3324TIP3    H131387   6.112   6.049  15.009  0.5301  0.0141  0.9691
 3324TIP3    H231388   6.207   5.934  14.983 -0.9509 -0.8864 -0.7365
 3325TIP3   OH231389   4.332   0.420  10.427  0.1335 -0.5489  0.5977
 3325TIP3    H131390   4.250   0.440  10.383 -0.5173 -1.6555  1.2606
 3325TIP3    H231391   4.358   0.502  10.468 -0.2631 -0.0071 -0.2212
 3326TIP3   OH231392   3.304   0.466  12.001  0.3389  0.0434 -0.2331
 3326TIP3    H131393   3.293   0.429  11.913  1.3759 -1.2838  0.1654
 3326TIP3    H231394   3.311   0.390  12.058 -0.7488  0.8954  1.0744
 3327TIP3   OH231395   1.032   5.158   1.183 -0.0807  0.3730  0.6718
 3327TIP3    H131396   1.046   5.095   1.113  0.2729  1.5945 -0.3831
 3327TIP3    H231397   1.004   5.105   1.258  0.0206 -1.0000 -0.2387
 3328TIP3   OH231398   3.323   7.109  11.871 -0.3552  0.1295  0.1029
 3328TIP3    H131399   3.320   7.171  11.944  1.2732  1.3481 -0.7959
 3328TIP3    H231400   3.393   7.141  11.815  0.6229 -2.5856 -0.4016
 3329TIP3   OH231401   2.885   6.359   4.247 -0.2575 -0.2752  0.1562
 3329TIP3    H131402   2.811   6.398   4.293  0.5512 -1.2651  2.4345
 3329TIP3    H231403   2.948   6.338   4.316  0.9991 -1.9510 -1.4012
 3330TIP3   OH231404   2.248   6.210  13.282  0.1475 -0.0714 -0.4350
 3330TIP3    H131405   2.321   6.271  13.280 -0.5003  0.7617  0.2592
 3330TIP3    H231406   2.180   6.252  13.230 -1.2609  1.1544  2.1638
 3331TIP3   OH231407   1.510   4.557  14.226 -0.2565 -0.3185  0.0176
 3331TIP3    H131408   1.568   4.623  14.188 -0.1424 -0.2797  0.2616
 3331TIP3    H231409   1.422   4.593  14.213 -0.1896 -0.0786  0.2275
 3332TIP3   OH231410   2.302   2.948  12.290 -0.0840 -0.4933 -0.1670
 3332TIP3    H131411   2.328   2.969  12.200 -2.4524 -1.1812 -1.0967
 3332TIP3    H231412   2.230   2.885  12.279  0.2306 -1.3515  2.2516
 3333TIP3   OH231413   6.907   4.698  13.467 -0.0812  0.6521 -0.3534
 3333TIP3    H131414   6.925   4.605  13.456  1.1228  0.9559 -1.1937
 3333TIP3    H231415   6.969   4.727  13.534 -1.2934  0.6129  0.8061
 3334TIP3   OH231416   2.464   0.330  11.717 -0.1977 -0.2874 -0.0590
 3334TIP3    H131417   2.509   0.411  11.741  1.9333 -1.0816 -1.1290
 3334TIP3    H231418   2.383   0.360  11.674  0.7984  1.3180 -0.9192
 3335TIP3   OH231419   1.466   4.207  10.598  0.0571 -0.1169  0.1446
 3335TIP3    H131420   1.384   4.158  10.599 -0.5302  0.6048 -2.6360
 3335TIP3    H231421   1.488   4.215  10.505  2.3264  1.2960  0.7105
 3336TIP3   OH231422   5.179   1.785  13.536 -0.0404  0.3055 -0.0917
 3336TIP3    H131423   5.143   1.874  13.531 -3.4862 -0.9011  0.1970
 3336TIP3    H231424   5.181   1.765  13.630 -0.3767 -0.2946 -0.2059
 3337TIP3   OH231425   6.737   0.625   5.259  1.1742 -0.0780  0.5914
 3337TIP3    H131426   6.778   0.662   5.337  0.7926  0.8375  0.3733
 3337TIP3    H231427   6.646   0.610   5.284  0.8211  1.0784  0.0620
 3338TIP3   OH231428   3.459   0.272   9.950 -0.8980  0.1150  0.4771
 3338TIP3    H131429   3.403   0.261   9.873  0.1550  0.3153 -0.3376
 3338TIP3    H231430   3.492   0.361   9.943 -0.2174 -0.1107  0.7665
 3339TIP3   OH231431   0.410   3.415  11.542  0.5497 -0.0723  0.3476
 3339TIP3    H131432   0.409   3.485  11.477  0.5620  1.1141  1.5886
 3339TIP3    H231433   0.466   3.448  11.613  0.7599 -1.4412  0.8599
 3340TIP3   OH231434   6.368   4.629  13.674 -0.2304 -0.6004  0.2823
 3340TIP3    H131435   6.318   4.711  13.671  1.4136  0.5676  2.1928
 3340TIP3    H231436   6.427   4.634  13.599 -1.3826 -0.9026 -0.6523
 3341TIP3   OH231437   1.207   6.551  14.266  0.2564 -0.3566 -0.5997
 3341TIP3    H131438   1.126   6.597  14.244  0.2354 -0.2274 -0.2583
 3341TIP3    H231439   1.267   6.572  14.194  0.0871 -0.2019 -0.6982
 3342TIP3   OH231440   1.814   6.064   1.757 -0.4121 -0.0153  0.0274
 3342TIP3    H131441   1.890   6.114   1.784 -0.0542  0.3009 -1.4454
 3342TIP3    H231442   1.771   6.037   1.838  1.3071 -0.2594  0.8822
 3343TIP3   OH231443   1.399   0.969  14.369 -0.0694 -0.2259 -0.4495
 3343TIP3    H131444   1.410   0.993  14.277 -0.4998 -1.1431 -0.7484
 3343TIP3    H231445   1.385   0.874  14.368  0.3510 -0.3127  0.5976
 3344TIP3   OH231446   0.631   1.050  11.832  0.8748 -0.1333  0.2720
 3344TIP3    H131447   0.665   0.997  11.760 -1.0234 -0.2052 -0.6063
 3344TIP3    H231448   0.601   1.131  11.791  0.3113  0.0752  1.0661
 3345TIP3   OH231449   5.635   6.386  11.437  0.0274 -0.0254 -0.3801
 3345TIP3    H131450   5.622   6.413  11.528 -1.3109  0.4422 -0.6762
 3345TIP3    H231451   5.627   6.467  11.386  0.2467 -0.3517 -0.9509
 3346TIP3   OH231452   1.058   5.097   2.913  0.1512 -0.1467 -0.4343
 3346TIP3    H131453   0.965   5.085   2.934  0.0598 -0.3955 -0.9726
 3346TIP3    H231454   1.084   5.016   2.870  1.0616 -0.7849  1.2244
 3347TIP3   OH231455   4.962   3.141   1.277 -0.0450 -0.0685 -0.2615
 3347TIP3    H131456   4.993   3.145   1.187  0.3559  0.5209 -0.1032
 3347TIP3    H231457   4.867   3.148   1.269  0.0266  0.5845 -0.6087
 3348TIP3   OH231458   1.973   6.813  10.615  0.1206  0.0345 -0.0892
 3348TIP3    H131459   2.048   6.836  10.670  1.7564 -2.0770 -1.2601
 3348TIP3    H231460   1.920   6.756  10.669  0.0972  0.4069  0.2843
 3349TIP3   OH231461   0.760   6.464  13.675 -0.7770  0.6850  0.4397
 3349TIP3    H131462   0.739   6.390  13.619  1.5892 -0.8757  1.4301
 3349TIP3    H231463   0.720   6.442  13.760  0.5695  0.1127  0.9510
 3350TIP3   OH231464   1.792   1.268  10.719 -0.4461 -0.0167  0.1038
 3350TIP3    H131465   1.769   1.290  10.628 -1.4569 -0.7677  0.1589
 3350TIP3    H231466   1.825   1.350  10.756  0.0364  0.2831 -0.9584
 3351TIP3   OH231467   6.476   0.828  15.277  0.8433 -0.0047 -0.0565
 3351TIP3    H131468   6.556   0.779  15.296 -0.0608 -2.0843 -1.3128
 3351TIP3    H231469   6.491   0.866  15.191 -0.1561 -2.0070 -1.1903
 3352TIP3   OH231470   6.097   1.683  10.410  0.2821 -0.0215 -0.2381
 3352TIP3    H131471   6.033   1.613  10.402  0.7053 -0.5682  0.8387
 3352TIP3    H231472   6.138   1.689  10.324 -0.5549 -0.3117 -0.6607
 3353TIP3   OH231473   2.172   1.176   2.599  0.1815  0.3626  0.4549
 3353TIP3    H131474   2.240   1.111   2.614 -0.8724 -1.1557 -1.0369
 3353TIP3    H231475   2.135   1.192   2.686  0.2201 -1.3470  0.8181
 3354TIP3   OH231476   6.572   1.493  13.203 -0.0806 -0.0014 -0.0637
 3354TIP3    H131477   6.587   1.587  13.213  0.4605  0.4469 -3.7677
 3354TIP3    H231478   6.651   1.452  13.238 -0.0419  0.9144  0.9868
 3355TIP3   OH231479   0.383   2.739   2.540  0.3283 -0.0286 -0.6602
 3355TIP3    H131480   0.412   2.668   2.483  0.7143 -3.2831  3.1583
 3355TIP3    H231481   0.288   2.735   2.537  0.3319  0.3247 -1.5604
 3356TIP3   OH231482   6.904   6.970  10.452 -0.3161 -0.1235 -0.7944
 3356TIP3    H131483   6.894   7.026  10.376  0.5599  0.2276 -0.6532
 3356TIP3    H231484   6.971   6.906  10.427 -0.2773 -0.2234 -0.4407
 3357TIP3   OH231485   3.260   1.283  11.990 -0.5177  0.4754 -0.6707
 3357TIP3    H131486   3.345   1.307  11.954 -0.1465  0.1016 -0.0514
 3357TIP3    H231487   3.199   1.293  11.916  0.2263 -0.2800 -1.4086
 3358TIP3   OH231488   2.237   5.052  11.878 -0.2073  0.7447  0.3738
 3358TIP3    H131489   2.158   5.066  11.931 -1.1158  3.0726 -1.4059
 3358TIP3    H231490   2.249   5.135  11.831  0.5363 -1.1049 -2.9938
 3359TIP3   OH231491   1.731   2.638  14.229  0.0771  0.0646 -0.1300
 3359TIP3    H131492   1.693   2.632  14.142 -0.0188  0.2666 -0.1035
 3359TIP3    H231493   1.823   2.615  14.216 -0.2965 -1.6334  0.0123
 3360TIP3   OH231494   1.939   1.227  14.224 -0.3400 -0.2299  0.7473
 3360TIP3    H131495   1.889   1.227  14.143 -0.1540 -2.1476  0.5752
 3360TIP3    H231496   1.940   1.318  14.253 -1.3400  0.3047 -0.8201
 3361TIP3   OH231497   3.760   1.507  12.213  0.1207  0.0722  0.3739
 3361TIP3    H131498   3.784   1.595  12.242 -1.7457  0.3529  1.1555
 3361TIP3    H231499   3.816   1.449  12.264  0.1360  0.7410  1.1342
 3362TIP3   OH231500   5.149   4.529   9.252  0.2541 -0.3865  0.5006
 3362TIP3    H131501   5.186   4.464   9.311  0.7535 -0.7553 -0.2038
 3362TIP3    H231502   5.072   4.485   9.214  1.2332 -1.0174 -0.8311
 3363TIP3   OH231503   0.589   5.256  10.825 -0.1622  0.1207 -0.4125
 3363TIP3    H131504   0.593   5.228  10.916  0.9355  1.3054 -0.0573
 3363TIP3    H231505   0.534   5.334  10.826  0.9112  0.9102 -0.5133
 3364TIP3   OH231506   1.007   2.011  13.027 -0.5749  0.5205  0.0506
 3364TIP3    H131507   1.016   2.105  13.017  2.4869  0.5507  1.9368
 3364TIP3    H231508   0.981   1.998  13.118 -2.1515 -0.4764 -0.4952
 3365TIP3   OH231509   5.181   2.486  13.871  0.0275  0.0677 -0.3238
 3365TIP3    H131510   5.251   2.423  13.857 -0.9246 -0.7249 -1.7006
 3365TIP3    H231511   5.169   2.528  13.785  0.4061  1.9244  0.4621
 3366TIP3   OH231512   0.020   5.098  13.420  0.4372 -0.0378  0.2524
 3366TIP3    H131513  -0.012   5.042  13.349 -0.6773  0.7076  0.1357
 3366TIP3    H231514   0.021   5.041  13.497  1.2319 -0.7336 -0.2611
 3367TIP3   OH231515   4.682   4.815   9.702  0.4637  0.0222 -0.2170
 3367TIP3    H131516   4.657   4.889   9.758 -1.0920  1.5194 -2.7321
 3367TIP3    H231517   4.612   4.752   9.714  0.0553  0.4041 -0.5796
 3368TIP3   OH231518   1.352   2.613   5.075  0.4391  0.7425 -0.5221
 3368TIP3    H131519   1.401   2.676   5.022 -0.7650 -0.1041 -2.7597
 3368TIP3    H231520   1.262   2.644   5.072 -0.0629 -0.6989 -1.1126
 3369TIP3   OH231521   6.398   3.844  15.117  0.3101 -0.9942  0.2783
 3369TIP3    H131522   6.444   3.881  15.192 -0.9251 -0.3234  0.7339
 3369TIP3    H231523   6.447   3.874  15.040  1.2866 -1.2663  0.7842
 3370TIP3   OH231524   0.053   0.990  13.511  0.1402 -0.0218 -0.7236
 3370TIP3    H131525   0.009   1.053  13.569  0.7145 -0.1392 -0.1444
 3370TIP3    H231526   0.113   1.045  13.459 -1.5254  0.3109 -2.3890
 3371TIP3   OH231527   4.583   3.525  10.629 -0.0193  0.4837  0.0273
 3371TIP3    H131528   4.502   3.526  10.680  0.7518  2.6856  1.3558
 3371TIP3    H231529   4.652   3.540  10.694  1.0363  3.0277 -1.5246
 3372TIP3   OH231530   4.971   5.341   9.784 -0.3696  0.1282 -0.1865
 3372TIP3    H131531   4.947   5.419   9.833  1.3502 -0.0063  0.9441
 3372TIP3    H231532   4.915   5.344   9.705 -1.0225  1.9479  0.2963
 3373TIP3   OH231533   3.872   0.028  13.860 -0.0197  0.0766  0.1191
 3373TIP3    H131534   3.899   0.110  13.902  0.2673 -0.3240  0.7282
 3373TIP3    H231535   3.952  -0.023  13.854 -0.1152  0.0081 -0.6582
 3374TIP3   OH231536   0.833   4.100   1.490  0.5268 -0.5171 -0.0621
 3374TIP3    H131537   0.806   4.050   1.413 -0.3465  2.5608 -1.9367
 3374TIP3    H231538   0.782   4.062   1.562 -0.3842 -2.0177 -1.4300
 3375TIP3   OH231539   2.474   1.855  15.210 -0.0710 -0.0772  0.4476
 3375TIP3    H131540   2.384   1.824  15.228 -0.0308 -0.7882 -0.5334
 3375TIP3    H231541   2.500   1.809  15.130  1.9029 -1.4074  1.7563
 3376TIP3   OH231542   4.184   2.211   2.762  0.0823 -0.2325 -0.2155
 3376TIP3    H131543   4.213   2.172   2.680 -2.0078 -1.6533 -0.3484
 3376TIP3    H231544   4.134   2.288   2.737  0.2252 -0.1405 -0.2189
 3377TIP3   OH231545   0.887   6.159   0.067  0.6468  0.1753 -0.4291
 3377TIP3    H131546   0.839   6.102   0.128  1.9979 -0.7832 -0.2282
 3377TIP3    H231547   0.849   6.246   0.082 -0.7288 -0.4654  0.0139
 3378TIP3   OH231548   5.087   5.933   1.050 -0.3315 -0.7348  0.5582
 3378TIP3    H131549   5.006   5.914   1.003  0.5040 -0.5228 -1.0138
 3378TIP3    H231550   5.152   5.874   1.011  0.6633  0.3239  0.5846
 3379TIP3   OH231551   0.880   0.515  13.227  0.2839 -0.1984  1.0554
 3379TIP3    H131552   0.851   0.530  13.317  0.2316  1.9515  0.7409
 3379TIP3    H231553   0.970   0.546  13.225  0.4292 -0.6386  0.4653
 3380TIP3   OH231554   7.012   0.879   5.274 -0.0083  0.1236 -0.7555
 3380TIP3    H131555   6.954   0.845   5.342  1.6299  0.0679  0.6813
 3380TIP3    H231556   7.034   0.802   5.222 -1.0155  0.1057 -1.1755
 3381TIP3   OH231557   1.957   2.389  13.122 -0.0274 -0.5371 -0.3795
 3381TIP3    H131558   2.019   2.450  13.080 -0.1218  0.3514  0.7034
 3381TIP3    H231559   1.997   2.303  13.111  0.5609 -0.1753 -1.1739
 3382TIP3   OH231560   6.013   1.378   2.803  0.6913 -0.2056 -0.3719
 3382TIP3    H131561   6.084   1.322   2.835 -0.6746 -0.8993  1.6278
 3382TIP3    H231562   6.004   1.447   2.869  0.1840  0.4779 -1.1315
 3383TIP3   OH231563   1.875   3.703   2.371 -0.0313 -0.5121  0.1832
 3383TIP3    H131564   1.846   3.640   2.436 -1.1029  0.5604  0.8032
 3383TIP3    H231565   1.843   3.669   2.288 -1.4660 -0.3079  0.6330
 3384TIP3   OH231566   1.629   1.427  11.263  0.4731 -0.3475  0.1050
 3384TIP3    H131567   1.595   1.418  11.352 -3.0295 -0.3535 -1.0757
 3384TIP3    H231568   1.636   1.337  11.231  0.5846 -0.3097  0.0243
 3385TIP3   OH231569   5.166   3.510  13.405  0.0356  1.2310  0.1454
 3385TIP3    H131570   5.255   3.540  13.424  0.5576 -0.2353  0.1750
 3385TIP3    H231571   5.157   3.429  13.455 -1.3498  1.3740  0.1796
 3386TIP3   OH231572   0.341   1.419  13.156  0.3398  0.5683  0.3552
 3386TIP3    H131573   0.303   1.441  13.241 -0.5728  0.4656 -0.0142
 3386TIP3    H231574   0.325   1.325  13.146  0.9132  0.4737  0.2977
 3387TIP3   OH231575   2.013   5.838  14.911 -0.2383  0.5963 -0.0416
 3387TIP3    H131576   2.055   5.788  14.980  0.2947  1.5448  0.3411
 3387TIP3    H231577   1.929   5.865  14.948 -0.7779 -0.4851 -0.4557
 3388TIP3   OH231578   6.834   4.802  10.593  0.5433  0.1676  0.2409
 3388TIP3    H131579   6.836   4.893  10.564  1.5155 -0.0063 -0.2431
 3388TIP3    H231580   6.742   4.776  10.583  0.2723  1.0584  0.3063
 3389TIP3   OH231581   2.511   0.086  10.434 -0.7094 -0.5152 -0.3120
 3389TIP3    H131582   2.514   0.033  10.514  1.9850  0.1453  0.1459
 3389TIP3    H231583   2.558   0.166  10.457  4.3606 -2.0591 -3.5891
 3390TIP3   OH231584   3.483   3.192  10.382  0.4796 -0.0133  0.1748
 3390TIP3    H131585   3.540   3.211  10.308  0.0580 -0.6133 -0.3106
 3390TIP3    H231586   3.484   3.272  10.434  1.3948  0.1450 -0.0656
 3391TIP3   OH231587   4.036   2.284  11.884 -0.5285 -0.9656 -0.3827
 3391TIP3    H131588   3.978   2.313  11.814  0.7013  0.7446 -0.7557
 3391TIP3    H231589   3.981   2.286  11.963 -0.9632  0.8522 -0.6837
 3392TIP3   OH231590   6.698   3.078   0.858  0.6008 -0.2845  0.1929
 3392TIP3    H131591   6.755   3.002   0.849 -1.0625 -1.7327  1.1885
 3392TIP3    H231592   6.712   3.128   0.778  4.1616  0.1514  0.9256
 3393TIP3   OH231593   4.390   0.784  14.276  0.2475  0.1974  0.7136
 3393TIP3    H131594   4.411   0.864  14.324 -0.6569  1.5907 -1.0914
 3393TIP3    H231595   4.394   0.715  14.342 -1.5863  2.0666  2.9834
 3394TIP3   OH231596   1.017   2.465  11.430 -0.7474 -0.5042  0.0536
 3394TIP3    H131597   1.081   2.457  11.359 -1.2036  1.4965 -0.6646
 3394TIP3    H231598   0.935   2.436  11.391 -0.8309 -0.2502  0.0384
 3395TIP3   OH231599   4.198   1.823   2.946  0.3530 -0.4239 -0.2898
 3395TIP3    H131600   4.233   1.742   2.909  0.3000  0.6952 -3.0468
 3395TIP3    H231601   4.151   1.864   2.873 -0.9711  1.3477  1.4596
 3396TIP3   OH231602   2.120   1.490  14.299 -0.2098  0.3034  0.9717
 3396TIP3    H131603   2.174   1.482  14.220 -1.1056  1.2379  0.2351
 3396TIP3    H231604   2.031   1.496  14.266 -0.7631 -0.9115  2.1535
 3397TIP3   OH231605   6.617   3.597   2.364 -0.2707 -0.0174  0.0759
 3397TIP3    H131606   6.538   3.628   2.409 -1.0743  1.2216 -2.0423
 3397TIP3    H231607   6.688   3.649   2.401 -1.0989  1.8973 -0.9101
 3398TIP3   OH231608   4.277   2.514  14.745 -0.3007  0.4667 -0.1924
 3398TIP3    H131609   4.339   2.458  14.698 -0.7773 -1.3063  1.1842
 3398TIP3    H231610   4.246   2.576  14.679  1.6765  0.3313 -1.3069
 3399TIP3   OH231611   3.150   1.223  12.469  0.4021 -0.3204 -0.5646
 3399TIP3    H131612   3.244   1.241  12.463  0.1000  1.5979 -0.0303
 3399TIP3    H231613   3.143   1.128  12.456  2.3726 -0.4518 -0.9160
 3400TIP3   OH231614   2.660   6.437   3.073 -0.2665  0.1914  0.8511
 3400TIP3    H131615   2.630   6.513   3.122  0.8367  1.0674  0.2073
 3400TIP3    H231616   2.596   6.428   3.002  1.4525  2.7676 -1.2133
 3401TIP3   OH231617   5.365   0.936  13.159  0.6453  0.3026 -0.0960
 3401TIP3    H131618   5.451   0.974  13.179  0.3738  1.5360 -1.1326
 3401TIP3    H231619   5.343   0.971  13.072  0.2860 -2.1330 -1.0582
 3402TIP3   OH231620   7.120   1.217  14.993 -0.9551  0.2741 -0.1179
 3402TIP3    H131621   7.140   1.309  15.010  1.2746  0.2280 -1.8956
 3402TIP3    H231622   7.088   1.182  15.076  1.9208  1.7337  1.7373
 3403TIP3   OH231623   1.969   4.512   4.612 -0.2847 -0.0925 -0.2055
 3403TIP3    H131624   1.975   4.453   4.687 -0.1012 -2.5752 -2.0646
 3403TIP3    H231625   2.051   4.561   4.614  0.0676 -0.6906  0.7507
 3404TIP3   OH231626   3.743   2.959   2.311 -0.8940  0.1191 -0.5273
 3404TIP3    H131627   3.775   3.040   2.351 -1.5884 -0.9618  2.4700
 3404TIP3    H231628   3.771   2.890   2.371 -0.1937 -1.9475 -3.0753
 3405TIP3   OH231629   2.938   0.479   9.954 -0.6942  0.7246  0.1720
 3405TIP3    H131630   2.970   0.403   9.906 -2.7264 -0.8892  1.2307
 3405TIP3    H231631   2.965   0.554   9.900  1.7082 -0.6559 -0.7090
 3406TIP3   OH231632   5.381   6.670   5.236  0.1186 -0.2123 -0.2625
 3406TIP3    H131633   5.337   6.687   5.152  0.5001 -0.2615 -0.4733
 3406TIP3    H231634   5.452   6.610   5.214  0.0019 -0.5094  0.1575
 3407TIP3   OH231635   3.889   5.558   5.223  0.7730 -0.1401 -0.1010
 3407TIP3    H131636   3.917   5.576   5.133  0.1063  0.1968 -0.2450
 3407TIP3    H231637   3.970   5.536   5.269  1.0172 -1.1990 -0.9921
 3408TIP3   OH231638   2.058   4.804  10.282  0.2284  0.3638  0.0693
 3408TIP3    H131639   1.973   4.761  10.290  1.3094 -1.6430  1.6672
 3408TIP3    H231640   2.039   4.885  10.233 -2.4152 -0.4175 -0.3801
 3409TIP3   OH231641   2.713   4.522   1.299 -0.1807  0.1389  0.3251
 3409TIP3    H131642   2.723   4.611   1.332 -0.1568  0.0541  0.5422
 3409TIP3    H231643   2.757   4.467   1.363 -0.2137 -0.0321  0.2015
 3410TIP3   OH231644   0.432   2.469   5.593 -0.5026 -0.1971  0.1313
 3410TIP3    H131645   0.502   2.406   5.612  0.5089  0.9552  0.3490
 3410TIP3    H231646   0.351   2.422   5.615  0.2785 -1.0407  1.3297
 3411TIP3   OH231647   1.904   6.900   3.473 -0.5588  0.4325 -0.2786
 3411TIP3    H131648   1.918   6.848   3.552  1.5208 -0.6037 -1.2416
 3411TIP3    H231649   1.952   6.981   3.488  0.9068 -0.2852 -0.9208
 3412TIP3   OH231650   4.908   1.358   1.269 -0.4324  0.2386  0.1764
 3412TIP3    H131651   4.939   1.276   1.230 -0.9641  0.2313 -0.2539
 3412TIP3    H231652   4.977   1.421   1.250 -0.8250  0.3179 -1.1096
 3413TIP3   OH231653   3.862   7.067  10.269 -0.6669  0.1286 -0.1995
 3413TIP3    H131654   3.921   7.117  10.325  1.4752 -2.6082  0.2185
 3413TIP3    H231655   3.853   7.120  10.190  1.5447  1.1551  0.1647
 3414TIP3   OH231656   1.065   5.518   1.742 -0.2538  0.0992 -0.3896
 3414TIP3    H131657   1.056   5.595   1.799 -2.1966  0.9963 -1.7944
 3414TIP3    H231658   1.117   5.550   1.669 -0.7013 -0.0314 -0.7678
 3415TIP3   OH231659   6.694   3.864   1.340  0.1622  0.7443 -0.3737
 3415TIP3    H131660   6.700   3.845   1.434  0.2914  1.4422 -0.2354
 3415TIP3    H231661   6.712   3.780   1.297 -1.2451  0.0919  0.2465
 3416TIP3   OH231662   1.967   0.565   4.847 -0.4567 -0.1822  0.2333
 3416TIP3    H131663   1.910   0.551   4.923 -2.0112  1.2991 -0.5799
 3416TIP3    H231664   1.908   0.554   4.772  0.7401 -0.2702 -0.7105
 3417TIP3   OH231665   1.430   2.109  12.173 -0.5283  0.4781  0.1249
 3417TIP3    H131666   1.449   2.022  12.138  1.3094  0.8894 -0.0260
 3417TIP3    H231667   1.341   2.128  12.144 -1.3049 -1.6678  0.8800
 3418TIP3   OH231668   1.432   1.234  12.310  0.0090 -0.1486  0.4820
 3418TIP3    H131669   1.366   1.270  12.251  1.1229  1.4147  0.1154
 3418TIP3    H231670   1.429   1.290  12.387  0.0374 -0.8596  1.0137
 3419TIP3   OH231671   5.030   3.058   9.810 -0.1297  0.1050  0.1056
 3419TIP3    H131672   5.081   2.977   9.817 -0.3279  0.1152  3.8635
 3419TIP3    H231673   4.943   3.029   9.782 -0.0849 -0.9657  0.9748
 3420TIP3   OH231674   2.791   0.081   0.468  0.0475  0.1491  0.2397
 3420TIP3    H131675   2.724   0.095   0.535 -1.0090  0.8760 -0.9333
 3420TIP3    H231676   2.871   0.063   0.518 -0.6232  1.0311  1.6974
 3421TIP3   OH231677   4.274   6.051   1.026 -0.2021  0.2753  0.4357
 3421TIP3    H131678   4.276   5.961   1.058  0.6843  0.2671  0.3805
 3421TIP3    H231679   4.319   6.102   1.093  1.0502  0.3660 -0.4288
 3422TIP3   OH231680   1.459   3.513  13.592 -0.2090  0.4572 -0.3345
 3422TIP3    H131681   1.519   3.533  13.520  2.0712 -0.3014  1.2468
 3422TIP3    H231682   1.409   3.437  13.561  1.4392 -0.4972 -0.7828
 3423TIP3   OH231683   1.998   5.641  11.234  0.3945 -0.1636  0.3177
 3423TIP3    H131684   2.051   5.583  11.180 -0.2527 -0.3616 -0.1188
 3423TIP3    H231685   1.967   5.585  11.306 -1.7046 -0.8913 -1.0528
 3424TIP3   OH231686   7.107   6.590  14.804 -0.8588  0.7544 -0.2958
 3424TIP3    H131687   7.022   6.580  14.846  0.0834 -2.8994  1.1611
 3424TIP3    H231688   7.096   6.553  14.717 -0.4991 -1.1285  0.4173
 3425TIP3   OH231689   2.171   0.702   2.333 -0.0473  0.4048 -0.6722
 3425TIP3    H131690   2.265   0.720   2.340 -0.2313  1.1159  0.0607
 3425TIP3    H231691   2.128   0.778   2.373 -0.8981 -0.6996  0.6431
 3426TIP3   OH231692   6.500   6.584   3.218  0.0450  0.5677 -0.0684
 3426TIP3    H131693   6.526   6.566   3.128  0.3539 -1.2826  0.3536
 3426TIP3    H231694   6.405   6.577   3.218  0.1154 -0.4635 -0.0523
 3427TIP3   OH231695   5.299   4.283  11.971  0.2783  0.6421  0.6225
 3427TIP3    H131696   5.303   4.293  11.875 -0.2692  1.3640  0.6691
 3427TIP3    H231697   5.275   4.191  11.984 -0.4475  0.7377  0.0464
 3428TIP3   OH231698   4.797   4.492  15.633  0.3587 -0.3029  0.0557
 3428TIP3    H131699   4.792   4.397  15.645 -0.5323 -0.1957  0.6465
 3428TIP3    H231700   4.744   4.510  15.556  1.0093 -0.3375 -0.4088
 3429TIP3   OH231701   4.078   2.809   0.195 -0.5188 -0.3665 -0.6475
 3429TIP3    H131702   4.150   2.783   0.138 -0.6426  1.5564 -1.7816
 3429TIP3    H231703   4.009   2.838   0.135 -0.5751  1.9522  0.4415
 3430TIP3   OH231704   4.904   1.742   4.595  0.7904  0.6529  0.4941
 3430TIP3    H131705   4.861   1.809   4.647  0.1114  0.9305 -0.3998
 3430TIP3    H231706   4.900   1.775   4.505 -3.1818 -2.2520 -0.6840
 3431TIP3   OH231707   3.943   0.052  10.018  0.3898 -0.3759  0.5573
 3431TIP3    H131708   4.009   0.095   9.963 -0.5236  2.3072  1.4187
 3431TIP3    H231709   3.860   0.073   9.977 -0.1499 -0.4778  1.5624
 3432TIP3   OH231710   2.860   2.710   1.527 -0.5170 -0.0482  0.2947
 3432TIP3    H131711   2.823   2.767   1.460  0.2921 -0.1326 -0.2440
 3432TIP3    H231712   2.891   2.633   1.479  1.6523  0.6449  0.4851
 3433TIP3   OH231713   4.387   4.016   9.449 -0.0771 -0.7105  0.1429
 3433TIP3    H131714   4.348   4.080   9.509  0.1543 -0.7530  0.3356
 3433TIP3    H231715   4.481   4.020   9.466 -0.0612 -1.0922  0.1414
 3434TIP3   OH231716   0.104   3.066  13.927  0.4190  0.0788  0.1406
 3434TIP3    H131717   0.028   3.010  13.944  0.5741 -0.6865 -1.4604
 3434TIP3    H231718   0.088   3.103  13.840  1.9196 -0.2049 -0.2921
 3435TIP3   OH231719   5.051   2.977  13.047  0.4103  0.0907 -0.6457
 3435TIP3    H131720   5.002   2.896  13.032  0.7163  0.2138 -2.5250
 3435TIP3    H231721   5.093   2.964  13.132 -2.0706 -0.4079  0.5950
 3436TIP3   OH231722   5.009   3.853  15.072 -0.0210 -0.0844 -0.2967
 3436TIP3    H131723   4.969   3.890  15.150 -1.1934  0.5796 -1.1806
 3436TIP3    H231724   4.995   3.759  15.079 -1.9780  0.1389 -0.6763
 3437TIP3   OH231725   6.129   0.242  12.376 -0.6298  0.3462 -0.1431
 3437TIP3    H131726   6.039   0.250  12.405 -0.2806  0.7145  0.8781
 3437TIP3    H231727   6.132   0.159  12.329 -1.6783  0.7257 -0.9019
 3438TIP3   OH231728   2.532   6.255  11.402 -1.4809 -0.4642  0.2309
 3438TIP3    H131729   2.602   6.288  11.345 -1.2917  0.5970  1.0422
 3438TIP3    H231730   2.489   6.187  11.351 -0.9696  0.0863 -0.9628
 3439TIP3   OH231731   2.547   2.850  15.612  0.5644 -0.2919  0.4348
 3439TIP3    H131732   2.505   2.929  15.645 -0.1194 -0.4878  0.0540
 3439TIP3    H231733   2.497   2.827  15.534  1.4181 -0.5062 -0.0612
 3440TIP3   OH231734   2.180   5.881  11.934 -0.1153 -0.1441  0.2712
 3440TIP3    H131735   2.096   5.922  11.957 -1.1464 -2.0875  0.2188
 3440TIP3    H231736   2.181   5.799  11.985  0.6628 -1.2705 -1.4520
 3441TIP3   OH231737   2.418   6.341   9.382 -0.2600 -0.1495 -0.5059
 3441TIP3    H131738   2.469   6.270   9.342 -0.3449 -0.8208  0.5490
 3441TIP3    H231739   2.373   6.300   9.456 -2.5667  0.3762 -1.5470
 3442TIP3   OH231740   2.383   2.416  11.291  0.3565 -0.1998  0.7265
 3442TIP3    H131741   2.347   2.432  11.204 -0.5993 -1.9281  0.7595
 3442TIP3    H231742   2.477   2.400  11.276  0.3140  0.1203  0.0973
 3443TIP3   OH231743   2.373   0.833  14.538  0.0628 -0.3351 -0.2519
 3443TIP3    H131744   2.405   0.764  14.597  1.8154 -0.6799 -1.5098
 3443TIP3    H231745   2.371   0.912  14.592  0.8515 -0.7980  0.4792
 3444TIP3   OH231746   4.155   3.867  14.598  0.2461  0.1588  0.1832
 3444TIP3    H131747   4.170   3.803  14.528  0.9301  0.0974  0.3784
 3444TIP3    H231748   4.163   3.952  14.554  0.1191  0.1190  0.0801
 3445TIP3   OH231749   1.642   1.087  14.175 -0.4862  0.0655  0.1806
 3445TIP3    H131750   1.554   1.068  14.143 -0.2535 -0.8093  0.0194
 3445TIP3    H231751   1.672   1.004  14.212 -0.6190  0.9499  2.3918
 3446TIP3   OH231752   1.010   6.868  10.127 -0.1029  0.4596 -0.6857
 3446TIP3    H131753   1.053   6.788  10.098  0.5163  0.3113  0.5774
 3446TIP3    H231754   1.058   6.894  10.206 -0.4627  1.9242 -0.9174
 3447TIP3   OH231755   0.177   4.200   2.705 -0.4668  0.0203 -0.7684
 3447TIP3    H131756   0.263   4.179   2.741 -0.4426  0.3983 -0.6015
 3447TIP3    H231757   0.118   4.192   2.779 -0.6433 -0.6361 -0.9695
 3448TIP3   OH231758   2.254   2.694  11.388  0.1025 -0.6463 -0.2775
 3448TIP3    H131759   2.316   2.624  11.364  0.1244 -0.2037 -1.6341
 3448TIP3    H231760   2.257   2.754  11.313 -0.8692  0.1468  0.3054
 3449TIP3   OH231761   4.498   0.678   1.662 -0.3733  0.3315  0.3506
 3449TIP3    H131762   4.541   0.759   1.633 -0.5795 -0.0455 -1.0996
 3449TIP3    H231763   4.504   0.620   1.587 -2.1281 -0.2501  0.6169
 3450TIP3   OH231764   0.545   4.808  12.924  0.0743  0.4657  0.3406
 3450TIP3    H131765   0.622   4.841  12.969 -1.4394  1.4979  2.3357
 3450TIP3    H231766   0.510   4.885  12.877  0.5878 -0.1547 -1.1319
 3451TIP3   OH231767   1.768   2.999  10.451  0.1858  0.0968  0.2307
 3451TIP3    H131768   1.805   2.924  10.499  3.2247 -0.8424 -3.1375
 3451TIP3    H231769   1.803   3.075  10.496  2.9091 -0.7489 -0.2117
 3452TIP3   OH231770   4.084   3.363  13.197 -0.7759  1.0168 -0.0110
 3452TIP3    H131771   4.178   3.376  13.189 -0.6006  0.0800  0.3883
 3452TIP3    H231772   4.065   3.376  13.290 -0.6367 -1.0222  0.3606
 3453TIP3   OH231773   0.650   5.450  14.048  0.3942  0.3445 -0.0524
 3453TIP3    H131774   0.742   5.447  14.024 -0.0480 -1.2254 -1.7433
 3453TIP3    H231775   0.650   5.447  14.143  2.0491 -1.9422 -0.0614
 3454TIP3   OH231776   5.800   6.892   1.913  0.3809  0.1271  0.1170
 3454TIP3    H131777   5.728   6.914   1.854  0.4326 -1.3349 -0.5477
 3454TIP3    H231778   5.784   6.801   1.938  1.4159  0.1151  0.8088
 3455TIP3   OH231779   6.995   6.860  11.536 -0.1204  0.2783 -0.3750
 3455TIP3    H131780   6.993   6.923  11.609 -0.0640 -1.9061  1.6461
 3455TIP3    H231781   6.905   6.858  11.504 -0.6354 -0.1721  1.0203
 3456TIP3   OH231782   5.869   0.991  14.270  0.3505  0.3562 -0.5344
 3456TIP3    H131783   5.896   0.990  14.178  0.9885  0.4178 -0.3564
 3456TIP3    H231784   5.853   1.083  14.289 -1.3728  0.1836 -1.0167
 3457TIP3   OH231785   5.209   2.723  10.072  0.5905  0.5288  0.4225
 3457TIP3    H131786   5.215   2.818  10.067  0.2876  0.5074 -0.5341
 3457TIP3    H231787   5.259   2.700  10.150  1.3473  1.4066  0.2109
 3458TIP3   OH231788   0.935   5.253  15.276  0.1304 -0.0400 -0.3244
 3458TIP3    H131789   0.848   5.294  15.282 -0.0889 -0.4964 -0.3180
 3458TIP3    H231790   0.944   5.205  15.359 -0.1993 -1.1196 -0.8866
 3459TIP3   OH231791   6.988   5.643   9.738 -0.2867  0.3984 -0.0629
 3459TIP3    H131792   7.002   5.602   9.652 -0.6461  1.6081 -0.7255
 3459TIP3    H231793   6.977   5.737   9.718 -0.4158  0.6918  1.3037
 3460TIP3   OH231794   6.988   6.807   1.828  0.0610 -0.1819 -0.2377
 3460TIP3    H131795   6.907   6.769   1.794  0.6513 -0.6349 -1.1738
 3460TIP3    H231796   6.996   6.773   1.917 -0.5999 -0.3986 -0.2611
 3461TIP3   OH231797   5.669   7.061  13.789 -0.4150  0.6545  0.3949
 3461TIP3    H131798   5.575   7.059  13.773 -0.6326  1.7686  1.3929
 3461TIP3    H231799   5.678   7.092  13.879  0.9017  0.2388  0.4327
 3462TIP3   OH231800   1.781   7.028  12.281 -0.0248 -0.1794  0.3287
 3462TIP3    H131801   1.712   7.009  12.345  0.6336  0.1649  1.1632
 3462TIP3    H231802   1.859   7.043  12.335 -0.0149  2.8205 -0.3325
 3463TIP3   OH231803   3.235   0.045  11.495  0.3448  0.1082  0.2984
 3463TIP3    H131804   3.253   0.139  11.499 -0.0190  0.1535  1.0178
 3463TIP3    H231805   3.303   0.010  11.438 -0.8068  1.1157 -1.8487
 3464TIP3   OH231806   0.078   0.534  11.909 -0.4711 -0.0886  0.5047
 3464TIP3    H131807   0.110   0.450  11.941  0.9626  0.5137  0.7018
 3464TIP3    H231808   0.134   0.599  11.950  0.4596  0.8217 -2.0039
 3465TIP3   OH231809   4.507   6.497  10.080  0.0751 -0.0966  0.1399
 3465TIP3    H131810   4.423   6.455  10.061  0.9253 -0.7025 -2.8274
 3465TIP3    H231811   4.529   6.543  10.000  2.2638  0.6287  1.0879
 3466TIP3   OH231812   3.263   5.007  14.104  0.3781 -0.4255  0.3493
 3466TIP3    H131813   3.341   5.040  14.148 -0.3471  1.4619  0.3172
 3466TIP3    H231814   3.210   5.086  14.087 -2.9387 -1.8120  3.0021
 3467TIP3   OH231815   1.107   0.367  10.957 -0.0467  0.3292 -0.4895
 3467TIP3    H131816   1.130   0.456  10.930 -0.1379 -0.0978 -2.0475
 3467TIP3    H231817   1.030   0.345  10.905 -0.3956 -0.4431  0.3346
 3468TIP3   OH231818   4.435   2.388   3.072 -0.5975 -0.3807 -0.3529
 3468TIP3    H131819   4.404   2.315   3.020  0.3180  0.4065 -2.1040
 3468TIP3    H231820   4.450   2.351   3.159 -0.9375 -2.0689 -0.9729
 3469TIP3   OH231821   0.312   4.692   2.889  0.2935  0.7937 -0.4627
 3469TIP3    H131822   0.258   4.740   2.951 -1.0905  0.1518 -1.1329
 3469TIP3    H231823   0.360   4.760   2.841 -0.8885  1.4745 -0.7192
 3470TIP3   OH231824   1.121   1.848  10.465 -0.6563 -0.0749 -0.0320
 3470TIP3    H131825   1.097   1.863  10.373 -0.1255 -0.4410 -0.2352
 3470TIP3    H231826   1.137   1.753  10.470  2.4680  0.3397 -0.3351
 3471TIP3   OH231827   0.562   6.662  11.915 -0.0351  0.2730  0.1499
 3471TIP3    H131828   0.588   6.685  11.826 -0.1984  0.0246  0.0348
 3471TIP3    H231829   0.467   6.673  11.916 -0.1803 -0.8269 -0.0480
 3472TIP3   OH231830   2.802   3.563  15.460 -0.0434  0.3608 -0.2792
 3472TIP3    H131831   2.734   3.518  15.409  0.9640  1.4522 -2.7246
 3472TIP3    H231832   2.821   3.503  15.532 -2.0381 -0.9486 -0.7607
 3473TIP3   OH231833   0.819   7.032   0.284 -0.4367 -0.1288 -0.6930
 3473TIP3    H131834   0.910   7.063   0.278 -0.7359  0.6120 -1.6412
 3473TIP3    H231835   0.780   7.057   0.200 -1.1460 -1.6938 -0.8590
 3474TIP3   OH231836   0.562   5.316  11.981  0.0668  0.4648  0.2530
 3474TIP3    H131837   0.650   5.287  11.957  0.2073  1.2493 -0.2186
 3474TIP3    H231838   0.559   5.309  12.076  0.4582 -0.0628  0.2297
 3475TIP3   OH231839   2.631   5.122  15.503 -0.3878 -0.3019 -0.2732
 3475TIP3    H131840   2.721   5.142  15.531 -0.6136 -0.0411  0.2781
 3475TIP3    H231841   2.635   5.031  15.474  0.7022  0.5283 -3.0074
 3476TIP3   OH231842   3.867   3.106  11.142 -0.2026 -0.2053 -0.0468
 3476TIP3    H131843   3.885   3.055  11.063 -1.3930  0.4711 -0.7864
 3476TIP3    H231844   3.869   3.197  11.112 -1.1469  0.0394  0.5869
 3477TIP3   OH231845   6.690   1.754   2.568  0.5335  0.0950 -0.4850
 3477TIP3    H131846   6.672   1.768   2.475  0.1367  0.1603 -0.3996
 3477TIP3    H231847   6.637   1.820   2.612  0.0591 -0.4888 -0.1701
 3478TIP3   OH231848   2.763   3.043  11.928 -0.0126  0.2177 -0.0550
 3478TIP3    H131849   2.784   3.007  12.014 -1.0588 -1.6214 -0.5121
 3478TIP3    H231850   2.774   3.137  11.938 -0.0006  0.0421  2.0581
 3479TIP3   OH231851   2.099   2.639  10.363  0.0742 -0.4173  0.1441
 3479TIP3    H131852   2.134   2.551  10.350 -0.3010 -0.5047 -0.2855
 3479TIP3    H231853   2.005   2.626  10.379  0.0315 -0.1000  0.1639
 3480TIP3   OH231854   1.246   1.614  13.873  0.4015 -0.8416 -0.1972
 3480TIP3    H131855   1.243   1.696  13.924  0.7097 -0.2926 -1.0406
 3480TIP3    H231856   1.224   1.641  13.784  3.1124 -1.2158 -1.0527
 3481TIP3   OH231857   2.901   4.424  10.991 -0.2058  0.8843  0.5185
 3481TIP3    H131858   2.929   4.494  11.051 -0.4446 -0.0836  1.8052
 3481TIP3    H231859   2.942   4.447  10.907 -0.5037  2.7098  0.8252
 3482TIP3   OH231860   2.632   0.226  11.277 -0.0826 -0.4309  0.4784
 3482TIP3    H131861   2.547   0.248  11.315  0.4249  0.6455  1.0370
 3482TIP3    H231862   2.666   0.309  11.244  0.0201 -1.1324 -1.3080
 3483TIP3   OH231863   1.003   5.541  10.334 -0.0703 -0.2997 -0.0295
 3483TIP3    H131864   0.932   5.602  10.354 -0.1940 -0.5457  0.2935
 3483TIP3    H231865   1.083   5.592  10.349 -0.0757 -1.0605  3.3439
 3484TIP3   OH231866   1.808   6.071  10.498 -0.7144  0.1398 -0.3338
 3484TIP3    H131867   1.865   6.013  10.548 -1.1753  1.3209  1.6521
 3484TIP3    H231868   1.727   6.021  10.485 -0.1394 -0.6272 -0.9979
 3485TIP3   OH231869   0.016   3.507   2.307  1.0595  0.3045 -0.3058
 3485TIP3    H131870   0.008   3.593   2.348  1.1662 -0.4683  1.4187
 3485TIP3    H231871  -0.072   3.486   2.278  0.8522  0.6219  0.0733
 3486TIP3   OH231872   7.031   7.073   1.786 -0.5320 -0.9426  0.0272
 3486TIP3    H131873   7.120   7.044   1.769 -0.2186  0.8842 -1.9514
 3486TIP3    H231874   6.988   6.998   1.825  1.9026 -1.8200  1.2279
 3487TIP3   OH231875   1.225   4.636  12.799 -0.5732 -0.2090 -0.2501
 3487TIP3    H131876   1.229   4.679  12.884  0.9928  0.2596 -0.5247
 3487TIP3    H231877   1.236   4.707  12.736 -0.4225 -0.7032 -0.7931
 3488TIP3   OH231878   5.649   1.534  13.372 -0.4036  0.3643 -0.6665
 3488TIP3    H131879   5.562   1.540  13.410  0.1714 -1.5457  1.1299
 3488TIP3    H231880   5.703   1.589  13.428  0.0180 -0.5829 -0.1257
 3489TIP3   OH231881   3.441   0.166  14.695 -0.2977 -0.2581  0.4398
 3489TIP3    H131882   3.403   0.244  14.654 -1.4611 -0.5368  0.9559
 3489TIP3    H231883   3.410   0.169  14.785  0.3615 -0.8748  0.6954
 3490TIP3   OH231884   4.172   6.629  10.221  0.4933 -0.3398 -0.3425
 3490TIP3    H131885   4.162   6.694  10.152 -2.1969  0.2665  0.4836
 3490TIP3    H231886   4.202   6.550  10.176  1.6266  0.8127 -1.7070
 3491TIP3   OH231887   0.271   4.668   4.427 -0.4116 -0.0448 -0.3390
 3491TIP3    H131888   0.239   4.579   4.445 -2.6891  0.9103  0.6065
 3491TIP3    H231889   0.204   4.707   4.372 -0.0530  1.4869  0.2614
 3492TIP3   OH231890   3.808   1.106  12.524 -0.7452  0.4787 -0.2438
 3492TIP3    H131891   3.795   1.072  12.612  0.7733  0.6838  0.0797
 3492TIP3    H231892   3.807   1.201  12.534 -1.0279  0.5063 -0.5180
 3493TIP3   OH231893   6.233   3.071  10.464 -0.1508 -0.4447  0.3406
 3493TIP3    H131894   6.162   3.080  10.401 -0.3028 -1.2982  0.3859
 3493TIP3    H231895   6.279   3.156  10.461  0.8311 -0.9930 -2.0803
 3494TIP3   OH231896   1.016   3.752  14.899 -0.9790  0.2591 -0.3892
 3494TIP3    H131897   1.025   3.660  14.875 -0.8036  0.6892 -2.1250
 3494TIP3    H231898   0.923   3.770  14.889 -1.0082  0.2681 -0.0826
 3495TIP3   OH231899   1.945   4.138  14.400 -0.8596  0.2272 -0.2884
 3495TIP3    H131900   1.850   4.126  14.398 -0.6555 -1.5327 -0.7739
 3495TIP3    H231901   1.959   4.203  14.469 -2.2387 -1.9032  2.2097
 3496TIP3   OH231902   0.634   5.587  13.767  0.3359  0.1109 -0.1874
 3496TIP3    H131903   0.701   5.622  13.708  0.3771  0.5140  0.0913
 3496TIP3    H231904   0.676   5.587  13.853 -0.6287  2.1969  0.3514
 3497TIP3   OH231905   5.730   5.688  15.465 -0.1771 -0.1604  0.1454
 3497TIP3    H131906   5.699   5.693  15.555  0.4303 -2.6841  0.5663
 3497TIP3    H231907   5.771   5.773  15.448 -1.6949  0.9338  1.6681
 3498TIP3   OH231908   1.022   6.495   2.505 -0.0450  0.0521  0.3165
 3498TIP3    H131909   1.004   6.584   2.537  0.2290  0.1071  0.3216
 3498TIP3    H231910   1.118   6.487   2.509 -0.1047 -0.4486  0.8549
 3499TIP3   OH231911   4.554   0.369  12.567  0.2555 -0.5182 -0.0399
 3499TIP3    H131912   4.527   0.389  12.657 -0.2356  0.8405 -0.4597
 3499TIP3    H231913   4.521   0.443  12.516  0.9556 -1.0337 -1.2640
 3500TIP3   OH231914   1.533   4.956   1.193  0.2823  0.5704  0.2902
 3500TIP3    H131915   1.501   4.894   1.258 -1.9507  1.8067  0.4711
 3500TIP3    H231916   1.494   4.926   1.110 -0.4664  1.4384  0.3105
 3501TIP3   OH231917   1.804   6.439   0.741 -0.0581  0.0456 -0.1235
 3501TIP3    H131918   1.893   6.404   0.739 -0.2685 -0.5507  0.3567
 3501TIP3    H231919   1.777   6.445   0.649  0.1993 -0.5146 -0.2382
 3502TIP3   OH231920   0.902   6.639  13.322  0.2199  0.7792  0.6413
 3502TIP3    H131921   0.807   6.626  13.333  0.4911 -0.1868  2.1895
 3502TIP3    H231922   0.941   6.594  13.397  1.9970 -0.0428 -0.7014
 3503TIP3   OH231923   3.991   6.982  12.995 -0.0992  0.2243 -0.3911
 3503TIP3    H131924   4.076   6.957  12.960  0.4749  2.2907 -0.5977
 3503TIP3    H231925   3.994   6.955  13.087  1.2836  1.3544 -0.0721
 3504TIP3   OH231926   0.879   4.291  14.985  0.0478 -0.6479  0.0412
 3504TIP3    H131927   0.798   4.328  14.949  0.3447 -0.1309 -0.1018
 3504TIP3    H231928   0.934   4.276  14.909  0.1207 -0.9187  0.1484
 3505TIP3   OH231929   5.895   2.962   9.360  0.2583 -0.9017  0.0122
 3505TIP3    H131930   5.907   2.870   9.384  1.6850 -0.9170 -0.6798
 3505TIP3    H231931   5.924   3.010   9.438 -1.8407 -1.0122  0.9285
 3506TIP3   OH231932   2.070   1.526   0.910  0.2225 -0.3945  0.1582
 3506TIP3    H131933   2.158   1.564   0.907  0.3428 -0.5141  1.4367
 3506TIP3    H231934   2.046   1.514   0.819  2.0384 -1.4960 -0.2256
 3507TIP3   OH231935   4.053   3.003   0.398  0.4167 -0.4485  0.1719
 3507TIP3    H131936   3.962   3.006   0.428  0.0856  0.4747 -0.8641
 3507TIP3    H231937   4.055   2.930   0.336  0.0165  0.4120 -0.8813
 3508TIP3   OH231938   4.757   3.407   3.416 -0.7550 -0.1591 -0.1514
 3508TIP3    H131939   4.786   3.440   3.331  3.3225 -3.0552 -0.1590
 3508TIP3    H231940   4.806   3.459   3.479 -2.4112  0.7551  0.4613
 3509TIP3   OH231941   0.502   4.590  10.284 -0.3249  0.1528 -0.5670
 3509TIP3    H131942   0.431   4.534  10.254 -1.0046  1.4171 -1.4360
 3509TIP3    H231943   0.582   4.541  10.266 -0.9409 -0.9968 -0.2239
 3510TIP3   OH231944   4.597   5.450  13.955 -0.3163 -0.1815 -0.3249
 3510TIP3    H131945   4.540   5.514  13.912  0.8654  0.6411 -0.7188
 3510TIP3    H231946   4.601   5.479  14.046 -0.7746 -0.4247 -0.2266
 3511TIP3   OH231947   0.753   4.513  12.334  0.1796  0.9490  0.1696
 3511TIP3    H131948   0.835   4.549  12.369  0.1430  1.3395 -0.1432
 3511TIP3    H231949   0.782   4.448  12.271  0.2706  1.9664 -0.8672
 3512TIP3   OH231950   4.247   5.988  13.026 -0.1161  0.3276  0.3474
 3512TIP3    H131951   4.199   5.908  13.048  0.2405 -0.0926 -0.3704
 3512TIP3    H231952   4.275   5.976  12.935 -0.2543  1.3708  0.1491
 3513TIP3   OH231953   5.694   1.217  11.760  0.3558  0.1603 -0.0979
 3513TIP3    H131954   5.778   1.174  11.747  0.0525 -0.6096  0.4253
 3513TIP3    H231955   5.664   1.187  11.845 -0.6341  0.1154 -0.4423
 3514TIP3   OH231956   2.436   6.445  12.984  0.4980 -0.7590  0.0147
 3514TIP3    H131957   2.471   6.479  13.066 -1.6949  0.6172  0.4650
 3514TIP3    H231958   2.352   6.406  13.008  0.3171 -1.3224 -1.4314
 3515TIP3   OH231959   1.114   6.233  13.880 -0.2220 -0.1673  0.2831
 3515TIP3    H131960   1.164   6.167  13.927 -0.6429  0.2620  1.3739
 3515TIP3    H231961   1.055   6.270  13.946 -1.7975 -0.4705 -0.8805
 3516TIP3   OH231962   5.920   0.856   2.401  0.3394 -0.1148 -0.0732
 3516TIP3    H131963   5.838   0.884   2.443  0.7545  1.1947 -0.1007
 3516TIP3    H231964   5.984   0.855   2.471  0.0464 -2.4673  0.2286
 3517TIP3   OH231965   2.471   4.029  14.377  0.2636 -0.3996  0.1216
 3517TIP3    H131966   2.485   4.042  14.471 -0.1463  0.7030  0.0421
 3517TIP3    H231967   2.427   3.944  14.371 -1.3656  0.3433  1.0758
 3518TIP3   OH231968   6.592   2.374   0.727  0.4151  0.5333  0.3982
 3518TIP3    H131969   6.636   2.304   0.775 -0.7842 -0.4596  0.1352
 3518TIP3    H231970   6.656   2.405   0.664  0.1296 -2.4767 -1.6005
 3519TIP3   OH231971   4.327   0.457   1.510 -0.3165  0.2132 -0.3868
 3519TIP3    H131972   4.244   0.448   1.462 -0.7020  1.8647 -0.0834
 3519TIP3    H231973   4.300   0.464   1.601  0.3688 -2.0691  0.0634
 3520TIP3   OH231974   4.476   0.449  12.817 -0.3684  0.5982 -0.6008
 3520TIP3    H131975   4.474   0.493  12.902  1.1203  2.1772 -1.3160
 3520TIP3    H231976   4.384   0.429  12.798 -0.6100 -1.2047  2.0213
 3521TIP3   OH231977   2.794   5.221  11.133  0.3122  0.1433 -0.7864
 3521TIP3    H131978   2.832   5.137  11.105  0.2969  0.2272 -1.0606
 3521TIP3    H231979   2.700   5.208  11.122  0.2726 -0.0067 -0.2664
 3522TIP3   OH231980   2.334   4.461  14.205  0.0654 -0.2162 -0.1017
 3522TIP3    H131981   2.408   4.454  14.266 -1.0273  0.7511  1.4294
 3522TIP3    H231982   2.366   4.517  14.134  1.0081 -0.3606  0.2027
 3523TIP3   OH231983   5.768   6.820  10.610  0.1500 -0.3534  0.4056
 3523TIP3    H131984   5.831   6.795  10.543  0.6673 -1.1718  1.1735
 3523TIP3    H231985   5.761   6.743  10.667 -1.9869 -0.5141  0.0183
 3524TIP3   OH231986   5.663   3.174   2.850 -0.4412  0.1358  0.3091
 3524TIP3    H131987   5.628   3.224   2.923 -0.7627  0.6376 -0.1869
 3524TIP3    H231988   5.758   3.190   2.852 -0.5093  0.5313  0.3236
 3525TIP3   OH231989   4.879   2.901  12.462  0.7498  0.0206  0.1777
 3525TIP3    H131990   4.907   2.986  12.428 -1.4393  0.8486  0.2885
 3525TIP3    H231991   4.791   2.917  12.497  0.2614 -2.3129  0.1558
 3526TIP3   OH231992   2.521   2.573  14.914 -0.0592 -0.7849  0.1835
 3526TIP3    H131993   2.542   2.599  15.004  1.8626  1.9901 -0.9328
 3526TIP3    H231994   2.595   2.518  14.887  0.5508  0.2705 -0.3710
 3527TIP3   OH231995   2.572   5.740   3.007 -0.1360  0.1665 -0.2708
 3527TIP3    H131996   2.620   5.762   3.087 -1.2972 -2.7838  1.3990
 3527TIP3    H231997   2.481   5.763   3.026 -0.4183 -0.5152 -0.7339
 3528TIP3   OH231998   4.435   3.742   1.230  0.1095  0.0607  0.6483
 3528TIP3    H131999   4.378   3.723   1.155 -0.5548  1.5107  0.7649
 3528TIP3    H232000   4.516   3.775   1.191  0.4103 -0.7997  0.5263
 3529TIP3   OH232001   4.111   6.547  14.680 -0.1773 -0.0348  0.2870
 3529TIP3    H132002   4.093   6.620  14.620 -0.8201 -0.1889  0.2898
 3529TIP3    H232003   4.026   6.521  14.713  0.1472 -0.1422  1.0602
 3530TIP3   OH232004   4.143   3.977  13.584  0.3884 -0.2960  0.1532
 3530TIP3    H132005   4.223   4.019  13.553 -1.3251  2.6977 -0.6240
 3530TIP3    H232006   4.144   3.990  13.679  0.3019  0.8364  0.0143
 3531TIP3   OH232007   4.482   6.549  10.486 -0.2059 -0.4556 -0.3367
 3531TIP3    H132008   4.539   6.603  10.539  1.1729 -0.2887 -1.9051
 3531TIP3    H232009   4.409   6.607  10.462 -0.5625 -0.3796  0.8582
 3532TIP3   OH232010   3.047   3.753  13.396 -0.5121  0.2918 -0.1411
 3532TIP3    H132011   3.124   3.751  13.339  1.3537  1.6059  2.1454
 3532TIP3    H232012   2.973   3.766  13.336  1.0399 -0.5236 -2.3967
 3533TIP3   OH232013   5.725   6.109  12.337 -0.1339 -0.3291 -0.2585
 3533TIP3    H132014   5.782   6.162  12.281 -1.1389  1.3179  0.1869
 3533TIP3    H232015   5.650   6.088  12.280  0.4346 -1.6452 -0.5498
 3534TIP3   OH232016   4.796   0.299  10.547  0.4413  0.4539 -0.4500
 3534TIP3    H132017   4.754   0.283  10.631 -0.4072 -0.7292 -1.0694
 3534TIP3    H232018   4.881   0.336  10.569  0.7288 -0.9626  0.9915
 3535TIP3   OH232019   4.696   6.892  11.777  0.6216 -0.2035 -0.3355
 3535TIP3    H132020   4.757   6.861  11.710  2.0113 -3.4475  2.1677
 3535TIP3    H232021   4.751   6.935  11.842 -0.1201 -0.6432  0.6036
 3536TIP3   OH232022   2.997   2.720  11.371  0.0204  0.3773 -0.4180
 3536TIP3    H132023   2.977   2.794  11.314 -2.6192  0.7815  0.8740
 3536TIP3    H232024   3.012   2.647  11.311  2.3782  1.8000 -1.7080
 3537TIP3   OH232025   3.919   3.469  11.921  0.0302 -0.1514  0.3381
 3537TIP3    H132026   3.915   3.552  11.969  1.0176  0.1568 -0.0737
 3537TIP3    H232027   3.971   3.490  11.843  0.0258 -1.0861  0.0784
 3538TIP3   OH232028   0.189   0.946  11.847  0.1675 -0.2334  0.0258
 3538TIP3    H132029   0.247   1.022  11.856  0.8958 -0.6369 -1.0659
 3538TIP3    H232030   0.158   0.929  11.936 -0.2621  1.5253  0.2524
 3539TIP3   OH232031   6.590   5.022  14.959 -0.2175 -0.2526 -0.2066
 3539TIP3    H132032   6.669   4.968  14.961 -0.3090 -0.3871  1.7869
 3539TIP3    H232033   6.608   5.089  14.893  0.6993 -1.5160 -1.2901
 3540TIP3   OH232034   6.805   3.459   9.894  0.0264  0.1214  0.0567
 3540TIP3    H132035   6.865   3.432   9.964  0.2474  0.6940  0.0955
 3540TIP3    H232036   6.741   3.514   9.938  1.5359  2.5075 -0.5370
 3541TIP3   OH232037   1.500   2.921  11.383  0.1160  0.1868 -0.7776
 3541TIP3    H132038   1.433   2.856  11.362  0.1979  0.3172 -1.4915
 3541TIP3    H232039   1.582   2.873  11.377  0.0598 -0.1250  0.7265
 3542TIP3   OH232040   1.630   3.545  13.809 -0.0825 -0.1055  0.5878
 3542TIP3    H132041   1.583   3.525  13.728 -0.8933 -0.9353  1.2480
 3542TIP3    H232042   1.575   3.611  13.853 -0.0430 -0.2305  0.8261
 3543TIP3   OH232043   4.872   1.309   2.131 -0.2613  0.3428  0.8404
 3543TIP3    H132044   4.852   1.218   2.108 -1.3835 -0.0444  3.0068
 3543TIP3    H232045   4.963   1.305   2.162 -0.1027  0.0926  0.3620
 3544TIP3   OH232046   0.284   5.242  11.613 -0.1105  0.0481 -0.4767
 3544TIP3    H132047   0.352   5.239  11.680 -0.2848 -0.3807 -0.3128
 3544TIP3    H232048   0.262   5.334  11.604 -0.8225  0.0171  0.8029
 3545TIP3   OH232049   6.454   1.627   0.707 -0.3677  0.0239 -0.0152
 3545TIP3    H132050   6.422   1.703   0.659 -1.1623  0.8971  1.7863
 3545TIP3    H232051   6.503   1.576   0.643  0.2615  2.0884 -1.2554
 3546TIP3   OH232052   2.265   6.178  11.948 -0.0894  0.3206  0.1580
 3546TIP3    H132053   2.231   6.092  11.922 -0.9979  0.5326  0.5794
 3546TIP3    H232054   2.199   6.240  11.915  1.0990  0.9601 -1.1183
 3547TIP3   OH232055   3.589   5.748   3.835  0.3679  0.2483  0.1559
 3547TIP3    H132056   3.503   5.779   3.865  0.6880  0.6393  0.6838
 3547TIP3    H232057   3.650   5.817   3.862  0.7322  0.4151 -1.0329
 3548TIP3   OH232058   3.547   2.499  12.939  0.1832 -1.0343 -0.0816
 3548TIP3    H132059   3.605   2.551  12.994 -0.2836  0.2900 -0.7857
 3548TIP3    H232060   3.590   2.499  12.853  1.5012 -4.0449  0.4601
 3549TIP3   OH232061   4.778   2.621   3.411 -0.6107  0.0767  0.8228
 3549TIP3    H132062   4.761   2.626   3.317  0.3820  0.7805  0.6591
 3549TIP3    H232063   4.840   2.548   3.421 -1.0564 -0.2790  0.9843
 3550TIP3   OH232064   1.178   6.625  13.356  0.1589 -0.4307  0.0009
 3550TIP3    H132065   1.095   6.628  13.308  0.4156 -1.6459 -0.5626
 3550TIP3    H232066   1.205   6.716  13.363 -1.4959  0.0390  0.6961
 3551TIP3   OH232067   6.478   4.511  14.363 -0.1448 -0.2809 -0.4675
 3551TIP3    H132068   6.487   4.591  14.311  1.4636  0.1046  0.3366
 3551TIP3    H232069   6.445   4.541  14.447  1.7536 -0.2351  0.3045
 3552TIP3   OH232070   6.633   1.548  12.686 -0.2702  0.4111 -0.4220
 3552TIP3    H132071   6.549   1.592  12.699  0.4795  1.7385  0.0333
 3552TIP3    H232072   6.693   1.590  12.747  0.4812 -1.3052  0.0923
 3553TIP3   OH232073   0.118   0.898   0.966 -0.0044  0.1463  0.2914
 3553TIP3    H132074   0.113   0.993   0.970 -0.6074  0.0781  1.4144
 3553TIP3    H232075   0.081   0.876   0.880  0.7142  0.9352 -0.2497
 3554TIP3   OH232076   3.014   0.371   4.791 -0.9248  0.3867  0.1010
 3554TIP3    H132077   2.931   0.419   4.797 -0.5823  1.1686 -0.9743
 3554TIP3    H232078   3.039   0.380   4.699  1.7530  2.6320  0.9154
 3555TIP3   OH232079   1.569   3.491  14.612  0.1169 -0.5676 -0.2331
 3555TIP3    H132080   1.585   3.455  14.524  0.0519 -0.4425 -0.2969
 3555TIP3    H232081   1.521   3.422  14.658 -0.9078 -0.1680 -0.6833
 3556TIP3   OH232082   5.862   5.500   2.317 -0.1260  0.1530  0.5212
 3556TIP3    H132083   5.932   5.544   2.365 -0.2078 -0.5720  1.3477
 3556TIP3    H232084   5.848   5.419   2.366 -0.8934 -0.1515 -0.1850
 3557TIP3   OH232085   1.255   6.849  13.802 -0.7165  0.1176  0.5884
 3557TIP3    H132086   1.296   6.876  13.719 -2.1961  0.7762  0.0396
 3557TIP3    H232087   1.306   6.894  13.869  0.1364  0.0524  0.0113
 3558TIP3   OH232088   1.355   6.039   9.459  0.6863  0.0668  0.2467
 3558TIP3    H132089   1.430   6.085   9.497  0.9173 -0.7415  0.7953
 3558TIP3    H232090   1.279   6.076   9.505  0.9848 -1.1158  1.7904
 3559TIP3   OH232091   6.705   2.949  10.541  0.1254  0.1121 -0.0249
 3559TIP3    H132092   6.614   2.958  10.572  0.0501 -2.7903  0.9109
 3559TIP3    H232093   6.700   2.886  10.470  1.4854 -0.6376  0.5107
 3560TIP3   OH232094   2.934   6.215  12.239 -0.1878 -0.6711 -0.4703
 3560TIP3    H132095   2.909   6.137  12.189 -1.7594  0.1113 -0.9953
 3560TIP3    H232096   2.857   6.233  12.293 -0.5336  1.4511 -1.5742
 3561TIP3   OH232097   5.261   5.971   1.397  0.2491  0.1294  0.0107
 3561TIP3    H132098   5.301   5.961   1.311 -0.9433  0.8516 -0.6515
 3561TIP3    H232099   5.287   6.058   1.426  0.6710 -0.1223  0.4054
 3562TIP3   OH232100   5.188   3.473  14.230  0.2966 -0.1285 -0.0252
 3562TIP3    H132101   5.260   3.412  14.242  1.3263  1.2235  1.0431
 3562TIP3    H232102   5.190   3.528  14.309 -1.3196  0.5362 -0.4054
 3563TIP3   OH232103   1.220   1.602  11.902 -0.6704 -0.8448  0.2337
 3563TIP3    H132104   1.150   1.539  11.882  0.3250 -0.9661 -3.6786
 3563TIP3    H232105   1.289   1.550  11.942 -1.5239 -1.3212  1.1408
 3564TIP3   OH232106   0.412   3.662  10.296  0.2245 -0.3742  0.0217
 3564TIP3    H132107   0.393   3.635  10.206  0.1401  0.8450 -0.3444
 3564TIP3    H232108   0.332   3.707  10.325  0.9642  1.0313 -0.0296
 3565TIP3   OH232109   2.435   1.043  13.280  0.5878  0.4396  0.1684
 3565TIP3    H132110   2.376   1.094  13.226  1.3750  0.8548 -0.3221
 3565TIP3    H232111   2.493   0.998  13.218  0.1883 -0.7267  0.5985
 3566TIP3   OH232112   4.022   6.067  15.242  0.2014  0.2041 -0.6391
 3566TIP3    H132113   3.982   6.040  15.325  1.2476  2.8454  0.8689
 3566TIP3    H232114   3.951   6.065  15.179 -0.9007 -0.8050  0.5794
 3567TIP3   OH232115   4.737   5.989   1.636 -0.2383  0.5135  0.4856
 3567TIP3    H132116   4.808   5.987   1.573  0.0874  0.0625  0.8601
 3567TIP3    H232117   4.759   5.921   1.700 -1.8632 -0.8207 -0.2985
 3568TIP3   OH232118   2.585   2.407  12.870 -0.5733  0.1245  0.1953
 3568TIP3    H132119   2.505   2.444  12.906 -1.5412 -1.0033 -0.7110
 3568TIP3    H232120   2.581   2.314  12.895 -0.2487 -0.2320 -1.0097
 3569TIP3   OH232121   3.068   6.172   1.127  0.4960 -0.6937 -0.0564
 3569TIP3    H132122   2.990   6.218   1.156  0.4830 -0.7699  0.0312
 3569TIP3    H232123   3.121   6.238   1.084  0.1486 -0.7509 -0.5792
 3570TIP3   OH232124   5.819   1.495  15.558  0.3102  0.2860 -0.3177
 3570TIP3    H132125   5.760   1.428  15.592 -0.4028  1.0907  0.0436
 3570TIP3    H232126   5.770   1.538  15.488  1.0118  0.0141 -1.0032
 3571TIP3   OH232127   6.437   0.004   3.930  0.2902  0.5187 -0.3871
 3571TIP3    H132128   6.521  -0.010   3.886  0.0846  0.0838 -0.6465
 3571TIP3    H232129   6.376   0.024   3.859 -0.0727 -0.3224 -0.3238
 3572TIP3   OH232130   4.375   3.588  14.980  0.3124 -0.2352  0.5728
 3572TIP3    H132131   4.406   3.591  15.071  0.9480 -0.0355  0.3605
 3572TIP3    H232132   4.395   3.499  14.952 -0.0827 -0.3615  0.6971
 3573TIP3   OH232133   2.285   1.647   4.315  0.3133  0.2096 -0.0094
 3573TIP3    H132134   2.199   1.683   4.338  0.3506 -0.1270  0.6736
 3573TIP3    H232135   2.341   1.671   4.388  0.9241  0.8246 -0.6651
 3574TIP3   OH232136   5.759   0.513  14.182 -0.2632 -0.3764  0.5738
 3574TIP3    H132137   5.811   0.461  14.121 -2.2642 -0.3220 -1.3294
 3574TIP3    H232138   5.814   0.588  14.203 -0.0433  0.5341 -2.6216
 3575TIP3   OH232139   5.425   5.340  14.625 -0.0118 -0.5072  0.3642
 3575TIP3    H132140   5.466   5.330  14.710 -0.0573  1.3401  0.6491
 3575TIP3    H232141   5.443   5.431  14.600 -2.7366 -0.0215 -0.1209
 3576TIP3   OH232142   7.104   6.874  14.755 -0.0206  0.1124  0.3164
 3576TIP3    H132143   7.097   6.876  14.659 -1.1727  1.2103  0.4025
 3576TIP3    H232144   7.082   6.783  14.778  0.5266 -0.2302 -0.4646
 3577TIP3   OH232145   2.719   6.323  12.403 -0.3039 -0.0300  0.7722
 3577TIP3    H132146   2.659   6.250  12.387  1.5179 -1.4837  0.2688
 3577TIP3    H232147   2.743   6.315  12.495 -0.6491  0.3848  0.9020
 3578TIP3   OH232148   3.010   2.014   0.656 -0.5273  0.3056  0.2864
 3578TIP3    H132149   2.949   1.974   0.718  0.6232 -1.0277  0.6106
 3578TIP3    H232150   3.057   1.941   0.617  0.9434  1.2782  0.1266
 3579TIP3   OH232151   6.767   4.042   0.569  0.3068  0.1632 -0.2138
 3579TIP3    H132152   6.844   3.992   0.543  0.0526 -0.6398  0.5174
 3579TIP3    H232153   6.768   4.040   0.665 -0.0705  1.0105 -0.1817
 3580TIP3   OH232154   3.088   1.622  14.452 -0.6289 -0.6729 -0.0390
 3580TIP3    H132155   3.044   1.611  14.367 -0.2283 -0.7999 -0.2344
 3580TIP3    H232156   3.182   1.623  14.430 -0.5519  0.7277  0.2434
 3581TIP3   OH232157   4.773   5.285  14.320 -0.7407  0.1612 -0.4719
 3581TIP3    H132158   4.800   5.236  14.243  0.5871 -0.7080  0.5067
 3581TIP3    H232159   4.770   5.376  14.291  0.2330 -0.1015 -1.4168
 3582TIP3   OH232160   4.983   0.990  15.564  0.2830  0.0888  0.3723
 3582TIP3    H132161   5.030   1.049  15.623  0.5152 -0.9335  1.2577
 3582TIP3    H232162   5.024   0.904  15.580 -1.1964 -0.6348  0.4204
 3583TIP3   OH232163   5.570   3.779  13.222  0.3504 -0.6270  0.4387
 3583TIP3    H132164   5.566   3.864  13.266 -0.1051 -0.4263  0.0253
 3583TIP3    H232165   5.663   3.759  13.214  0.4676 -0.0080  0.2461
 3584TIP3   OH232166   2.090   1.610   1.759  0.4174 -0.9474 -0.6753
 3584TIP3    H132167   2.004   1.642   1.785  1.0723 -0.5172  1.1984
 3584TIP3    H232168   2.125   1.679   1.702  0.0668 -0.4463 -0.2941
 3585TIP3   OH232169   5.394   1.600   4.538 -0.1657 -0.3823  0.7223
 3585TIP3    H132170   5.359   1.613   4.626  0.9260  1.5390  0.9447
 3585TIP3    H232171   5.461   1.533   4.548 -1.2026 -1.4058  0.9969
 3586TIP3   OH232172   3.140   3.061  11.104  0.7674  0.0530 -0.6727
 3586TIP3    H132173   3.130   3.048  11.010  2.8069 -0.0192 -0.9197
 3586TIP3    H232174   3.213   3.004  11.128  1.3284  1.2668  0.6426
 3587TIP3   OH232175   1.072   1.218  14.248 -0.1561 -0.2218  0.0254
 3587TIP3    H132176   1.126   1.296  14.245  0.7228 -0.6075  2.9115
 3587TIP3    H232177   0.983   1.249  14.228  0.0543  1.6984  1.7566
 3588TIP3   OH232178   6.637   6.522  11.090  0.0819 -0.6566  0.1530
 3588TIP3    H132179   6.618   6.580  11.016  1.4458 -0.8347 -0.3612
 3588TIP3    H232180   6.600   6.568  11.165  0.0890  0.3074 -0.4076
 3589TIP3   OH232181   3.409   1.663  10.750 -0.5408 -0.0370  0.1902
 3589TIP3    H132182   3.494   1.624  10.729  0.2028  1.2030  0.7985
 3589TIP3    H232183   3.394   1.639  10.841 -0.3750  0.5464  0.3759
 3590TIP3   OH232184   1.397   3.107  11.974 -0.0126 -0.3674 -0.1216
 3590TIP3    H132185   1.435   3.194  11.967  0.7128 -0.5859  0.9161
 3590TIP3    H232186   1.348   3.095  11.892  3.0911 -0.5522 -2.1143
 3591TIP3   OH232187   4.546   5.472  15.583 -0.1108  0.0346 -0.1364
 3591TIP3    H132188   4.512   5.550  15.537 -0.3968  0.3641  0.6122
 3591TIP3    H232189   4.474   5.409  15.577  0.2206 -0.2842 -0.9762
 3592TIP3   OH232190   1.351   3.552   1.831 -0.5339  0.0520  0.0732
 3592TIP3    H132191   1.294   3.488   1.789 -0.2091 -0.7371  0.7934
 3592TIP3    H232192   1.429   3.503   1.856  1.0045  1.3466 -1.8866
 3593TIP3   OH232193   5.121   2.951   1.398  0.6198  0.1540  0.5558
 3593TIP3    H132194   5.206   2.994   1.403 -0.2028  1.7357  2.2953
 3593TIP3    H232195   5.066   3.012   1.349  0.0541 -0.0315  0.9438
 3594TIP3   OH232196   5.188   5.785  13.592  0.0524 -0.1229  0.3589
 3594TIP3    H132197   5.152   5.698  13.606 -0.1282 -0.4643 -1.8163
 3594TIP3    H232198   5.196   5.792  13.497  0.0113  2.2598  0.4747
 3595TIP3   OH232199   5.538   0.152  12.449 -0.1553 -0.0392  0.5886
 3595TIP3    H132200   5.537   0.121  12.359  0.5298  1.5101  0.0089
 3595TIP3    H232201   5.524   0.074  12.502  0.0085 -1.0664 -0.8371
 3596TIP3   OH232202   2.990   3.025  14.722  0.5958 -0.3261  0.2424
 3596TIP3    H132203   3.080   3.014  14.751  0.9173 -0.2379 -0.7086
 3596TIP3    H232204   2.937   2.997  14.797  1.4061 -0.4809  0.7648
 3597TIP3   OH232205   0.550   2.454  14.888  0.0128  0.1320  0.2387
 3597TIP3    H132206   0.614   2.403  14.937  2.0774  2.3609  0.0068
 3597TIP3    H232207   0.469   2.446  14.938  0.8219 -1.5323  1.3602
 3598TIP3   OH232208   6.401   2.426  12.424  0.0957 -0.4479  0.1060
 3598TIP3    H132209   6.318   2.400  12.462  0.2828 -0.5411  0.4584
 3598TIP3    H232210   6.405   2.380  12.340 -0.5050  0.0843 -0.2189
 3599TIP3   OH232211   6.886   6.288  14.313  0.0286  0.3155 -0.3570
 3599TIP3    H132212   6.964   6.234  14.303  0.9911  1.5642  0.0610
 3599TIP3    H232213   6.823   6.252  14.251  0.5905 -1.3164 -0.0263
 3600TIP3   OH232214   7.069   4.714   9.683  0.5066 -0.4671 -0.3166
 3600TIP3    H132215   7.066   4.630   9.637 -0.0784  0.2161 -1.6044
 3600TIP3    H232216   7.042   4.778   9.617 -0.2471  0.5951  0.9603
 3601TIP3   OH232217   0.516   0.641  12.597  0.4388  0.2192 -0.1699
 3601TIP3    H132218   0.527   0.591  12.517  0.6931  1.3094 -0.8390
 3601TIP3    H232219   0.534   0.732  12.572 -0.1440  0.6786  0.9632
 3602TIP3   OH232220   3.175   1.332  15.155  0.4299  0.1439 -0.1815
 3602TIP3    H132221   3.121   1.259  15.186  0.6775  0.0855  0.1173
 3602TIP3    H232222   3.191   1.312  15.063 -1.0160  0.7493 -0.5946
 3603TIP3   OH232223   0.259   1.591   2.562  0.2155 -0.2318  0.5646
 3603TIP3    H132224   0.210   1.509   2.560  0.8081 -0.5845  0.2165
 3603TIP3    H232225   0.228   1.640   2.486  1.7924 -1.2937 -0.8295
 3604TIP3   OH232226   6.877   5.167  12.839 -0.0691  0.1733  0.0730
 3604TIP3    H132227   6.884   5.094  12.777 -0.6821  1.6805 -1.8855
 3604TIP3    H232228   6.856   5.242  12.784 -2.2016  1.3385  2.2859
 3605TIP3   OH232229   4.883   2.469  10.443  0.2113 -0.2148 -0.1810
 3605TIP3    H132230   4.884   2.537  10.375  0.4511 -1.0832 -1.0658
 3605TIP3    H232231   4.834   2.508  10.515  2.3772  1.8325  0.3172
 3606TIP3   OH232232   1.065   4.698  10.055  0.4400 -0.3185 -0.1096
 3606TIP3    H132233   1.016   4.756  10.113 -1.8646 -1.5669 -0.6884
 3606TIP3    H232234   1.155   4.701  10.089 -0.0927  1.6231  1.3676
 3607TIP3   OH232235   2.520   3.849   0.718 -0.2028  0.0225  0.1083
 3607TIP3    H132236   2.520   3.760   0.753  1.1806 -1.6427 -3.5788
 3607TIP3    H232237   2.608   3.882   0.738 -0.1930 -0.0273  0.1482
 3608TIP3   OH232238   1.090   1.627  11.593  0.1020  0.1212 -0.3749
 3608TIP3    H132239   1.005   1.610  11.636  1.4845 -1.5007  1.9698
 3608TIP3    H232240   1.105   1.550  11.539  1.1663 -0.8616  1.2331
 3609TIP3   OH232241   6.362   3.481   9.843 -0.0451 -0.7682  0.1344
 3609TIP3    H132242   6.374   3.386   9.846 -1.1851 -0.9235  0.5880
 3609TIP3    H232243   6.270   3.493   9.868  0.2011  0.4834  0.4740
 3610TIP3   OH232244   3.943   5.722   2.355  0.6730  0.1015  0.0142
 3610TIP3    H132245   4.010   5.725   2.286  0.1644  0.9932 -0.4520
 3610TIP3    H232246   3.971   5.787   2.419  0.9073 -0.4127  0.4438
 3611TIP3   OH232247   1.515   6.727  11.564  0.4167 -0.2258  0.0160
 3611TIP3    H132248   1.436   6.729  11.618 -1.0351 -1.6797 -1.9630
 3611TIP3    H232249   1.525   6.635  11.539  2.7350 -0.0675  0.1673
 3612TIP3   OH232250   4.588   4.771   1.731 -0.0225  0.4976 -0.3093
 3612TIP3    H132251   4.607   4.702   1.668 -0.4063 -0.3535  0.4833
 3612TIP3    H232252   4.500   4.752   1.762  0.7888 -0.1789  1.7917
 3613TIP3   OH232253   6.850   2.808   4.128 -0.4950 -0.1992  0.2729
 3613TIP3    H132254   6.903   2.831   4.204 -2.4341  1.2550  1.2839
 3613TIP3    H232255   6.787   2.743   4.160 -1.3811  0.4823 -0.0237
 3614TIP3   OH232256   0.794   6.951  12.076  0.2657  0.1761  0.1435
 3614TIP3    H132257   0.835   7.024  12.122  2.6221  0.3281 -1.9876
 3614TIP3    H232258   0.726   6.991  12.023 -0.3556  0.4112  1.1010
 3615TIP3   OH232259   3.516   2.208  14.984  0.5408  0.6581 -0.4247
 3615TIP3    H132260   3.471   2.289  15.007  1.1972  0.7731  0.5175
 3615TIP3    H232261   3.445   2.145  14.968  0.0245  0.9589  0.5746
 3616TIP3   OH232262   4.698   4.790  12.301  0.1149  0.0749 -0.1846
 3616TIP3    H132263   4.782   4.802  12.346  0.0170  0.1420 -0.0187
 3616TIP3    H232264   4.634   4.779  12.372 -0.0678  0.3610 -0.3045
 3617TIP3   OH232265   0.574   4.107  11.050 -0.2533 -0.1127  0.4347
 3617TIP3    H132266   0.526   4.179  11.091  1.0382  0.7035  0.5841
 3617TIP3    H232267   0.613   4.146  10.971  1.7846 -0.1439  1.3404
 3618TIP3   OH232268   7.123   0.126  12.340 -0.0005 -0.6230 -0.1393
 3618TIP3    H132269   7.209   0.159  12.311  0.0776  0.1685  0.9557
 3618TIP3    H232270   7.144   0.058  12.405 -0.2035 -0.3648  0.1960
 3619TIP3   OH232271   2.129   5.622  12.328  0.0603 -0.2054 -0.5723
 3619TIP3    H132272   2.213   5.648  12.366  0.1876 -1.6307  0.1792
 3619TIP3    H232273   2.065   5.679  12.371  0.4601 -0.2868  0.1516
 3620TIP3   OH232274   0.434   5.273   3.816  0.6047 -0.4787  0.0300
 3620TIP3    H132275   0.530   5.270   3.818  0.6645  0.4417 -0.8301
 3620TIP3    H232276   0.413   5.356   3.773 -0.5719 -1.1130 -0.6736
 3621TIP3   OH232277   4.837   4.150  14.341 -0.0263 -0.4017  0.8456
 3621TIP3    H132278   4.876   4.132  14.426 -0.1105 -1.3661  0.6949
 3621TIP3    H232279   4.899   4.209  14.298  0.0390  0.0471  1.5465
 3622TIP3   OH232280   0.039   1.518  12.284  0.1382 -0.5792  0.6050
 3622TIP3    H132281   0.049   1.424  12.265 -0.5917 -0.6853  0.7321
 3622TIP3    H232282   0.080   1.561  12.209  0.2877 -0.9990  0.4396
 3623TIP3   OH232283   1.668   1.091  10.065 -0.1083  0.1220 -0.0951
 3623TIP3    H132284   1.714   1.007  10.076  0.0890  0.0984 -1.0286
 3623TIP3    H232285   1.712   1.150  10.126 -0.2524 -0.4462  0.5836
 3624TIP3   OH232286   1.449   4.733  13.833 -0.0890 -0.2791 -0.5640
 3624TIP3    H132287   1.536   4.720  13.795 -0.6501  0.5222 -2.2178
 3624TIP3    H232288   1.414   4.644  13.842  1.0810 -0.6507  0.6359
 3625TIP3   OH232289   5.465   5.200   1.373 -0.2041  0.2715 -0.4235
 3625TIP3    H132290   5.440   5.291   1.386 -1.1133 -0.0955  0.6346
 3625TIP3    H232291   5.407   5.169   1.303 -2.0679 -0.2662  1.2515
 3626TIP3   OH232292   0.197   4.612   1.672  0.1485  0.4581  0.3981
 3626TIP3    H132293   0.257   4.685   1.690  1.1553 -0.1454 -0.4482
 3626TIP3    H232294   0.116   4.638   1.716  1.7154  0.1350  3.8464
 3627TIP3   OH232295   1.414   1.268  14.611  0.0069  0.6031  0.4178
 3627TIP3    H132296   1.373   1.228  14.534  0.5017  1.5802 -0.3811
 3627TIP3    H232297   1.409   1.362  14.594  2.1138  0.7777  0.5139
 3628TIP3   OH232298   2.306   4.501  11.699  0.1060 -0.2677  0.0235
 3628TIP3    H132299   2.319   4.513  11.605  1.2709 -1.1756  0.0363
 3628TIP3    H232300   2.317   4.589  11.736 -2.6094  0.5442 -0.8474
 3629TIP3   OH232301   3.980   4.660   0.210 -0.0872 -0.2430 -0.1649
 3629TIP3    H132302   3.950   4.610   0.286 -1.4951 -0.1868 -0.6483
 3629TIP3    H232303   3.962   4.603   0.135  0.1786  0.1723 -0.5496
 3630TIP3   OH232304   6.830   1.048   1.414 -0.3413 -0.3722  0.3578
 3630TIP3    H132305   6.894   1.112   1.383 -0.6649  1.3061  2.8379
 3630TIP3    H232306   6.862   1.021   1.500 -2.3028 -0.3971  1.1406
 3631TIP3   OH232307   0.184   3.211   5.663 -0.2445 -0.5158  0.8744
 3631TIP3    H132308   0.280   3.212   5.656 -0.1693  0.1488  1.8447
 3631TIP3    H232309   0.163   3.288   5.716 -1.4050  0.0011 -0.2740
 3632TIP3   OH232310   1.133   7.014  11.988  0.1143 -0.4455  0.8274
 3632TIP3    H132311   1.060   7.026  11.928  1.8328 -0.7190 -1.4392
 3632TIP3    H232312   1.104   6.945  12.047 -1.8087  0.1395  0.6609
 3633TIP3   OH232313   5.289   3.020  13.776 -0.2678  0.5158  0.1547
 3633TIP3    H132314   5.221   3.050  13.835  1.3310  0.9932  1.8587
 3633TIP3    H232315   5.307   2.930  13.804 -2.0733 -0.6856 -2.1468
 3634TIP3   OH232316   3.268   4.044   1.373 -0.0361 -0.5087 -0.1612
 3634TIP3    H132317   3.357   4.078   1.375 -0.1211 -0.1919 -1.1662
 3634TIP3    H232318   3.218   4.104   1.429  0.4258 -0.8531  0.6320
 3635TIP3   OH232319   2.100   3.965   2.925 -0.0595 -0.0458  0.4112
 3635TIP3    H132320   2.128   4.013   3.003  0.9391  0.9679 -0.5235
 3635TIP3    H232321   2.094   4.032   2.857 -1.4982 -0.8051 -0.2571
 3636TIP3   OH232322   5.118   0.683   4.089 -0.5853 -0.4504 -0.3240
 3636TIP3    H132323   5.113   0.599   4.043  0.6270 -1.0569  0.6008
 3636TIP3    H232324   5.125   0.660   4.181 -0.2649  0.6766 -0.0493
 3637TIP3   OH232325   4.882   3.455  14.699  0.4616 -0.5945  0.0257
 3637TIP3    H132326   4.889   3.479  14.606 -1.4620 -1.2513 -0.3355
 3637TIP3    H232327   4.935   3.375  14.706 -0.4289 -1.2870 -0.8292
 3638TIP3   OH232328   1.214   1.734  14.207 -0.3155  0.1871 -0.3835
 3638TIP3    H132329   1.122   1.754  14.192 -0.8946 -2.9695 -1.9423
 3638TIP3    H232330   1.260   1.779  14.136 -0.9682 -0.1945 -1.0627
 3639TIP3   OH232331   0.564   1.203   9.225  0.3398 -0.2546  0.7193
 3639TIP3    H132332   0.624   1.144   9.180 -0.2870 -1.2483  1.1262
 3639TIP3    H232333   0.522   1.147   9.291 -3.1727 -0.4349 -1.4257
 3640TIP3   OH232334   0.210   2.741  11.227  0.1719  0.2653  0.5477
 3640TIP3    H132335   0.267   2.808  11.265 -0.4009  0.3330  1.3081
 3640TIP3    H232336   0.267   2.665  11.214  1.0904  1.2337 -1.3529
 3641TIP3   OH232337   4.262   2.608   1.540  0.3542 -0.3993 -0.1102
 3641TIP3    H132338   4.325   2.649   1.598  0.8472  1.4729 -1.8475
 3641TIP3    H232339   4.192   2.577   1.598  1.6995 -0.3417  1.6113
 3642TIP3   OH232340   4.454   4.131   2.450  0.1936  0.1811  0.0658
 3642TIP3    H132341   4.503   4.051   2.428  0.4531  0.3702 -0.0499
 3642TIP3    H232342   4.494   4.199   2.396 -0.6930  0.1927 -0.6048
 3643TIP3   OH232343   5.573   4.033  10.196 -0.6810 -0.3226  0.0085
 3643TIP3    H132344   5.600   4.029  10.287 -0.2125 -1.5978 -0.1698
 3643TIP3    H232345   5.489   4.080  10.197 -0.9858 -0.8682  1.1633
 3644TIP3   OH232346   0.177   6.490  11.031 -0.5216 -0.0750 -0.2397
 3644TIP3    H132347   0.096   6.480  11.081  0.6172 -1.0489  1.5408
 3644TIP3    H232348   0.214   6.402  11.029  0.5420  0.3702 -0.9053
 3645TIP3   OH232349   4.930   1.541  13.349  0.4309 -0.3497 -0.4083
 3645TIP3    H132350   5.022   1.521  13.331  0.3603  0.8163 -2.2407
 3645TIP3    H232351   4.883   1.508  13.273 -0.5581 -0.0165  0.0459
 3646TIP3   OH232352   3.194   3.225  13.305  0.1839 -0.3313  0.3893
 3646TIP3    H132353   3.111   3.249  13.346  1.0240  1.5797  1.1235
 3646TIP3    H232354   3.226   3.151  13.356  1.3383  2.1412  3.6110
 3647TIP3   OH232355   0.850   5.260  13.356 -0.4755  0.0782  0.2636
 3647TIP3    H132356   0.880   5.170  13.372 -0.9007 -0.1028  0.0538
 3647TIP3    H232357   0.907   5.314  13.411 -0.2968 -0.3302  0.4858
 3648TIP3   OH232358   5.775   4.627  14.575  0.5266  0.2222  1.4060
 3648TIP3    H132359   5.810   4.710  14.542 -0.6752  0.3064  0.2413
 3648TIP3    H232360   5.749   4.646  14.665 -2.9532  2.2291  0.1789
 3649TIP3   OH232361   5.244   2.285   9.704  0.2734 -0.5534 -0.2490
 3649TIP3    H132362   5.282   2.367   9.674 -1.7941  0.2285 -0.9134
 3649TIP3    H232363   5.268   2.221   9.637  0.4328 -0.0927 -0.6336
 3650TIP3   OH232364   0.019   4.785   5.927  0.1761 -0.5190  1.0207
 3650TIP3    H132365   0.036   4.862   5.872  0.8679 -1.2228  0.2085
 3650TIP3    H232366   0.045   4.812   6.015  1.3067 -0.1158  0.5804
 3651TIP3   OH232367   2.070   4.288  14.620  0.3125  0.0802  0.4952
 3651TIP3    H132368   2.155   4.331  14.629  1.3909 -1.4222 -1.8214
 3651TIP3    H232369   2.067   4.225  14.692  1.8247 -0.8771 -0.2434
 3652TIP3   OH232370   4.617   1.925  10.567 -0.4362 -0.1039 -0.5332
 3652TIP3    H132371   4.630   2.010  10.610 -0.6681 -0.8154  1.0064
 3652TIP3    H232372   4.538   1.937  10.514 -0.8429  0.4579  0.1776
 3653TIP3   OH232373   2.219   2.046  13.877  0.4457  0.2320 -0.5603
 3653TIP3    H132374   2.125   2.050  13.896  0.3798  0.7681 -0.9707
 3653TIP3    H232375   2.257   2.114  13.933  0.3534  1.2507 -1.7038
 3654TIP3   OH232376   4.293   6.631  12.945 -0.2146  0.0352  1.1400
 3654TIP3    H132377   4.283   6.724  12.964  1.6292  0.2162  1.4143
 3654TIP3    H232378   4.270   6.622  12.853  2.1126  1.2736  0.3556
 3655TIP3   OH232379   0.500   6.296   3.437 -0.0563 -0.1651 -0.4263
 3655TIP3    H132380   0.459   6.209   3.427  0.2171 -0.1400 -1.9469
 3655TIP3    H232381   0.593   6.277   3.446  0.2842 -0.0039 -2.8247
 3656TIP3   OH232382   2.520   5.315   1.390 -0.1332 -0.5409 -0.1803
 3656TIP3    H132383   2.604   5.267   1.392 -0.1687 -0.5720  1.0584
 3656TIP3    H232384   2.545   5.406   1.402 -0.2720 -0.5279 -0.0092
 3657TIP3   OH232385   4.269   2.609  12.133 -0.2489 -0.6906 -0.1262
 3657TIP3    H132386   4.197   2.553  12.163  0.4531 -1.4910  0.1160
 3657TIP3    H232387   4.344   2.582  12.186  0.6515 -1.0709 -1.5359
 3658TIP3   OH232388   2.223   2.022   0.857 -0.4827  0.2444 -0.1844
 3658TIP3    H132389   2.281   2.095   0.835 -0.8492  0.4451 -0.4829
 3658TIP3    H232390   2.174   2.005   0.777 -1.7091  0.8801  0.3976
 3659TIP3   OH232391   6.008   6.043  14.358 -0.1946  0.0798 -0.4647
 3659TIP3    H132392   6.007   6.003  14.445  1.7472 -0.5304 -0.6764
 3659TIP3    H232393   5.920   6.079  14.348 -0.4644  0.2110  1.7612
 3660TIP3   OH232394   1.422   0.327  10.269  0.1298  0.1030  0.0427
 3660TIP3    H132395   1.420   0.241  10.227  1.3120  1.2718 -2.6472
 3660TIP3    H232396   1.394   0.388  10.200  2.0560  2.1401  0.9302
 3661TIP3   OH232397   2.072   0.202  12.385  0.2066 -0.2761  0.6836
 3661TIP3    H132398   2.025   0.217  12.467 -1.5821  1.3163 -0.5356
 3661TIP3    H232399   2.009   0.225  12.317  1.5686 -1.7165 -1.1727
 3662TIP3   OH232400   5.942   5.681   0.307  0.0596 -0.2850  0.0899
 3662TIP3    H132401   5.895   5.731   0.240 -0.3880 -0.1155  0.5224
 3662TIP3    H232402   5.875   5.625   0.347  0.3752 -0.5760  0.2150
 3663TIP3   OH232403   4.438   1.677   1.952  0.4116  0.1508  0.6159
 3663TIP3    H132404   4.482   1.598   1.920 -2.2658 -0.0041 -3.5727
 3663TIP3    H232405   4.498   1.748   1.932  0.5147 -0.3952 -1.1872
 3664TIP3   OH232406   3.456   6.400   4.140  0.4601  0.4618  0.1845
 3664TIP3    H132407   3.470   6.312   4.104  1.5332 -0.1469  1.9658
 3664TIP3    H232408   3.361   6.408   4.149  0.2680  0.0387 -1.2634
 3665TIP3   OH232409   1.506   2.295   0.107  0.2195 -0.4754 -0.2600
 3665TIP3    H132410   1.526   2.360   0.174 -1.5984 -0.4897  0.3351
 3665TIP3    H232411   1.530   2.212   0.147  0.3784 -0.3697 -0.1330
 3666TIP3   OH232412   4.144   2.910  11.664  0.2525 -0.1471  0.1739
 3666TIP3    H132413   4.232   2.934  11.695 -0.0890  0.4772  0.6838
 3666TIP3    H232414   4.137   2.817  11.683  0.1380  0.1652  1.8474
 3667TIP3   OH232415   3.840   4.703  10.041  0.5689 -0.4653  0.0237
 3667TIP3    H132416   3.846   4.649  10.119  0.9726 -1.1025 -0.4401
 3667TIP3    H232417   3.829   4.641   9.969 -1.6026  0.1717 -0.2741
 3668TIP3   OH232418   4.680   3.203   5.118  0.3115  0.0937 -0.0288
 3668TIP3    H132419   4.722   3.138   5.173 -0.7485 -1.0741 -0.5452
 3668TIP3    H232420   4.609   3.238   5.173 -0.5057 -0.7987 -0.4818
 3669TIP3   OH232421   0.944   2.750  11.518  0.0644 -0.1690  0.3515
 3669TIP3    H132422   0.944   2.656  11.499 -0.6391 -0.2346  0.6560
 3669TIP3    H232423   0.878   2.787  11.460  1.6755  0.4499 -1.1650
 3670TIP3   OH232424   6.500   0.385   0.916 -0.5096 -0.1413 -0.1872
 3670TIP3    H132425   6.530   0.446   0.984  0.2407  0.9678 -1.4697
 3670TIP3    H232426   6.580   0.344   0.884 -0.8677 -0.7030 -0.3784
 3671TIP3   OH232427   1.948   6.993  12.015 -0.3846  0.0516  0.5573
 3671TIP3    H132428   2.024   6.983  12.072 -2.0247 -2.0259  2.5472
 3671TIP3    H232429   1.892   7.056  12.060 -0.8099 -0.0943  0.2417
 3672TIP3   OH232430   2.498   1.128  10.453  0.1471 -0.2667 -0.3962
 3672TIP3    H132431   2.584   1.161  10.479  0.7047 -1.9217  0.0222
 3672TIP3    H232432   2.441   1.149  10.526  0.2538  0.5938 -0.5539
 3673TIP3   OH232433   2.321   4.595   2.587  0.2049 -0.2831  0.3478
 3673TIP3    H132434   2.408   4.610   2.622  1.0469 -2.8105 -0.4508
 3673TIP3    H232435   2.301   4.504   2.610 -1.4383 -0.3425 -1.0588
 3674TIP3   OH232436   5.481   0.314  12.655  0.3112  0.5081  0.0555
 3674TIP3    H132437   5.505   0.265  12.576  0.4769  0.7120 -0.0213
 3674TIP3    H232438   5.564   0.328  12.700  0.1766  0.0999  0.4391
 3675TIP3   OH232439   1.167   4.023   1.678 -0.5459 -0.3241 -0.4038
 3675TIP3    H132440   1.259   4.047   1.676 -0.5760 -0.2409 -0.9613
 3675TIP3    H232441   1.140   4.023   1.586 -1.7898  2.3141 -0.1110
 3676TIP3   OH232442   1.906   1.515   3.012 -0.0849 -0.1426  0.3547
 3676TIP3    H132443   1.941   1.531   3.099 -0.3101  1.4628  0.1727
 3676TIP3    H232444   1.951   1.577   2.956 -1.5468  0.4098 -0.2726
 3677TIP3   OH232445   6.298   4.839  14.011  0.9442 -0.2519 -0.2118
 3677TIP3    H132446   6.316   4.933  14.016  1.1094 -0.2672 -0.4838
 3677TIP3    H232447   6.210   4.834  13.973  1.4384 -0.2216 -1.4327
 3678TIP3   OH232448   3.818   4.348  11.103  0.2141  0.2319  0.3628
 3678TIP3    H132449   3.848   4.257  11.113  1.9902  0.9082  1.6809
 3678TIP3    H232450   3.857   4.394  11.177 -1.5807  1.8780  0.3526
 3679TIP3   OH232451   2.421   3.566  12.208  0.2400  0.8350  0.0804
 3679TIP3    H132452   2.427   3.541  12.116  0.4271 -0.9489  0.5501
 3679TIP3    H232453   2.327   3.568  12.227  0.1986 -2.8132  0.8260
 3680TIP3   OH232454   5.314   4.407  14.049 -0.0891 -0.5608  0.1880
 3680TIP3    H132455   5.295   4.485  14.101 -2.0945 -0.7346 -0.2021
 3680TIP3    H232456   5.402   4.422  14.014 -0.1425  1.1787  0.7290
 3681TIP3   OH232457   3.105   6.431  14.001  0.7988  0.1110  0.1553
 3681TIP3    H132458   3.195   6.461  13.989  0.4125  1.6673  0.9262
 3681TIP3    H232459   3.079   6.464  14.087 -1.0061  1.0061 -0.6704
 3682TIP3   OH232460   7.036   1.950  14.986 -0.5524 -0.1965 -0.3119
 3682TIP3    H132461   6.995   1.999  15.058  2.2204 -0.1798  1.3917
 3682TIP3    H232462   7.008   1.996  14.907 -2.2802  0.8844  0.8500
 3683TIP3   OH232463   4.190   1.523  10.824  0.1562 -0.7211  0.1618
 3683TIP3    H132464   4.175   1.608  10.865 -0.7911 -1.1307  0.6952
 3683TIP3    H232465   4.119   1.516  10.760  1.3270 -0.3064 -1.2250
 3684TIP3   OH232466   6.769   6.541  14.007  0.0598  0.4747  0.1366
 3684TIP3    H132467   6.697   6.517  14.065  0.4072  1.0804  0.8336
 3684TIP3    H232468   6.828   6.591  14.062  0.6547  0.6201 -0.6198
 3685TIP3   OH232469   2.412   2.437  10.538  0.0152  0.7996 -0.0199
 3685TIP3    H132470   2.464   2.490  10.599 -2.6163  2.0736  1.2610
 3685TIP3    H232471   2.435   2.471  10.451  0.1661  2.4207  0.6151
 3686TIP3   OH232472   6.064   2.397   0.761  0.6166  0.0442  0.3382
 3686TIP3    H132473   6.071   2.349   0.678  1.7948  3.9245 -2.0680
 3686TIP3    H232474   5.976   2.433   0.761  0.6166  0.0462  0.7903
 3687TIP3   OH232475   0.916   5.601  12.238  0.1509 -0.2600  0.7806
 3687TIP3    H132476   0.961   5.630  12.317  3.3614 -1.2451 -0.5010
 3687TIP3    H232477   0.957   5.517  12.217 -2.5992 -1.4168 -0.4337
 3688TIP3   OH232478   0.174   6.832   0.056  0.1633 -0.2360 -0.0510
 3688TIP3    H132479   0.152   6.741   0.078 -0.1446 -0.3507 -0.7750
 3688TIP3    H232480   0.089   6.875   0.049  0.3179  0.1539  0.4733
 3689TIP3   OH232481   4.974   0.867  10.611  0.6829 -0.1423 -0.2415
 3689TIP3    H132482   5.009   0.930  10.673  0.2882  0.4283 -0.5893
 3689TIP3    H232483   4.890   0.904  10.583 -0.0695 -1.3309  0.3445
 3690TIP3   OH232484   6.102   1.245   1.743  0.3382  0.4199 -0.2513
 3690TIP3    H132485   6.035   1.288   1.796  0.3201  0.9553 -0.7045
 3690TIP3    H232486   6.111   1.158   1.783 -0.8386  0.2255 -0.3694
 3691TIP3   OH232487   2.788   0.167  10.746 -0.1427 -0.3250 -0.0467
 3691TIP3    H132488   2.785   0.171  10.841  0.4121  0.4243 -0.0412
 3691TIP3    H232489   2.708   0.212  10.717  0.8301  1.6217  0.0862
 3692TIP3   OH232490   7.016   4.009   1.799 -0.1759  0.3738  0.1567
 3692TIP3    H132491   7.103   4.025   1.762 -0.1221  0.0612  0.1513
 3692TIP3    H232492   7.022   4.042   1.888  0.3529 -0.8658  0.5891
 3693TIP3   OH232493   7.120   0.278  14.154 -0.0742 -0.6487 -0.4371
 3693TIP3    H132494   7.191   0.226  14.193 -0.0079 -0.5810 -0.4677
 3693TIP3    H232495   7.043   0.220  14.158 -0.0140 -0.7271 -0.4180
 3694TIP3   OH232496   0.012   6.293   0.214 -0.1895  0.7683  0.9865
 3694TIP3    H132497   0.006   6.348   0.136  0.7480  2.2557  1.9136
 3694TIP3    H232498   0.039   6.207   0.181  2.1106  1.8645 -0.2034
 3695TIP3   OH232499   4.030   7.020   1.762  0.0009 -0.2844 -0.0695
 3695TIP3    H132500   4.045   7.090   1.698  0.3361  0.4477  0.7781
 3695TIP3    H232501   3.960   6.967   1.724  0.8144 -0.4231 -1.4667
 3696TIP3   OH232502   5.275   5.469  13.231 -0.2930  0.4959  0.1462
 3696TIP3    H132503   5.215   5.465  13.306  0.8147 -0.1487  1.0213
 3696TIP3    H232504   5.356   5.505  13.267  0.3479 -0.0937 -0.6825
 3697TIP3   OH232505   2.584   2.724   9.766 -0.1716  0.1307 -0.4820
 3697TIP3    H132506   2.531   2.800   9.791 -0.4096 -0.3141  0.3952
 3697TIP3    H232507   2.675   2.754   9.773 -0.2325  0.0307  0.9229
 3698TIP3   OH232508   5.009   0.989  14.781  0.7470  0.2060  0.0068
 3698TIP3    H132509   4.939   1.001  14.845 -0.1995 -1.4014 -0.6587
 3698TIP3    H232510   5.037   1.078  14.758 -1.6234  0.9334 -0.2927
 3699TIP3   OH232511   0.872   6.124  11.447 -0.1620 -0.2289 -0.0225
 3699TIP3    H132512   0.926   6.069  11.503  0.4016  1.3664  1.0728
 3699TIP3    H232513   0.790   6.134  11.494 -0.4245 -0.4721 -0.4217
 3700TIP3   OH232514   4.155   0.830  10.737 -0.0223 -1.1225 -0.0991
 3700TIP3    H132515   4.129   0.744  10.706 -0.7578 -1.4504  1.3244
 3700TIP3    H232516   4.240   0.816  10.779 -0.1829 -1.1858  0.2104
 3701TIP3   OH232517   2.404   2.018  10.623 -0.3073  0.4536 -0.0194
 3701TIP3    H132518   2.422   1.973  10.541 -0.2387 -0.1679  0.3312
 3701TIP3    H232519   2.477   1.995  10.680 -0.4474  0.7314  0.2780
 3702TIP3   OH232520   1.026   3.445  13.134 -0.4477 -0.1658  0.3442
 3702TIP3    H132521   0.979   3.362  13.146  0.5841 -0.7873  0.1842
 3702TIP3    H232522   1.115   3.419  13.111  0.0301  0.9934  0.8068
 3703TIP3   OH232523   4.628   6.880  13.036 -0.2671 -0.6547 -0.1883
 3703TIP3    H132524   4.632   6.791  13.003 -0.9671 -0.1057 -1.8454
 3703TIP3    H232525   4.554   6.920  12.990  1.0968  1.2869 -0.8266
 3704TIP3   OH232526   5.912   2.895   9.087  0.0432  0.2430 -0.0823
 3704TIP3    H132527   5.919   2.911   9.181 -0.0793  0.3596 -0.0928
 3704TIP3    H232528   5.861   2.968   9.054  1.2931  0.9850 -0.4648
 3705TIP3   OH232529   6.186   2.119   0.206 -0.0667  0.1517  0.0320
 3705TIP3    H132530   6.242   2.175   0.152  1.2818  0.2611  1.4826
 3705TIP3    H232531   6.165   2.045   0.149  2.0606 -0.1888 -0.3852
 3706TIP3   OH232532   3.491   6.187   1.936 -0.6156  0.1135  0.3463
 3706TIP3    H132533   3.420   6.182   1.872 -0.2913  1.2881 -0.1344
 3706TIP3    H232534   3.509   6.096   1.959 -2.8867 -0.1741  1.1945
 3707TIP3   OH232535   3.608   2.874  11.353  0.0546 -0.2690 -0.1288
 3707TIP3    H132536   3.700   2.880  11.327  0.0567 -2.8299 -0.9562
 3707TIP3    H232537   3.596   2.783  11.379 -2.1221  0.1556  0.5567
 3708TIP3   OH232538   6.466   5.062  14.612 -0.2838  0.2086  0.1009
 3708TIP3    H132539   6.505   4.987  14.568  0.5370  0.0013  1.1267
 3708TIP3    H232540   6.541   5.111  14.645 -0.8405  1.0506  0.1360
 3709TIP3   OH232541   6.896   5.204   0.369 -0.6424  0.0446  0.2114
 3709TIP3    H132542   6.861   5.279   0.417 -1.7546 -0.4378  0.1824
 3709TIP3    H232543   6.824   5.141   0.367  0.5694 -1.4191  1.0423
 3710TIP3   OH232544   3.000   3.973   0.161 -0.1034 -0.4680 -0.7241
 3710TIP3    H132545   3.018   3.895   0.109  1.2649 -0.3472 -0.4670
 3710TIP3    H232546   3.079   4.026   0.153 -0.9849  0.8655 -0.8356
 3711TIP3   OH232547   3.155   1.233   1.427 -0.4413 -0.3292  0.5420
 3711TIP3    H132548   3.108   1.296   1.482 -2.1123 -1.6047  0.6673
 3711TIP3    H232549   3.156   1.153   1.478 -2.3151 -1.6426 -1.3052
 3712TIP3   OH232550   1.685   3.121  12.107  0.0369 -0.2510 -0.7541
 3712TIP3    H132551   1.673   3.162  12.021  0.3347  0.0462 -0.6536
 3712TIP3    H232552   1.602   3.077  12.124 -0.4447  0.6797 -0.6600
 3713TIP3   OH232553   4.683   0.126  12.488  0.7009 -0.2037 -0.6131
 3713TIP3    H132554   4.625   0.197  12.516  2.5865  1.1845 -0.0212
 3713TIP3    H232555   4.652   0.050  12.537 -0.9205  0.3356 -0.7175
 3714TIP3   OH232556   1.529   2.337  12.301 -0.2904 -0.1273 -0.3000
 3714TIP3    H132557   1.485   2.397  12.241  0.8927 -1.0503 -2.1709
 3714TIP3    H232558   1.511   2.250  12.267 -0.8231 -0.8117  1.5841
 3715TIP3   OH232559   1.515   3.079  12.324 -0.0599 -0.2183 -0.4141
 3715TIP3    H132560   1.540   3.079  12.416 -1.8032  0.0339  0.1007
 3715TIP3    H232561   1.514   3.172  12.300  1.3862 -0.3365 -1.0025
 3716TIP3   OH232562   0.076   1.323  11.752  0.0999 -0.4675 -0.4060
 3716TIP3    H132563   0.148   1.280  11.800 -0.8304 -0.7923  0.7468
 3716TIP3    H232564   0.094   1.303  11.660  1.8636  0.0399 -0.2213
 3717TIP3   OH232565   3.708   6.773  12.865 -0.2634 -0.0388 -0.1985
 3717TIP3    H132566   3.661   6.808  12.940 -0.4492  0.2179 -0.4354
 3717TIP3    H232567   3.799   6.799  12.880 -0.0195 -1.2713  0.7002
 3718TIP3   OH232568   0.584   0.199   5.701 -0.2532  0.7490 -0.4529
 3718TIP3    H132569   0.609   0.250   5.778  0.4149  1.1717 -0.9435
 3718TIP3    H232570   0.645   0.126   5.698 -0.7767  0.2898 -0.1415
 3719TIP3   OH232571   4.350   6.608  12.393  0.9607  0.1692  0.6750
 3719TIP3    H132572   4.407   6.544  12.352 -0.4684  0.2005 -1.4928
 3719TIP3    H232573   4.261   6.577  12.373  0.2375  1.8095  1.2118
 3720TIP3   OH232574   1.473   4.761  15.407  0.4809  0.1361  0.7981
 3720TIP3    H132575   1.557   4.804  15.390  0.8354 -0.9905 -0.4905
 3720TIP3    H232576   1.492   4.668  15.395 -0.7613 -0.2015  1.3690
 3721TIP3   OH232577   0.626   1.769  14.883 -0.0380  0.2493 -0.7441
 3721TIP3    H132578   0.625   1.775  14.978 -1.3082 -0.1424 -0.7149
 3721TIP3    H232579   0.534   1.756  14.859  0.2400  0.5536 -2.0352
 3722TIP3   OH232580   2.994   5.827  10.226  0.0304  0.2174  0.2310
 3722TIP3    H132581   3.037   5.742  10.233  0.7170  0.2928 -2.1640
 3722TIP3    H232582   2.917   5.811  10.171  0.2052  1.1361 -0.3058
 3723TIP3   OH232583   3.453   0.465   3.674  0.3526 -0.1174  0.0806
 3723TIP3    H132584   3.535   0.431   3.709  0.8915 -0.5988 -1.5865
 3723TIP3    H232585   3.467   0.559   3.666  0.2157  0.0043  1.1160
 3724TIP3   OH232586   4.486   1.226   3.005  0.6300  0.5688 -0.7393
 3724TIP3    H132587   4.426   1.292   3.040  0.0033 -0.9752  1.2985
 3724TIP3    H232588   4.554   1.217   3.072 -1.6255 -3.8449  1.3463
 3725TIP3   OH232589   5.936   5.918   2.519  0.3994 -0.0701  0.4861
 3725TIP3    H132590   5.912   5.993   2.573 -0.4432 -0.0732  0.1269
 3725TIP3    H232591   5.902   5.842   2.566  0.0740 -0.1109  0.1914
 3726TIP3   OH232592   6.179   0.111   4.492  0.0087 -0.3302 -0.5762
 3726TIP3    H132593   6.136   0.189   4.456  0.3842 -0.5346 -1.5048
 3726TIP3    H232594   6.267   0.113   4.455 -0.0987 -1.3987 -0.9253
 3727TIP3   OH232595   0.101   5.704  14.978  0.2356  0.3910 -0.2415
 3727TIP3    H132596   0.007   5.693  14.967  0.2848  0.1376 -0.4215
 3727TIP3    H232597   0.140   5.634  14.926  0.4844 -1.5408  2.3307
 3728TIP3   OH232598   6.730   1.723  13.297  0.3398 -0.2871  0.0700
 3728TIP3    H132599   6.766   1.747  13.212 -0.1277  1.6895  0.3693
 3728TIP3    H232600   6.797   1.669  13.338  0.3537 -1.7309 -1.7205
 3729TIP3   OH232601   4.422   0.947  11.316  0.4716 -0.3063  0.2437
 3729TIP3    H132602   4.334   0.913  11.296  0.1622  0.3872  0.3792
 3729TIP3    H232603   4.464   0.955  11.231  0.4203 -0.6820  0.1794
 3730TIP3   OH232604   4.357   2.703  13.698 -0.2085  0.0010  0.1314
 3730TIP3    H132605   4.421   2.644  13.658  0.1305  1.1448 -1.0704
 3730TIP3    H232606   4.305   2.736  13.624 -0.9515  0.5401  0.8758
 3731TIP3   OH232607   3.824   1.199  14.615 -0.5698 -0.6679 -0.2814
 3731TIP3    H132608   3.905   1.211  14.664  0.0447  0.3925 -1.4927
 3731TIP3    H232609   3.770   1.274  14.639 -0.5695 -0.5502 -0.6450
 3732TIP3   OH232610   4.082   6.519  13.575 -0.6064 -0.0685 -0.3705
 3732TIP3    H132611   4.029   6.451  13.533 -1.0936  1.0421 -1.6015
 3732TIP3    H232612   4.022   6.560  13.638 -0.3505 -0.6488  0.2752
 3733TIP3   OH232613   1.518   4.813  10.507 -0.1957 -0.0880 -0.2314
 3733TIP3    H132614   1.604   4.844  10.535  0.0139 -0.0321 -0.9123
 3733TIP3    H232615   1.536   4.757  10.431 -0.7940  0.3141 -0.6769
 3734TIP3   OH232616   5.373   4.947  12.022 -0.7510  0.2488  0.2102
 3734TIP3    H132617   5.391   4.872  12.079 -0.3014 -0.5165 -0.8817
 3734TIP3    H232618   5.280   4.965  12.034 -0.6149  0.2652  1.3433
 3735TIP3   OH232619   2.345   2.086   1.509  0.2788  1.2335  0.0888
 3735TIP3    H132620   2.351   2.179   1.488 -0.5143  1.4302  0.6899
 3735TIP3    H232621   2.365   2.080   1.602 -1.1176  1.0130  0.4043
 3736TIP3   OH232622   1.385   2.766  12.686  0.2013 -0.9515  0.2460
 3736TIP3    H132623   1.473   2.785  12.717  0.3056 -1.2857  0.1565
 3736TIP3    H232624   1.397   2.717  12.605 -0.0695 -0.5845 -0.0210
 3737TIP3   OH232625   6.408   0.419   0.585 -0.5170  0.0396 -0.0731
 3737TIP3    H132626   6.374   0.413   0.495 -0.7561 -0.3979  0.0411
 3737TIP3    H232627   6.330   0.409   0.640 -0.1096 -1.9435  0.2121
 3738TIP3   OH232628   7.051   4.110   2.042  0.5749 -0.4818  0.4445
 3738TIP3    H132629   7.096   4.082   2.122 -1.4910 -3.1517  0.8392
 3738TIP3    H232630   6.958   4.110   2.066  0.0864  2.1255 -1.0554
 3739TIP3   OH232631   0.652   6.284   5.539 -0.0056  0.0556  0.1587
 3739TIP3    H132632   0.636   6.212   5.478  1.5859  0.5094 -0.8609
 3739TIP3    H232633   0.713   6.247   5.604 -0.9473 -0.1447  0.9567
 3740TIP3   OH232634   5.348   4.596  10.334 -0.6499 -0.4500 -0.2508
 3740TIP3    H132635   5.407   4.523  10.318 -0.8434 -0.5290 -0.6235
 3740TIP3    H232636   5.277   4.558  10.386 -0.6020 -0.4575 -0.1902
 3741TIP3   OH232637   2.768   4.889  10.240 -0.3970  0.1793 -0.4145
 3741TIP3    H132638   2.813   4.887  10.155 -0.6299 -0.0083 -0.5333
 3741TIP3    H232639   2.731   4.802  10.250  0.4811 -0.1228  0.3480
 3742TIP3   OH232640   5.753   4.348   4.318  0.0480 -0.1792 -0.0067
 3742TIP3    H132641   5.720   4.262   4.346 -2.5100  1.0033  0.8817
 3742TIP3    H232642   5.745   4.403   4.396  2.4866  0.7133 -0.3062
 3743TIP3   OH232643   4.733   0.487  14.079 -0.3311  0.1949 -0.0738
 3743TIP3    H132644   4.679   0.502  14.002  0.4531  0.5221 -0.5721
 3743TIP3    H232645   4.761   0.395  14.071  2.5410  1.0995 -2.0558
 3744TIP3   OH232646   3.107   6.567  10.377 -0.4169 -0.2064  0.1991
 3744TIP3    H132647   3.175   6.602  10.321 -0.3209  1.5937  1.3586
 3744TIP3    H232648   3.142   6.483  10.407  0.8875  0.2560  0.0401
 3745TIP3   OH232649   3.387   5.811   3.254  0.2177  0.4366 -0.4817
 3745TIP3    H132650   3.362   5.805   3.347 -0.0725  1.8641 -0.4447
 3745TIP3    H232651   3.431   5.896   3.247 -2.0148  1.5437 -2.1431
 3746TIP3   OH232652   1.267   3.129  14.963 -0.0782 -1.5389  0.3369
 3746TIP3    H132653   1.278   3.102  15.054  1.3059  0.6151  0.8948
 3746TIP3    H232654   1.216   3.210  14.968 -1.1596 -2.1044 -0.9483
 3747TIP3   OH232655   5.161   1.865  14.645  0.7207  0.3995 -0.3954
 3747TIP3    H132656   5.077   1.890  14.683  0.7322 -0.2451  0.0842
 3747TIP3    H232657   5.141   1.787  14.592  0.8584  0.7840 -1.0263
 3748TIP3   OH232658   4.261   0.251   0.815 -0.0907 -0.4943  0.4589
 3748TIP3    H132659   4.325   0.218   0.753 -2.3465 -0.2484 -2.2148
 3748TIP3    H232660   4.251   0.180   0.879  2.3158 -0.7716  0.5993
 3749TIP3   OH232661   6.598   4.369   1.295 -0.3359  0.3011 -0.2951
 3749TIP3    H132662   6.518   4.408   1.331 -0.7593 -0.8832  0.0917
 3749TIP3    H232663   6.584   4.275   1.303  0.9298  0.0743 -0.6135
 3750TIP3   OH232664   2.633   0.214   5.132 -0.2382  0.3937  0.6359
 3750TIP3    H132665   2.586   0.140   5.170  0.9454 -0.7053  0.0422
 3750TIP3    H232666   2.722   0.180   5.117  0.2520  1.8574  0.0960
 3751TIP3   OH232667   0.328   1.838  11.187 -0.4993  0.3852 -0.6491
 3751TIP3    H132668   0.360   1.783  11.115 -0.6160  0.8863 -1.0842
 3751TIP3    H232669   0.310   1.922  11.147  1.5816  1.4001  0.3734
 3752TIP3   OH232670   0.701   5.311   0.475  0.3074  0.1372  0.2653
 3752TIP3    H132671   0.702   5.322   0.570  1.3153  0.5598  0.2195
 3752TIP3    H232672   0.727   5.220   0.461  0.0018  0.0278  0.3934
 3753TIP3   OH232673   0.745   1.008   9.143  0.1399  0.4590  0.2365
 3753TIP3    H132674   0.839   0.991   9.142  0.0563 -0.0659 -0.6669
 3753TIP3    H232675   0.707   0.928   9.107 -0.5837  1.0037 -0.2255
 3754TIP3   OH232676   6.558   5.944  11.347 -0.4398 -0.0107  0.1936
 3754TIP3    H132677   6.484   6.003  11.362 -1.0027 -0.6775  0.1404
 3754TIP3    H232678   6.632   5.986  11.390 -0.1878  2.0037 -2.0622
 3755TIP3   OH232679   0.932   0.832   3.156 -0.6833 -0.0988  0.0422
 3755TIP3    H132680   0.860   0.841   3.219  0.1136  2.1931  0.7620
 3755TIP3    H232681   0.903   0.764   3.095 -2.8314 -0.2271  1.1068
 3756TIP3   OH232682   4.864   4.945   2.764  0.3804  0.4714 -0.0184
 3756TIP3    H132683   4.942   4.923   2.814 -0.2888  0.6082  1.1189
 3756TIP3    H232684   4.812   4.864   2.763 -0.5464  1.0170  1.3004
 3757TIP3   OH232685   3.295   2.774   4.719 -0.2129 -0.1214 -0.1583
 3757TIP3    H132686   3.371   2.725   4.689 -0.4520 -0.8494  0.3910
 3757TIP3    H232687   3.291   2.758   4.813 -1.3519 -0.5684 -0.2540
 3758TIP3   OH232688   3.938   3.519  12.623 -0.2015 -0.8206 -0.1361
 3758TIP3    H132689   3.899   3.510  12.536  0.6125 -0.4633 -0.5506
 3758TIP3    H232690   3.866   3.550  12.678 -0.3725  0.4755 -1.0322
 3759TIP3   OH232691   0.059   5.000   0.794  0.2612  0.0459  0.1362
 3759TIP3    H132692  -0.008   5.029   0.733 -0.4087  0.1411  0.8942
 3759TIP3    H232693   0.137   4.987   0.741 -0.0982  0.8642 -0.6041
 3760TIP3   OH232694   1.470   2.302  14.745  0.4144 -0.4196 -0.1637
 3760TIP3    H132695   1.505   2.382  14.783 -2.7057  1.5228 -1.0411
 3760TIP3    H232696   1.398   2.331  14.688 -1.0034 -3.8519 -0.3894
 3761TIP3   OH232697   5.286   5.905   4.745  0.4774  0.2887 -0.5946
 3761TIP3    H132698   5.379   5.882   4.742  0.4577  0.3150 -2.2792
 3761TIP3    H232699   5.264   5.928   4.655 -1.6171 -1.5323 -0.6486
 3762TIP3   OH232700   0.060   3.356  12.892  0.0548 -0.3751 -0.4191
 3762TIP3    H132701  -0.007   3.378  12.956  0.4299 -0.4501  0.0039
 3762TIP3    H232702   0.143   3.375  12.936  0.3841 -2.1998 -0.1816
 3763TIP3   OH232703   6.285   0.368  13.204  0.2386 -0.7017  0.2805
 3763TIP3    H132704   6.200   0.328  13.186 -0.4489  1.0152 -0.3850
 3763TIP3    H232705   6.268   0.461  13.211  2.2156 -0.1943 -0.7988
 3764TIP3   OH232706   2.858   6.695  13.934 -0.0502  0.1583 -0.1263
 3764TIP3    H132707   2.930   6.751  13.961 -0.3809 -0.3684  2.0638
 3764TIP3    H232708   2.820   6.740  13.858  1.4332  1.3697 -0.2061
 3765TIP3   OH232709   5.672   1.622  13.122 -0.2719  0.4151  0.5275
 3765TIP3    H132710   5.759   1.626  13.083 -0.4106 -0.4251  0.1029
 3765TIP3    H232711   5.677   1.550  13.185 -1.5310 -1.9707 -1.8741
 3766TIP3   OH232712   4.311   0.547  11.332  0.0844  0.1786  0.1758
 3766TIP3    H132713   4.278   0.484  11.396 -0.5971  1.3274  0.9907
 3766TIP3    H232714   4.351   0.493  11.264 -0.7207 -1.1472  0.7080
 3767TIP3   OH232715   1.707   5.701  13.459 -0.3424  0.7105  0.4946
 3767TIP3    H132716   1.799   5.698  13.484 -0.0450  1.0882 -0.4953
 3767TIP3    H232717   1.681   5.609  13.455 -0.2416  0.6236  1.5551
 3768TIP3   OH232718   6.631   1.878   3.344 -0.1032  0.1813  0.1914
 3768TIP3    H132719   6.650   1.836   3.260  1.6610  0.1036  0.5954
 3768TIP3    H232720   6.537   1.869   3.354 -0.8895  2.6423 -3.0891
 3769TIP3   OH232721   2.915   6.313  12.854  0.2259  0.5711  0.2879
 3769TIP3    H132722   2.822   6.290  12.846  0.1154  1.1813 -0.2612
 3769TIP3    H232723   2.935   6.298  12.946 -0.9548  2.3346  0.8854
 3770TIP3   OH232724   1.432   3.854  15.271 -0.4153  0.0550  0.3507
 3770TIP3    H132725   1.525   3.842  15.291 -0.1908  0.7662 -0.2188
 3770TIP3    H232726   1.411   3.781  15.212 -0.1516  0.0422  0.2703
 3771TIP3   OH232727   1.473   4.218  10.941 -0.3883 -0.1712 -0.2269
 3771TIP3    H132728   1.534   4.189  10.872  2.3372  2.8952  0.6344
 3771TIP3    H232729   1.525   4.214  11.021 -1.2181  2.7068  0.5561
 3772TIP3   OH232730   2.959   2.840   0.859 -0.7181 -0.5163 -0.5676
 3772TIP3    H132731   2.953   2.767   0.922  0.9378 -0.2572 -0.0767
 3772TIP3    H232732   3.051   2.842   0.833 -0.7376  1.3833 -0.5959
 3773TIP3   OH232733   3.708   1.913  12.553  0.0132  0.1526  0.3338
 3773TIP3    H132734   3.797   1.948  12.550 -0.1166  0.4284 -0.3614
 3773TIP3    H232735   3.652   1.990  12.542 -0.3045 -0.0915  0.2438
 3774TIP3   OH232736   1.711   1.371   0.984  0.0220  0.5123  0.5260
 3774TIP3    H132737   1.637   1.404   0.933 -0.2988  0.1235  0.7379
 3774TIP3    H232738   1.761   1.317   0.923 -2.2709 -2.9146  1.4310
 3775TIP3   OH232739   5.046   2.400  12.614 -0.6071  0.0951  0.1901
 3775TIP3    H132740   5.044   2.495  12.613  0.9630  0.1657 -2.0639
 3775TIP3    H232741   5.020   2.374  12.526 -1.6516 -1.6225  0.9453
 3776TIP3   OH232742   1.124   6.464  11.240  0.4660 -0.4264 -0.3081
 3776TIP3    H132743   1.191   6.402  11.212 -0.2465 -2.6076  2.3495
 3776TIP3    H232744   1.045   6.411  11.248 -0.8806  1.4624 -0.5314
 3777TIP3   OH232745   5.889   4.056  12.319  0.5121 -0.2778  0.1345
 3777TIP3    H132746   5.983   4.056  12.341  0.7151  0.4522 -0.6448
 3777TIP3    H232747   5.858   3.970  12.344  1.8690 -1.3255 -1.5263
 3778TIP3   OH232748   5.795   4.146   1.464 -0.0888 -0.1598 -0.8077
 3778TIP3    H132749   5.830   4.226   1.503 -1.1147 -0.1414  0.1331
 3778TIP3    H232750   5.715   4.128   1.514  0.1089 -1.7573 -1.0097
 3779TIP3   OH232751   6.242   6.702  10.015  0.0010  0.2689  0.3266
 3779TIP3    H132752   6.278   6.781   9.975 -0.3948 -0.1684 -0.9705
 3779TIP3    H232753   6.272   6.631   9.958 -1.0946 -0.3243  0.4590
 3780TIP3   OH232754   1.952   2.513  11.546  0.2144  0.2203 -0.1839
 3780TIP3    H132755   1.978   2.577  11.612 -1.7556  0.7760  0.1338
 3780TIP3    H232756   1.940   2.565  11.466 -2.1364  0.4736  0.2585
 3781TIP3   OH232757   6.788   5.369  11.908  0.6598  0.2244  0.2400
 3781TIP3    H132758   6.714   5.393  11.963  0.4604  0.9504 -0.3379
 3781TIP3    H232759   6.849   5.442  11.916  0.1476  0.8646 -1.3473
 3782TIP3   OH232760   4.662   6.002  11.142 -0.0246  0.0415  0.0943
 3782TIP3    H132761   4.579   5.965  11.111 -0.3468  0.3978  0.5030
 3782TIP3    H232762   4.718   5.926  11.158  0.7709 -0.1120 -2.9328
 3783TIP3   OH232763   2.220   2.284  14.933  0.7981 -0.1263  0.4238
 3783TIP3    H132764   2.245   2.281  15.025 -0.9717  1.2654  0.9993
 3783TIP3    H232765   2.204   2.192  14.910 -3.2271 -0.2801  2.8978
 3784TIP3   OH232766   2.027   4.194  12.656 -0.5893 -0.7008 -0.8179
 3784TIP3    H132767   2.118   4.209  12.679 -0.7562 -1.2468  0.2623
 3784TIP3    H232768   2.012   4.251  12.580  0.3640  0.1602 -0.3903
 3785TIP3   OH232769   3.023   6.255  15.398  0.0942 -0.4625 -0.3449
 3785TIP3    H132770   2.966   6.180  15.416  0.2593 -0.6029 -0.3931
 3785TIP3    H232771   3.011   6.272  15.305 -0.6882  0.2025 -0.1296
 3786TIP3   OH232772   3.179   2.415  15.105  0.6256  0.3357  0.1594
 3786TIP3    H132773   3.125   2.396  15.028  0.5878 -0.9138  0.4679
 3786TIP3    H232774   3.266   2.433  15.070  0.3484  0.8889 -0.2462
 3787TIP3   OH232775   2.359   5.122  14.136  0.0192 -0.0719  0.1043
 3787TIP3    H132776   2.303   5.073  14.075  0.5689 -1.1288  0.4362
 3787TIP3    H232777   2.405   5.184  14.080  0.4747 -0.9882 -0.5691
 3788TIP3   OH232778   2.079   6.630  10.985 -0.4037  0.5301  0.0829
 3788TIP3    H132779   2.173   6.621  11.000 -0.3212  2.7289  1.3564
 3788TIP3    H232780   2.071   6.671  10.899 -0.3828 -2.0919 -1.2542
 3789TIP3   OH232781   4.381   5.629  10.470 -0.0739  0.2269  0.2964
 3789TIP3    H132782   4.416   5.690  10.535 -1.6628 -0.0438  1.4668
 3789TIP3    H232783   4.396   5.543  10.508 -1.2719  0.0758  0.4656
 3790TIP3   OH232784   2.236   0.584  13.824 -0.4957  0.5513 -0.8955
 3790TIP3    H132785   2.285   0.506  13.852 -0.7312  0.6231 -0.2832
 3790TIP3    H232786   2.254   0.649  13.892 -2.1136  0.3168 -0.2149
 3791TIP3   OH232787   5.740   1.117   3.278 -0.4061 -0.0927  0.6423
 3791TIP3    H132788   5.653   1.090   3.249 -0.0922 -2.1488  1.4629
 3791TIP3    H232789   5.800   1.067   3.223  0.3154  1.4921 -0.0974
 3792TIP3   OH232790   5.980   6.264   0.221 -0.4440 -0.0520  0.6959
 3792TIP3    H132791   6.006   6.200   0.155  0.0156 -1.9251  2.5619
 3792TIP3    H232792   5.903   6.225   0.263  0.5837 -0.0614  2.7111
 3793TIP3   OH232793   3.657   1.199   1.284 -0.7352 -0.1106  0.0840
 3793TIP3    H132794   3.666   1.282   1.331 -0.0314  0.5669 -1.2045
 3793TIP3    H232795   3.563   1.187   1.274 -0.8362  0.5631  0.2128
 3794TIP3   OH232796   2.083   5.080  11.279  0.2375  0.3082  0.7459
 3794TIP3    H132797   2.048   5.139  11.346 -1.1985 -0.5886  0.8395
 3794TIP3    H232798   2.042   5.110  11.197  0.9738  0.6003  0.4803
 3795TIP3   OH232799   0.197   2.114  10.598 -0.1105  0.4589  0.1563
 3795TIP3    H132800   0.176   2.195  10.645 -0.1126  0.3739  0.3030
 3795TIP3    H232801   0.181   2.135  10.506 -0.9685  0.3685  0.2711
 3796TIP3   OH232802   3.742   2.787  14.914 -0.0425 -0.1600  0.3585
 3796TIP3    H132803   3.790   2.864  14.885 -3.5591  1.7540 -1.0453
 3796TIP3    H232804   3.713   2.808  15.003 -1.4067  0.4476 -0.1978
 3797TIP3   OH232805   1.663   1.857  14.006  0.2133 -0.5111  0.1096
 3797TIP3    H132806   1.699   1.945  13.988 -1.8874  0.0850 -1.6059
 3797TIP3    H232807   1.738   1.799  13.996  1.5128  1.0038  0.5635
 3798TIP3   OH232808   0.730   6.932  13.780  0.5802  0.0279 -0.2445
 3798TIP3    H132809   0.731   6.886  13.696  0.2477 -2.2389  0.8938
 3798TIP3    H232810   0.686   7.015  13.762  1.3801  0.0429 -2.4709
 3799TIP3   OH232811   2.708   3.911   1.693 -0.3697  0.2144 -0.3743
 3799TIP3    H132812   2.696   3.891   1.786  0.7807  1.2427  0.0240
 3799TIP3    H232813   2.627   3.880   1.652 -0.0350 -2.2610  0.6086
 3800TIP3   OH232814   0.783   1.639  10.773  0.5933 -0.2541  0.1996
 3800TIP3    H132815   0.872   1.675  10.764  0.3505  0.2149 -0.3736
 3800TIP3    H232816   0.738   1.665  10.692  0.0269 -0.7641  0.3433
 3801TIP3   OH232817   5.679   2.681   0.766 -0.0815  0.1328  0.3328
 3801TIP3    H132818   5.736   2.745   0.807  1.0939 -1.5085  1.3803
 3801TIP3    H232819   5.598   2.685   0.817 -0.1463  1.0036  0.1680
 3802TIP3   OH232820   3.952   6.594  10.871 -0.3275 -0.2479  0.1418
 3802TIP3    H132821   3.956   6.501  10.893 -0.8093 -0.6248 -1.2378
 3802TIP3    H232822   3.880   6.601  10.808  0.8683  0.7340 -1.1914
 3803TIP3   OH232823   1.198   6.784  10.363  0.0027  0.0124 -0.4411
 3803TIP3    H132824   1.281   6.736  10.365  0.3861  0.6538 -0.6947
 3803TIP3    H232825   1.216   6.865  10.410 -0.2626  0.4849 -1.1333
 3804TIP3   OH232826   2.290   1.792  13.926  0.0183 -0.4044  0.0004
 3804TIP3    H132827   2.362   1.799  13.989 -0.0360 -0.9074  0.1261
 3804TIP3    H232828   2.267   1.883  13.906  1.1723 -0.2185 -0.5997
 3805TIP3   OH232829   5.047   5.034   0.289  0.7084  0.3114  0.2395
 3805TIP3    H132830   5.103   5.010   0.215  0.7391  1.0636  0.0129
 3805TIP3    H232831   5.039   5.129   0.283 -0.8043  0.1986  0.1258
 3806TIP3   OH232832   5.812   0.708   0.425  0.5144  0.4442 -0.1385
 3806TIP3    H132833   5.873   0.769   0.383  1.5199  2.1078  3.3255
 3806TIP3    H232834   5.851   0.691   0.511 -1.8295 -1.8956  0.5897
 3807TIP3   OH232835   3.088   1.977  10.829 -0.1719 -0.1816 -0.0479
 3807TIP3    H132836   2.993   1.964  10.825 -0.1118 -0.5845 -0.2625
 3807TIP3    H232837   3.105   1.997  10.921 -0.5909  1.0077 -0.2119
 3808TIP3   OH232838   1.864   5.752   2.729  0.5454 -0.6723  0.2174
 3808TIP3    H132839   1.897   5.670   2.768  0.1740 -1.6333 -1.3800
 3808TIP3    H232840   1.771   5.752   2.749  0.5251 -0.7008  0.1236
 3809TIP3   OH232841   2.369   0.125  14.927  0.0045  0.4637  0.4599
 3809TIP3    H132842   2.278   0.127  14.896  0.8743  3.2369 -2.5601
 3809TIP3    H232843   2.362   0.106  15.020 -3.4344 -1.9301 -0.0875
 3810TIP3   OH232844   4.263   3.950   2.802  0.1075 -0.6109 -0.5654
 3810TIP3    H132845   4.326   3.887   2.767 -1.6782 -1.8560 -1.7580
 3810TIP3    H232846   4.259   4.019   2.736  0.2579 -0.5118 -0.4702
 3811TIP3   OH232847   1.588   2.748  12.874  0.1373  0.4075  0.2590
 3811TIP3    H132848   1.657   2.720  12.814  0.0325 -0.5865  0.5839
 3811TIP3    H232849   1.628   2.819  12.925  0.3181  1.0723 -0.7639
 3812TIP3   OH232850   0.285   0.835  13.444  0.0451  0.4858 -0.0581
 3812TIP3    H132851   0.199   0.877  13.444 -0.0113  0.3828  0.6024
 3812TIP3    H232852   0.271   0.752  13.491  0.5970  0.6655  0.4354
 3813TIP3   OH232853   4.226   0.724   1.777  0.0579 -0.1760 -0.2385
 3813TIP3    H132854   4.243   0.630   1.777  1.2503 -0.0536 -2.9276
 3813TIP3    H232855   4.310   0.764   1.754 -0.2320  1.6536  1.5422
 3814TIP3   OH232856   1.527   6.675  13.187  0.2806 -0.0390 -0.1127
 3814TIP3    H132857   1.488   6.604  13.237 -0.0210 -0.5688 -1.0705
 3814TIP3    H232858   1.591   6.632  13.130 -0.8862  0.2262 -1.7093
 3815TIP3   OH232859   5.268   3.934  14.361  0.0554 -0.1025 -0.3677
 3815TIP3    H132860   5.295   3.997  14.428  2.1617 -1.5613  0.2919
 3815TIP3    H232861   5.282   3.979  14.278 -1.0728  1.1875  0.1013
 3816TIP3   OH232862   1.343   7.067   1.744 -0.0024 -0.8292  0.0570
 3816TIP3    H132863   1.340   7.072   1.840  3.1200 -2.3534  0.3591
 3816TIP3    H232864   1.252   7.052   1.718 -0.7396 -1.9439  2.8979
 3817TIP3   OH232865   0.882   5.188   0.856  0.1652 -0.0364  0.1955
 3817TIP3    H132866   0.864   5.094   0.858 -0.8265  0.1404  0.1113
 3817TIP3    H232867   0.864   5.218   0.945 -1.8064  0.4471 -0.3067
 3818TIP3   OH232868   1.953   2.476  10.912 -0.1154 -0.1228  0.1699
 3818TIP3    H132869   1.975   2.402  10.856  0.7741 -0.7738  1.3395
 3818TIP3    H232870   1.950   2.440  11.000  0.4461  1.2348  0.7757
 3819TIP3   OH232871   6.410   1.697  12.699 -0.7958  0.0544  0.2788
 3819TIP3    H132872   6.357   1.668  12.773 -1.2305  1.6681  0.6583
 3819TIP3    H232873   6.386   1.789  12.688  0.2425  0.1971 -1.0277
 3820TIP3   OH232874   6.310   3.184  12.580  0.1247 -0.0539  0.1730
 3820TIP3    H132875   6.223   3.144  12.589  1.1771 -2.5509  0.0927
 3820TIP3    H232876   6.361   3.147  12.651  1.7901 -0.6513 -1.2667
 3821TIP3   OH232877   4.353   4.439  12.699 -0.7354 -0.1362 -0.4640
 3821TIP3    H132878   4.379   4.404  12.784 -0.3072  1.2752  0.0034
 3821TIP3    H232879   4.349   4.362  12.642  0.5871 -0.9064  0.4314
 3822TIP3   OH232880   3.728   0.378  13.692  0.4297 -0.7710  0.1305
 3822TIP3    H132881   3.780   0.423  13.759 -0.9191 -0.9536  1.3380
 3822TIP3    H232882   3.672   0.318  13.742 -1.4998 -0.0172 -1.0614
 3823TIP3   OH232883   0.527   3.850   3.884 -0.3586  0.4533  0.2901
 3823TIP3    H132884   0.610   3.892   3.862 -0.2743  0.5153  0.7119
 3823TIP3    H232885   0.551   3.776   3.940 -0.6869  1.5431  1.9645
 3824TIP3   OH232886   5.144   1.620   0.858  0.4341  0.3014 -0.9553
 3824TIP3    H132887   5.049   1.608   0.856  0.2153  1.8339 -1.2101
 3824TIP3    H232888   5.179   1.549   0.804 -0.6148  0.1895 -1.5045
 3825TIP3   OH232889   1.714   0.264  12.485 -0.8277  0.1555  0.9114
 3825TIP3    H132890   1.667   0.185  12.461 -0.0935  0.2607 -1.0812
 3825TIP3    H232891   1.735   0.306  12.401  0.6236  1.3719  1.8228
 3826TIP3   OH232892   5.498   2.257  10.427  0.1821  0.0971 -0.0959
 3826TIP3    H132893   5.562   2.327  10.415  0.6658 -0.5044 -1.2577
 3826TIP3    H232894   5.448   2.257  10.346  0.3714 -1.0583 -0.2316
 3827TIP3   OH232895   5.031   4.822  13.216 -0.0129  0.1783  0.4880
 3827TIP3    H132896   5.086   4.750  13.247  0.7500  1.3298  1.9554
 3827TIP3    H232897   4.951   4.816  13.269  0.4880  0.9852  1.3873
 3828TIP3   OH232898   5.902   4.900  12.655 -0.4718 -0.5003 -0.0110
 3828TIP3    H132899   5.949   4.850  12.721 -0.0095 -1.4537 -1.0393
 3828TIP3    H232900   5.970   4.945  12.605 -0.8782  1.2971  0.9598
 3829TIP3   OH232901   5.737   0.220  10.454  0.2986 -0.3856 -0.0776
 3829TIP3    H132902   5.698   0.303  10.426  1.7535  0.1262 -0.6815
 3829TIP3    H232903   5.726   0.161  10.379  1.7410  0.1458 -0.7484
 3830TIP3   OH232904   6.057   3.418  14.888 -0.1889  0.2849  0.0221
 3830TIP3    H132905   5.970   3.443  14.918  0.4045  1.8455  0.4838
 3830TIP3    H232906   6.086   3.491  14.834  0.2586 -0.8682 -1.3615
 3831TIP3   OH232907   4.423   1.706  15.651  0.2621 -0.5892  0.2311
 3831TIP3    H132908   4.339   1.740  15.684  0.4213  0.4688 -0.4057
 3831TIP3    H232909   4.440   1.628  15.705  0.0222  0.4917  1.9594
 3832TIP3   OH232910   5.032   2.584  15.292 -0.2113  0.2720  0.3246
 3832TIP3    H132911   5.102   2.606  15.231 -0.7447  1.1069  0.0047
 3832TIP3    H232912   4.981   2.664  15.301 -1.8385 -0.6197 -0.3868
 3833TIP3   OH232913   4.072   3.482  12.862  0.2182 -0.0004 -0.1649
 3833TIP3    H132914   4.111   3.569  12.865 -0.7822  0.4897 -0.9048
 3833TIP3    H232915   4.018   3.483  12.783 -2.8734  0.0709  1.8039
 3834TIP3   OH232916   1.783   4.698  13.211 -0.1301 -0.6700  0.4611
 3834TIP3    H132917   1.775   4.657  13.125  0.5925 -1.0505  0.5700
 3834TIP3    H232918   1.819   4.630  13.268  1.5624  0.2289  0.5353
 3835TIP3   OH232919   6.766   3.845   1.917  0.2772  0.5568  0.0989
 3835TIP3    H132920   6.818   3.921   1.892 -0.8363  0.8218 -1.5866
 3835TIP3    H232921   6.790   3.828   2.008  2.1352  1.5891 -0.1572
 3836TIP3   OH232922   1.389   0.179  13.183 -0.3726  0.3813  0.4729
 3836TIP3    H132923   1.471   0.133  13.204 -1.9066 -2.8401  0.0804
 3836TIP3    H232924   1.378   0.166  13.089 -0.5948  2.1966  0.2156
 3837TIP3   OH232925   4.193   2.889  13.538  0.0147  0.0881  0.2157
 3837TIP3    H132926   4.139   2.924  13.609 -2.2269 -1.9523 -0.3621
 3837TIP3    H232927   4.194   2.960  13.473 -1.0361  0.5945  0.7204
 3838TIP3   OH232928   5.692   3.332  12.035 -0.2033  0.0718  0.3497
 3838TIP3    H132929   5.599   3.352  12.033 -0.4011 -0.8641 -0.5930
 3838TIP3    H232930   5.735   3.417  12.039 -1.0444  0.6855 -1.9106
 3839TIP3   OH232931   1.966   4.170  11.920 -0.4077 -0.2011 -0.0539
 3839TIP3    H132932   2.056   4.191  11.895 -0.1712 -0.7375  0.3145
 3839TIP3    H232933   1.923   4.255  11.929  0.4867  0.1456  1.2672
 3840TIP3   OH232934   2.160   0.536  10.132 -0.5382  0.1963 -0.0507
 3840TIP3    H132935   2.115   0.464  10.177 -1.3948  0.7319 -0.0135
 3840TIP3    H232936   2.106   0.551  10.053  0.1886  0.1474 -0.5638
 3841TIP3   OH232937   6.071   6.617  12.477 -0.6095 -0.6661 -0.0098
 3841TIP3    H132938   5.997   6.592  12.423 -1.1587  1.5020 -0.3524
 3841TIP3    H232939   6.032   6.664  12.551  0.3595  0.0572  0.0729
 3842TIP3   OH232940   4.192   3.615  12.430 -0.1862  0.3377 -0.6317
 3842TIP3    H132941   4.220   3.528  12.402  1.7564  0.5430  0.4667
 3842TIP3    H232942   4.179   3.607  12.525  0.0116  1.2341 -0.5189
 3843TIP3   OH232943   2.433   1.171   2.165  0.5195  0.2610  0.5124
 3843TIP3    H132944   2.507   1.115   2.188  0.8991  1.0020  1.1348
 3843TIP3    H232945   2.389   1.188   2.249 -1.8039 -2.1157 -0.0992
 3844TIP3   OH232946   3.035   4.424   3.324  0.1613 -0.3896 -0.4181
 3844TIP3    H132947   3.036   4.514   3.293  1.1435 -0.5058 -0.7354
 3844TIP3    H232948   3.058   4.430   3.417  0.1152 -0.3105 -0.4114
 3845TIP3   OH232949   6.872   2.483   9.568 -0.3575  0.0928  0.2194
 3845TIP3    H132950   6.828   2.423   9.507  1.7557 -0.7888 -0.5074
 3845TIP3    H232951   6.942   2.432   9.607  0.2720  1.5439  1.0890
 3846TIP3   OH232952   5.090   2.475   9.951  0.4076 -0.0749 -0.2630
 3846TIP3    H132953   5.127   2.551   9.997  2.3233 -0.3282 -1.2563
 3846TIP3    H232954   5.050   2.512   9.873 -0.6840  0.1130  0.3696
 3847TIP3   OH232955   1.268   4.508  13.828  0.4644 -0.5937 -0.2297
 3847TIP3    H132956   1.254   4.529  13.735  0.0845 -0.8535 -0.2329
 3847TIP3    H232957   1.242   4.417  13.836 -2.6788  0.2540  0.7715
 3848TIP3   OH232958   0.546   2.259   5.721 -0.2575  0.1729  0.1853
 3848TIP3    H132959   0.549   2.190   5.655  4.7345  0.2098 -0.0599
 3848TIP3    H232960   0.556   2.213   5.804 -2.2568  0.3772  0.5699
 3849TIP3   OH232961   1.306   3.269  15.579 -0.1862  0.0014 -0.1637
 3849TIP3    H132962   1.302   3.296  15.671 -0.9431  1.4216 -0.5817
 3849TIP3    H232963   1.326   3.350  15.532 -0.3717 -0.5973 -1.2924
 3850TIP3   OH232964   1.209   6.062  10.835  0.0102 -0.1809 -0.1541
 3850TIP3    H132965   1.218   5.990  10.773 -2.2655 -1.0887  0.4574
 3850TIP3    H232966   1.294   6.068  10.878  0.9054 -1.0677 -1.7091
 3851TIP3   OH232967   6.689   5.094  14.039 -0.1432 -0.0890 -0.2435
 3851TIP3    H132968   6.595   5.094  14.024  0.0654 -1.0077 -1.8283
 3851TIP3    H232969   6.704   5.168  14.097 -1.7685  0.4661 -0.4744
 3852TIP3   OH232970   1.045   3.079  13.941 -0.0146  0.0369  0.1281
 3852TIP3    H132971   1.042   3.165  13.899 -1.4953 -0.2980 -0.4824
 3852TIP3    H232972   1.039   3.098  14.035  0.2761  0.6248  0.0318
 3853TIP3   OH232973   6.644   1.085  14.692 -0.1547  0.0535 -0.2838
 3853TIP3    H132974   6.603   1.005  14.659  1.3092 -0.8252 -0.0714
 3853TIP3    H232975   6.648   1.143  14.616  2.2180 -1.5501 -1.5058
 3854TIP3   OH232976   4.801   2.266   3.995  0.2826 -0.3550 -0.0449
 3854TIP3    H132977   4.892   2.284   3.972  0.6985 -1.8162  0.3790
 3854TIP3    H232978   4.796   2.281   4.089  0.1186 -0.4250 -0.0420
 3855TIP3   OH232979   3.580   4.029  10.610 -0.1398 -0.3346 -0.2275
 3855TIP3    H132980   3.522   3.973  10.557  0.4366 -2.1542  0.9495
 3855TIP3    H232981   3.527   4.051  10.687  0.1327 -0.4888  0.0024
 3856TIP3   OH232982   2.048   0.131  11.435  0.2899 -0.1997 -0.1993
 3856TIP3    H132983   1.970   0.080  11.412  0.2710 -0.6878  0.8688
 3856TIP3    H232984   2.105   0.068  11.478  1.2435  0.1821 -0.8741
 3857TIP3   OH232985   3.784   5.307   2.320  0.0494 -0.4239  0.4242
 3857TIP3    H132986   3.718   5.239   2.332 -0.0100 -0.3795  0.3511
 3857TIP3    H232987   3.756   5.354   2.241 -0.6436  0.5203  1.1901
 3858TIP3   OH232988   3.050   6.242  14.463  0.7173 -0.5052 -0.2733
 3858TIP3    H132989   3.034   6.314  14.403  1.6308  0.3728  0.5140
 3858TIP3    H232990   2.994   6.171  14.430 -0.5775  0.7056 -0.7678
 3859TIP3   OH232991   4.319   0.764   0.817  0.0259  0.4605 -0.7136
 3859TIP3    H132992   4.385   0.801   0.875  0.8240  0.9451 -1.8863
 3859TIP3    H232993   4.337   0.670   0.816  0.6849  0.5884 -1.0026
 3860TIP3   OH232994   2.446   4.467   1.016 -0.2345  0.2728  0.1373
 3860TIP3    H132995   2.462   4.497   1.106  0.7704  2.5700 -0.7424
 3860TIP3    H232996   2.395   4.537   0.976  0.5413 -0.0328 -1.4720
 3861TIP3   OH232997   3.375   5.778  13.885 -0.1494  0.3322 -0.0032
 3861TIP3    H132998   3.381   5.851  13.947  0.4551 -0.5176  0.9686
 3861TIP3    H232999   3.458   5.732  13.894  0.6647  1.1289 -2.6888
 3862TIP3   OH233000   3.057   3.325  10.896 -0.4110 -0.2075 -0.0216
 3862TIP3    H133001   3.104   3.254  10.940  0.5390  0.4727  0.0885
 3862TIP3    H233002   3.020   3.377  10.967  2.3298  1.7227  0.1511
 3863TIP3   OH233003   0.892   0.699   5.320  0.3787  1.2678  0.0276
 3863TIP3    H133004   0.964   0.694   5.383  0.5101  0.3606 -0.1811
 3863TIP3    H233005   0.884   0.610   5.286 -0.6891  1.4207 -0.1324
 3864TIP3   OH233006   3.988   1.436  11.053  0.0300  0.1080  0.3147
 3864TIP3    H133007   4.040   1.376  11.000  0.3476  0.7433 -0.1062
 3864TIP3    H233008   3.926   1.475  10.991  0.3769  0.8256  0.3988
 3865TIP3   OH233009   5.351   6.876   0.277 -0.1050 -0.2994  0.0196
 3865TIP3    H133010   5.378   6.808   0.338 -0.0679 -1.7506 -1.5440
 3865TIP3    H233011   5.286   6.927   0.325 -0.5444 -1.7825  1.0725
 3866TIP3   OH233012   7.027   0.214  12.688  0.4594 -0.8291 -0.4102
 3866TIP3    H133013   7.110   0.246  12.722 -0.0264 -0.2822  0.2924
 3866TIP3    H233014   6.967   0.220  12.762 -0.6152  0.3448 -1.3514
 3867TIP3   OH233015   5.519   0.765   1.992  0.0028  0.3504 -0.0585
 3867TIP3    H133016   5.614   0.777   2.002 -0.2271  1.7603  0.6490
 3867TIP3    H233017   5.511   0.681   1.947  1.5273 -0.8949  1.7852
 3868TIP3   OH233018   4.912   3.816  11.138 -0.1865 -0.2092 -0.5065
 3868TIP3    H133019   4.843   3.829  11.073 -1.8708  3.1665  1.7330
 3868TIP3    H233020   4.882   3.862  11.216  3.8659  0.0407  1.1584
 3869TIP3   OH233021   5.239   4.375  10.474 -0.3826 -0.2824 -0.0538
 3869TIP3    H133022   5.144   4.382  10.470 -0.2528  1.9936 -0.3055
 3869TIP3    H233023   5.265   4.427  10.550  0.6743 -0.7420 -0.0756
 3870TIP3   OH233024   3.486   0.830  13.441  0.1200 -0.3244 -0.4844
 3870TIP3    H133025   3.577   0.843  13.412  0.1938  0.5534  0.0926
 3870TIP3    H233026   3.494   0.818  13.536 -0.1645 -2.5943 -0.6938
 3871TIP3   OH233027   4.442   0.982   3.370  0.1422  0.5151 -0.5403
 3871TIP3    H133028   4.422   0.895   3.336  1.0578  0.1321 -0.1404
 3871TIP3    H233029   4.357   1.025   3.377 -0.4170 -0.6518  0.1009
 3872TIP3   OH233030   1.724   4.555  15.256  0.1810  0.1808  0.2685
 3872TIP3    H133031   1.747   4.481  15.201  0.2533  0.0531  0.4672
 3872TIP3    H233032   1.671   4.612  15.200  0.2645  0.0600  0.0663
 3873TIP3   OH233033   2.995   0.138   1.284  0.4431 -0.1012  0.1415
 3873TIP3    H133034   3.018   0.195   1.358 -0.9172  0.2041  0.3461
 3873TIP3    H233035   3.039   0.178   1.209 -0.6672  1.3885  0.2375
 3874TIP3   OH233036   1.619   4.212   0.764 -0.1711 -0.3102  0.0795
 3874TIP3    H133037   1.660   4.282   0.713  0.0976 -1.2848 -1.1006
 3874TIP3    H233038   1.586   4.255   0.842  0.2322  1.0819 -0.4888
 3875TIP3   OH233039   4.777   3.725  12.225 -0.6369  0.4415  0.8672
 3875TIP3    H133040   4.746   3.790  12.163 -0.6462 -0.9771 -0.6924
 3875TIP3    H233041   4.860   3.760  12.258  0.9189 -0.0172 -2.2199
 3876TIP3   OH233042   2.305   4.972   1.696  0.1924 -0.1163  0.3461
 3876TIP3    H133043   2.235   4.908   1.705 -1.7062  1.0264 -3.7888
 3876TIP3    H233044   2.379   4.923   1.661 -0.4211 -0.5136 -0.4295
 3877TIP3   OH233045   5.672   6.536  12.710  0.0333 -0.3306 -0.3350
 3877TIP3    H133046   5.609   6.471  12.741  1.0766 -1.0772  0.2910
 3877TIP3    H233047   5.668   6.606  12.776 -0.6183 -0.0478 -0.6618
 3878TIP3   OH233048   6.547   4.820  12.858  0.0497 -0.1886  0.2585
 3878TIP3    H133049   6.534   4.875  12.780  0.5658 -0.4054  0.0191
 3878TIP3    H233050   6.546   4.882  12.931 -3.6632 -0.2491  0.4569
 3879TIP3   OH233051   5.637   7.022  11.992  0.3435  0.2854  0.4895
 3879TIP3    H133052   5.582   6.985  12.062 -1.4326  2.3409  0.3123
 3879TIP3    H233053   5.611   6.974  11.914  0.1653 -0.0465  0.7490
 3880TIP3   OH233054   3.751   6.222  12.200  0.1514  0.1292 -0.4312
 3880TIP3    H133055   3.736   6.293  12.137  1.6555  1.1199  0.2941
 3880TIP3    H233056   3.664   6.206  12.238 -0.6575 -0.0183 -2.2230
 3881TIP3   OH233057   0.352   0.429   0.377  0.8347  0.0187 -0.2622
 3881TIP3    H133058   0.320   0.378   0.302  0.3521 -0.3160  0.1686
 3881TIP3    H233059   0.371   0.364   0.444 -0.2411  0.4290  0.4694
 3882TIP3   OH233060   4.019   0.532  10.543  0.4667  0.3076  0.3778
 3882TIP3    H133061   4.059   0.604  10.494 -0.1250  1.3640  1.3872
 3882TIP3    H233062   4.076   0.519  10.618 -0.6161  1.3299  1.4354
 3883TIP3   OH233063   1.951   2.967  11.416 -0.1238 -0.2155  0.3887
 3883TIP3    H133064   2.034   2.953  11.461  0.3358  1.3945  0.1186
 3883TIP3    H233065   1.934   2.885  11.371  0.3932 -1.1908  1.8969
 3884TIP3   OH233066   6.986   2.349   0.069  0.2341 -0.3512 -0.2265
 3884TIP3    H133067   6.920   2.280   0.068 -0.5196  0.3634 -1.1505
 3884TIP3    H233068   7.046   2.327  -0.003 -1.1500  0.9856 -1.8869
 3885TIP3   OH233069   5.683   4.043   9.162  0.4269 -0.4577 -0.0539
 3885TIP3    H133070   5.636   4.126   9.164  1.0270 -0.1010  1.8502
 3885TIP3    H233071   5.620   3.980   9.128  0.0070  0.7896 -1.6789
 3886TIP3   OH233072   3.117   1.494   1.957 -0.1912 -0.2822 -0.5749
 3886TIP3    H133073   3.091   1.437   1.885  1.5779 -2.7968  0.6026
 3886TIP3    H233074   3.046   1.486   2.021  0.4386 -2.0191 -0.0326
 3887TIP3   OH233075   0.721   2.434  13.176 -1.0461 -0.3601  0.6059
 3887TIP3    H133076   0.792   2.378  13.208  1.1528  2.2184  0.5716
 3887TIP3    H233077   0.660   2.439  13.249  0.6305  0.1790  2.0479
 3888TIP3   OH233078   0.755   2.980  11.444  0.1555 -0.1182 -0.7474
 3888TIP3    H133079   0.762   3.036  11.521 -0.2648 -0.8721 -0.1466
 3888TIP3    H233080   0.834   3.000  11.393  0.0839  0.9015 -0.4797
 3889TIP3   OH233081   2.609   4.486  12.987 -0.2908 -0.6253 -0.1567
 3889TIP3    H133082   2.646   4.485  13.075  0.2261  0.8232 -0.3283
 3889TIP3    H233083   2.631   4.572  12.952 -3.6053  0.2608 -0.3955
 3890TIP3   OH233084   1.563   1.099  12.654 -0.0910 -0.4487 -0.3630
 3890TIP3    H133085   1.492   1.095  12.718  0.8083 -0.7563  0.6389
 3890TIP3    H233086   1.625   1.032  12.683  2.1112  1.8717  0.5954
 3891TIP3   OH233087   4.729   3.483  12.393  0.5061  0.2019  0.5927
 3891TIP3    H133088   4.764   3.407  12.346  0.5184  0.0795  0.8010
 3891TIP3    H233089   4.746   3.557  12.335 -1.4005 -0.2181 -0.5913
 3892TIP3   OH233090   2.541   5.306  11.730 -0.1532 -0.6014  0.0684
 3892TIP3    H133091   2.582   5.369  11.671 -0.1220 -3.2707 -3.0260
 3892TIP3    H233092   2.447   5.314  11.711 -0.2786 -0.5950  0.6664
 3893TIP3   OH233093   5.702   5.173   0.552 -0.4486 -0.7575  0.4196
 3893TIP3    H133094   5.755   5.154   0.630  0.6637 -1.1396 -0.4108
 3893TIP3    H233095   5.635   5.234   0.584 -0.5177 -1.5218  1.8461
 3894TIP3   OH233096   6.991   6.180   4.232  0.0696 -0.0447 -0.1330
 3894TIP3    H133097   6.909   6.220   4.259 -0.6119 -2.1493  1.2149
 3894TIP3    H233098   7.058   6.243   4.259 -0.9654  0.5244  1.2340
 3895TIP3   OH233099   4.367   2.331  11.609  0.8484  0.7181  0.1522
 3895TIP3    H133100   4.299   2.319  11.542  0.6142 -1.0172  0.6400
 3895TIP3    H233101   4.321   2.371  11.683 -0.1257 -1.9088  1.0940
 3896TIP3   OH233102   3.348   3.982  14.732  0.9570 -0.2376 -0.2574
 3896TIP3    H133103   3.269   3.941  14.767  0.2666  1.4427  0.2560
 3896TIP3    H233104   3.353   4.066  14.777  1.5431  0.8447 -2.2239
 3897TIP3   OH233105   0.330   6.211  12.735 -0.2419 -0.0419  0.1000
 3897TIP3    H133106   0.341   6.136  12.676 -1.0378  0.3476 -0.5571
 3897TIP3    H233107   0.282   6.176  12.810 -0.2895 -0.2637 -0.0317
 3898TIP3   OH233108   4.634   2.072  10.967 -0.5227 -0.0350  0.5202
 3898TIP3    H133109   4.628   1.990  11.015  0.3081 -1.9586 -2.4067
 3898TIP3    H233110   4.727   2.081  10.946 -0.8571  0.6014 -0.8426
 3899TIP3   OH233111   1.126   5.595  13.693 -0.0889 -0.4527 -0.3214
 3899TIP3    H133112   1.142   5.652  13.618  2.4307  0.5434  0.8476
 3899TIP3    H233113   1.204   5.540  13.698 -0.4401 -0.8438  1.2469
 3900TIP3   OH233114   0.950   4.984  13.345 -0.3266  0.4341  0.1501
 3900TIP3    H133115   0.973   4.891  13.334 -2.1529  0.0274 -0.6938
 3900TIP3    H233116   0.916   4.990  13.435  0.9027  0.5686  0.6236
 3901TIP3   OH233117   6.041   1.667   0.669  1.0133  0.3301 -0.2895
 3901TIP3    H133118   6.010   1.627   0.751 -0.0179  0.7921 -0.4415
 3901TIP3    H233119   5.989   1.748   0.661  2.9194  1.6380 -0.0728
 3902TIP3   OH233120   3.135   4.118   5.055 -0.1513  0.4674 -0.5902
 3902TIP3    H133121   3.063   4.082   5.002 -0.5564  1.0191 -0.4305
 3902TIP3    H233122   3.205   4.054   5.047 -1.2269 -0.9552  0.6100
 3903TIP3   OH233123   4.218   0.329  14.211  0.3716  0.4191 -0.4193
 3903TIP3    H133124   4.303   0.341  14.252 -0.1588  1.9234  0.3191
 3903TIP3    H233125   4.188   0.418  14.193 -1.3261 -0.0466 -0.0526
 3904TIP3   OH233126   4.452   0.812  10.822  0.3357  0.2141 -0.6602
 3904TIP3    H133127   4.486   0.724  10.838 -0.1866  0.0013 -0.7156
 3904TIP3    H233128   4.507   0.846  10.750 -1.0149 -0.9893 -2.3369
 3905TIP3   OH233129   6.815   5.150  11.201 -0.4002 -0.0155 -0.0023
 3905TIP3    H133130   6.824   5.098  11.281 -1.8451  1.8707  1.4794
 3905TIP3    H233131   6.734   5.119  11.161  0.6046 -1.3416 -1.0942
 3906TIP3   OH233132   0.379   0.936  15.342  0.4346 -0.0407 -0.0748
 3906TIP3    H133133   0.301   0.911  15.293 -0.5567  0.5619  1.1360
 3906TIP3    H233134   0.434   0.981  15.278  0.0454 -0.9516 -1.0782
 3907TIP3   OH233135   5.833   3.762  13.213  0.3878  0.2278  0.2015
 3907TIP3    H133136   5.913   3.751  13.160  0.9357 -0.3223  1.1136
 3907TIP3    H233137   5.865   3.766  13.303 -0.4721  1.8348  0.4625
 3908TIP3   OH233138   1.616   0.171   9.894 -0.1674 -0.2925  0.0936
 3908TIP3    H133139   1.689   0.120   9.929 -0.0846  0.2110  0.6864
 3908TIP3    H233140   1.552   0.173   9.965  0.2825  1.2986  0.5142
 3909TIP3   OH233141   6.279   3.559  13.238  0.4451 -0.9552  0.2513
 3909TIP3    H133142   6.209   3.518  13.288 -0.2735  0.8392  0.7817
 3909TIP3    H233143   6.346   3.491  13.231 -0.8263 -2.3159  0.7690
 3910TIP3   OH233144   5.548   0.324  13.200  0.0048  0.4895  0.9163
 3910TIP3    H133145   5.561   0.393  13.265 -2.1045  1.5581  0.3186
 3910TIP3    H233146   5.453   0.320  13.189  0.2231 -0.7044 -0.9893
 3911TIP3   OH233147   0.696   1.612  10.377 -0.0716 -0.6228 -0.0135
 3911TIP3    H133148   0.740   1.554  10.439 -0.3195  1.3826  2.1787
 3911TIP3    H233149   0.742   1.598  10.295  0.5368 -3.1259  0.6596
 3912TIP3   OH233150   0.734   1.755   2.353 -0.4946  0.3501 -0.1496
 3912TIP3    H133151   0.757   1.845   2.331  0.2944  0.5988  1.5516
 3912TIP3    H233152   0.642   1.747   2.329  0.0711  0.7706 -2.7671
 3913TIP3   OH233153   6.479   4.171  14.487 -0.2308 -0.2060  0.1790
 3913TIP3    H133154   6.440   4.207  14.407 -0.9645 -0.0912  0.5775
 3913TIP3    H233155   6.406   4.166  14.549  0.3013 -0.4167  0.8008
 3914TIP3   OH233156   4.333   6.847  13.781 -0.3324 -0.6555 -0.2343
 3914TIP3    H133157   4.323   6.782  13.712 -0.0181  1.0110 -1.9400
 3914TIP3    H233158   4.303   6.929  13.741  2.0567  0.8345  0.7767
 3915TIP3   OH233159   3.288   5.841  12.033  0.3078  0.2724  0.0459
 3915TIP3    H133160   3.366   5.896  12.034  0.3496  0.2089  0.2269
 3915TIP3    H233161   3.230   5.881  12.098 -0.0845  0.7216 -0.5646
 3916TIP3   OH233162   3.689   1.066  12.258  0.3165  0.0287 -0.4805
 3916TIP3    H133163   3.749   1.056  12.332  1.6791  2.1709 -1.1787
 3916TIP3    H233164   3.620   1.001  12.273 -0.2580  1.3048  3.3872
 3917TIP3   OH233165   4.768   6.248  11.397  0.2256 -0.6881 -0.2280
 3917TIP3    H133166   4.820   6.216  11.472  1.9654  0.3116 -0.9468
 3917TIP3    H233167   4.770   6.343  11.406  2.4168 -0.4047 -2.7066
 3918TIP3   OH233168   0.174   6.272  14.277 -0.0785  0.0675  0.2334
 3918TIP3    H133169   0.196   6.303  14.189  0.0113  0.3114  0.3428
 3918TIP3    H233170   0.228   6.324  14.336 -0.4163  0.1723  0.4573
 3919TIP3   OH233171   3.771   2.171  14.862  0.1177 -0.0741 -0.1038
 3919TIP3    H133172   3.679   2.163  14.836 -0.1016  0.5351  0.4450
 3919TIP3    H233173   3.770   2.239  14.930  1.0115  0.1205 -0.2826
 3920TIP3   OH233174   3.378   6.861  14.343 -0.3629 -0.1899  0.0868
 3920TIP3    H133175   3.335   6.912  14.411 -0.0217  0.3304 -0.0758
 3920TIP3    H233176   3.424   6.927  14.290  0.2941 -0.6914  0.0266
 3921TIP3   OH233177   4.261   2.991  14.472  0.0304  0.1433  0.3570
 3921TIP3    H133178   4.276   3.070  14.523 -0.2289  0.3705  0.0832
 3921TIP3    H233179   4.348   2.958  14.451  0.1536  0.8568 -0.3078
 3922TIP3   OH233180   5.421   3.010   1.070 -0.6436  0.4146 -0.0862
 3922TIP3    H133181   5.502   3.026   1.021 -1.1839 -0.6946 -1.4075
 3922TIP3    H233182   5.434   3.055   1.153  0.4369  2.0865 -1.1132
 3923TIP3   OH233183   5.623   1.750  12.329 -0.2553  0.2218  0.2948
 3923TIP3    H133184   5.528   1.735  12.333 -0.1523 -0.1975  3.0289
 3923TIP3    H233185   5.657   1.673  12.282 -1.1886  0.0862 -0.1969
 3924TIP3   OH233186   0.608   0.853  14.569  0.1588  0.1159  0.7066
 3924TIP3    H133187   0.524   0.808  14.561  0.7411 -0.7983 -0.6928
 3924TIP3    H233188   0.590   0.928  14.626 -0.4273 -2.8937  5.0209
 3925TIP3   OH233189   4.047   4.604  13.972 -0.1925 -0.3414 -0.1277
 3925TIP3    H133190   4.103   4.536  14.009 -0.6811 -1.9065 -2.0891
 3925TIP3    H233191   4.040   4.582  13.879 -1.7319  1.4475 -0.5047
 3926TIP3   OH233192   4.180   4.533  15.087  0.6782 -0.3497 -0.0675
 3926TIP3    H133193   4.225   4.449  15.096  1.8703  0.2757  0.0843
 3926TIP3    H233194   4.233   4.581  15.023 -0.5186 -0.0480 -0.8709
 3927TIP3   OH233195   6.339   6.218  11.659  0.0439  0.3253  0.0280
 3927TIP3    H133196   6.384   6.176  11.732  1.5288  0.3342 -0.8437
 3927TIP3    H233197   6.263   6.163  11.642  0.8676 -0.9050  0.2033
 3928TIP3   OH233198   1.677   6.860  15.177  0.3925  0.5485  0.3150
 3928TIP3    H133199   1.756   6.857  15.232  0.1471  0.7895  0.6835
 3928TIP3    H233200   1.611   6.903  15.232  0.3167  1.3489 -0.3782
 3929TIP3   OH233201   0.228   6.942  10.549 -0.3453 -0.2253  0.1236
 3929TIP3    H133202   0.235   7.037  10.542  0.5757 -0.1653  1.4012
 3929TIP3    H233203   0.300   6.917  10.607 -1.0983 -1.6000  0.5191
 3930TIP3   OH233204   2.355   6.003   9.332  0.1651 -0.2524 -0.1160
 3930TIP3    H133205   2.314   6.060   9.398  1.8108 -0.6915  1.3612
 3930TIP3    H233206   2.442   6.040   9.318 -1.1791  1.8154 -4.6599
 3931TIP3   OH233207   6.928   6.045  11.696 -0.4442 -0.0797  0.5541
 3931TIP3    H133208   6.843   6.009  11.722 -1.1161 -0.4987 -1.9837
 3931TIP3    H233209   6.926   6.136  11.725 -2.3249  0.2699 -0.5312
 3932TIP3   OH233210   7.118   2.270  14.615  0.0499 -0.4408  0.0146
 3932TIP3    H133211   7.042   2.276  14.557  0.6374  1.0247 -0.6592
 3932TIP3    H233212   7.153   2.359  14.619 -0.0350 -0.4462  2.7524
 3933TIP3   OH233213   0.771   4.577  10.673  1.0268 -0.0843  0.3295
 3933TIP3    H133214   0.711   4.508  10.644 -0.5316  0.4965  1.9359
 3933TIP3    H233215   0.830   4.534  10.735  2.2052 -0.6131 -1.0972
 3934TIP3   OH233216   6.488   6.659   4.339  0.0517  0.0323 -0.1000
 3934TIP3    H133217   6.471   6.733   4.397  0.1729  1.5020 -1.8439
 3934TIP3    H233218   6.471   6.693   4.251  1.8336 -1.4857 -1.1062
 3935TIP3   OH233219   3.421   5.496   0.229  0.1988  0.2845  0.0381
 3935TIP3    H133220   3.327   5.481   0.234  0.2196  0.5521  2.5923
 3935TIP3    H233221   3.460   5.409   0.242  0.2848  0.4350  0.8414
 3936TIP3   OH233222   1.081   5.845   1.261  0.4976  0.6371  0.0578
 3936TIP3    H133223   1.074   5.760   1.304  0.4550  0.7290  0.2311
 3936TIP3    H233224   1.173   5.869   1.271  0.2386  1.2284  1.1835
 3937TIP3   OH233225   4.233   5.686  12.383 -0.0604 -0.4895 -0.1491
 3937TIP3    H133226   4.253   5.646  12.468 -0.2654 -1.0960 -0.3800
 3937TIP3    H233227   4.318   5.693  12.340  0.0956  0.1533  0.2374
 3938TIP3   OH233228   1.612   6.382   0.065 -0.1649  0.0540  0.3307
 3938TIP3    H133229   1.568   6.459   0.100  1.1947  1.0285 -0.0087
 3938TIP3    H233230   1.591   6.312   0.127  0.7663  1.3315  2.2016
 3939TIP3   OH233231   2.696   1.840  13.198  0.3116 -0.0172 -0.1712
 3939TIP3    H133232   2.711   1.757  13.153  1.4318 -0.1788  0.4607
 3939TIP3    H233233   2.610   1.869  13.167 -0.0541 -1.3599 -0.4835
 3940TIP3   OH233234   0.486   2.561  14.237  0.0760  0.0468  0.2647
 3940TIP3    H133235   0.391   2.568  14.227  0.0387  0.5512  0.9319
 3940TIP3    H233236   0.517   2.535  14.150 -0.8777 -2.4052  0.5548
 3941TIP3   OH233237   6.751   0.056   1.171 -0.0934 -0.4422 -0.0132
 3941TIP3    H133238   6.685  -0.010   1.190  0.6110 -1.0666  0.3404
 3941TIP3    H233239   6.726   0.132   1.224 -1.5339  0.0078 -1.2636
 3942TIP3   OH233240   2.115   1.824  11.160  0.4200 -0.1161 -0.0700
 3942TIP3    H133241   2.102   1.845  11.252  0.6980  1.1366 -0.3058
 3942TIP3    H233242   2.147   1.734  11.160  0.6024 -0.0565  1.0655
 3943TIP3   OH233243   1.660   7.027  11.258  0.3508  0.6398 -0.7648
 3943TIP3    H133244   1.650   7.057  11.168 -0.7592 -2.4267 -1.7909
 3943TIP3    H233245   1.570   7.017  11.290  0.7247  1.2485  0.5671
 3944TIP3   OH233246   1.161   2.089   1.371 -0.3729 -0.0393 -0.0484
 3944TIP3    H133247   1.163   2.158   1.305 -0.5034  0.1189  0.1105
 3944TIP3    H233248   1.195   2.131   1.450 -2.1755  0.3987  0.5505
 3945TIP3   OH233249   6.057   1.262  11.500 -0.0169 -0.6135 -0.0623
 3945TIP3    H133250   6.081   1.347  11.538 -0.9533 -0.5412  0.4057
 3945TIP3    H233251   6.129   1.241  11.440 -0.4783  1.2447 -1.3569
 3946TIP3   OH233252   5.462   4.692  12.700  0.1660  0.1656 -0.2480
 3946TIP3    H133253   5.412   4.641  12.764  1.0279  0.1224  0.4301
 3946TIP3    H233254   5.528   4.630  12.667 -0.9107 -0.1110 -1.9759
 3947TIP3   OH233255   1.716   0.529  13.654 -0.5345  0.4922  0.6604
 3947TIP3    H133256   1.734   0.477  13.576 -1.7318 -0.4967  1.0299
 3947TIP3    H233257   1.707   0.619  13.621  1.0575  0.4289 -0.0402
 3948TIP3   OH233258   6.001   5.392   9.877 -0.9667 -0.0435 -0.1090
 3948TIP3    H133259   6.023   5.340   9.955 -2.9439  1.3378  1.4409
 3948TIP3    H233260   5.970   5.327   9.813 -1.2726 -1.0008  0.9874
 3949TIP3   OH233261   4.201   2.476  10.363 -0.0704  0.0203 -0.6015
 3949TIP3    H133262   4.218   2.563  10.400 -0.9809 -0.4473  1.0438
 3949TIP3    H233263   4.137   2.491  10.293  0.1446  0.7210 -0.6536
 3950TIP3   OH233264   0.924   3.729  14.463 -0.1966 -0.3836  0.0393
 3950TIP3    H133265   0.848   3.753  14.410 -0.5978  0.0263  0.7834
 3950TIP3    H233266   0.945   3.809  14.512  0.4770 -0.6073  0.1280
 3951TIP3   OH233267   6.330   6.653  12.851 -0.7927  0.1934  0.0913
 3951TIP3    H133268   6.268   6.600  12.901 -0.1589 -0.1101  0.5736
 3951TIP3    H233269   6.353   6.599  12.776 -2.4945  1.0363 -1.1131
 3952TIP3   OH233270   5.989   2.694   0.491 -0.4116  0.1001  0.2895
 3952TIP3    H133271   5.967   2.784   0.468 -0.3324 -0.1413 -0.7845
 3952TIP3    H233272   5.978   2.690   0.586  0.1771  1.3975  0.4289
 3953TIP3   OH233273   6.967   1.152   9.567 -0.4759 -0.1965 -0.2217
 3953TIP3    H133274   6.940   1.072   9.612  1.1194 -0.9773 -0.6022
 3953TIP3    H233275   6.885   1.190   9.535 -1.3341 -1.2160  0.7017
 3954TIP3   OH233276   4.998   6.487   2.342 -0.1468 -0.2787  0.2238
 3954TIP3    H133277   4.922   6.436   2.372  0.0846 -0.2958  0.7959
 3954TIP3    H233278   4.960   6.558   2.292 -0.7150  0.9893  2.3255
 3955TIP3   OH233279   0.199   6.744   9.680  0.2190 -0.7367  0.0505
 3955TIP3    H133280   0.208   6.747   9.585 -0.0953 -2.1366 -0.0484
 3955TIP3    H233281   0.229   6.656   9.705  0.2808 -0.4025  1.2455
 3956TIP3   OH233282   5.350   7.121  11.475 -0.1359 -0.2697  0.3048
 3956TIP3    H133283   5.304   7.166  11.545 -0.0717  0.6730 -0.2391
 3956TIP3    H233284   5.292   7.049  11.451 -1.0401  0.5035  0.0828
 3957TIP3   OH233285   5.927   3.777   2.022 -0.1577 -0.2282  0.4681
 3957TIP3    H133286   6.009   3.743   1.986  0.0054 -1.4058  1.8542
 3957TIP3    H233287   5.858   3.734   1.971 -0.0390  2.5946 -2.3875
 3958TIP3   OH233288   1.139   5.072  12.979 -0.5076  0.3960 -0.0964
 3958TIP3    H133289   1.226   5.069  12.938 -0.0094 -1.2468  0.9621
 3958TIP3    H233290   1.153   5.036  13.067 -2.3142 -0.1574  0.0063
 3959TIP3   OH233291   4.486   6.542  15.333 -0.0291 -0.1629 -0.3607
 3959TIP3    H133292   4.449   6.457  15.354  0.9883 -0.2641  1.1653
 3959TIP3    H233293   4.412   6.602  15.336 -0.7384 -0.9554 -1.3640
 3960TIP3   OH233294   5.693   1.689   4.381  0.5645  0.4560 -0.0133
 3960TIP3    H133295   5.774   1.739   4.375  0.7206  0.3083  0.7518
 3960TIP3    H233296   5.718   1.600   4.355  0.7785  0.2828  0.7649
 3961TIP3   OH233297   5.197   1.843   2.084  0.2016 -0.1489 -0.4395
 3961TIP3    H133298   5.124   1.848   2.146  0.2294 -0.1042 -0.4107
 3961TIP3    H233299   5.219   1.750   2.081  1.4416  0.0561  1.0601
 3962TIP3   OH233300   6.697   3.132   2.297  0.6110 -0.4480  0.0552
 3962TIP3    H133301   6.718   3.038   2.294  0.4368 -0.4580 -1.1387
 3962TIP3    H233302   6.685   3.150   2.391 -0.3682 -1.8509  0.2359
 3963TIP3   OH233303   4.484   4.731   9.439 -0.0037  0.1303  0.0407
 3963TIP3    H133304   4.468   4.768   9.526  1.6052 -0.5350  0.6750
 3963TIP3    H233305   4.476   4.805   9.379  0.2962  0.9107  0.9466
 3964TIP3   OH233306   3.678   2.216  12.445 -0.9210 -0.0570 -0.4947
 3964TIP3    H133307   3.739   2.282  12.481 -1.2357 -0.5771  1.0879
 3964TIP3    H233308   3.600   2.224  12.499 -0.4803 -2.6311  0.6997
 3965TIP3   OH233309   5.004   6.673  10.522 -0.1431  0.2139 -0.7109
 3965TIP3    H133310   4.918   6.660  10.482 -0.4485 -1.8650  0.4715
 3965TIP3    H233311   5.063   6.620  10.470  0.6818  2.2917 -2.0443
 3966TIP3   OH233312   3.700   4.124  11.756 -0.1388  0.1309 -0.2456
 3966TIP3    H133313   3.685   4.094  11.666 -0.3053 -0.2500 -0.0974
 3966TIP3    H233314   3.794   4.136  11.762  0.1170 -1.6897  0.0717
 3967TIP3   OH233315   5.845   4.094   3.491  0.2117  0.2608  0.1988
 3967TIP3    H133316   5.845   4.058   3.403  0.3926  0.0502  0.2848
 3967TIP3    H233317   5.753   4.095   3.517 -0.1204  2.3657 -0.8225
 3968TIP3   OH233318   4.070   0.704   3.749  0.7018 -0.3415 -0.4360
 3968TIP3    H133319   4.090   0.611   3.737  0.3970 -0.5628  0.6866
 3968TIP3    H233320   4.059   0.738   3.660 -0.5535 -1.6790 -0.8206
 3969TIP3   OH233321   5.382   5.693   2.653  0.2194 -0.2379  0.0887
 3969TIP3    H133322   5.413   5.682   2.743  2.9009 -1.1467 -0.8425
 3969TIP3    H233323   5.364   5.604   2.623 -1.5928  0.1333 -0.0266
 3970TIP3   OH233324   5.341   2.544   9.589 -0.0228  0.1919  0.4240
 3970TIP3    H133325   5.259   2.582   9.557 -1.1677 -1.7806  0.8374
 3970TIP3    H233326   5.374   2.492   9.515 -0.9504 -1.7024  1.2643
 3971TIP3   OH233327   0.192   6.520  13.756 -0.7502  0.7392  0.0043
 3971TIP3    H133328   0.133   6.454  13.793  0.8835 -0.2356  0.9860
 3971TIP3    H233329   0.167   6.601  13.801 -3.2462  1.0612 -1.7160
 3972TIP3   OH233330   2.707   6.740   0.728  0.3803  0.3470 -0.5585
 3972TIP3    H133331   2.690   6.748   0.634 -0.0907  0.8429 -0.4320
 3972TIP3    H233332   2.647   6.802   0.769  1.2041  0.7827  0.0182
 3973TIP3   OH233333   1.100   6.408  14.795 -0.3938 -0.1650 -0.2940
 3973TIP3    H133334   1.020   6.424  14.845  1.0745  1.9508  1.5260
 3973TIP3    H233335   1.090   6.462  14.716 -1.7024 -1.7356 -1.2800
 3974TIP3   OH233336   3.716   6.506   0.431  0.4207 -0.5406 -0.3929
 3974TIP3    H133337   3.738   6.479   0.342  2.0479 -0.8107  0.0488
 3974TIP3    H233338   3.625   6.534   0.426  0.5458 -0.3133 -2.1929
 3975TIP3   OH233339   3.944   5.729  12.490 -0.5085 -0.4388  0.2852
 3975TIP3    H133340   3.863   5.767  12.525 -0.6971 -1.4313  0.9767
 3975TIP3    H233341   3.998   5.713  12.567  0.1510 -0.2567 -0.1285
 3976TIP3   OH233342   1.016   4.698   3.399 -0.2889 -0.3463  0.8222
 3976TIP3    H133343   0.935   4.681   3.447 -1.1898 -0.7482 -0.7655
 3976TIP3    H233344   1.020   4.628   3.333  1.4962 -0.4859  1.0270
 3977TIP3   OH233345   2.566   5.081   5.566  0.3347 -0.3224 -0.6984
 3977TIP3    H133346   2.493   5.031   5.602  0.5597 -1.1735 -1.3744
 3977TIP3    H233347   2.602   5.129   5.640 -0.9039  0.1114 -0.3555
 3978TIP3   OH233348   4.373   2.513   4.542 -0.3879  0.1294 -0.8403
 3978TIP3    H133349   4.430   2.590   4.543 -0.4514  0.2489  1.6627
 3978TIP3    H233350   4.432   2.439   4.559 -0.6278 -0.0840 -0.9212
 3979TIP3   OH233351   6.810   3.976   9.972  0.2990  0.2525  0.6909
 3979TIP3    H133352   6.814   3.902   9.911 -0.6710 -0.5915  1.6174
 3979TIP3    H233353   6.776   4.048   9.919 -0.2717 -0.3864  0.1560
 3980TIP3   OH233354   0.983   3.764  14.047 -0.7011  0.2196 -0.0472
 3980TIP3    H133355   0.910   3.826  14.045  0.0869  1.1343 -0.8330
 3980TIP3    H233356   1.026   3.781  14.131 -0.9952  0.1139  0.1303
 3981TIP3   OH233357   1.362   1.877  15.473 -0.4705  0.5551  0.0382
 3981TIP3    H133358   1.308   1.917  15.404 -0.0581  2.0644  0.5673
 3981TIP3    H233359   1.448   1.917  15.463 -0.1630  0.1296  0.8861
 3982TIP3   OH233360   6.693   5.872   1.265 -0.3535  0.6174 -0.7872
 3982TIP3    H133361   6.626   5.909   1.208  0.5236  0.2028 -2.1490
 3982TIP3    H233362   6.718   5.944   1.323 -1.7626  0.8478 -0.4256
 3983TIP3   OH233363   1.780   0.552  13.922  0.2862 -0.4438 -0.3493
 3983TIP3    H133364   1.735   0.538  13.839 -0.7648 -0.5623  0.2179
 3983TIP3    H233365   1.760   0.473  13.973 -1.5570  0.8643  1.0771
 3984TIP3   OH233366   3.420   0.434   5.246  0.3371 -0.0317 -0.3257
 3984TIP3    H133367   3.403   0.443   5.340  2.1856  1.4249 -0.0552
 3984TIP3    H233368   3.353   0.373   5.214 -1.3273  0.6870  1.6192
 3985TIP3   OH233369   2.105   1.954   1.091 -0.0933 -0.0963  0.2027
 3985TIP3    H133370   2.178   1.979   1.148 -0.7515  2.3693  0.1078
 3985TIP3    H233371   2.132   1.985   1.004 -0.9835  0.3458  0.0702
 3986TIP3   OH233372   3.496   4.303  10.527 -0.2322 -0.0960 -0.2196
 3986TIP3    H133373   3.427   4.239  10.541 -0.6058  0.5416  0.9580
 3986TIP3    H233374   3.456   4.387  10.548  1.2598  0.1717  1.9591
 3987TIP3   OH233375   5.367   0.516   1.922 -0.3172  0.6199 -0.3932
 3987TIP3    H133376   5.350   0.505   1.828 -1.2851 -2.8085  0.0625
 3987TIP3    H233377   5.449   0.468   1.936  0.0713  1.5144  0.4691
 3988TIP3   OH233378   1.715   5.022   9.604 -0.2477 -0.1656  0.2445
 3988TIP3    H133379   1.776   5.063   9.665  0.9421 -1.6231  0.1150
 3988TIP3    H233380   1.636   5.076   9.608  0.1946  0.4240  2.2143
 3989TIP3   OH233381   6.643   3.015   9.972  0.2063  0.2204  0.0401
 3989TIP3    H133382   6.626   2.993   9.881  0.6429  1.4651 -0.3565
 3989TIP3    H233383   6.716   2.958   9.997  1.4953  1.3398 -1.0482
 3990TIP3   OH233384   6.294   6.112  11.135  0.5859 -0.1608 -0.6814
 3990TIP3    H133385   6.300   6.017  11.123 -2.0665 -0.5014 -0.0117
 3990TIP3    H233386   6.301   6.124  11.230 -0.0641  0.2056 -0.6760
 3991TIP3   OH233387   5.872   3.050  14.548 -1.4153  0.3151  0.5777
 3991TIP3    H133388   5.891   3.095  14.465  1.4055  0.1389  1.0459
 3991TIP3    H233389   5.904   3.109  14.616 -0.7385 -0.9079  1.3620
 3992TIP3   OH233390   2.972   2.863   4.658  0.2064 -0.0499  0.0720
 3992TIP3    H133391   2.944   2.785   4.610  0.5149  0.0313 -0.2435
 3992TIP3    H233392   3.022   2.829   4.732  0.3277 -0.1499 -0.0566
 3993TIP3   OH233393   2.430   0.337   0.991 -0.2318 -0.1304 -0.1608
 3993TIP3    H133394   2.522   0.313   0.980  0.3096  1.6113  0.1965
 3993TIP3    H233395   2.408   0.311   1.081 -0.1654 -0.7555 -0.3229
 3994TIP3   OH233396   6.445   3.467   4.180 -0.5457  0.2535  0.3401
 3994TIP3    H133397   6.391   3.424   4.247 -0.2036 -0.7646 -0.0195
 3994TIP3    H233398   6.389   3.470   4.103 -0.2845 -0.3362  0.1184
 3995TIP3   OH233399   2.745   1.368   5.206  0.4141 -0.0003 -0.0191
 3995TIP3    H133400   2.797   1.426   5.150 -0.2220 -0.1216 -0.7452
 3995TIP3    H233401   2.680   1.329   5.148 -0.2971 -0.0990  0.8118
 3996TIP3   OH233402   3.881   2.118  11.530  0.1491 -0.1503 -0.5919
 3996TIP3    H133403   3.928   2.122  11.447 -0.0992 -0.7684 -0.7649
 3996TIP3    H233404   3.803   2.172  11.516  0.5697  0.5138 -0.4475
 3997TIP3   OH233405   5.003   5.877   4.420 -0.3730 -0.3039  0.0770
 3997TIP3    H133406   5.020   5.875   4.514  0.1156 -2.2754 -0.0085
 3997TIP3    H233407   5.084   5.847   4.380 -0.4851  0.7651 -1.0076
 3998TIP3   OH233408   1.225   5.832  10.654  0.4065  0.3883 -0.2721
 3998TIP3    H133409   1.307   5.782  10.646 -0.1605 -0.6853  0.4364
 3998TIP3    H233410   1.158   5.774  10.620 -0.2060  0.8848  0.0693
 3999TIP3   OH233411   3.630   0.461  11.376  0.4969 -0.5144  0.2240
 3999TIP3    H133412   3.690   0.414  11.318  1.9237  0.3521  0.9470
 3999TIP3    H233413   3.634   0.552  11.347 -0.4114 -0.4197  0.3490
 4000TIP3   OH233414   5.824   6.011  12.573  0.4968  0.2495  0.1845
 4000TIP3    H133415   5.870   5.931  12.547 -1.0776 -0.4231 -0.7213
 4000TIP3    H233416   5.804   6.055  12.491 -3.0515 -1.0372  0.1541
 4001TIP3   OH233417   2.208   5.783   4.142 -0.9289  0.1673  0.5127
 4001TIP3    H133418   2.251   5.698   4.147 -1.2260 -0.0145  0.0125
 4001TIP3    H233419   2.168   5.795   4.229  0.4488  0.5182  1.1152
 4002TIP3   OH233420   3.141   4.943   0.984 -0.0658  0.4608 -0.2332
 4002TIP3    H133421   3.139   4.869   0.922  0.2517  1.1023 -1.0345
 4002TIP3    H233422   3.227   4.937   1.025 -0.6359 -0.5251  0.8677
 4003TIP3   OH233423   3.610   4.259   0.787 -0.5125 -0.0997  0.0109
 4003TIP3    H133424   3.698   4.222   0.788 -0.7364 -0.6490  0.4085
 4003TIP3    H233425   3.598   4.296   0.874  0.5796  3.1476 -1.0658
 4004TIP3   OH233426   5.179   4.980   0.754  0.6102 -0.0994  0.8775
 4004TIP3    H133427   5.252   4.972   0.692 -0.7823  0.3683 -0.9119
 4004TIP3    H233428   5.146   5.069   0.741 -2.9814 -1.5524 -1.6493
 4005TIP3   OH233429   5.485   3.989  11.394  0.2139  0.0444 -0.6215
 4005TIP3    H133430   5.517   3.898  11.392 -1.2251 -0.6142  1.8013
 4005TIP3    H233431   5.564   4.042  11.402  0.9777 -1.1845  0.3953
 4006TIP3   OH233432   2.578   1.071   9.576 -0.0900  0.1634  0.1247
 4006TIP3    H133433   2.487   1.060   9.547 -0.1701 -0.3084  0.5379
 4006TIP3    H233434   2.578   1.038   9.666  0.4805  0.2112  0.1420
 4007TIP3   OH233435   0.432   5.739   9.705  0.3751  0.1417  0.0496
 4007TIP3    H133436   0.410   5.826   9.738 -1.7673 -0.5845  0.6514
 4007TIP3    H233437   0.441   5.751   9.610 -2.5862  0.5897 -0.2607
 4008TIP3   OH233438   3.362   2.895  15.552  0.1525 -0.1610  0.2126
 4008TIP3    H133439   3.330   2.872  15.465  1.8124 -1.0944 -0.1889
 4008TIP3    H233440   3.335   2.986  15.564 -1.7374 -0.5759 -0.4664
 4009TIP3   OH233441   0.726   3.809   4.158 -0.3207  0.0376 -0.2042
 4009TIP3    H133442   0.777   3.858   4.094  2.5511 -0.7649  1.2657
 4009TIP3    H233443   0.684   3.875   4.212  0.0888  0.7878 -0.7898
 4010TIP3   OH233444   1.032   4.824  15.386 -0.1218 -0.7021  0.1368
 4010TIP3    H133445   1.017   4.917  15.399 -0.4541 -0.6858 -0.3483
 4010TIP3    H233446   1.076   4.795  15.467  0.5034 -0.0152  0.0538
 4011TIP3   OH233447   1.297   6.035   4.732  0.4449  0.6348 -0.6338
 4011TIP3    H133448   1.239   6.110   4.718  0.2168  0.4771 -0.5461
 4011TIP3    H233449   1.293   6.018   4.826  2.4552  2.0764 -0.2436
 4012TIP3   OH233450   4.336   1.666  11.129 -0.3583 -0.3658  0.2146
 4012TIP3    H133451   4.362   1.575  11.113 -1.3585 -0.7066  0.4715
 4012TIP3    H233452   4.284   1.690  11.053  0.1436  0.1028  0.0088
 4013TIP3   OH233453   3.711   6.649   0.720 -0.5092 -0.8572  0.5787
 4013TIP3    H133454   3.626   6.673   0.683 -0.6575 -3.1465 -0.7901
 4013TIP3    H233455   3.774   6.670   0.651 -0.3451 -1.7658  0.4317
 4014TIP3   OH233456   1.617   2.854  14.361 -0.1166 -0.9299  0.1273
 4014TIP3    H133457   1.676   2.790  14.320 -0.5298  0.8417 -3.6825
 4014TIP3    H233458   1.675   2.909  14.414  1.7104  0.2513 -2.8359
 4015TIP3   OH233459   4.582   4.923  13.075  0.3162  0.4200 -0.0695
 4015TIP3    H133460   4.557   4.938  13.166  1.1018 -1.0088  0.4140
 4015TIP3    H233461   4.562   4.830  13.059  1.5382  0.2729 -0.8924
 4016TIP3   OH233462   5.152   1.394  10.787  0.3577 -0.6453 -0.1474
 4016TIP3    H133463   5.219   1.455  10.756  1.3895 -0.7279  1.7629
 4016TIP3    H233464   5.202   1.324  10.831 -0.9493 -0.6739  1.3949
 4017TIP3   OH233465   5.301   3.582   4.356 -0.0389  0.6200 -0.1589
 4017TIP3    H133466   5.347   3.542   4.429 -0.0226  2.8069  1.1344
 4017TIP3    H233467   5.314   3.522   4.283 -0.0331 -1.6548  1.5867
 4018TIP3   OH233468   0.197   4.099  10.535 -0.6240  0.2408 -0.4543
 4018TIP3    H133469   0.150   4.110  10.618 -0.2932 -0.7488 -0.1170
 4018TIP3    H233470   0.267   4.037  10.556 -1.2081 -0.8966 -1.7314
 4019TIP3   OH233471   6.938   7.074  12.673 -0.2156  0.3289 -0.2590
 4019TIP3    H133472   7.006   7.140  12.686 -2.0669  1.9354  1.9591
 4019TIP3    H233473   6.876   7.114  12.612 -2.1752  1.4599  2.3131
 4020TIP3   OH233474   4.177   2.069  10.065  0.4144  0.5041 -0.0955
 4020TIP3    H133475   4.262   2.063  10.021 -0.0537 -0.1218 -0.9166
 4020TIP3    H233476   4.142   2.154  10.037  0.3635  0.3533 -0.4935
 4021TIP3   OH233477   3.995   2.670  10.543 -0.0299  0.1933  0.3968
 4021TIP3    H133478   3.996   2.578  10.571 -0.7344 -0.0104 -0.1909
 4021TIP3    H233479   4.088   2.693  10.534  0.1673 -0.9026 -0.7769
 4022TIP3   OH233480   4.770   2.478  12.167 -0.1528  0.1641 -0.2469
 4022TIP3    H133481   4.814   2.551  12.209  2.0171 -0.0809 -1.9048
 4022TIP3    H233482   4.727   2.517  12.091 -0.8873  0.0298  0.0897
 4023TIP3   OH233483   5.752   0.407  12.685  0.0000  0.1059  0.1945
 4023TIP3    H133484   5.811   0.424  12.758  1.9349 -0.7609 -1.1052
 4023TIP3    H233485   5.784   0.462  12.614 -0.5016 -0.6676 -0.6522
 4024TIP3   OH233486   1.913   1.717  14.054 -0.3421  0.4979 -0.6463
 4024TIP3    H133487   1.956   1.693  13.971  0.1872 -0.5408 -0.1061
 4024TIP3    H233488   1.985   1.721  14.117 -0.8314  0.5323 -0.0830
 4025TIP3   OH233489   2.600   2.051  14.361  0.1218  0.8122  0.3454
 4025TIP3    H133490   2.615   2.049  14.455 -0.5444  0.9510  0.4590
 4025TIP3    H233491   2.615   2.142  14.336 -0.4009  0.9219  0.4352
 4026TIP3   OH233492   3.161   4.597  15.002 -0.1173 -0.8054 -0.4167
 4026TIP3    H133493   3.159   4.597  15.097 -0.0395 -0.5548 -0.4132
 4026TIP3    H233494   3.128   4.511  14.977 -0.1197 -0.8789 -0.1636
 4027TIP3   OH233495   1.123   1.541  12.991  0.6801  0.1764  0.2298
 4027TIP3    H133496   1.042   1.579  13.025  0.3248 -0.2167 -0.1519
 4027TIP3    H233497   1.192   1.573  13.049  0.3798  1.2760  0.0051
 4028TIP3   OH233498   5.539   6.895  13.454  0.6572  0.0591 -0.5057
 4028TIP3    H133499   5.620   6.944  13.434  0.1918  0.5753 -1.1900
 4028TIP3    H233500   5.500   6.942  13.527  0.0889  0.8908 -1.3157
 4029TIP3   OH233501   0.942   0.407  14.769 -0.2097  0.1612 -0.1343
 4029TIP3    H133502   1.000   0.481  14.751 -0.8727  1.1759  1.6163
 4029TIP3    H233503   0.857   0.434  14.732 -0.1617 -0.3041 -0.6089
 4030TIP3   OH233504   0.974   0.348  12.549 -0.2194 -0.1319  0.1423
 4030TIP3    H133505   0.981   0.253  12.551  1.5167 -0.0482 -0.0442
 4030TIP3    H233506   0.887   0.367  12.583 -0.0698 -1.7369  1.5543
 4031TIP3   OH233507   6.625   2.464  13.206 -0.6823  0.8368 -0.5728
 4031TIP3    H133508   6.691   2.480  13.274  0.6600 -2.2218 -1.0075
 4031TIP3    H233509   6.668   2.490  13.124 -0.0323 -0.9104 -0.8260
 4032TIP3   OH233510   6.285   3.208  11.467 -0.0596 -0.0502 -0.0645
 4032TIP3    H133511   6.380   3.197  11.462  0.2088  1.8000  0.3298
 4032TIP3    H233512   6.262   3.172  11.553  0.3474 -0.1497  0.0073
 4033TIP3   OH233513   2.914   6.775  10.414 -0.7342 -0.3027 -0.0050
 4033TIP3    H133514   2.973   6.808  10.482 -1.6433  0.4959  0.4181
 4033TIP3    H233515   2.954   6.693  10.386 -1.8227 -2.3579  3.6671
 4034TIP3   OH233516   6.283   3.639  10.431 -0.4334 -0.1956 -0.4755
 4034TIP3    H133517   6.303   3.546  10.418 -1.0093 -0.0820 -2.3874
 4034TIP3    H233518   6.365   3.676  10.464  0.3471 -1.0813 -1.3382
 4035TIP3   OH233519   4.633   6.310  10.330 -0.1251  0.2427 -0.1366
 4035TIP3    H133520   4.593   6.372  10.391 -0.2225 -1.5778  1.7928
 4035TIP3    H233521   4.582   6.229  10.342  0.2582 -0.3626 -2.2209
 4036TIP3   OH233522   6.154   5.994  14.128 -0.0007 -0.0090 -0.2891
 4036TIP3    H133523   6.091   6.003  14.200 -0.3162  0.3017 -0.6055
 4036TIP3    H233524   6.196   5.909  14.145 -0.9617 -0.5383 -0.4298
 4037TIP3   OH233525   6.408   4.275   0.690  0.0723  0.2356  0.4844
 4037TIP3    H133526   6.343   4.276   0.761 -0.4150 -0.8484  0.0682
 4037TIP3    H233527   6.417   4.183   0.668 -0.3371  0.6058 -1.3806
 4038TIP3   OH233528   6.500   2.935  11.196  0.7199  0.0632  0.3478
 4038TIP3    H133529   6.415   2.972  11.173  0.4912 -0.4465  0.3677
 4038TIP3    H233530   6.496   2.921  11.290  0.9844  0.4317  0.4175
 4039TIP3   OH233531   1.505   1.883  10.434  0.1353 -0.4174 -0.1962
 4039TIP3    H133532   1.458   1.824  10.375 -1.3113  0.3479  0.1441
 4039TIP3    H233533   1.597   1.877  10.407 -0.3723 -0.7336 -1.9390
 4040TIP3   OH233534   3.609   5.617  10.043  0.2079  0.0382  0.8628
 4040TIP3    H133535   3.669   5.682  10.080  0.6476 -0.0422  0.2950
 4040TIP3    H233536   3.634   5.610   9.951 -0.4380 -0.2641  0.7032
 4041TIP3   OH233537   3.071   1.410  13.243  0.1590  0.2519 -0.1905
 4041TIP3    H133538   3.050   1.380  13.331 -1.7551  1.5787 -0.1187
 4041TIP3    H233539   3.076   1.506  13.251  2.3603  0.2622 -1.0862
 4042TIP3   OH233540   0.758   5.019  11.406 -0.4784 -0.7750 -0.1304
 4042TIP3    H133541   0.768   4.988  11.496 -0.8124  0.2566  0.2660
 4042TIP3    H233542   0.709   5.100  11.413 -0.5932 -0.7283 -1.2584
 4043TIP3   OH233543   6.232   7.074  15.045  0.0424  0.2397  0.3114
 4043TIP3    H133544   6.205   7.070  14.953  0.4968  0.8368  0.1411
 4043TIP3    H233545   6.294   7.147  15.048  0.7007 -0.3345  0.9243
 4044TIP3   OH233546   0.794   3.995   9.550 -0.2630  0.1419  0.3699
 4044TIP3    H133547   0.837   4.081   9.558 -1.6698  0.9419 -0.2228
 4044TIP3    H233548   0.854   3.943   9.497  0.6430  0.7398  0.7877
 4045TIP3   OH233549   2.104   7.051  10.101  0.2032 -0.2515 -0.2453
 4045TIP3    H133550   2.122   7.028  10.193 -1.9646 -1.1852 -0.0049
 4045TIP3    H233551   2.145   7.136  10.089  0.1640  0.0854  1.7312
 4046TIP3   OH233552   6.717   0.744  15.513  0.4591  0.7536  0.1558
 4046TIP3    H133553   6.721   0.719  15.421  0.1936  1.2738 -0.0009
 4046TIP3    H233554   6.784   0.690  15.556 -2.5738 -3.1563  0.5503
 4047TIP3   OH233555   1.057   3.552  11.150 -0.2216  0.2774 -0.1250
 4047TIP3    H133556   1.151   3.551  11.130 -0.1044  0.4160  0.4063
 4047TIP3    H233557   1.029   3.462  11.135  0.1888  0.0246  0.6006
 4048TIP3   OH233558   1.685   7.039  14.105  0.3315  0.7800  0.2065
 4048TIP3    H133559   1.735   7.119  14.091  1.9667 -0.2574 -0.1002
 4048TIP3    H233560   1.651   7.016  14.019  1.5537  0.0939 -0.1210
 4049TIP3   OH233561   6.308   3.262  14.265 -0.1704  0.1724 -0.2960
 4049TIP3    H133562   6.241   3.328  14.247 -0.3820 -0.1438 -0.6776
 4049TIP3    H233563   6.371   3.270  14.194  1.5735  2.1638  1.3321
 4050TIP3   OH233564   2.648   6.492  10.900 -0.4567 -0.1748  0.0390
 4050TIP3    H133565   2.727   6.525  10.858  0.4391 -0.3309  1.5395
 4050TIP3    H233566   2.658   6.397  10.898  0.5464 -0.1765  2.2422
 4051TIP3   OH233567   2.665   6.706  14.368 -0.6337 -0.0446 -0.6237
 4051TIP3    H133568   2.598   6.697  14.435  0.5269 -0.3480  0.5462
 4051TIP3    H233569   2.622   6.752  14.296 -2.2904 -0.9383 -0.2413
 4052TIP3   OH233570   4.507   6.892  10.124 -0.3396  0.3382 -0.1277
 4052TIP3    H133571   4.418   6.894  10.090 -1.2823  0.8122  2.1990
 4052TIP3    H233572   4.543   6.978  10.103 -0.5012  0.2229 -0.8855
 4053TIP3   OH233573   4.741   3.044  12.169 -0.2911 -0.3501 -0.3398
 4053TIP3    H133574   4.796   3.079  12.238  0.1792 -0.9325 -0.4094
 4053TIP3    H233575   4.789   3.061  12.088  0.7418 -2.5128 -0.2621
 4054TIP3   OH233576   7.048   1.812  12.607  0.0622 -0.1830 -0.3779
 4054TIP3    H133577   7.139   1.843  12.605  0.5129 -1.4968 -1.3910
 4054TIP3    H233578   7.055   1.717  12.615 -1.2737 -0.1843  1.3060
 4055TIP3   OH233579   5.501   5.489  10.070  0.2555  0.0903  0.3482
 4055TIP3    H133580   5.477   5.567  10.120  2.3033  0.5352  0.7383
 4055TIP3    H233581   5.545   5.432  10.134 -2.0507 -1.9044  0.3238
 4056TIP3   OH233582   6.493   5.434   1.259  0.5086 -0.3111 -0.4225
 4056TIP3    H133583   6.401   5.415   1.240  0.4937  0.1123 -0.7928
 4056TIP3    H233584   6.541   5.363   1.217  0.4388  0.3045 -1.6007
 4057TIP3   OH233585   2.663   3.600   3.673  0.3370  0.3054 -0.3506
 4057TIP3    H133586   2.586   3.646   3.707  1.6116 -0.0051  3.4952
 4057TIP3    H233587   2.712   3.668   3.627 -0.8943  1.1803 -0.4390
 4058TIP3   OH233588   2.210   6.452   5.815 -0.0187  0.0952 -0.2194
 4058TIP3    H133589   2.255   6.531   5.783 -0.8748 -0.2647 -2.5481
 4058TIP3    H233590   2.280   6.398   5.851  0.7897  1.3103  0.1084
 4059TIP3   OH233591   6.266   5.117  11.126 -0.3568 -0.0885  0.2660
 4059TIP3    H133592   6.284   5.028  11.095 -0.0421  0.1791 -0.3442
 4059TIP3    H233593   6.199   5.106  11.193 -0.7255 -0.7380 -0.1960
 4060TIP3   OH233594   6.012   1.771  14.512  0.0813  0.1019  0.1127
 4060TIP3    H133595   6.035   1.815  14.594  2.0638 -0.4482 -0.0836
 4060TIP3    H233596   5.917   1.770  14.511 -0.0111  1.7060  1.5447
 4061TIP3   OH233597   4.769   0.444  12.419 -0.0594 -0.2960  0.4459
 4061TIP3    H133598   4.713   0.409  12.489 -0.0694  0.1023  0.6356
 4061TIP3    H233599   4.858   0.428  12.450 -0.0396  1.0831  1.1765
 4062TIP3   OH233600   0.939   3.788   1.316  0.1419 -0.3602 -0.1940
 4062TIP3    H133601   0.912   3.702   1.348 -0.1733 -0.9540 -1.9367
 4062TIP3    H233602   0.999   3.821   1.383 -0.9593 -1.2248  1.2892
 4063TIP3   OH233603   6.597   4.415  12.078 -0.1229  0.3444  0.5019
 4063TIP3    H133604   6.547   4.335  12.093 -1.3933  1.0406  0.1787
 4063TIP3    H233605   6.533   4.476  12.040  0.5904  1.8043  1.5618
 4064TIP3   OH233606   6.678   0.400   2.186  0.3683  0.3228  0.4400
 4064TIP3    H133607   6.708   0.411   2.276  1.3538  0.0343  0.1562
 4064TIP3    H233608   6.743   0.343   2.145 -1.1260 -1.1974  0.0736
 4065TIP3   OH233609   3.820   0.654  15.507  0.1856  0.4336  0.6029
 4065TIP3    H133610   3.890   0.659  15.572  0.4062 -0.0487  0.4015
 4065TIP3    H233611   3.855   0.599  15.438 -0.5753 -0.2314  0.7270
 4066TIP3   OH233612   6.408   3.549  12.196 -0.2576 -0.3123  0.0030
 4066TIP3    H133613   6.421   3.636  12.160 -0.7175 -0.1222  0.2892
 4066TIP3    H233614   6.462   3.492  12.141  0.1720  0.1714 -0.0812
 4067TIP3   OH233615   3.449   2.890   0.679  0.6882  0.0884 -0.0758
 4067TIP3    H133616   3.426   2.941   0.757 -1.2401 -1.9822  0.8304
 4067TIP3    H233617   3.372   2.895   0.623  1.5559  0.4638 -1.2613
 4068TIP3   OH233618   3.475   3.138  10.670 -0.3173 -0.0850 -0.4890
 4068TIP3    H133619   3.531   3.064  10.648 -1.9101 -1.3407 -0.5308
 4068TIP3    H233620   3.427   3.157  10.589  0.9312  1.8394 -0.8455
 4069TIP3   OH233621   4.737   6.755  10.093  0.1668  0.1631  0.2562
 4069TIP3    H133622   4.723   6.681  10.033 -0.4858  0.2649  0.2756
 4069TIP3    H233623   4.650   6.795  10.101  0.5311  0.9715  0.1908
 4070TIP3   OH233624   5.808   4.313  10.060 -0.3689 -0.4849  0.3508
 4070TIP3    H133625   5.840   4.400  10.037  2.5748 -1.4971  0.0981
 4070TIP3    H233626   5.723   4.306  10.018 -0.9008  2.3893  0.7574
 4071TIP3   OH233627   1.469   1.381   1.536  0.1089  0.4788  0.2422
 4071TIP3    H133628   1.490   1.308   1.477  1.0714  0.0160  1.1300
 4071TIP3    H233629   1.375   1.370   1.554 -0.1221  0.4206 -0.8941
 4072TIP3   OH233630   4.172   1.059  15.259 -0.0968  0.3258  0.7045
 4072TIP3    H133631   4.174   1.045  15.354 -1.3640  1.3180  0.9062
 4072TIP3    H233632   4.179   0.971  15.222  0.3090 -0.0865  1.7132
 4073TIP3   OH233633   0.817   2.026   4.891 -0.2227 -0.1313 -0.2861
 4073TIP3    H133634   0.895   2.079   4.903  0.4565 -0.7369 -1.7794
 4073TIP3    H233635   0.763   2.046   4.967  1.6329 -0.1675  1.1069
 4074TIP3   OH233636   4.284   4.410   5.704  0.2513  0.5204  0.1850
 4074TIP3    H133637   4.367   4.363   5.705  0.6202  1.1331 -0.4616
 4074TIP3    H233638   4.242   4.387   5.786  0.8142 -0.2396  0.2661
 4075TIP3   OH233639   0.493   4.143  14.069  0.0495  0.5271  1.0669
 4075TIP3    H133640   0.509   4.160  13.977 -0.3442  0.5606  1.0041
 4075TIP3    H233641   0.552   4.204  14.115  0.5860  0.1890  0.8445
 4076TIP3   OH233642   5.107   4.805  10.533 -0.4676  0.1639  0.0715
 4076TIP3    H133643   5.185   4.815  10.587 -0.2674 -0.0853 -0.1719
 4076TIP3    H233644   5.037   4.845  10.585  0.0011  1.3296 -0.1734
 4077TIP3   OH233645   2.840   0.737  10.831 -0.7457  0.2046  0.4147
 4077TIP3    H133646   2.928   0.774  10.823 -0.9643  0.7761  0.5712
 4077TIP3    H233647   2.849   0.646  10.803 -0.1767  0.3537  0.1057
 4078TIP3   OH233648   3.467   1.799  11.932 -0.4357  0.0820  0.4327
 4078TIP3    H133649   3.399   1.756  11.880  0.3065 -2.4222  1.3818
 4078TIP3    H233650   3.419   1.839  12.005 -1.2270  1.6901 -0.8888
 4079TIP3   OH233651   4.284   3.115  13.879 -0.0757 -0.0074  0.1773
 4079TIP3    H133652   4.250   3.026  13.877 -1.2296  0.4198 -0.4212
 4079TIP3    H233653   4.275   3.146  13.789 -2.0679  1.5408  0.8402
 4080TIP3   OH233654   6.516   0.615  14.467 -0.1243  0.2291  0.0765
 4080TIP3    H133655   6.538   0.526  14.441 -1.8470 -0.2853  0.3033
 4080TIP3    H233656   6.437   0.636  14.416 -0.6827  1.0197  1.2342
 4081TIP3   OH233657   2.362   2.257   2.070  0.4756 -0.4793 -0.2842
 4081TIP3    H133658   2.435   2.317   2.057 -0.0451  0.4857  0.9939
 4081TIP3    H233659   2.284   2.311   2.057 -0.0028 -0.9919  0.3878
 4082TIP3   OH233660   5.745   1.625  15.306  0.6016 -0.4722  0.3731
 4082TIP3    H133661   5.762   1.534  15.280  0.9668  0.1594 -1.7758
 4082TIP3    H233662   5.708   1.666  15.228  1.1537  1.4315  1.0514
 4083TIP3   OH233663   0.594   0.514  14.471  0.2132 -0.5069 -0.1126
 4083TIP3    H133664   0.676   0.560  14.492  0.3512  0.0590 -1.7263
 4083TIP3    H233665   0.527   0.582  14.473  0.2064 -0.4646 -1.2548
 4084TIP3   OH233666   4.921   1.775   4.038 -0.5293 -0.2951 -0.9390
 4084TIP3    H133667   4.857   1.726   4.090  0.2912 -0.8668 -0.4440
 4084TIP3    H233668   4.899   1.753   3.947 -1.7966  0.4901 -0.8381
 4085TIP3   OH233669   0.944   2.195   1.602  0.1775  0.3840 -0.1767
 4085TIP3    H133670   0.927   2.275   1.552 -2.4802  0.2791  0.3888
 4085TIP3    H233671   0.933   2.124   1.539  1.0961  0.3945 -0.3584
 4086TIP3   OH233672   6.563   7.066  10.378  0.3583  0.2817  0.5664
 4086TIP3    H133673   6.512   7.055  10.298  0.5498 -0.2615  0.5174
 4086TIP3    H233674   6.569   6.978  10.416  0.9066  0.4052  0.7861
 4087TIP3   OH233675   4.037   2.795  14.063 -0.4981  0.2165  0.4504
 4087TIP3    H133676   4.043   2.794  14.158 -1.6835  0.3973  0.5476
 4087TIP3    H233677   4.089   2.720  14.035 -0.6771 -0.2299  1.2790
 4088TIP3   OH233678   1.134   6.917  12.542 -0.5732  0.6510  0.2501
 4088TIP3    H133679   1.125   6.958  12.628 -0.8492 -0.3335  0.6995
 4088TIP3    H233680   1.045   6.913  12.508 -0.2748  3.0802 -1.0942
 4089TIP3   OH233681   6.451   6.842  14.594  0.2514  0.3305  0.3731
 4089TIP3    H133682   6.464   6.875  14.505  0.5768  2.2250  1.0771
 4089TIP3    H233683   6.537   6.853  14.635 -0.5871  2.3116  1.7592
 4090TIP3   OH233684   1.873   2.314  12.460 -0.4409  0.0266  0.6718
 4090TIP3    H133685   1.934   2.326  12.532  0.5306 -1.3984  0.1508
 4090TIP3    H233686   1.843   2.223  12.469 -0.1583 -0.2428 -0.7739
 4091TIP3   OH233687   2.006   5.441  12.544  0.3287 -0.6956  0.0333
 4091TIP3    H133688   1.976   5.386  12.472 -0.5923  0.6968 -0.6983
 4091TIP3    H233689   2.038   5.521  12.502  0.1229 -0.0072  1.1383
 4092TIP3   OH233690   0.641   1.914  12.571  0.3601 -0.5224  0.5373
 4092TIP3    H133691   0.677   1.865  12.644  1.7179 -1.8553 -0.9356
 4092TIP3    H233692   0.712   1.974  12.545  0.1008 -0.4430 -0.0089
 4093TIP3   OH233693   1.638   1.103  11.644  0.1456  0.0782  0.2265
 4093TIP3    H133694   1.670   1.012  11.646 -1.2484 -0.5298 -1.7899
 4093TIP3    H233695   1.713   1.154  11.613  0.4216 -0.6721 -0.3757
 4094TIP3   OH233696   5.638   4.901  12.498  0.3281 -0.3578 -0.0005
 4094TIP3    H133697   5.659   4.813  12.466  1.5077 -0.3220  0.5999
 4094TIP3    H233698   5.703   4.917  12.566  0.3497  1.1170 -0.3412
 4095TIP3   OH233699   1.217   4.650  11.763  0.0960  0.3827  0.4041
 4095TIP3    H133700   1.236   4.703  11.841  1.1805 -0.9291  1.0722
 4095TIP3    H233701   1.228   4.560  11.793 -2.9973 -0.3462 -0.3361
 4096TIP3   OH233702   3.296   0.220   9.412 -0.1298  0.3224 -0.1711
 4096TIP3    H133703   3.222   0.257   9.365 -0.7282 -0.0067  0.4929
 4096TIP3    H233704   3.288   0.126   9.399  0.4635  0.3181 -0.5179
 4097TIP3   OH233705   6.554   2.681  14.817  0.8123 -0.0231  0.2886
 4097TIP3    H133706   6.497   2.605  14.836  1.8091 -1.1525 -1.0330
 4097TIP3    H233707   6.590   2.663  14.730  1.8302  1.5260  0.3501
 4098TIP3   OH233708   0.112   0.516  13.355  0.5339 -0.3617  0.5378
 4098TIP3    H133709   0.171   0.541  13.426  1.5145 -0.8112 -0.0994
 4098TIP3    H233710   0.096   0.423  13.368 -0.0304 -0.2445  0.6988
 4099TIP3   OH233711   3.746   1.407  13.880  0.3434 -0.3558  0.0256
 4099TIP3    H133712   3.728   1.333  13.938  0.9809 -0.4720  0.0855
 4099TIP3    H233713   3.803   1.464  13.931  0.0807  0.0385 -0.1230
 4100TIP3   OH233714   0.614   6.296  10.306 -0.2667 -0.5688  0.2456
 4100TIP3    H133715   0.560   6.374  10.305  0.2516 -0.2103 -0.9557
 4100TIP3    H233716   0.567   6.232  10.253 -1.1010 -1.4020  1.8908
 4101TIP3   OH233717   3.984   0.226  11.981 -0.8506  0.5899  0.8188
 4101TIP3    H133718   4.030   0.309  11.989 -1.4894  1.2927 -1.7975
 4101TIP3    H233719   4.045   0.161  12.018  1.2510  1.7690 -0.3832
 4102TIP3   OH233720   1.111   2.654   0.223  0.4634  0.2770  0.4919
 4102TIP3    H133721   1.038   2.623   0.277  0.4457 -2.0461 -0.7229
 4102TIP3    H233722   1.070   2.695   0.147  0.4115  0.0085  0.3716
 4103TIP3   OH233723   4.564   1.798  12.971  0.4440 -0.2485  0.4536
 4103TIP3    H133724   4.629   1.854  12.930 -0.1836  0.6852  0.6961
 4103TIP3    H233725   4.598   1.782  13.059  0.7914 -0.5418  0.2687
 4104TIP3   OH233726   2.645   5.539  12.112 -0.4716 -0.4344 -0.1016
 4104TIP3    H133727   2.600   5.622  12.095  0.1991 -0.1182 -0.3850
 4104TIP3    H233728   2.738   5.561  12.103 -0.2536 -1.0470  0.5717
 4105TIP3   OH233729   1.727   3.746  11.334  0.0464 -0.4490 -0.2134
 4105TIP3    H133730   1.716   3.780  11.422  0.5194  0.2531 -0.4126
 4105TIP3    H233731   1.821   3.729  11.326 -0.0505 -0.8979 -0.4453
 4106TIP3   OH233732   3.638   3.619  10.527  0.1379  1.0626 -0.1650
 4106TIP3    H133733   3.553   3.575  10.517  0.0696  0.9810  0.6625
 4106TIP3    H233734   3.689   3.590  10.452 -0.5041  0.9512 -0.5645
 4107TIP3   OH233735   6.535   0.137  15.357 -0.0539 -0.0386 -0.0198
 4107TIP3    H133736   6.583   0.086  15.292 -1.7163 -1.5696 -0.1083
 4107TIP3    H233737   6.465   0.179  15.308  0.5146  1.3376  0.2869
 4108TIP3   OH233738   4.656   4.952  10.254  0.7057 -0.0612 -0.2993
 4108TIP3    H133739   4.727   5.013  10.234 -0.7316  2.3758  1.5327
 4108TIP3    H233740   4.586   4.976  10.194  0.9813 -1.7889 -1.4013
 4109TIP3   OH233741   2.012   3.688  12.707  0.5640  0.1985  0.0190
 4109TIP3    H133742   1.921   3.660  12.707  0.9807 -1.3400 -1.5380
 4109TIP3    H233743   2.009   3.781  12.729 -1.1962 -0.2334  1.7683
 4110TIP3   OH233744   0.916   2.404   9.715  0.6701  0.1335  0.4817
 4110TIP3    H133745   0.956   2.489   9.695  1.2642 -0.0954  0.6703
 4110TIP3    H233746   0.869   2.380   9.636  2.1955 -0.3208 -0.3328
 4111TIP3   OH233747   1.490   5.422  14.724 -0.6875  0.2231 -0.1450
 4111TIP3    H133748   1.568   5.477  14.715 -1.1607  0.6266 -2.1667
 4111TIP3    H233749   1.471   5.423  14.818  1.4667  0.4638  0.3467
 4112TIP3   OH233750   1.491   1.336  14.246  0.4361  0.3822  0.3469
 4112TIP3    H133751   1.470   1.243  14.234  0.1779  0.3582  0.9633
 4112TIP3    H233752   1.553   1.356  14.176  1.2534 -0.5057  0.7972
 4113TIP3   OH233753   5.049   4.608  10.276 -0.2432  0.1332 -0.3376
 4113TIP3    H133754   5.125   4.664  10.294  0.3747 -1.0213  0.7695
 4113TIP3    H233755   5.053   4.592  10.182  0.1778  1.0730 -0.4910
 4114TIP3   OH233756   1.693   5.207   0.361  0.4078  0.4405  0.5352
 4114TIP3    H133757   1.670   5.117   0.385  0.2563  0.2422 -0.3224
 4114TIP3    H233758   1.659   5.260   0.433  1.5801 -0.2825  1.6850
 4115TIP3   OH233759   7.067   4.838  14.646  0.1093  0.5252  0.2288
 4115TIP3    H133760   7.057   4.869  14.556  2.0480  0.3447 -0.0887
 4115TIP3    H233761   7.038   4.747  14.643  0.2199  0.5022 -0.2208
 4116TIP3   OH233762   1.118   1.416   2.078  0.0008 -0.0229 -0.6389
 4116TIP3    H133763   1.071   1.481   2.025 -0.0554  0.1881 -0.3317
 4116TIP3    H233764   1.198   1.397   2.027 -1.1465 -1.6019 -1.9775
 4117TIP3   OH233765   6.848   6.542  14.858  0.2894  0.0581  0.5251
 4117TIP3    H133766   6.846   6.496  14.774 -0.0778 -0.5984  0.8831
 4117TIP3    H233767   6.765   6.518  14.901 -0.6936  2.3604  0.0503
 4118TIP3   OH233768   2.453   0.390  12.594 -0.2718 -0.1894 -0.2015
 4118TIP3    H133769   2.516   0.324  12.623  0.5540  0.8063  0.3660
 4118TIP3    H233770   2.408   0.351  12.520  2.3718 -0.2392 -1.9001
 4119TIP3   OH233771   4.920   3.613  12.707 -0.6466 -0.3497 -0.3462
 4119TIP3    H133772   4.865   3.675  12.659  0.5027 -0.5234 -1.9723
 4119TIP3    H233773   4.954   3.663  12.782 -1.9123  0.1381 -0.0755
 4120TIP3   OH233774   2.138   6.336  10.701  0.5287  0.0293  0.0379
 4120TIP3    H133775   2.226   6.302  10.687 -0.2384 -2.8591  1.4754
 4120TIP3    H233776   2.136   6.358  10.794  0.2395  1.8863 -0.3706
 4121TIP3   OH233777   5.112   1.785   4.380  0.0715  0.1150  0.4488
 4121TIP3    H133778   5.142   1.824   4.462 -0.2876 -1.0387  1.1559
 4121TIP3    H233779   5.192   1.757   4.335  0.2103 -3.1161  2.4026
 4122TIP3   OH233780   4.604   2.982  15.531 -0.1942 -0.3853  0.1211
 4122TIP3    H133781   4.594   2.947  15.442 -0.1610 -1.1522  0.4157
 4122TIP3    H233782   4.574   3.073  15.524 -1.7190 -0.8876 -0.3399
 4123TIP3   OH233783   6.771   4.394  12.303 -0.3728 -0.2077 -0.0467
 4123TIP3    H133784   6.757   4.303  12.330 -2.4940  0.7380  2.5237
 4123TIP3    H233785   6.708   4.409  12.233 -0.8986 -0.4038  0.3791
 4124TIP3   OH233786   0.201   4.504  14.672  0.4298  0.6524 -0.4971
 4124TIP3    H133787   0.168   4.481  14.759 -1.6691  2.1376 -0.8062
 4124TIP3    H233788   0.263   4.435  14.650 -0.5673 -0.9024  1.3002
 4125TIP3   OH233789   2.109   1.186  15.587  0.7855 -0.0885  0.3745
 4125TIP3    H133790   2.170   1.255  15.616  0.3198 -0.1391  1.5337
 4125TIP3    H233791   2.147   1.105  15.620  0.2364 -0.1496  0.8667
 4126TIP3   OH233792   0.369   5.508   3.711 -0.3616  0.8153 -0.0590
 4126TIP3    H133793   0.315   5.561   3.770 -1.0812  0.2953 -0.2467
 4126TIP3    H233794   0.458   5.538   3.728 -0.8028  2.6635 -0.7348
 4127TIP3   OH233795   6.571   4.807  13.887  0.1324 -0.3182 -0.3282
 4127TIP3    H133796   6.573   4.715  13.860  0.9968 -0.4199  0.0360
 4127TIP3    H233797   6.479   4.827  13.899 -0.0118 -2.3996  3.6771
 4128TIP3   OH233798   5.779   4.876  10.322 -0.3256  1.3216  0.6815
 4128TIP3    H133799   5.859   4.830  10.347 -1.3316 -0.2035  1.2406
 4128TIP3    H233800   5.754   4.838  10.238 -0.8819  1.1949  0.8960
 4129TIP3   OH233801   3.822   0.329   0.146  0.1294 -0.1876 -0.6485
 4129TIP3    H133802   3.807   0.421   0.166  2.5455 -0.2819  2.3222
 4129TIP3    H233803   3.747   0.284   0.185  0.0965  0.3650 -0.0650
 4130TIP3   OH233804   5.064   4.277  15.466 -0.0861  0.5012  0.7454
 4130TIP3    H133805   4.990   4.271  15.405  0.2273  0.3929  0.3742
 4130TIP3    H233806   5.070   4.371  15.485  0.0181  0.5778  0.3538
 4131TIP3   OH233807   0.528   4.735  11.573 -0.5282 -0.3055  0.0116
 4131TIP3    H133808   0.609   4.780  11.597  0.2391 -0.5919 -1.8316
 4131TIP3    H233809   0.506   4.770  11.487 -2.1159 -0.5893  0.2783
 4132TIP3   OH233810   6.927   2.444  11.532  0.2503  0.3166  0.0428
 4132TIP3    H133811   6.878   2.515  11.574 -1.0369  0.3354 -1.4220
 4132TIP3    H233812   6.956   2.481  11.449  0.4244 -0.5686 -0.2986
 4133TIP3   OH233813   1.106   0.099  12.528  0.2119  0.1530 -0.6791
 4133TIP3    H133814   1.017   0.087  12.561  0.0250  1.2256 -0.7620
 4133TIP3    H233815   1.113   0.037  12.455 -0.8735  0.9078 -1.4465
 4134TIP3   OH233816   5.113   4.344  14.591  0.3699 -0.2909 -0.0160
 4134TIP3    H133817   5.192   4.322  14.541  0.1160  0.3258 -0.7103
 4134TIP3    H233818   5.064   4.262  14.595 -1.2354  0.2936 -3.7823
 4135TIP3   OH233819   5.840   3.809   0.475  0.6578  0.6762  0.7607
 4135TIP3    H133820   5.921   3.830   0.430 -0.5588  1.1383 -1.3496
 4135TIP3    H233821   5.841   3.714   0.484  0.3651  0.4100 -1.5070
 4136TIP3   OH233822   3.085   6.888  15.380  0.0253  0.1721 -0.1224
 4136TIP3    H133823   3.029   6.917  15.453  0.5715 -1.7675  1.1441
 4136TIP3    H233824   3.054   6.800  15.361  2.3338 -0.7912  0.3191
 4137TIP3   OH233825   3.522   5.241   3.051  0.1497 -0.7219 -0.2620
 4137TIP3    H133826   3.617   5.246   3.050  0.1523 -0.6088  0.4325
 4137TIP3    H233827   3.493   5.325   3.013  0.3241 -1.1071 -1.2747
 4138TIP3   OH233828   5.334   0.240  10.258  0.0538 -0.4680  0.5224
 4138TIP3    H133829   5.354   0.330  10.284 -0.0442 -0.1446 -0.4734
 4138TIP3    H233830   5.253   0.247  10.208  0.8765 -0.8597 -0.9417
 4139TIP3   OH233831   2.602   5.264  11.995 -0.4091 -0.1046 -0.8285
 4139TIP3    H133832   2.559   5.283  11.911 -3.0551 -0.9207  0.2257
 4139TIP3    H233833   2.607   5.349  12.040 -0.6691  0.0541 -1.0954
 4140TIP3   OH233834   4.588   6.815  13.910  0.3952  0.3246  0.0607
 4140TIP3    H133835   4.632   6.898  13.929  0.1905  1.0976 -2.4877
 4140TIP3    H233836   4.496   6.839  13.896  0.3964 -0.2544 -1.0430
 4141TIP3   OH233837   1.834   2.426   4.180  1.0813 -0.1290  0.5750
 4141TIP3    H133838   1.885   2.394   4.105 -0.9765 -0.5682 -0.7325
 4141TIP3    H233839   1.763   2.478   4.140  1.0752  1.3304  2.3581
 4142TIP3   OH233840   2.278   4.352   4.249 -0.0342  0.1675  0.2899
 4142TIP3    H133841   2.349   4.317   4.195  0.4696  0.1764  0.9314
 4142TIP3    H233842   2.199   4.309   4.215  0.4586 -0.9051  0.4585
 4143TIP3   OH233843   3.831   0.766  15.001 -0.5899 -0.5760  0.4015
 4143TIP3    H133844   3.811   0.837  15.062 -4.2777 -2.0480  1.1864
 4143TIP3    H233845   3.817   0.804  14.914 -0.0566  0.2805  0.6839
 4144TIP3   OH233846   3.353   4.564  10.568  0.3387 -0.3679  0.0785
 4144TIP3    H133847   3.269   4.533  10.533 -0.9174  1.1345  1.5561
 4144TIP3    H233848   3.352   4.658  10.553  0.6364  0.0421  2.2251
 4145TIP3   OH233849   4.349   1.733   3.897 -0.4438  0.0261  0.3606
 4145TIP3    H133850   4.257   1.708   3.903 -0.3266 -0.3191  0.8109
 4145TIP3    H233851   4.397   1.651   3.909 -0.0764  0.2102  0.1688
 4146TIP3   OH233852   6.343   2.453   3.792 -0.2510  0.5844 -0.0548
 4146TIP3    H133853   6.433   2.427   3.809 -0.3456 -0.1581 -0.6492
 4146TIP3    H233854   6.292   2.412   3.862 -0.0793  1.4693  0.6165
 4147TIP3   OH233855   2.389   2.270  10.758 -0.1290 -0.8357  0.1617
 4147TIP3    H133856   2.371   2.325  10.682  0.8386 -1.3518 -0.4699
 4147TIP3    H233857   2.381   2.181  10.725 -0.4407 -1.0656  0.8562
 4148TIP3   OH233858   2.690   0.758  11.684 -0.4517 -0.1375 -0.1817
 4148TIP3    H133859   2.662   0.666  11.684  1.1503 -0.8932 -5.1560
 4148TIP3    H233860   2.769   0.759  11.738  0.3335 -2.0514 -1.2155
 4149TIP3   OH233861   6.488   0.814  12.746  0.4059  0.7214 -0.1173
 4149TIP3    H133862   6.527   0.899  12.728  0.5397  1.1877  2.0545
 4149TIP3    H233863   6.557   0.764  12.791 -0.5028  0.4896  1.0898
 4150TIP3   OH233864   6.711   2.383  12.329 -0.3751  0.1313 -0.0411
 4150TIP3    H133865   6.653   2.395  12.404  0.3317  2.0533  0.2422
 4150TIP3    H233866   6.659   2.410  12.254 -0.4681 -0.0285 -0.0361
 4151TIP3   OH233867   5.532   2.054   3.192 -0.0473  0.5404 -0.3463
 4151TIP3    H133868   5.466   2.045   3.123  1.3858  1.1921 -1.8691
 4151TIP3    H233869   5.515   1.980   3.251 -1.4997  0.1258 -1.2356
 4152TIP3   OH233870   6.661   3.067   2.558 -1.2580 -0.1433  0.7969
 4152TIP3    H133871   6.568   3.057   2.579 -1.1265  1.3500  2.2778
 4152TIP3    H233872   6.706   3.008   2.618 -1.1788  0.1062  0.9828
 4153TIP3   OH233873   1.241   6.482  10.896  0.6047 -0.2112 -0.5144
 4153TIP3    H133874   1.180   6.534  10.949  1.1502  0.0269 -0.1064
 4153TIP3    H233875   1.196   6.399  10.882  0.3220 -0.1568  0.0514
 4154TIP3   OH233876   0.998   5.338  10.757  0.1896  0.5356  0.7341
 4154TIP3    H133877   0.923   5.299  10.712  0.9130 -0.5148  0.3814
 4154TIP3    H233878   0.982   5.322  10.850  0.5984 -0.9282  0.5878
 4155TIP3   OH233879   0.292   3.402   4.605  0.3179  0.2040  0.0444
 4155TIP3    H133880   0.306   3.322   4.656  0.4811  1.6303  2.3420
 4155TIP3    H233881   0.353   3.394   4.532  1.2756 -1.1926  0.9400
 4156TIP3   OH233882   0.241   6.492   5.213  0.4893  0.2797  0.5512
 4156TIP3    H133883   0.271   6.574   5.253  0.1022  0.3976  0.6049
 4156TIP3    H233884   0.321   6.450   5.182  0.7346  0.4789  0.9015
 4157TIP3   OH233885   5.394   4.218  12.812 -0.1256 -0.0768 -0.2832
 4157TIP3    H133886   5.488   4.204  12.822  0.1896  0.2940 -2.2482
 4157TIP3    H233887   5.355   4.183  12.892  1.5892 -1.2670  0.0760
 4158TIP3   OH233888   2.288   2.257  12.118  0.2788  0.2946 -0.2565
 4158TIP3    H133889   2.211   2.217  12.159 -2.3421  2.9247 -2.1846
 4158TIP3    H233890   2.301   2.207  12.037  1.4854 -0.9341  0.6508
 4159TIP3   OH233891   1.514   2.556   3.288 -0.9101  0.8175 -0.0471
 4159TIP3    H133892   1.592   2.500   3.288 -1.3150  0.1109  2.9220
 4159TIP3    H233893   1.446   2.502   3.248 -0.6950  0.1227  0.5136
 4160TIP3   OH233894   2.341   1.222  11.885  0.3643  0.2200 -0.8274
 4160TIP3    H133895   2.411   1.164  11.857 -1.0623 -2.0194  0.0029
 4160TIP3    H233896   2.346   1.222  11.980  0.6195  1.8876 -0.8064
 4161TIP3   OH233897   2.609   7.088   1.493 -0.7734 -0.0794  0.4116
 4161TIP3    H133898   2.691   7.053   1.528 -1.6012 -1.3867  1.1189
 4161TIP3    H233899   2.552   7.095   1.568 -0.9221  2.0992  0.1433
 4162TIP3   OH233900   5.267   3.687  10.946  0.1549  0.8198  0.0339
 4162TIP3    H133901   5.238   3.679  10.855  0.1063  0.7135  0.0592
 4162TIP3    H233902   5.283   3.597  10.975  0.4187  0.8701  0.0509
 4163TIP3   OH233903   2.726   4.962  12.515 -0.0924 -0.0746 -0.0306
 4163TIP3    H133904   2.722   4.876  12.557  1.1219 -0.2072 -0.1648
 4163TIP3    H233905   2.641   4.970  12.470 -0.0033 -1.4458 -0.5008
 4164TIP3   OH233906   4.094   2.199  12.728 -0.0386 -0.2163  0.3761
 4164TIP3    H133907   4.111   2.175  12.637  0.6950  0.0763  0.4208
 4164TIP3    H233908   4.003   2.176  12.743  0.3689 -2.1381  0.1711
 4165TIP3   OH233909   4.725   0.816   4.163  0.3136 -0.3252 -0.2959
 4165TIP3    H133910   4.795   0.846   4.221 -0.8750 -0.1369  1.0764
 4165TIP3    H233911   4.734   0.721   4.162  0.2966 -0.3333  0.2479
 4166TIP3   OH233912   4.157   2.351   2.432 -0.1604  0.8138  0.6572
 4166TIP3    H133913   4.192   2.438   2.453 -0.3207  2.0180 -3.2630
 4166TIP3    H233914   4.070   2.368   2.395 -0.0077 -0.8954 -0.6202
 4167TIP3   OH233915   6.022   1.423  10.330 -0.3336 -0.3287  0.5982
 4167TIP3    H133916   6.113   1.422  10.303 -0.0853  0.7711  1.3004
 4167TIP3    H233917   5.975   1.378  10.260  0.5649  0.3474 -0.4738
 4168TIP3   OH233918   6.851   6.421  15.263  0.4804  0.0731  0.0466
 4168TIP3    H133919   6.778   6.369  15.231  0.8897 -1.7225  1.8479
 4168TIP3    H233920   6.830   6.436  15.356  2.4175 -0.5985  0.6282
 4169TIP3   OH233921   6.809   6.884  13.612  0.3660 -0.4254  0.0735
 4169TIP3    H133922   6.849   6.862  13.527 -1.2637 -0.3646 -0.7437
 4169TIP3    H233923   6.770   6.802  13.642  0.5866 -0.3488  0.5725
 4170TIP3   OH233924   6.112   6.058  12.974 -0.1565 -0.8082 -0.4292
 4170TIP3    H133925   6.135   6.151  12.977 -0.1778 -0.7855 -0.9044
 4170TIP3    H233926   6.169   6.017  13.039 -0.8750 -0.3131  0.5321
 4171TIP3   OH233927   1.678   0.796  14.905 -0.1430 -0.6946  0.2713
 4171TIP3    H133928   1.748   0.852  14.870  1.4109 -1.8287  1.3977
 4171TIP3    H233929   1.603   0.854  14.915  0.8148  0.7228 -0.4143
 4172TIP3   OH233930   2.152   0.036  11.762  0.3465  0.4470  0.1916
 4172TIP3    H133931   2.089   0.033  11.834 -0.5170  0.7188 -0.5346
 4172TIP3    H233932   2.132  -0.041  11.709  3.7053 -2.2401  2.3874
 4173TIP3   OH233933   1.206   5.015  13.243 -0.5822  0.4277  0.4664
 4173TIP3    H133934   1.248   4.960  13.309  0.6600  0.0021 -0.6252
 4173TIP3    H233935   1.114   5.016  13.267 -0.2307 -0.1090  1.9149
 4174TIP3   OH233936   0.362   1.411  12.359 -0.3884  0.0417 -0.1421
 4174TIP3    H133937   0.454   1.391  12.343  0.1084  2.2231 -0.2965
 4174TIP3    H233938   0.317   1.389  12.277  0.4346  1.2866 -0.9631
 4175TIP3   OH233939   2.294   5.028  12.184  0.4634 -0.1218 -0.3208
 4175TIP3    H133940   2.333   5.027  12.096  1.8197  1.7508  0.1793
 4175TIP3    H233941   2.369   5.031  12.243 -0.4352 -1.0205  0.9040
 4176TIP3   OH233942   0.054   5.668   4.348  0.3652  0.2450  0.5119
 4176TIP3    H133943  -0.000   5.605   4.395  0.1178  0.2368  0.2216
 4176TIP3    H233944   0.128   5.685   4.406 -0.8594  1.6689  1.7208
 4177TIP3   OH233945   4.483   0.785  12.581 -0.1945  0.1159  0.0140
 4177TIP3    H133946   4.523   0.868  12.557 -0.0677  0.0582  0.0228
 4177TIP3    H233947   4.540   0.750  12.649  1.5481 -1.4408 -2.0894
 4178TIP3   OH233948   5.985   3.012   1.218 -0.1037 -0.2728  0.0545
 4178TIP3    H133949   6.045   3.085   1.209  0.7463 -1.0395 -0.6805
 4178TIP3    H233950   6.012   2.968   1.298 -1.0663  0.6040  0.8820
 4179TIP3   OH233951   5.956   5.988   4.100  0.8529  0.2577  0.2841
 4179TIP3    H133952   5.950   5.955   4.010  1.5025  0.8728  0.0034
 4179TIP3    H233953   6.044   5.964   4.129  0.4375 -0.4671  0.9858
 4180TIP3   OH233954   6.043   5.630  11.612 -0.1527  0.0982  0.0414
 4180TIP3    H133955   6.064   5.575  11.536 -0.1679 -0.3290  0.3454
 4180TIP3    H233956   6.123   5.681  11.627 -0.7068  1.4708 -1.3258
 4181TIP3   OH233957   4.163   3.025  12.963 -0.2135 -0.5761 -0.4872
 4181TIP3    H133958   4.080   3.024  12.916  0.1863  1.2523 -1.2835
 4181TIP3    H233959   4.190   3.117  12.965  0.9553 -0.8929  1.2656
 4182TIP3   OH233960   4.403   5.218  15.081  0.0155  0.1719 -0.5182
 4182TIP3    H133961   4.386   5.125  15.067  0.1843  0.0042  0.3214
 4182TIP3    H233962   4.370   5.261  15.002  0.6702 -0.6727 -1.2709
 4183TIP3   OH233963   6.195   5.193  14.572  0.4608 -0.0630  0.4054
 4183TIP3    H133964   6.290   5.205  14.567  0.5426 -0.8725 -0.3366
 4183TIP3    H233965   6.161   5.281  14.585  1.4056  0.0296  2.7465
 4184TIP3   OH233966   1.712   3.916  13.087 -0.1969  0.3362 -0.0459
 4184TIP3    H133967   1.770   3.868  13.146 -1.8668 -2.0063 -0.1612
 4184TIP3    H233968   1.737   4.007  13.097  1.6726 -0.3142  1.8914
 4185TIP3   OH233969   3.069   6.875  13.987  0.0145 -0.1792  0.3278
 4185TIP3    H133970   3.138   6.890  13.923 -0.9422 -0.9956 -0.9598
 4185TIP3    H233971   3.108   6.818  14.053  0.4137 -1.1530 -0.7182
 4186TIP3   OH233972   3.972   4.240   1.211  0.5476 -1.0857 -1.0329
 4186TIP3    H133973   3.969   4.184   1.289  0.8758 -0.6255 -0.6855
 4186TIP3    H233974   3.880   4.257   1.190  0.4513  0.4418  0.4666
 4187TIP3   OH233975   3.001   0.727   5.246 -0.4439 -0.0062 -0.0403
 4187TIP3    H133976   3.046   0.811   5.236  0.1132 -0.1628  1.0149
 4187TIP3    H233977   3.018   0.680   5.165  1.6144 -0.2024  0.4649
 4188TIP3   OH233978   5.890   5.288   3.921  0.1550  0.0084  0.0808
 4188TIP3    H133979   5.861   5.197   3.926 -1.0842  0.2542 -1.7392
 4188TIP3    H233980   5.984   5.282   3.902 -0.4451 -1.0415 -3.2970
 4189TIP3   OH233981   3.311   0.651  13.062 -0.8369  0.1418  0.0399
 4189TIP3    H133982   3.342   0.652  13.152 -0.1912 -0.4415 -0.1663
 4189TIP3    H233983   3.364   0.716  13.017  0.5732 -1.2685 -0.4465
 4190TIP3   OH233984   7.007   3.759   4.648 -0.4670 -0.1319  0.5647
 4190TIP3    H133985   7.016   3.845   4.688 -0.4636 -0.4265  1.2082
 4190TIP3    H233986   6.932   3.720   4.693 -0.7428 -0.2969 -0.0305
 4191TIP3   OH233987   1.331   2.482  11.618  0.1793 -0.1908 -0.3182
 4191TIP3    H133988   1.265   2.427  11.661  0.2099 -0.0977 -0.1516
 4191TIP3    H233989   1.327   2.565  11.665  2.2586 -1.0193  1.4955
 4192TIP3   OH233990   0.067   1.557  11.073 -0.2513  0.2648  0.6298
 4192TIP3    H133991   0.072   1.588  10.983 -4.0393 -0.7483 -0.0949
 4192TIP3    H233992   0.118   1.476  11.074 -0.8214 -0.1412 -0.8555
 4193TIP3   OH233993   0.857   6.359  14.954  0.4426 -0.0053  0.0937
 4193TIP3    H133994   0.855   6.269  14.986  3.0873 -1.5669 -3.4080
 4193TIP3    H233995   0.796   6.360  14.880  0.4277  1.0909  0.0985
 4194TIP3   OH233996   5.624   0.011   1.302  0.7185  0.1533  0.3902
 4194TIP3    H133997   5.676   0.087   1.329 -1.1753  1.7828 -0.2958
 4194TIP3    H233998   5.599   0.030   1.212  2.5213 -2.6854 -0.8520
 4195TIP3   OH233999   1.332   2.652   0.991 -0.4792  0.0223  0.5115
 4195TIP3    H134000   1.401   2.710   0.961  0.4708 -0.2401  2.0724
 4195TIP3    H234001   1.252   2.704   0.984 -0.0378  0.5954 -0.5819
 4196TIP3   OH234002   3.477   1.109   2.989  0.0790  0.1281  0.1257
 4196TIP3    H134003   3.454   1.103   3.082  1.0569  2.2454  0.5646
 4196TIP3    H234004   3.415   1.172   2.953 -0.0473 -0.3958 -0.5865
 4197TIP3   OH234005   6.004   1.146  11.105 -0.4305 -0.5206 -0.1963
 4197TIP3    H134006   5.961   1.225  11.138  1.1614  0.3121 -0.0201
 4197TIP3    H234007   5.933   1.094  11.067 -1.5624  0.8427 -0.0265
 4198TIP3   OH234008   3.731   4.606  11.543 -0.1449  0.5391 -0.7557
 4198TIP3    H134009   3.822   4.604  11.574 -0.6341  1.6187  0.8424
 4198TIP3    H234010   3.682   4.647  11.614 -1.8582  0.2188 -1.7008
 4199TIP3   OH234011   2.218   6.498  13.657  0.6488 -0.0927 -0.4127
 4199TIP3    H134012   2.296   6.443  13.663  1.7248  1.5334  1.6868
 4199TIP3    H234013   2.145   6.436  13.652  1.9709 -1.6565 -1.0834
 4200TIP3   OH234014   2.970   1.458  12.923  0.3756  0.5847 -0.1759
 4200TIP3    H134015   2.945   1.435  12.833  0.2487 -0.6187  0.1534
 4200TIP3    H234016   2.918   1.400  12.978  2.1238 -0.3342  0.6039
 4201TIP3   OH234017   6.381   2.638   2.306 -0.1467  0.4763  0.7564
 4201TIP3    H134018   6.386   2.627   2.401  0.1662  0.4142  0.7346
 4201TIP3    H234019   6.312   2.578   2.278 -0.0283  0.2691  0.9072
 4202TIP3   OH234020   0.763   5.026  10.361 -0.0972  0.0960  0.6175
 4202TIP3    H134021   0.695   4.977  10.315  0.9902 -0.8213 -0.0796
 4202TIP3    H234022   0.797   4.964  10.426  1.0187  0.0326 -0.0054
 4203TIP3   OH234023   6.397   4.333   9.936 -0.1623 -0.9442 -0.2596
 4203TIP3    H134024   6.376   4.240   9.941 -0.7288 -0.7698  1.5283
 4203TIP3    H234025   6.367   4.369  10.020 -0.4725  0.9583 -1.1158
 4204TIP3   OH234026   5.928   0.184  10.999 -0.2078  0.1588  0.1003
 4204TIP3    H134027   6.007   0.186  11.052 -0.2232  0.9131  0.1061
 4204TIP3    H234028   5.952   0.131  10.923  0.4028  0.6372 -0.0495
 4205TIP3   OH234029   5.034   1.679  11.915 -0.2672  0.2655  0.2163
 4205TIP3    H134030   4.945   1.714  11.920  0.5013  2.4655 -0.2954
 4205TIP3    H234031   5.044   1.651  11.824 -0.0676  1.1969 -0.0648
 4206TIP3   OH234032   1.771   3.987  11.820  0.0599 -0.4351 -0.5752
 4206TIP3    H134033   1.703   4.049  11.793 -0.2161  0.2138  1.4665
 4206TIP3    H234034   1.845   4.042  11.845 -0.1549 -0.8980  1.1778
 4207TIP3   OH234035   4.152   1.736  10.002  0.1585  0.2032  0.6654
 4207TIP3    H134036   4.089   1.666   9.991  2.1107 -2.0323  2.5648
 4207TIP3    H234037   4.180   1.758   9.913  0.5108 -2.5014  0.0261
 4208TIP3   OH234038   5.716   5.415   1.581  1.0029 -0.5063  0.4370
 4208TIP3    H134039   5.621   5.420   1.585  0.9170 -1.7957  0.5181
 4208TIP3    H234040   5.737   5.326   1.612  2.2280 -0.2460  0.4253
 4209TIP3   OH234041   4.069   6.952  11.215  0.2737 -0.3694 -0.4399
 4209TIP3    H134042   4.103   7.033  11.178  0.9957 -0.2093  0.5455
 4209TIP3    H234043   4.004   6.922  11.151 -2.2098  2.5299  0.5234
 4210TIP3   OH234044   4.034   1.392  14.076  0.0621 -0.4566  0.3810
 4210TIP3    H134045   4.110   1.390  14.019  0.4847  0.9329  0.8634
 4210TIP3    H234046   4.064   1.352  14.158 -0.0974 -1.0255  0.1690
 4211TIP3   OH234047   1.144   4.110   5.496 -0.4281 -0.4569  0.0137
 4211TIP3    H134048   1.074   4.133   5.557 -0.5024  1.4279 -0.7266
 4211TIP3    H234049   1.102   4.110   5.410  0.5479  1.2334 -0.5008
 4212TIP3   OH234050   2.267   1.515  15.195 -0.4961  0.1871  0.4272
 4212TIP3    H134051   2.262   1.505  15.100 -1.4871 -0.6780  0.5480
 4212TIP3    H234052   2.196   1.576  15.216  0.7050  1.6168  0.4769
 4213TIP3   OH234053   5.274   6.288   9.407 -0.1677  0.0862 -0.1469
 4213TIP3    H134054   5.197   6.297   9.463  0.7753 -2.2969  1.7152
 4213TIP3    H234055   5.299   6.196   9.414  2.7603  0.7230 -0.7728
 4214TIP3   OH234056   3.848   6.378  12.475  0.5723  0.2880 -0.0056
 4214TIP3    H134057   3.832   6.284  12.463  0.1593  0.0149  2.2170
 4214TIP3    H234058   3.887   6.407  12.392  0.3612 -1.7537 -0.8747
 4215TIP3   OH234059   4.058   6.289   1.267 -0.0005 -0.5049 -0.2169
 4215TIP3    H134060   4.009   6.214   1.232  2.9787 -2.9861  0.5379
 4215TIP3    H234061   4.060   6.351   1.194 -1.9760 -1.3828 -1.1172
 4216TIP3   OH234062   1.404   1.433  12.045  0.3341 -0.1839  0.2808
 4216TIP3    H134063   1.442   1.361  11.993 -1.0879 -1.3462  0.7783
 4216TIP3    H234064   1.326   1.395  12.084 -1.1049  1.9848 -0.3373
 4217TIP3   OH234065   0.107   0.956  13.171 -0.8900  0.1861 -0.3799
 4217TIP3    H134066   0.179   0.894  13.158  0.5836  1.8422 -0.5320
 4217TIP3    H234067   0.055   0.917  13.241 -0.2155 -1.3783 -0.7003
 4218TIP3   OH234068   2.065   1.359  10.447  0.2677 -0.1361 -0.3989
 4218TIP3    H134069   2.094   1.406  10.369  2.3013  0.3618  0.5996
 4218TIP3    H234070   2.111   1.275  10.443 -1.4746 -1.1321 -0.9106
 4219TIP3   OH234071   3.840   0.304   9.883 -0.2331 -0.3444 -0.6029
 4219TIP3    H134072   3.923   0.347   9.860 -0.3988  0.1942 -0.2172
 4219TIP3    H234073   3.781   0.326   9.811 -0.0976 -0.5517 -0.7752
 4220TIP3   OH234074   3.031   0.767   2.309 -0.0986  0.2053 -0.0817
 4220TIP3    H134075   3.052   0.782   2.216  0.1605  0.6485  0.0468
 4220TIP3    H234076   2.966   0.697   2.307 -0.6097  0.6773 -0.6475
 4221TIP3   OH234077   3.436   6.406  12.005  0.0633  0.0544 -0.5300
 4221TIP3    H134078   3.343   6.426  11.994  0.1776  1.6831  1.0805
 4221TIP3    H234079   3.437   6.336  12.071 -0.0019  0.9017  0.3953
 4222TIP3   OH234080   2.378   2.685   2.083 -0.3123 -0.7843  0.2144
 4222TIP3    H134081   2.283   2.690   2.090 -0.3284 -1.4761  0.5007
 4222TIP3    H234082   2.409   2.759   2.136 -0.6876 -0.5880  0.1635
 4223TIP3   OH234083   1.094   6.251  15.588 -0.1591 -0.0087  0.1449
 4223TIP3    H134084   1.010   6.218  15.618 -0.2065  0.1104  0.1463
 4223TIP3    H234085   1.154   6.177  15.594  0.0647  0.2536  1.4570
 4224TIP3   OH234086   5.151   3.282  11.508 -0.1323  0.4333 -0.5449
 4224TIP3    H134087   5.108   3.211  11.555  0.7886  0.3630  0.2210
 4224TIP3    H234088   5.146   3.257  11.416  1.5425 -1.4259 -0.1917
 4225TIP3   OH234089   4.895   2.315  10.139 -0.0249  0.1962  0.1700
 4225TIP3    H134090   4.966   2.371  10.108  0.0774  0.2231  0.4506
 4225TIP3    H234091   4.893   2.242  10.077  0.6501 -0.1140  0.4990
 4226TIP3   OH234092   7.051   0.127   1.357  0.3108  0.0417  0.4341
 4226TIP3    H134093   7.064   0.038   1.324  1.5130  0.4086 -0.1445
 4226TIP3    H234094   7.090   0.183   1.290  0.7053  0.9341  1.3778
 4227TIP3   OH234095   1.833   0.782   1.525  0.3199 -0.1759  0.2939
 4227TIP3    H134096   1.831   0.824   1.611 -1.1925 -0.5005  0.4541
 4227TIP3    H234097   1.898   0.831   1.475  0.1995  0.9198  1.1748
 4228TIP3   OH234098   6.531   1.343   3.108  0.5533 -0.1793  0.4523
 4228TIP3    H134099   6.608   1.394   3.084  0.1842  0.5793  0.8395
 4228TIP3    H234100   6.512   1.370   3.198  0.2400 -0.8645  0.5928
 4229TIP3   OH234101   4.671   0.357   2.887  0.3217  0.1155  0.3172
 4229TIP3    H134102   4.619   0.380   2.810 -0.3093 -1.3770  0.2772
 4229TIP3    H234103   4.762   0.367   2.858  0.1844  3.3075  0.5523
 4230TIP3   OH234104   0.759   0.030  15.464 -0.6386  0.8057 -0.1425
 4230TIP3    H134105   0.749   0.109  15.412  0.4840 -0.8437 -3.1631
 4230TIP3    H234106   0.691  -0.029  15.431 -0.9979  0.2067  1.5398
 4231TIP3   OH234107   2.679   4.858  15.395  0.2832  0.4964 -0.7789
 4231TIP3    H134108   2.682   4.867  15.299 -0.9914  0.4872 -0.8391
 4231TIP3    H234109   2.703   4.767  15.411 -1.0862  0.0344 -1.2276
 4232TIP3   OH234110   6.819   1.944  13.829  0.0243 -0.2701 -0.1550
 4232TIP3    H134111   6.806   1.963  13.736 -2.2140 -1.2575 -0.1064
 4232TIP3    H234112   6.761   2.004  13.875  1.1991  0.2984  0.6694
 4233TIP3   OH234113   4.717   6.576   4.769  0.3987 -0.1460  1.0701
 4233TIP3    H134114   4.761   6.494   4.792 -0.0798 -1.2049 -1.4375
 4233TIP3    H234115   4.764   6.643   4.820  3.6614 -1.4327  0.0412
 4234TIP3   OH234116   2.993   3.228   2.534 -0.6699 -0.0426 -0.2916
 4234TIP3    H134117   2.988   3.136   2.507 -0.9442 -0.0671 -0.1624
 4234TIP3    H234118   3.019   3.275   2.454 -1.2787 -0.1381 -0.5498
 4235TIP3   OH234119   3.217   6.598  10.939 -0.6415  0.2365 -0.1676
 4235TIP3    H134120   3.123   6.615  10.947 -0.2006  2.3869  1.5824
 4235TIP3    H234121   3.249   6.667  10.881 -0.3276 -1.5603 -2.2525
 4236TIP3   OH234122   5.544   5.004   0.919  0.0302 -0.1658  0.2428
 4236TIP3    H134123   5.520   4.997   1.011  0.4113 -0.7375  0.3026
 4236TIP3    H234124   5.631   5.043   0.918 -0.1341  0.1984  0.1089
 4237TIP3   OH234125   6.413   2.162  13.986  0.3037 -0.3719 -0.1311
 4237TIP3    H134126   6.368   2.113  13.917  0.1238 -2.3739  1.3361
 4237TIP3    H234127   6.504   2.167  13.957  0.1525 -0.8228 -0.6999
 4238TIP3   OH234128   0.384   4.219  15.147 -0.1934 -0.0009 -0.1522
 4238TIP3    H134129   0.375   4.189  15.057  2.3357  0.1246 -0.5210
 4238TIP3    H234130   0.359   4.144  15.200 -0.6773 -0.4230 -0.9519
 4239TIP3   OH234131   0.609   6.030  14.950  0.3808 -0.1313 -0.3277
 4239TIP3    H134132   0.676   6.064  15.009  1.3163  0.6920 -1.7960
 4239TIP3    H234133   0.644   5.946  14.920 -0.7604 -1.2519  1.3476
 4240TIP3   OH234134   2.395   2.914   1.508  0.0979 -0.3220  0.2933
 4240TIP3    H134135   2.329   2.982   1.521 -0.1762 -0.6087  0.3973
 4240TIP3    H234136   2.347   2.831   1.512  0.7526 -0.6498  2.3999
 4241TIP3   OH234137   5.985   1.529  12.778  0.4720 -0.3694  0.7038
 4241TIP3    H134138   5.951   1.579  12.704 -0.0434  0.0012  1.1774
 4241TIP3    H234139   6.069   1.496  12.748 -0.7177 -2.1704 -0.8817
 4242TIP3   OH234140   6.839   2.909  11.278  0.0714  0.0184 -0.5670
 4242TIP3    H134141   6.884   2.889  11.360  1.6067  2.5313 -0.6868
 4242TIP3    H234142   6.807   2.999  11.289 -1.2069 -0.1973 -2.1061
 4243TIP3   OH234143   0.494   5.500  10.907 -0.3057  0.5354  0.5215
 4243TIP3    H134144   0.455   5.503  10.994  0.4548  0.7186  0.8689
 4243TIP3    H234145   0.525   5.589  10.892  0.3242  0.3085  0.4282
 4244TIP3   OH234146   0.754   4.536   1.130  0.0817 -0.1516  0.1236
 4244TIP3    H134147   0.833   4.566   1.175 -0.2326 -0.0431  0.6084
 4244TIP3    H234148   0.787   4.485   1.056  0.6224 -2.0056  1.5643
 4245TIP3   OH234149   2.932   4.763   2.250 -0.0731  0.8539  0.6712
 4245TIP3    H134150   2.963   4.793   2.336 -0.0579 -0.3493  1.0969
 4245TIP3    H234151   2.964   4.673   2.243  1.7416  1.5590 -1.4796
 4246TIP3   OH234152   4.421   3.615  14.704 -0.5319 -0.0322  0.6364
 4246TIP3    H134153   4.411   3.602  14.798 -0.3556  0.4807  0.7330
 4246TIP3    H234154   4.400   3.708  14.691 -0.8274 -0.1645  0.1284
 4247TIP3   OH234155   2.442   1.349   2.608 -0.3688 -0.1530 -0.7021
 4247TIP3    H134156   2.453   1.270   2.555 -2.0274 -0.9389  0.0712
 4247TIP3    H234157   2.362   1.334   2.657 -0.0555  1.5059  0.3852
 4248TIP3   OH234158   0.000   6.759  10.940  0.3687  0.6491  0.1556
 4248TIP3    H134159  -0.084   6.717  10.955 -0.4471  1.2412 -2.3152
 4248TIP3    H234160   0.007   6.826  11.008 -0.2408 -0.6349  1.5405
 4249TIP3   OH234161   5.124   5.765  10.391  0.1426  0.2696  0.3711
 4249TIP3    H134162   5.051   5.823  10.369  1.3393  1.3988 -0.8287
 4249TIP3    H234163   5.162   5.741  10.307  0.5009 -1.2245  0.9168
 4250TIP3   OH234164   2.319   5.090  12.605 -0.5363  0.0581 -0.1369
 4250TIP3    H134165   2.255   5.146  12.647 -1.7335 -1.7761  0.5900
 4250TIP3    H234166   2.398   5.099  12.659 -1.0511  0.2122  0.6024
 4251TIP3   OH234167   5.976   4.589  10.012  0.1578  0.3660  0.0058
 4251TIP3    H134168   6.021   4.659   9.964  0.2026 -0.2859 -0.9349
 4251TIP3    H234169   5.975   4.515   9.951 -1.3776  0.0717  0.3471
 4252TIP3   OH234170   0.241   4.507  13.242  0.1671 -0.0043 -0.0671
 4252TIP3    H134171   0.284   4.563  13.306  0.6711  0.4053 -0.7564
 4252TIP3    H234172   0.312   4.474  13.187 -0.3442  0.3471 -0.9596
 4253TIP3   OH234173   1.976   1.141   1.221  0.6073 -0.3381  0.2839
 4253TIP3    H134174   1.940   1.221   1.183 -1.2589  0.5044  3.4696
 4253TIP3    H234175   2.067   1.163   1.244  0.3907  0.5655  0.2764
 4254TIP3   OH234176   0.755   1.306   9.912  0.1836 -0.0833  0.6511
 4254TIP3    H134177   0.697   1.284   9.840  1.8401  0.2522 -0.8667
 4254TIP3    H234178   0.802   1.225   9.931 -0.0246 -0.0898  1.1484
 4255TIP3   OH234179   1.396   0.440  15.557  0.2135  0.2254 -0.2631
 4255TIP3    H134180   1.311   0.401  15.538  0.6158 -1.2239  0.7204
 4255TIP3    H234181   1.447   0.425  15.477 -0.7854  2.2628 -1.3642
 4256TIP3   OH234182   2.702   0.181  12.659 -0.1594 -0.0748 -0.5195
 4256TIP3    H134183   2.764   0.219  12.596 -0.8865 -0.3233 -1.4014
 4256TIP3    H234184   2.670   0.102  12.616  1.9111 -2.1930  1.6011
 4257TIP3   OH234185   3.064   5.716  11.940  0.1201 -0.2063  0.4441
 4257TIP3    H134186   3.061   5.766  11.858  0.0145  2.0502  1.7284
 4257TIP3    H234187   3.157   5.711  11.962  0.0220  1.7262  1.5519
 4258TIP3   OH234188   5.156   1.075   1.819 -0.1158 -0.6485  0.1290
 4258TIP3    H134189   5.196   1.087   1.905  0.2326 -0.2863 -0.0788
 4258TIP3    H234190   5.164   0.981   1.802  0.5741 -0.5937  0.1325
 4259TIP3   OH234191   1.685   4.900   2.688  0.8534  0.7008 -0.2983
 4259TIP3    H134192   1.649   4.954   2.758 -1.4533 -1.5052  0.3450
 4259TIP3    H234193   1.647   4.937   2.608  1.1764  1.4543 -0.1106
 4260TIP3   OH234194   3.320   4.964  14.820  0.4972 -0.0620  0.5364
 4260TIP3    H134195   3.239   5.011  14.839 -0.8530 -2.0634  0.0521
 4260TIP3    H234196   3.356   5.008  14.743 -1.5006 -0.6445 -0.8285
 4261TIP3   OH234197   1.721   1.615   2.770  0.1530  0.1427  0.1580
 4261TIP3    H134198   1.816   1.621   2.775  0.1373  0.7096 -0.0776
 4261TIP3    H234199   1.704   1.550   2.703  0.3747 -0.0982  0.3357
 4262TIP3   OH234200   4.459   5.166  12.466 -0.1897  0.6913  0.0560
 4262TIP3    H134201   4.459   5.132  12.555  0.6887  0.2855 -0.0899
 4262TIP3    H234202   4.376   5.137  12.429  0.3809 -1.0326  0.0415
 4263TIP3   OH234203   2.466   3.778  15.438  0.4258 -0.0832 -0.0258
 4263TIP3    H134204   2.373   3.772  15.457  0.8041 -0.2038  2.0630
 4263TIP3    H234205   2.471   3.783  15.343 -1.9636  4.2267 -0.1845
 4264TIP3   OH234206   2.053   6.855  11.325 -0.0403  0.3008  0.0484
 4264TIP3    H134207   2.118   6.799  11.281  0.1162 -0.4501  1.2115
 4264TIP3    H234208   1.969   6.816  11.302 -0.0704  0.8679 -0.8874
 4265TIP3   OH234209   2.353   4.121   2.850 -0.3579 -0.0845  0.3049
 4265TIP3    H134210   2.303   4.196   2.818  1.0618  1.0069  0.5245
 4265TIP3    H234211   2.321   4.106   2.938 -0.4185  0.5102  0.3900
 4266TIP3   OH234212   6.958   2.200  14.396 -0.0731  0.1770 -0.6018
 4266TIP3    H134213   6.865   2.213  14.380 -0.2064 -1.2008 -1.1392
 4266TIP3    H234214   6.989   2.153  14.318  0.1095 -3.2826  1.3407
 4267TIP3   OH234215   5.882   6.295  14.285 -0.3927 -0.0534  0.1889
 4267TIP3    H134216   5.892   6.277  14.192  1.2907 -0.6764  0.4578
 4267TIP3    H234217   5.792   6.326  14.294 -0.7208 -0.4027 -1.5670
 4268TIP3   OH234218   1.584   6.407  10.632 -0.0792 -0.3003 -0.2629
 4268TIP3    H134219   1.653   6.357  10.676 -1.3268 -0.7868  1.2480
 4268TIP3    H234220   1.559   6.475  10.695 -0.2855  0.5000 -1.1939
 4269TIP3   OH234221   4.959   6.959  14.742 -0.0896  0.3571  0.1060
 4269TIP3    H134222   4.900   6.884  14.745  0.1050  0.1528 -0.7706
 4269TIP3    H234223   5.020   6.939  14.671  0.8209  0.7251  0.7777
 4270TIP3   OH234224   6.743   2.641  11.567 -0.6185  0.4041 -0.2950
 4270TIP3    H134225   6.704   2.576  11.508  0.0884 -0.8738  0.6029
 4270TIP3    H234226   6.668   2.690  11.601 -1.1371  0.2770 -1.2151
 4271TIP3   OH234227   1.929   0.631   3.417 -0.2229  0.1892 -0.5967
 4271TIP3    H134228   1.900   0.694   3.351  1.5070  0.1176 -1.4810
 4271TIP3    H234229   1.864   0.639   3.487 -0.5506  2.3121 -1.0574
 4272TIP3   OH234230   1.107   3.410  14.977 -0.5207 -0.3311  0.4548
 4272TIP3    H134231   1.034   3.430  14.919  0.7254 -0.0210 -1.0836
 4272TIP3    H234232   1.072   3.420  15.065 -1.9154  1.3932 -0.2463
 4273TIP3   OH234233   0.962   4.443  13.815  0.0175 -0.0383  0.3694
 4273TIP3    H134234   1.013   4.520  13.839 -0.1947 -0.0160  0.7602
 4273TIP3    H234235   0.956   4.447  13.720  2.2663 -1.0104  0.1216
 4274TIP3   OH234236   1.243   3.391  11.815 -0.0561  0.0706  0.2183
 4274TIP3    H134237   1.179   3.459  11.837  0.6803  1.4847 -1.7179
 4274TIP3    H234238   1.192   3.311  11.810 -1.3807  0.8776  0.4028
 4275TIP3   OH234239   2.680   4.985  14.076 -0.0956 -0.2908  0.6756
 4275TIP3    H134240   2.656   5.002  13.986 -1.1151  0.0901  1.0111
 4275TIP3    H234241   2.692   5.072  14.115 -1.0480 -0.4107  1.2651
 4276TIP3   OH234242   4.151   6.133  11.842 -0.1216 -0.0768  0.4283
 4276TIP3    H134243   4.087   6.189  11.885 -0.6705  0.3405 -0.8863
 4276TIP3    H234244   4.167   6.062  11.905 -1.3360  0.1842  1.0628
 4277TIP3   OH234245   3.721   4.355   1.260  0.0376  0.7536 -0.5154
 4277TIP3    H134246   3.635   4.390   1.282  0.3751  2.9851 -2.3055
 4277TIP3    H234247   3.726   4.363   1.165  0.8482 -2.8598 -0.9401
 4278TIP3   OH234248   2.553   5.170  10.936  0.7085  0.2569 -0.0326
 4278TIP3    H134249   2.526   5.103  10.998  0.9190  0.2368  0.0401
 4278TIP3    H234250   2.509   5.146  10.855 -0.0069  0.5963  0.2470
 4279TIP3   OH234251   6.746   6.067  11.462  0.4519  0.2713  0.2797
 4279TIP3    H134252   6.742   6.163  11.462  2.4357  0.3849  0.3701
 4279TIP3    H234253   6.763   6.044  11.553  1.5146 -0.0679  0.0057
 4280TIP3   OH234254   5.669   0.970  14.805  0.1463 -0.3999  0.3674
 4280TIP3    H134255   5.624   0.988  14.722  1.9811 -0.3404 -0.6654
 4280TIP3    H234256   5.706   1.055  14.831  1.0998 -0.7690  0.2728
 4281TIP3   OH234257   3.038   6.108   1.576  0.1267  0.8787  0.1564
 4281TIP3    H134258   2.976   6.165   1.622  0.7707 -2.0858  5.5798
 4281TIP3    H234259   3.124   6.134   1.609  1.4453  1.6211 -3.3658
 4282TIP3   OH234260   0.099   4.013  14.915  0.1423 -0.1181  0.5667
 4282TIP3    H134261   0.163   3.969  14.970  1.0892 -1.2593 -1.3778
 4282TIP3    H234262   0.142   4.024  14.831 -1.8516  0.0454 -0.4954
 4283TIP3   OH234263   0.159   7.101  13.036 -0.7577 -0.4013 -0.0074
 4283TIP3    H134264   0.084   7.160  13.029 -0.7675  0.1438  3.1101
 4283TIP3    H234265   0.231   7.157  13.064 -0.3395 -1.5375  1.3212
 4284TIP3   OH234266   2.747   6.012  12.930  0.1704  0.0135  0.6221
 4284TIP3    H134267   2.700   6.032  13.011 -0.7092 -0.6816  0.3032
 4284TIP3    H234268   2.710   6.071  12.865 -1.6930 -1.7927 -0.0768
 4285TIP3   OH234269   1.270   2.703  10.943  0.3630  0.1560  0.0016
 4285TIP3    H134270   1.271   2.681  10.850  0.2318 -1.4801  0.3551
 4285TIP3    H234271   1.177   2.710  10.965  0.3738 -0.0237  0.1126
 4286TIP3   OH234272   0.258   5.454   0.649 -0.2924  0.0793 -0.1855
 4286TIP3    H134273   0.273   5.360   0.652  0.7517  0.2463  0.6033
 4286TIP3    H234274   0.339   5.492   0.684 -0.4938  1.2867 -0.9600
 4287TIP3   OH234275   4.810   6.842  12.768  0.3260  0.1142  0.3664
 4287TIP3    H134276   4.828   6.791  12.847  0.8049  0.8112  0.7243
 4287TIP3    H234277   4.801   6.778  12.699  0.0212 -0.5055  0.9685
 4288TIP3   OH234278   0.396   6.172  10.209  0.2136  0.4308 -0.1663
 4288TIP3    H134279   0.322   6.173  10.147  1.4828 -1.3153 -1.8581
 4288TIP3    H234280   0.357   6.146  10.292 -1.2933  0.9467 -0.6828
 4289TIP3   OH234281   4.847   4.464   4.915 -0.3214  0.2795 -0.2386
 4289TIP3    H134282   4.932   4.431   4.885 -0.6192 -0.3364 -0.4268
 4289TIP3    H234283   4.869   4.531   4.980  0.3036 -0.4888  0.3652
 4290TIP3   OH234284   6.625   0.641  11.415  0.5155 -0.4019 -0.0297
 4290TIP3    H134285   6.556   0.674  11.357 -1.2425 -0.2311  2.0427
 4290TIP3    H234286   6.590   0.560  11.450  2.3446 -1.4903 -0.5731
 4291TIP3   OH234287   1.314   1.888   4.986 -0.2485 -0.1541  0.1896
 4291TIP3    H134288   1.323   1.840   4.904  0.7023  0.3665 -0.0223
 4291TIP3    H234289   1.398   1.874   5.031 -0.6230 -0.1337  0.9035
 4292TIP3   OH234290   1.333   1.262  13.956 -0.1246  0.0093 -0.6349
 4292TIP3    H134291   1.388   1.298  13.886  0.5097  0.0166 -0.1519
 4292TIP3    H234292   1.262   1.325  13.965 -0.2263 -0.0068 -1.2887
 4293TIP3   OH234293   0.979   5.490  11.055  0.2121 -0.4595 -0.4057
 4293TIP3    H134294   0.925   5.411  11.056  1.6348 -1.5590  2.8852
 4293TIP3    H234295   1.065   5.460  11.025  0.9398 -0.3587  1.4931
 4294TIP3   OH234296   1.851   3.315   0.120 -0.1965 -0.1488  0.2074
 4294TIP3    H134297   1.923   3.370   0.092 -1.2676  1.4509  0.4493
 4294TIP3    H234298   1.838   3.252   0.049  1.3449 -0.4079  0.1359
 4295TIP3   OH234299   0.723   5.240  13.780  0.1165 -0.0875 -0.4939
 4295TIP3    H134300   0.648   5.281  13.737 -2.1182 -3.6338 -0.3911
 4295TIP3    H234301   0.790   5.307  13.780 -3.0516  3.4201 -0.4968
 4296TIP3   OH234302   6.880   0.649  11.275  0.7412  0.0920 -0.3063
 4296TIP3    H134303   6.793   0.655  11.316  1.8833 -0.4267  2.4254
 4296TIP3    H234304   6.877   0.568  11.225 -0.2073 -0.1670  0.1456
 4297TIP3   OH234305   2.596   5.395  12.551  0.2752 -0.2559 -0.3109
 4297TIP3    H134306   2.598   5.456  12.625 -0.9304 -1.2368  0.5915
 4297TIP3    H234307   2.682   5.403  12.510  1.3441 -0.3176  1.7724
 4298TIP3   OH234308   4.502   4.099   3.297  0.0518  0.1624 -0.4229
 4298TIP3    H134309   4.489   4.005   3.287  0.6333 -0.0792  0.9082
 4298TIP3    H234310   4.583   4.107   3.347 -0.3472  1.3472  0.0593
 4299TIP3   OH234311   2.494   3.553  11.938  0.0005 -0.6698  0.5998
 4299TIP3    H134312   2.456   3.625  11.888  0.0170 -1.2249 -0.2199
 4299TIP3    H234313   2.586   3.576  11.947 -0.1613 -0.1720  1.0994
 4300TIP3   OH234314   0.032   4.154  10.763  0.7275 -0.0232 -0.7392
 4300TIP3    H134315  -0.002   4.077  10.718  0.5712 -0.1571 -0.3981
 4300TIP3    H234316  -0.041   4.216  10.763  0.6639 -0.0935 -0.5168
 4301TIP3   OH234317   6.387   2.621  10.822  0.0009  0.1071  0.1196
 4301TIP3    H134318   6.427   2.621  10.909  0.3902  0.9189 -0.0534
 4301TIP3    H234319   6.295   2.599  10.838  0.2713 -0.7046  0.6263
 4302TIP3   OH234320   6.180   7.087  15.315  0.6721  0.2138  0.1756
 4302TIP3    H134321   6.192   7.089  15.220  1.0092 -3.8357 -0.0158
 4302TIP3    H234322   6.266   7.111  15.350  0.2456  2.9025 -0.3962
 4303TIP3   OH234323   5.770   2.407   0.750 -0.1925 -0.7399  0.2536
 4303TIP3    H134324   5.782   2.385   0.657  0.2087 -1.4418  0.4618
 4303TIP3    H234325   5.720   2.488   0.749  1.4079  0.2869 -0.6110
 4304TIP3   OH234326   4.884   4.789  11.009  0.2354  0.0615  0.7133
 4304TIP3    H134327   4.911   4.697  11.013  2.5968  0.6482 -0.1748
 4304TIP3    H234328   4.920   4.828  11.089 -0.9814  0.2004  1.2181
 4305TIP3   OH234329   6.064   3.360   3.068  0.2093 -0.2599  0.0683
 4305TIP3    H134330   6.044   3.337   3.158 -0.3536  1.6636  0.4801
 4305TIP3    H234331   6.041   3.453   3.061 -0.0994 -0.4411 -2.1501
 4306TIP3   OH234332   5.829   3.610   1.841 -0.0885 -0.5068  0.3692
 4306TIP3    H134333   5.833   3.544   1.911  1.0792 -0.5724  0.2548
 4306TIP3    H234334   5.744   3.595   1.799 -0.5590 -0.8463  1.4033
 4307TIP3   OH234335   5.530   7.053  15.586 -0.0129 -0.0165 -0.3054
 4307TIP3    H134336   5.604   7.114  15.590  1.5752 -1.6728 -2.0815
 4307TIP3    H234337   5.533   7.007  15.670 -0.2307  1.1722  0.3878
 4308TIP3   OH234338   3.398   4.345   3.787  0.0646 -0.1992  0.2174
 4308TIP3    H134339   3.397   4.364   3.693  0.8151 -1.9978 -0.1895
 4308TIP3    H234340   3.419   4.429   3.828  1.3441  0.2920 -1.3262
 4309TIP3   OH234341   6.166   2.357   3.974 -0.7821 -0.1805  0.5625
 4309TIP3    H134342   6.087   2.306   3.994 -1.4091 -0.1170 -1.5783
 4309TIP3    H234343   6.156   2.437   4.025 -1.4673 -0.7032  1.2891
 4310TIP3   OH234344   3.491   2.792  14.486  0.0341 -0.1184 -0.0595
 4310TIP3    H134345   3.446   2.709  14.500 -0.4686  0.2756  0.6997
 4310TIP3    H234346   3.582   2.767  14.470  0.1365 -0.7672  1.3827
 4311TIP3   OH234347   3.635   1.382  10.760  0.4228 -0.0920 -0.2309
 4311TIP3    H134348   3.544   1.366  10.785  0.5248 -0.1992  0.0642
 4311TIP3    H234349   3.670   1.295  10.741  1.1620 -0.3373  1.9831
 4312TIP3   OH234350   5.828   2.921   3.173 -0.2485 -0.1499  0.5212
 4312TIP3    H134351   5.753   2.948   3.226 -1.2204 -0.9279 -0.4171
 4312TIP3    H234352   5.834   2.826   3.186  0.1087 -0.2016  0.0118
 4313TIP3   OH234353   1.217   4.683  10.399 -0.1161 -0.0403  0.4256
 4313TIP3    H134354   1.257   4.709  10.316  0.7095  0.2879  0.9123
 4313TIP3    H234355   1.274   4.614  10.432 -1.3598 -1.3516 -0.0511
 4314TIP3   OH234356   3.271   5.583  14.504 -0.4713  0.1995 -0.3930
 4314TIP3    H134357   3.352   5.550  14.465 -0.8004 -0.0702 -0.8602
 4314TIP3    H234358   3.297   5.665  14.546  0.0711  0.0507 -0.4193
 4315TIP3   OH234359   6.820   3.162  11.400  0.4122  0.6899  0.2157
 4315TIP3    H134360   6.788   3.191  11.315  1.1445  1.2674  0.1281
 4315TIP3    H234361   6.915   3.168  11.393  0.5062  0.0176  0.8251
 4316TIP3   OH234362   5.370   6.089  13.504  0.3197  0.2571 -0.3086
 4316TIP3    H134363   5.361   6.161  13.442  2.6426 -1.9461 -3.6031
 4316TIP3    H234364   5.281   6.065  13.528 -0.5463  3.0695 -0.4024
 4317TIP3   OH234365   7.069   1.985   5.682  0.2374  0.3814 -0.1527
 4317TIP3    H134366   7.090   2.053   5.619  2.3703 -0.5269 -0.4759
 4317TIP3    H234367   7.006   1.928   5.637  1.1911  0.1466 -1.2073
 4318TIP3   OH234368   4.039   1.283   1.714 -0.2096 -0.4777  0.6632
 4318TIP3    H134369   3.961   1.275   1.768  1.3517 -0.8782  3.0490
 4318TIP3    H234370   4.055   1.195   1.681 -0.0647 -0.6741  1.2492
 4319TIP3   OH234371   5.660   3.950  10.688  0.6567  0.2605  0.4440
 4319TIP3    H134372   5.694   3.864  10.714  0.0023 -0.2050 -0.2235
 4319TIP3    H234373   5.571   3.952  10.723  0.6280  0.6186  0.3546
 4320TIP3   OH234374   3.211   1.517  10.523 -0.3180  0.6731 -0.4716
 4320TIP3    H134375   3.124   1.483  10.544  0.6698 -0.5245  2.2022
 4320TIP3    H234376   3.206   1.610  10.546  0.0783 -0.1438  3.7497
 4321TIP3   OH234377   0.194   5.587  14.359 -0.1986  0.4543  0.3519
 4321TIP3    H134378   0.143   5.520  14.314  3.8801 -1.9441 -1.2507
 4321TIP3    H234379   0.197   5.660  14.298 -1.2821  0.4486  0.2814
 4322TIP3   OH234380   6.800   2.094  13.585 -0.5093 -0.0523 -0.4904
 4322TIP3    H134381   6.881   2.064  13.545 -0.2592  0.1393 -0.1337
 4322TIP3    H234382   6.814   2.188  13.599 -0.9326  0.0569 -0.7581
 4323TIP3   OH234383   2.470   6.364  12.024  0.2648  0.2679 -0.4395
 4323TIP3    H134384   2.481   6.425  12.096 -0.4002  0.9644 -0.9033
 4323TIP3    H234385   2.378   6.339  12.028  0.7802 -1.6696  0.4699
 4324TIP3   OH234386   3.675   3.066   0.680  0.1610  0.7597  0.0364
 4324TIP3    H134387   3.653   3.121   0.605 -0.2374  0.3274 -0.1671
 4324TIP3    H234388   3.593   3.023   0.704  0.7691 -0.9819 -0.8189
 4325TIP3   OH234389   0.357   6.259  11.056  0.0477 -0.4396  0.5023
 4325TIP3    H134390   0.442   6.215  11.049  0.5943  0.6912 -0.1525
 4325TIP3    H234391   0.375   6.341  11.101 -0.2462  0.8722 -1.6094
 4326TIP3   OH234392   5.127   3.788   9.654 -0.1433  0.0361  0.6423
 4326TIP3    H134393   5.172   3.831   9.581  0.1221 -1.1392  0.1023
 4326TIP3    H234394   5.046   3.839   9.665 -0.2821  0.1247 -0.5989
 4327TIP3   OH234395   6.876   3.033   3.873 -0.3525 -0.2375  0.3775
 4327TIP3    H134396   6.970   3.052   3.872 -0.5179  0.6464  0.7867
 4327TIP3    H234397   6.864   2.982   3.953 -0.1149 -0.9826 -0.0501
 4328TIP3   OH234398   0.131   3.173  14.219 -0.3914  0.4144 -0.1609
 4328TIP3    H134399   0.093   3.261  14.223 -0.9864  0.1157  1.3603
 4328TIP3    H234400   0.208   3.183  14.163 -0.5807  1.8521 -0.2021
 4329TIP3   OH234401   3.992   1.220  14.938  0.0981 -0.2238 -0.1873
 4329TIP3    H134402   4.042   1.290  14.895 -0.0252  0.6538  1.0633
 4329TIP3    H234403   4.037   1.206  15.021 -0.6096 -0.7695  0.1103
 4330TIP3   OH234404   6.158   3.641  14.765 -0.3104  0.1632  0.6553
 4330TIP3    H134405   6.115   3.646  14.680 -0.8664 -1.2899  0.8212
 4330TIP3    H234406   6.159   3.732  14.797 -0.4376  0.6723 -0.7071
 4331TIP3   OH234407   4.861   1.183  12.123 -0.0971  0.1849  0.0060
 4331TIP3    H134408   4.842   1.276  12.126 -1.9110 -0.1678  0.7130
 4331TIP3    H234409   4.815   1.151  12.045 -0.6058 -0.3308  0.5073
 4332TIP3   OH234410   4.550   6.328   0.085  0.4071 -0.1059  0.0098
 4332TIP3    H134411   4.534   6.234   0.086 -0.7537  0.0746  0.4516
 4332TIP3    H234412   4.470   6.366   0.121  1.1297  1.0180  0.4926
 4333TIP3   OH234413   2.009   3.233  13.948 -0.3114 -0.2844 -0.1770
 4333TIP3    H134414   2.061   3.258  13.872 -0.1754  0.4291  0.1408
 4333TIP3    H234415   1.918   3.239  13.919 -0.2347 -1.2666 -0.6536
 4334TIP3   OH234416   7.019   3.091  14.142  0.3625  0.1426  0.1459
 4334TIP3    H134417   7.041   3.040  14.064  0.3526 -0.7638  0.7246
 4334TIP3    H234418   7.103   3.129  14.169  0.6437 -0.7540  0.5453
 4335TIP3   OH234419   1.888   6.869  14.280 -0.3935  0.6463  0.5459
 4335TIP3    H134420   1.873   6.922  14.358 -0.2279  0.6382  0.5816
 4335TIP3    H234421   1.862   6.927  14.207 -2.0930  0.1249  0.6775
 4336TIP3   OH234422   1.079   6.373   9.823 -0.1733  0.5333 -0.0563
 4336TIP3    H134423   1.123   6.439   9.769 -2.3446  2.8079  0.7925
 4336TIP3    H234424   1.025   6.324   9.761  0.0157  0.8057 -0.4421
 4337TIP3   OH234425   1.407   4.725   4.732 -0.1573 -0.1829  0.3754
 4337TIP3    H134426   1.480   4.722   4.794 -0.8958  0.0575  1.2696
 4337TIP3    H234427   1.428   4.799   4.675  1.7099 -1.8139 -1.2130
 4338TIP3   OH234428   2.078   3.305  11.825  0.0536  0.0948 -0.3871
 4338TIP3    H134429   1.988   3.328  11.847 -0.2360 -1.4765  0.1885
 4338TIP3    H234430   2.073   3.213  11.799  1.4331  0.0993 -0.7173
 4339TIP3   OH234431   5.977   1.521  13.314 -0.1566  0.2577  0.0785
 4339TIP3    H134432   6.001   1.555  13.228 -0.8622  0.7492  0.0675
 4339TIP3    H234433   5.899   1.468  13.298  1.1424 -1.7530  0.0287
 4340TIP3   OH234434   4.166   3.219   3.710 -0.6809  0.1357  0.2118
 4340TIP3    H134435   4.253   3.258   3.716 -0.2103 -0.7184 -0.6271
 4340TIP3    H234436   4.122   3.270   3.642  0.3762 -1.4617 -1.8173
 4341TIP3   OH234437   1.730   0.471  11.057 -0.1091 -0.2784 -0.0473
 4341TIP3    H134438   1.665   0.406  11.031  0.7246 -0.8559 -0.7649
 4341TIP3    H234439   1.740   0.458  11.152  1.0767 -2.2135 -0.3826
 4342TIP3   OH234440   0.864   1.727  14.718 -0.0785 -0.2877  0.5182
 4342TIP3    H134441   0.927   1.661  14.748 -0.1420 -0.5482  0.0921
 4342TIP3    H234442   0.809   1.744  14.795  1.9662  1.7252  1.6553
 4343TIP3   OH234443   1.349   3.977   0.380 -0.2300 -0.7524 -0.1326
 4343TIP3    H134444   1.444   3.980   0.382 -0.1170 -2.0822 -1.6904
 4343TIP3    H234445   1.327   3.885   0.392 -1.0043 -1.5108 -5.1689
 4344TIP3   OH234446   5.090   5.823   0.220  0.9182 -0.2362  0.5694
 4344TIP3    H134447   5.014   5.777   0.253  0.4895 -0.0155 -0.0985
 4344TIP3    H234448   5.085   5.910   0.261 -0.8547  0.8455 -1.6983
 4345TIP3   OH234449   2.103   3.357   2.378 -0.4574  0.7937 -0.0405
 4345TIP3    H134450   2.038   3.310   2.430 -1.0204  1.6581  0.0610
 4345TIP3    H234451   2.182   3.303   2.383 -0.6092  0.6639  1.4040
 4346TIP3   OH234452   6.638   0.562  11.783 -0.1874 -0.4432  0.2599
 4346TIP3    H134453   6.592   0.524  11.857  0.4408  1.2038  1.5635
 4346TIP3    H234454   6.632   0.657  11.796 -0.3081 -0.0736 -1.9706
 4347TIP3   OH234455   0.168   0.170  14.391  0.0272 -0.1675  0.0084
 4347TIP3    H134456   0.209   0.087  14.414  2.3054  0.6364 -0.8900
 4347TIP3    H234457   0.140   0.207  14.474  2.5405 -0.0972  0.8893
 4348TIP3   OH234458   4.558   0.685   0.207 -0.1519  0.2669  0.2040
 4348TIP3    H134459   4.476   0.660   0.250 -0.2411  1.4022  0.7346
 4348TIP3    H234460   4.540   0.772   0.171  0.8566  0.6049  0.4742
 4349TIP3   OH234461   3.632   2.715  10.828 -0.4534  0.4802  0.4520
 4349TIP3    H134462   3.666   2.653  10.893  1.6119  0.6215 -0.4087
 4349TIP3    H234463   3.594   2.786  10.880  1.2143  0.6248  1.5398
 4350TIP3   OH234464   2.573   0.874   3.274 -0.2251 -0.3289 -0.2874
 4350TIP3    H134465   2.582   0.811   3.345  0.8635  0.5854  0.4303
 4350TIP3    H234466   2.663   0.890   3.245 -0.3253  1.7935  0.3929
 4351TIP3   OH234467   4.228   4.109  14.502  0.2556 -0.1403  0.2886
 4351TIP3    H134468   4.171   4.182  14.525  1.8139  1.2196  0.0750
 4351TIP3    H234469   4.201   4.084  14.414 -0.6028 -0.1431  0.5448
 4352TIP3   OH234470   1.159   3.774  12.673  0.6298  0.0876 -0.1845
 4352TIP3    H134471   1.213   3.805  12.601 -0.3591  0.7819 -0.6547
 4352TIP3    H234472   1.164   3.843  12.739  2.7887 -1.2322  1.1341
 4353TIP3   OH234473   2.005   3.034  15.466 -0.2249  0.5153  0.2664
 4353TIP3    H134474   2.039   3.023  15.555  3.4316  1.2893 -0.8386
 4353TIP3    H234475   1.916   3.066  15.477 -0.1008  0.0275  3.6066
 4354TIP3   OH234476   4.009   5.594  11.746 -0.2122 -0.2935  0.0032
 4354TIP3    H134477   3.929   5.543  11.757 -0.7070  0.8276  2.0832
 4354TIP3    H234478   4.008   5.620  11.654 -0.8409 -2.4797 -0.6762
 4355TIP3   OH234479   1.085   0.229  13.177  0.7789  0.5902  0.8623
 4355TIP3    H134480   1.040   0.290  13.235  1.4460  0.4737  1.5064
 4355TIP3    H234481   1.178   0.244  13.193  1.0878  2.1171 -1.7410
 4356TIP3   OH234482   0.512   2.510   0.201  0.1553  0.4293  0.1528
 4356TIP3    H134483   0.592   2.495   0.151  0.8617  2.0937  0.7110
 4356TIP3    H234484   0.539   2.568   0.273 -1.5240  0.9205  0.4356
 4357TIP3   OH234485   1.293   6.040   0.382 -0.0924 -0.6350 -0.6845
 4357TIP3    H134486   1.345   6.105   0.334  0.6810 -1.0141 -0.3692
 4357TIP3    H234487   1.296   6.069   0.473 -1.4491  0.0075 -0.8136
 4358TIP3   OH234488   3.813   2.290  13.200  0.6006  0.2326 -0.6624
 4358TIP3    H134489   3.880   2.328  13.257  0.9521 -0.6165 -0.4956
 4358TIP3    H234490   3.863   2.241  13.135  0.1538 -0.0106 -0.8228
 4359TIP3   OH234491   5.209   5.060  12.250 -0.3712  0.4801 -0.4871
 4359TIP3    H134492   5.135   5.117  12.228  0.0073  0.6217 -1.4669
 4359TIP3    H234493   5.169   4.985  12.293 -0.9237  1.2744  0.4297
 4360TIP3   OH234494   3.390   1.248   4.032  0.8060  0.5158  0.4834
 4360TIP3    H134495   3.444   1.223   3.957  0.1612  2.1465 -0.5827
 4360TIP3    H234496   3.410   1.341   4.046 -0.6472  0.7731  0.9962
 4361TIP3   OH234497   2.701   0.777   0.752  0.2261 -0.5275  0.0446
 4361TIP3    H134498   2.777   0.782   0.810  0.2155 -1.2190  0.1271
 4361TIP3    H234499   2.645   0.709   0.791 -0.0012 -0.6734 -0.5198
 4362TIP3   OH234500   5.744   0.025   9.459  0.7176  0.1625 -0.1672
 4362TIP3    H134501   5.827   0.036   9.412 -0.0012 -0.2774 -1.5805
 4362TIP3    H234502   5.701  -0.049   9.416 -0.2076  0.0775  0.8522
 4363TIP3   OH234503   6.059   3.023   0.011  0.3433 -0.0229 -0.1420
 4363TIP3    H134504   6.147   3.014  -0.027  0.8328 -0.4513  1.0351
 4363TIP3    H234505   6.065   3.100   0.067  0.0222 -0.1370  0.0508
 4364TIP3   OH234506   1.165   2.906  11.518 -0.4468 -0.1080 -0.0186
 4364TIP3    H134507   1.221   2.847  11.467 -0.7035 -0.5673  0.2220
 4364TIP3    H234508   1.082   2.859  11.525 -0.7108  0.3590  0.0341
 4365TIP3   OH234509   5.659   5.197   0.208 -0.1406  1.2660 -0.1527
 4365TIP3    H134510   5.751   5.219   0.196 -0.0916  1.0315 -0.2059
 4365TIP3    H234511   5.612   5.256   0.148 -0.0671  1.7768  0.2827
 4366TIP3   OH234512   4.293   6.223   0.489 -0.3742  0.1891  0.1228
 4366TIP3    H134513   4.283   6.132   0.515  0.0589  0.4181  1.1555
 4366TIP3    H234514   4.368   6.254   0.540  0.8450  0.5496 -1.7914
 4367TIP3   OH234515   1.217   0.846  13.202 -0.2559  0.1282  0.2825
 4367TIP3    H134516   1.156   0.777  13.176 -0.5618  1.6728 -3.8822
 4367TIP3    H234517   1.303   0.813  13.175 -0.0724  0.3823  0.5523
 4368TIP3   OH234518   6.806   5.830  11.967 -0.5247  0.3396 -1.0272
 4368TIP3    H134519   6.738   5.858  11.906 -0.5032  0.2307 -1.1014
 4368TIP3    H234520   6.803   5.895  12.037  0.7891  1.6105 -2.1016
 4369TIP3   OH234521   6.151   3.219   4.843 -0.2693  0.9109  0.1663
 4369TIP3    H134522   6.220   3.199   4.780 -1.5754 -0.4039 -0.9254
 4369TIP3    H234523   6.193   3.275   4.908  2.0862 -0.6641  0.1007
 4370TIP3   OH234524   0.554   0.007  10.891  0.1720 -0.0867 -0.1401
 4370TIP3    H134525   0.564   0.067  10.965  0.8424 -0.8144  0.3719
 4370TIP3    H234526   0.513   0.060  10.822  0.2133  0.7902  0.5001
 4371TIP3   OH234527   5.316   5.176  11.349  0.8452 -0.1382 -0.5511
 4371TIP3    H134528   5.278   5.189  11.436 -0.1377 -0.8737 -0.8541
 4371TIP3    H234529   5.409   5.195  11.361  0.2399  3.1997 -0.1008
 4372TIP3   OH234530   4.964   5.311  14.058  0.4757 -0.1248 -0.8919
 4372TIP3    H134531   4.996   5.247  13.994  0.0922  0.3066 -1.5317
 4372TIP3    H234532   4.917   5.375  14.005  0.7287  0.6063 -0.2448
 4373TIP3   OH234533   3.066   5.571  11.614 -0.1575  0.1009  0.0436
 4373TIP3    H134534   3.022   5.489  11.638 -0.1432  0.2511  0.5789
 4373TIP3    H234535   3.004   5.613  11.553  0.8941 -1.4370 -2.2446
 4374TIP3   OH234536   4.794   1.017  10.481 -0.2313  0.2183  0.2774
 4374TIP3    H134537   4.719   0.966  10.511  0.0854  1.1207  2.9409
 4374TIP3    H234538   4.763   1.108  10.484  0.8149  0.5667  0.9712
 4375TIP3   OH234539   6.524   6.677   1.456  0.7460 -0.5542  0.4954
 4375TIP3    H134540   6.581   6.637   1.521  2.5105  1.8387  0.5645
 4375TIP3    H234541   6.519   6.769   1.481 -1.2192 -0.1956 -0.9150
 4376TIP3   OH234542   3.853   5.993  13.165  0.1245  0.2626  0.1834
 4376TIP3    H134543   3.846   5.948  13.081 -0.5445  1.5751 -0.5016
 4376TIP3    H234544   3.780   5.959  13.217 -1.3472  1.6403 -0.8917
 4377TIP3   OH234545   4.184   2.109   3.229  0.1346 -0.0056 -0.1278
 4377TIP3    H134546   4.157   2.179   3.289 -0.1114 -0.3332  0.1451
 4377TIP3    H234547   4.134   2.125   3.149  1.9205  1.6339 -1.0131
 4378TIP3   OH234548   6.736   2.333   1.883  0.0179 -0.0397 -0.1864
 4378TIP3    H134549   6.822   2.345   1.923 -0.6876  0.7394  1.1957
 4378TIP3    H234550   6.718   2.417   1.841 -0.1191 -0.1558 -0.3580
 4379TIP3   OH234551   1.790   6.301   1.311 -0.3173  0.4543 -0.5022
 4379TIP3    H134552   1.846   6.316   1.234  1.1556  0.4280  0.5323
 4379TIP3    H234553   1.846   6.254   1.373 -2.0577 -1.1961 -0.1005
 4380TIP3   OH234554   7.054   0.721  15.133  0.2588  0.3554  0.1851
 4380TIP3    H134555   6.991   0.792  15.150  0.0359  0.0535  0.6539
 4380TIP3    H234556   7.032   0.689  15.046 -1.4459 -0.9639  1.0592
 4381TIP3   OH234557   1.706   2.259   3.015 -0.5077 -0.1032 -0.5194
 4381TIP3    H134558   1.679   2.276   2.925  0.8799 -2.3370 -1.4329
 4381TIP3    H234559   1.786   2.206   3.007  0.4784  0.8398  2.0341
 4382TIP3   OH234560   5.003   2.265  14.123  0.5866 -0.4524 -0.2533
 4382TIP3    H134561   4.938   2.280  14.192  1.0619 -1.5727  0.4796
 4382TIP3    H234562   5.088   2.273  14.168  0.9057 -3.4769 -0.0869
 4383TIP3   OH234563   2.738   5.923  14.030 -0.1052 -0.2074 -0.2513
 4383TIP3    H134564   2.674   5.862  13.996 -0.6185 -1.1246  2.1299
 4383TIP3    H234565   2.814   5.915  13.972 -1.1737 -1.0511 -1.5608
 4384TIP3   OH234566   3.488   2.358  13.496 -0.5738 -0.2259  0.0191
 4384TIP3    H134567   3.419   2.414  13.461 -0.9369 -0.1986  0.7586
 4384TIP3    H234568   3.523   2.312  13.419 -0.3455  0.9168 -0.5734
 4385TIP3   OH234569   6.685   1.547  15.649 -0.0036  0.4135 -0.8442
 4385TIP3    H134570   6.705   1.502  15.568 -1.2048  1.9439 -2.0537
 4385TIP3    H234571   6.716   1.636  15.636  1.6509  0.2376  1.2091
 4386TIP3   OH234572   5.974   0.064  12.648  0.4219  0.3610  0.2411
 4386TIP3    H134573   5.929   0.094  12.569 -2.4094 -0.5543  1.3634
 4386TIP3    H234574   6.014   0.143  12.684 -0.3185  1.2596 -0.8407
 4387TIP3   OH234575   6.651   0.768  10.578  0.7089 -0.2767  0.0428
 4387TIP3    H134576   6.580   0.705  10.563 -1.0138  1.2447  1.3475
 4387TIP3    H234577   6.706   0.727  10.644  0.4998 -1.0709 -0.2654
 4388TIP3   OH234578   5.569   2.702   1.870 -0.2272 -0.5167 -0.3431
 4388TIP3    H134579   5.595   2.664   1.786  0.7615 -0.9876  0.1639
 4388TIP3    H234580   5.649   2.743   1.903 -0.2423 -1.5411  1.0116
 4389TIP3   OH234581   1.160   6.987  10.571  0.3154 -0.2566 -0.2528
 4389TIP3    H134582   1.159   6.965  10.664 -0.3534  3.6840  0.8538
 4389TIP3    H234583   1.236   7.043  10.560  0.2976 -0.5074 -2.0948
 4390TIP3   OH234584   0.826   4.838   1.675  0.6003  0.0141  0.3422
 4390TIP3    H134585   0.801   4.755   1.717  1.5842 -0.3439  0.2366
 4390TIP3    H234586   0.742   4.882   1.659  0.0258 -1.1047  0.0972
 4391TIP3   OH234587   4.906   5.065   5.009  0.8424  0.5288 -0.3000
 4391TIP3    H134588   4.857   5.032   4.934 -0.2235  0.8958  0.2053
 4391TIP3    H234589   4.844   5.123   5.054  1.1158 -0.4081  1.3873
 4392TIP3   OH234590   0.715   1.092   1.143  0.1463 -0.0681  0.4597
 4392TIP3    H134591   0.629   1.052   1.130 -0.4247  1.2971 -0.2096
 4392TIP3    H234592   0.696   1.184   1.164  1.4308  0.4190 -0.3457
 4393TIP3   OH234593   2.223   2.196  15.187 -0.7848 -0.1922  0.0678
 4393TIP3    H134594   2.241   2.286  15.216  0.7022 -0.8994  1.4885
 4393TIP3    H234595   2.137   2.176  15.222  0.1758 -0.3624  2.5234
 4394TIP3   OH234596   2.346   5.721  12.643 -0.2400 -0.3939  0.3407
 4394TIP3    H134597   2.308   5.765  12.719 -1.4771  0.5702 -0.7875
 4394TIP3    H234598   2.427   5.682  12.676  1.1487  2.9936  1.4065
 4395TIP3   OH234599   1.601   3.145  13.625 -0.2802  0.6354  0.1366
 4395TIP3    H134600   1.514   3.134  13.663 -0.1670 -1.2142 -0.0509
 4395TIP3    H234601   1.586   3.149  13.530 -0.2493  1.4673  0.1633
 4396TIP3   OH234602   2.605   0.515  14.776 -0.6163 -0.1697  0.2678
 4396TIP3    H134603   2.565   0.484  14.695 -0.5800 -2.6916  1.1263
 4396TIP3    H234604   2.532   0.554  14.825 -0.8362  0.4623 -0.5548
 4397TIP3   OH234605   0.781   2.260  11.594 -0.3718 -0.4891  0.3865
 4397TIP3    H134606   0.872   2.233  11.585  0.3118  1.9878 -0.8273
 4397TIP3    H234607   0.767   2.268  11.689 -0.0069 -2.8001  0.6978
 4398TIP3   OH234608   1.530   4.588  14.982  0.2898 -0.0332 -0.3463
 4398TIP3    H134609   1.475   4.566  14.907  0.2184 -0.0292 -0.2954
 4398TIP3    H234610   1.487   4.547  15.057  0.8072 -0.7356 -0.4250
 4399TIP3   OH234611   3.337   6.419  14.211 -0.7098  0.0693 -0.0993
 4399TIP3    H134612   3.405   6.418  14.278 -2.0431  0.9515  1.3204
 4399TIP3    H234613   3.284   6.341  14.230 -0.7146 -0.0451 -0.5666
 4400TIP3   OH234614   0.769   6.057  13.865 -0.3438 -0.0391 -0.5114
 4400TIP3    H134615   0.846   6.111  13.878 -0.7245  0.4547 -0.2771
 4400TIP3    H234616   0.713   6.108  13.807 -1.2684  0.4027  0.7317
 4401TIP3   OH234617   0.550   4.103   2.162  0.7510  0.6750 -0.2529
 4401TIP3    H134618   0.643   4.100   2.142  0.8221 -0.4410  0.1702
 4401TIP3    H234619   0.544   4.155   2.242  1.0631  0.3624 -0.0228
 4402TIP3   OH234620   3.665   2.837  12.791  0.4251 -0.1505 -0.1105
 4402TIP3    H134621   3.662   2.754  12.744 -2.0036 -0.1789 -0.0488
 4402TIP3    H234622   3.609   2.896  12.741  0.1543  0.7156  1.1449
 4403TIP3   OH234623   5.485   3.204  10.241  0.0935 -0.5734 -0.3789
 4403TIP3    H134624   5.410   3.264  10.237  0.7933  0.3587  0.1037
 4403TIP3    H234625   5.534   3.222  10.161  0.5030 -0.2371 -0.0512
 4404TIP3   OH234626   6.559   6.570   9.934 -0.0231  0.8364  0.0746
 4404TIP3    H134627   6.625   6.578   9.866 -1.1598 -1.1239 -1.3650
 4404TIP3    H234628   6.476   6.563   9.887 -1.2442  2.5618  1.7965
 4405TIP3   OH234629   4.633   6.704  10.665  0.1668 -0.2558 -0.0389
 4405TIP3    H134630   4.706   6.765  10.658  0.6606 -0.9552 -1.7278
 4405TIP3    H234631   4.667   6.631  10.716  0.3285 -0.1213  0.0450
 4406TIP3   OH234632   2.072   4.854  12.248 -0.3144  0.0640 -0.1899
 4406TIP3    H134633   2.129   4.909  12.195 -1.0059 -0.8457 -1.9699
 4406TIP3    H234634   2.131   4.803  12.304  0.3256  2.9143  1.9416
 4407TIP3   OH234635   5.395   1.333   2.268  0.1394 -0.2529  0.3195
 4407TIP3    H134636   5.377   1.335   2.362  0.2525  0.3055  0.3331
 4407TIP3    H234637   5.453   1.258   2.257 -1.8273 -1.8706  0.3274
 4408TIP3   OH234638   6.305   0.722  11.968 -0.5479 -0.0744 -0.0986
 4408TIP3    H134639   6.308   0.761  11.881 -0.1397 -0.2508 -0.1674
 4408TIP3    H234640   6.249   0.646  11.958  0.3161 -0.6893 -0.4628
 4409TIP3   OH234641   1.097   2.719  10.390 -0.0976 -0.2366  0.4950
 4409TIP3    H134642   1.184   2.759  10.392 -0.1223 -0.2010  1.0127
 4409TIP3    H234643   1.108   2.640  10.338 -0.8152  2.1524 -3.7800
 4410TIP3   OH234644   3.182   3.469  14.615 -0.8505  0.1073 -0.8487
 4410TIP3    H134645   3.227   3.437  14.693  0.7488  1.1441 -1.3000
 4410TIP3    H234646   3.090   3.449  14.631 -0.3538 -1.2652  0.5166
 4411TIP3   OH234647   3.801   3.655  14.840  0.2515 -0.2228  0.2387
 4411TIP3    H134648   3.778   3.610  14.759  1.4499 -2.3511  1.0160
 4411TIP3    H234649   3.893   3.679  14.829  1.0327 -2.2924  1.6448
 4412TIP3   OH234650   0.972   4.239   0.096  0.1846  0.6264  0.0198
 4412TIP3    H134651   0.974   4.151   0.132 -1.4637  0.6784  0.3200
 4412TIP3    H234652   0.893   4.241   0.041 -0.0638  2.0319  0.3858
 4413TIP3   OH234653   6.567   3.522  12.457 -0.2273  0.6060 -0.4889
 4413TIP3    H134654   6.507   3.597  12.457 -0.3826  0.4845 -0.3595
 4413TIP3    H234655   6.571   3.495  12.366  0.5022  1.2966 -0.6714
 4414TIP3   OH234656   3.254   5.607  12.601  0.0641  0.2045 -0.0167
 4414TIP3    H134657   3.175   5.661  12.600  0.5851  0.9820  0.2042
 4414TIP3    H234658   3.267   5.581  12.510  0.2855  1.1673 -0.2699
 4415TIP3   OH234659   2.893   3.922   2.309 -0.4222 -0.6125 -0.4333
 4415TIP3    H134660   2.982   3.907   2.276 -0.9742  0.9847 -2.9781
 4415TIP3    H234661   2.897   3.897   2.401  3.0133  0.6134 -0.1017
 4416TIP3   OH234662   0.236   0.586  13.612 -0.2359 -0.3911 -0.5088
 4416TIP3    H134663   0.205   0.597  13.702  0.6866  0.5941 -0.2836
 4416TIP3    H234664   0.314   0.531  13.620 -0.3155 -0.5376 -0.7364
 4417TIP3   OH234665   5.916   2.130  15.374  0.1662 -0.2647 -0.4180
 4417TIP3    H134666   5.845   2.147  15.436 -1.3296 -0.6428 -1.9533
 4417TIP3    H234667   5.988   2.098  15.428 -1.4664 -1.6976  1.0422
 4418TIP3   OH234668   1.473   5.879  14.131 -0.7904 -0.3737 -0.4241
 4418TIP3    H134669   1.467   5.789  14.099 -3.4371 -0.3725 -0.1685
 4418TIP3    H234670   1.444   5.874  14.222  0.4664  0.5593  0.0573
 4419TIP3   OH234671   6.598   1.175   1.648  0.1240 -0.1196 -0.2721
 4419TIP3    H134672   6.564   1.139   1.566  1.7714  2.6622 -2.3321
 4419TIP3    H234673   6.666   1.113   1.675  0.1864 -0.6266 -1.5183
 4420TIP3   OH234674   0.329   0.660   0.238  0.2085  0.4380 -0.3563
 4420TIP3    H134675   0.269   0.719   0.284  0.8141  0.6242  0.2178
 4420TIP3    H234676   0.347   0.590   0.302 -0.8892 -0.6559 -1.1902
 4421TIP3   OH234677   3.990   3.462  10.155 -0.2999 -0.8227 -0.3750
 4421TIP3    H134678   4.044   3.455  10.077  0.9280 -0.0282  0.3612
 4421TIP3    H234679   3.964   3.372  10.174  1.1358 -1.3028 -0.5294
 4422TIP3   OH234680   2.399   3.255   3.640  0.0070 -0.0422  0.3705
 4422TIP3    H134681   2.485   3.218   3.623 -0.4510 -0.7865 -0.4312
 4422TIP3    H234682   2.353   3.186   3.689 -0.3269  0.1128  0.2762
 4423TIP3   OH234683   0.690   5.244   3.769  0.0043 -0.5864  0.6229
 4423TIP3    H134684   0.750   5.282   3.834 -1.2401  1.5042  0.6362
 4423TIP3    H234685   0.747   5.215   3.698  1.2119 -0.9265  1.6889
 4424TIP3   OH234686   6.044   1.791  10.841 -0.9331 -0.2889  0.3005
 4424TIP3    H134687   6.087   1.876  10.837  0.6355 -1.0512  0.3274
 4424TIP3    H234688   5.988   1.788  10.763 -1.0077  0.7605  0.3041
 4425TIP3   OH234689   6.715   0.567  14.672 -0.0442  0.4011 -0.1785
 4425TIP3    H134690   6.678   0.562  14.760  0.0178 -1.0926 -0.2095
 4425TIP3    H234691   6.640   0.587  14.616 -0.4382 -0.5335  0.0009
 4426TIP3   OH234692   5.253   1.373  11.565  0.7000 -0.1154  0.3789
 4426TIP3    H134693   5.272   1.401  11.476 -0.0133  0.2015  0.3221
 4426TIP3    H234694   5.292   1.286  11.571 -0.2298 -0.6301 -0.6254
 4427TIP3   OH234695   5.188   2.357  11.008  0.0303  0.3394 -0.5493
 4427TIP3    H134696   5.184   2.344  10.914  1.6010 -1.2748 -0.4377
 4427TIP3    H234697   5.124   2.427  11.025 -1.8171 -0.7353 -2.5166
 4428TIP3   OH234698   5.054   1.209   5.460  0.1851 -0.1073  0.1587
 4428TIP3    H134699   5.066   1.278   5.395  0.8132  0.2448  0.6403
 4428TIP3    H234700   4.968   1.226   5.498  0.9345  1.3191  1.3171
 4429TIP3   OH234701   1.549   3.381  11.268 -0.2421  0.3201  0.2181
 4429TIP3    H134702   1.509   3.303  11.230  1.6258  0.0237 -1.3174
 4429TIP3    H234703   1.560   3.359  11.361 -0.0042 -1.1547 -0.1287
 4430TIP3   OH234704   5.584   1.737   5.174 -0.1353  0.3042 -0.1063
 4430TIP3    H134705   5.630   1.711   5.094 -2.8549  1.2615 -2.1278
 4430TIP3    H234706   5.615   1.826   5.192 -0.4917  0.6096 -0.9449
 4431TIP3   OH234707   0.818   4.787  10.498 -0.1949 -0.5026 -0.1380
 4431TIP3    H134708   0.770   4.730  10.558 -1.8249  1.0567  0.1245
 4431TIP3    H234709   0.866   4.847  10.555  0.6496 -0.9078 -0.4107
 4432TIP3   OH234710   2.037   5.910  11.292  0.1386 -0.0545  0.0625
 4432TIP3    H134711   2.014   5.819  11.276 -2.7276  0.4336  0.9159
 4432TIP3    H234712   1.955   5.952  11.319  1.3805  2.7568 -0.1397
 4433TIP3   OH234713   2.204   2.171  11.270 -0.1471 -0.1134  0.1437
 4433TIP3    H134714   2.161   2.090  11.298  1.0013  0.1594  3.1051
 4433TIP3    H234715   2.186   2.233  11.340  2.1378  1.0251 -0.1941
 4434TIP3   OH234716   1.186   0.270  14.165  0.7129  0.1431 -0.3300
 4434TIP3    H134717   1.268   0.221  14.160  0.5783 -0.0106 -1.1717
 4434TIP3    H234718   1.160   0.282  14.074 -0.7669 -0.7814 -0.0575
 4435TIP3   OH234719   6.590   4.496   9.535  0.7936  0.4370  0.1701
 4435TIP3    H134720   6.559   4.536   9.616 -0.0989 -0.8961  0.5273
 4435TIP3    H234721   6.612   4.570   9.479  1.6944  1.3832  1.7039
 4436TIP3   OH234722   6.091   1.715   1.900  0.0559  0.6356  0.5499
 4436TIP3    H134723   6.074   1.650   1.968  2.1590  1.2060  1.7042
 4436TIP3    H234724   6.099   1.663   1.820  0.6195 -0.4257  1.2598
 4437TIP3   OH234725   2.833   6.547   0.527 -0.4348 -0.0248 -0.1910
 4437TIP3    H134726   2.854   6.613   0.593 -0.1358  2.0870 -2.2295
 4437TIP3    H234727   2.772   6.487   0.569  0.4891  0.6442  2.2417
 4438TIP3   OH234728   2.605   2.218  13.515  0.4732  0.5259 -0.2270
 4438TIP3    H134729   2.561   2.303  13.521 -0.3779  0.1315 -0.6784
 4438TIP3    H234730   2.584   2.187  13.427  1.4016  0.1752 -0.3353
 4439TIP3   OH234731   4.791   5.753  12.885 -0.4856 -0.2962 -0.2203
 4439TIP3    H134732   4.699   5.728  12.894 -0.6321  0.3016  0.0036
 4439TIP3    H234733   4.835   5.673  12.857 -1.1455 -0.4770 -0.7548
 4440TIP3   OH234734   2.456   5.921   5.053  0.5887 -0.6470  0.3430
 4440TIP3    H134735   2.436   5.987   5.119 -0.0884 -0.7695  0.2639
 4440TIP3    H234736   2.509   5.856   5.100 -0.2668 -0.9643  0.8925
 4441TIP3   OH234737   5.289   6.859  14.165 -0.6928  0.4461  0.2318
 4441TIP3    H134738   5.251   6.943  14.189  0.4572  1.4168 -1.2477
 4441TIP3    H234739   5.214   6.799  14.162 -1.5924  1.5133  0.7715
 4442TIP3   OH234740   5.239   2.831  13.292 -0.8683  0.0046 -0.4449
 4442TIP3    H134741   5.297   2.756  13.281 -0.4136  0.3713 -0.5576
 4442TIP3    H234742   5.267   2.894  13.226 -0.3710  0.8221  0.5140
 4443TIP3   OH234743   6.998   1.026   2.083  0.0324 -0.3603 -0.2593
 4443TIP3    H134744   7.031   0.936   2.082  1.2172  0.0578 -1.0536
 4443TIP3    H234745   6.912   1.021   2.042  0.1514 -1.1166 -0.4309
 4444TIP3   OH234746   2.573   6.440   0.970  0.0419  0.9068 -0.5420
 4444TIP3    H134747   2.653   6.457   0.921  0.3601 -3.0679 -1.7325
 4444TIP3    H234748   2.603   6.415   1.058 -0.0803  1.7043 -0.2683
 4445TIP3   OH234749   2.266   4.497  13.545  0.0487 -0.0302  0.1171
 4445TIP3    H134750   2.170   4.491  13.545 -0.0283  1.0612 -0.0540
 4445TIP3    H234751   2.285   4.584  13.579  0.9342  0.2775 -1.0847
 4446TIP3   OH234752   1.372   0.796  10.709 -0.2194 -0.0576 -0.0916
 4446TIP3    H134753   1.330   0.744  10.641  0.9102  0.1472 -0.9665
 4446TIP3    H234754   1.305   0.862  10.732 -0.8727 -0.5677 -0.4850
 4447TIP3   OH234755   1.800   6.620  10.742 -0.5357 -0.3757 -0.7469
 4447TIP3    H134756   1.705   6.632  10.749 -0.3110  1.0545  0.3193
 4447TIP3    H234757   1.819   6.547  10.801 -0.9446 -0.6071 -0.8933
 4448TIP3   OH234758   6.010   1.193   1.255  0.2546 -0.0823  0.4021
 4448TIP3    H134759   5.989   1.109   1.295 -3.0862  0.3307 -0.1819
 4448TIP3    H234760   6.082   1.174   1.195 -0.4412 -2.5486  0.2521
 4449TIP3   OH234761   0.231   6.451  10.673  0.4574 -0.7285  0.0885
 4449TIP3    H134762   0.298   6.484  10.613  0.2589  0.1154  0.3169
 4449TIP3    H234763   0.211   6.363  10.640  0.8638 -0.5565 -0.6535
 4450TIP3   OH234764   1.583   7.072  15.632 -0.4881 -0.3108  0.4864
 4450TIP3    H134765   1.601   6.983  15.662  1.5239  0.3691  1.4792
 4450TIP3    H234766   1.651   7.125  15.673 -1.0637  1.5506 -0.8462
 4451TIP3   OH234767   1.663   0.779   2.025 -0.2103  0.1950 -0.6256
 4451TIP3    H134768   1.630   0.787   2.115 -0.8511 -0.4324 -0.8058
 4451TIP3    H234769   1.645   0.864   1.985 -0.2922  0.3377 -0.2879
 4452TIP3   OH234770   6.897   0.403  11.869 -0.0593  0.2162 -0.0128
 4452TIP3    H134771   6.946   0.420  11.949 -0.9915 -0.8537  0.8174
 4452TIP3    H234772   6.808   0.383  11.899 -0.6179  0.5270 -1.3696
 4453TIP3   OH234773   5.514   0.011  11.257  0.5918  0.4848  0.5834
 4453TIP3    H134774   5.442   0.016  11.319  1.3578  2.0139  1.3843
 4453TIP3    H234775   5.494   0.078  11.192  0.1594 -0.6280 -0.4863
 4454TIP3   OH234776   5.351   1.516   4.840  0.5960  0.3114 -0.3448
 4454TIP3    H134777   5.382   1.432   4.807  0.4697  0.2197 -0.2288
 4454TIP3    H234778   5.256   1.514   4.826  0.2849 -0.4568  1.6524
 4455TIP3   OH234779   1.622   5.999  13.945  0.0327 -0.1960  0.5682
 4455TIP3    H134780   1.698   5.940  13.949  0.3380  0.2561  3.0253
 4455TIP3    H234781   1.557   5.959  14.003 -1.3653 -0.1656 -0.8998
 4456TIP3   OH234782   2.377   5.480   1.054  0.1282  0.6545  0.0210
 4456TIP3    H134783   2.376   5.386   1.036 -0.4123  0.3941  1.3169
 4456TIP3    H234784   2.411   5.519   0.974 -0.7178 -0.5574 -0.9744
 4457TIP3   OH234785   3.526   0.724   3.643 -0.7980 -0.4762  0.0204
 4457TIP3    H134786   3.588   0.720   3.716  0.6884 -1.9799 -1.2403
 4457TIP3    H234787   3.566   0.784   3.580 -1.2813 -0.4050 -0.2227
 4458TIP3   OH234788   4.746   0.478  12.136 -0.2028  0.1225  0.8027
 4458TIP3    H134789   4.664   0.526  12.130 -0.9833 -1.2143  0.3909
 4458TIP3    H234790   4.768   0.479  12.229 -0.6404  0.5455  0.9040
 4459TIP3   OH234791   1.843   3.096  15.028  0.0212 -0.5740 -0.0493
 4459TIP3    H134792   1.751   3.081  15.002  0.0913 -1.4662  0.1908
 4459TIP3    H234793   1.855   3.041  15.105  1.1941 -1.6577 -0.9764
 4460TIP3   OH234794   3.192   4.776  11.711  0.1513 -0.0428 -0.0258
 4460TIP3    H134795   3.176   4.764  11.617 -0.8126 -0.7878  0.2074
 4460TIP3    H234796   3.284   4.801  11.717  0.6548 -1.4763 -1.0685
 4461TIP3   OH234797   3.889   5.997   4.216 -0.4969  0.3650 -0.0699
 4461TIP3    H134798   3.862   6.086   4.194  0.0463  0.8429  1.1011
 4461TIP3    H234799   3.903   5.999   4.311  0.8504 -0.5977 -0.2167
 4462TIP3   OH234800   5.566   0.399   5.722 -0.7800 -0.3618 -0.2039
 4462TIP3    H134801   5.611   0.424   5.641 -1.5225  0.1264 -0.4668
 4462TIP3    H234802   5.562   0.304   5.718 -0.2657 -0.3788 -0.4439
 4463TIP3   OH234803   1.913   2.522  14.817  0.3469 -0.1046 -0.0371
 4463TIP3    H134804   1.969   2.498  14.891  1.6330 -0.2667 -1.0453
 4463TIP3    H234805   1.895   2.615  14.830  1.8036  0.2402 -0.2959
 4464TIP3   OH234806   0.977   4.439   0.731 -0.5328  0.4826 -0.0808
 4464TIP3    H134807   0.887   4.429   0.699 -0.9344 -0.9536  1.3735
 4464TIP3    H234808   0.987   4.370   0.797  1.9131  0.0595 -0.7951
 4465TIP3   OH234809   4.139   0.061  10.200  0.4384 -0.1779  1.1425
 4465TIP3    H134810   4.059   0.070  10.149 -0.4292 -1.7824  2.1283
 4465TIP3    H234811   4.209   0.055  10.135 -0.2054  1.3303  0.2729
 4466TIP3   OH234812   3.898   2.942  14.770 -0.3060  0.5465 -0.2620
 4466TIP3    H134813   3.856   3.021  14.736  0.3613  0.1774 -2.0928
 4466TIP3    H234814   3.979   2.974  14.810 -1.5383  1.0911  1.9185
 4467TIP3   OH234815   4.340   0.308  15.615  0.1339  0.7218  0.2302
 4467TIP3    H134816   4.310   0.261  15.693  1.3869  0.4860  0.5973
 4467TIP3    H234817   4.260   0.339  15.573 -0.5960  0.2522  1.2363
 4468TIP3   OH234818   6.086   1.469   3.056  0.3190  0.0809  0.3967
 4468TIP3    H134819   6.073   1.421   3.138  1.2416 -1.6951 -0.4391
 4468TIP3    H234820   6.137   1.409   3.001  2.8381  2.5833 -0.2043
 4469TIP3   OH234821   1.349   1.441   1.910  0.0788 -0.2207  0.0429
 4469TIP3    H134822   1.430   1.437   1.962 -0.7240 -2.1612  1.2578
 4469TIP3    H234823   1.376   1.418   1.821  1.2333  1.6431 -0.1461
 4470TIP3   OH234824   7.043   5.020   1.182 -0.0416 -0.0616 -0.0375
 4470TIP3    H134825   7.064   4.927   1.176  0.7451  0.1204 -0.2577
 4470TIP3    H234826   7.047   5.039   1.276  0.2793 -0.1498 -0.0296
 4471TIP3   OH234827   7.077   4.142   9.932 -0.2181 -0.5310  0.3295
 4471TIP3    H134828   7.052   4.162   9.842  1.5396  0.9780  0.1186
 4471TIP3    H234829   7.015   4.191   9.986  0.9707  1.5963 -0.1482
 4472TIP3   OH234830   5.503   6.328  12.849  0.3325  0.7622 -0.0071
 4472TIP3    H134831   5.478   6.283  12.930 -2.0754 -0.5524 -1.3455
 4472TIP3    H234832   5.544   6.261  12.795  2.0446  1.6575  0.1055
 4473TIP3   OH234833   5.245   4.441  14.820 -0.2149 -0.4355  0.1679
 4473TIP3    H134834   5.201   4.429  14.735 -2.7089 -0.7529  1.3897
 4473TIP3    H234835   5.260   4.352  14.851  2.7221 -0.3746 -0.8015
 4474TIP3   OH234836   2.853   5.200  12.469  0.4104 -0.0662  0.0177
 4474TIP3    H134837   2.795   5.127  12.493 -0.7319  0.6758 -0.4191
 4474TIP3    H234838   2.805   5.247  12.401  1.1798  1.0375  0.2160
 4475TIP3   OH234839   5.017   2.572  11.025 -0.2367 -0.6128 -0.0718
 4475TIP3    H134840   5.076   2.635  10.984  0.2532 -1.2846 -0.4001
 4475TIP3    H234841   4.949   2.627  11.065 -0.8631  0.0743 -1.9425
 4476TIP3   OH234842   4.344   3.235   2.014 -0.4810 -0.5999  0.2444
 4476TIP3    H134843   4.337   3.267   2.104 -0.7320 -0.6698  0.2521
 4476TIP3    H234844   4.389   3.151   2.022  0.2241 -0.2327  0.2185
 4477TIP3   OH234845   5.059   3.890   4.322  0.3400 -0.2946 -0.4272
 4477TIP3    H134846   5.072   3.971   4.272  0.2975  0.4341  0.6857
 4477TIP3    H234847   5.033   3.921   4.409  0.8329 -1.5022  0.1651
 4478TIP3   OH234848   1.327   6.994  10.923  0.8542  0.2174 -0.1542
 4478TIP3    H134849   1.322   6.909  10.880  0.1737 -0.0441  0.4080
 4478TIP3    H234850   1.284   6.980  11.008  0.5358  1.1760 -0.1455
 4479TIP3   OH234851   1.831   0.909   0.433 -0.5515  0.1626  0.1109
 4479TIP3    H134852   1.798   0.917   0.344 -0.7653 -0.0805  0.1662
 4479TIP3    H234853   1.753   0.897   0.487 -0.5517  1.8686  0.5295
 4480TIP3   OH234854   4.553   3.884  13.640  0.1892 -0.4525 -0.1873
 4480TIP3    H134855   4.616   3.840  13.697  0.2757 -0.6348 -0.4214
 4480TIP3    H234856   4.476   3.827  13.641 -0.5932  0.5790  1.3890
 4481TIP3   OH234857   4.713   5.966   4.934 -0.0596 -0.1270  0.6338
 4481TIP3    H134858   4.746   5.876   4.930 -1.3380 -0.6087  0.6039
 4481TIP3    H234859   4.682   5.984   4.845 -0.9409 -0.1082  0.9346
 4482TIP3   OH234860   0.463   3.070   9.937  0.0261  0.2665 -0.0296
 4482TIP3    H134861   0.525   3.000   9.917 -0.4083 -0.3466  0.6716
 4482TIP3    H234862   0.400   3.069   9.864  0.2176  0.1523 -0.1928
 4483TIP3   OH234863   0.545   3.057  15.034  0.3803 -0.1646 -0.0581
 4483TIP3    H134864   0.457   3.068  15.070  0.4531 -0.5683  0.2595
 4483TIP3    H234865   0.598   3.029  15.109  0.6385 -0.5415 -0.3756
 4484TIP3   OH234866   6.068   0.514  13.537  0.9086  0.2092 -0.2769
 4484TIP3    H134867   5.978   0.521  13.505  1.1370  3.8612 -0.5662
 4484TIP3    H234868   6.060   0.466  13.620 -1.4730  1.2767  0.2117
 4485TIP3   OH234869   0.422   2.894   0.738 -0.4846 -0.1850  0.2966
 4485TIP3    H134870   0.353   2.888   0.804  0.8087 -3.0166  1.6011
 4485TIP3    H234871   0.403   2.823   0.677  0.4150 -0.0225 -0.1929
 4486TIP3   OH234872   4.133   7.047  12.281  0.1162  0.1697 -0.2636
 4486TIP3    H134873   4.039   7.028  12.283  0.4994 -1.9969 -0.2891
 4486TIP3    H234874   4.157   7.060  12.373 -0.2521  1.1238 -0.2904
 4487TIP3   OH234875   1.038   3.584  13.379 -0.0856 -0.1320 -0.3708
 4487TIP3    H134876   1.009   3.542  13.298  0.9646  0.5798 -1.1425
 4487TIP3    H234877   0.987   3.665  13.383  0.1731  0.0435 -0.5614
 4488TIP3   OH234878   4.269   2.971  15.353  0.1654  0.8751  0.2639
 4488TIP3    H134879   4.233   2.984  15.266  0.7885  1.6873  0.1200
 4488TIP3    H234880   4.309   3.055  15.376 -0.3338  0.8032  1.4934
 4489TIP3   OH234881   6.250   5.145  13.531 -0.2580  0.3829  0.1500
 4489TIP3    H134882   6.211   5.117  13.448 -0.7944 -0.7405  0.7588
 4489TIP3    H234883   6.178   5.186  13.579 -0.1254  0.3879  0.3463
 4490TIP3   OH234884   5.517   6.375  10.824 -0.6496 -0.6710 -0.0582
 4490TIP3    H134885   5.540   6.287  10.852  0.9436 -0.7378 -1.4036
 4490TIP3    H234886   5.442   6.363  10.765 -0.0262 -1.2244 -0.7569
 4491TIP3   OH234887   2.647   7.071  11.869  0.0393  0.4439 -0.0887
 4491TIP3    H134888   2.649   6.993  11.814 -0.2980 -1.5885  2.5685
 4491TIP3    H234889   2.565   7.115  11.847  0.0597 -0.1395 -1.3834
 4492TIP3   OH234890   5.978   0.589  12.862  0.1046  0.1577 -0.0515
 4492TIP3    H134891   6.048   0.654  12.863  0.0517  0.2417  1.6714
 4492TIP3    H234892   5.906   0.632  12.908 -0.2207 -0.8091  0.3563
 4493TIP3   OH234893   1.767   4.270  10.754  0.1282  0.5036 -0.5303
 4493TIP3    H134894   1.725   4.186  10.774  0.6532  0.7778  1.9483
 4493TIP3    H234895   1.725   4.298  10.672 -2.9745 -0.2344  0.6708
 4494TIP3   OH234896   1.875   4.981   5.161 -0.3543  0.3600  0.6602
 4494TIP3    H134897   1.909   5.070   5.177 -2.4714  1.2441  0.5874
 4494TIP3    H234898   1.819   4.991   5.084  0.4792 -1.3743 -0.2041
 4495TIP3   OH234899   1.672   3.225   1.481 -0.2018  0.3065  0.5523
 4495TIP3    H134900   1.631   3.151   1.525 -1.2584  0.2850 -0.3918
 4495TIP3    H234901   1.679   3.197   1.389 -1.1189  1.5488  0.0708
 4496TIP3   OH234902   2.436   3.195   2.661 -0.0666  0.1374  0.6700
 4496TIP3    H134903   2.390   3.186   2.577  2.3617  2.3690 -1.0493
 4496TIP3    H234904   2.448   3.104   2.691  2.8712 -1.2882 -3.7430
 4497TIP3   OH234905   4.593   5.544   5.347 -0.7135 -0.0378  0.4256
 4497TIP3    H134906   4.665   5.603   5.325 -1.3755  0.4844 -0.3924
 4497TIP3    H234907   4.615   5.511   5.435 -0.1474  1.1350  0.7411
 4498TIP3   OH234908   6.857   0.186  13.617  0.0747  0.2855  0.1757
 4498TIP3    H134909   6.873   0.118  13.552  1.8217 -0.4742  1.3430
 4498TIP3    H234910   6.892   0.266  13.577  0.3064  0.0076 -0.1850
 4499TIP3   OH234911   0.660   6.777  12.766 -0.2211  0.5668 -0.4614
 4499TIP3    H134912   0.587   6.733  12.722  1.0489 -1.9403 -0.2428
 4499TIP3    H234913   0.620   6.850  12.811 -2.2970  0.3976 -1.8950
 4500TIP3   OH234914   5.742   6.625  15.049  0.0293  0.0648 -0.1133
 4500TIP3    H134915   5.705   6.596  15.133  2.2241 -0.3368  0.7835
 4500TIP3    H234916   5.811   6.687  15.074 -0.3414  1.1893 -1.7377
 4501TIP3   OH234917   4.577   3.041  10.567 -0.3131 -0.4931  0.3579
 4501TIP3    H134918   4.510   2.994  10.518  1.3153 -2.7339  0.1221
 4501TIP3    H234919   4.630   2.973  10.607  2.6733  1.0487 -0.6431
 4502TIP3   OH234920   5.395   5.823   9.855 -0.2937 -0.1566 -0.4979
 4502TIP3    H134921   5.413   5.783   9.770 -0.5079 -0.2493 -0.5016
 4502TIP3    H234922   5.476   5.868   9.878 -0.3054  0.0489 -0.8503
 4503TIP3   OH234923   2.044   0.861  12.940 -0.5947 -0.3992  0.0578
 4503TIP3    H134924   2.000   0.934  12.983  0.9867 -0.4627  1.9040
 4503TIP3    H234925   1.973   0.801  12.917 -1.8784  1.4636 -1.1352
 4504TIP3   OH234926   6.840   5.093  11.865  0.4572  0.2737  0.3795
 4504TIP3    H134927   6.914   5.060  11.915  0.8820  0.4014 -0.1456
 4504TIP3    H234928   6.846   5.188  11.874 -0.5893  0.2471  1.6475
 4505TIP3   OH234929   4.483   3.355  14.901  0.4634  0.3578 -0.2761
 4505TIP3    H134930   4.464   3.290  14.969  4.0233 -1.0502 -0.3733
 4505TIP3    H234931   4.579   3.357  14.897  0.4634  0.8746 -4.7463
 4506TIP3   OH234932   0.754   5.243   2.473 -0.2785  0.1372  0.0299
 4506TIP3    H134933   0.757   5.319   2.531 -0.3854 -0.3914  0.7389
 4506TIP3    H234934   0.661   5.226   2.460 -0.2682 -0.4280  0.6288
 4507TIP3   OH234935   6.054   5.244  10.108 -0.1550  0.3524  0.1517
 4507TIP3    H134936   6.002   5.165  10.120 -0.4275  0.5880  0.5223
 4507TIP3    H234937   6.103   5.254  10.190  0.8459 -0.1281 -0.3588
 4508TIP3   OH234938   2.964   0.092  12.899 -0.1536 -0.2698  0.1634
 4508TIP3    H134939   2.933   0.069  12.987  1.4259  1.0966  1.1418
 4508TIP3    H234940   3.051   0.052  12.893  0.4953  1.1078 -0.0553
 4509TIP3   OH234941   2.997   6.581   4.959 -0.7290  0.0045  0.4448
 4509TIP3    H134942   3.025   6.671   4.973 -1.2257  0.3587 -0.7508
 4509TIP3    H234943   3.075   6.536   4.926 -0.2306 -0.2502  1.8763
 4510TIP3   OH234944   5.843   3.024   9.899 -0.0041 -0.8007  0.2105
 4510TIP3    H134945   5.883   3.061   9.978 -0.1149 -0.5716  0.1597
 4510TIP3    H234946   5.806   3.099   9.854 -0.8130 -1.0525  0.4418
 4511TIP3   OH234947   5.221   3.159  10.001 -0.1369 -0.3013 -0.2623
 4511TIP3    H134948   5.310   3.130   9.981 -0.4119 -1.9038  0.6586
 4511TIP3    H234949   5.168   3.123   9.930 -0.3624 -1.3940  0.4423
 4512TIP3   OH234950   1.304   0.992   9.501 -0.2942 -0.3429  0.5995
 4512TIP3    H134951   1.346   1.074   9.524 -1.7894  0.3971  0.8235
 4512TIP3    H234952   1.336   0.972   9.413  1.0221 -0.1815  1.0202
 4513TIP3   OH234953   2.213   2.166  12.661 -0.6279  0.7449 -0.0569
 4513TIP3    H134954   2.179   2.117  12.586  1.7167 -0.0274 -0.7352
 4513TIP3    H234955   2.218   2.101  12.732  2.1159 -0.0672 -0.8456
 4514TIP3   OH234956   1.306   3.824  11.056  0.1053 -0.4433  0.1608
 4514TIP3    H134957   1.393   3.855  11.079 -0.1711 -0.4723  1.3082
 4514TIP3    H234958   1.301   3.736  11.095 -0.8688  0.0541  1.2392
 4515TIP3   OH234959   7.025   6.801  12.665 -0.1277 -0.4416  0.4779
 4515TIP3    H134960   7.023   6.897  12.659  0.5785 -0.3214  1.6960
 4515TIP3    H234961   7.118   6.779  12.668 -0.2903 -1.1324  0.6363
 4516TIP3   OH234962   3.151   6.832  11.177  0.8862  0.8576  0.7036
 4516TIP3    H134963   3.089   6.888  11.224 -0.1500 -0.8875  1.5293
 4516TIP3    H234964   3.118   6.744  11.191  0.7103  0.1742 -3.0860
 4517TIP3   OH234965   1.912   3.266   2.537 -0.1220  0.7816 -0.5004
 4517TIP3    H134966   1.944   3.293   2.624 -0.2546  1.9730 -0.8099
 4517TIP3    H234967   1.839   3.207   2.556  0.0925  0.7218  0.1963
 4518TIP3   OH234968   6.752   6.705  12.916 -0.6555  0.5770 -0.0936
 4518TIP3    H134969   6.698   6.742  12.985 -0.7071  0.0223  0.1728
 4518TIP3    H234970   6.696   6.704  12.839 -0.5543  1.3199 -0.1765
 4519TIP3   OH234971   1.807   3.658  12.133  0.2160  0.2527  0.3187
 4519TIP3    H134972   1.726   3.645  12.084 -0.0990 -0.3213  0.9848
 4519TIP3    H234973   1.815   3.753  12.140  0.4234  0.3727 -1.0892
 4520TIP3   OH234974   5.529   6.560  15.622  0.7217  0.5894 -0.0797
 4520TIP3    H134975   5.457   6.609  15.660 -1.4221 -0.8792 -1.9979
 4520TIP3    H234976   5.575   6.624  15.567  0.0901  1.2352  0.1298
 4521TIP3   OH234977   1.911   2.849   1.440  0.3647  0.2944  0.4559
 4521TIP3    H134978   1.841   2.784   1.443 -0.6330  1.2884 -0.1818
 4521TIP3    H234979   1.895   2.905   1.516 -0.1164  1.0743 -0.2017
 4522TIP3   OH234980   4.326   1.411   1.687  0.1670 -0.2391  0.3109
 4522TIP3    H134981   4.253   1.470   1.669  0.2848  0.2135  1.2467
 4522TIP3    H234982   4.286   1.324   1.689 -0.0847 -0.1580 -0.6284
 4523TIP3   OH234983   6.678   0.579  12.614  0.0430 -0.5766 -0.1906
 4523TIP3    H134984   6.769   0.580  12.583 -0.1833 -1.0465 -0.9015
 4523TIP3    H234985   6.636   0.652  12.568 -0.1667 -0.9524 -0.6042
 4524TIP3   OH234986   5.078   2.522  13.181 -0.4195 -0.7549  0.2819
 4524TIP3    H134987   5.013   2.498  13.248 -0.1035 -1.3694  0.3722
 4524TIP3    H234988   5.137   2.447  13.177 -1.9026 -1.9431 -2.5524
 4525TIP3   OH234989   0.336   6.321  15.445  0.1590  0.1645  0.1743
 4525TIP3    H134990   0.310   6.342  15.356  1.7260  1.4774 -0.0178
 4525TIP3    H234991   0.388   6.241  15.438  2.8836  1.8833 -0.5973
 4526TIP3   OH234992   2.299   6.905  12.910  0.4016 -0.2497 -0.6111
 4526TIP3    H134993   2.392   6.894  12.932  0.4513 -3.3549 -1.8813
 4526TIP3    H234994   2.253   6.852  12.974 -0.5829  1.3481  0.0646
 4527TIP3   OH234995   3.820   4.347  10.131  0.9341  0.1188  0.4147
 4527TIP3    H134996   3.841   4.277  10.191  0.7515 -0.0232  0.3130
 4527TIP3    H234997   3.831   4.427  10.182 -0.8938 -0.0475  1.1724
 4528TIP3   OH234998   2.373   1.697  12.311  0.1851  0.0849 -0.2645
 4528TIP3    H134999   2.294   1.750  12.322 -0.0959 -0.4821  0.5446
 4528TIP3    H235000   2.372   1.673  12.218  0.1781  1.2603 -0.5882
 4529TIP3   OH235001   5.533   3.695   0.746  0.0785 -0.5715 -0.5751
 4529TIP3    H135002   5.539   3.746   0.666  0.3068  1.7820  0.8385
 4529TIP3    H235003   5.466   3.739   0.798 -1.9547 -3.5283 -0.4120
 4530TIP3   OH235004   4.398   2.631  11.868  0.2330 -0.0902 -0.2693
 4530TIP3    H135005   4.372   2.541  11.849 -1.4056  0.3848 -0.3980
 4530TIP3    H235006   4.357   2.651  11.952  0.1482  0.7053 -0.4876
 4531TIP3   OH235007   6.980   2.341  10.663 -0.3238 -0.0539  0.8985
 4531TIP3    H135008   6.986   2.346  10.758  0.9131 -1.3077  0.9183
 4531TIP3    H235009   6.886   2.344  10.644 -0.5663  0.6386  2.1090
 4532TIP3   OH235010   4.423   0.736   3.221 -0.1501 -0.0081 -0.0334
 4532TIP3    H135011   4.456   0.646   3.220  2.0049  0.7290 -0.2221
 4532TIP3    H235012   4.394   0.753   3.131 -0.0044 -0.3069 -0.1366
 4533TIP3   OH235013   4.582   4.465  10.353  0.1084  0.2614  0.4619
 4533TIP3    H135014   4.524   4.523  10.403  0.9327 -1.0072  3.0696
 4533TIP3    H235015   4.645   4.524  10.313 -0.7245  1.3711  0.7261
 4534TIP3   OH235016   4.222   1.983   3.757 -0.0253 -0.3967  0.6011
 4534TIP3    H135017   4.267   2.061   3.790 -0.0986  0.2380 -0.7147
 4534TIP3    H235018   4.140   1.979   3.807  0.3050 -0.0545  1.1796
 4535TIP3   OH235019   3.776   1.163  10.710  0.1344  0.7830  0.1433
 4535TIP3    H135020   3.785   1.073  10.743  0.2462  0.0519 -1.7439
 4535TIP3    H235021   3.777   1.153  10.615 -1.8794  2.5863 -0.1235
 4536TIP3   OH235022   0.112   2.727  10.802  0.4749 -0.1638 -0.3711
 4536TIP3    H135023   0.038   2.683  10.760 -1.4679  3.0409 -0.5776
 4536TIP3    H235024   0.084   2.742  10.892  1.2400  0.3429 -0.2060
 4537TIP3   OH235025   0.546   6.416   9.588 -0.0506  0.0225  0.2979
 4537TIP3    H135026   0.512   6.328   9.608  0.2594 -0.0772  0.3984
 4537TIP3    H235027   0.468   6.470   9.576 -0.2661 -0.4738 -0.6905
 4538TIP3   OH235028   3.661   0.991  14.513 -0.4477  0.0110  0.6422
 4538TIP3    H135029   3.591   0.980  14.578 -0.0798 -0.1801  1.0117
 4538TIP3    H235030   3.698   1.077  14.532 -1.8876  1.0212 -0.8465
 4539TIP3   OH235031   6.684   6.501  13.468  0.1691 -0.1132  0.3174
 4539TIP3    H135032   6.738   6.580  13.463  0.4447 -0.3483 -0.6993
 4539TIP3    H235033   6.646   6.503  13.556  1.0845  0.5486  0.7154
 4540TIP3   OH235034   3.358   1.541  13.234  0.2231 -0.0250 -0.1085
 4540TIP3    H135035   3.325   1.507  13.152 -0.8340  0.7744 -0.0366
 4540TIP3    H235036   3.357   1.636  13.223  1.0505  0.0696  0.4670
 4541TIP3   OH235037   4.782   6.346  15.602 -0.6525  0.3713  0.6957
 4541TIP3    H135038   4.705   6.332  15.658 -0.2365  0.2450  1.2367
 4541TIP3    H235039   4.754   6.314  15.516 -1.3588  0.7487  0.7776
 4542TIP3   OH235040   2.407   0.914  10.324 -0.2199  0.1319 -0.4111
 4542TIP3    H135041   2.361   0.859  10.387 -0.4417 -1.6388 -2.0422
 4542TIP3    H235042   2.444   0.985  10.377 -1.1468 -0.7737  1.5564
 4543TIP3   OH235043   2.145   0.645   2.867  0.2220  0.0195 -0.2288
 4543TIP3    H135044   2.198   0.655   2.788  1.8876 -0.3291  0.7796
 4543TIP3    H235045   2.208   0.622   2.935 -1.3055 -0.7900  0.9810
 4544TIP3   OH235046   4.457   5.485  12.352 -0.4912 -0.3643  0.3814
 4544TIP3    H135047   4.388   5.420  12.338 -0.4827  0.0030 -1.6728
 4544TIP3    H235048   4.523   5.465  12.285 -0.0214  1.1223  0.3666
 4545TIP3   OH235049   1.401   5.359   4.786  0.1549  0.3310  0.3975
 4545TIP3    H135050   1.397   5.282   4.842  1.1805  0.2968  0.4470
 4545TIP3    H235051   1.401   5.323   4.697 -1.2400  0.3746  0.3619
 4546TIP3   OH235052   6.872   4.267   2.346 -0.7746  0.1349  0.6062
 4546TIP3    H135053   6.911   4.227   2.424 -1.7274 -0.8298  0.6309
 4546TIP3    H235054   6.846   4.354   2.374  2.1732  1.2016  0.3071
 4547TIP3   OH235055   5.847   2.663  10.061 -0.0368 -0.7154 -0.0999
 4547TIP3    H135056   5.897   2.740  10.088 -0.7761 -0.6261  1.1118
 4547TIP3    H235057   5.912   2.593  10.057 -0.0118 -1.0227  3.2489
 4548TIP3   OH235058   1.023   7.070  10.361  0.3569  0.1093 -0.1781
 4548TIP3    H135059   1.042   7.036  10.449 -0.3072 -0.0007 -0.0695
 4548TIP3    H235060   0.975   7.151  10.376  1.2901  0.7193 -0.4435
 4549TIP3   OH235061   3.268   1.230   2.141 -0.1291 -0.2380  0.5017
 4549TIP3    H135062   3.199   1.210   2.077  0.4329 -0.9916  0.1293
 4549TIP3    H235063   3.313   1.306   2.104 -0.3692 -0.1174  0.4507
 4550TIP3   OH235064   6.279   1.578  12.920  0.1468 -0.0689  0.2697
 4550TIP3    H135065   6.305   1.642  12.985 -1.7656  1.2053 -0.1392
 4550TIP3    H235066   6.243   1.505  12.971  0.8625 -0.1537  0.6759
 4551TIP3   OH235067   6.053   0.991   9.875  0.3201 -0.0007 -0.6181
 4551TIP3    H135068   6.048   0.924   9.943  0.7804 -2.4811 -2.8519
 4551TIP3    H235069   5.962   1.015   9.858  0.0389 -0.9777 -0.5673
 4552TIP3   OH235070   2.898   3.376   0.722 -0.0667  0.0981 -0.2875
 4552TIP3    H135071   2.830   3.325   0.766  1.0961 -0.6898  0.6583
 4552TIP3    H235072   2.882   3.466   0.749 -0.6631 -0.0962  0.0188
 4553TIP3   OH235073   4.596   0.240  13.370  0.3960 -0.5399 -0.0708
 4553TIP3    H135074   4.585   0.317  13.314  0.3529  0.8155  1.6910
 4553TIP3    H235075   4.662   0.267  13.434  0.0504 -1.8123  0.8527
 4554TIP3   OH235076   4.922   5.448  11.580  0.0147 -0.1093 -0.2888
 4554TIP3    H135077   4.956   5.398  11.654 -0.7869 -0.5454 -0.2029
 4554TIP3    H235078   4.839   5.483  11.611  0.6679  1.5131 -0.2603
 4555TIP3   OH235079   6.301   5.975   3.373  0.8063  0.5204  0.1720
 4555TIP3    H135080   6.378   5.932   3.337  0.8857 -0.6998  1.6608
 4555TIP3    H235081   6.331   6.063   3.397  2.5034 -0.6628  2.9145
 4556TIP3   OH235082   6.837   0.699  10.378  0.1572  0.0383 -0.4534
 4556TIP3    H135083   6.768   0.737  10.432  1.2779  0.0614  0.9989
 4556TIP3    H235084   6.791   0.671  10.298 -1.2062  1.7088 -0.3309
 4557TIP3   OH235085   5.873   1.423  11.196 -0.4658 -0.0759  0.0608
 4557TIP3    H135086   5.924   1.457  11.269  1.6897 -2.1949 -0.3453
 4557TIP3    H235087   5.888   1.484  11.124 -1.0681  0.9863  0.8131
 4558TIP3   OH235088   1.157   1.210  14.896  0.0477  0.2705 -0.2450
 4558TIP3    H135089   1.106   1.275  14.849  1.6228  0.3914 -1.8594
 4558TIP3    H235090   1.150   1.130  14.843  2.1006  0.4904 -0.9414
 4559TIP3   OH235091   7.119   5.361  13.372 -0.5320 -0.1668  0.1504
 4559TIP3    H135092   7.099   5.383  13.281 -0.6488 -0.8641 -0.0013
 4559TIP3    H235093   7.116   5.265  13.374  0.9539 -0.2267  0.5530
 4560TIP3   OH235094   2.947   7.037   4.915  0.4996  0.0685 -0.1740
 4560TIP3    H135095   2.932   6.962   4.972 -0.4142 -0.2559 -0.8138
 4560TIP3    H235096   3.027   7.078   4.949  1.1835 -1.3674  0.0022
 4561TIP3   OH235097   5.229   0.808  14.835 -0.1752 -0.1322  0.5344
 4561TIP3    H135098   5.160   0.857  14.878  0.0111  2.4985 -1.8521
 4561TIP3    H235099   5.201   0.804  14.743  1.1680 -2.1778  0.1518
 4562TIP3   OH235100   5.370   0.294  14.219  0.0377 -0.5210  0.2647
 4562TIP3    H135101   5.447   0.254  14.259 -0.1586  0.9581  2.3125
 4562TIP3    H235102   5.299   0.273  14.279 -0.3505  1.5134  0.5794
 4563TIP3   OH235103   2.548   6.604  14.845 -0.6214 -0.1374 -0.4840
 4563TIP3    H135104   2.529   6.596  14.939 -0.5386  1.2726 -0.3213
 4563TIP3    H235105   2.639   6.573  14.837 -0.4875  0.1202 -0.0185
 4564TIP3   OH235106   0.395   0.355  12.328 -0.4495  0.2869 -0.2115
 4564TIP3    H135107   0.422   0.323  12.242  1.9893  1.2005  0.1330
 4564TIP3    H235108   0.331   0.424  12.309  1.2243  1.5762 -1.4220
 4565TIP3   OH235109   2.986   2.810  10.998 -0.5493  0.0208  0.5237
 4565TIP3    H135110   2.988   2.853  11.083  4.0246  0.1583  0.6115
 4565TIP3    H235111   2.981   2.881  10.934  0.3028  0.2759  0.7226
 4566TIP3   OH235112   2.942   4.152   2.978 -0.1663 -0.2204  0.5096
 4566TIP3    H135113   3.026   4.116   3.007 -0.5589 -0.3364  1.5502
 4566TIP3    H235114   2.916   4.096   2.905  1.5086  0.9238 -1.0467
 4567TIP3   OH235115   3.579   2.875  13.608 -0.2645  0.2894 -0.8055
 4567TIP3    H135116   3.496   2.834  13.629  0.7209 -1.0021  0.8607
 4567TIP3    H235117   3.561   2.968  13.606 -1.2082  0.3219  2.7620
 4568TIP3   OH235118   2.391   5.040  12.929 -0.7645 -0.3806  0.1091
 4568TIP3    H135119   2.444   5.095  12.987 -1.9591  0.4342  0.4592
 4568TIP3    H235120   2.305   5.037  12.971 -1.7677  0.5035 -1.7769
 4569TIP3   OH235121   1.044   6.181  14.636 -0.0868 -0.2065  0.0703
 4569TIP3    H135122   1.043   6.264  14.683  0.7362  0.1882 -0.5746
 4569TIP3    H235123   1.136   6.167  14.613 -0.3955 -0.6144 -1.0112
 4570TIP3   OH235124   0.135   0.832  12.389  0.3131  0.2718 -0.5845
 4570TIP3    H135125   0.048   0.865  12.411  0.4474 -0.3980  1.0450
 4570TIP3    H235126   0.192   0.908  12.396  0.1725  0.2968  0.3478
 4571TIP3   OH235127   7.020   4.501   9.923  0.2798 -0.3058 -0.2376
 4571TIP3    H135128   6.967   4.580   9.928 -0.5438 -0.7604 -1.4726
 4571TIP3    H235129   7.023   4.480   9.830  2.6654 -0.2876 -0.2218
 4572TIP3   OH235130   2.190   6.256   2.304  0.3831  0.5225  0.0528
 4572TIP3    H135131   2.230   6.235   2.389  3.4575 -0.7520 -1.5663
 4572TIP3    H235132   2.133   6.182   2.286  0.9280  0.0213  0.3352
 4573TIP3   OH235133   1.837   6.131   0.748  0.3211 -0.2311  0.2228
 4573TIP3    H135134   1.910   6.178   0.708 -1.4536  1.1896 -1.5462
 4573TIP3    H235135   1.761   6.156   0.696 -1.0972 -3.5352  0.4579
 4574TIP3   OH235136   7.108   2.907  12.499 -0.0036  0.1263  0.0409
 4574TIP3    H135137   7.018   2.882  12.520 -0.2828  0.3136 -0.9047
 4574TIP3    H235138   7.138   2.838  12.440  0.4713  0.0740  0.3409
 4575TIP3   OH235139   0.736   5.310  13.061 -0.1590  0.4402  0.5090
 4575TIP3    H135140   0.728   5.387  13.118  1.8002  1.6169 -0.7080
 4575TIP3    H235141   0.788   5.247  13.112  1.9213  1.6366 -0.0120
 4576TIP3   OH235142   4.297   5.586  10.211 -0.1655 -0.6064 -0.4235
 4576TIP3    H135143   4.311   5.621  10.299  0.2892  0.3022 -0.8465
 4576TIP3    H235144   4.371   5.528  10.196 -0.0855 -0.5311 -0.3165
 4577TIP3   OH235145   3.171   4.653   9.693 -0.2852 -0.2951 -0.2924
 4577TIP3    H135146   3.203   4.701   9.616 -0.2667 -1.5863 -1.1126
 4577TIP3    H235147   3.223   4.574   9.696  1.2182  0.6527  2.3392
 4578TIP3   OH235148   0.362   1.068  13.745  0.1870 -0.2031 -0.3083
 4578TIP3    H135149   0.377   0.992  13.801 -0.6382 -0.4847 -0.4614
 4578TIP3    H235150   0.419   1.136  13.782 -0.2626 -0.4165  0.8191
 4579TIP3   OH235151   6.930   5.992  12.560 -0.2369 -0.1698 -0.4990
 4579TIP3    H135152   6.907   5.972  12.469  0.3404 -0.4506 -0.5890
 4579TIP3    H235153   6.976   5.913  12.590  0.4638  0.3191 -0.2770
 4580TIP3   OH235154   6.675   3.121   5.643  0.0559 -0.1967  0.6384
 4580TIP3    H135155   6.740   3.181   5.679  2.4768 -0.9810 -2.0966
 4580TIP3    H235156   6.591   3.162   5.666  1.4559  1.7621  2.8205
 4581TIP3   OH235157   2.251   6.046   2.062 -0.2836  0.0210  0.2180
 4581TIP3    H135158   2.186   5.981   2.036 -1.4756  0.1196  2.5832
 4581TIP3    H235159   2.198   6.118   2.097  1.0814  0.8570  0.6168
 4582TIP3   OH235160   5.621   3.180   9.990  0.5072 -0.3481  0.3666
 4582TIP3    H135161   5.691   3.240   9.965  0.8262 -0.1804  1.6260
 4582TIP3    H235162   5.566   3.173   9.911 -0.5180  2.9133  0.6724
 4583TIP3   OH235163   5.252   5.194  13.023 -0.1505  0.1647 -0.2823
 4583TIP3    H135164   5.332   5.232  12.987 -0.2080  0.5722  0.0130
 4583TIP3    H235165   5.248   5.106  12.985  1.1182 -0.3577  0.6924
 4584TIP3   OH235166   3.794   5.731  15.356  0.0015  0.6073  0.0875
 4584TIP3    H135167   3.879   5.712  15.315  0.0986 -1.1429  1.0421
 4584TIP3    H235168   3.811   5.808  15.411  0.2370  2.0443 -1.8863
 4585TIP3   OH235169   2.334   5.433  12.157 -0.7131  0.3301  0.1695
 4585TIP3    H135170   2.337   5.368  12.227 -1.0888 -0.2167 -0.3114
 4585TIP3    H235171   2.425   5.462  12.146 -0.6276  0.2832  0.7502
 4586TIP3   OH235172   0.430   4.848   9.861  0.1512 -0.0819  0.4720
 4586TIP3    H135173   0.442   4.892   9.777  1.0614  1.3402  1.3151
 4586TIP3    H235174   0.347   4.801   9.852 -0.6169  1.4362 -0.6282
 4587TIP3   OH235175   2.100   4.609   9.995  0.6810  0.2848  0.4270
 4587TIP3    H135176   2.184   4.638   9.960  0.3855 -0.6676 -1.2211
 4587TIP3    H235177   2.041   4.611   9.919 -0.3038 -0.8261  1.1155
 4588TIP3   OH235178   6.489   5.660  14.244 -0.3378 -0.1871  0.9165
 4588TIP3    H135179   6.422   5.724  14.264 -1.6417 -0.2647 -2.6733
 4588TIP3    H235180   6.458   5.614  14.166  3.1392 -1.3480  0.0074
 4589TIP3   OH235181   3.852   6.116   9.974  1.0464  0.4686  0.0302
 4589TIP3    H135182   3.789   6.162   9.919  0.7717  1.0954  0.8492
 4589TIP3    H235183   3.866   6.033   9.930 -1.5572 -0.3749  0.5973
 4590TIP3   OH235184   6.955   0.547  14.915  0.5720  0.6790  0.3336
 4590TIP3    H135185   7.011   0.552  14.838  1.0280 -0.5738  0.5564
 4590TIP3    H235186   6.866   0.562  14.881  0.7966  0.3973 -0.3985
 4591TIP3   OH235187   4.480   0.748  15.450  0.2799  0.2931  0.4672
 4591TIP3    H135188   4.413   0.815  15.466 -0.2978 -0.0698 -0.3821
 4591TIP3    H235189   4.481   0.695  15.530 -1.2025 -0.3456  0.0770
 4592TIP3   OH235190   0.720   6.092   0.561  0.1963 -0.1631 -0.2035
 4592TIP3    H135191   0.735   6.151   0.487  3.3369 -0.4724  0.0354
 4592TIP3    H235192   0.780   6.019   0.546  1.8194  0.2835  3.1181
 4593TIP3   OH235193   5.349   6.470  14.266  0.4481 -0.2278 -0.3609
 4593TIP3    H135194   5.426   6.522  14.286 -0.7023  1.1119  0.8130
 4593TIP3    H235195   5.379   6.406  14.201  2.2158  1.0819 -0.9176
 4594TIP3   OH235196   5.577   4.093   4.091 -0.3010  0.7758  0.3961
 4594TIP3    H135197   5.515   4.046   4.036 -0.1469 -1.7566  2.2120
 4594TIP3    H235198   5.656   4.102   4.038 -0.7008 -0.0900 -0.3551
 4595TIP3   OH235199   6.765   6.918   9.433 -0.0989 -0.1165 -0.2150
 4595TIP3    H135200   6.824   6.882   9.500 -0.0116 -0.0506 -0.2561
 4595TIP3    H235201   6.725   6.841   9.392  1.5481 -0.2528 -1.6406
 4596TIP3   OH235202   3.422   5.563  10.825  0.1652  0.3248  0.0501
 4596TIP3    H135203   3.359   5.501  10.860  1.3008  0.2929  2.1781
 4596TIP3    H235204   3.420   5.548  10.730 -1.8391 -0.7393  0.1992
 4597TIP3   OH235205   0.618   2.341   3.873 -0.0700  0.3460  0.2728
 4597TIP3    H135206   0.695   2.288   3.893 -0.4252 -0.4259 -0.3750
 4597TIP3    H235207   0.549   2.306   3.928 -0.0265  0.8917  0.6856
 4598TIP3   OH235208   4.450   6.487   9.750  0.8269  0.0274  0.1932
 4598TIP3    H135209   4.409   6.411   9.792 -0.8575 -0.1229 -1.5862
 4598TIP3    H235210   4.501   6.450   9.678  1.1288  0.4969  0.1638
 4599TIP3   OH235211   5.970   2.624  11.232  0.2415  0.3668  0.1359
 4599TIP3    H135212   5.944   2.634  11.323 -1.0996 -3.2689  0.3430
 4599TIP3    H235213   5.890   2.638  11.182  0.7715  1.4713 -0.4267
 4600TIP3   OH235214   5.408   6.827  12.596  0.3386  0.0728  0.8694
 4600TIP3    H135215   5.442   6.810  12.684 -0.4210 -1.6887  0.8675
 4600TIP3    H235216   5.445   6.759  12.541 -0.9864 -0.2359  0.3080
 4601TIP3   OH235217   6.397   3.560  14.903 -0.4981 -0.1366 -0.3670
 4601TIP3    H135218   6.366   3.606  14.825  0.9811 -0.2951 -1.0890
 4601TIP3    H235219   6.396   3.467  14.878 -0.5912 -0.2428  0.0258
 4602TIP3   OH235220   6.222   2.866  11.947 -0.3647  0.1014  0.6460
 4602TIP3    H135221   6.205   2.830  12.034  0.6191  0.2181  0.9029
 4602TIP3    H235222   6.245   2.957  11.963 -0.9966  0.3436  0.1805
 4603TIP3   OH235223   5.912   5.081   3.314  0.4403  0.1192  0.0576
 4603TIP3    H135224   5.881   5.165   3.282  1.7678  0.7693  0.4099
 4603TIP3    H235225   5.980   5.055   3.252 -0.4565 -1.0705 -0.4671
 4604TIP3   OH235226   3.147   6.260   5.013  0.0486 -0.0183  0.4971
 4604TIP3    H135227   3.172   6.298   4.929 -1.2670  2.3274  1.0766
 4604TIP3    H235228   3.111   6.174   4.991  0.8991  0.0238 -1.1798
 4605TIP3   OH235229   4.866   1.120  12.405  0.4013  0.3268  0.0949
 4605TIP3    H135230   4.941   1.078  12.447 -0.1258 -2.9910 -1.9431
 4605TIP3    H235231   4.894   1.138  12.315 -0.4855  1.4175 -0.0014
 4606TIP3   OH235232   1.506   7.005   2.396 -0.6434 -0.4962  0.1925
 4606TIP3    H135233   1.560   7.063   2.342  0.9888 -0.6064  1.6087
 4606TIP3    H235234   1.426   6.993   2.346  0.0476  0.8720 -1.3350
 4607TIP3   OH235235   1.354   4.402  11.766  0.1609  0.4104 -0.3509
 4607TIP3    H135236   1.443   4.400  11.731  0.2445 -0.6375 -0.1220
 4607TIP3    H235237   1.353   4.333  11.833 -1.4951 -1.3701 -2.0530
 4608TIP3   OH235238   6.111   3.071  13.318 -0.5496  0.1187  0.0106
 4608TIP3    H135239   6.114   2.979  13.293 -0.0564 -0.0961  0.8369
 4608TIP3    H235240   6.038   3.077  13.379 -0.0846  0.1174  0.5703
 4609TIP3   OH235241   0.046   5.330   0.342  0.4302  0.2501 -0.1517
 4609TIP3    H135242   0.068   5.260   0.403  1.2284  0.4079 -0.2516
 4609TIP3    H235243  -0.049   5.324   0.332  0.5002 -0.8971 -0.2484
 4610TIP3   OH235244   6.719   3.330  11.202  0.3798 -0.3235 -0.1855
 4610TIP3    H135245   6.804   3.363  11.231  1.5963  0.0506 -3.6750
 4610TIP3    H235246   6.673   3.409  11.172 -0.3648 -0.7620 -0.2046
 4611TIP3   OH235247   6.144   5.020   1.278  0.3480  0.3904 -0.0281
 4611TIP3    H135248   6.226   4.998   1.321 -1.0247  0.4547  2.8516
 4611TIP3    H235249   6.116   5.102   1.319 -2.3411 -0.9141  1.0090
 4612TIP3   OH235250   0.423   4.332  12.055 -0.1789  0.7896 -0.1210
 4612TIP3    H135251   0.512   4.331  12.020 -0.0621  0.6694  0.1703
 4612TIP3    H235252   0.432   4.297  12.144 -0.2914  2.0987  0.4362
 4613TIP3   OH235253   1.229   3.931  13.836 -0.6016  0.2126 -0.2272
 4613TIP3    H135254   1.235   3.955  13.929 -1.1998 -2.3841  0.5901
 4613TIP3    H235255   1.316   3.946  13.801  0.7175 -2.1113  1.7450
 4614TIP3   OH235256   7.037   4.071  12.154  0.1512 -0.9593  0.2563
 4614TIP3    H135257   7.017   3.978  12.148  0.2783 -1.0808  1.5131
 4614TIP3    H235258   7.079   4.081  12.239  2.4747 -0.1728 -0.8734
 4615TIP3   OH235259   6.718   6.677  10.845 -0.1239 -0.0567 -0.5763
 4615TIP3    H135260   6.784   6.642  10.785  0.6628  3.4049 -1.9678
 4615TIP3    H235261   6.645   6.701  10.789 -2.8035 -3.7959  0.9446
 4616TIP3   OH235262   3.690   2.979  12.362 -0.1941 -0.4942 -0.4933
 4616TIP3    H135263   3.657   3.068  12.376  0.6840 -0.4182  1.3170
 4616TIP3    H235264   3.618   2.923  12.391 -0.7715 -0.4152 -1.6911
 4617TIP3   OH235265   3.776   2.424   2.826 -0.2991 -0.2486 -0.3694
 4617TIP3    H135266   3.738   2.339   2.847 -0.5099 -1.3079 -4.2615
 4617TIP3    H235267   3.700   2.478   2.804 -0.0929  0.7208  1.1574
 4618TIP3   OH235268   3.461   2.308  10.457  0.1511 -0.0447 -0.4777
 4618TIP3    H135269   3.430   2.330  10.544  4.8311  2.4247  0.8895
 4618TIP3    H235270   3.473   2.213  10.459  1.0619  0.0598  2.0001
 4619TIP3   OH235271   5.899   0.478  11.749 -0.1070  1.0551 -0.1319
 4619TIP3    H135272   5.852   0.419  11.808  0.6880 -0.1981 -0.7075
 4619TIP3    H235273   5.839   0.551  11.734 -1.2229  0.2676  0.4017
 4620TIP3   OH235274   4.556   6.085   0.603  0.4739 -0.2797  0.3243
 4620TIP3    H135275   4.479   6.070   0.657 -0.4999 -2.0619 -1.4194
 4620TIP3    H235276   4.617   6.015   0.627  0.7100 -0.1036  0.2488
 4621TIP3   OH235277   5.538   0.800  10.994  0.0265  0.2172  0.3339
 4621TIP3    H135278   5.601   0.730  11.012 -0.7889 -0.8827 -0.9184
 4621TIP3    H235279   5.489   0.769  10.918  0.6958  2.8811 -1.2980
 4622TIP3   OH235280   5.198   1.419  15.591 -0.7802 -0.6880 -0.3101
 4622TIP3    H135281   5.212   1.327  15.611 -1.1660 -0.9842 -1.3677
 4622TIP3    H235282   5.286   1.455  15.576 -0.7024 -1.1379 -0.9630
 4623TIP3   OH235283   4.266   5.290   3.397  0.2396 -0.6104 -0.6057
 4623TIP3    H135284   4.330   5.220   3.388  2.2705  1.2185 -1.3321
 4623TIP3    H235285   4.209   5.281   3.321 -0.1481 -2.0327 -0.1685
 4624TIP3   OH235286   4.660   2.703  10.361  0.4425 -0.1918 -0.0498
 4624TIP3    H135287   4.586   2.763  10.373  0.1874 -0.5476  0.1775
 4624TIP3    H235288   4.634   2.623  10.407  1.5634  0.1708  1.2732
 4625TIP3   OH235289   0.291   2.113  12.760  0.1239  0.1439 -0.0733
 4625TIP3    H135290   0.368   2.117  12.817 -1.6958 -0.9754  2.6909
 4625TIP3    H235291   0.241   2.191  12.782  0.0031  0.3967 -1.1864
 4626TIP3   OH235292   4.821   6.426  11.793 -0.0458 -0.0072 -0.6188
 4626TIP3    H135293   4.863   6.495  11.845 -2.5640  0.7151  0.6413
 4626TIP3    H235294   4.789   6.471  11.715 -0.4102 -0.0535 -0.4981
 4627TIP3   OH235295   1.226   1.317  11.708  0.2083  0.0868  0.0393
 4627TIP3    H135296   1.316   1.336  11.734  0.2779 -2.1342  1.7274
 4627TIP3    H235297   1.223   1.221  11.702 -0.8991  0.1835 -4.5321
 4628TIP3   OH235298   4.651   0.883  12.917  0.2860 -0.6251 -0.0789
 4628TIP3    H135299   4.679   0.876  13.008  0.5136 -2.8542 -0.2720
 4628TIP3    H235300   4.700   0.957  12.882  0.1785  0.2775  1.5932
 4629TIP3   OH235301   5.865   0.857  11.332 -0.2409  0.1443  0.2228
 4629TIP3    H135302   5.783   0.904  11.344 -0.6546 -0.6526  0.5432
 4629TIP3    H235303   5.893   0.833  11.420  1.6124  2.4962  0.3907
 4630TIP3   OH235304   3.238   4.655  14.657 -0.6035  0.7225 -0.3166
 4630TIP3    H135305   3.323   4.636  14.696 -0.4725 -0.1445 -0.9986
 4630TIP3    H235306   3.187   4.575  14.671 -1.1382  1.0558 -0.3508
 4631TIP3   OH235307   4.164   4.424  10.325 -0.6214  0.4456 -0.3347
 4631TIP3    H135308   4.230   4.481  10.363  0.2198 -0.5661 -0.2322
 4631TIP3    H235309   4.105   4.483  10.278  0.9936  1.2882 -1.3830
 4632TIP3   OH235310   2.052   2.603  11.807 -0.6694 -0.5808 -0.4098
 4632TIP3    H135311   2.062   2.514  11.841 -0.3069 -0.7515 -0.9424
 4632TIP3    H235312   2.042   2.658  11.884  3.2310 -0.5023  0.2369
 4633TIP3   OH235313   6.689   1.204   4.704 -0.2242 -0.4377 -0.3776
 4633TIP3    H135314   6.644   1.267   4.759  0.4947  0.0491 -0.3248
 4633TIP3    H235315   6.634   1.126   4.706  0.4343 -0.9344  2.1662
 4634TIP3   OH235316   5.973   1.691  14.223 -0.4259 -0.4443  0.4705
 4634TIP3    H135317   5.956   1.783  14.203  0.8286 -0.3522 -0.2985
 4634TIP3    H235318   6.024   1.693  14.304 -0.2175 -0.4539  0.3385
 4635TIP3   OH235319   1.927   1.901   9.872  0.3725 -0.4361  0.1571
 4635TIP3    H135320   1.946   1.820   9.824 -1.5296  0.4716 -2.4055
 4635TIP3    H235321   1.850   1.937   9.827  1.5148  3.1146  0.7388
 4636TIP3   OH235322   2.759   1.916  15.334 -0.0300 -0.3179 -0.0413
 4636TIP3    H135323   2.800   1.999  15.312 -1.5879  1.6764  3.7197
 4636TIP3    H235324   2.704   1.935  15.410 -1.8820 -4.4397 -0.0614
 4637TIP3   OH235325   3.673   6.717  11.482  0.4115  0.1755 -0.1916
 4637TIP3    H135326   3.727   6.795  11.496  0.0128  0.5298 -0.6363
 4637TIP3    H235327   3.702   6.683  11.397 -0.9450  1.0917 -1.0455
 4638TIP3   OH235328   3.334   5.240  11.159  0.6060 -0.1784  0.1049
 4638TIP3    H135329   3.413   5.188  11.143  0.4558 -0.4383  0.1892
 4638TIP3    H235330   3.322   5.291  11.079  1.0660  0.1352  0.2362
 4639TIP3   OH235331   0.565   6.182  12.999  0.0951  1.0543  0.1527
 4639TIP3    H135332   0.532   6.161  12.912  1.1501  0.0264 -0.0144
 4639TIP3    H235333   0.538   6.273  13.013 -1.0172  0.8926 -0.7934
 4640TIP3   OH235334   6.351   1.177  13.247  0.3610 -0.2531 -0.0349
 4640TIP3    H135335   6.303   1.096  13.258 -0.0843  0.0941  0.6105
 4640TIP3    H235336   6.427   1.153  13.193  0.4456 -1.1649  0.4805
 4641TIP3   OH235337   2.114   2.511  13.714 -0.2410 -0.3674  0.2017
 4641TIP3    H135338   2.123   2.590  13.768 -2.7232 -0.8530  1.5067
 4641TIP3    H235339   2.119   2.543  13.624 -0.4478  1.1911  0.7003
 4642TIP3   OH235340   6.572   1.038   0.350 -0.1725  0.5102 -0.0822
 4642TIP3    H135341   6.592   1.117   0.401 -1.5009  1.1764 -0.5488
 4642TIP3    H235342   6.508   0.991   0.404 -0.0626  0.2043 -0.2206
 4643TIP3   OH235343   5.524   4.213   0.026  0.2011 -0.0008  0.3839
 4643TIP3    H135344   5.610   4.254   0.020  0.0565  0.2351 -0.1212
 4643TIP3    H235345   5.483   4.229  -0.059 -1.1142  1.5886  1.2577
 4644TIP3   OH235346   6.204   5.951  11.942 -0.4343  0.1585  0.4144
 4644TIP3    H135347   6.125   5.974  11.894 -1.3151 -0.8608  1.3184
 4644TIP3    H235348   6.212   6.019  12.009  1.2588  2.0561 -1.5807
 4645TIP3   OH235349   6.472   1.006  15.049  0.3567  0.0687  0.4201
 4645TIP3    H135350   6.409   0.950  15.004 -0.3879 -0.2739  1.8435
 4645TIP3    H235351   6.452   1.094  15.018  0.7995 -0.2932 -0.9728
 4646TIP3   OH235352   3.841   3.808  13.848 -0.3341  0.4979 -0.1123
 4646TIP3    H135353   3.857   3.759  13.767  0.5518  0.5925 -0.0084
 4646TIP3    H235354   3.927   3.811  13.891 -0.2123  2.7234 -0.4297
 4647TIP3   OH235355   4.761   0.491  13.389  0.1985  0.0434  0.4704
 4647TIP3    H135356   4.699   0.542  13.440 -0.8939 -0.9178  0.1496
 4647TIP3    H235357   4.838   0.482  13.445 -0.7653 -0.5383  1.7381
 4648TIP3   OH235358   2.854   6.241   9.440 -0.4639 -0.1362  0.3604
 4648TIP3    H135359   2.830   6.327   9.474  1.6277  0.1181  1.2948
 4648TIP3    H235360   2.944   6.251   9.410 -0.6477 -1.6541 -0.8530
 4649TIP3   OH235361   0.487   1.055  11.316  0.2481 -0.1527 -0.4712
 4649TIP3    H135362   0.564   1.096  11.353 -0.0890  0.1508 -0.0965
 4649TIP3    H235363   0.414   1.110  11.345 -0.3075 -1.4561  0.7426
 4650TIP3   OH235364   1.610   1.243  13.239 -0.8494  0.0294  0.0555
 4650TIP3    H135365   1.703   1.231  13.259 -1.0599 -0.8850  0.5348
 4650TIP3    H235366   1.586   1.164  13.190 -1.6208 -0.2511  0.8612
 4651TIP3   OH235367   1.531   2.224   9.791  0.0012  0.6550 -0.5098
 4651TIP3    H135368   1.606   2.242   9.848  0.5425  1.3668 -1.4195
 4651TIP3    H235369   1.456   2.262   9.838  0.0900 -0.5453  0.6646
 4652TIP3   OH235370   4.353   2.694  13.283  0.2653 -0.1211  0.3146
 4652TIP3    H135371   4.274   2.739  13.311  1.5864  1.9485  0.9639
 4652TIP3    H235372   4.354   2.613  13.334 -1.5218 -0.2880  0.1241
 4653TIP3   OH235373   3.191   3.007  10.338  0.2736  0.1298 -0.0529
 4653TIP3    H135374   3.159   3.071  10.275  0.0281 -1.3153 -1.4709
 4653TIP3    H235375   3.180   3.049  10.424 -3.8342  0.4386 -0.5378
 4654TIP3   OH235376   3.685   6.186  10.674  0.1055 -0.5700  0.4069
 4654TIP3    H135377   3.662   6.174  10.766 -1.1123  0.5711  0.2799
 4654TIP3    H235378   3.664   6.102  10.633 -1.2948 -0.4455  0.8118
 4655TIP3   OH235379   5.413   3.058   3.375  0.4824 -0.0319 -0.1717
 4655TIP3    H135380   5.413   3.072   3.470  0.3713  0.8116 -0.2897
 4655TIP3    H235381   5.352   3.124   3.341  0.1424 -0.6473 -0.7912
 4656TIP3   OH235382   6.068   1.668  15.305  0.1389 -0.2987 -0.1266
 4656TIP3    H135383   6.027   1.729  15.366  0.7497 -0.4412  0.4483
 4656TIP3    H235384   6.012   1.670  15.228  0.2630  1.1384 -0.2064
 4657TIP3   OH235385   4.290   2.294   1.059  0.5414 -0.1088 -0.6903
 4657TIP3    H135386   4.378   2.311   1.091  0.8533  0.1497 -1.6480
 4657TIP3    H235387   4.302   2.237   0.983 -0.3281 -2.5301  0.8814
 4658TIP3   OH235388   1.544   2.494  11.829  0.6221  0.5926 -0.3224
 4658TIP3    H135389   1.593   2.576  11.816  0.2771  0.5526 -2.3157
 4658TIP3    H235390   1.498   2.482  11.746 -1.3942 -0.2871  0.8564
 4659TIP3   OH235391   6.394   6.389   0.327  0.0797 -0.4516  0.6203
 4659TIP3    H135392   6.442   6.332   0.386  1.2357 -1.1225 -0.9053
 4659TIP3    H235393   6.462   6.431   0.274 -0.9728 -2.9233 -2.9793
 4660TIP3   OH235394   1.697   7.122  10.350  0.5372  0.5093  0.2764
 4660TIP3    H135395   1.764   7.091  10.411 -0.2949 -0.2272  0.8248
 4660TIP3    H235396   1.733   7.204  10.315  1.7959  0.0542  0.4388
 4661TIP3   OH235397   5.943   0.793  11.901  0.2088 -0.1331  0.5305
 4661TIP3    H135398   5.917   0.708  11.936 -1.4152 -0.2758 -0.9226
 4661TIP3    H235399   5.876   0.854  11.931 -2.0123 -0.4835 -3.1760
 4662TIP3   OH235400   1.101   2.591  14.072  0.3939 -0.0430  0.8620
 4662TIP3    H135401   1.157   2.517  14.094 -0.4560 -1.0301 -0.1799
 4662TIP3    H235402   1.145   2.635  13.999  0.2416 -0.3188  0.6016
 4663TIP3   OH235403   3.561   0.935  14.951 -0.5370  0.1002 -0.4096
 4663TIP3    H135404   3.630   0.995  14.980 -0.8435 -0.4824  1.6600
 4663TIP3    H235405   3.484   0.991  14.938 -0.5907  0.2943  0.6629
 4664TIP3   OH235406   4.503   4.158  15.388 -0.0210  0.0121 -0.4018
 4664TIP3    H135407   4.416   4.190  15.363  0.8101  1.3767 -1.7553
 4664TIP3    H235408   4.513   4.077  15.338 -0.8540 -0.6707  0.4943
 4665TIP3   OH235409   2.328   5.324  14.347 -0.2721 -0.5575  0.1771
 4665TIP3    H135410   2.313   5.254  14.409  0.4542  0.4390  1.5276
 4665TIP3    H235411   2.354   5.280  14.266 -0.6557 -1.8568  0.7458
 4666TIP3   OH235412   2.983   2.140  11.797 -0.2001  0.1597 -0.6422
 4666TIP3    H135413   2.977   2.121  11.704 -1.8499  2.6873 -1.1641
 4666TIP3    H235414   3.002   2.234  11.801 -1.5588  0.4096  1.5313
 4667TIP3   OH235415   3.687   0.185   2.595  0.4180  0.5426 -0.0765
 4667TIP3    H135416   3.675   0.131   2.517 -1.2172 -1.1057  1.2243
 4667TIP3    H235417   3.599   0.215   2.618  0.9354  1.4176  0.8734
 4668TIP3   OH235418   4.820   3.453  13.352  0.1868 -0.3310 -0.2772
 4668TIP3    H135419   4.847   3.492  13.268  0.1051 -2.0359 -1.1306
 4668TIP3    H235420   4.812   3.359  13.334 -1.5082 -0.5337  1.2084
 4669TIP3   OH235421   5.837   3.120  15.028 -0.0526 -0.2641  0.2225
 4669TIP3    H135422   5.783   3.120  15.107 -0.2722  0.6297  0.0823
 4669TIP3    H235423   5.921   3.083  15.056  0.4095  1.4373  1.2658
 4670TIP3   OH235424   4.264   4.075  12.792  0.6431 -0.3343  0.1689
 4670TIP3    H135425   4.302   4.147  12.843  0.3061  0.0078 -0.0574
 4670TIP3    H235426   4.289   4.094  12.702  1.3360 -1.0022  0.2095
 4671TIP3   OH235427   4.773   4.930  12.844 -0.0326  0.5758  0.5876
 4671TIP3    H135428   4.710   4.954  12.911 -1.0285 -1.8428  0.6368
 4671TIP3    H235429   4.839   4.877  12.890  0.6225  0.9300  0.0857
 4672TIP3   OH235430   3.319   6.691  10.240  0.1127  0.3393 -0.2017
 4672TIP3    H135431   3.308   6.630  10.167 -2.0778 -0.4314  0.6667
 4672TIP3    H235432   3.370   6.763  10.204  0.7740 -0.9274 -1.9202
 4673TIP3   OH235433   6.178   1.497  10.716  0.2033 -0.0691 -0.3254
 4673TIP3    H135434   6.117   1.441  10.764  1.0330 -1.1406 -0.4907
 4673TIP3    H235435   6.131   1.580  10.706 -1.4863 -1.0395 -0.9841
 4674TIP3   OH235436   0.640   1.336  12.165  0.5640  0.4622  0.1395
 4674TIP3    H135437   0.654   1.250  12.127 -0.9741 -0.3268  1.2683
 4674TIP3    H235438   0.705   1.342  12.236 -0.3922 -0.4787  1.1282
 4675TIP3   OH235439   5.738   0.985  13.993 -0.5973  0.2495 -0.5214
 4675TIP3    H135440   5.788   0.932  13.931  0.0795 -1.8145  1.6414
 4675TIP3    H235441   5.652   0.944  13.997  0.1427 -1.2575  1.6782
 4676TIP3   OH235442   6.343   3.116  13.179 -0.3112  0.6465 -0.0037
 4676TIP3    H135443   6.337   3.067  13.097  0.1935 -2.2569  1.5620
 4676TIP3    H235444   6.252   3.124  13.208 -0.3856  0.4538 -0.1747
 4677TIP3   OH235445   4.781   0.572  14.390 -0.1148 -0.0107 -0.0828
 4677TIP3    H135446   4.776   0.534  14.302  1.3109  0.1474 -0.2606
 4677TIP3    H235447   4.752   0.503  14.449  1.6379 -1.1316 -0.4642
 4678TIP3   OH235448   5.767   5.702   4.664  0.3262  0.0852  0.8748
 4678TIP3    H135449   5.695   5.665   4.613  0.1180  0.2777  1.0293
 4678TIP3    H235450   5.745   5.794   4.674  1.2968  0.4645 -0.2864
 4679TIP3   OH235451   0.928   2.922   0.751  0.5709  0.1850 -0.0514
 4679TIP3    H135452   0.837   2.952   0.753 -0.1437 -1.8307  0.0523
 4679TIP3    H235453   0.954   2.929   0.659 -0.4612 -1.3181 -0.4763
 4680TIP3   OH235454   3.661   2.603   0.182 -0.4887 -0.5417  0.1259
 4680TIP3    H135455   3.662   2.660   0.105 -1.1369 -0.6676  0.0198
 4680TIP3    H235456   3.736   2.633   0.234  0.4155 -0.9626 -0.9044
 4681TIP3   OH235457   1.525   5.338  13.807 -0.1335  0.2356 -0.0196
 4681TIP3    H135458   1.493   5.290  13.731  0.3965  0.3175 -0.3003
 4681TIP3    H235459   1.572   5.273  13.859 -0.0729  0.2854 -0.0118
 4682TIP3   OH235460   3.038   0.762  10.385 -0.0721  0.1441  0.5673
 4682TIP3    H135461   3.042   0.782  10.291 -1.2072 -1.8398  0.0173
 4682TIP3    H235462   2.991   0.836  10.424 -2.0044 -0.2176 -0.9150
 4683TIP3   OH235463   2.661   2.016  11.787 -0.5663 -0.1840 -0.1672
 4683TIP3    H135464   2.580   1.971  11.760 -0.7652 -0.3493  0.6616
 4683TIP3    H235465   2.686   1.972  11.868  0.3800 -0.1495 -0.4404
 4684TIP3   OH235466   1.369   4.449  14.787  0.1015 -0.0978  0.1309
 4684TIP3    H135467   1.340   4.358  14.781 -1.7513  0.5123 -1.1182
 4684TIP3    H235468   1.447   4.453  14.732 -0.0858 -0.8261 -0.1984
 4685TIP3   OH235469   1.795   4.698  10.570  0.1559  0.2633 -0.1651
 4685TIP3    H135470   1.871   4.658  10.613 -0.2637  0.3623  0.6902
 4685TIP3    H235471   1.723   4.686  10.632 -0.9779 -1.4115 -1.6798
 4686TIP3   OH235472   5.279   4.677  13.203  0.1777 -0.3315  0.4728
 4686TIP3    H135473   5.280   4.770  13.181  3.3035 -0.4786 -0.4110
 4686TIP3    H235474   5.241   4.673  13.291 -1.0892  1.6093  0.0681
 4687TIP3   OH235475   5.563   3.892  12.622  0.1122  0.0973 -0.2884
 4687TIP3    H135476   5.475   3.893  12.660  0.3484 -0.9576  0.3424
 4687TIP3    H235477   5.620   3.924  12.692  0.3216 -0.0356 -0.3948
 4688TIP3   OH235478   1.098   3.890   2.451  0.2108 -0.2145 -0.3031
 4688TIP3    H135479   1.042   3.955   2.409 -1.9478 -2.1505 -0.5912
 4688TIP3    H235480   1.107   3.921   2.541 -1.1431  0.2709 -0.3099
 4689TIP3   OH235481   3.000   1.925  14.265 -0.2673  0.3866  0.3189
 4689TIP3    H135482   2.968   1.979  14.338  0.1748  0.6228  0.3436
 4689TIP3    H235483   2.921   1.896  14.220 -0.6211 -0.8663  1.6628
 4690TIP3   OH235484   2.517   3.153  11.641 -0.0367  0.2404 -0.1317
 4690TIP3    H135485   2.478   3.129  11.558  1.3072  0.9273 -0.9932
 4690TIP3    H235486   2.479   3.092  11.704 -1.1948 -0.1871 -1.2040
 4691TIP3   OH235487   4.877   5.415  11.012 -0.5555 -0.0445 -0.1071
 4691TIP3    H135488   4.888   5.343  11.074  0.3306  0.3137  0.1629
 4691TIP3    H235489   4.958   5.466  11.018  1.7344 -2.4527 -4.7796
 4692TIP3   OH235490   4.899   2.354  15.041 -0.1440 -0.8372 -0.0727
 4692TIP3    H135491   4.927   2.310  14.961  0.7010  1.7954 -1.3179
 4692TIP3    H235492   4.980   2.366  15.091 -0.2342  0.0202 -0.1277
 4693TIP3   OH235493   6.821   5.093  12.195 -0.2438 -0.3186 -0.5550
 4693TIP3    H135494   6.903   5.110  12.148 -1.5034 -0.6234 -3.0283
 4693TIP3    H235495   6.769   5.173  12.182 -0.6457 -0.4111  0.3701
 4694TIP3   OH235496   5.525   1.855  13.246 -0.1362  0.4002  0.1677
 4694TIP3    H135497   5.572   1.774  13.226 -0.9144 -0.1319  0.4267
 4694TIP3    H235498   5.529   1.862  13.341  0.1347  0.7945  0.1281
 4695TIP3   OH235499   3.215   6.335  10.506 -0.0516  0.4698 -0.5836
 4695TIP3    H135500   3.242   6.291  10.587 -1.8637 -1.2842 -0.8581
 4695TIP3    H235501   3.297   6.350  10.458  0.8676 -0.1441  0.7383
 4696TIP3   OH235502   2.195   2.175  13.320  0.3429  1.0675 -0.1119
 4696TIP3    H135503   2.190   2.250  13.379  1.3094  0.6186  0.5579
 4696TIP3    H235504   2.183   2.099  13.377  2.4848  0.5634 -0.2563
 4697TIP3   OH235505   5.055   0.159   5.128 -0.2213 -0.3612  0.0662
 4697TIP3    H135506   5.059   0.160   5.223 -0.0157  0.5585  0.0504
 4697TIP3    H235507   4.973   0.113   5.108  0.1164 -1.2464  0.6659
 4698TIP3   OH235508   2.339   3.428   2.184 -0.2696 -0.0181  0.2383
 4698TIP3    H135509   2.415   3.486   2.178  0.3973 -0.9561 -0.8546
 4698TIP3    H235510   2.264   3.487   2.194  0.3445  1.0654 -1.2321
 4699TIP3   OH235511   6.611   1.010   9.293 -0.0616 -0.3920 -0.1377
 4699TIP3    H135512   6.670   1.064   9.345 -1.4425  0.9402  0.1151
 4699TIP3    H235513   6.611   0.925   9.337  1.4464 -0.3385 -0.0046
 4700TIP3   OH235514   1.711   5.914  14.664 -0.1020 -0.3170  0.2098
 4700TIP3    H135515   1.709   5.933  14.757 -0.5767  2.4023 -0.2542
 4700TIP3    H235516   1.622   5.888  14.642 -0.3952  0.5990  0.2745
 4701TIP3   OH235517   3.709   0.742   9.992  0.1886 -0.0185 -0.3359
 4701TIP3    H135518   3.788   0.764   9.943  0.0966  0.4774 -0.2704
 4701TIP3    H235519   3.741   0.719  10.080  0.1470  2.0620  0.2916
 4702TIP3   OH235520   1.489   2.154   2.787 -0.1449 -0.3388  0.6247
 4702TIP3    H135521   1.431   2.084   2.817  0.9641 -1.6170 -0.0973
 4702TIP3    H235522   1.552   2.110   2.730 -0.3647  1.5192 -1.1514
 4703TIP3   OH235523   1.281   5.089  14.437  0.4588 -0.1188 -0.4152
 4703TIP3    H135524   1.330   5.171  14.428 -0.9764  0.7656 -0.4083
 4703TIP3    H235525   1.252   5.087  14.528 -1.9397  0.8302 -1.0949
 4704TIP3   OH235526   5.355   3.264  12.790  0.0976  0.3515  0.3413
 4704TIP3    H135527   5.353   3.293  12.699  2.0950  0.7899  0.3893
 4704TIP3    H235528   5.412   3.187  12.789  0.5013  0.6242  1.2606
 4705TIP3   OH235529   3.067   0.219  15.122 -0.0680 -0.4747  0.4007
 4705TIP3    H135530   3.103   0.159  15.187 -3.2513 -0.9596  1.9393
 4705TIP3    H235531   2.997   0.168  15.080 -0.1645  0.8798 -1.1492
 4706TIP3   OH235532   6.217   6.977   3.630 -0.2705  0.2149  0.1663
 4706TIP3    H135533   6.312   6.990   3.621 -0.3190  0.2242 -0.3895
 4706TIP3    H235534   6.199   6.900   3.576 -0.6749  0.5797 -0.2187
 4707TIP3   OH235535   0.821   4.117  12.744 -0.0146 -0.6342 -0.2186
 4707TIP3    H135536   0.773   4.156  12.816  0.7754  0.9333 -0.4991
 4707TIP3    H235537   0.754   4.074  12.690 -1.0968  1.2313 -0.4397
 4708TIP3   OH235538   4.497   4.555  14.150  0.1669  0.2026  0.0952
 4708TIP3    H135539   4.538   4.473  14.121 -1.3116 -0.6273  0.2856
 4708TIP3    H235540   4.505   4.613  14.074 -0.9320 -0.9436 -0.9456
 4709TIP3   OH235541   2.547   0.607   0.190 -0.0617 -0.4259  0.0237
 4709TIP3    H135542   2.464   0.585   0.147  0.4647  0.1835 -1.3862
 4709TIP3    H235543   2.613   0.560   0.138  0.6044  0.3858  0.1125
 4710TIP3   OH235544   5.691   4.784  13.361 -0.5336  0.4289  0.0477
 4710TIP3    H135545   5.783   4.761  13.365 -0.2163  1.6524  0.5704
 4710TIP3    H235546   5.651   4.719  13.304  0.6947  0.0264 -0.3724
 4711TIP3   OH235547   2.176   6.869   4.649 -0.2722  0.5363  0.4629
 4711TIP3    H135548   2.179   6.796   4.588 -0.9073  1.4031 -0.6365
 4711TIP3    H235549   2.108   6.845   4.712  0.5283 -0.4522  0.9979
 4712TIP3   OH235550   1.725   0.406   4.262 -0.4241 -0.0810  0.1804
 4712TIP3    H135551   1.661   0.366   4.320  0.2696 -1.8974 -0.2593
 4712TIP3    H235552   1.676   0.424   4.181 -0.6789 -0.2562  0.2953
 4713TIP3   OH235553   6.167   2.323  12.492 -0.3240  0.2065  0.0565
 4713TIP3    H135554   6.167   2.253  12.558 -0.2022 -2.0825 -2.2468
 4713TIP3    H235555   6.076   2.327  12.462  0.0737 -0.4544 -1.2922
 4714TIP3   OH235556   6.002   6.518  10.970 -0.5396 -0.4696 -0.2003
 4714TIP3    H135557   6.056   6.543  10.895  0.7700  2.0362  1.4169
 4714TIP3    H235558   6.057   6.458  11.020  0.0295  0.5538  0.4464
 4715TIP3   OH235559   6.454   4.052   9.920 -0.6192 -0.3064 -0.0907
 4715TIP3    H135560   6.403   3.994   9.864 -1.9812  1.4563 -0.7943
 4715TIP3    H235561   6.518   4.092   9.861 -1.1597  0.5334 -0.1281
 4716TIP3   OH235562   5.212   3.372  10.906  0.4197  0.3567 -0.8060
 4716TIP3    H135563   5.150   3.310  10.945  0.5804  1.0780  0.6935
 4716TIP3    H235564   5.295   3.353  10.949  0.6078  1.1859 -0.7813
 4717TIP3   OH235565   6.891   6.719  13.376  0.2366 -0.2997 -0.6569
 4717TIP3    H135566   6.896   6.758  13.289 -1.3298 -0.7789 -0.9801
 4717TIP3    H235567   6.955   6.648  13.375  0.1804 -0.3384 -1.4302
 4718TIP3   OH235568   1.211   4.210   0.413 -0.4405  0.1417 -0.3434
 4718TIP3    H135569   1.260   4.128   0.419  0.7197  0.8195 -0.1620
 4718TIP3    H235570   1.124   4.184   0.386  0.2245 -1.0495 -1.4585
 4719TIP3   OH235571   4.385   0.153  10.826  0.1189  0.4297 -0.2303
 4719TIP3    H135572   4.323   0.101  10.877 -0.5626  1.9656  0.5634
 4719TIP3    H235573   4.456   0.092  10.806 -1.8662 -1.5270 -1.6750
 4720TIP3   OH235574   6.615   1.755  10.561 -0.3305 -0.1807 -0.3416
 4720TIP3    H135575   6.701   1.715  10.572 -0.1077  0.8353  2.7392
 4720TIP3    H235576   6.553   1.684  10.578  0.0138 -0.0855  1.4978
 4721TIP3   OH235577   7.032   3.394  11.627  0.5411  0.2873 -0.2482
 4721TIP3    H135578   7.107   3.425  11.677  1.1919  0.5970 -1.3780
 4721TIP3    H235579   7.059   3.309  11.593 -0.2989 -0.4242  0.7677
 4722TIP3   OH235580   5.604   3.391  12.957  0.2872 -0.0994 -0.0529
 4722TIP3    H135581   5.529   3.400  12.898 -0.0224  0.2219  0.3791
 4722TIP3    H235582   5.639   3.480  12.964  2.1842 -0.6187 -2.1371
 4723TIP3   OH235583   0.496   1.341  15.393  0.0198 -0.1364 -0.2029
 4723TIP3    H135584   0.556   1.415  15.380  0.1237 -0.1799  0.0171
 4723TIP3    H235585   0.460   1.324  15.307 -0.3847  0.4953 -0.1617
 4724TIP3   OH235586   3.422   3.349  12.023  0.4942 -0.0288  0.0630
 4724TIP3    H135587   3.353   3.412  12.003  0.2667  0.0802  1.1039
 4724TIP3    H235588   3.503   3.391  11.994  0.1563 -0.0362 -0.9044
 4725TIP3   OH235589   2.054   1.031   3.004  0.1683 -0.2117  0.2372
 4725TIP3    H135590   2.142   1.034   3.042  0.4738 -0.2931 -0.4554
 4725TIP3    H235591   2.047   1.113   2.956 -0.0637 -0.2939  0.1339
 4726TIP3   OH235592   5.413   6.632   0.412  0.0977 -0.8060 -0.1038
 4726TIP3    H135593   5.458   6.554   0.380 -2.8929 -3.7149  2.1340
 4726TIP3    H235594   5.429   6.632   0.506 -1.2011  0.4420  0.1470
 4727TIP3   OH235595   5.817   5.253  13.469  0.0759 -0.2260  0.4628
 4727TIP3    H135596   5.773   5.337  13.482  0.9153  0.6154 -1.7482
 4727TIP3    H235597   5.749   5.195  13.436 -0.6584 -0.6808  2.5804
 4728TIP3   OH235598   0.138   3.489  14.002 -0.2273  0.0357  0.2864
 4728TIP3    H135599   0.075   3.478  14.073 -0.4053  0.5427  0.2158
 4728TIP3    H235600   0.224   3.485  14.044 -0.3384  0.7362  0.5972
 4729TIP3   OH235601   0.614   2.746   0.928 -0.3944  0.4460 -0.4011
 4729TIP3    H135602   0.531   2.725   0.971  0.3813  0.5969  1.2616
 4729TIP3    H235603   0.607   2.839   0.907 -0.0229  0.8953  1.3072
 4730TIP3   OH235604   5.452   4.083   1.272 -0.3914  0.0789 -0.1765
 4730TIP3    H135605   5.367   4.078   1.229 -0.0706 -0.2348 -0.7831
 4730TIP3    H235606   5.458   4.003   1.324 -1.5345  1.2564  1.9249
 4731TIP3   OH235607   3.798   0.101  11.810  0.2375 -0.4390  0.4121
 4731TIP3    H135608   3.783   0.012  11.842  2.4346 -1.8893 -2.1625
 4731TIP3    H235609   3.868   0.135  11.866  0.6315 -1.0508  0.3090
 4732TIP3   OH235610   3.159   1.129  14.637 -0.0257  0.1013  0.2789
 4732TIP3    H135611   3.135   1.183  14.562 -1.9834 -1.7177 -0.5088
 4732TIP3    H235612   3.213   1.059  14.600  0.4024  0.1179  0.8557
 4733TIP3   OH235613   6.337   4.675   4.281 -0.0812  0.7103 -1.1052
 4733TIP3    H135614   6.287   4.593   4.283  1.8215 -0.4844 -0.2941
 4733TIP3    H235615   6.338   4.701   4.189 -0.9332 -0.0090 -1.3271
 4734TIP3   OH235616   0.036   5.357  14.792 -0.3146  0.0715 -0.0950
 4734TIP3    H135617   0.111   5.402  14.830  0.5648 -0.8068 -0.7234
 4734TIP3    H235618   0.036   5.270  14.833 -1.2836  0.2205  0.2516
 4735TIP3   OH235619   6.960   2.120  11.123 -0.2057 -0.3302  0.1641
 4735TIP3    H135620   6.963   2.035  11.078 -0.7055  0.1576 -0.8181
 4735TIP3    H235621   6.983   2.100  11.214  3.8756 -0.9459 -0.8212
 4736TIP3   OH235622   6.670   5.348  10.549 -0.3281 -0.1779 -0.4411
 4736TIP3    H135623   6.668   5.381  10.639 -0.4013 -1.5694  0.0875
 4736TIP3    H235624   6.696   5.424  10.496  0.6649  0.4317  0.8598
 4737TIP3   OH235625   5.936   5.733  14.336  0.2545 -0.3051  0.6917
 4737TIP3    H135626   5.890   5.817  14.336 -0.9600 -0.9420  1.2054
 4737TIP3    H235627   5.907   5.690  14.416  1.6888 -0.7863  0.9766
 4738TIP3   OH235628   6.805   1.608   3.400  0.4141  0.5179  0.2277
 4738TIP3    H135629   6.782   1.656   3.479  0.3269 -1.0759  1.2197
 4738TIP3    H235630   6.851   1.671   3.345  0.9503  1.5213  1.7805
 4739TIP3   OH235631   3.409   6.202  13.886  0.6235  0.2738 -0.0341
 4739TIP3    H135632   3.338   6.193  13.823  1.2906  1.9148 -1.0852
 4739TIP3    H235633   3.369   6.185  13.971 -0.7528  0.0387 -0.7149
 4740TIP3   OH235634   6.840   6.282  10.110  0.5825 -0.4013  0.7231
 4740TIP3    H135635   6.849   6.310  10.020  0.4888 -1.0125  0.5183
 4740TIP3    H235636   6.758   6.322  10.140  0.7838  0.0743  0.6461
 4741TIP3   OH235637   4.769   1.690   3.802 -0.2456  0.0066  0.2311
 4741TIP3    H135638   4.731   1.761   3.854  0.7051  0.4439  0.3510
 4741TIP3    H235639   4.700   1.625   3.797 -1.1161  0.8999  0.1927
 4742TIP3   OH235640   4.343   1.712  12.088  0.1237 -0.5270 -0.1463
 4742TIP3    H135641   4.340   1.734  12.181 -0.4631 -1.5393  0.0973
 4742TIP3    H235642   4.264   1.659  12.074 -0.5637  0.8007 -1.5421
 4743TIP3   OH235643   0.277   1.595  11.761 -0.2672  0.0851 -0.1331
 4743TIP3    H135644   0.244   1.553  11.681 -0.4519  1.6543 -0.9119
 4743TIP3    H235645   0.362   1.630  11.736  0.6944 -1.3319  1.0216
 4744TIP3   OH235646   5.510   2.116   2.302 -0.4472  0.3110  0.1724
 4744TIP3    H135647   5.573   2.185   2.324  0.2514 -0.3860  0.3757
 4744TIP3    H235648   5.510   2.113   2.207  0.1845 -0.0015  0.1781
 4745TIP3   OH235649   0.199   4.653   2.447 -0.5358 -0.3801  0.1838
 4745TIP3    H135650   0.228   4.595   2.517 -2.3561 -1.2381  0.2884
 4745TIP3    H235651   0.108   4.628   2.432 -0.4708  0.4362 -1.8350
 4746TIP3   OH235652   4.792   0.068  11.486  0.1496  0.2607 -0.2786
 4746TIP3    H135653   4.816   0.134  11.552 -0.0489 -0.1159  0.1734
 4746TIP3    H235654   4.864   0.005  11.489  0.5148  0.6290 -0.9603
 4747TIP3   OH235655   6.690   1.206   9.515 -0.3353 -0.1026 -0.1922
 4747TIP3    H135656   6.659   1.138   9.574  0.9700  1.7699  2.9065
 4747TIP3    H235657   6.611   1.245   9.479 -1.4143  0.2800  2.3589
 4748TIP3   OH235658   0.396   6.619   9.998 -0.0825 -0.0580 -0.3835
 4748TIP3    H135659   0.382   6.713   9.990  1.7266  0.3819  0.8188
 4748TIP3    H235660   0.354   6.581   9.921 -1.2715  1.6711 -0.6412
 4749TIP3   OH235661   2.850   1.693  12.507 -0.3015  0.4760 -0.0981
 4749TIP3    H135662   2.901   1.620  12.470 -2.4754 -0.6694 -1.0748
 4749TIP3    H235663   2.826   1.746  12.431 -1.6715  0.2041  0.1159
 4750TIP3   OH235664   2.893   2.292   9.819 -0.5232  0.2051  0.0805
 4750TIP3    H135665   2.874   2.208   9.859 -0.0828  0.9467  1.9372
 4750TIP3    H235666   2.988   2.291   9.806 -0.5333  0.3722 -0.0077
 4751TIP3   OH235667   0.107   5.110   2.083  0.1936  0.6081  0.3328
 4751TIP3    H135668   0.076   5.192   2.047  0.6953  1.7084  2.2282
 4751TIP3    H235669   0.033   5.050   2.075 -1.3874  2.2257  1.8857
 4752TIP3   OH235670   3.344   2.596   4.375  0.1783  0.1818  0.0987
 4752TIP3    H135671   3.336   2.630   4.465 -1.3778  0.7809 -0.2260
 4752TIP3    H235672   3.313   2.506   4.381 -1.8680  0.8122 -0.1400
 4753TIP3   OH235673   6.996   5.402  11.646 -0.0540 -0.5813 -0.1264
 4753TIP3    H135674   6.982   5.463  11.719 -0.8081 -2.4867  1.4273
 4753TIP3    H235675   7.082   5.425  11.611 -1.7847  3.8074 -2.1916
 4754TIP3   OH235676   6.257   3.742   2.771  0.0128  0.0285 -0.5446
 4754TIP3    H135677   6.228   3.657   2.804  1.6025 -0.2069  0.2912
 4754TIP3    H235678   6.177   3.781   2.735 -1.7971  0.1505  3.2038
 4755TIP3   OH235679   3.206   2.644  10.891 -0.5928 -0.2071 -0.8311
 4755TIP3    H135680   3.269   2.715  10.876 -1.1040  0.4261 -0.0655
 4755TIP3    H235681   3.133   2.686  10.937 -0.3349 -1.4751  0.8015
 4756TIP3   OH235682   3.500   2.976  12.601  0.1962  0.2844 -0.0237
 4756TIP3    H135683   3.479   3.058  12.644 -0.2604 -0.3620  1.0390
 4756TIP3    H235684   3.427   2.918  12.624  1.0766 -0.7585  0.2501
 4757TIP3   OH235685   5.225   1.481  12.279 -0.0237 -0.1387 -0.3295
 4757TIP3    H135686   5.234   1.463  12.373  1.3289 -1.0371 -0.6031
 4757TIP3    H235687   5.285   1.419  12.237 -0.7737  0.0973 -1.8074
 4758TIP3   OH235688   2.063   5.236  14.950  0.2185  0.6656  0.0430
 4758TIP3    H135689   2.122   5.165  14.978  1.2995  1.2922 -0.5814
 4758TIP3    H235690   2.114   5.286  14.886 -0.4206  2.1820  0.6743
 4759TIP3   OH235691   1.952   4.061   1.362 -0.2288  0.1763  0.0397
 4759TIP3    H135692   2.007   4.024   1.432 -0.0967  0.3752  0.0405
 4759TIP3    H235693   1.868   4.080   1.406 -0.3526 -0.2646  0.0043
 4760TIP3   OH235694   5.855   6.190   4.646  0.3508 -0.1385  0.3404
 4760TIP3    H135695   5.798   6.237   4.707  1.0383  1.2772 -0.0802
 4760TIP3    H235696   5.862   6.247   4.570 -0.0671 -1.6505 -0.8958
 4761TIP3   OH235697   3.910   2.682  12.734 -0.0633  0.5900  0.6028
 4761TIP3    H135698   3.879   2.772  12.728  0.6588  0.8602  0.8388
 4761TIP3    H235699   3.925   2.655  12.643 -2.6545 -0.1649  0.3251
 4762TIP3   OH235700   1.212   5.161  11.021 -0.0870 -0.6271  0.4715
 4762TIP3    H135701   1.217   5.084  10.964 -2.8335 -0.2449 -0.4305
 4762TIP3    H235702   1.140   5.141  11.081 -0.2493  0.8653  0.8089
 4763TIP3   OH235703   5.131   5.850  14.475 -0.0699 -0.2567 -0.2986
 4763TIP3    H135704   5.145   5.793  14.400 -3.3437 -0.8577 -0.5692
 4763TIP3    H235705   5.174   5.804  14.548  0.0017 -1.5190 -1.1068
 4764TIP3   OH235706   1.733   6.239  13.990  0.3114  0.9118 -0.3885
 4764TIP3    H135707   1.696   6.151  13.986  1.6263  0.2717  0.6044
 4764TIP3    H235708   1.670   6.289  14.042  0.2778  0.1490  0.3297
 4765TIP3   OH235709   6.486   0.011   2.683  0.1608  0.1441 -0.7809
 4765TIP3    H135710   6.547  -0.060   2.706  0.0643  0.2559 -0.1504
 4765TIP3    H235711   6.432   0.022   2.762  0.2009  0.9486 -0.8593
 4766TIP3   OH235712   0.307   6.611  14.210  0.5032  0.2017  0.0618
 4766TIP3    H135713   0.403   6.614  14.211  0.4692  2.2460  0.5877
 4766TIP3    H235714   0.286   6.546  14.143  2.2493 -0.0263 -0.3083
 4767TIP3   OH235715   2.146   2.764   3.910  0.0891  0.0944 -0.0214
 4767TIP3    H135716   2.228   2.807   3.886  0.6487  0.0025  1.6043
 4767TIP3    H235717   2.166   2.718   3.991 -1.2613 -0.9327 -0.2389
 4768TIP3   OH235718   1.702   5.875  11.874  0.0773  0.3245 -0.2664
 4768TIP3    H135719   1.699   5.793  11.922  0.1123  0.0841 -0.6714
 4768TIP3    H235720   1.658   5.938  11.931 -1.2471 -0.2906 -0.5620
 4769TIP3   OH235721   3.305   5.953   5.339  0.2586 -0.1033  0.1675
 4769TIP3    H135722   3.326   6.032   5.288 -1.1809  1.0843  1.3130
 4769TIP3    H235723   3.367   5.887   5.308  1.2304  1.3543 -1.1377
 4770TIP3   OH235724   3.899   7.017  10.795  0.8836 -0.0104  0.0426
 4770TIP3    H135725   3.835   6.997  10.726  0.8316  0.4191 -0.0354
 4770TIP3    H235726   3.852   7.075  10.855  0.9929 -0.2221  0.3350
 4771TIP3   OH235727   6.342   5.874   1.307  0.1673 -0.3000 -0.9534
 4771TIP3    H135728   6.388   5.941   1.257  0.7852  0.4707  0.5791
 4771TIP3    H235729   6.303   5.817   1.241  1.6808  0.1562 -2.2849
 4772TIP3   OH235730   5.729   4.014  10.426 -0.0522 -0.6009 -0.3698
 4772TIP3    H135731   5.696   4.007  10.516 -1.6254 -0.4411 -0.8945
 4772TIP3    H235732   5.813   3.970  10.428 -0.2180 -0.9196  1.1057
 4773TIP3   OH235733   6.218   5.038  10.262 -0.2858  0.6314 -0.5359
 4773TIP3    H135734   6.224   5.129  10.294  2.0095  0.2985  0.1539
 4773TIP3    H235735   6.197   4.987  10.340  0.1439  0.3745 -0.5902
 4774TIP3   OH235736   2.224   4.443  13.873 -0.1231 -0.1676  0.1892
 4774TIP3    H135737   2.156   4.501  13.907  0.0442  0.5183 -0.6090
 4774TIP3    H235738   2.206   4.436  13.779  0.1563 -1.0143  0.1872
 4775TIP3   OH235739   6.888   1.727  10.595  0.7791  0.5179  0.1641
 4775TIP3    H135740   6.960   1.789  10.595  1.0649  0.1857 -0.2376
 4775TIP3    H235741   6.922   1.650  10.550  0.0697  0.4778 -0.3187
 4776TIP3   OH235742   0.889   7.018   3.420  0.8163 -0.1692  0.0031
 4776TIP3    H135743   0.804   7.058   3.438  0.5654 -1.1828  1.2346
 4776TIP3    H235744   0.873   6.958   3.347  0.2072 -1.0996  0.8719
 4777TIP3   OH235745   5.920   4.685  12.946  0.0279 -0.0499  0.4679
 4777TIP3    H135746   5.968   4.652  12.870 -0.5709 -0.0251  0.0705
 4777TIP3    H235747   5.874   4.608  12.980 -0.0060  0.0186  0.5736
 4778TIP3   OH235748   0.073   5.717  11.866  0.7469  0.0461  0.0504
 4778TIP3    H135749   0.091   5.724  11.959  0.8375 -1.6784  0.1977
 4778TIP3    H235750   0.145   5.764  11.823  1.5114 -0.4112  0.8143
 4779TIP3   OH235751   6.918   0.106  15.442  0.2044 -0.2519 -0.5533
 4779TIP3    H135752   6.932   0.198  15.467 -1.5532 -0.3222  0.8721
 4779TIP3    H235753   7.002   0.079  15.405  1.0926  1.6319 -0.0838
 4780TIP3   OH235754   2.924   4.465  12.360  0.1287 -0.1329 -0.3591
 4780TIP3    H135755   2.998   4.482  12.302  1.1054 -1.4983  0.4334
 4780TIP3    H235756   2.962   4.466  12.448 -1.1655  1.0466  0.2194
 4781TIP3   OH235757   1.185   2.522   2.043  0.2761  0.4799 -0.3040
 4781TIP3    H135758   1.206   2.458   2.111 -0.2473  0.6487  0.0162
 4781TIP3    H235759   1.130   2.474   1.982  0.3171  0.4794 -0.3410
 4782TIP3   OH235760   6.927   2.737   9.487  0.2226  0.2397  0.3810
 4782TIP3    H135761   6.875   2.789   9.548  0.9643  0.5275  0.7892
 4782TIP3    H235762   6.924   2.649   9.523 -1.9869 -0.2948 -0.9343
 4783TIP3   OH235763   5.049   6.380   1.172 -0.2838  0.0971 -0.0063
 4783TIP3    H135764   4.976   6.341   1.219 -0.4932  0.0530 -0.3690
 4783TIP3    H235765   5.009   6.444   1.113 -0.1849 -1.0443 -1.3615
 4784TIP3   OH235766   1.892   6.682  12.212 -0.1070 -0.0351 -0.1849
 4784TIP3    H135767   1.911   6.682  12.306  1.2828 -1.3349 -0.4259
 4784TIP3    H235768   1.827   6.751  12.201 -1.0846 -0.5417  1.8804
 4785TIP3   OH235769   4.514   0.603  11.685  0.0979  0.2682 -0.1282
 4785TIP3    H135770   4.607   0.604  11.707  0.6244  0.6683 -2.1283
 4785TIP3    H235771   4.494   0.693  11.661 -0.7372  0.1346  0.0510
 4786TIP3   OH235772   3.416   4.028  10.840  0.3609 -0.1671  0.1382
 4786TIP3    H135773   3.466   4.056  10.916 -0.5026 -0.0180  0.6625
 4786TIP3    H235774   3.333   4.075  10.847  0.1077 -0.4842 -0.6612
 4787TIP3   OH235775   4.669   2.026  12.172 -0.4634 -0.1547 -0.3049
 4787TIP3    H135776   4.585   1.989  12.198 -0.0331  0.0028  1.4368
 4787TIP3    H235777   4.692   2.087  12.243  2.9338 -3.0576  1.4708
 4788TIP3   OH235778   4.882   5.133   0.533  0.1014 -0.1083 -0.2336
 4788TIP3    H135779   4.792   5.155   0.510 -0.4287 -1.7027  0.2168
 4788TIP3    H235780   4.911   5.074   0.463  0.3056 -0.7220  0.3585
 4789TIP3   OH235781   3.187   6.486  11.957  0.3253 -0.3444 -0.6655
 4789TIP3    H135782   3.190   6.552  11.888 -1.3642 -0.6910 -1.1120
 4789TIP3    H235783   3.105   6.439  11.942 -0.8196  0.4354  2.3882
 4790TIP3   OH235784   2.885   3.164  10.541 -0.8950  0.5381 -0.1976
 4790TIP3    H135785   2.976   3.152  10.515 -0.2776  0.4493  1.8519
 4790TIP3    H235786   2.879   3.257  10.565 -0.8681  0.1808  1.2713
 4791TIP3   OH235787   6.589   2.479  13.911 -0.6785  0.5228 -0.5928
 4791TIP3    H135788   6.524   2.426  13.865  0.5200  0.2290 -2.0377
 4791TIP3    H235789   6.613   2.546  13.847 -0.7988  1.6837  0.5416
 4792TIP3   OH235790   1.177   2.248  13.283 -0.2582  0.5581 -0.3893
 4792TIP3    H135791   1.254   2.257  13.340 -0.4465 -1.1990  0.1890
 4792TIP3    H235792   1.209   2.271  13.196  0.7133  0.6760 -0.0146
 4793TIP3   OH235793   1.214   0.478  14.326  0.1202 -0.7368  0.0921
 4793TIP3    H135794   1.197   0.411  14.259  0.9956 -1.3885  0.4915
 4793TIP3    H235795   1.238   0.427  14.403 -0.4329  0.0256  0.7701
 4794TIP3   OH235796   6.656   0.548  10.913  0.0218 -0.4430 -0.1628
 4794TIP3    H135797   6.739   0.575  10.874  0.7300  0.3513  1.7710
 4794TIP3    H235798   6.596   0.621  10.895  0.4474  0.0847  0.5106
 4795TIP3   OH235799   4.238   5.290   1.392  0.2494 -0.5701  0.1062
 4795TIP3    H135800   4.235   5.386   1.382 -1.2682 -0.5084  0.7824
 4795TIP3    H235801   4.219   5.257   1.304  1.2574 -0.2763 -0.2392
 4796TIP3   OH235802   4.614   2.066   0.504  0.7022  0.5109 -0.3793
 4796TIP3    H135803   4.536   2.074   0.449  0.8123  1.7316 -0.3953
 4796TIP3    H235804   4.685   2.103   0.451  0.7241  2.1491  0.6984
 4797TIP3   OH235805   3.425   1.177  12.730  0.0253  0.3637 -0.0277
 4797TIP3    H135806   3.485   1.171  12.805 -0.4717  0.7781  0.4160
 4797TIP3    H235807   3.475   1.222  12.662  0.4019  0.2021  0.1372
 4798TIP3   OH235808   6.833   4.330  11.127 -0.0101  0.0585  0.0349
 4798TIP3    H135809   6.859   4.239  11.115  0.3490 -0.0113  1.1888
 4798TIP3    H235810   6.817   4.338  11.221 -2.9155  0.4627 -0.4160
 4799TIP3   OH235811   5.909   4.591  11.663  0.0669  0.2454  0.1936
 4799TIP3    H135812   5.945   4.645  11.734  1.1524  0.9142 -0.8297
 4799TIP3    H235813   5.981   4.533  11.639 -0.8940 -1.3107  0.8709
 4800TIP3   OH235814   3.088   5.776  10.870 -0.3202  0.3194  0.0508
 4800TIP3    H135815   2.998   5.759  10.897 -0.8832  0.0635 -1.8575
 4800TIP3    H235816   3.092   5.871  10.856 -0.6957  0.1807 -1.1142
 4801TIP3   OH235817   4.117   2.983   1.211 -0.8332  0.6206 -0.1611
 4801TIP3    H135818   4.139   2.891   1.224  1.5892  1.2181  0.5299
 4801TIP3    H235819   4.125   3.023   1.298  1.7322  2.0726 -0.9359
 4802TIP3   OH235820   1.378   4.114  13.512 -0.1923  0.1113 -0.1407
 4802TIP3    H135821   1.434   4.088  13.439  2.0329 -0.8108  1.7756
 4802TIP3    H235822   1.290   4.089  13.485  0.5802 -0.3867 -2.4057
 4803TIP3   OH235823   0.343   0.830  13.107  0.1587 -0.3390 -0.1468
 4803TIP3    H135824   0.334   0.819  13.012  0.6202 -2.2676 -0.0069
 4803TIP3    H235825   0.402   0.760  13.134 -0.9615 -0.6322  1.7435
 4804TIP3   OH235826   3.601   4.007  11.532 -0.2623 -0.0540 -0.0096
 4804TIP3    H135827   3.516   3.984  11.570 -0.6554  0.6717 -0.4213
 4804TIP3    H235828   3.621   3.935  11.472 -0.8534  0.0303 -0.3204
 4805TIP3   OH235829   3.564   4.152  11.306 -0.4542  0.0590  0.5359
 4805TIP3    H135830   3.577   4.144  11.400  1.4177  0.9820  0.3947
 4805TIP3    H235831   3.644   4.193  11.273 -2.1736  2.4111 -1.0854
 4806TIP3   OH235832   5.838   5.983  12.047 -0.4486  0.1950 -0.3475
 4806TIP3    H135833   5.847   6.078  12.047  1.6267  0.0575  0.2424
 4806TIP3    H235834   5.875   5.956  12.131  0.8066 -1.2396 -1.3061
 4807TIP3   OH235835   0.273   3.240  15.087  0.1728  0.6574  0.0357
 4807TIP3    H135836   0.305   3.206  15.171 -0.7523  0.9157  0.5122
 4807TIP3    H235837   0.180   3.256  15.102 -0.0593  0.4690 -1.1300
 4808TIP3   OH235838   0.486   5.827   5.482  0.3949 -0.2498 -0.6674
 4808TIP3    H135839   0.561   5.884   5.465  1.0260 -0.7069  0.5315
 4808TIP3    H235840   0.523   5.748   5.520 -0.6320 -0.7913 -0.7530
 4809TIP3   OH235841   4.053   1.550  13.812 -0.2111  0.2325  0.2104
 4809TIP3    H135842   4.013   1.525  13.895 -0.5530  2.5825  0.8247
 4809TIP3    H235843   4.136   1.592  13.837  2.1364 -3.2749 -0.9613
 4810TIP3   OH235844   4.575   4.648  10.820 -0.0048  0.5072 -0.1274
 4810TIP3    H135845   4.634   4.723  10.809  0.5490 -0.0486 -1.0595
 4810TIP3    H235846   4.630   4.572  10.801 -0.3134 -0.2192  1.6952
 4811TIP3   OH235847   4.005   1.743  14.825  0.4456 -0.3003 -0.3022
 4811TIP3    H135848   3.913   1.728  14.843 -0.2087 -0.2535 -3.1048
 4811TIP3    H235849   4.016   1.838  14.828  0.4084 -0.3080  0.0497
 4812TIP3   OH235850   6.201   4.629  15.391 -0.1815  0.3476  0.2376
 4812TIP3    H135851   6.172   4.710  15.432  1.9584  1.1765  0.2065
 4812TIP3    H235852   6.215   4.652  15.299 -1.9644 -0.7360 -0.3731
 4813TIP3   OH235853   2.824   2.588  14.728 -0.3791 -0.1684  0.1628
 4813TIP3    H135854   2.856   2.674  14.703 -0.9460 -0.2780 -1.0204
 4813TIP3    H235855   2.748   2.573  14.671 -1.5869 -0.5681  1.8087
 4814TIP3   OH235856   3.211   3.345  13.068 -0.7120 -0.5670  0.3435
 4814TIP3    H135857   3.235   3.437  13.077 -1.1514 -0.3843 -0.3054
 4814TIP3    H235858   3.229   3.307  13.154  0.7043 -0.1675  0.2542
 4815TIP3   OH235859   1.556   4.318   9.781 -0.4024 -0.0439  0.3156
 4815TIP3    H135860   1.513   4.276   9.707  0.6079  0.2637 -0.4695
 4815TIP3    H235861   1.539   4.260   9.855 -1.4820 -0.3200 -0.1332
 4816TIP3   OH235862   5.060   1.541   2.407 -0.1870  0.4721  0.0609
 4816TIP3    H135863   5.040   1.625   2.366  2.5233  1.3563  0.3601
 4816TIP3    H235864   4.983   1.522   2.461 -2.5532  0.7704 -2.9205
 4817TIP3   OH235865   4.456   3.188  11.953  0.0237  0.3951 -0.1241
 4817TIP3    H135866   4.432   3.273  11.916 -2.2884 -0.3146 -0.4048
 4817TIP3    H235867   4.464   3.204  12.047 -0.9802  0.8093 -0.1018
 4818TIP3   OH235868   3.538   2.727  12.304 -0.0475  0.1011 -0.7100
 4818TIP3    H135869   3.500   2.653  12.258  3.8161 -0.9053 -2.7030
 4818TIP3    H235870   3.567   2.786  12.234  3.0318  0.1387  0.4419
 4819TIP3   OH235871   4.963   3.280   3.914 -0.1241  0.3531 -0.2048
 4819TIP3    H135872   4.886   3.247   3.868 -0.5327 -1.1057  1.4233
 4819TIP3    H235873   4.940   3.369   3.940 -1.1503  0.0512 -0.0361
 4820TIP3   OH235874   6.063   5.577  13.175 -0.1967  0.5107  0.1685
 4820TIP3    H135875   6.020   5.639  13.116  0.9322  0.8025 -0.3669
 4820TIP3    H235876   6.002   5.568  13.248 -1.2588  0.7655 -0.6508
 4821TIP3   OH235877   5.949   5.722  11.264  0.4004 -0.7123  0.0967
 4821TIP3    H135878   5.907   5.802  11.295 -0.4215 -0.1510 -2.2771
 4821TIP3    H235879   6.012   5.699  11.333 -1.1719  0.4911  2.0480
 4822TIP3   OH235880   3.275   0.610  10.571 -0.1371  0.1537  0.0314
 4822TIP3    H135881   3.252   0.703  10.574  2.8352  1.0112 -0.3752
 4822TIP3    H235882   3.274   0.589  10.477  2.6850  0.9090 -0.2886
 4823TIP3   OH235883   0.063   0.848  11.429 -0.0872 -0.4155 -0.6557
 4823TIP3    H135884   0.084   0.830  11.338  1.9945 -1.3561 -0.0439
 4823TIP3    H235885   0.025   0.767  11.462  1.2860 -0.8769 -0.1337
 4824TIP3   OH235886   0.305   3.797  10.645  0.8319  0.4973 -0.2301
 4824TIP3    H135887   0.245   3.757  10.707 -0.1338  0.8962 -0.8816
 4824TIP3    H235888   0.288   3.751  10.562  1.6058  0.4398 -0.3657
 4825TIP3   OH235889   0.013   4.906   3.346  0.4888 -0.1664  0.3478
 4825TIP3    H135890  -0.071   4.923   3.390  0.2821  0.5220 -0.2802
 4825TIP3    H235891   0.014   4.812   3.332 -0.7495 -0.0459 -0.7197
 4826TIP3   OH235892   4.216   2.382  13.584 -0.8273  0.1783 -0.2602
 4826TIP3    H135893   4.132   2.371  13.628  0.1921 -0.2223  1.7269
 4826TIP3    H235894   4.272   2.314  13.622  0.3171  0.2323 -1.7662
 4827TIP3   OH235895   5.423   1.361  10.643 -0.3113 -0.6764  0.2721
 4827TIP3    H135896   5.513   1.330  10.656 -0.1881 -0.2647  0.4338
 4827TIP3    H235897   5.384   1.298  10.583  1.1451  0.9312 -2.6202
 4828TIP3   OH235898   5.111   6.388  10.980  0.7799  0.1735 -0.1147
 4828TIP3    H135899   5.205   6.405  10.978  1.0749 -1.3270 -0.3384
 4828TIP3    H235900   5.074   6.452  10.920  1.5245  1.4425  0.7278
 4829TIP3   OH235901   2.621   3.943  12.803 -0.3077  0.1784  0.0852
 4829TIP3    H135902   2.530   3.969  12.789  0.4047  3.5855  0.8805
 4829TIP3    H235903   2.618   3.847  12.803 -3.7760  0.1308 -0.4424
 4830TIP3   OH235904   2.654   4.355   3.484 -0.1324  0.7121 -0.3315
 4830TIP3    H135905   2.652   4.449   3.469  1.7420  0.5906 -1.7888
 4830TIP3    H235906   2.697   4.319   3.406  1.8947 -1.0117  1.4430
 4831TIP3   OH235907   3.327   4.837   0.587  0.5866  0.1164  0.3227
 4831TIP3    H135908   3.284   4.874   0.664 -0.7690  0.0843 -0.3853
 4831TIP3    H235909   3.308   4.744   0.591  1.0686  0.0166  0.2967
 4832TIP3   OH235910   7.052   2.801  12.029  0.0243  0.0852 -0.2079
 4832TIP3    H135911   6.996   2.875  12.052  1.4359  1.7161 -1.7108
 4832TIP3    H235912   7.042   2.740  12.102 -0.1357  2.3610  1.8039
 4833TIP3   OH235913   3.869   2.150  14.327  0.6212 -0.4792  0.8209
 4833TIP3    H135914   3.854   2.168  14.234  0.4747  0.2316  0.9773
 4833TIP3    H235915   3.908   2.230  14.361  0.5324 -0.6807  1.4095
 4834TIP3   OH235916   1.982   0.367  11.299  0.3378  0.5399 -0.1815
 4834TIP3    H135917   2.049   0.435  11.304 -1.5501  2.4229  2.4911
 4834TIP3    H235918   2.020   0.292  11.346  0.8765  1.3275  0.6766
 4835TIP3   OH235919   3.833   4.671  12.492  0.8056  0.3554  0.2106
 4835TIP3    H135920   3.868   4.760  12.495  1.2942  0.2347 -1.3173
 4835TIP3    H235921   3.888   4.625  12.429 -0.4668 -0.5735 -0.2811
 4836TIP3   OH235922   0.701   0.787  10.396  0.6035  0.4893 -0.2371
 4836TIP3    H135923   0.733   0.698  10.410 -0.5143  0.1775  0.5412
 4836TIP3    H235924   0.613   0.775  10.360  0.8827  1.3000 -1.2297
 4837TIP3   OH235925   6.884   5.431  10.800 -0.5864 -0.1259 -0.6923
 4837TIP3    H135926   6.919   5.468  10.882 -0.7302 -2.5507  0.5568
 4837TIP3    H235927   6.791   5.420  10.818 -0.7644  0.0343 -1.4967
 4838TIP3   OH235928   1.621   4.294   2.966  0.0035 -0.1398  0.7009
 4838TIP3    H135929   1.689   4.359   2.986 -0.4173  0.4074  0.3863
 4838TIP3    H235930   1.668   4.212   2.955  0.8468  0.5530 -1.3118
 4839TIP3   OH235931   6.281   0.201  12.664  0.1213 -0.4973  0.8564
 4839TIP3    H135932   6.209   0.254  12.631  0.5526  0.9267  2.0965
 4839TIP3    H235933   6.254   0.175  12.752  1.2437  0.3569  1.4766
 4840TIP3   OH235934   1.127   2.379  14.752  0.5265 -0.1628 -0.6715
 4840TIP3    H135935   1.143   2.425  14.834  2.3491  0.9221 -1.5650
 4840TIP3    H235936   1.169   2.294  14.763 -3.0220 -1.9062  1.0601
 4841TIP3   OH235937   3.903   3.319  13.008 -0.3603  0.6817  0.5181
 4841TIP3    H135938   3.961   3.320  12.931 -0.7564 -0.7281  0.1742
 4841TIP3    H235939   3.961   3.334  13.082  0.5399 -1.0586  0.2118
 4842TIP3   OH235940   2.616   6.048  11.094  0.7410  0.3949  0.1585
 4842TIP3    H135941   2.570   5.989  11.035  0.3988  0.4278  0.3934
 4842TIP3    H235942   2.637   6.125  11.040  1.2848  0.0153 -0.1745
 4843TIP3   OH235943   2.443   1.804   3.089  0.0763 -0.2512 -0.3046
 4843TIP3    H135944   2.537   1.790   3.103  0.2650  0.2010 -1.0443
 4843TIP3    H235945   2.401   1.769   3.167  1.0816  2.9678  1.8596
 4844TIP3   OH235946   2.946   0.701  12.986 -0.0353  0.4791  0.3987
 4844TIP3    H135947   3.018   0.764  12.995 -1.1091  1.6183  1.4059
 4844TIP3    H235948   2.870   0.747  13.022 -1.0781 -1.0357  0.2018
 4845TIP3   OH235949   4.023   1.623  13.134 -0.1127 -0.1432 -0.2891
 4845TIP3    H135950   3.940   1.657  13.100  0.0732  1.4155  0.6834
 4845TIP3    H235951   3.999   1.577  13.214  0.0388  1.3827  0.6783
 4846TIP3   OH235952   3.109   1.933  10.046 -0.4091  0.2511  0.2405
 4846TIP3    H135953   3.072   1.989  10.115 -0.2260  0.0508  0.5048
 4846TIP3    H235954   3.049   1.944   9.972 -0.7154  0.3251  0.4940
 4847TIP3   OH235955   3.828   5.451   0.525 -0.0529 -0.4387 -0.2374
 4847TIP3    H135956   3.830   5.542   0.553 -0.9429 -0.7169  0.7721
 4847TIP3    H235957   3.830   5.455   0.429 -0.3774  0.6471 -0.2028
 4848TIP3   OH235958   2.077   0.703   4.044  0.1126 -0.0908 -0.0590
 4848TIP3    H135959   2.140   0.775   4.038 -0.2627  0.1892 -0.8618
 4848TIP3    H235960   2.127   0.631   4.082  1.2763 -0.2498 -1.7632
 4849TIP3   OH235961   0.420   6.690  11.170  0.0713 -0.5621  0.3158
 4849TIP3    H135962   0.390   6.688  11.079  0.6214  0.3752  0.0944
 4849TIP3    H235963   0.507   6.729  11.165  0.2867 -0.9145  1.2041
 4850TIP3   OH235964   4.635   6.016   0.944 -0.0641  0.3818 -0.5184
 4850TIP3    H135965   4.562   5.955   0.935 -0.2037  0.4802 -0.0687
 4850TIP3    H235966   4.657   6.014   1.037  0.4798  0.3870 -0.6441
 4851TIP3   OH235967   0.455   0.757  12.839  0.3399  0.1609  0.3017
 4851TIP3    H135968   0.541   0.799  12.841  0.4865 -0.0310 -0.9947
 4851TIP3    H235969   0.452   0.712  12.755 -0.2054 -1.6278  1.2343
 4852TIP3   OH235970   0.617   4.726  13.554 -0.0784 -0.5932  0.6790
 4852TIP3    H135971   0.686   4.738  13.619  0.9478  0.1439 -0.5132
 4852TIP3    H235972   0.573   4.811  13.549 -0.7335 -0.9068  1.0496
 4853TIP3   OH235973   1.956   4.472  10.193  0.9892 -0.1502  0.8794
 4853TIP3    H135974   1.994   4.512  10.115 -0.8849 -0.7808 -0.4402
 4853TIP3    H235975   1.898   4.539  10.229  0.1858 -0.5964  0.4407
 4854TIP3   OH235976   4.151   6.620  12.118 -0.2071  0.3890  0.3599
 4854TIP3    H135977   4.206   6.696  12.138  0.2311  0.5291 -1.2155
 4854TIP3    H235978   4.173   6.598  12.027 -0.9775 -1.0793  0.4980
 4855TIP3   OH235979   2.987   1.578   3.614 -0.2550 -0.1108 -0.2035
 4855TIP3    H135980   2.905   1.623   3.634 -0.1127 -0.2975  0.8101
 4855TIP3    H235981   2.971   1.536   3.529 -0.4588  1.6532 -1.0791
 4856TIP3   OH235982   5.399   2.484   0.648 -0.4623 -0.6440  0.0783
 4856TIP3    H135983   5.436   2.493   0.561  1.2437  0.8974  0.8919
 4856TIP3    H235984   5.402   2.390   0.666 -0.2121 -0.9064 -1.2656
 4857TIP3   OH235985   2.917   6.003  10.451  0.1206  0.2473 -0.2484
 4857TIP3    H135986   2.937   5.956  10.370 -3.3422 -0.5238 -0.7837
 4857TIP3    H235987   2.931   6.096  10.429  2.3494 -0.1124 -0.6371
 4858TIP3   OH235988   6.198   2.605  15.036  0.3600 -0.2522  0.6679
 4858TIP3    H135989   6.255   2.679  15.057  0.5661 -0.1610 -0.1696
 4858TIP3    H235990   6.199   2.600  14.941 -2.5385  0.9499  0.4481
 4859TIP3   OH235991   5.837   2.596   1.192 -0.3624 -0.7433 -0.2430
 4859TIP3    H135992   5.913   2.586   1.250 -0.2466  0.4345 -0.1721
 4859TIP3    H235993   5.811   2.506   1.172  0.4338 -1.1711  0.5379
 4860TIP3   OH235994   6.901   3.809   2.727 -0.0608  0.6939  0.1618
 4860TIP3    H135995   6.843   3.780   2.798  0.7739  0.5231  0.7815
 4860TIP3    H235996   6.979   3.754   2.734  0.6873  1.7093  0.0769
 4861TIP3   OH235997   4.525   3.919   2.686 -0.0482  0.7864  0.2004
 4861TIP3    H135998   4.566   3.840   2.653 -0.7372  0.2657  0.5698
 4861TIP3    H235999   4.515   3.975   2.609  0.8616  0.7145  0.0160
 4862TIP3   OH236000   4.682   6.955  11.387 -0.6709 -0.1458  0.4738
 4862TIP3    H136001   4.699   7.034  11.439 -0.2462 -0.0028  0.1216
 4862TIP3    H236002   4.615   6.908  11.437 -0.5648  0.1902  0.9420
 4863TIP3   OH236003   1.887   6.614  10.367  0.5716 -0.2605 -0.1276
 4863TIP3    H136004   1.880   6.593  10.274  1.2419  1.2319 -0.5502
 4863TIP3    H236005   1.811   6.572  10.407 -0.5631  0.2998 -1.5972
 4864TIP3   OH236006   3.963   6.304  10.890 -0.0033  0.3708  0.1041
 4864TIP3    H136007   4.057   6.288  10.904 -0.2452  1.0035  2.9681
 4864TIP3    H236008   3.930   6.220  10.857  1.3372 -0.2935  0.3719
 4865TIP3   OH236009   6.018   4.423  15.393  0.2430 -0.0107  0.5925
 4865TIP3    H136010   6.073   4.501  15.385 -0.8643  0.5783 -3.0698
 4865TIP3    H236011   5.957   4.445  15.464  1.3488  1.5256  1.1227
 4866TIP3   OH236012   2.371   2.352   5.285 -0.3408  0.3869  0.5949
 4866TIP3    H136013   2.306   2.282   5.283  0.5142 -0.4241  0.6082
 4866TIP3    H236014   2.422   2.335   5.364  1.6379 -0.6312 -0.8064
 4867TIP3   OH236015   5.106   5.160  13.514  0.4363 -0.1264  0.1113
 4867TIP3    H136016   5.072   5.092  13.572  0.8985 -0.4672 -0.0018
 4867TIP3    H236017   5.089   5.126  13.426  0.4578  0.0132  0.0536
 4868TIP3   OH236018   6.531   4.066  12.928  0.3168  0.1452 -0.2514
 4868TIP3    H136019   6.442   4.092  12.903  1.3337  3.5378 -0.8840
 4868TIP3    H236020   6.549   4.114  13.008  1.6647 -0.2638 -0.2743
 4869TIP3   OH236021   0.749   5.551  14.728  0.4145 -0.5224 -0.1689
 4869TIP3    H136022   0.750   5.456  14.724  0.0874 -0.5343  0.0413
 4869TIP3    H236023   0.840   5.575  14.746  0.7060 -0.7490 -1.2571
 4870TIP3   OH236024   4.360   0.355  11.056 -0.1761  0.0907  0.1923
 4870TIP3    H136025   4.442   0.364  11.105 -0.7377 -0.6051  1.2922
 4870TIP3    H236026   4.384   0.301  10.981  0.9200  1.9918 -0.9294
 4871TIP3   OH236027   1.064   5.547   2.164 -0.4822  0.2565 -0.0283
 4871TIP3    H136028   1.152   5.578   2.147 -0.2711 -0.4113 -0.1826
 4871TIP3    H236029   1.010   5.590   2.097 -0.2872  0.7023  0.0973
 4872TIP3   OH236030   4.020   4.650   3.768 -0.4041  0.2407  0.7588
 4872TIP3    H136031   4.017   4.691   3.682  1.2145  0.8814  0.9609
 4872TIP3    H236032   3.929   4.647   3.798 -1.0906 -0.6765 -1.2671
 4873TIP3   OH236033   7.069   3.409   9.719 -0.0342  0.5830 -0.0490
 4873TIP3    H136034   7.138   3.388   9.782  1.1079 -0.0379 -1.4538
 4873TIP3    H236035   7.096   3.492   9.680  1.3843 -0.8682 -2.4371
 4874TIP3   OH236036   4.186   0.864  10.181  0.1521  0.2351 -0.0409
 4874TIP3    H136037   4.189   0.951  10.220 -1.2773  0.1707  0.2512
 4874TIP3    H236038   4.138   0.876  10.099 -0.1574 -0.3005  0.0595
 4875TIP3   OH236039   4.011   1.886  12.259 -0.7160 -0.1033  0.3785
 4875TIP3    H136040   3.995   1.799  12.295  0.6886  0.2726  2.0212
 4875TIP3    H236041   4.012   1.873  12.164  1.0692 -2.2082  0.6022
 4876TIP3   OH236042   5.124   3.220  13.345  0.6434 -0.3189  0.0879
 4876TIP3    H136043   5.173   3.143  13.317 -0.1493 -0.3731 -1.2207
 4876TIP3    H236044   5.166   3.293  13.298  0.3660 -0.1738  0.0661
 4877TIP3   OH236045   3.863   1.882  12.868 -0.6155  0.1843  0.3492
 4877TIP3    H136046   3.792   1.885  12.931 -2.0572  0.5703 -1.2077
 4877TIP3    H236047   3.831   1.933  12.793  0.8221 -0.6049 -0.8712
 4878TIP3   OH236048   6.739   2.557   3.087 -0.0680  0.2815 -0.4246
 4878TIP3    H136049   6.816   2.499   3.091 -1.0902 -1.0520  0.7827
 4878TIP3    H236050   6.711   2.553   2.996  2.2405  2.1597 -1.3341
 4879TIP3   OH236051   1.759   1.533   1.548 -0.1909  0.2766 -0.1715
 4879TIP3    H136052   1.740   1.565   1.460  0.0742  1.2580  0.1130
 4879TIP3    H236053   1.676   1.543   1.595 -0.6135 -1.2057 -0.5725
 4880TIP3   OH236054   3.960   2.393  14.373  0.6572 -0.6355  0.0520
 4880TIP3    H136055   3.996   2.426  14.290  0.9927  0.5025  0.6330
 4880TIP3    H236056   3.958   2.470  14.430  1.6230 -1.6565  1.5168
 4881TIP3   OH236057   4.492   5.852   1.816  0.0150 -0.0780  0.1482
 4881TIP3    H136058   4.456   5.797   1.885 -0.8538  0.2683 -0.0214
 4881TIP3    H236059   4.584   5.824   1.808 -0.1282 -0.7482  0.7996
 4882TIP3   OH236060   0.515   0.342  14.265 -0.3139 -0.1287  0.6306
 4882TIP3    H136061   0.534   0.414  14.324  0.4047 -1.2037  1.7398
 4882TIP3    H236062   0.592   0.286  14.269 -0.2539 -0.2520 -1.3259
 4883TIP3   OH236063   1.250   2.532  12.283 -0.3530  0.2623  0.2262
 4883TIP3    H136064   1.289   2.548  12.197  0.8531  0.1909  0.7393
 4883TIP3    H236065   1.180   2.596  12.291  1.2668  2.1179  0.2814
 4884TIP3   OH236066   4.337   1.975   4.040  0.2881 -0.0606 -0.0052
 4884TIP3    H136067   4.339   1.905   3.974 -0.7446 -1.1262  1.0515
 4884TIP3    H236068   4.313   1.930   4.122  0.2395  1.4357  0.8278
 4885TIP3   OH236069   6.918   3.476   0.982 -0.0827  0.3060 -0.2085
 4885TIP3    H136070   6.843   3.423   1.008  1.1607 -0.8747  1.1400
 4885TIP3    H236071   6.924   3.465   0.887 -1.1034 -0.2677 -0.2107
 4886TIP3   OH236072   2.999   4.172  15.072 -0.7740  0.4568 -0.1810
 4886TIP3    H136073   2.923   4.182  15.015 -0.6426 -2.8021 -1.1147
 4886TIP3    H236074   3.071   4.214  15.024 -1.2212  0.2098 -1.0899
 4887TIP3   OH236075   2.907   6.065  14.295 -0.1793  0.7344  0.5044
 4887TIP3    H136076   2.963   6.088  14.221 -1.8315  1.8475 -0.4846
 4887TIP3    H236077   2.885   5.973  14.280  0.8548  0.4604  0.5803
 4888TIP3   OH236078   4.478   6.635   2.369  0.8827 -0.3118 -0.7721
 4888TIP3    H136079   4.511   6.710   2.418  0.2259 -0.5082  0.0035
 4888TIP3    H236080   4.430   6.674   2.295 -1.2870  0.1520  0.7901
 4889TIP3   OH236081   1.483   1.309  11.808  0.5901 -0.1584  0.2380
 4889TIP3    H136082   1.542   1.385  11.810  1.7762 -0.9979 -1.0246
 4889TIP3    H236083   1.532   1.242  11.761  0.2067 -2.3003  2.6870
 4890TIP3   OH236084   3.913   5.459  13.799  0.3366 -0.1258 -0.2714
 4890TIP3    H136085   3.858   5.529  13.834 -0.6158 -1.1308  0.3338
 4890TIP3    H236086   3.877   5.443  13.712  1.2761  0.8681 -0.8664
 4891TIP3   OH236087   4.631   5.401  15.265 -0.3864 -0.0069 -0.1387
 4891TIP3    H136088   4.708   5.434  15.313 -1.3020  1.8021  0.1563
 4891TIP3    H236089   4.658   5.314  15.236  1.6418  0.4057  0.2877
 4892TIP3   OH236090   6.908   0.262  14.449  0.0559 -0.0639  0.3535
 4892TIP3    H136091   6.915   0.169  14.470  1.5124  0.3225  1.8550
 4892TIP3    H236092   6.998   0.288  14.428 -0.8119  0.3475 -3.4514
 4893TIP3   OH236093   6.303   2.352  15.106 -0.1036  0.4169  0.4346
 4893TIP3    H136094   6.290   2.441  15.075 -0.4211  0.4261  0.5897
 4893TIP3    H236095   6.315   2.362  15.201  0.8063  0.3864  0.3307
 4894TIP3   OH236096   2.645   3.994  11.962  0.1353 -0.7715 -0.1339
 4894TIP3    H136097   2.686   4.017  11.878 -1.1931 -0.3459 -0.6853
 4894TIP3    H236098   2.692   3.915  11.990  2.1566  0.3679 -0.1140
 4895TIP3   OH236099   4.699   6.443  11.193  0.0981  0.1195  0.2278
 4895TIP3    H136100   4.790   6.466  11.175  1.2843 -1.9579  2.8923
 4895TIP3    H236101   4.653   6.527  11.194  1.4371  1.0669 -3.3494
 4896TIP3   OH236102   2.861   1.458   3.411 -0.3163  0.5656  0.2586
 4896TIP3    H136103   2.771   1.488   3.402  0.0182  1.6659  0.4920
 4896TIP3    H236104   2.898   1.467   3.323 -0.7810 -1.1288 -0.1517
 4897TIP3   OH236105   7.107   2.137  13.902 -0.5720 -0.3099 -0.0688
 4897TIP3    H136106   7.063   2.072  13.849 -1.0358 -0.5112  0.5494
 4897TIP3    H236107   7.178   2.170  13.847 -0.7464 -0.8584 -0.6231
 4898TIP3   OH236108   3.032   1.303   1.036  0.0858  1.1990  0.4300
 4898TIP3    H136109   3.003   1.380   0.987 -0.0736 -0.2188 -1.8546
 4898TIP3    H236110   3.124   1.293   1.011 -0.3710 -0.3463 -0.7645
 4899TIP3   OH236111   6.486   5.879   6.109 -0.2018 -0.0794  0.4628
 4899TIP3    H136112   6.399   5.904   6.079  0.1149  0.6182  0.1243
 4899TIP3    H236113   6.512   5.807   6.051  0.7760  1.8197 -1.6073
 4900TIP3   OH236114   2.962   4.100  12.858  0.0658 -0.8219  0.3419
 4900TIP3    H136115   2.879   4.109  12.811  0.3529 -2.2871 -0.5230
 4900TIP3    H236116   3.028   4.100  12.789  0.6769 -0.9436  0.9230
 4901TIP3   OH236117   3.752   1.055  12.801  0.7811 -0.0160 -0.5976
 4901TIP3    H136118   3.741   1.115  12.875 -1.5323  0.3209 -1.1180
 4901TIP3    H236119   3.844   1.028  12.805  1.4537  2.1682  0.7184
 4902TIP3   OH236120   3.060   4.033  10.389  0.1462  0.2505 -0.6322
 4902TIP3    H136121   2.976   4.060  10.425  1.1179 -0.4437  2.4874
 4902TIP3    H236122   3.039   3.995  10.303 -2.3983  1.9045 -0.8524
 4903TIP3   OH236123   5.172   7.041  10.822 -0.3455  0.0754  0.1738
 4903TIP3    H136124   5.240   6.996  10.872 -0.9658 -1.6877 -0.4896
 4903TIP3    H236125   5.163   6.989  10.742 -1.8804  0.7652 -0.1345
 4904TIP3   OH236126   1.721   4.646  12.340  0.0293 -0.2886  0.3968
 4904TIP3    H136127   1.739   4.669  12.249  0.0975  0.0389  0.4912
 4904TIP3    H236128   1.680   4.724  12.377 -1.7737 -1.0639  0.1444
 4905TIP3   OH236129   4.404   3.990  10.970  0.0572  0.1126  0.6258
 4905TIP3    H136130   4.442   4.078  10.972  3.7063 -1.2610  0.2584
 4905TIP3    H236131   4.393   3.972  10.876  0.9195 -0.3856  0.6109
 4906TIP3   OH236132   1.449   1.614  11.103 -0.0500  0.1695 -0.4552
 4906TIP3    H136133   1.514   1.568  11.156  0.4471  0.2714 -0.9564
 4906TIP3    H236134   1.479   1.705  11.103 -0.4760  0.3097 -0.2797
 4907TIP3   OH236135   2.741   1.102   0.411 -0.5372 -0.3448 -0.6248
 4907TIP3    H136136   2.693   1.148   0.342  0.2072 -0.0470 -0.9580
 4907TIP3    H236137   2.772   1.172   0.470 -1.7942 -0.6484  0.4411
 4908TIP3   OH236138   6.171   3.941   4.607  0.0773  0.3173 -0.0188
 4908TIP3    H136139   6.163   3.993   4.687 -0.4165  0.7101 -0.3203
 4908TIP3    H236140   6.255   3.968   4.569 -0.0411  0.6756 -0.0249
 4909TIP3   OH236141   3.155   6.470  15.545 -0.3117 -0.4006  0.4579
 4909TIP3    H136142   3.102   6.532  15.595 -2.3357 -0.9656 -0.8322
 4909TIP3    H236143   3.140   6.386  15.588  1.2457 -0.2710  1.3157
 4910TIP3   OH236144   6.015   0.765  15.164  0.2889 -0.1271 -0.5415
 4910TIP3    H136145   6.047   0.679  15.137  1.0476  0.2443 -0.8567
 4910TIP3    H236146   6.017   0.818  15.084  0.1783  0.2905 -0.2712
 4911TIP3   OH236147   0.187   0.662  12.845  0.1484 -0.2851 -0.1368
 4911TIP3    H136148   0.273   0.694  12.817 -0.4644  0.6608 -1.0154
 4911TIP3    H236149   0.139   0.647  12.763 -0.0712 -2.1765  0.2904
 4912TIP3   OH236150   4.526   1.759  11.892 -0.1555  0.3208 -0.2686
 4912TIP3    H136151   4.475   1.746  11.972 -1.3703 -1.0590 -1.2207
 4912TIP3    H236152   4.615   1.734  11.917 -0.8997 -2.1835  0.1695
 4913TIP3   OH236153   1.321   3.555  13.241 -0.5106  0.3175  0.1457
 4913TIP3    H136154   1.390   3.609  13.280 -0.1491  0.2892 -0.4483
 4913TIP3    H236155   1.240   3.584  13.284 -0.5379  2.2940 -1.1448
 4914TIP3   OH236156   2.982   3.266   0.201  0.4343 -0.1863  0.0347
 4914TIP3    H136157   2.965   3.269   0.295  0.5185  3.0454  0.0401
 4914TIP3    H236158   3.078   3.269   0.194  0.4161 -0.0664 -0.1669
 4915TIP3   OH236159   7.097   2.439   4.901 -0.0812  0.1187  0.5600
 4915TIP3    H136160   7.190   2.424   4.920  0.0405 -0.6098 -0.4871
 4915TIP3    H236161   7.068   2.357   4.860 -0.1043  1.7070 -2.9306
 4916TIP3   OH236162   6.167   4.562   9.616  0.5629 -0.8021 -0.2152
 4916TIP3    H136163   6.215   4.625   9.562  0.0965 -0.2764 -0.0281
 4916TIP3    H236164   6.145   4.611   9.695 -0.1132 -1.1004 -0.2187
 4917TIP3   OH236165   1.381   3.736  14.482 -0.0054 -0.1052  0.0629
 4917TIP3    H136166   1.421   3.713  14.398 -1.6525 -1.4452 -0.4222
 4917TIP3    H236167   1.404   3.663  14.540  0.5949  0.5044  0.5987
 4918TIP3   OH236168   6.474   1.634   5.089  0.0640 -0.2297  0.5859
 4918TIP3    H136169   6.552   1.617   5.142  1.2059  0.7110 -0.7265
 4918TIP3    H236170   6.434   1.711   5.128  0.7475  0.2993  0.2521
 4919TIP3   OH236171   6.868   0.588   0.430 -0.1079  0.1898 -0.5170
 4919TIP3    H136172   6.808   0.615   0.361 -1.9081 -1.4624  0.3013
 4919TIP3    H236173   6.836   0.632   0.509 -0.5551 -1.0267  0.0090
 4920TIP3   OH236174   6.627   6.964   1.235 -0.3810 -0.0297 -0.3923
 4920TIP3    H136175   6.581   6.889   1.198  0.0636 -0.2528 -0.4928
 4920TIP3    H236176   6.630   6.947   1.329 -1.9794  0.7889 -0.1461
 4921TIP3   OH236177   1.580   2.124  14.291  0.4257  0.3498  0.2255
 4921TIP3    H136178   1.544   2.213  14.292  0.7601  0.5297 -1.2039
 4921TIP3    H236179   1.674   2.136  14.301  0.4980  0.1810 -0.2344
 4922TIP3   OH236180   3.904   3.942  11.488  0.6219  0.2945  0.0710
 4922TIP3    H136181   3.840   3.888  11.442 -0.1663  1.3181 -0.0793
 4922TIP3    H236182   3.910   3.902  11.575  0.4984 -0.3807 -0.2276
 4923TIP3   OH236183   6.421   2.144  14.257 -0.6258  0.5566 -0.1044
 4923TIP3    H136184   6.396   2.139  14.165 -0.3330 -1.3608 -0.1288
 4923TIP3    H236185   6.343   2.114  14.304 -0.0533 -0.6508  0.1084
 4924TIP3   OH236186   2.167   3.946  11.894  0.0196 -0.6008 -0.2020
 4924TIP3    H136187   2.139   3.948  11.985 -0.7864  0.7296 -0.4583
 4924TIP3    H236188   2.133   4.027  11.856  0.4905 -1.0452 -1.6473
 4925TIP3   OH236189   2.526   6.089  12.070  0.1328  0.1308  0.2370
 4925TIP3    H136190   2.543   6.178  12.038 -0.5774  0.3098  0.3582
 4925TIP3    H236191   2.442   6.065  12.032 -0.2502 -0.0356  1.1746
 4926TIP3   OH236192   4.273   4.452   2.597 -0.1461  0.0401 -0.1009
 4926TIP3    H136193   4.293   4.494   2.680 -0.6746  0.8167 -0.3567
 4926TIP3    H236194   4.241   4.523   2.541  0.9300 -0.3217 -1.2197
 4927TIP3   OH236195   1.452   0.853  10.301  0.7444  0.1816 -0.0917
 4927TIP3    H136196   1.461   0.779  10.362  3.2535 -0.2215 -0.8403
 4927TIP3    H236197   1.452   0.930  10.358 -0.4152 -0.3063  0.6104
 4928TIP3   OH236198   6.854   0.498  11.621  0.4417  0.4845 -0.2802
 4928TIP3    H136199   6.765   0.527  11.639 -0.1532 -1.1946 -0.3031
 4928TIP3    H236200   6.884   0.462  11.704  0.3540 -0.7290 -0.7549
 4929TIP3   OH236201   5.418   5.880   0.395  0.4438  0.2306 -0.5014
 4929TIP3    H136202   5.505   5.898   0.430  0.0817  1.7697 -0.3310
 4929TIP3    H236203   5.374   5.831   0.465  1.1681 -0.5974 -0.6062
 4930TIP3   OH236204   5.331   0.501  12.521  0.5185  0.4593 -0.3686
 4930TIP3    H136205   5.290   0.430  12.471 -0.8176  0.5449  0.5659
 4930TIP3    H236206   5.393   0.456  12.579 -2.5353 -0.4354  2.5215
 4931TIP3   OH236207   3.926   2.255   0.202 -0.6050 -0.5248 -0.0375
 4931TIP3    H136208   3.943   2.308   0.280 -0.0440 -1.0353  0.2077
 4931TIP3    H236209   3.932   2.316   0.129 -0.3228 -0.1826  0.2642
 4932TIP3   OH236210   7.130   4.338  12.918  0.3284 -0.4830 -0.4635
 4932TIP3    H136211   7.128   4.271  12.850  0.2609 -0.8872 -0.0681
 4932TIP3    H236212   7.065   4.403  12.890 -0.7107 -1.3305 -0.0929
 4933TIP3   OH236213   5.034   3.834  12.348  0.2594  0.4627  0.2888
 4933TIP3    H136214   5.084   3.851  12.268 -2.1025 -1.3423 -1.7178
 4933TIP3    H236215   5.101   3.825  12.416  2.4775  0.5700 -1.7477
 4934TIP3   OH236216   0.291   1.945  15.071 -0.3337  1.1888  0.2300
 4934TIP3    H136217   0.256   1.923  14.985  1.7689  2.1309 -0.9561
 4934TIP3    H236218   0.216   1.979  15.119 -1.9086 -0.8781 -0.6211
 4935TIP3   OH236219   1.979   2.505   0.096  0.2794 -0.7483 -0.1032
 4935TIP3    H136220   1.895   2.473   0.130 -1.0768  1.5000 -1.1223
 4935TIP3    H236221   2.038   2.503   0.172 -1.8669  1.4501  1.7813
 4936TIP3   OH236222   2.679   2.472  11.240 -0.2503  0.0589 -0.2399
 4936TIP3    H136223   2.729   2.496  11.318 -1.3187 -0.1147  0.5280
 4936TIP3    H236224   2.652   2.556  11.202 -0.3475  0.1351 -0.0006
 4937TIP3   OH236225   3.789   2.513  14.990  0.3584  0.2826  0.5377
 4937TIP3    H136226   3.790   2.607  14.970  0.8112  0.4375  1.2268
 4937TIP3    H236227   3.697   2.488  14.979  0.3395  0.6644 -0.2558
 4938TIP3   OH236228   6.581   1.515   0.500 -0.3064 -0.2259  0.7212
 4938TIP3    H136229   6.493   1.490   0.474  1.0023 -3.6001 -1.2832
 4938TIP3    H236230   6.612   1.572   0.429 -0.4240 -0.2064  0.6858
 4939TIP3   OH236231   6.995   1.613   1.849  0.0163  0.2667 -0.5416
 4939TIP3    H136232   7.025   1.670   1.778  0.5847 -0.9451 -1.3050
 4939TIP3    H236233   7.058   1.541   1.850  0.3323  0.5019  1.5435
 4940TIP3   OH236234   6.967   5.565  14.024 -0.3423 -0.7234 -0.0162
 4940TIP3    H136235   7.058   5.537  14.016 -0.5785 -1.3238 -0.6926
 4940TIP3    H236236   6.921   5.488  14.056 -0.4860 -0.1753  1.1603
 4941TIP3   OH236237   4.897   3.548   3.968 -0.3845 -0.4274  0.0760
 4941TIP3    H136238   4.977   3.576   4.012  0.2616 -0.6681 -0.8987
 4941TIP3    H236239   4.875   3.621   3.910 -0.2156 -0.8282 -0.4982
 4942TIP3   OH236240   5.455   4.471   5.079  0.2160  0.8483 -0.0846
 4942TIP3    H136241   5.514   4.503   5.011 -0.4142 -1.1539 -1.6751
 4942TIP3    H236242   5.375   4.521   5.067  0.2432  0.7830 -0.5529
 4943TIP3   OH236243   0.854   0.922  12.253  0.4056  0.2204  0.3717
 4943TIP3    H136244   0.825   0.960  12.171  0.9401 -0.6478 -0.2447
 4943TIP3    H236245   0.919   0.983  12.286  0.2665  0.5230  0.0903
 4944TIP3   OH236246   6.353   0.581   0.307 -0.3741 -0.2096  0.2225
 4944TIP3    H136247   6.268   0.557   0.272 -0.9680 -0.8208  1.9838
 4944TIP3    H236248   6.415   0.524   0.260 -0.8905  0.3111 -1.1361
 4945TIP3   OH236249   3.403   5.679   1.872 -0.3534 -0.1666 -0.2953
 4945TIP3    H136250   3.408   5.586   1.850  0.9920 -0.3145  0.5291
 4945TIP3    H236251   3.407   5.724   1.787  1.5958 -0.8093 -0.6121
 4946TIP3   OH236252   0.800   3.648  11.559  0.0277  0.1792  0.1818
 4946TIP3    H136253   0.755   3.698  11.491  0.2728  1.1398  0.7060
 4946TIP3    H236254   0.885   3.626  11.520  0.2347  0.8732  0.2348
 4947TIP3   OH236255   6.466   5.988  14.248 -0.2918 -0.5751 -0.2109
 4947TIP3    H136256   6.391   6.048  14.250 -0.2973 -0.4853 -1.9281
 4947TIP3    H236257   6.490   5.983  14.156  1.8236 -0.6225  0.3002
 4948TIP3   OH236258   0.583   6.959   1.005  0.0746 -0.2507 -0.0783
 4948TIP3    H136259   0.648   6.927   1.068 -1.8130 -0.1992  2.0281
 4948TIP3    H236260   0.614   6.927   0.920  1.4283 -2.5177  1.1618
 4949TIP3   OH236261   0.019   4.002  11.275 -0.0123  0.3420  0.1422
 4949TIP3    H136262  -0.050   3.966  11.220  1.2678 -0.7127 -0.8327
 4949TIP3    H236263  -0.024   4.070  11.326 -1.3522  1.0043 -1.7839
 4950TIP3   OH236264   4.979   0.567  12.006  0.0680  0.2681 -0.0220
 4950TIP3    H136265   4.900   0.532  12.045  0.4622 -1.8443 -0.9884
 4950TIP3    H236266   4.972   0.662  12.019 -1.7493 -0.0091  1.4339
 4951TIP3   OH236267   3.067   0.461  13.901  0.0631 -0.2588  0.2935
 4951TIP3    H136268   3.011   0.536  13.919 -1.4344 -1.2107 -0.2394
 4951TIP3    H236269   3.138   0.496  13.847 -1.2257  0.5783 -0.9126
 4952TIP3   OH236270   0.025   1.677   2.727  0.2796 -0.3243  0.2945
 4952TIP3    H136271   0.093   1.630   2.680 -0.2349 -0.0152 -0.7800
 4952TIP3    H236272  -0.056   1.656   2.682 -1.0535 -3.7524  3.7596
 4953TIP3   OH236273   2.990   1.119  11.636  0.3720  0.0173  0.5772
 4953TIP3    H136274   3.040   1.043  11.607 -1.1326 -0.3838 -1.1217
 4953TIP3    H236275   3.042   1.155  11.708  1.4287 -2.2574  1.0626
 4954TIP3   OH236276   3.100   0.566  14.864 -0.2589  0.0507 -0.7775
 4954TIP3    H136277   3.031   0.501  14.873 -0.0197 -0.0118  0.9202
 4954TIP3    H236278   3.178   0.523  14.899 -0.5006  1.7951  2.2808
 4955TIP3   OH236279   1.095   6.333   1.388 -0.2249  0.6216  0.6561
 4955TIP3    H136280   1.051   6.249   1.381 -1.3833  1.2982 -0.7887
 4955TIP3    H236281   1.188   6.313   1.383 -0.2600 -0.8537  3.6687
 4956TIP3   OH236282   5.483   2.811  10.614 -0.1034 -0.0204  0.5535
 4956TIP3    H136283   5.552   2.878  10.615  0.1757 -0.3075  1.1730
 4956TIP3    H236284   5.404   2.857  10.643 -0.1644  0.2983 -0.1090
 4957TIP3   OH236285   4.318   4.541  10.510 -0.0066  0.5239 -0.3697
 4957TIP3    H136286   4.345   4.622  10.468  2.3906  0.1279  0.2801
 4957TIP3    H236287   4.253   4.569  10.575 -0.4420  1.6818 -1.2589
 4958TIP3   OH236288   0.752   4.941   0.825  0.6024  0.0334  0.3178
 4958TIP3    H136289   0.705   4.876   0.878  2.8184 -1.3754  0.6613
 4958TIP3    H236290   0.759   4.902   0.738  0.4434  0.6036  0.0383
 4959TIP3   OH236291   1.842   0.675  14.433 -0.3150  0.5175 -0.8354
 4959TIP3    H136292   1.919   0.731  14.441  0.3212 -0.5284  1.2694
 4959TIP3    H236293   1.876   0.586  14.448 -1.4310 -0.3831 -3.1835
 4960TIP3   OH236294   1.415   0.599   0.527 -0.0991 -0.2704 -1.0766
 4960TIP3    H136295   1.397   0.522   0.473 -2.1559 -0.5752 -0.0654
 4960TIP3    H236296   1.392   0.674   0.471 -3.3373 -0.6111 -0.3668
 4961TIP3   OH236297   2.394   2.000  15.439 -0.5520 -0.2512  0.4279
 4961TIP3    H136298   2.416   1.959  15.356 -0.1922  1.8335 -0.5500
 4961TIP3    H236299   2.317   2.053  15.421 -0.7100 -0.0804  1.5207
 4962TIP3   OH236300   3.934   0.624  12.619 -0.2205  0.0836 -0.0260
 4962TIP3    H136301   3.940   0.658  12.709  1.2294  0.2938 -0.1883
 4962TIP3    H236302   4.023   0.597  12.597 -0.8131 -1.2730 -0.9135
 4963TIP3   OH236303   4.887   0.815  13.464  0.0509 -0.2280 -0.8090
 4963TIP3    H136304   4.873   0.909  13.477  0.7622 -0.4916  3.1110
 4963TIP3    H236305   4.812   0.773  13.506  0.3706 -1.4304 -1.3973
 4964TIP3   OH236306   5.863   5.358   9.477  0.2059 -0.1012 -0.3702
 4964TIP3    H136307   5.825   5.425   9.535  1.9529  0.6588 -0.0438
 4964TIP3    H236308   5.875   5.403   9.393 -3.4113 -1.5111 -1.8576
 4965TIP3   OH236309   0.198   0.021   5.469 -0.2545 -0.0068 -0.7697
 4965TIP3    H136310   0.211  -0.058   5.522  3.2411  0.9138 -0.0579
 4965TIP3    H236311   0.160   0.084   5.529 -0.3757 -0.2654 -0.5707
 4966TIP3   OH236312   3.023   2.999  11.536  0.1205  0.1252  0.0561
 4966TIP3    H136313   2.956   3.028  11.599  2.7071  2.6642  1.9334
 4966TIP3    H236314   2.998   2.910  11.514 -3.2633  0.5661  1.4375
 4967TIP3   OH236315   5.837   0.698  13.536  0.4587  0.0500  0.0087
 4967TIP3    H136316   5.792   0.766  13.486 -0.0292 -0.9951 -1.0095
 4967TIP3    H236317   5.792   0.617  13.514  1.7851 -0.7980  0.2522
 4968TIP3   OH236318   2.147   6.693  13.045 -0.1806 -0.2019  0.4250
 4968TIP3    H136319   2.216   6.693  13.111 -0.4445 -0.9206  0.7130
 4968TIP3    H236320   2.131   6.600  13.027 -3.1330 -0.2463  2.5644
 4969TIP3   OH236321   6.698   5.391   9.605 -0.0185 -0.1943 -0.3868
 4969TIP3    H136322   6.719   5.338   9.682  1.1230  2.1847  1.0383
 4969TIP3    H236323   6.605   5.412   9.614 -0.0969 -0.6376 -0.1395
 4970TIP3   OH236324   0.332   3.842  14.975  0.2407 -0.1166  0.9099
 4970TIP3    H136325   0.328   3.748  14.953 -1.0696  0.1482 -0.1387
 4970TIP3    H236326   0.425   3.859  14.991  0.4905 -1.6149  1.2425
 4971TIP3   OH236327   0.196   6.029   3.923 -0.2412  0.1312  0.3698
 4971TIP3    H136328   0.250   6.041   4.002 -1.5993 -0.2671  1.4070
 4971TIP3    H236329   0.113   5.996   3.957  0.3651 -3.8594 -1.5211
 4972TIP3   OH236330   3.685   2.820   4.272  0.4543 -0.3560 -0.2878
 4972TIP3    H136331   3.743   2.777   4.336  0.4736  0.0426 -0.0302
 4972TIP3    H236332   3.739   2.828   4.193  1.4681  1.7750  0.5316
 4973TIP3   OH236333   5.570   3.779   3.390  0.2517 -0.0073  0.0295
 4973TIP3    H136334   5.622   3.705   3.423  0.1249 -0.2922 -0.4013
 4973TIP3    H236335   5.586   3.779   3.296 -0.1293  0.2181 -0.0358
 4974TIP3   OH236336   4.137   6.310  11.617  0.2465  0.4229 -0.2170
 4974TIP3    H136337   4.151   6.359  11.698  0.4388  0.4467 -0.2651
 4974TIP3    H236338   4.064   6.250  11.638  1.0008 -0.3381  0.3190
 4975TIP3   OH236339   2.284   2.490  12.543 -0.2172 -0.1538  0.1370
 4975TIP3    H136340   2.322   2.494  12.456 -1.6192  0.2173 -0.4753
 4975TIP3    H236341   2.279   2.581  12.572 -0.4189 -0.2185  0.3134
 4976TIP3   OH236342   3.472   6.660  11.235 -0.5487 -0.0953 -0.3606
 4976TIP3    H136343   3.380   6.637  11.228 -0.4412 -1.9858  2.6588
 4976TIP3    H236344   3.519   6.584  11.200 -0.0848  0.7033 -1.5467
 4977TIP3   OH236345   3.686   5.439   2.078  0.1201 -0.3166 -0.3676
 4977TIP3    H136346   3.763   5.398   2.039  0.0646  0.6387 -1.5589
 4977TIP3    H236347   3.612   5.400   2.031 -0.0045  0.1176 -0.5433
 4978TIP3   OH236348   3.444   7.073  14.173 -0.0443  0.2358  0.4184
 4978TIP3    H136349   3.519   7.080  14.114 -0.5666  3.1734 -0.0161
 4978TIP3    H236350   3.368   7.092  14.118 -0.9149 -0.4545  1.3371
 4979TIP3   OH236351   2.994   0.714   9.815 -0.1248  0.4056 -0.5539
 4979TIP3    H136352   3.034   0.778   9.874 -0.6169 -0.1711  0.4377
 4979TIP3    H236353   3.003   0.752   9.728  1.2477  0.9695 -0.1916
 4980TIP3   OH236354   3.368   6.090  11.408  0.3698  0.3839 -0.2293
 4980TIP3    H136355   3.421   6.023  11.365  0.2440  1.1317 -1.5792
 4980TIP3    H236356   3.432   6.147  11.451  0.4434 -1.2890  2.0976
 4981TIP3   OH236357   5.743   2.266  11.077  0.0220  0.4305 -0.0161
 4981TIP3    H136358   5.685   2.338  11.101  0.0500 -0.1357  1.9956
 4981TIP3    H236359   5.694   2.187  11.101  1.1199 -0.0947  0.5928
 4982TIP3   OH236360   5.848   4.873  11.479 -0.1105 -0.7205 -0.1113
 4982TIP3    H136361   5.806   4.916  11.554 -0.7234 -0.4270 -0.6067
 4982TIP3    H236362   5.875   4.788  11.512 -0.9635 -0.8503  0.2785
 4983TIP3   OH236363   5.985   5.590  15.636  0.3827 -0.4126 -0.4506
 4983TIP3    H136364   5.927   5.597  15.560 -1.0111 -1.8203  0.4226
 4983TIP3    H236365   6.057   5.649  15.616  0.3636 -1.1537 -3.1244
 4984TIP3   OH236366   5.120   4.048   2.554 -0.1740  0.7453  0.6763
 4984TIP3    H136367   5.081   4.050   2.641 -0.0582  0.2323  0.7472
 4984TIP3    H236368   5.214   4.051   2.570 -0.1376  0.1151  0.5964
 4985TIP3   OH236369   3.839   5.047   1.757 -0.1778 -0.7733  0.5983
 4985TIP3    H136370   3.756   5.004   1.775 -0.2356 -1.0638 -0.3033
 4985TIP3    H236371   3.816   5.139   1.746 -0.6557 -1.0731 -1.2512
 4986TIP3   OH236372   2.682   4.781  10.773 -0.4489 -0.0984 -0.3208
 4986TIP3    H136373   2.653   4.774  10.864  0.7505  0.6627  0.1396
 4986TIP3    H236374   2.690   4.690  10.744 -0.5707 -0.3581  0.4281
 4987TIP3   OH236375   5.076   5.082  13.263 -0.1324 -0.4535  0.5115
 4987TIP3    H136376   5.076   4.992  13.232 -1.0535  0.4393 -2.3735
 4987TIP3    H236377   5.123   5.131  13.196  1.0425  1.1522  2.3969
 4988TIP3   OH236378   3.686   4.348   3.605 -0.7835 -0.3797  0.3660
 4988TIP3    H136379   3.690   4.437   3.570  0.7752 -0.1021  1.1438
 4988TIP3    H236380   3.637   4.299   3.539 -0.3475  0.7264 -0.8395
 4989TIP3   OH236381   0.775   1.391   1.016 -0.2668 -0.3238 -0.4781
 4989TIP3    H136382   0.832   1.465   0.994 -0.0055 -0.4718 -0.3022
 4989TIP3    H236383   0.829   1.314   1.003 -0.0703 -0.4089  0.7738
 4990TIP3   OH236384   0.076   3.851   0.925 -0.2078 -0.0685  0.1298
 4990TIP3    H136385   0.036   3.855   1.012 -1.5932  1.3956 -0.5186
 4990TIP3    H236386   0.005   3.823   0.868  0.6875 -0.9897 -0.5623
 4991TIP3   OH236387   2.669   2.395  10.952  0.1316 -0.1752 -0.0391
 4991TIP3    H136388   2.587   2.444  10.943  0.9097  1.1977 -0.0280
 4991TIP3    H236389   2.670   2.365  11.043 -0.3331 -0.1193 -0.0170
 4992TIP3   OH236390   1.557   4.160  11.712 -0.3292  0.7358 -0.4244
 4992TIP3    H136391   1.470   4.143  11.675  1.0703 -1.8323 -2.9117
 4992TIP3    H236392   1.586   4.240  11.669 -1.3815  1.6007  0.4033
 4993TIP3   OH236393   0.746   4.824  14.621  0.5536 -0.6262  0.5053
 4993TIP3    H136394   0.707   4.737  14.632  0.9140 -0.7656  0.7092
 4993TIP3    H236395   0.838   4.806  14.600 -0.1910 -0.4701 -3.9128
 4994TIP3   OH236396   2.065   3.352  10.111  0.2707 -0.2671  0.0420
 4994TIP3    H136397   2.150   3.396  10.108 -1.1090  2.6758 -1.9238
 4994TIP3    H236398   2.035   3.363  10.201  0.5868  1.7981 -0.0536
 4995TIP3   OH236399   6.344   2.321  12.847 -0.2627 -0.5679  0.3207
 4995TIP3    H136400   6.272   2.381  12.828 -0.0328  0.0497  1.3138
 4995TIP3    H236401   6.412   2.344  12.783  0.2813  1.0741  1.4226
 4996TIP3   OH236402   5.805   2.081  10.506  0.1845 -0.6015 -0.4486
 4996TIP3    H136403   5.774   2.121  10.587  1.3940  0.3991 -0.4428
 4996TIP3    H236404   5.747   2.116  10.438 -1.8332 -2.6471  0.1126
 4997TIP3   OH236405   4.772   1.734  13.503 -0.9228  0.1761 -0.6342
 4997TIP3    H136406   4.769   1.704  13.593  1.3728  0.6184 -0.3520
 4997TIP3    H236407   4.806   1.660  13.453 -0.0175  0.6457 -0.7399
 4998TIP3   OH236408   4.730   3.495  14.187  0.2805 -0.4337 -0.4252
 4998TIP3    H136409   4.641   3.499  14.221  0.8020 -0.1612  1.0048
 4998TIP3    H236410   4.745   3.580  14.146 -0.2084 -0.5964 -0.9528
 4999TIP3   OH236411   1.503   3.348  12.001  0.2522 -0.1405 -0.4971
 4999TIP3    H136412   1.514   3.351  12.096 -0.1346 -0.6259 -0.4339
 4999TIP3    H236413   1.441   3.418  11.982 -0.9657 -1.0977 -0.1898
 5000TIP3   OH236414   6.941   1.525  13.250  0.3588  0.4862 -0.2459
 5000TIP3    H136415   7.030   1.506  13.280  0.3676  2.0438  0.8541
 5000TIP3    H236416   6.952   1.559  13.161  0.9527  1.3252  0.1380
 5001TIP3   OH236417   1.434   6.077   1.151  0.3930 -0.0769 -0.0231
 5001TIP3    H136418   1.398   5.988   1.155 -0.7970  0.3614 -0.4609
 5001TIP3    H236419   1.465   6.094   1.240 -0.1646 -0.6211  0.2829
 5002TIP3   OH236420   2.592   5.539  14.196 -0.3849 -0.5594  0.4765
 5002TIP3    H136421   2.592   5.565  14.288  0.7083 -0.1830  0.3907
 5002TIP3    H236422   2.676   5.494  14.184 -0.5680 -0.7070 -0.3101
 5003TIP3   OH236423   0.251   6.030   3.315  0.2584  0.6199  0.1406
 5003TIP3    H136424   0.198   5.965   3.269  0.7569  0.3040  0.0038
 5003TIP3    H236425   0.232   6.015   3.408  0.9670 -0.2605  0.1580
 5004TIP3   OH236426   5.582   5.071  10.299 -0.2582 -0.1241 -0.0805
 5004TIP3    H136427   5.669   5.034  10.319  0.2869 -0.8426 -3.3042
 5004TIP3    H236428   5.521   5.001  10.322 -0.0285  0.1881  1.6975
 5005TIP3   OH236429   4.239   5.182  11.687  0.1071  0.0375  0.3635
 5005TIP3    H136430   4.249   5.206  11.779 -2.5589 -1.8499  1.2544
 5005TIP3    H236431   4.189   5.254  11.649  0.2089  0.2758  0.6758
 5006TIP3   OH236432   0.047   2.291   0.849  0.0192  0.1850  0.4390
 5006TIP3    H136433  -0.036   2.276   0.894  0.1215  0.9464  0.9170
 5006TIP3    H236434   0.105   2.223   0.883 -0.4233 -0.3921  0.0497
 5007TIP3   OH236435   0.853   5.426  11.638 -0.3750 -0.4705  0.1215
 5007TIP3    H136436   0.768   5.456  11.608  0.5535  0.3186 -1.8905
 5007TIP3    H236437   0.834   5.377  11.718 -2.7446 -0.6348 -0.4567
 5008TIP3   OH236438   4.442   6.884  11.516  0.8148  0.1353 -0.3132
 5008TIP3    H136439   4.449   6.882  11.611  0.0624 -0.5355 -0.2648
 5008TIP3    H236440   4.381   6.955  11.497 -0.1244 -0.6392 -0.2197
 5009TIP3   OH236441   1.220   5.669  12.050  0.0351  0.0123 -0.3074
 5009TIP3    H136442   1.240   5.715  12.131  0.6952 -1.2796  0.2849
 5009TIP3    H236443   1.178   5.735  11.995  0.5263  1.1842  0.6811
 5010TIP3   OH236444   5.452   3.497   9.825 -0.4505  0.6445  0.1200
 5010TIP3    H136445   5.445   3.502   9.729  1.3269  1.7492 -0.0006
 5010TIP3    H236446   5.545   3.488   9.842 -0.8364 -0.7965  1.7506
 5011TIP3   OH236447   0.870   3.217  13.189  0.9340 -0.3259 -0.3259
 5011TIP3    H136448   0.901   3.147  13.131 -0.0609 -0.9987 -0.0614
 5011TIP3    H236449   0.919   3.203  13.270 -0.7532 -2.0418  0.4592
 5012TIP3   OH236450   0.907   0.178  14.221 -0.2636 -0.2301  0.4410
 5012TIP3    H136451   0.998   0.208  14.218  0.6551 -2.7786  0.8460
 5012TIP3    H236452   0.867   0.232  14.289  1.0723  0.5871  0.6255
 5013TIP3   OH236453   4.230   3.497  11.446  0.0455 -0.4380 -0.7746
 5013TIP3    H136454   4.265   3.410  11.463 -1.3743 -1.4054 -2.3787
 5013TIP3    H236455   4.168   3.484  11.374 -1.6145  1.5750  0.1734
 5014TIP3   OH236456   3.725   6.440  10.921  0.4739 -0.4914  0.0561
 5014TIP3    H136457   3.719   6.433  11.016  0.2929 -0.1564  0.0722
 5014TIP3    H236458   3.792   6.376  10.896  2.1662  0.9684  0.6388
 5015TIP3   OH236459   0.101   0.777  11.177  0.5042  0.2666 -0.4846
 5015TIP3    H136460   0.187   0.782  11.135 -0.2525 -0.7254 -2.2777
 5015TIP3    H236461   0.058   0.858  11.153  0.4872  0.2087 -0.6498
 5016TIP3   OH236462   1.530   1.505   3.582 -0.4636 -0.1109 -0.1141
 5016TIP3    H136463   1.583   1.553   3.646 -2.3634 -1.1248  2.3803
 5016TIP3    H236464   1.446   1.549   3.581 -0.9697 -1.0459 -0.7586
 5017TIP3   OH236465   4.497   3.726   0.377  0.4430 -0.2730 -0.0343
 5017TIP3    H136466   4.474   3.813   0.410 -0.0146 -0.4102  0.0159
 5017TIP3    H236467   4.572   3.741   0.320  1.2762 -0.0327  1.0957
 5018TIP3   OH236468   2.388   3.924   5.050 -0.3188 -0.4735 -0.0666
 5018TIP3    H136469   2.304   3.918   5.004 -0.0410  0.2320 -0.6815
 5018TIP3    H236470   2.366   3.960   5.136 -0.8619 -1.9147  0.4353
 5019TIP3   OH236471   1.435   6.391   2.295 -0.0488  0.3799 -0.0156
 5019TIP3    H136472   1.521   6.412   2.259  0.4960 -0.8337  0.5274
 5019TIP3    H236473   1.375   6.400   2.221  0.9731 -1.6261 -1.1635
 5020TIP3   OH236474   2.702   0.755   9.803  0.2777 -0.0330 -0.3610
 5020TIP3    H136475   2.677   0.847   9.807 -0.5445 -0.0192 -3.3551
 5020TIP3    H236476   2.791   0.752   9.838  0.1755  1.8126  0.1363
 5021TIP3   OH236477   4.477   5.738  12.899  0.0269 -0.3600  0.4355
 5021TIP3    H136478   4.481   5.832  12.881  0.4988 -0.7069 -1.4782
 5021TIP3    H236479   4.461   5.733  12.993 -0.6796  1.6361  0.4799
 5022TIP3   OH236480   0.359   6.247  11.852  0.2886  0.1873  0.8234
 5022TIP3    H136481   0.408   6.293  11.783 -0.0730 -0.8389 -0.1635
 5022TIP3    H236482   0.422   6.236  11.923  0.5021  1.8025  0.9207
 5023TIP3   OH236483   0.480   3.913  11.428  0.1654 -0.9244  0.2211
 5023TIP3    H136484   0.516   3.994  11.463 -0.0258 -0.0340 -1.5311
 5023TIP3    H236485   0.389   3.912  11.457  0.0871 -0.3481  0.0070
 5024TIP3   OH236486   0.689   1.095   0.840  0.3259 -0.4870 -0.2204
 5024TIP3    H136487   0.765   1.039   0.855 -0.0759 -0.7346  0.9973
 5024TIP3    H236488   0.623   1.063   0.902 -0.8226 -0.3625 -1.3451
 5025TIP3   OH236489   4.116   3.109   2.348  0.7767  0.4104  0.4458
 5025TIP3    H136490   4.033   3.155   2.365  0.9079  0.5890  0.6098
 5025TIP3    H236491   4.099   3.059   2.268  0.0083 -0.7962  1.3431
 5026TIP3   OH236492   4.370   5.689  11.729  0.0470  0.1024 -0.4424
 5026TIP3    H136493   4.373   5.596  11.752 -0.9670  0.7555  2.8778
 5026TIP3    H236494   4.333   5.691  11.641 -0.7944 -2.5985 -0.2401
 5027TIP3   OH236495   1.738   5.026   2.236 -0.3810  0.2751  0.6766
 5027TIP3    H136496   1.777   5.044   2.150 -2.0448 -0.4884 -0.3029
 5027TIP3    H236497   1.775   4.942   2.262  0.9146  0.9869  1.2345
 5028TIP3   OH236498   0.295   6.387   0.715 -0.0136 -0.1615 -0.1902
 5028TIP3    H136499   0.389   6.378   0.729 -0.0758 -0.5187  0.0094
 5028TIP3    H236500   0.277   6.337   0.635  0.1005  0.6275 -0.7206
 5029TIP3   OH236501   3.086   2.231   2.835  0.8071 -0.1012 -0.3414
 5029TIP3    H136502   3.040   2.265   2.758  0.8039  0.2536 -0.1872
 5029TIP3    H236503   3.085   2.136   2.824 -0.7681 -0.1735  0.0895
 5030TIP3   OH236504   2.620   2.990  13.036 -0.5050 -0.3097  0.6957
 5030TIP3    H136505   2.531   2.956  13.048 -1.1702  1.0258 -0.1644
 5030TIP3    H236506   2.647   2.957  12.950 -0.4394 -0.1617  0.6588
 5031TIP3   OH236507   2.334   5.765  13.821 -0.6154 -0.1342  0.5040
 5031TIP3    H136508   2.262   5.825  13.838  0.0265  0.5790  0.7442
 5031TIP3    H236509   2.373   5.749  13.907 -0.1969 -0.1437  0.3141
 5032TIP3   OH236510   3.823   1.293   1.072  0.0563  0.2364 -0.0468
 5032TIP3    H136511   3.760   1.254   1.132  1.1090  0.6725  1.4110
 5032TIP3    H236512   3.886   1.223   1.055 -1.5729 -0.6783 -2.7191
 5033TIP3   OH236513   3.027   5.043  11.484  0.5882  0.1762  0.3613
 5033TIP3    H136514   3.109   5.009  11.449 -0.1373  0.6841 -2.0440
 5033TIP3    H236515   3.028   5.136  11.459 -0.5851  0.2540  0.5712
 5034TIP3   OH236516   4.126   3.792   5.115  0.5585  0.0214 -0.0468
 5034TIP3    H136517   4.125   3.727   5.045 -1.7998 -0.2748  0.1991
 5034TIP3    H236518   4.204   3.845   5.097 -1.2887  1.7495 -4.5957
 5035TIP3   OH236519   6.271   5.891  10.572  0.1587 -0.3925 -0.0540
 5035TIP3    H136520   6.360   5.856  10.578  0.0114 -1.4560 -2.5872
 5035TIP3    H236521   6.282   5.986  10.580  1.5152 -0.5160 -0.1823
 5036TIP3   OH236522   7.070   6.054  13.974  0.3131  0.1073  0.1557
 5036TIP3    H136523   7.112   5.974  13.943 -2.0838 -0.7473 -1.1499
 5036TIP3    H236524   6.982   6.027  14.002  0.2295  1.9234  1.9004
 5037TIP3   OH236525   3.972   1.864  13.286  0.2394  0.3193  0.1994
 5037TIP3    H136526   3.893   1.918  13.291  0.0365 -0.0086  0.5669
 5037TIP3    H236527   3.951   1.797  13.222  0.6074  0.8611 -0.4945
 5038TIP3   OH236528   6.873   4.932   9.683 -0.1431 -0.3809 -0.5142
 5038TIP3    H136529   6.782   4.936   9.654  0.0714 -0.9054 -1.2883
 5038TIP3    H236530   6.914   5.010   9.646 -0.2908 -0.1055 -0.1024
 5039TIP3   OH236531   5.495   2.389  11.213 -0.1130 -0.0481  0.1335
 5039TIP3    H136532   5.525   2.427  11.296 -1.4226 -0.8970  1.0305
 5039TIP3    H236533   5.474   2.298  11.235 -1.7666  0.0710 -0.8122
 5040TIP3   OH236534   0.902   0.316  10.753 -0.2716 -0.2082  0.2036
 5040TIP3    H136535   0.826   0.341  10.702  0.0559  2.6213  0.9320
 5040TIP3    H236536   0.896   0.221  10.761 -2.5247 -0.2794 -1.5595
 5041TIP3   OH236537   0.500   6.045   0.713 -0.4880  0.1274  0.1475
 5041TIP3    H136538   0.576   6.070   0.660  1.3222 -1.4913  1.8237
 5041TIP3    H236539   0.482   6.122   0.767  0.0106  0.4917 -0.1902
 5042TIP3   OH236540   6.929   0.365  10.065  0.0277 -0.1159 -0.1909
 5042TIP3    H136541   7.015   0.385  10.102 -0.2055  1.3634 -0.3548
 5042TIP3    H236542   6.947   0.331   9.977  0.4338  1.4905 -0.7633
 5043TIP3   OH236543   4.507   3.412   0.544  0.2236  0.4095  0.4016
 5043TIP3    H136544   4.440   3.380   0.483  1.1589  1.3482 -1.1718
 5043TIP3    H236545   4.457   3.435   0.623 -0.9964 -0.9960  0.0968
 5044TIP3   OH236546   2.923   5.329  11.662  0.1175 -0.2838 -0.0688
 5044TIP3    H136547   2.978   5.251  11.664  1.5699  0.7218  0.4074
 5044TIP3    H236548   2.871   5.319  11.582  1.0081 -1.2511 -0.5521
 5045TIP3   OH236549   5.451   0.450  11.750 -0.3002 -0.3616  0.5777
 5045TIP3    H136550   5.510   0.397  11.804 -1.0867 -2.0535 -0.1641
 5045TIP3    H236551   5.364   0.434  11.786 -1.0471 -2.6254 -1.9213
 5046TIP3   OH236552   3.961   0.804  13.657 -0.2917 -0.0397  0.5124
 5046TIP3    H136553   3.875   0.789  13.698  0.0780 -0.9106  1.0161
 5046TIP3    H236554   3.970   0.732  13.594 -1.2919  1.8535 -1.9432
 5047TIP3   OH236555   0.834   4.874   5.136  0.2405 -0.2715 -0.2271
 5047TIP3    H136556   0.872   4.851   5.051 -2.1044  0.1912 -1.4725
 5047TIP3    H236557   0.853   4.967   5.147  0.6870 -0.3686 -0.1360
 5048TIP3   OH236558   0.137   3.692  11.463  0.4287  0.0967  0.3530
 5048TIP3    H136559   0.045   3.676  11.445  0.0257  0.5505  1.8699
 5048TIP3    H236560   0.173   3.724  11.380 -1.0015  0.8589  0.0035
 5049TIP3   OH236561   3.531   3.320  14.103  0.0077 -0.1804 -0.1848
 5049TIP3    H136562   3.477   3.357  14.032 -1.1401  1.4693  1.4585
 5049TIP3    H236563   3.481   3.246  14.135 -0.3455  0.1590  0.0550
 5050TIP3   OH236564   2.353   6.774   3.537  0.8215  0.7874 -0.3497
 5050TIP3    H136565   2.323   6.683   3.524  0.0719  0.8318  0.8573
 5050TIP3    H236566   2.336   6.791   3.630  1.8018  1.8710 -0.3495
 5051TIP3   OH236567   5.077   1.216  14.231  0.0451 -0.1653  0.0862
 5051TIP3    H136568   5.024   1.143  14.262  0.1001 -0.7689 -1.1985
 5051TIP3    H236569   5.108   1.189  14.144  0.0873  1.3565 -0.4037
 5052TIP3   OH236570   6.426   5.723  11.432  0.1558  0.5664 -0.1093
 5052TIP3    H136571   6.405   5.656  11.367  0.4712  1.1423 -0.8296
 5052TIP3    H236572   6.480   5.786  11.384  0.6956  0.8225  0.8189
 5053TIP3   OH236573   6.899   4.812   4.930  0.0007 -0.1779  0.3265
 5053TIP3    H136574   6.838   4.773   4.993  2.7831 -1.4298  2.4867
 5053TIP3    H236575   6.951   4.872   4.982 -0.1185  1.7955 -1.7049
 5054TIP3   OH236576   1.239   5.706  13.344  0.1074 -0.2257 -0.3664
 5054TIP3    H136577   1.146   5.707  13.363  0.3017  2.0075  0.7011
 5054TIP3    H236578   1.251   5.772  13.276  1.1179  0.9312  0.8709
 5055TIP3   OH236579   1.862   1.274   4.870 -0.2555  0.1096  0.1539
 5055TIP3    H136580   1.903   1.358   4.891  0.5829  0.0018 -0.9833
 5055TIP3    H236581   1.771   1.297   4.849 -0.5737  0.4656  1.7730
 5056TIP3   OH236582   6.510   5.269  13.490  0.7014  0.3843 -0.2249
 5056TIP3    H136583   6.539   5.313  13.570  2.3654 -2.5845  0.9738
 5056TIP3    H236584   6.444   5.206  13.520 -0.4697  0.8783 -1.6219
 5057TIP3   OH236585   5.815   6.326  10.723 -0.0336  0.1987  0.2244
 5057TIP3    H136586   5.789   6.312  10.814  0.0607 -0.0976  0.2064
 5057TIP3    H236587   5.909   6.307  10.722  0.4988  2.5681  0.5736
 5058TIP3   OH236588   4.596   2.261  11.441  0.0213 -0.1486 -1.0552
 5058TIP3    H136589   4.623   2.311  11.365 -1.4794  0.7513 -1.0479
 5058TIP3    H236590   4.520   2.308  11.475  0.1687 -0.9671  0.5315
 5059TIP3   OH236591   2.844   6.658   2.713  0.1038 -0.4764 -0.5082
 5059TIP3    H136592   2.862   6.750   2.692  0.8642 -0.4207  0.3550
 5059TIP3    H236593   2.779   6.631   2.647 -1.5130  1.1818  0.2937
 5060TIP3   OH236594   6.813   6.508  15.579  0.1527 -0.8601  0.4136
 5060TIP3    H136595   6.771   6.591  15.554 -0.1356 -1.1522 -0.1030
 5060TIP3    H236596   6.832   6.518  15.672 -0.5037 -0.4755  0.5185
 5061TIP3   OH236597   0.309   6.653  15.143 -0.3401 -0.2180 -0.1859
 5061TIP3    H136598   0.359   6.699  15.075 -0.2102 -1.1910 -0.7571
 5061TIP3    H236599   0.327   6.703  15.223  1.9548 -0.7749 -0.2712
 5062TIP3   OH236600   1.644   6.914  12.491  0.0756 -0.1393 -0.8086
 5062TIP3    H136601   1.593   6.970  12.550  1.6886  0.6763 -0.1389
 5062TIP3    H236602   1.578   6.872  12.436 -1.2934  1.2438 -0.3091
 5063TIP3   OH236603   3.642   5.363  14.639 -0.1914 -0.1105  0.0222
 5063TIP3    H136604   3.663   5.324  14.554 -1.7342  0.5482 -0.6900
 5063TIP3    H236605   3.675   5.453  14.633  1.6304 -0.6530  0.9594
 5064TIP3   OH236606   4.436   5.704   2.526  0.3515  0.0569  0.6284
 5064TIP3    H136607   4.388   5.621   2.521  2.4188 -1.1158 -0.9402
 5064TIP3    H236608   4.367   5.770   2.539 -1.5181 -1.6877  0.1352
 5065TIP3   OH236609   4.899   4.700   9.822 -0.1726  0.4473 -0.0194
 5065TIP3    H136610   4.922   4.634   9.756 -0.6365  0.0388  0.2250
 5065TIP3    H236611   4.814   4.734   9.793 -0.4694  0.1289  0.4711
 5066TIP3   OH236612   1.471   7.054  12.259  0.5563  0.0409 -0.3607
 5066TIP3    H136613   1.380   7.031  12.245  0.4554  0.5642 -0.5887
 5066TIP3    H236614   1.519   7.007  12.190  0.3752  0.3630 -0.7057
 5067TIP3   OH236615   3.811   0.188  12.405  0.2889  0.3769  0.5496
 5067TIP3    H136616   3.762   0.140  12.472  1.2058 -0.2451  0.7854
 5067TIP3    H236617   3.847   0.120  12.348 -0.2599  0.8883 -0.4314
 5068TIP3   OH236618   0.792   6.319   4.948 -0.2793 -0.0927  0.1125
 5068TIP3    H136619   0.728   6.252   4.922 -1.1997  0.6894  0.3151
 5068TIP3    H236620   0.833   6.346   4.867 -0.6111 -0.1907 -0.0890
 5069TIP3   OH236621   0.459   4.136  13.245  0.2320 -0.5073 -0.4467
 5069TIP3    H136622   0.492   4.226  13.255 -0.1680 -0.3325 -0.6667
 5069TIP3    H236623   0.389   4.129  13.310  1.2469 -1.1586  0.6149
 5070TIP3   OH236624   5.276   5.530  11.571 -0.7942 -0.4631  0.2238
 5070TIP3    H136625   5.231   5.613  11.557  0.7725  0.5200  0.6251
 5070TIP3    H236626   5.235   5.493  11.649 -0.2768  0.8924  1.1774
 5071TIP3   OH236627   0.036   6.418  15.284  0.2814 -0.1921  0.8852
 5071TIP3    H136628  -0.044   6.468  15.270  1.0175  0.9229  0.5209
 5071TIP3    H236629   0.046   6.366  15.204  2.3995  3.2552 -1.3481
 5072TIP3   OH236630   6.428   2.976   0.633 -0.4290  0.1670  0.0697
 5072TIP3    H136631   6.478   2.963   0.553  0.9975 -0.1347  0.9771
 5072TIP3    H236632   6.406   3.069   0.632 -1.4569 -0.0502 -1.2167
 5073TIP3   OH236633   2.045   5.428  13.554  0.1447  0.2193  0.2146
 5073TIP3    H136634   2.090   5.506  13.586  2.8088 -0.2881 -1.9198
 5073TIP3    H236635   1.968   5.420  13.609  2.4945  1.3554  4.0243
 5074TIP3   OH236636   2.694   5.946   1.316  0.3252 -0.2152 -0.7994
 5074TIP3    H136637   2.676   6.018   1.256 -1.3848 -0.9257 -1.2012
 5074TIP3    H236638   2.778   5.910   1.287  1.0193  1.3438 -0.8228
 5075TIP3   OH236639   5.927   5.196   0.283  0.5901 -0.7737 -0.2680
 5075TIP3    H136640   6.018   5.214   0.258  0.9953 -3.5412 -1.1206
 5075TIP3    H236641   5.934   5.132   0.354 -0.6683 -1.8436 -1.0715
 5076TIP3   OH236642   6.032   4.380   1.741 -0.0067  0.4736 -0.8306
 5076TIP3    H136643   6.004   4.357   1.829  0.0240  0.2574 -0.8771
 5076TIP3    H236644   5.952   4.386   1.689  0.1350 -2.4351 -1.5239
 5077TIP3   OH236645   6.943   0.630  12.908 -0.4096 -0.1608 -0.3650
 5077TIP3    H136646   6.973   0.696  12.844  0.6293 -0.0755  0.1903
 5077TIP3    H236647   7.023   0.595  12.946 -1.0043 -0.4858  0.6321
 5078TIP3   OH236648   1.273   6.226  12.503  0.5806  0.6639  0.0712
 5078TIP3    H136649   1.268   6.212  12.408 -0.4179 -0.3865  0.2430
 5078TIP3    H236650   1.264   6.320  12.514 -1.8581  0.6133 -0.8052
 5079TIP3   OH236651   5.467   1.592   3.744 -0.0700 -0.0536  0.2286
 5079TIP3    H136652   5.557   1.624   3.756  0.4563 -1.2651 -0.3238
 5079TIP3    H236653   5.450   1.540   3.823  1.6337 -4.0207 -1.7310
 5080TIP3   OH236654   3.972   0.645  13.434 -0.1983 -0.2711 -0.4504
 5080TIP3    H136655   3.995   0.668  13.344  0.5200 -2.3309 -0.8413
 5080TIP3    H236656   3.935   0.556  13.428  2.2108 -1.5405  1.5369
 5081TIP3   OH236657   0.275   1.336  11.126  0.1250 -0.4477  0.1267
 5081TIP3    H136658   0.232   1.264  11.080  0.5757 -1.4241  1.2017
 5081TIP3    H236659   0.273   1.311  11.218  1.5938  0.2125  0.3675
 5082TIP3   OH236660   2.555   4.788  12.983 -0.4534  0.2042 -0.1130
 5082TIP3    H136661   2.579   4.780  13.075 -1.0814  1.4286  0.1753
 5082TIP3    H236662   2.503   4.869  12.979 -2.0654 -0.8396 -1.1980
 5083TIP3   OH236663   4.748   2.096  15.012 -0.7321  0.6692 -0.3247
 5083TIP3    H136664   4.796   2.073  15.091 -1.0342 -0.1227 -0.3599
 5083TIP3    H236665   4.778   2.184  14.990  0.4658  0.3204 -0.1626
 5084TIP3   OH236666   3.256   1.773  11.598 -0.0236 -0.1567 -0.2181
 5084TIP3    H136667   3.305   1.691  11.597 -3.0583 -2.1147 -0.7579
 5084TIP3    H236668   3.246   1.795  11.505 -0.6958 -0.1295 -0.1403
 5085TIP3   OH236669   6.522   6.783  13.093  0.0631 -0.4846  0.1142
 5085TIP3    H136670   6.452   6.774  13.029  0.8342 -1.3311 -0.6453
 5085TIP3    H236671   6.513   6.705  13.148 -0.1504 -0.1294  0.5854
 5086TIP3   OH236672   0.039   6.013   0.163  0.1439 -0.2813  0.7624
 5086TIP3    H136673   0.118   5.990   0.113 -1.5386  0.0093 -2.2606
 5086TIP3    H236674  -0.019   5.938   0.151 -0.6420  0.1698  1.6258
 5087TIP3   OH236675   0.109   0.823   5.489  0.1803  0.3837 -0.2427
 5087TIP3    H136676   0.141   0.738   5.458 -1.8682 -0.4021 -0.4058
 5087TIP3    H236677   0.076   0.866   5.409 -0.8617  0.3419  0.1506
 5088TIP3   OH236678   6.461   7.118  13.507  0.1363 -0.3013  0.5393
 5088TIP3    H136679   6.503   7.067  13.438  0.4863  0.4847  0.1553
 5088TIP3    H236680   6.521   7.112  13.582  0.8111  0.5812  0.0840
 5089TIP3   OH236681   3.465   1.477  11.669  0.3641 -0.4833  0.0182
 5089TIP3    H136682   3.479   1.394  11.714  0.2159 -0.6511 -0.2413
 5089TIP3    H236683   3.392   1.518  11.715 -0.4579 -1.1167 -0.7013
 5090TIP3   OH236684   2.755   0.885  10.175  0.0020  0.0033 -0.0313
 5090TIP3    H136685   2.850   0.887  10.163 -0.0304 -0.8297 -0.5333
 5090TIP3    H236686   2.743   0.871  10.268  0.3302  2.1999  0.3945
 5091TIP3   OH236687   6.995   2.562   1.478  0.7843 -0.1771  0.1778
 5091TIP3    H136688   7.005   2.472   1.509  0.5530 -1.1406 -2.2859
 5091TIP3    H236689   6.914   2.593   1.519  1.6935 -0.4844  2.2942
 5092TIP3   OH236690   0.627   4.377  14.174 -0.0337 -0.4459 -0.3586
 5092TIP3    H136691   0.595   4.449  14.227 -0.2342  1.1119 -2.4919
 5092TIP3    H236692   0.718   4.366  14.201 -0.2681 -0.0744  0.6429
 5093TIP3   OH236693   3.690   6.958   2.547 -0.3482 -0.0849 -0.0824
 5093TIP3    H136694   3.594   6.951   2.544 -0.3213 -0.6085 -2.8233
 5093TIP3    H236695   3.709   7.036   2.495  0.7257  0.3231  0.8918
 5094TIP3   OH236696   3.219   3.834  14.295  0.0632 -0.4704 -0.0601
 5094TIP3    H136697   3.201   3.755  14.244  0.4640 -0.7329  0.2012
 5094TIP3    H236698   3.167   3.903  14.252 -0.4670 -0.9197 -0.1491
 5095TIP3   OH236699   6.128   6.196  10.034  0.8356  0.0632  0.3373
 5095TIP3    H136700   6.144   6.260   9.965  1.4907 -0.0770  0.3542
 5095TIP3    H236701   6.215   6.162  10.056  0.8579  1.3035  2.3847
 5096TIP3   OH236702   6.233   3.354  10.367  0.1134  0.1920  0.0608
 5096TIP3    H136703   6.164   3.418  10.348 -0.7679 -0.8190 -0.2669
 5096TIP3    H236704   6.266   3.329  10.281 -0.5423 -0.8278  0.0825
 5097TIP3   OH236705   5.042   2.586  11.518 -0.0392 -0.5725  0.0419
 5097TIP3    H136706   4.992   2.529  11.459  0.9499 -0.3671 -1.0267
 5097TIP3    H236707   5.130   2.548  11.519  0.3721  0.3657  0.1088
 5098TIP3   OH236708   7.111   0.881   9.619  0.7820 -0.5477 -0.1756
 5098TIP3    H136709   7.129   0.787   9.607 -1.2794 -0.8546 -1.4693
 5098TIP3    H236710   7.018   0.884   9.639  0.4803  1.3030 -1.6358
 5099TIP3   OH236711   1.259   6.109  14.918  0.0544 -0.1980 -0.1491
 5099TIP3    H136712   1.313   6.100  14.997 -1.7940 -1.4187  1.0434
 5099TIP3    H236713   1.180   6.058  14.937 -1.0260  0.5786 -2.2790
 5100TIP3   OH236714   5.200   4.562   1.022 -0.0181 -0.5347  0.3436
 5100TIP3    H136715   5.182   4.577   1.115  1.0184  0.0322  0.4695
 5100TIP3    H236716   5.181   4.469   1.009 -0.1586 -0.6273  1.1288
 5101TIP3   OH236717   0.558   5.659  13.474 -0.0512 -0.3954  0.2331
 5101TIP3    H136718   0.499   5.673  13.400 -0.5485  1.6736  0.9611
 5101TIP3    H236719   0.598   5.745  13.491 -0.7480 -0.5018  2.9936
 5102TIP3   OH236720   6.166   6.607   2.978 -0.2102  0.3045 -0.6926
 5102TIP3    H136721   6.196   6.546   3.045  1.5500  1.4796 -0.3430
 5102TIP3    H236722   6.177   6.694   3.017 -0.3653  0.9587 -2.0362
 5103TIP3   OH236723   2.938   0.825   1.154  0.2537  0.1568  0.2150
 5103TIP3    H136724   2.937   0.801   1.061  1.5983 -0.8158  0.4231
 5103TIP3    H236725   2.992   0.758   1.196 -1.7899 -0.4936  2.0277
 5104TIP3   OH236726   4.807   2.676  11.233 -0.0677 -0.0003 -0.1136
 5104TIP3    H136727   4.746   2.708  11.299 -0.2944  0.4950 -0.5618
 5104TIP3    H236728   4.816   2.583  11.253 -1.1720 -0.1447 -0.1879
 5105TIP3   OH236729   6.202   4.698  14.316 -0.8058 -0.2971  0.9168
 5105TIP3    H136730   6.262   4.768  14.289 -1.1192 -0.3965 -0.0574
 5105TIP3    H236731   6.196   4.709  14.411  0.9042 -0.4179  1.0789
 5106TIP3   OH236732   3.084   6.431  12.294 -0.2331  0.4930  0.1570
 5106TIP3    H136733   3.039   6.363  12.244  1.1941 -1.0483  0.8935
 5106TIP3    H236734   3.051   6.422  12.383  0.3979  0.3640  0.3820
 5107TIP3   OH236735   6.189   2.515   1.915  0.2654 -0.4960  0.3471
 5107TIP3    H136736   6.206   2.503   2.009  2.3725 -1.1874 -0.0643
 5107TIP3    H236737   6.247   2.587   1.890 -0.3249 -0.2809 -0.4228
 5108TIP3   OH236738   2.975   6.660   1.987  0.3355 -0.1158 -0.2713
 5108TIP3    H136739   2.962   6.730   2.052  1.7536  1.7711 -1.9069
 5108TIP3    H236740   3.065   6.670   1.958 -0.2536 -0.7967 -2.5833
 5109TIP3   OH236741   0.833   3.374  14.234 -0.1389 -0.4811  0.1003
 5109TIP3    H136742   0.754   3.321  14.224 -0.1136 -0.8224  1.5545
 5109TIP3    H236743   0.826   3.440  14.165 -1.1298 -1.1795 -0.4997
 5110TIP3   OH236744   6.848   1.815  10.139  0.5908 -0.1914  0.2682
 5110TIP3    H136745   6.864   1.895  10.190  1.6498 -0.6802  0.7300
 5110TIP3    H236746   6.888   1.834  10.054 -1.1096  0.5945 -0.4133
 5111TIP3   OH236747   2.135   3.548  11.148 -0.0248 -0.0642  0.0614
 5111TIP3    H136748   2.085   3.475  11.112 -1.2243  0.3708  0.7737
 5111TIP3    H236749   2.091   3.569  11.230  0.2708  1.4815 -0.1438
 5112TIP3   OH236750   3.913   5.148  13.999 -0.3472  0.1508 -0.0066
 5112TIP3    H136751   3.898   5.204  13.923 -2.4834 -0.9213 -0.4352
 5112TIP3    H236752   3.901   5.059  13.967  0.6400 -0.4387  1.1774
 5113TIP3   OH236753   0.409   1.629  11.349  0.0825 -0.8846 -0.4155
 5113TIP3    H136754   0.364   1.560  11.300  1.4251 -0.2110 -2.7811
 5113TIP3    H236755   0.402   1.706  11.292  2.8535 -0.3781 -0.1977
 5114TIP3   OH236756   2.964   6.829   4.163  0.1928  0.4392  0.8021
 5114TIP3    H136757   2.917   6.856   4.241 -2.2328  1.2980 -0.8414
 5114TIP3    H236758   2.951   6.900   4.100 -0.0157 -1.2376 -1.1858
 5115TIP3   OH236759   3.511   4.405  12.234  0.0226  0.3699  0.1164
 5115TIP3    H136760   3.463   4.399  12.317  1.0951  0.6178  0.7853
 5115TIP3    H236761   3.537   4.314  12.215  0.0188  0.3507  0.2020
 5116TIP3   OH236762   0.736   4.610  10.042  0.1829  0.1843 -0.1009
 5116TIP3    H136763   0.808   4.614   9.978 -0.4662 -0.0892 -0.8558
 5116TIP3    H236764   0.766   4.546  10.107  1.3612  1.3378  0.5244
 5117TIP3   OH236765   0.377   4.996  12.783 -0.2404 -0.1517  0.3738
 5117TIP3    H136766   0.301   5.035  12.825  0.7215  1.0071  1.0794
 5117TIP3    H236767   0.448   5.057  12.800  1.3498 -2.1992  1.5907
 5118TIP3   OH236768   3.115   6.670  10.650 -0.2486 -0.1822  0.2979
 5118TIP3    H136769   3.090   6.612  10.578  0.1341  1.1322 -0.9171
 5118TIP3    H236770   3.208   6.654  10.662 -0.5621 -1.4250  1.5049
 5119TIP3   OH236771   4.098   6.426   1.052  0.6743 -0.2423  0.3159
 5119TIP3    H136772   4.077   6.340   1.016 -0.2292 -0.4124  1.2073
 5119TIP3    H236773   4.048   6.487   1.000  1.3240 -0.2387 -0.3254
 5120TIP3   OH236774   1.693   0.069  13.224  0.0066 -0.4497 -0.6128
 5120TIP3    H136775   1.696  -0.022  13.194  1.4413 -0.6919  0.1553
 5120TIP3    H236776   1.770   0.109  13.183  0.2227  0.0136  0.2186
 5121TIP3   OH236777   1.589   5.611  13.847 -0.4312  0.1327  0.0819
 5121TIP3    H136778   1.657   5.583  13.907  0.4611 -0.7578 -1.2982
 5121TIP3    H236779   1.541   5.531  13.825  0.6832  0.0058 -2.1055
 5122TIP3   OH236780   2.507   0.424  12.049  0.0331  0.0138 -0.6714
 5122TIP3    H136781   2.439   0.366  12.014  0.4803 -0.2417 -1.1382
 5122TIP3    H236782   2.477   0.512  12.026 -0.4543 -0.0504 -0.3095
 5123TIP3   OH236783   0.396   2.062   4.474 -0.6909 -0.2903 -0.4171
 5123TIP3    H136784   0.367   2.038   4.386  0.5239  0.2873 -1.0040
 5123TIP3    H236785   0.481   2.020   4.483  0.1654  1.3697 -0.3717
 5124TIP3   OH236786   0.457   3.808  14.189 -0.8570 -0.0947  0.1587
 5124TIP3    H136787   0.459   3.903  14.199 -0.1758 -0.1461  0.5958
 5124TIP3    H236788   0.376   3.780  14.232  0.1727  0.0533  2.3313
 5125TIP3   OH236789   6.789   5.198  13.445  0.4845  0.3337 -0.4628
 5125TIP3    H136790   6.802   5.105  13.431  0.4842  0.3273 -0.4212
 5125TIP3    H236791   6.694   5.210  13.446  0.4717  0.2493  0.0592
 5126TIP3   OH236792   0.137   0.912  13.806  0.2061 -0.1092 -0.4161
 5126TIP3    H136793   0.193   0.988  13.792 -0.6110  0.7276  0.6509
 5126TIP3    H236794   0.188   0.837  13.775  1.2870  0.8005 -0.8655
 5127TIP3   OH236795   5.001   6.502  14.035  0.0857 -1.2402 -0.3286
 5127TIP3    H136796   5.016   6.409  14.053  0.8050 -1.7846 -3.2611
 5127TIP3    H236797   4.909   6.508  14.011 -0.6730 -0.6467  2.4141
 5128TIP3   OH236798   1.446   6.068  10.954 -0.3436 -0.3497  0.8622
 5128TIP3    H136799   1.442   6.048  11.048 -0.2711  1.3251  1.2516
 5128TIP3    H236800   1.539   6.083  10.937 -0.4391  0.0506  0.6853
 5129TIP3   OH236801   2.122   3.090  14.724 -0.0439  0.0185  0.0165
 5129TIP3    H136802   2.106   3.034  14.800 -2.4237  1.1900  0.4605
 5129TIP3    H236803   2.035   3.111  14.691  0.8557  1.6822 -1.4590
 5130TIP3   OH236804   5.247   3.461  13.929 -0.5248  0.5259  0.3429
 5130TIP3    H136805   5.181   3.487  13.993  1.3256  2.0021  1.8074
 5130TIP3    H236806   5.271   3.372  13.955 -1.2320  0.3486  0.4132
 5131TIP3   OH236807   0.553   6.403  12.482  0.6225  0.0226  0.0508
 5131TIP3    H136808   0.638   6.432  12.448  1.1750 -1.3048  0.2396
 5131TIP3    H236809   0.565   6.402  12.577 -0.3089  1.8907  0.2208
 5132TIP3   OH236810   3.549   4.050  13.610  0.3051 -0.0958 -0.1585
 5132TIP3    H136811   3.465   4.004  13.621  0.0707  0.3365 -0.1444
 5132TIP3    H236812   3.595   4.035  13.693 -0.5773  1.3386  0.6179
 5133TIP3   OH236813   0.090   4.090  13.162 -0.7082  0.0872  0.4060
 5133TIP3    H136814   0.113   4.086  13.069  0.0354  0.8245  0.5491
 5133TIP3    H236815   0.146   4.159  13.198  1.1013 -2.0497  2.0072
 5134TIP3   OH236816   0.582   2.848  10.131  0.2482 -0.2970 -0.5183
 5134TIP3    H136817   0.506   2.906  10.131 -0.0544 -0.6676  0.5553
 5134TIP3    H236818   0.552   2.769  10.176  0.8943 -0.9732 -1.2203
 5135TIP3   OH236819   1.954   5.058   5.534 -0.8093 -0.1467  0.2592
 5135TIP3    H136820   1.919   4.972   5.511 -0.9262 -0.7839  2.5188
 5135TIP3    H236821   2.043   5.041   5.566  0.2303  0.9734 -1.8345
 5136TIP3   OH236822   2.330   3.691   3.530 -0.2769  0.0190 -0.4222
 5136TIP3    H136823   2.334   3.682   3.625 -1.2739 -0.8670 -0.4558
 5136TIP3    H236824   2.244   3.728   3.512 -0.8219 -1.4883 -1.0808
 5137TIP3   OH236825   5.232   0.048  12.396 -0.0357  0.0302  0.3620
 5137TIP3    H136826   5.287   0.029  12.473 -1.3439 -0.2029  1.2671
 5137TIP3    H236827   5.148   0.008  12.416 -0.3767 -0.1414 -1.2716
 5138TIP3   OH236828   3.863   2.405  12.532 -0.6970  0.1085 -0.3069
 5138TIP3    H136829   3.955   2.424  12.551 -0.8761  0.3865  0.3024
 5138TIP3    H236830   3.846   2.452  12.450 -0.6059  1.0086  0.1806
 5139TIP3   OH236831   5.312   2.852  11.768 -0.0552 -0.6863 -0.4723
 5139TIP3    H136832   5.219   2.829  11.770 -0.4072  0.3772 -2.2620
 5139TIP3    H236833   5.315   2.944  11.794  0.5358 -0.8060 -0.1075
 5140TIP3   OH236834   2.645   3.481  13.264  0.1057 -0.0554  0.2237
 5140TIP3    H136835   2.703   3.480  13.188  1.4291 -1.3966  1.1953
 5140TIP3    H236836   2.572   3.424  13.240  0.2083  0.0137 -0.2608
 5141TIP3   OH236837   2.386   4.809  11.912  0.5806 -0.6076  0.3715
 5141TIP3    H136838   2.324   4.737  11.912  0.5893 -0.6156 -0.2896
 5141TIP3    H236839   2.332   4.888  11.919  0.5653 -0.6705  0.9885
 5142TIP3   OH236840   6.325   4.243  10.619 -0.0386 -0.3175 -0.3495
 5142TIP3    H136841   6.371   4.298  10.555  0.4433  0.2774  0.4917
 5142TIP3    H236842   6.345   4.282  10.703 -0.3187 -1.3414  0.2111
 5143TIP3   OH236843   3.418   1.593   5.867 -0.1256 -0.3414  0.3354
 5143TIP3    H136844   3.343   1.624   5.817  0.5312  0.7679 -0.0045
 5143TIP3    H236845   3.492   1.642   5.832  0.2253  1.2606  3.0342
 5144TIP3   OH236846   1.105   5.363  12.284 -0.2428  0.0931  0.2263
 5144TIP3    H136847   1.094   5.346  12.377 -0.4998  0.9528  0.3555
 5144TIP3    H236848   1.200   5.373  12.272 -0.2427  0.3819  0.4675
 5145TIP3   OH236849   5.966   1.054  14.537  0.3913 -0.0135 -0.1834
 5145TIP3    H136850   5.956   0.984  14.472  0.0616  0.8196 -1.0428
 5145TIP3    H236851   5.959   1.135  14.487  0.8923  0.6471  0.7832
 5146TIP3   OH236852   5.944   2.145  10.766 -0.4517  0.0166  0.5317
 5146TIP3    H136853   5.973   2.080  10.702 -0.3105  0.4032  0.1932
 5146TIP3    H236854   6.000   2.130  10.842  1.3356  1.3436 -0.4401
 5147TIP3   OH236855   1.856   5.685   0.503  0.1418 -0.0475 -0.2624
 5147TIP3    H136856   1.896   5.750   0.444  0.2916  0.2102  0.1221
 5147TIP3    H236857   1.914   5.609   0.496  0.2374  0.0315 -0.3409
 5148TIP3   OH236858   3.578   3.786   9.649 -0.3168 -0.1938 -0.3336
 5148TIP3    H136859   3.558   3.872   9.612 -0.0819 -0.2093 -0.4993
 5148TIP3    H236860   3.616   3.737   9.576 -3.2544 -1.4880 -1.1285
 5149TIP3   OH236861   0.378   3.874  10.012 -0.2842  0.1804 -0.3135
 5149TIP3    H136862   0.361   3.942  10.078  1.2285  1.4278 -1.1298
 5149TIP3    H236863   0.366   3.792  10.059 -2.9551  0.9304  0.5177
 5150TIP3   OH236864   1.481   6.716   0.448 -0.4835 -0.1771 -0.0060
 5150TIP3    H136865   1.529   6.704   0.530 -0.1144 -0.8299 -0.3042
 5150TIP3    H236866   1.516   6.796   0.411 -1.3036  0.6351  0.9035
 5151TIP3   OH236867   0.941   1.358  11.593 -0.8383  0.0351  0.1532
 5151TIP3    H136868   0.961   1.370  11.500 -1.5898  1.0747  0.1110
 5151TIP3    H236869   1.027   1.343  11.634 -0.3144  1.1803 -0.4752
 5152TIP3   OH236870   5.447   1.947  13.746 -0.5403  0.0295  0.1399
 5152TIP3    H136871   5.448   2.025  13.801  2.3779 -0.3096  0.7272
 5152TIP3    H236872   5.407   1.880  13.802 -0.8761  0.5250  0.5123
 5153TIP3   OH236873   6.967   4.408   1.572  0.8238 -0.2260 -0.3468
 5153TIP3    H136874   6.905   4.340   1.601  1.4158 -0.2797  0.8510
 5153TIP3    H236875   6.927   4.490   1.601  1.2660 -0.2540  0.3454
 5154TIP3   OH236876   5.588   5.649   3.412  0.4112  0.5963 -0.4549
 5154TIP3    H136877   5.676   5.673   3.439 -0.3848  2.4047  0.6945
 5154TIP3    H236878   5.546   5.732   3.388 -0.7411 -0.3137 -1.8025
 5155TIP3   OH236879   0.712   6.799   0.808  0.3103 -0.3053 -0.3612
 5155TIP3    H136880   0.703   6.715   0.853  0.1942  0.2500  0.6739
 5155TIP3    H236881   0.783   6.785   0.745  0.1836 -1.2242 -0.3110
 5156TIP3   OH236882   5.171   3.128  11.251 -0.0435 -0.7257 -0.1600
 5156TIP3    H136883   5.161   3.033  11.241  0.5127 -0.7754 -0.2304
 5156TIP3    H236884   5.127   3.164  11.174 -0.5109 -0.9087  0.0109
 5157TIP3   OH236885   5.314   3.627   5.135 -0.6220 -0.2695 -0.7454
 5157TIP3    H136886   5.245   3.561   5.123 -1.9947  1.3355 -2.2022
 5157TIP3    H236887   5.273   3.710   5.110  2.0869  0.6733 -2.5201
 5158TIP3   OH236888   0.868   0.094   4.453  0.2612  0.3766 -0.2874
 5158TIP3    H136889   0.844   0.142   4.532 -0.4789  2.6710 -1.7853
 5158TIP3    H236890   0.833   0.006   4.466 -1.7328  1.2987  1.0494
 5159TIP3   OH236891   3.169   4.364  11.615  0.3839  0.3732 -0.0482
 5159TIP3    H136892   3.243   4.315  11.649 -0.2436  0.1617  1.0667
 5159TIP3    H236893   3.130   4.406  11.692 -0.3091  0.9473 -0.6895
 5160TIP3   OH236894   6.825   6.901  14.982  0.7475 -0.2895 -0.1548
 5160TIP3    H136895   6.907   6.888  15.030  0.8464  1.7405  0.3443
 5160TIP3    H236896   6.825   6.995  14.960 -0.6788 -0.5746 -1.5956
 5161TIP3   OH236897   5.366   0.796   5.502 -0.3508 -0.0140 -0.7963
 5161TIP3    H136898   5.455   0.762   5.518  0.8412  2.8687 -0.6728
 5161TIP3    H236899   5.380   0.888   5.480 -3.2228  0.0390 -2.7559
 5162TIP3   OH236900   5.135   6.091   9.615 -0.2391 -0.7404 -0.2496
 5162TIP3    H136901   5.054   6.056   9.652  0.4978  0.2931  2.5841
 5162TIP3    H236902   5.114   6.183   9.596  1.0803  0.7313  4.1383
 5163TIP3   OH236903   0.720   6.807  14.223  0.1316  0.6122 -0.0905
 5163TIP3    H136904   0.738   6.889  14.178 -0.1517  0.4006 -0.6046
 5163TIP3    H236905   0.709   6.831  14.315 -2.2543  1.5242 -0.5203
 5164TIP3   OH236906   6.865   0.944   9.716 -0.0993  0.2951 -0.5321
 5164TIP3    H136907   6.777   0.966   9.684  0.1380  0.6372 -0.9693
 5164TIP3    H236908   6.851   0.877   9.782 -0.5378 -1.2341 -2.1016
 5165TIP3   OH236909   3.836   2.591  10.331 -0.1206  0.3839  0.4471
 5165TIP3    H136910   3.891   2.597  10.409  0.4949 -0.6045  0.1061
 5165TIP3    H236911   3.885   2.534  10.272  0.0583  2.1565 -1.2110
 5166TIP3   OH236912   5.279   6.741  13.413  0.1956 -0.3277  0.3310
 5166TIP3    H136913   5.345   6.800  13.449  2.6303 -3.3921  1.2223
 5166TIP3    H236914   5.228   6.713  13.489 -3.4479  3.1516 -0.4880
 5167TIP3   OH236915   0.272   4.694   1.160  0.4088  0.4925 -0.4482
 5167TIP3    H136916   0.323   4.767   1.194  0.8960  0.3617 -0.8721
 5167TIP3    H236917   0.300   4.618   1.211  3.3242 -0.3036 -2.9396
 5168TIP3   OH236918   6.090   4.811   1.127 -0.1011 -0.4852 -0.0042
 5168TIP3    H136919   6.126   4.835   1.042 -0.4653 -2.0863 -0.6546
 5168TIP3    H236920   6.125   4.877   1.188  1.4968 -0.2583 -1.0976
 5169TIP3   OH236921   4.437   1.505  13.604  0.0733 -0.1309 -1.1136
 5169TIP3    H136922   4.414   1.491  13.512  0.5102 -0.9179 -1.1123
 5169TIP3    H236923   4.529   1.531  13.603  0.2791 -0.8258 -0.8593
 5170TIP3   OH236924   0.991   2.075  13.930 -0.1214  0.9669  0.4389
 5170TIP3    H136925   0.994   2.046  13.839 -0.1238 -0.5790  0.9061
 5170TIP3    H236926   0.926   2.145  13.931  0.3899  1.4914 -0.8720
 5171TIP3   OH236927   5.011   2.872  11.175  0.2553 -0.0941 -0.1617
 5171TIP3    H136928   4.951   2.899  11.106 -0.7192 -1.3637  0.1373
 5171TIP3    H236929   4.957   2.820  11.235  1.7030 -1.5736 -0.0519
 5172TIP3   OH236930   5.523   4.826  11.552 -0.5732  0.3720 -0.1656
 5172TIP3    H136931   5.550   4.735  11.535  0.9813  0.7501  0.1692
 5172TIP3    H236932   5.513   4.830  11.647  0.2594  0.7894 -0.0954
 5173TIP3   OH236933   2.862   6.048   5.888 -0.3246  0.3495 -0.7735
 5173TIP3    H136934   2.797   5.995   5.842  1.0997  0.2791 -2.8009
 5173TIP3    H236935   2.840   6.138   5.863 -0.1836  0.3919 -0.7424
 5174TIP3   OH236936   5.460   0.947  13.995  0.1751 -0.5018 -0.2998
 5174TIP3    H136937   5.405   0.892  13.940 -2.1636  1.7883 -0.4640
 5174TIP3    H236938   5.421   0.940  14.083  0.7643 -0.2566 -0.0119
 5175TIP3   OH236939   5.577   0.732  12.127  0.3359  0.0699  0.1288
 5175TIP3    H136940   5.605   0.818  12.095 -1.2643  0.1835 -1.0571
 5175TIP3    H236941   5.501   0.710  12.074  1.0607 -2.3753  0.0042
 5176TIP3   OH236942   6.060   6.566  12.963 -0.2430  0.2250  0.0312
 5176TIP3    H136943   5.966   6.545  12.963 -0.2990  0.4725  0.0508
 5176TIP3    H236944   6.063   6.661  12.974 -0.0172  0.3363 -0.8844
 5177TIP3   OH236945   2.322   5.718  10.292  0.2714 -0.4077  0.0337
 5177TIP3    H136946   2.295   5.735  10.202  2.8113  1.8393 -0.4280
 5177TIP3    H236947   2.287   5.631  10.311 -0.5075 -0.8913 -3.0346
 5178TIP3   OH236948   1.439   0.495  13.029 -0.7272  0.3893 -0.3914
 5178TIP3    H136949   1.506   0.433  13.001  0.5669 -0.0322  3.1026
 5178TIP3    H236950   1.484   0.554  13.090 -3.3106  0.3862  1.7325
 5179TIP3   OH236951   4.338   4.586  10.908  0.1145 -0.0599 -0.3094
 5179TIP3    H136952   4.426   4.600  10.874 -0.1251 -1.1184 -1.4558
 5179TIP3    H236953   4.310   4.671  10.939  0.9376  0.6446 -1.4223
 5180TIP3   OH236954   5.029   3.631  13.826  0.0708  0.1275 -0.4575
 5180TIP3    H136955   5.068   3.561  13.773 -1.0166  0.0556 -1.1755
 5180TIP3    H236956   5.062   3.712  13.788  0.1405  0.0456 -0.5711
 5181TIP3   OH236957   6.396   1.973   9.496 -0.1848 -0.5820 -0.1152
 5181TIP3    H136958   6.371   2.021   9.417  0.3906  0.7757  0.4970
 5181TIP3    H236959   6.314   1.940   9.531 -0.4389 -1.3301 -1.3441
 5182TIP3   OH236960   5.682   6.924  14.498 -0.0112  0.0596  0.0812
 5182TIP3    H136961   5.645   6.978  14.568 -3.0748 -1.8709  0.1363
 5182TIP3    H236962   5.633   6.950  14.420  0.4098 -0.7094 -0.4524
 5183TIP3   OH236963   0.424   6.944  12.869  0.1884  0.1363  0.0453
 5183TIP3    H136964   0.373   6.959  12.949  0.4698 -1.8612  0.6675
 5183TIP3    H236965   0.383   7.001  12.804 -0.8699  0.8724  1.2902
 5184TIP3   OH236966   6.955   2.170  11.456  0.0078  0.4000 -0.0981
 5184TIP3    H136967   7.042   2.148  11.491  0.6056  1.3143 -0.9362
 5184TIP3    H236968   6.948   2.265  11.469 -1.5941  0.1153  1.4905
 5185TIP3   OH236969   2.468   2.132   1.772  0.4764  0.1166 -0.1940
 5185TIP3    H136970   2.540   2.115   1.833  0.0507 -0.5605  0.1401
 5185TIP3    H236971   2.458   2.227   1.772 -1.0264  0.0798  2.6078
 5186TIP3   OH236972   0.810   2.276  12.779 -0.0208  0.3217 -0.0043
 5186TIP3    H136973   0.820   2.371  12.774 -1.5504  0.6718  2.2092
 5186TIP3    H236974   0.840   2.253  12.867 -0.3889 -1.1567 -0.2303
 5187TIP3   OH236975   1.829   0.566  12.860  0.4801  0.0319 -0.9530
 5187TIP3    H136976   1.754   0.619  12.834 -0.6761  0.4036  2.6902
 5187TIP3    H236977   1.820   0.485  12.809 -2.7452 -0.1539 -0.2919
 5188TIP3   OH236978   2.947   2.590  12.159 -0.1879 -0.3024  0.0683
 5188TIP3    H136979   2.993   2.640  12.092  0.8568 -1.6467 -0.2677
 5188TIP3    H236980   2.875   2.548  12.113  1.1801 -2.1283 -0.5424
 5189TIP3   OH236981   0.193   3.429  11.298 -0.5634 -0.2987 -0.0277
 5189TIP3    H136982   0.158   3.507  11.342  0.3200 -0.3124  0.7282
 5189TIP3    H236983   0.277   3.458  11.262  0.0589 -1.0282  0.7733
 5190TIP3   OH236984   3.172   4.960  12.679 -0.4919 -0.5669  0.1573
 5190TIP3    H136985   3.105   4.900  12.647  0.5748 -1.1260 -1.1147
 5190TIP3    H236986   3.200   5.009  12.601  1.0143 -0.7919  0.5252
 5191TIP3   OH236987   5.327   0.957  10.329  0.1906  0.1273  0.2756
 5191TIP3    H136988   5.314   1.043  10.368 -0.2654 -0.9317  2.6419
 5191TIP3    H236989   5.404   0.922  10.372 -0.6608 -1.3343  0.6754
 5192TIP3   OH236990   3.118   0.209  12.183  0.5204  0.2186  0.2720
 5192TIP3    H136991   3.135   0.289  12.233  0.1085 -0.9370  2.3985
 5192TIP3    H236992   3.044   0.169  12.228  0.7142 -1.3728 -0.7581
 5193TIP3   OH236993   4.022   6.129  10.401  0.7368 -0.3382 -0.1411
 5193TIP3    H136994   3.956   6.163  10.340 -1.3243  0.3320  2.2641
 5193TIP3    H236995   4.030   6.036  10.379 -1.7462 -0.6548  0.0236
 5194TIP3   OH236996   4.385   3.536   5.087  0.2478 -0.0665  0.1865
 5194TIP3    H136997   4.452   3.605   5.085  1.9491 -1.6143 -1.5134
 5194TIP3    H236998   4.315   3.569   5.031  2.1034 -0.5679 -2.6280
 5195TIP3   OH236999   5.526   1.952  15.228 -0.3358  0.7357  0.2910
 5195TIP3    H137000   5.527   1.919  15.318 -0.9100  0.4731  0.2106
 5195TIP3    H237001   5.506   2.045  15.238 -0.6555  0.6552  0.4256
 5196TIP3   OH237002   3.930   1.348   4.586  0.5823 -0.4362  0.3367
 5196TIP3    H137003   3.928   1.413   4.656  0.4805  0.7285 -0.7011
 5196TIP3    H237004   4.023   1.323   4.580  1.0730  1.4685 -0.8414
 5197TIP3   OH237005   4.724   6.939  13.690 -0.0600 -0.0507 -0.5736
 5197TIP3    H137006   4.763   6.936  13.602  0.3344  0.0889 -0.4053
 5197TIP3    H237007   4.662   6.866  13.691  1.6048 -1.5040 -0.1713
 5198TIP3   OH237008   2.662   3.868  13.663  1.1547 -0.6159  0.2347
 5198TIP3    H137009   2.711   3.792  13.631  1.6206  0.4920 -1.8328
 5198TIP3    H237010   2.727   3.937  13.673  0.7888 -0.5128  2.3761
 5199TIP3   OH237011   5.833   4.438   5.959 -0.2486  0.4996 -0.4358
 5199TIP3    H137012   5.745   4.420   5.925  0.6998  0.6875 -3.2391
 5199TIP3    H237013   5.840   4.533   5.958 -0.1338  0.5009  0.1765
 5200TIP3   OH237014   2.695   2.254  14.024 -0.2517 -0.6044  0.3166
 5200TIP3    H137015   2.763   2.265  13.958 -0.5866  0.8927  0.1897
 5200TIP3    H237016   2.743   2.245  14.106  0.1357 -1.4865  0.0096
 5201TIP3   OH237017   0.974   6.728   9.846 -0.6032 -0.0774 -0.2642
 5201TIP3    H137018   0.941   6.800   9.900 -1.6662 -1.1471  0.5413
 5201TIP3    H237019   1.035   6.681   9.902  0.0106  0.1027 -0.7596
 5202TIP3   OH237020   2.966   3.128  12.270  0.3260 -0.2027  0.0602
 5202TIP3    H137021   2.908   3.056  12.247 -1.6766  0.8655  1.4595
 5202TIP3    H237022   2.924   3.206  12.232  0.5272  0.6728  1.5633
 5203TIP3   OH237023   3.103   0.256   0.834  0.1248 -0.3243 -0.2053
 5203TIP3    H137024   3.048   0.320   0.790 -1.6521  0.1344  2.4687
 5203TIP3    H237025   3.169   0.232   0.768 -0.4878  2.5180 -2.0361
 5204TIP3   OH237026   2.174   3.450  12.157  0.1264 -0.1079  0.3122
 5204TIP3    H137027   2.198   3.364  12.191  1.4856  0.2370  0.2976
 5204TIP3    H237028   2.083   3.441  12.129 -0.1022 -1.2159  1.3427
 5205TIP3   OH237029   6.956   5.350   9.281  0.5438  0.1812  0.8416
 5205TIP3    H137030   7.008   5.271   9.291 -0.1461 -0.9111 -2.7374
 5205TIP3    H237031   6.867   5.319   9.264  0.3598  1.5801 -1.2190
 5206TIP3   OH237032   6.624   3.574  13.707  0.1386 -0.0194  0.0712
 5206TIP3    H137033   6.622   3.631  13.784 -1.4184 -0.2227  0.1968
 5206TIP3    H237034   6.705   3.599  13.661 -0.2388  1.9249  0.3998
 5207TIP3   OH237035   1.036   1.855   4.439 -0.1858 -0.1449 -0.3391
 5207TIP3    H137036   0.982   1.859   4.519  1.7703  1.8530  1.0165
 5207TIP3    H237037   0.973   1.836   4.369 -2.0251 -1.8436  1.5943
 5208TIP3   OH237038   0.521   3.125  12.162 -0.3817  0.0560  0.0488
 5208TIP3    H137039   0.505   3.058  12.096 -1.5275 -0.1478  0.5081
 5208TIP3    H237040   0.616   3.132  12.167 -0.1999  1.4831 -3.0097
 5209TIP3   OH237041   3.712   1.935  10.690 -0.3983 -0.4875 -0.1371
 5209TIP3    H137042   3.727   2.022  10.727  0.3899 -0.0401 -1.4413
 5209TIP3    H237043   3.619   1.934  10.667 -1.4135 -1.4374  3.4016
 5210TIP3   OH237044   5.583   5.088  15.407  0.3496 -0.5347  0.0115
 5210TIP3    H137045   5.641   5.164  15.413 -0.8997  0.5128 -0.7549
 5210TIP3    H237046   5.514   5.106  15.471 -0.2256 -0.7822 -0.5363
 5211TIP3   OH237047   1.310   2.311  15.257 -0.0212 -0.0691  0.0441
 5211TIP3    H137048   1.337   2.280  15.343  0.6833  1.4587  0.4040
 5211TIP3    H237049   1.389   2.308  15.203 -0.5110 -1.2687 -0.6630
 5212TIP3   OH237050   3.219   3.109  14.456  0.8567  0.3967  0.7745
 5212TIP3    H137051   3.143   3.065  14.495 -0.0054 -0.3833 -1.6380
 5212TIP3    H237052   3.182   3.179  14.402  1.7094 -0.6837 -1.3192
 5213TIP3   OH237053   2.056   6.981   1.049 -0.3026 -0.9754 -0.0190
 5213TIP3    H137054   1.982   7.013   0.997 -0.0807 -0.0649  0.2014
 5213TIP3    H237055   2.098   7.060   1.081  1.0206 -1.4536 -0.4855
 5214TIP3   OH237056   1.115   5.910  12.629  0.2637  0.0142 -0.6287
 5214TIP3    H137057   1.194   5.955  12.601  1.0040  0.3420  1.7427
 5214TIP3    H237058   1.060   5.978  12.668 -0.2319 -0.5403 -0.3198
 5215TIP3   OH237059   0.572   6.462   0.679  0.3570 -0.6203  0.4425
 5215TIP3    H137060   0.653   6.450   0.629 -0.1989 -0.0451 -0.6213
 5215TIP3    H237061   0.594   6.432   0.767  1.7765 -0.3212  0.2169
 5216TIP3   OH237062   2.197   6.068  11.047 -0.4848  0.0528 -0.0257
 5216TIP3    H137063   2.122   6.014  11.024  0.8115 -1.3895 -1.0927
 5216TIP3    H237064   2.264   6.005  11.076  1.2108  0.9981 -1.6519
 5217TIP3   OH237065   3.886   2.008   0.993  0.0065 -0.1033  0.0646
 5217TIP3    H137066   3.901   2.084   0.937  2.6283 -0.4026  0.2535
 5217TIP3    H237067   3.935   1.937   0.951 -2.3317 -1.7385 -0.0789
 5218TIP3   OH237068   2.678   4.435  13.800  0.0609  0.2099 -0.3084
 5218TIP3    H137069   2.618   4.478  13.860  0.6357 -0.1742  0.5542
 5218TIP3    H237070   2.620   4.385  13.741 -0.4832 -0.1322  0.4852
 5219TIP3   OH237071   1.557   6.987  13.642  0.7620 -0.4516 -0.3585
 5219TIP3    H137072   1.550   7.083  13.645 -0.6229 -0.4895 -1.5043
 5219TIP3    H237073   1.616   6.970  13.569 -0.5603 -0.4777 -1.4670
 5220TIP3   OH237074   2.492   0.619  12.716 -0.2760  0.1081  0.0923
 5220TIP3    H137075   2.499   0.544  12.657 -0.9965 -0.8231  1.1564
 5220TIP3    H237076   2.425   0.594  12.780  0.7539  0.9212  1.5614
 5221TIP3   OH237077   2.157   6.450  15.439  0.6409 -0.3027 -0.0446
 5221TIP3    H137078   2.210   6.403  15.374  1.4549  1.2327 -0.5301
 5221TIP3    H237079   2.087   6.388  15.461  1.0196 -1.3176 -1.5045
 5222TIP3   OH237080   0.749   0.647  12.933  0.1132 -0.7045 -0.1629
 5222TIP3    H137081   0.723   0.668  13.023  0.3075 -0.9571 -0.0453
 5222TIP3    H237082   0.732   0.727  12.884  1.7315  0.0700  0.4627
 5223TIP3   OH237083   3.446   3.754   2.191 -0.1627 -0.1796 -0.1151
 5223TIP3    H137084   3.366   3.701   2.184 -0.2104 -0.0494 -0.5808
 5223TIP3    H237085   3.429   3.813   2.265 -0.3577 -0.3880  0.0093
 5224TIP3   OH237086   6.496   2.901  10.316  0.0826  0.7534 -0.1119
 5224TIP3    H137087   6.585   2.865  10.310 -0.4311 -0.6378  0.1853
 5224TIP3    H237088   6.469   2.882  10.406 -0.4459  1.3349 -0.1451
 5225TIP3   OH237089   4.326   4.419  14.442  0.0747  0.2625 -0.4972
 5225TIP3    H137090   4.366   4.349  14.391  1.1646  0.4008  0.1388
 5225TIP3    H237091   4.232   4.403  14.434  0.2853 -1.0100 -0.7259
 5226TIP3   OH237092   7.128   3.969  10.347  0.2541  0.3146 -0.2279
 5226TIP3    H137093   7.137   4.062  10.366  0.4296  0.6140 -1.6416
 5226TIP3    H237094   7.035   3.957  10.330  0.3801  0.4699 -1.0907
 5227TIP3   OH237095   3.404   3.492  10.463 -0.0723 -0.7309  0.0941
 5227TIP3    H137096   3.347   3.485  10.387 -1.2613  0.6486  0.8174
 5227TIP3    H237097   3.350   3.464  10.536  0.4018 -0.1155  0.6925
 5228TIP3   OH237098   0.563   3.884   9.658 -0.1039 -0.2052  0.1180
 5228TIP3    H137099   0.609   3.849   9.735  0.3964  1.3302  0.5669
 5228TIP3    H237100   0.628   3.938   9.614 -0.4017 -1.0544 -1.4033
 5229TIP3   OH237101   0.597   0.867  12.506  0.5732 -0.4513  0.0039
 5229TIP3    H137102   0.634   0.955  12.521  0.7919 -0.1239 -2.0759
 5229TIP3    H237103   0.672   0.814  12.480  0.2181 -0.8420 -0.2391
 5230TIP3   OH237104   1.354   6.771  10.776  0.1675 -0.0322 -0.3871
 5230TIP3    H137105   1.379   6.771  10.683  0.8351 -0.5590 -0.2177
 5230TIP3    H237106   1.404   6.699  10.814 -0.3786 -0.0558  0.3137
 5231TIP3   OH237107   4.712   2.379   9.740  0.4057  0.0386  0.5017
 5231TIP3    H137108   4.807   2.384   9.752  0.2551  1.0259  1.3763
 5231TIP3    H237109   4.700   2.307   9.678  1.7553  0.2840 -0.0827
 5232TIP3   OH237110   6.891   0.624   0.051 -0.5528  0.7209  0.1592
 5232TIP3    H137111   6.939   0.706   0.053  2.1146 -0.7342  1.3898
 5232TIP3    H237112   6.845   0.621   0.134  0.9285  0.1588  0.9903
 5233TIP3   OH237113   3.813   2.082  12.243 -0.3620 -0.3303 -0.1561
 5233TIP3    H137114   3.893   2.032  12.262 -1.7913 -3.0206 -0.6866
 5233TIP3    H237115   3.790   2.123  12.326  2.0032  1.2775 -0.2083
 5234TIP3   OH237116   2.387   2.914  10.972  0.3616  0.1127  0.7516
 5234TIP3    H137117   2.471   2.937  11.012 -0.5710  1.1391  2.2233
 5234TIP3    H237118   2.365   2.829  11.008  0.6495 -0.0461  0.5543
 5235TIP3   OH237119   5.682   1.655   4.652 -0.0240 -0.6241 -0.1112
 5235TIP3    H137120   5.672   1.700   4.569 -1.8706 -0.3212  0.2286
 5235TIP3    H237121   5.669   1.563   4.631 -0.5491 -0.5421 -0.1637
 5236TIP3   OH237122   0.450   1.942  14.515  0.0129  0.4316  0.2804
 5236TIP3    H137123   0.521   1.888  14.481 -1.7628 -1.5749 -0.4252
 5236TIP3    H237124   0.491   1.993  14.585  2.1387 -0.6512 -0.0872
 5237TIP3   OH237125   2.580   3.659  11.388  0.1597 -0.0065  0.1448
 5237TIP3    H137126   2.521   3.648  11.314 -0.8595 -0.0047  0.9321
 5237TIP3    H237127   2.538   3.612  11.460 -0.5509  2.6198  1.5883
 5238TIP3   OH237128   0.252   1.185  15.210  0.2707  0.1929 -0.6199
 5238TIP3    H137129   0.322   1.121  15.197  0.1850  0.1922 -1.1010
 5238TIP3    H237130   0.275   1.258  15.154  2.1847  2.1349  2.4166
 5239TIP3   OH237131   1.781   5.636  13.179 -0.0176  0.0205 -0.0832
 5239TIP3    H137132   1.700   5.672  13.216 -0.1525  0.3223 -0.6554
 5239TIP3    H237133   1.848   5.654  13.246 -0.0579  1.4589 -0.3845
 5240TIP3   OH237134   3.038   0.443  12.970  0.5732  0.3839  0.0045
 5240TIP3    H137135   2.977   0.385  12.923  0.1802  1.0576 -0.3348
 5240TIP3    H237136   3.003   0.531  12.956  1.1894  0.7119  0.4733
 5241TIP3   OH237137   1.045   3.554  12.800 -0.1274 -0.2725 -0.3412
 5241TIP3    H137138   1.049   3.638  12.755 -4.0816  1.0822  1.3950
 5241TIP3    H237139   1.105   3.564  12.874 -0.4996  1.0342 -0.1944
 5242TIP3   OH237140   5.394   2.066  10.641 -0.3551  0.7142  0.8534
 5242TIP3    H137141   5.331   2.097  10.576 -0.2261 -1.1664 -0.2418
 5242TIP3    H237142   5.472   2.120  10.627  0.3983 -0.9183 -1.9964
 5243TIP3   OH237143   2.403   6.120   1.094  0.3358  0.9649  0.1515
 5243TIP3    H137144   2.492   6.150   1.110 -0.1176  0.7057  4.0945
 5243TIP3    H237145   2.405   6.026   1.109 -0.9079  1.2466  2.6024
 5244TIP3   OH237146   3.618   3.994  13.864 -0.5284  0.0189  0.4345
 5244TIP3    H137147   3.661   3.908  13.860  0.1170  0.2836  1.4199
 5244TIP3    H237148   3.673   4.046  13.922 -2.2654  0.3104  1.9289
 5245TIP3   OH237149   6.651   3.259   4.225  0.4487 -0.5540  0.4025
 5245TIP3    H137150   6.567   3.268   4.180 -0.7517  0.4202  2.6627
 5245TIP3    H237151   6.647   3.172   4.264  0.6126 -0.6190  0.2729
 5246TIP3   OH237152   1.702   3.406   3.661  0.2237  0.1646 -0.0505
 5246TIP3    H137153   1.675   3.329   3.611  1.5196  0.0057 -0.5417
 5246TIP3    H237154   1.623   3.460   3.666 -0.6595 -1.0924  0.1444
 5247TIP3   OH237155   3.656   7.012  10.623 -0.3258 -0.0056 -0.1937
 5247TIP3    H137156   3.600   6.997  10.546 -0.2341 -0.8882 -0.0956
 5247TIP3    H237157   3.603   7.068  10.680 -0.3203  0.8258 -0.9737
 5248TIP3   OH237158   2.708   2.811  13.217  0.3023  0.3366 -0.0261
 5248TIP3    H137159   2.688   2.870  13.144  1.1457  0.9535  0.2332
 5248TIP3    H237160   2.718   2.725  13.176  1.7591  0.8474 -0.7919
 5249TIP3   OH237161   5.687   3.222  12.611 -0.2580 -0.0157  0.2306
 5249TIP3    H137162   5.619   3.203  12.675  0.3413  1.9978  1.5900
 5249TIP3    H237163   5.640   3.255  12.534 -0.8986 -0.4103  0.4505
 5250TIP3   OH237164   5.509   0.562  13.025 -0.2205  0.8328  0.2727
 5250TIP3    H137165   5.425   0.597  12.996  0.1525  1.8931  0.4252
 5250TIP3    H237166   5.489   0.516  13.107 -1.1216 -1.4095 -1.1002
 5251TIP3   OH237167   2.546   1.241  14.037 -0.0747  0.4825  0.5958
 5251TIP3    H137168   2.498   1.203  13.963 -1.6398 -0.4540  2.0252
 5251TIP3    H237169   2.629   1.270  13.999 -0.0519 -1.6337 -1.1788
 5252TIP3   OH237170   3.698   5.022  12.583  0.8391  0.2379  0.3571
 5252TIP3    H137171   3.778   4.980  12.552  0.0203 -0.0148 -1.6142
 5252TIP3    H237172   3.630   4.989  12.524 -0.7310  0.4273  1.9781
 5253TIP3   OH237173   0.811   2.865   9.981  0.9957 -0.1535  0.1604
 5253TIP3    H137174   0.770   2.851   9.896 -0.0175  1.1552  0.3933
 5253TIP3    H237175   0.742   2.845  10.044  1.1893  0.5429  0.6129
 5254TIP3   OH237176   6.381   5.839   9.907 -0.2235 -0.2695 -0.0183
 5254TIP3    H137177   6.472   5.811   9.893  0.8291  2.0460  1.5243
 5254TIP3    H237178   6.374   5.851  10.002 -2.7388 -2.0562  0.1230
 5255TIP3   OH237179   1.030   0.131   1.778 -0.8039 -0.1440  0.2569
 5255TIP3    H137180   1.006   0.195   1.845  0.9349  0.4286  0.3876
 5255TIP3    H237181   1.037   0.048   1.826  1.4161  0.4412  1.0525
 5256TIP3   OH237182   6.343   1.803  13.058  0.4064  0.4391 -0.3334
 5256TIP3    H137183   6.425   1.839  13.024  0.5195  0.1618 -0.3609
 5256TIP3    H237184   6.346   1.821  13.152  1.9270 -2.1887  0.2456
 5257TIP3   OH237185   2.804   0.714  13.337  0.1518  0.1180  0.2896
 5257TIP3    H137186   2.887   0.762  13.342 -0.0583  0.4846  0.2587
 5257TIP3    H237187   2.757   0.755  13.264 -0.0381 -0.1193  0.2795
 5258TIP3   OH237188   0.615   4.762  12.332  0.4948  0.3642 -0.4817
 5258TIP3    H137189   0.597   4.769  12.426 -0.1639  0.5985 -0.6215
 5258TIP3    H237190   0.672   4.686  12.324 -1.3190 -1.0991 -0.1379
 5259TIP3   OH237191   2.270   1.188  10.604  0.2564 -0.1892 -0.1554
 5259TIP3    H137192   2.271   1.109  10.658  1.0233  0.4387  0.7853
 5259TIP3    H237193   2.267   1.260  10.667  1.9093  0.5937 -0.8928
 5260TIP3   OH237194   4.553   0.185   2.129 -0.3843  0.5480 -0.1330
 5260TIP3    H137195   4.623   0.132   2.091 -0.2556  0.8473 -0.3177
 5260TIP3    H237196   4.523   0.134   2.204  0.6101  0.8003  0.4597
 5261TIP3   OH237197   6.992   0.123   0.987 -0.0873  0.2466 -0.3876
 5261TIP3    H137198   6.984   0.032   1.015 -1.1731  0.7913  1.2095
 5261TIP3    H237199   7.050   0.120   0.911 -0.5172 -1.8332 -0.6914
 5262TIP3   OH237200   4.244   5.052  11.253 -0.5788 -0.4882  0.2384
 5262TIP3    H137201   4.210   5.140  11.236  1.2085 -0.0718 -1.6923
 5262TIP3    H237202   4.304   5.063  11.327 -1.2371 -0.3251  0.7513
 5263TIP3   OH237203   1.840   4.139   1.135 -0.0708 -0.5247 -0.1699
 5263TIP3    H137204   1.748   4.143   1.160  0.1982  3.2405  0.7424
 5263TIP3    H237205   1.885   4.103   1.212 -0.2516  2.9775  1.7639
 5264TIP3   OH237206   0.646   2.381   0.792 -0.4128 -0.1755  0.2382
 5264TIP3    H137207   0.579   2.330   0.838  1.7718 -2.3238  1.2684
 5264TIP3    H237208   0.728   2.356   0.835  1.5122 -0.4378 -3.2411
 5265TIP3   OH237209   5.149   3.323  12.283  0.7007 -0.2303 -0.0531
 5265TIP3    H137210   5.185   3.412  12.287  0.1156 -0.0285  1.1799
 5265TIP3    H237211   5.080   3.328  12.217 -1.0464  0.9099  1.7652
 5266TIP3   OH237212   2.786   4.744  12.724  0.1040  0.0065 -0.2786
 5266TIP3    H137213   2.827   4.811  12.778  0.5485 -1.1655  0.9213
 5266TIP3    H237214   2.799   4.663  12.774 -2.2252 -0.6654 -0.6407
 5267TIP3   OH237215   3.703   4.555   3.824 -0.3822  0.2906 -0.1871
 5267TIP3    H137216   3.668   4.501   3.753 -0.7980 -0.8905  0.8786
 5267TIP3    H237217   3.657   4.639   3.816  1.3772  1.1089 -2.8096
 5268TIP3   OH237218   6.871   1.378  10.801  0.1367  0.2113  0.3109
 5268TIP3    H137219   6.872   1.336  10.715 -1.5322 -0.0061  0.3639
 5268TIP3    H237220   6.950   1.432  10.803  0.3470 -0.0036 -1.2382
 5269TIP3   OH237221   5.930   4.086  15.450  0.9337  0.1825 -0.7144
 5269TIP3    H137222   5.949   4.179  15.464 -0.7137  0.9538 -3.0050
 5269TIP3    H237223   5.835   4.079  15.461  1.0859 -1.3551 -0.1466
 5270TIP3   OH237224   0.941   5.223  11.310 -0.6376 -0.0344 -0.4168
 5270TIP3    H137225   0.883   5.167  11.362 -0.1760 -1.5328 -1.4367
 5270TIP3    H237226   0.887   5.252  11.237 -0.8842  0.9066  0.1264
 5271TIP3   OH237227   5.656   6.080  11.386  0.0531 -0.1564  0.0456
 5271TIP3    H137228   5.656   6.174  11.404  1.0026  0.1256 -1.2800
 5271TIP3    H237229   5.694   6.040  11.465  1.0662  0.7163  0.0139
 5272TIP3   OH237230   1.462   0.929  11.745  0.2515  0.0630 -0.1144
 5272TIP3    H137231   1.452   0.873  11.668  1.2099 -1.7208  0.9972
 5272TIP3    H237232   1.534   0.988  11.723 -0.3014  0.4133 -1.0317
 5273TIP3   OH237233   5.950   6.562  11.842 -0.7776  0.4240  0.2721
 5273TIP3    H137234   5.932   6.574  11.749  1.0264 -1.1034 -0.3165
 5273TIP3    H237235   6.045   6.568  11.850 -0.9773  2.3168  2.3324
 5274TIP3   OH237236   5.905   6.390  14.831 -0.5776 -0.2847 -0.4796
 5274TIP3    H137237   5.944   6.409  14.916 -2.0302 -3.1282  0.9438
 5274TIP3    H237238   5.913   6.472  14.782  1.5238  1.0390  1.8715
 5275TIP3   OH237239   4.122   2.027  10.999 -0.0890 -0.3415  0.1458
 5275TIP3    H137240   4.194   2.065  10.948 -0.5193  0.3895  0.0674
 5275TIP3    H237241   4.136   1.932  10.993  0.4972 -0.2291 -0.4096
 5276TIP3   OH237242   4.167   6.950  13.536 -0.2041 -0.0836 -0.2897
 5276TIP3    H137243   4.178   7.042  13.512  0.0896 -0.0203  0.0877
 5276TIP3    H237244   4.224   6.902  13.477 -0.5195 -0.0459 -0.6317
 5277TIP3   OH237245   6.049   0.445  14.159 -0.1855 -0.4947 -0.0403
 5277TIP3    H137246   6.018   0.437  14.069 -0.4030 -3.7640  0.2197
 5277TIP3    H237247   6.022   0.533  14.186 -1.1666  0.1257 -2.7478
 5278TIP3   OH237248   5.077   3.694  10.178 -0.1457  0.3740  0.5463
 5278TIP3    H137249   5.039   3.758  10.117  1.7018 -0.1813 -1.3266
 5278TIP3    H237250   5.168   3.721  10.188  0.2471 -1.0172  1.0338
 5279TIP3   OH237251   5.285   5.944  11.048  0.2551 -0.4406  0.3108
 5279TIP3    H137252   5.268   5.862  11.001 -1.1798 -0.0957  0.1895
 5279TIP3    H237253   5.370   5.974  11.014  0.2228 -1.2568 -0.5258
 5280TIP3   OH237254   2.669   3.919  10.579 -0.2305  0.1075 -0.3641
 5280TIP3    H137255   2.746   3.899  10.633 -0.2465  0.8937 -0.0453
 5280TIP3    H237256   2.687   3.877  10.495  0.6532  0.4757 -0.3683
 5281TIP3   OH237257   2.151   1.953  10.699  0.4516 -0.3280  0.1084
 5281TIP3    H137258   2.138   1.884  10.763 -0.6289  0.3253  0.6405
 5281TIP3    H237259   2.245   1.956  10.684  0.5851 -1.3663  0.6708
 5282TIP3   OH237260   0.881   5.045  13.599  0.8413  0.7756  0.2038
 5282TIP3    H137261   0.830   5.091  13.665 -1.1293 -0.5109 -0.3269
 5282TIP3    H237262   0.937   4.985  13.649 -0.8931 -0.4530  0.7796
 5283TIP3   OH237263   5.147   4.293  11.435  0.2040  0.3503 -0.2312
 5283TIP3    H137264   5.062   4.285  11.479  0.4714 -0.7017  0.1179
 5283TIP3    H237265   5.141   4.234  11.360  1.3069 -1.2859  0.9127
 5284TIP3   OH237266   6.697   5.394  15.265 -0.1677 -0.3018 -0.1353
 5284TIP3    H137267   6.706   5.443  15.184  1.2007 -1.4120 -0.6924
 5284TIP3    H237268   6.604   5.371  15.269 -0.8598  2.2190  0.1279
 5285TIP3   OH237269   1.907   0.175  14.591 -0.7856 -0.0701  0.0431
 5285TIP3    H137270   1.901   0.270  14.600 -1.9436 -0.1281  0.0841
 5285TIP3    H237271   1.998   0.154  14.611 -0.0551  1.1974 -1.7285
 5286TIP3   OH237272   3.865   1.546  14.672  0.1780 -0.3823 -0.5287
 5286TIP3    H137273   3.942   1.601  14.658  0.2210 -0.7892 -2.0521
 5286TIP3    H237274   3.809   1.598  14.730  0.9880  0.5048 -0.5166
 5287TIP3   OH237275   4.185   1.651  12.591 -0.6736 -0.4404  0.3252
 5287TIP3    H137276   4.232   1.572  12.619  0.1445 -0.7796 -1.8516
 5287TIP3    H237277   4.210   1.717  12.655  3.7255 -0.3134 -1.1864
 5288TIP3   OH237278   3.354   6.354  12.588  0.3937 -0.0808 -0.0205
 5288TIP3    H137279   3.353   6.277  12.532  2.3776  0.9006 -1.5717
 5288TIP3    H237280   3.270   6.353  12.633  0.2477 -2.9516 -0.1991
 5289TIP3   OH237281   0.018   4.942  10.386 -0.2128  0.5971  0.1355
 5289TIP3    H137282  -0.006   5.018  10.333 -0.7437  0.2672 -0.1042
 5289TIP3    H237283   0.114   4.943  10.388 -0.1748  0.4925 -1.0149
 5290TIP3   OH237284   0.459   2.139  12.546 -0.0070 -0.0882  0.0250
 5290TIP3    H137285   0.533   2.080  12.559 -0.1409 -0.2282  0.1576
 5290TIP3    H237286   0.392   2.108  12.608 -0.4258 -0.3705 -0.5569
 5291TIP3   OH237287   5.358   3.014   1.475 -0.1837 -0.0061  0.2678
 5291TIP3    H137288   5.368   2.964   1.556  0.2292 -1.3946 -0.6031
 5291TIP3    H237289   5.429   2.983   1.418 -0.9195  0.3710 -0.8976
 5292TIP3   OH237290   6.029   1.806  11.954 -0.0109 -0.3808 -0.2067
 5292TIP3    H137291   6.118   1.820  11.985  0.4006 -1.2219 -0.9449
 5292TIP3    H237292   6.033   1.827  11.860 -0.0694 -2.3683 -0.6998
 5293TIP3   OH237293   4.099   0.129   9.798 -0.2565 -0.0776  0.5019
 5293TIP3    H137294   4.121   0.217   9.765 -0.4559 -0.0593  0.4211
 5293TIP3    H237295   4.034   0.096   9.737 -2.3025  0.8203  2.0735
 5294TIP3   OH237296   6.590   2.316  11.041 -0.6599 -0.5347 -0.1698
 5294TIP3    H137297   6.585   2.380  11.112 -0.5320 -0.4529 -0.2352
 5294TIP3    H237298   6.627   2.238  11.081 -1.8233 -0.9347  0.1750
 5295TIP3   OH237299   2.635   2.633  14.519  0.1225  0.0179 -0.2283
 5295TIP3    H137300   2.647   2.726  14.498 -0.1219 -0.0334 -0.6153
 5295TIP3    H237301   2.568   2.603  14.457 -1.7348  0.2070  1.5642
 5296TIP3   OH237302   2.347   0.034  11.529 -0.1593  0.0862  0.1192
 5296TIP3    H137303   2.442   0.036  11.528 -0.1545 -0.1567  0.0131
 5296TIP3    H237304   2.323   0.051  11.620 -0.0024 -0.3491  0.2405
 5297TIP3   OH237305   3.266   2.918   9.654 -0.2117  0.3726  0.5623
 5297TIP3    H137306   3.209   2.858   9.702 -1.4756  0.1139 -1.1842
 5297TIP3    H237307   3.206   2.969   9.600  1.1272  0.9198 -0.4418
 5298TIP3   OH237308   5.082   5.172  10.649  0.5152  0.4267 -0.2325
 5298TIP3    H137309   5.129   5.132  10.723  0.1263 -0.6215 -0.5313
 5298TIP3    H237310   4.997   5.196  10.685 -0.0897 -1.0822 -0.5645
 5299TIP3   OH237311   0.600   3.346  13.986  0.4619 -0.6490 -0.1019
 5299TIP3    H137312   0.684   3.390  13.970  0.9463 -0.5242  2.3592
 5299TIP3    H237313   0.607   3.262  13.941  1.9263 -0.6376  0.0671
 5300TIP3   OH237314   3.213   5.228   4.617  0.5443 -0.3991 -0.5762
 5300TIP3    H137315   3.247   5.292   4.680 -0.1463 -0.6091  0.0131
 5300TIP3    H237316   3.291   5.183   4.585  0.8393 -1.0375  0.9397
 5301TIP3   OH237317   0.542   1.720  12.027 -0.2983  0.2040  0.3545
 5301TIP3    H137318   0.460   1.761  12.054 -0.4607 -0.2976  0.6342
 5301TIP3    H237319   0.609   1.761  12.082  0.0459  2.5393 -1.6530
 5302TIP3   OH237320   2.506   1.699  10.079  0.0579  0.0126 -0.4581
 5302TIP3    H137321   2.521   1.762  10.009  1.0590 -0.0616 -0.3215
 5302TIP3    H237322   2.592   1.664  10.099 -0.3283 -0.5606  0.2614
 5303TIP3   OH237323   2.182   0.041   1.233 -0.2354  0.1041  0.1146
 5303TIP3    H137324   2.277   0.050   1.221 -0.1003  0.7410  1.4947
 5303TIP3    H237325   2.159   0.110   1.295 -1.6860  0.2106 -0.5111
 5304TIP3   OH237326   0.759   5.139  14.809  0.1014 -0.3324  0.1070
 5304TIP3    H137327   0.670   5.175  14.809  0.5092  0.8447  2.1914
 5304TIP3    H237328   0.809   5.196  14.752  0.1744  0.9554  1.4050
 5305TIP3   OH237329   1.299   4.220  13.201  0.1468 -0.2778 -0.1602
 5305TIP3    H137330   1.358   4.156  13.161 -0.0266  0.7476 -2.1577
 5305TIP3    H237331   1.356   4.293  13.226 -0.1963  0.7242 -2.1135
 5306TIP3   OH237332   5.771   3.010  14.054 -0.4057  0.7922  0.4794
 5306TIP3    H137333   5.726   2.981  14.134  0.8717 -0.5178  0.7651
 5306TIP3    H237334   5.754   2.941  13.990  1.4865  0.0442  0.7200
 5307TIP3   OH237335   5.030   1.411   9.751 -0.4200 -0.3564 -0.5133
 5307TIP3    H137336   5.111   1.361   9.767 -0.1983  0.2573  0.3615
 5307TIP3    H237337   5.054   1.475   9.684  0.6067  1.5442  1.5337
 5308TIP3   OH237338   3.583   3.650  13.793 -0.4834  0.2014  0.4372
 5308TIP3    H137339   3.647   3.677  13.728 -1.0368  1.8211  0.5230
 5308TIP3    H237340   3.549   3.567  13.760  1.7937 -0.8293  0.5154
 5309TIP3   OH237341   2.402   4.335   4.698 -0.1456  0.0182 -0.1855
 5309TIP3    H137342   2.332   4.294   4.647 -0.9680  0.7307  0.3227
 5309TIP3    H237343   2.483   4.311   4.653 -0.7923 -0.0139 -1.3663
 5310TIP3   OH237344   5.573   0.648  12.378  0.9701  0.2129  0.2138
 5310TIP3    H137345   5.615   0.676  12.297 -1.3522  4.6654  0.2423
 5310TIP3    H237346   5.506   0.585  12.350 -0.0777  2.0010 -1.5137
 5311TIP3   OH237347   4.612   0.751  13.795 -0.1078  0.3245 -0.1204
 5311TIP3    H137348   4.588   0.662  13.819 -0.5231  0.2346 -0.8703
 5311TIP3    H237349   4.557   0.806  13.851 -0.5037  0.1131 -0.3001
 5312TIP3   OH237350   5.452   1.247  13.927  0.4055  0.4599  0.2261
 5312TIP3    H137351   5.459   1.270  14.020  0.1711  0.5812  0.2137
 5312TIP3    H237352   5.439   1.153  13.926 -0.6207  0.5947  0.3606
 5313TIP3   OH237353   2.632   0.458   3.121 -0.1521  0.0324  0.0456
 5313TIP3    H137354   2.713   0.508   3.134  1.2704 -1.2092 -3.1216
 5313TIP3    H237355   2.592   0.496   3.043  0.5648 -3.0362 -1.9894
 5314TIP3   OH237356   3.286   2.867  12.344 -0.0975  0.1043  0.1090
 5314TIP3    H137357   3.369   2.825  12.368  1.0952  2.0183 -0.4505
 5314TIP3    H237358   3.306   2.960  12.345 -2.3713  0.6269  0.2951
 5315TIP3   OH237359   4.015   1.571   2.218 -0.7569  0.2510  0.3061
 5315TIP3    H137360   4.090   1.514   2.233 -1.5978 -0.9464  0.0936
 5315TIP3    H237361   4.017   1.590   2.124 -0.8929 -0.0357  0.2446
 5316TIP3   OH237362   6.079   5.409  13.659  0.3688 -0.0999 -0.1932
 5316TIP3    H137363   5.985   5.390  13.661 -0.2132  2.3556 -0.4536
 5316TIP3    H237364   6.100   5.414  13.566  0.6115 -0.0524 -0.1364
 5317TIP3   OH237365   4.275   6.184  10.193  0.6029  0.4022  0.2231
 5317TIP3    H137366   4.229   6.107  10.159  0.6782  0.6553 -0.4801
 5317TIP3    H237367   4.334   6.149  10.259  0.9314 -0.1997 -0.3759
 5318TIP3   OH237368   1.765   0.414  15.493  0.5316 -0.4954  0.3223
 5318TIP3    H137369   1.836   0.476  15.482  0.9047 -1.2106 -1.7209
 5318TIP3    H237370   1.763   0.365  15.411 -0.4781 -2.4182  1.4313
 5319TIP3   OH237371   6.533   5.057   4.985 -0.1281  0.9204 -0.4635
 5319TIP3    H137372   6.495   5.010   5.059 -0.6946  2.2326  0.1041
 5319TIP3    H237373   6.584   4.990   4.939  0.3755  0.0916  1.1847
 5320TIP3   OH237374   3.514   2.103   1.282 -0.2606  0.4915 -0.0903
 5320TIP3    H137375   3.579   2.076   1.347 -0.8106 -2.4414 -0.6098
 5320TIP3    H237376   3.430   2.091   1.326 -0.5580  1.0959 -0.4824
 5321TIP3   OH237377   5.989   5.841  12.271  0.3970 -0.1235  0.1698
 5321TIP3    H137378   6.064   5.897  12.293 -1.8725  3.0360  0.5964
 5321TIP3    H237379   5.958   5.808  12.355  0.5459 -0.3913  0.1216
 5322TIP3   OH237380   1.628   0.665  13.140 -0.1558 -0.6777  0.5371
 5322TIP3    H137381   1.669   0.733  13.087 -2.7685  0.2569 -0.4137
 5322TIP3    H237382   1.698   0.602  13.156  1.9343  1.4005  0.0757
 5323TIP3   OH237383   6.250   0.852  12.265 -0.0320  0.4201  0.9812
 5323TIP3    H137384   6.245   0.829  12.358 -0.1845 -1.3551  0.5726
 5323TIP3    H237385   6.340   0.832  12.240 -0.2160  0.1207  0.5592
 5324TIP3   OH237386   3.180   0.070   5.214  0.3546 -0.6598  0.0725
 5324TIP3    H137387   3.203   0.127   5.287  0.5039 -1.4543  0.6598
 5324TIP3    H237388   3.088   0.090   5.195  0.9172  1.0995 -0.9675
 5325TIP3   OH237389   5.751   5.125  14.180 -0.3309  0.3332  0.2383
 5325TIP3    H137390   5.814   5.172  14.234 -1.8838  2.1541  0.5886
 5325TIP3    H237391   5.700   5.073  14.242  1.0479 -1.5343 -0.0946
 5326TIP3   OH237392   0.256   3.050  11.033 -0.1713  0.1813 -0.0253
 5326TIP3    H137393   0.310   2.993  11.088 -0.4832 -0.7767 -0.6860
 5326TIP3    H237394   0.214   3.110  11.095  2.2247  1.5097  0.4512
 5327TIP3   OH237395   4.450   6.239  11.552 -0.0345  0.1392  0.1563
 5327TIP3    H137396   4.468   6.238  11.458  0.4136 -0.7592  0.2462
 5327TIP3    H237397   4.402   6.321  11.566  0.7267  0.7496 -0.6955
 5328TIP3   OH237398   2.536   5.791  12.128  0.9770 -0.2141 -0.0958
 5328TIP3    H137399   2.551   5.884  12.116 -1.9108  0.1914 -1.2020
 5328TIP3    H237400   2.493   5.784  12.213  1.4494 -0.5982  0.1212
 5329TIP3   OH237401   5.409   3.541  13.709 -0.2962  0.1207 -0.1377
 5329TIP3    H137402   5.406   3.469  13.646 -0.0666 -0.8268  0.8999
 5329TIP3    H237403   5.353   3.513  13.781  1.5281 -0.0553  1.2943
 5330TIP3   OH237404   6.036   5.747   0.953 -0.4336 -0.1687 -0.2106
 5330TIP3    H137405   5.943   5.765   0.938 -0.3518  1.1608  0.6600
 5330TIP3    H237406   6.080   5.829   0.931  0.3059 -0.1260  1.3002
 5331TIP3   OH237407   4.350   2.724  11.585  0.2055 -0.3516  0.2239
 5331TIP3    H137408   4.384   2.814  11.584  0.6036 -0.5018 -0.0529
 5331TIP3    H237409   4.392   2.684  11.661 -0.7239 -0.0240  0.9223
 5332TIP3   OH237410   5.422   3.394  12.045 -0.1318  0.1519 -0.1265
 5332TIP3    H137411   5.346   3.352  12.005 -1.5197  0.5661  1.9328
 5332TIP3    H237412   5.393   3.483  12.063  1.5887  0.9723 -1.2081
 5333TIP3   OH237413   1.774   1.560  12.117  0.1176 -0.3047 -0.0387
 5333TIP3    H137414   1.805   1.471  12.135  0.0814 -0.4032 -0.4512
 5333TIP3    H237415   1.766   1.600  12.203  1.0833 -0.3786  0.0938
 5334TIP3   OH237416   5.751   3.404  13.270  0.3592 -1.0727  0.4573
 5334TIP3    H137417   5.755   3.315  13.305  2.8035 -1.3735 -0.4218
 5334TIP3    H237418   5.692   3.398  13.195 -0.8633 -1.5286  1.4145
 5335TIP3   OH237419   0.910   6.834   4.408  0.0290  0.4478  0.5198
 5335TIP3    H137420   0.840   6.770   4.393  0.0021  0.4557  0.6073
 5335TIP3    H237421   0.960   6.797   4.480  0.1774  0.3915  0.3869
 5336TIP3   OH237422   0.000   1.962  10.780 -0.9925 -0.0878 -0.2168
 5336TIP3    H137423   0.061   2.018  10.732 -0.1666 -0.1974  0.6768
 5336TIP3    H237424  -0.082   1.969  10.731 -0.7799  1.5104 -0.4053
 5337TIP3   OH237425   0.947   0.254  13.446 -0.5626  0.4216  0.1335
 5337TIP3    H137426   0.956   0.242  13.540 -0.3805  0.0810  0.0760
 5337TIP3    H237427   0.853   0.241  13.429 -0.3790 -1.0246  0.0780
 5338TIP3   OH237428   5.049   4.542  13.937 -0.3809  0.1121 -0.2863
 5338TIP3    H137429   4.968   4.549  13.988  0.5353 -2.4278  1.7413
 5338TIP3    H237430   5.078   4.452  13.951  2.4462  0.7408 -1.4852
 5339TIP3   OH237431   6.665   1.071  11.275  0.3795  0.2269  0.1561
 5339TIP3    H137432   6.744   1.028  11.307  1.9442  2.3981 -0.5389
 5339TIP3    H237433   6.677   1.076  11.181 -1.1627 -0.4142 -0.0954
 5340TIP3   OH237434   3.454   6.366  12.993 -0.0171 -0.1936  0.0993
 5340TIP3    H137435   3.491   6.411  12.916  0.3084  1.0768  0.9707
 5340TIP3    H237436   3.498   6.407  13.067 -1.9718  0.2105  1.0957
 5341TIP3   OH237437   2.930   4.272  15.562  0.1225  0.2016 -0.4269
 5341TIP3    H137438   2.910   4.270  15.468  0.5603  0.8932 -0.5455
 5341TIP3    H237439   2.979   4.191  15.577  0.5799  0.3786 -0.9263
 5342TIP3   OH237440   1.792   5.182  12.625  0.5131  0.3759  0.5469
 5342TIP3    H137441   1.834   5.253  12.672 -0.9339  1.2398  0.6079
 5342TIP3    H237442   1.762   5.122  12.693 -0.2398  0.8576  0.6498
 5343TIP3   OH237443   4.211   3.796   9.449  0.4662 -0.1790  0.6090
 5343TIP3    H137444   4.173   3.819   9.534 -0.6149  0.5276 -0.0414
 5343TIP3    H237445   4.275   3.865   9.432  0.2885 -0.0146  0.6043
 5344TIP3   OH237446   3.633   4.702  10.420 -0.4787  0.2468 -0.5180
 5344TIP3    H137447   3.603   4.673  10.506  1.5516  0.5039  0.3352
 5344TIP3    H237448   3.597   4.638  10.359  0.2516 -1.5313  0.8370
 5345TIP3   OH237449   5.491   3.337   9.341  0.1319 -0.1603 -0.0074
 5345TIP3    H137450   5.412   3.294   9.310 -0.0767  0.8708 -0.9708
 5345TIP3    H237451   5.563   3.280   9.314 -0.0279  0.7371 -2.5894
 5346TIP3   OH237452   6.244   1.997  10.752 -0.1230 -0.0426  0.1446
 5346TIP3    H137453   6.223   2.083  10.789  0.0920 -0.5649  1.5367
 5346TIP3    H237454   6.316   2.013  10.692 -1.1624  0.9954 -0.8950
 5347TIP3   OH237455   2.433   0.794  13.713 -0.2539 -0.1165  0.7061
 5347TIP3    H137456   2.345   0.812  13.681 -0.2044 -0.6538  0.2455
 5347TIP3    H237457   2.480   0.876  13.702 -0.6869  0.1638  0.9246
 5348TIP3   OH237458   3.570   0.680   0.650 -0.1857 -0.8421 -0.6155
 5348TIP3    H137459   3.590   0.676   0.744  0.7209  1.4629 -0.6307
 5348TIP3    H237460   3.524   0.599   0.632  0.5740 -1.8604  1.5939
 5349TIP3   OH237461   4.331   6.323  12.777  0.0925  0.0945  0.0648
 5349TIP3    H137462   4.404   6.382  12.796 -0.7631  0.9997  0.6448
 5349TIP3    H237463   4.300   6.351  12.691  1.1887 -1.1122 -0.7548
 5350TIP3   OH237464   4.962   2.788  10.571  0.0394 -0.0277  0.4622
 5350TIP3    H137465   5.036   2.728  10.580 -0.2064 -0.1620  1.7314
 5350TIP3    H237466   4.928   2.770  10.483  0.2949 -1.3792  0.6128
 5351TIP3   OH237467   5.816   0.849   1.976  0.6838 -0.0449  0.3683
 5351TIP3    H137468   5.802   0.825   1.885  0.7156  1.0822  0.0557
 5351TIP3    H237469   5.910   0.836   1.991  0.7260  0.0389  0.1657
 5352TIP3   OH237470   7.099   3.293  10.364 -0.2691 -0.0958 -0.4481
 5352TIP3    H137471   7.019   3.248  10.337 -0.3334  0.7858 -1.8627
 5352TIP3    H237472   7.141   3.233  10.426 -2.6099 -0.0372  1.3053
 5353TIP3   OH237473   0.530   6.142   2.028  0.3090  0.3371 -0.1100
 5353TIP3    H137474   0.527   6.073   2.093 -0.7041 -2.6053 -3.0086
 5353TIP3    H237475   0.439   6.153   2.000  0.7284  1.3423 -1.1715
 5354TIP3   OH237476   2.012   3.476  11.386 -0.4238  0.0627  0.1786
 5354TIP3    H137477   2.049   3.471  11.474  2.2684  0.1319 -0.8482
 5354TIP3    H237478   2.043   3.396  11.343 -1.5564  0.1111 -0.7954
 5355TIP3   OH237479   0.706   6.626   4.375 -0.0264  0.0890 -0.2095
 5355TIP3    H137480   0.621   6.592   4.401  0.5813 -0.8587  0.6247
 5355TIP3    H237481   0.706   6.623   4.280 -1.0436  0.4172 -0.2283
 5356TIP3   OH237482   0.546   5.151  11.084  0.6485 -0.6371  0.7985
 5356TIP3    H137483   0.554   5.056  11.093  0.7870 -0.5961  1.1498
 5356TIP3    H237484   0.452   5.167  11.077  0.6222 -0.7972  0.7820
 5357TIP3   OH237485   6.194   6.881  14.025 -0.3517 -0.4167  0.2294
 5357TIP3    H137486   6.242   6.927  13.955 -0.7693 -0.0703  0.1675
 5357TIP3    H237487   6.257   6.875  14.096  0.3956 -1.6043 -0.4915
 5358TIP3   OH237488   6.618   1.707   9.265  0.6742  0.2638  0.2495
 5358TIP3    H137489   6.685   1.647   9.298  0.7786  0.2617  0.0386
 5358TIP3    H237490   6.549   1.705   9.331  1.1629  0.7571  0.7868
 5359TIP3   OH237491   1.943   6.183   1.508  0.0697 -0.5643 -0.2618
 5359TIP3    H137492   1.889   6.126   1.562 -0.3281 -0.9479 -1.0491
 5359TIP3    H237493   2.019   6.130   1.485 -0.5409 -0.9672 -1.4093
 5360TIP3   OH237494   1.488   1.433  11.507 -0.1030 -0.2245 -0.1582
 5360TIP3    H137495   1.427   1.358  11.504  0.5225 -0.9042  1.9285
 5360TIP3    H237496   1.441   1.499  11.559  1.1600 -1.0876  2.2455
 5361TIP3   OH237497   6.615   3.287   9.632  0.1014  0.2939 -0.2223
 5361TIP3    H137498   6.534   3.325   9.667 -0.5313  0.4718 -1.7876
 5361TIP3    H237499   6.587   3.243   9.552  1.7164  1.1566 -1.2965
 5362TIP3   OH237500   5.371   3.589  15.436  0.1995  0.0568  0.0362
 5362TIP3    H137501   5.447   3.576  15.492 -0.5390  0.8358  1.2914
 5362TIP3    H237502   5.406   3.620  15.353  1.3199 -0.9213  0.1248
 5363TIP3   OH237503   1.003   5.728  12.460  0.0266  0.3687 -0.3755
 5363TIP3    H137504   1.018   5.811  12.504  0.2954  0.8046 -1.2619
 5363TIP3    H237505   0.944   5.680  12.518 -0.9016  1.5561 -0.3030
 5364TIP3   OH237506   5.165   6.284   3.762 -0.1215 -0.3337 -0.4014
 5364TIP3    H137507   5.246   6.286   3.813  0.3052 -0.2921 -1.0655
 5364TIP3    H237508   5.132   6.195   3.773 -0.8202  0.0659  1.1154
 5365TIP3   OH237509   6.245   3.757   1.000 -1.1255  0.2127  0.2685
 5365TIP3    H137510   6.235   3.689   1.067 -0.1813 -0.4675 -0.2562
 5365TIP3    H237511   6.159   3.799   0.997 -0.9799  0.8025  2.4427
 5366TIP3   OH237512   5.095   1.223  13.022  0.1823 -0.0605  0.4684
 5366TIP3    H137513   5.039   1.300  13.026  0.2766 -0.0133  0.9471
 5366TIP3    H237514   5.046   1.155  13.067  0.3193 -0.1359  0.5054
 5367TIP3   OH237515   7.098   4.497   6.124 -0.2876  0.1757 -0.2719
 5367TIP3    H137516   7.142   4.581   6.133 -2.3435  1.3864 -0.8541
 5367TIP3    H237517   7.158   4.443   6.073  1.4968  0.9086  0.9521
 5368TIP3   OH237518   6.684   2.015   9.518  0.5308 -0.0685  0.2475
 5368TIP3    H137519   6.591   1.991   9.519  0.9673 -2.0718 -1.0448
 5368TIP3    H237520   6.718   1.982   9.601  0.3984 -0.8688 -0.0054
 5369TIP3   OH237521   6.958   0.657  12.230  0.5887  0.1327 -0.1582
 5369TIP3    H137522   6.885   0.611  12.189  2.3790  0.3218 -4.0265
 5369TIP3    H237523   6.941   0.749  12.212  1.5003  0.2043 -0.7370
 5370TIP3   OH237524   0.765   2.032   5.613 -0.3127 -0.2933  0.4552
 5370TIP3    H137525   0.765   1.996   5.702  0.0252 -3.5006 -0.7112
 5370TIP3    H237526   0.686   1.996   5.572 -0.8317  1.6813 -0.3949
 5371TIP3   OH237527   5.127   5.322   3.666  0.4005 -0.3093 -0.0637
 5371TIP3    H137528   5.115   5.372   3.585  2.5484 -0.3971 -0.5061
 5371TIP3    H237529   5.121   5.231   3.639  2.0167 -0.3671 -0.3650
 5372TIP3   OH237530   6.388   1.609  14.285 -0.3306  0.1210  0.2688
 5372TIP3    H137531   6.333   1.591  14.361 -1.6156  0.4252 -0.5442
 5372TIP3    H237532   6.345   1.562  14.213 -0.0005  1.0284 -0.5494
 5373TIP3   OH237533   4.062   4.319   0.683 -0.2612  0.4455  0.4013
 5373TIP3    H137534   4.118   4.343   0.757  2.7402 -1.0381 -1.2393
 5373TIP3    H237535   4.020   4.237   0.710  2.4206 -1.2167 -0.1895
 5374TIP3   OH237536   0.375   2.804  11.562 -0.1514  0.6905  0.2295
 5374TIP3    H137537   0.290   2.762  11.579  0.0013 -0.1658 -0.9674
 5374TIP3    H237538   0.365   2.844  11.475  0.3563  1.4501  0.5140
 5375TIP3   OH237539   6.991   5.585  14.458  0.5193  0.3763  0.1773
 5375TIP3    H137540   6.996   5.554  14.549 -0.6602  1.6060  0.7092
 5375TIP3    H237541   7.062   5.648  14.450 -0.1470  1.2284  0.6909
 5376TIP3   OH237542   3.576   6.917   9.731 -1.1084 -0.0571  0.0213
 5376TIP3    H137543   3.489   6.901   9.766 -0.8385 -1.6376  0.0600
 5376TIP3    H237544   3.611   6.830   9.713  0.1182  0.5805 -0.8504
 5377TIP3   OH237545   5.129   0.309  11.694 -0.1312  0.3537  0.3355
 5377TIP3    H137546   5.184   0.257  11.636  0.4096  1.2323  0.0373
 5377TIP3    H237547   5.086   0.373  11.637  3.4351  3.9150  1.1744
 5378TIP3   OH237548   1.075   1.315  14.618  0.1822 -0.2002  0.7225
 5378TIP3    H137549   1.111   1.239  14.574  0.2153 -0.7714  1.6992
 5378TIP3    H237550   1.076   1.384  14.552 -0.5036 -1.2199 -0.4041
 5379TIP3   OH237551   1.463   0.119   3.513 -0.6325  0.2779  0.3521
 5379TIP3    H137552   1.505   0.045   3.558  0.5202  0.7659  0.0879
 5379TIP3    H237553   1.394   0.146   3.574 -1.1351 -1.0602  0.4200
 5380TIP3   OH237554   1.019   5.113  14.006 -0.1139 -0.4544 -0.7230
 5380TIP3    H137555   1.106   5.103  13.969  0.7055  0.0033  0.9851
 5380TIP3    H237556   1.019   5.058  14.083 -1.1247  0.0304 -0.3559
 5381TIP3   OH237557   5.100   3.504  10.461  0.2236 -0.5232 -0.5482
 5381TIP3    H137558   5.141   3.440  10.519  0.4222 -1.0103 -1.2206
 5381TIP3    H237559   5.006   3.495  10.477  0.0869 -2.4050 -2.0497
 5382TIP3   OH237560   1.815   6.308   9.650 -0.0503  0.0873  0.4044
 5382TIP3    H137561   1.891   6.266   9.610 -0.4641  0.1504 -0.4962
 5382TIP3    H237562   1.835   6.401   9.648 -0.3972  0.1594 -0.4289
 5383TIP3   OH237563   1.821   2.039  10.071  0.3174  0.5961 -0.1887
 5383TIP3    H137564   1.815   1.976  10.143  1.2874 -1.6270 -1.9620
 5383TIP3    H237565   1.874   1.995  10.005 -4.1337  0.6031 -4.2340
 5384TIP3   OH237566   0.840   0.371  11.850 -0.2410 -0.0683 -0.1636
 5384TIP3    H137567   0.853   0.459  11.886 -1.1913 -0.9929  2.7450
 5384TIP3    H237568   0.905   0.317  11.896 -1.7632 -1.4011  0.5272
 5385TIP3   OH237569   2.002   5.151  11.947 -0.3689  0.8347 -0.3527
 5385TIP3    H137570   2.014   5.184  12.036  0.5445 -1.4833  0.4705
 5385TIP3    H237571   1.907   5.140  11.938 -0.4606  0.9113  0.4296
 5386TIP3   OH237572   4.668   4.886  10.754 -0.0454  0.5478 -0.2895
 5386TIP3    H137573   4.653   4.950  10.824 -0.9888 -0.5407  0.5539
 5386TIP3    H237574   4.627   4.925  10.677 -0.4372  1.0503  0.1626
 5387TIP3   OH237575   4.451   1.459  10.746 -0.0859  0.0216 -0.1688
 5387TIP3    H137576   4.515   1.509  10.797  0.2599 -0.3448 -0.2304
 5387TIP3    H237577   4.374   1.453  10.802  0.8908 -1.9042  1.0937
 5388TIP3   OH237578   3.082   6.340  10.104 -0.4577 -0.1025 -0.0329
 5388TIP3    H137579   3.039   6.316  10.022 -1.7756  0.2365  0.5480
 5388TIP3    H237580   3.147   6.406  10.078 -0.0256 -0.8805 -0.9659
 5389TIP3   OH237581   2.245   3.841  11.459 -0.0273  0.1224  0.0320
 5389TIP3    H137582   2.238   3.913  11.396 -1.8770 -0.6155 -0.6927
 5389TIP3    H237583   2.154   3.813  11.473  0.6550 -2.3399 -0.0690
 5390TIP3   OH237584   5.664   5.235  10.543 -0.6603 -0.2034  0.2244
 5390TIP3    H137585   5.614   5.191  10.475 -0.5128  0.2646 -0.1945
 5390TIP3    H237586   5.755   5.226  10.516 -0.5867 -0.1751  0.4586
 5391TIP3   OH237587   6.838   3.985  10.281 -0.4997  0.0304  0.2094
 5391TIP3    H137588   6.758   3.979  10.333 -0.1827  2.1637  1.0298
 5391TIP3    H237589   6.807   4.002  10.192 -0.9727 -0.8601  0.1895
 5392TIP3   OH237590   0.805   0.759   5.013  0.0975  0.1491 -0.3837
 5392TIP3    H137591   0.807   0.713   5.097 -0.9419  0.1362 -0.3468
 5392TIP3    H237592   0.865   0.710   4.957  1.5534  0.7230  0.6102
 5393TIP3   OH237593   5.453   1.464  11.894 -0.5515  0.3120 -0.0465
 5393TIP3    H137594   5.426   1.551  11.926 -3.2359  0.3390 -2.0198
 5393TIP3    H237595   5.372   1.414  11.891  0.6860 -1.7656 -0.5704
 5394TIP3   OH237596   4.443   3.360   3.018 -0.3609  0.0562 -0.0792
 5394TIP3    H137597   4.421   3.407   3.098 -0.4965  0.4715 -0.3531
 5394TIP3    H237598   4.456   3.269   3.045  1.7266  0.5486  0.7956
 5395TIP3   OH237599   6.299   3.048  14.909  0.2815 -0.1394  0.3785
 5395TIP3    H137600   6.364   2.988  14.943 -1.6896 -2.5888  0.0958
 5395TIP3    H237601   6.219   3.028  14.959 -0.3334  2.7757  0.7805
 5396TIP3   OH237602   4.000   0.219  15.627 -0.1902  0.2879 -0.7291
 5396TIP3    H137603   4.032   0.301  15.591  0.8846  0.5820  0.8294
 5396TIP3    H237604   3.919   0.242  15.672  0.2269  0.5395 -0.1040
 5397TIP3   OH237605   5.977   5.136  11.570 -0.2108 -0.0982 -0.7195
 5397TIP3    H137606   5.943   5.047  11.579  0.8815 -0.6467 -1.7194
 5397TIP3    H237607   5.911   5.181  11.517 -0.3906 -0.5423 -0.8825
 5398TIP3   OH237608   7.124   6.835  10.355  0.3395 -0.0682  0.7437
 5398TIP3    H137609   7.209   6.877  10.343  0.3443 -0.0399  0.8816
 5398TIP3    H237610   7.144   6.742  10.367  0.3751 -0.0080  1.1490
 5399TIP3   OH237611   6.477   5.979  13.358  0.0712  0.5297  0.7275
 5399TIP3    H137612   6.474   6.065  13.400  0.8973  1.7210 -1.4473
 5399TIP3    H237613   6.569   5.953  13.364 -0.4464 -1.0688  2.8481
 5400TIP3   OH237614   4.397   5.120  12.994 -0.4709  0.1963 -0.3129
 5400TIP3    H137615   4.423   5.212  12.987  0.0240  0.0437 -0.6032
 5400TIP3    H237616   4.475   5.076  13.027 -0.9365 -0.0172  0.5307
 5401TIP3   OH237617   5.608   3.708  10.810 -0.0539 -0.3175 -0.4911
 5401TIP3    H137618   5.633   3.618  10.831  0.2251 -0.7738 -2.5555
 5401TIP3    H237619   5.544   3.699  10.738 -0.4194  1.1098 -0.3750
 5402TIP3   OH237620   0.004   3.091   3.871 -0.6141  0.1655  0.1978
 5402TIP3    H137621  -0.001   3.186   3.857  1.2514  0.3850  0.7532
 5402TIP3    H237622   0.046   3.058   3.792  0.1135  0.0046  0.6481
 5403TIP3   OH237623   1.691   5.221   9.926  0.3393  0.4883 -0.0997
 5403TIP3    H137624   1.665   5.165   9.999  0.2353 -0.9571 -1.2072
 5403TIP3    H237625   1.760   5.172   9.881  2.8219  2.8037  0.8875
 5404TIP3   OH237626   6.736   0.286  10.370  0.1930 -0.3185 -0.0302
 5404TIP3    H137627   6.821   0.317  10.401  0.6010 -0.0668 -1.3270
 5404TIP3    H237628   6.757   0.224  10.300 -0.6703 -1.7231  0.9243
 5405TIP3   OH237629   2.216   5.598   5.925  0.0397 -0.4576  0.5648
 5405TIP3    H137630   2.189   5.649   5.849 -1.4178 -0.1950  1.2323
 5405TIP3    H237631   2.140   5.543   5.946 -0.6103  1.3107  3.3392
 5406TIP3   OH237632   4.289   6.686  13.542  0.1966  0.4865  0.2509
 5406TIP3    H137633   4.222   6.621  13.523 -1.6003  2.3175 -0.1352
 5406TIP3    H237634   4.310   6.725  13.458  0.1769  1.3419  0.6260
 5407TIP3   OH237635   0.874   0.039  10.718  0.2440  0.0154  0.2200
 5407TIP3    H137636   0.828  -0.044  10.734 -2.0354  0.7386 -1.9642
 5407TIP3    H237637   0.955   0.032  10.769  0.4027 -3.7583 -0.3139
 5408TIP3   OH237638   2.066   2.075   5.977 -0.4169  0.3466 -0.3703
 5408TIP3    H137639   2.025   2.158   6.002 -1.2714  0.6678 -2.5842
 5408TIP3    H237640   2.000   2.009   5.998 -0.5094  0.4510 -0.3275
 5409TIP3   OH237641   5.146   4.085  12.697  0.6045 -0.3349 -0.1812
 5409TIP3    H137642   5.213   4.150  12.677 -0.5346  1.2236  0.7751
 5409TIP3    H237643   5.083   4.132  12.752 -0.2779 -2.2750  0.5592
 5410TIP3   OH237644   3.657   2.835  13.294 -0.6463 -0.5556  0.1663
 5410TIP3    H137645   3.571   2.799  13.318 -1.3501  0.3666 -0.9086
 5410TIP3    H237646   3.637   2.911  13.240  0.8558  0.0395  0.4144
 5411TIP3   OH237647   5.065   4.484   0.418  0.0915 -0.1013 -0.0606
 5411TIP3    H137648   5.056   4.496   0.323  0.8269 -1.0478 -0.2705
 5411TIP3    H237649   4.977   4.460   0.448  0.1767 -1.4670 -0.7925
 5412TIP3   OH237650   3.313   6.216  13.174  0.0122 -0.0202 -0.4002
 5412TIP3    H137651   3.266   6.273  13.234  0.1741 -0.7195  0.4180
 5412TIP3    H237652   3.350   6.275  13.108 -0.4101  0.7299  0.0259
 5413TIP3   OH237653   3.838   1.604  12.849  0.5011  0.1765  0.2153
 5413TIP3    H137654   3.853   1.697  12.862  2.6362 -0.2962  1.6934
 5413TIP3    H237655   3.745   1.592  12.868 -0.1342  2.1511 -1.3268
 5414TIP3   OH237656   3.577   7.063   4.745 -0.1396  0.3543  0.1370
 5414TIP3    H137657   3.565   7.158   4.744 -0.9611  0.2620  0.6814
 5414TIP3    H237658   3.660   7.049   4.698  1.0055  1.4862  1.6912
 5415TIP3   OH237659   6.951   1.492  13.947  0.4238 -0.7286  0.2922
 5415TIP3    H137660   6.969   1.570  13.895 -2.0155  0.4698  1.1141
 5415TIP3    H237661   6.945   1.421  13.883  1.8688 -0.1372 -0.5501
 5416TIP3   OH237662   0.596   5.884  15.523  0.1031 -0.8240 -0.4650
 5416TIP3    H137663   0.593   5.922  15.611  1.0455 -1.6706 -0.0454
 5416TIP3    H237664   0.681   5.909  15.489 -0.2230 -0.5752 -1.1154
 5417TIP3   OH237665   5.851   1.724  14.782 -0.0497 -0.1008  0.3917
 5417TIP3    H137666   5.915   1.794  14.797  0.2572 -0.4148  0.5617
 5417TIP3    H237667   5.904   1.651  14.750 -0.3875 -0.2115  0.0899
 5418TIP3   OH237668   1.939   1.304   9.861 -0.0089 -0.4439  0.3336
 5418TIP3    H137669   1.977   1.229   9.908 -0.0424 -2.5913 -2.8009
 5418TIP3    H237670   2.005   1.327   9.796 -2.0952 -1.2131 -2.1779
 5419TIP3   OH237671   7.057   2.896  11.775 -0.7953 -0.4343 -0.0682
 5419TIP3    H137672   7.084   2.986  11.793 -1.6310  0.1728 -1.6250
 5419TIP3    H237673   7.057   2.853  11.860  2.4892  0.1969  0.4036
 5420TIP3   OH237674   1.923   4.377  14.937  0.3794  0.2057  0.5411
 5420TIP3    H137675   1.842   4.327  14.954 -0.2013  0.3526 -1.4943
 5420TIP3    H237676   1.972   4.321  14.876  1.6246  0.3278  1.4149
 5421TIP3   OH237677   0.956   2.085  14.227 -0.1686 -0.5732  0.1987
 5421TIP3    H137678   1.045   2.115  14.247  0.5320 -1.7650 -0.9998
 5421TIP3    H237679   0.957   2.067  14.134 -2.0064  0.3953 -0.0606
 5422TIP3   OH237680   2.074   3.575  14.093 -0.0469 -0.1667  0.2337
 5422TIP3    H137681   2.083   3.652  14.036 -2.3332  0.4928  0.6729
 5422TIP3    H237682   1.988   3.540  14.072  0.8774 -2.5749  0.1794
 5423TIP3   OH237683   3.584   2.074   0.956  0.2203  0.2594 -0.2813
 5423TIP3    H137684   3.661   2.051   1.007  0.5722 -1.3634 -1.4595
 5423TIP3    H237685   3.530   2.126   1.016  1.8030  0.6762  0.8488
 5424TIP3   OH237686   3.905   5.778  13.880 -0.2573  0.0047  0.3954
 5424TIP3    H137687   3.926   5.869  13.859  0.9704  0.5238  3.4363
 5424TIP3    H237688   3.809   5.773  13.873 -0.2301  1.0299 -1.3619
 5425TIP3   OH237689   5.996   5.947   1.528  0.0949 -0.1910 -0.5253
 5425TIP3    H137690   5.946   6.006   1.584  1.0758  1.1182 -0.9969
 5425TIP3    H237691   5.937   5.873   1.514 -1.1346  0.6187  0.1502
 5426TIP3   OH237692   4.805   5.743  11.874  0.0766 -0.1948  0.7973
 5426TIP3    H137693   4.765   5.828  11.894 -0.1886 -0.1705  0.1958
 5426TIP3    H237694   4.734   5.691  11.837  0.0952 -0.8886  1.7143
 5427TIP3   OH237695   5.889   0.975  10.379  0.5446  0.2551  0.0287
 5427TIP3    H137696   5.880   1.054  10.434 -0.1777  0.9147 -0.9993
 5427TIP3    H237697   5.930   0.911  10.437 -0.1492  0.9349  1.3415
 5428TIP3   OH237698   3.876   4.784  14.595 -0.1698 -0.1437 -0.6461
 5428TIP3    H137699   3.903   4.833  14.673  0.8626  0.9221 -1.6284
 5428TIP3    H237700   3.818   4.844  14.548  0.0986 -0.3395 -1.2411
 5429TIP3   OH237701   5.850   3.392   1.455 -0.0791 -0.1502  0.0656
 5429TIP3    H137702   5.782   3.326   1.471  0.2888 -0.5441  0.0412
 5429TIP3    H237703   5.860   3.438   1.538 -1.0535  0.5634 -0.1990
 5430TIP3   OH237704   4.243   7.058  10.422 -0.4491 -0.2405 -0.2370
 5430TIP3    H137705   4.196   7.111  10.486  0.5128  0.7295 -0.2975
 5430TIP3    H237706   4.213   7.091  10.337  2.4552  2.5898 -0.3750
 5431TIP3   OH237707   5.221   0.249  11.423 -0.7894  0.1509 -0.4326
 5431TIP3    H137708   5.273   0.201  11.359  0.6527 -0.8042  1.3347
 5431TIP3    H237709   5.136   0.262  11.381  0.6366  1.2084 -3.1838
 5432TIP3   OH237710   5.769   5.152   1.634  0.4644 -0.1202 -0.8549
 5432TIP3    H137711   5.747   5.081   1.693 -0.6140  1.1221  0.2830
 5432TIP3    H237712   5.767   5.112   1.547 -0.7881 -1.3305 -0.3027
 5433TIP3   OH237713   0.271   5.712  10.925 -0.1619  0.2227 -0.0355
 5433TIP3    H137714   0.221   5.666  10.858 -0.2654 -0.2568  0.3586
 5433TIP3    H237715   0.349   5.744  10.880 -0.1742 -0.1991 -0.3589
 5434TIP3   OH237716   5.310   0.878   3.357  0.1559  1.0729  0.2556
 5434TIP3    H137717   5.305   0.829   3.439 -1.5374  0.9856  0.1453
 5434TIP3    H237718   5.295   0.969   3.382 -1.6304  0.9088 -0.0282
 5435TIP3   OH237719   3.718   0.310   4.988 -0.1795  0.3965 -0.1068
 5435TIP3    H137720   3.684   0.262   5.063 -0.1165  0.1903 -0.2083
 5435TIP3    H237721   3.748   0.393   5.024  2.5104 -0.7906  0.6236
 5436TIP3   OH237722   0.549   3.778   0.506  0.4614  0.5309 -0.5467
 5436TIP3    H137723   0.540   3.863   0.463  0.9440  0.6989 -0.3147
 5436TIP3    H237724   0.485   3.780   0.577  0.6669  0.8048 -0.3720
 5437TIP3   OH237725   1.604   6.429  12.456 -0.5683 -0.1479  0.2493
 5437TIP3    H137726   1.587   6.360  12.393 -2.5044  1.5926 -1.2833
 5437TIP3    H237727   1.697   6.447  12.448 -0.1841 -1.9994  0.1279
 5438TIP3   OH237728   2.054   1.410   2.033  0.0480  0.1483  0.3777
 5438TIP3    H137729   2.045   1.339   2.096  0.4189  0.0142  0.2826
 5438TIP3    H237730   1.965   1.445   2.023 -0.1243 -0.2529  0.4823
 5439TIP3   OH237731   2.534   5.092  13.864 -0.2531 -0.3079 -0.6992
 5439TIP3    H137732   2.439   5.094  13.862 -0.3277 -0.6065  0.9608
 5439TIP3    H237733   2.561   5.157  13.799 -1.6016  0.4600 -0.5268
 5440TIP3   OH237734   4.013   4.424  11.380 -0.0847  0.2531  0.3888
 5440TIP3    H137735   3.963   4.348  11.411  0.0477  0.1262  0.2896
 5440TIP3    H237736   4.020   4.481  11.457 -0.8539  0.5271  0.2685
 5441TIP3   OH237737   2.177   0.054  10.852 -0.4844  0.2784  0.3615
 5441TIP3    H137738   2.245   0.118  10.832 -0.6705  0.4325  0.2200
 5441TIP3    H237739   2.220  -0.031  10.839 -0.0065  0.3601  1.3344
 5442TIP3   OH237740   2.854   1.311  14.063 -0.0519 -0.1624  0.1820
 5442TIP3    H137741   2.904   1.388  14.091 -1.3062  0.2613  1.3392
 5442TIP3    H237742   2.817   1.275  14.143  0.7127 -2.1656 -0.2872
 5443TIP3   OH237743   0.197   0.048  10.906 -0.1858 -0.5101 -0.0708
 5443TIP3    H137744   0.264   0.066  10.840  1.7504 -2.3069  1.2691
 5443TIP3    H237745   0.221   0.104  10.980  1.4637 -2.8379  1.3295
 5444TIP3   OH237746   5.964   5.246   2.463  0.3046  0.8134  0.1478
 5444TIP3    H137747   5.991   5.253   2.555 -0.3466 -3.7161  0.8809
 5444TIP3    H237748   6.046   5.234   2.415  0.4544 -3.4389  1.1561
 5445TIP3   OH237749   4.750   0.503  13.107  0.4504 -0.2771 -0.9031
 5445TIP3    H137750   4.751   0.500  13.203 -0.2346  1.5335 -0.8147
 5445TIP3    H237751   4.800   0.425  13.081  1.2389 -0.4354  0.9183
 5446TIP3   OH237752   0.762   0.364  13.019  0.0392  0.0819  0.4372
 5446TIP3    H137753   0.786   0.406  13.101 -0.7482 -0.5206  0.9987
 5446TIP3    H237754   0.764   0.434  12.954 -0.0114  0.7111  1.1062
 5447TIP3   OH237755   1.065   5.509  10.016 -0.1098 -0.5363 -0.4786
 5447TIP3    H137756   1.011   5.453   9.960  1.4049 -1.9631 -0.5827
 5447TIP3    H237757   1.006   5.537  10.086 -2.0342  1.2221 -2.6321
 5448TIP3   OH237758   5.367   4.365  12.210  0.1662 -0.6015  0.5232
 5448TIP3    H137759   5.315   4.440  12.181  1.6698 -0.4389 -2.0993
 5448TIP3    H237760   5.363   4.304  12.137  0.8343 -2.0866  1.6797
 5449TIP3   OH237761   0.681   4.833  15.411 -0.3972 -0.0988 -0.0419
 5449TIP3    H137762   0.706   4.741  15.408 -2.2274 -0.6735  1.1073
 5449TIP3    H237763   0.588   4.833  15.435 -0.0513  2.0725  1.6718
 5450TIP3   OH237764   6.467   4.215  14.186  0.2844  0.0194 -0.3045
 5450TIP3    H137765   6.416   4.252  14.114  1.4817 -0.1979 -1.2939
 5450TIP3    H237766   6.488   4.126  14.158  2.0329  0.4202 -0.3984
 5451TIP3   OH237767   4.097   4.799   0.425 -0.0005 -0.0512 -0.2631
 5451TIP3    H137768   4.041   4.771   0.352 -1.7526 -0.0288  1.0114
 5451TIP3    H237769   4.038   4.803   0.500  2.2981 -3.2549  1.9699
 5452TIP3   OH237770   6.935   5.254   0.039 -0.3566 -0.5539  0.0036
 5452TIP3    H137771   6.994   5.190  -0.002 -1.0035 -0.7784 -0.5927
 5452TIP3    H237772   6.901   5.305  -0.034 -0.8645 -0.3904  0.3505
 5453TIP3   OH237773   5.788   4.303  10.949  0.1550 -0.0355 -0.2791
 5453TIP3    H137774   5.766   4.216  10.981  0.8840 -1.0384 -2.3397
 5453TIP3    H237775   5.768   4.300  10.855 -0.9404  2.4251 -0.1968
 5454TIP3   OH237776   6.052   6.808  13.615 -0.5988 -0.3492 -0.1324
 5454TIP3    H137777   5.999   6.782  13.691  1.5126 -1.4686  1.0315
 5454TIP3    H237778   6.090   6.727  13.583  0.3897  0.4135 -0.9637
 5455TIP3   OH237779   4.910   7.021  15.030 -0.5802 -0.5512 -0.0416
 5455TIP3    H137780   4.885   7.022  14.937 -1.7819 -3.5644  0.1301
 5455TIP3    H237781   4.998   6.983  15.031  1.3172  3.3124 -0.0922
 5456TIP3   OH237782   1.922   6.631   2.622  0.1488 -0.0406  0.0855
 5456TIP3    H137783   1.828   6.631   2.640 -0.4752  5.1320 -1.5165
 5456TIP3    H237784   1.930   6.584   2.539 -0.3947 -3.1031  1.6105
 5457TIP3   OH237785   3.607   2.477  11.761 -0.1959 -0.3398 -0.0423
 5457TIP3    H137786   3.639   2.449  11.847  1.8630  2.0675  0.1145
 5457TIP3    H237787   3.515   2.452  11.759 -1.0687  1.8334  3.9976
 5458TIP3   OH237788   6.191   3.278  15.493 -0.4792 -0.6975  0.1323
 5458TIP3    H137789   6.285   3.278  15.513 -0.5494 -1.4971  0.5223
 5458TIP3    H237790   6.162   3.367  15.511  0.1456 -0.5310  0.3229
 5459TIP3   OH237791   1.396   6.058  15.180 -0.5695 -0.1892 -0.2964
 5459TIP3    H137792   1.313   6.011  15.184 -2.1366  2.3256 -1.2526
 5459TIP3    H237793   1.431   6.053  15.269 -2.5133 -0.0352  0.5272
 5460TIP3   OH237794   5.775   5.641  14.559 -0.2890 -0.5511  0.3851
 5460TIP3    H137795   5.751   5.564  14.508  1.0091 -0.4684 -0.3769
 5460TIP3    H237796   5.786   5.608  14.648 -0.9950 -0.9900  0.3178
 5461TIP3   OH237797   4.944   4.170  11.592 -0.2921  0.3357  0.3336
 5461TIP3    H137798   4.903   4.191  11.508  1.1333  1.4121 -0.1191
 5461TIP3    H237799   4.967   4.077  11.585  0.1117  0.5027 -0.5884
 5462TIP3   OH237800   5.471   2.171   0.069  0.1458  0.4115 -0.2649
 5462TIP3    H137801   5.408   2.241   0.085 -0.9817 -1.1203  2.6720
 5462TIP3    H237802   5.554   2.206   0.102 -0.1958  0.7245  0.2732
 5463TIP3   OH237803   1.908   5.089  11.025  0.0269  0.4653 -0.5529
 5463TIP3    H137804   1.971   5.156  10.998 -0.7107  1.9455  1.1659
 5463TIP3    H237805   1.900   5.032  10.949  1.1851  1.9495 -1.8742
 5464TIP3   OH237806   6.608   5.623   2.517 -0.0571  0.7408  0.0811
 5464TIP3    H137807   6.538   5.637   2.454 -0.9886  0.2417  0.9591
 5464TIP3    H237808   6.680   5.587   2.466  0.0361  2.4301 -1.0547
 5465TIP3   OH237809   1.706   4.828   1.682 -0.1589 -0.6029 -0.1247
 5465TIP3    H137810   1.779   4.767   1.668 -0.0198 -0.3574 -0.4754
 5465TIP3    H237811   1.737   4.911   1.646  0.2656  0.0990  1.7241
 5466TIP3   OH237812   4.101   0.490   0.781 -0.1820 -0.4042  0.5325
 5466TIP3    H137813   4.077   0.501   0.873  2.5192 -0.4404  1.3259
 5466TIP3    H237814   4.157   0.412   0.780  0.0405 -0.2571 -1.1260
 5467TIP3   OH237815   1.212   5.873   1.676 -0.1144  0.5358  0.0681
 5467TIP3    H137816   1.123   5.892   1.649 -0.4375  0.4994  1.0780
 5467TIP3    H237817   1.231   5.787   1.640 -0.4952  0.5318 -0.1185
 5468TIP3   OH237818   4.901   6.368  10.437  0.2712  0.2566 -0.6134
 5468TIP3    H137819   4.806   6.385  10.434  0.3679  0.9171 -0.0892
 5468TIP3    H237820   4.933   6.396  10.351 -0.0310 -0.1304 -0.8571
 5469TIP3   OH237821   7.051   4.825   5.200 -0.1010 -0.4283 -0.3191
 5469TIP3    H137822   7.003   4.838   5.282 -0.3881 -0.7871 -0.4306
 5469TIP3    H237823   7.046   4.731   5.184 -0.0378 -0.3581 -0.7502
 5470TIP3   OH237824   5.424   3.126   9.788  0.1654 -0.1100 -0.3039
 5470TIP3    H137825   5.405   3.035   9.765  1.2013 -0.5791  0.6376
 5470TIP3    H237826   5.382   3.177   9.718 -1.4215 -1.2343 -0.2318
 5471TIP3   OH237827   4.331   4.296  13.303  0.0221  0.1448  0.2360
 5471TIP3    H137828   4.392   4.241  13.254 -0.8521  1.2298 -2.2271
 5471TIP3    H237829   4.274   4.334  13.236 -1.4644  1.4997  2.1599
 5472TIP3   OH237830   6.263   0.573   4.452 -0.2778 -0.1066 -0.3595
 5472TIP3    H137831   6.225   0.657   4.478  1.0673  0.8433 -1.3790
 5472TIP3    H237832   6.261   0.574   4.357 -0.8627 -1.5474 -0.3899
 5473TIP3   OH237833   5.655   0.932  12.454  0.2362  0.6774  1.1026
 5473TIP3    H137834   5.623   0.843  12.441 -1.3150  1.1913  1.2979
 5473TIP3    H237835   5.717   0.924  12.527  0.2971 -0.2756  0.9577
 5474TIP3   OH237836   5.486   1.930  11.529 -0.4462  0.1676  0.3070
 5474TIP3    H137837   5.399   1.923  11.569 -0.5018 -0.9891  0.0162
 5474TIP3    H237838   5.544   1.882  11.589 -0.8574 -3.4409 -1.8609
 5475TIP3   OH237839   6.051   6.399  13.943 -0.1105 -0.3272  0.5925
 5475TIP3    H137840   5.967   6.358  13.960 -1.0688  1.2982  0.0025
 5475TIP3    H237841   6.082   6.360  13.862 -1.0648  0.1687 -0.0265
 5476TIP3   OH237842   2.442   1.868   2.307 -0.4485 -0.6677 -0.0175
 5476TIP3    H137843   2.385   1.882   2.232 -1.1530 -2.9726  0.0070
 5476TIP3    H237844   2.417   1.782   2.341  0.3788 -0.0437  2.4030
 5477TIP3   OH237845   6.819   1.529  12.177  1.0994 -0.2603 -0.1707
 5477TIP3    H137846   6.757   1.598  12.154 -0.0847 -0.4014  2.2734
 5477TIP3    H237847   6.845   1.549  12.267  0.2251 -3.2714  0.8757
 5478TIP3   OH237848   2.272   2.332  14.299 -0.1837 -0.1270 -0.1348
 5478TIP3    H137849   2.293   2.292  14.215  0.8243 -1.5215  0.7398
 5478TIP3    H237850   2.197   2.388  14.280 -0.3185 -0.8115 -1.8491
 5479TIP3   OH237851   4.702   4.211  12.668  0.2318  0.4383 -0.1290
 5479TIP3    H137852   4.678   4.119  12.682  0.5569  0.3472 -0.1430
 5479TIP3    H237853   4.791   4.206  12.633  1.6786  0.8829  3.1222
 5480TIP3   OH237854   6.797   2.869  12.298  0.0199 -0.6317 -0.4765
 5480TIP3    H137855   6.823   2.924  12.225 -0.4993  0.5667  0.2126
 5480TIP3    H237856   6.844   2.786  12.284  0.4166 -0.2013 -1.8004
 5481TIP3   OH237857   2.767   5.350  14.595  0.4320 -0.1408  0.1666
 5481TIP3    H137858   2.815   5.288  14.540  0.7441  1.1809 -1.0958
 5481TIP3    H237859   2.782   5.319  14.685  1.4335 -1.2725 -0.3632
 5482TIP3   OH237860   1.793   5.222  13.054 -0.1768 -0.0195 -0.1322
 5482TIP3    H137861   1.728   5.152  13.049 -1.1148  0.8581 -0.6117
 5482TIP3    H237862   1.746   5.300  13.026  1.6037  0.3135 -2.5389
 5483TIP3   OH237863   0.569   1.680   9.823  0.4892 -0.0040  0.2987
 5483TIP3    H137864   0.633   1.749   9.841  1.0469 -0.4167 -0.0985
 5483TIP3    H237865   0.544   1.647   9.909  2.1321 -1.0448  0.4186
 5484TIP3   OH237866   2.687   0.580  15.387  0.2133  0.0864  0.4187
 5484TIP3    H137867   2.713   0.594  15.296 -0.3139  2.0092  0.5154
 5484TIP3    H237868   2.748   0.632  15.438  0.1930 -0.5786  1.1478
 5485TIP3   OH237869   1.794   0.428   3.656  0.1476 -0.0677 -0.6904
 5485TIP3    H137870   1.851   0.499   3.685 -0.7241  0.1148  0.6722
 5485TIP3    H237871   1.843   0.348   3.676  0.5369  0.1149 -0.9090
 5486TIP3   OH237872   0.461   3.444   2.769 -0.2511  0.3019  0.7681
 5486TIP3    H137873   0.492   3.450   2.859  2.7561 -0.2614 -0.1046
 5486TIP3    H237874   0.538   3.464   2.716 -1.9141  0.6499 -1.7166
 5487TIP3   OH237875   5.915   1.877   4.649  0.0915  0.0181  0.6212
 5487TIP3    H137876   5.871   1.793   4.664  0.9388 -0.2197  1.8803
 5487TIP3    H237877   5.917   1.886   4.554 -1.4848 -0.5878  0.5074
 5488TIP3   OH237878   6.778   6.380   4.278  0.7692 -0.0477 -0.2378
 5488TIP3    H137879   6.793   6.376   4.372 -1.9776 -1.1803  0.2390
 5488TIP3    H237880   6.795   6.471   4.254 -0.0914  0.6353  1.6605
 5489TIP3   OH237881   5.386   3.264  13.584 -0.1503  0.2204 -0.2073
 5489TIP3    H137882   5.298   3.276  13.617  0.4916 -1.1735  2.2378
 5489TIP3    H237883   5.389   3.172  13.556 -0.0120  0.7778 -2.2053
 5490TIP3   OH237884   1.535   7.052   4.682  0.2913  0.4155  0.4785
 5490TIP3    H137885   1.526   7.053   4.778 -1.1818  1.7158  0.3654
 5490TIP3    H237886   1.470   6.988   4.653  2.6752 -2.1923  0.4145
 5491TIP3   OH237887   5.244   4.646  10.953 -0.2109  0.5680 -0.3987
 5491TIP3    H137888   5.226   4.591  11.029  1.3999  0.2166 -0.2359
 5491TIP3    H237889   5.339   4.649  10.947 -0.2852  1.7426 -1.5808
 5492TIP3   OH237890   2.296   6.569  12.518 -0.0057  0.5594  0.3294
 5492TIP3    H137891   2.246   6.634  12.469  1.6676  1.6400 -0.0366
 5492TIP3    H237892   2.286   6.595  12.609 -0.0756  0.7916  0.2569
 5493TIP3   OH237893   5.313   3.501   4.797 -0.0463  0.2235 -0.2385
 5493TIP3    H137894   5.242   3.565   4.801 -0.0171  0.2160  0.5913
 5493TIP3    H237895   5.312   3.470   4.707 -0.7306  0.6398 -0.3846
 5494TIP3   OH237896   3.438   6.699  11.946  0.2126 -0.0900  0.0875
 5494TIP3    H137897   3.359   6.710  11.894  0.7298  1.0096 -0.4988
 5494TIP3    H237898   3.426   6.616  11.992 -1.0677 -0.1581 -0.3509
 5495TIP3   OH237899   4.386   5.404   2.115  0.2300 -0.0050  0.3188
 5495TIP3    H137900   4.363   5.340   2.183 -0.3714 -0.8749 -0.6722
 5495TIP3    H237901   4.481   5.396   2.106  0.1747 -0.6830  0.2858
 5496TIP3   OH237902   5.408   2.022  12.431  0.1079  0.2510  0.5629
 5496TIP3    H137903   5.345   2.080  12.388  0.2377 -0.9595 -1.3528
 5496TIP3    H237904   5.469   1.997  12.362  0.1931 -1.9920  1.3780
 5497TIP3   OH237905   0.763   4.870  14.915  0.3534 -0.2419 -0.9109
 5497TIP3    H137906   0.799   4.937  14.857  2.0671 -1.3610 -1.1992
 5497TIP3    H237907   0.801   4.890  15.001  0.5456 -0.6052 -0.9116
 5498TIP3   OH237908   2.666   5.183  15.216 -0.2879  0.0183  0.3357
 5498TIP3    H137909   2.632   5.230  15.292  0.4527  0.0854  0.6278
 5498TIP3    H237910   2.732   5.241  15.179  0.6300 -0.7792  0.6923
 5499TIP3   OH237911   1.929   6.120  12.546 -0.2569  0.1173  0.2741
 5499TIP3    H137912   2.002   6.181  12.542  0.5301 -0.8448 -0.6154
 5499TIP3    H237913   1.866   6.154  12.483  0.5481 -0.4143 -0.8551
 5500TIP3   OH237914   2.392   6.574   0.155  0.1350  0.0483  0.0194
 5500TIP3    H137915   2.444   6.650   0.182 -0.2423 -0.4707  2.5101
 5500TIP3    H237916   2.424   6.503   0.211 -0.9774 -1.1066 -0.7625
 5501TIP3   OH237917   3.832   6.014  11.728  0.1823 -0.6928 -0.9444
 5501TIP3    H137918   3.768   6.085  11.730  1.6781  0.7291 -1.3849
 5501TIP3    H237919   3.807   5.957  11.801 -0.5568  0.7505 -0.0208
 5502TIP3   OH237920   4.402   0.785   1.310 -0.0495 -0.5335  0.2427
 5502TIP3    H137921   4.373   0.726   1.240  0.0344  1.6637 -1.7696
 5502TIP3    H237922   4.496   0.773   1.314 -0.1285 -1.1121  0.4170
 5503TIP3   OH237923   3.340   3.907  12.435  1.2696 -0.1838  0.0441
 5503TIP3    H137924   3.400   3.911  12.361  0.0670 -1.2733 -1.0634
 5503TIP3    H237925   3.298   3.993  12.437  1.2389 -0.1738 -0.6448
 5504TIP3   OH237926   2.317   1.544  13.469 -0.2001 -0.2005  0.1977
 5504TIP3    H137927   2.305   1.593  13.551 -2.5993 -0.3668  0.0193
 5504TIP3    H237928   2.364   1.465  13.495 -0.7716 -0.1694  1.4040
 5505TIP3   OH237929   1.444   2.857  13.539 -0.3015  0.0424  0.1062
 5505TIP3    H137930   1.536   2.840  13.560  0.0346  1.2344 -0.3025
 5505TIP3    H237931   1.422   2.935  13.591 -1.1430 -0.3495  0.3485
 5506TIP3   OH237932   4.781   4.642   1.232  0.4383 -0.2579 -0.7427
 5506TIP3    H137933   4.755   4.707   1.297  1.0071 -0.3858 -0.3800
 5506TIP3    H237934   4.771   4.687   1.148  2.2089  0.8288 -0.4316
 5507TIP3   OH237935   2.636   4.223  10.739 -0.4644  0.3811  0.1988
 5507TIP3    H137936   2.676   4.172  10.809  2.2643 -0.7052 -1.9874
 5507TIP3    H237937   2.570   4.165  10.701  0.5734 -0.4404 -0.3921
 5508TIP3   OH237938   0.696   6.131   3.904  0.1260  0.8429  0.1795
 5508TIP3    H137939   0.709   6.114   3.998  0.4441 -0.1762 -0.0349
 5508TIP3    H237940   0.785   6.143   3.870  0.3426 -2.1031 -0.5636
 5509TIP3   OH237941   5.691   5.285   2.612 -0.2346  0.1434 -0.2671
 5509TIP3    H137942   5.775   5.252   2.581  0.2729 -0.6193  1.7704
 5509TIP3    H237943   5.713   5.355   2.673 -1.0817  0.1162  0.0931
 5510TIP3   OH237944   6.047   2.912  12.966 -0.2182 -0.4815  0.0180
 5510TIP3    H137945   6.054   2.996  12.920 -0.4836 -0.9408 -0.9025
 5510TIP3    H237946   6.070   2.932  13.056  2.5869  0.0404 -0.7183
 5511TIP3   OH237947   4.555   5.037   2.056  0.2393  0.6821  0.4228
 5511TIP3    H137948   4.473   5.019   2.101 -0.4871  1.1422 -0.6549
 5511TIP3    H237949   4.529   5.057   1.966  1.7435 -2.0703 -0.7572
 5512TIP3   OH237950   2.213   6.343  15.188 -0.7505 -0.3268 -0.0513
 5512TIP3    H137951   2.175   6.417  15.142 -0.5662 -1.6281 -2.4804
 5512TIP3    H237952   2.147   6.273  15.181 -0.7935 -0.5393  1.8932
 5513TIP3   OH237953   1.224   0.586   0.161  0.3154  0.7129 -0.0773
 5513TIP3    H137954   1.201   0.622   0.075  0.5453  1.6544  0.2341
 5513TIP3    H237955   1.319   0.578   0.160  0.2407 -0.2287 -0.2600
 5514TIP3   OH237956   2.897   0.041  15.056 -0.3146  0.3830  0.1415
 5514TIP3    H137957   2.883   0.046  14.962  0.2908 -2.1182 -0.1673
 5514TIP3    H237958   2.816   0.005  15.091 -0.8275  2.0265  0.7218
 5515TIP3   OH237959   6.177   2.366  10.229 -0.3067  0.2674 -0.0222
 5515TIP3    H137960   6.116   2.292  10.222 -0.1563  0.2514 -1.4303
 5515TIP3    H237961   6.150   2.426  10.160  1.7535 -0.1086 -1.2276
 5516TIP3   OH237962   3.105   0.871  11.329  0.2779  0.4593 -0.1716
 5516TIP3    H137963   3.062   0.870  11.244  0.1841  0.3275 -0.1244
 5516TIP3    H237964   3.085   0.785  11.367  1.5173 -0.0443 -0.6119
 5517TIP3   OH237965   3.412   0.956   5.007  0.0307  0.6079  0.2346
 5517TIP3    H137966   3.452   0.982   5.090  0.3112  3.1396 -0.5944
 5517TIP3    H237967   3.471   0.890   4.972  2.1630  2.3627  0.2615
 5518TIP3   OH237968   1.457   1.603   0.411  0.1182 -0.4018 -0.2623
 5518TIP3    H137969   1.530   1.546   0.432  0.7510 -0.5453 -2.5902
 5518TIP3    H237970   1.426   1.573   0.325 -2.6769 -0.3202  0.5995
 5519TIP3   OH237971   7.123   1.591  14.760  0.6388 -0.2826 -0.4777
 5519TIP3    H137972   7.198   1.533  14.745  0.4631 -0.8228  0.6474
 5519TIP3    H237973   7.074   1.587  14.677  0.0899 -2.5805 -0.1201
 5520TIP3   OH237974   4.450   1.209  15.193  0.2984 -0.3819 -0.1785
 5520TIP3    H137975   4.359   1.211  15.223  0.9539  0.9276  1.9239
 5520TIP3    H237976   4.479   1.119  15.207  0.0535 -0.2205  1.6590
 5521TIP3   OH237977   2.334   6.642  11.785 -0.1880 -0.0896 -0.1310
 5521TIP3    H137978   2.430   6.651  11.779 -0.0313 -0.7020  1.0858
 5521TIP3    H237979   2.300   6.705  11.722  1.0007  0.8946  0.1718
 5522TIP3   OH237980   0.439   4.865   4.968  0.2751  0.0083  0.2942
 5522TIP3    H137981   0.471   4.910   5.046  0.7386  0.4200 -0.1290
 5522TIP3    H237982   0.356   4.908   4.948 -0.8442 -1.3685  1.6667
 5523TIP3   OH237983   4.266   5.387   0.369  0.4837  0.3063  0.3327
 5523TIP3    H137984   4.226   5.301   0.385 -0.0068  0.5958  0.7243
 5523TIP3    H237985   4.213   5.425   0.299  0.0111  0.7299  0.9167
 5524TIP3   OH237986   5.702   2.361   0.114 -0.0539 -0.4193 -0.2214
 5524TIP3    H137987   5.789   2.324   0.126  0.1790  0.4611  0.8939
 5524TIP3    H237988   5.703   2.442   0.164 -1.2094  0.0899 -0.9781
 5525TIP3   OH237989   3.721   3.934  13.362 -0.0022 -0.2660 -0.4761
 5525TIP3    H137990   3.810   3.968  13.355  0.2782 -0.8984 -0.0123
 5525TIP3    H237991   3.687   3.971  13.443  0.1740 -0.7865 -0.1618
 5526TIP3   OH237992   4.966   1.405  14.973  0.1144 -0.3637 -0.1080
 5526TIP3    H137993   5.008   1.390  14.888  0.6744  0.2606  0.0551
 5526TIP3    H237994   5.035   1.440  15.029 -0.4509 -0.0053  0.3760
 5527TIP3   OH237995   3.857   0.396  13.408 -0.7216  0.1690 -0.9890
 5527TIP3    H137996   3.803   0.336  13.356  0.1686 -1.1702 -0.4477
 5527TIP3    H237997   3.838   0.372  13.499  0.3207  0.0723 -0.7827
 5528TIP3   OH237998   1.642   5.220   1.632  0.0339 -0.3282  0.1859
 5528TIP3    H137999   1.655   5.276   1.555 -0.7010  0.0732  0.3409
 5528TIP3    H238000   1.715   5.159   1.630  0.1877 -0.1304 -0.6667
 5529TIP3   OH238001   0.507   7.095  10.404  0.3953 -0.3520  0.5115
 5529TIP3    H138002   0.486   7.054  10.321 -1.1326 -0.7292  1.0461
 5529TIP3    H238003   0.588   7.053  10.433  2.0972  1.2063 -1.6891
 5530TIP3   OH238004   2.776   0.978   4.863  0.1141  0.6691  0.2405
 5530TIP3    H138005   2.714   0.907   4.880  0.7453 -0.0456 -0.3494
 5530TIP3    H238006   2.848   0.936   4.815 -0.5883  2.1517 -2.2733
 5531TIP3   OH238007   2.953   3.460  13.386  0.0518  0.4802  0.1095
 5531TIP3    H138008   2.996   3.545  13.397  0.2025  0.5442 -0.8646
 5531TIP3    H238009   2.908   3.467  13.301 -1.1249  0.0898  0.6850
 5532TIP3   OH238010   5.314   1.851  14.006  0.6619 -0.1741  0.1871
 5532TIP3    H138011   5.316   1.765  14.048  0.7191 -0.9566 -1.3463
 5532TIP3    H238012   5.355   1.910  14.069  0.8343 -1.3137  1.1718
 5533TIP3   OH238013   2.928   4.752  11.029  0.6174  0.0180  0.2567
 5533TIP3    H138014   2.985   4.703  11.088 -0.1484 -0.0402  0.9748
 5533TIP3    H238015   2.846   4.761  11.078 -0.2389 -0.5421 -1.0417
 5534TIP3   OH238016   2.455   6.827   0.245  0.4415  0.5626  0.1902
 5534TIP3    H138017   2.430   6.902   0.191 -1.2427  1.0694  1.5331
 5534TIP3    H238018   2.372   6.799   0.285  1.3686 -0.7232  1.2918
 5535TIP3   OH238019   6.819   2.375   4.518 -1.0480 -0.0586  0.0900
 5535TIP3    H138020   6.899   2.326   4.500 -0.9942 -0.4947  1.4071
 5535TIP3    H238021   6.766   2.364   4.439 -0.8802 -1.9422  0.1882
 5536TIP3   OH238022   5.060   3.742   4.778  0.0322  0.2398  0.0156
 5536TIP3    H138023   5.029   3.769   4.865  0.4501  0.3371  0.1371
 5536TIP3    H238024   5.041   3.648   4.774 -0.5554  0.3556 -0.0355
 5537TIP3   OH238025   5.018   0.295   0.777  0.1801  0.5487  0.3703
 5537TIP3    H138026   5.091   0.355   0.759  1.8285 -0.3605  3.3844
 5537TIP3    H238027   4.961   0.343   0.836  0.5594 -0.1395  1.3337
 5538TIP3   OH238028   3.435   0.965  14.331 -0.0740  0.7201 -0.0209
 5538TIP3    H138029   3.520   0.980  14.372  0.8209 -2.9192 -0.1741
 5538TIP3    H238030   3.400   0.888  14.375 -2.1165  0.5778 -1.6976
 5539TIP3   OH238031   2.094   2.586   3.525 -0.4441  0.7023  0.3065
 5539TIP3    H138032   2.188   2.578   3.538 -0.4981 -2.3883 -0.4843
 5539TIP3    H238033   2.057   2.572   3.612 -0.2120  0.3825  0.3547
 5540TIP3   OH238034   5.262   2.870  14.705 -0.4524  0.0477  0.4402
 5540TIP3    H138035   5.196   2.936  14.723  0.5953  0.9098  1.2207
 5540TIP3    H238036   5.273   2.824  14.788  0.6748  0.6080  0.6133
 5541TIP3   OH238037   0.899   6.691  12.640  0.9510 -0.4513  0.1483
 5541TIP3    H138038   0.965   6.674  12.707  0.9124  1.3965  0.7057
 5541TIP3    H238039   0.818   6.706  12.689  0.4975 -0.9569 -0.4310
 5542TIP3   OH238040   4.071   0.790  12.375  0.2584 -0.0054 -0.3765
 5542TIP3    H138041   4.055   0.857  12.309 -0.9259  0.6281  0.5171
 5542TIP3    H238042   3.984   0.768  12.409  0.8206 -0.4449  0.8317
 5543TIP3   OH238043   6.098   2.025   0.683 -0.7381  0.2004 -0.2976
 5543TIP3    H138044   6.149   1.981   0.752  1.1975  0.2294 -1.6214
 5543TIP3    H238045   6.163   2.076   0.635 -1.9378 -0.2145 -2.4633
 5544TIP3   OH238046   4.378   4.805  13.516  0.0855  0.2973 -0.2404
 5544TIP3    H138047   4.288   4.808  13.485  0.0138 -1.8672 -0.3986
 5544TIP3    H238048   4.376   4.850  13.600 -1.3729 -0.6269  0.2505
 5545TIP3   OH238049   2.708   6.612   4.575 -0.0695  0.2517  0.1709
 5545TIP3    H138050   2.739   6.655   4.655  0.5181  1.0263 -0.4524
 5545TIP3    H238051   2.633   6.560   4.603 -0.4792  1.2765  1.0587
 5546TIP3   OH238052   4.374   1.144  11.498 -0.0819  0.1446 -0.1639
 5546TIP3    H138053   4.414   1.080  11.439 -2.1079  0.1693 -1.6726
 5546TIP3    H238054   4.383   1.106  11.585  1.6039 -0.6516 -0.6448
 5547TIP3   OH238055   3.078   2.930   1.951  0.2962  1.1542  0.1700
 5547TIP3    H138056   3.105   2.842   1.925  0.4305  0.8886  1.1888
 5547TIP3    H238057   2.989   2.919   1.985  0.3130  1.4181  0.3016
 5548TIP3   OH238058   0.237   4.717  11.198  0.2103 -0.0253 -0.3435
 5548TIP3    H138059   0.268   4.670  11.120 -1.9106 -0.2693 -1.0939
 5548TIP3    H238060   0.315   4.725  11.253  1.5502 -0.7570 -2.0222
 5549TIP3   OH238061   3.537   3.544  15.357  0.8092  0.0552  0.2297
 5549TIP3    H138062   3.500   3.622  15.400  0.4626  0.0738 -0.0961
 5549TIP3    H238063   3.486   3.535  15.276  0.1851 -1.0631  0.7195
 5550TIP3   OH238064   6.132   7.064  13.430 -0.1353  0.4323 -0.0371
 5550TIP3    H138065   6.190   7.108  13.494  1.2082 -1.6112  0.2445
 5550TIP3    H238066   6.178   6.984  13.408 -2.1033 -0.4468 -1.1733
 5551TIP3   OH238067   4.490   1.560  12.865  0.2974  0.0007  0.6574
 5551TIP3    H138068   4.412   1.530  12.912 -0.8601  0.5061 -0.8875
 5551TIP3    H238069   4.503   1.650  12.895  0.8449 -0.3718  1.5835
 5552TIP3   OH238070   5.414   6.012   1.186  0.2513 -0.0787 -0.4425
 5552TIP3    H138071   5.483   6.077   1.200 -0.7947  0.6582  1.7380
 5552TIP3    H238072   5.392   6.020   1.093 -0.1073  3.0172 -0.2029
 5553TIP3   OH238073   5.365   5.950  13.831  0.5345 -0.0858  0.0594
 5553TIP3    H138074   5.415   6.030  13.816 -0.3800  0.1077 -2.3095
 5553TIP3    H238075   5.430   5.880  13.826  1.0893  0.3841  0.5663
 5554TIP3   OH238076   5.661   0.781  14.219 -0.0358  0.5516 -0.2533
 5554TIP3    H138077   5.576   0.824  14.223  0.0616  0.6251  2.1501
 5554TIP3    H238078   5.725   0.853  14.221  0.0920  0.4445 -0.4292
 5555TIP3   OH238079   0.723   0.028  14.814 -0.3534  0.4711  0.2241
 5555TIP3    H138080   0.660   0.049  14.883 -0.9180  1.2357 -0.5038
 5555TIP3    H238081   0.738  -0.066  14.823  0.9463  0.8530  2.4973
 5556TIP3   OH238082   6.446   3.191   9.900 -0.6299 -0.2234  0.2330
 5556TIP3    H138083   6.513   3.135   9.939  0.6265  0.4107 -0.9223
 5556TIP3    H238084   6.450   3.171   9.806 -0.1522  1.7487 -0.2139
 5557TIP3   OH238085   5.662   4.854   9.952  0.1914 -0.4794  0.2462
 5557TIP3    H138086   5.720   4.926   9.929 -0.7640  0.2825  0.1189
 5557TIP3    H238087   5.654   4.802   9.872 -0.0175 -0.0644 -0.0054
 5558TIP3   OH238088   1.490   5.501   0.292 -0.5058  0.8734  0.1648
 5558TIP3    H138089   1.418   5.459   0.245 -0.0956 -1.2195  1.3103
 5558TIP3    H238090   1.567   5.486   0.238 -0.4886  0.8395  0.1988
 5559TIP3   OH238091   5.721   5.642  13.695 -0.6481  0.5360  0.0593
 5559TIP3    H138092   5.781   5.713  13.671 -0.9536  0.3426 -1.3414
 5559TIP3    H238093   5.707   5.593  13.614  0.0043 -1.4982  1.1055
 5560TIP3   OH238094   2.851   7.129  12.278  0.0489  0.0129 -0.0729
 5560TIP3    H138095   2.792   7.090  12.343 -0.6931 -0.3438 -0.9435
 5560TIP3    H238096   2.927   7.072  12.278 -0.6472 -0.9372 -0.6819
 5561TIP3   OH238097   6.769   0.789   3.306 -0.3931 -0.1316 -0.3644
 5561TIP3    H138098   6.676   0.811   3.311 -0.4806 -0.4793 -0.4634
 5561TIP3    H238099   6.782   0.724   3.376  0.1941  1.3633  1.0024
 5562TIP3   OH238100   5.171   4.777  11.562  0.3191 -0.2783  0.1080
 5562TIP3    H138101   5.218   4.792  11.480  1.0064  0.0322  0.5540
 5562TIP3    H238102   5.088   4.823  11.551  1.2533  1.5437  0.3839
 5563TIP3   OH238103   5.711   5.489   3.959 -0.3564  0.0895 -0.5196
 5563TIP3    H138104   5.788   5.434   3.970  0.0331  0.7338  0.1204
 5563TIP3    H238105   5.658   5.445   3.892  0.7826 -0.1263 -1.2992
 5564TIP3   OH238106   2.515   4.334  14.668  0.6269  0.7616  0.7004
 5564TIP3    H138107   2.433   4.382  14.679  1.3673  2.6475 -1.2822
 5564TIP3    H238108   2.574   4.397  14.626  1.8729 -1.6862 -1.4777
 5565TIP3   OH238109   0.282   5.639   1.192  0.2011  0.5575 -0.2975
 5565TIP3    H138110   0.196   5.604   1.217  0.7685  0.1175  1.2045
 5565TIP3    H238111   0.337   5.561   1.183  0.9029  0.9013  0.7368
 5566TIP3   OH238112   3.445   0.179   1.345  0.4383 -0.6139 -0.3584
 5566TIP3    H138113   3.447   0.167   1.250  0.7390 -1.3676 -0.2606
 5566TIP3    H238114   3.432   0.091   1.380 -1.7054 -0.1210  0.2348
 5567TIP3   OH238115   3.073   0.350  11.149  0.1449  0.1807 -0.4306
 5567TIP3    H138116   3.153   0.401  11.140  0.0769  0.0451 -2.3251
 5567TIP3    H238117   3.102   0.260  11.161  0.2741  0.2423 -0.2852
 5568TIP3   OH238118   5.198   4.976  14.385  0.1644  0.3180  0.1784
 5568TIP3    H138119   5.256   5.052  14.395 -0.0700  0.5080  0.0944
 5568TIP3    H238120   5.256   4.900  14.392  0.4425  0.5110 -0.0488
 5569TIP3   OH238121   6.255   3.175  12.050  0.2460 -0.6071 -0.0832
 5569TIP3    H138122   6.335   3.221  12.025 -0.0205  0.1211  0.3660
 5569TIP3    H238123   6.244   3.196  12.143 -3.2865  3.8350 -1.1043
 5570TIP3   OH238124   5.643   5.229   3.375  0.0256 -0.1004 -0.3180
 5570TIP3    H138125   5.617   5.312   3.335  0.5535  1.2735  2.0116
 5570TIP3    H238126   5.705   5.253   3.443  2.0897 -2.6443 -1.1047
 5571TIP3   OH238127   1.287   6.907  11.182  0.2080  0.0160 -0.2392
 5571TIP3    H138128   1.342   6.942  11.252  0.0452  0.0550 -0.1288
 5571TIP3    H238129   1.277   6.814  11.204 -1.0302  0.3113  0.6008
 5572TIP3   OH238130   1.986   6.604   4.992  0.0330  0.0139 -0.4929
 5572TIP3    H138131   2.074   6.594   5.029 -1.0419 -0.1249  2.2869
 5572TIP3    H238132   1.930   6.617   5.068 -2.6813 -2.0566 -1.9603
 5573TIP3   OH238133   0.184   1.507  12.898  0.3629  0.0039 -0.0106
 5573TIP3    H138134   0.182   1.418  12.933 -1.1493  0.5785  1.5366
 5573TIP3    H238135   0.198   1.496  12.804 -0.1817 -1.8880  0.0853
 5574TIP3   OH238136   4.902   2.172  11.305  0.0705 -0.0444  0.0237
 5574TIP3    H138137   4.997   2.163  11.304  0.0849 -0.1120  1.0245
 5574TIP3    H238138   4.871   2.097  11.355 -0.5196 -0.0297 -0.3030
 5575TIP3   OH238139   0.141   3.524   1.318  0.1258 -0.2259  0.2469
 5575TIP3    H138140   0.170   3.606   1.358 -1.2784  0.2053  0.4078
 5575TIP3    H238141   0.095   3.551   1.239 -0.6129 -0.8323  0.4636
 5576TIP3   OH238142   3.432   2.689  11.898  0.3527  0.2744  0.0643
 5576TIP3    H138143   3.383   2.649  11.970  0.7054 -1.8273 -0.8110
 5576TIP3    H238144   3.383   2.667  11.820  2.0806 -0.9514 -0.7263
 5577TIP3   OH238145   0.490   1.827   2.238 -0.0071 -0.3371 -0.3827
 5577TIP3    H138146   0.500   1.915   2.202  1.3496 -0.3685 -0.1387
 5577TIP3    H238147   0.396   1.817   2.252 -0.3263  0.5565 -1.6971
 5578TIP3   OH238148   0.291   6.229   1.913 -0.3823 -0.1058  0.1066
 5578TIP3    H138149   0.312   6.192   1.828 -1.7975 -1.0856  0.1489
 5578TIP3    H238150   0.241   6.308   1.894  0.9579  0.7718  0.0450
 5579TIP3   OH238151   5.062   5.487   9.504  0.8669  0.1109  0.1846
 5579TIP3    H138152   5.106   5.518   9.583  0.8921 -1.8953  1.0318
 5579TIP3    H238153   4.975   5.463   9.534  0.7604 -0.3291 -0.4669
 5580TIP3   OH238154   3.416   6.424  10.318  0.6794 -0.2085  0.1391
 5580TIP3    H138155   3.442   6.501  10.367  1.4606 -1.9898  2.7078
 5580TIP3    H238156   3.471   6.427  10.239  2.0680  0.8652  1.0916
 5581TIP3   OH238157   4.680   2.595  11.631 -0.2201 -0.6212 -0.0380
 5581TIP3    H138158   4.660   2.588  11.538  0.1456 -1.5111 -0.0623
 5581TIP3    H238159   4.693   2.689  11.646  0.5996 -0.5508 -1.0731
 5582TIP3   OH238160   0.602   6.414  13.206 -0.2203  0.6245  0.2406
 5582TIP3    H138161   0.606   6.489  13.265 -0.4900  0.9224 -0.1149
 5582TIP3    H238162   0.674   6.428  13.144 -0.2890  0.6066  0.1560
 5583TIP3   OH238163   5.241   5.573   9.680 -0.3946  0.6167 -0.5471
 5583TIP3    H138164   5.331   5.603   9.666 -0.3579  0.4687 -0.6300
 5583TIP3    H238165   5.219   5.603   9.768 -0.0720  0.1785 -0.3127
 5584TIP3   OH238166   5.658   1.686  10.912 -0.3054  0.0956  0.0726
 5584TIP3    H138167   5.610   1.604  10.911  2.1418 -1.4369 -0.6578
 5584TIP3    H238168   5.619   1.739  10.843 -0.6225 -1.2639 -0.8096
 5585TIP3   OH238169   4.747   6.604  12.131  0.3195 -0.0617 -0.1944
 5585TIP3    H138170   4.771   6.654  12.053  3.4554  0.2216  0.8081
 5585TIP3    H238171   4.684   6.660  12.177  0.1151  0.7550 -1.4203
 5586TIP3   OH238172   1.070   4.600   0.221 -0.6768 -0.2522  0.2537
 5586TIP3    H138173   1.125   4.593   0.299 -0.1821 -1.4072 -0.1722
 5586TIP3    H238174   0.983   4.571   0.251 -0.9512  1.0862  0.8045
 5587TIP3   OH238175   3.495   4.921  12.435  0.3270 -0.4324  0.3640
 5587TIP3    H138176   3.472   4.844  12.383 -1.0775  1.0230 -1.3293
 5587TIP3    H238177   3.411   4.964  12.452  0.9615  0.1753  2.2290
 5588TIP3   OH238178   0.698   3.501   0.613  0.7183  0.4339  0.4730
 5588TIP3    H138179   0.657   3.574   0.659  0.2970  0.1807  0.5076
 5588TIP3    H238180   0.661   3.423   0.654  1.0261  0.2027  0.3137
 5589TIP3   OH238181   4.534   4.851  11.826  0.0666  0.0333  0.1386
 5589TIP3    H138182   4.617   4.845  11.779  0.5825  2.0509  0.6527
 5589TIP3    H238183   4.559   4.852  11.918 -0.7681 -1.8538  0.4237
 5590TIP3   OH238184   4.572   1.114   4.805  0.1240  0.1525 -0.4445
 5590TIP3    H138185   4.581   1.198   4.849 -2.0092  0.4263 -0.4391
 5590TIP3    H238186   4.660   1.076   4.808  0.4908  0.9826  2.3237
 5591TIP3   OH238187   3.757   1.726  13.119  0.8628 -0.1142 -0.5866
 5591TIP3    H138188   3.711   1.657  13.071  0.0935 -0.5831  0.7738
 5591TIP3    H238189   3.713   1.807  13.093  0.8318 -0.2928 -1.1001
 5592TIP3   OH238190   5.144   5.123   9.882 -0.2107  0.6688 -0.1453
 5592TIP3    H138191   5.082   5.139   9.811 -1.9705  0.2773  1.2420
 5592TIP3    H238192   5.157   5.210   9.922  1.2537  1.0030 -1.2578
 5593TIP3   OH238193   4.744   2.705  15.339 -0.0390 -0.1270  0.2804
 5593TIP3    H138194   4.692   2.779  15.308 -0.0010 -0.6761 -1.1750
 5593TIP3    H238195   4.788   2.738  15.417 -0.2002  1.3066 -0.2045
 5594TIP3   OH238196   3.014   4.306   2.226 -0.6655  0.3756  0.5217
 5594TIP3    H138197   3.033   4.315   2.319  1.2890 -0.4900  0.2522
 5594TIP3    H238198   2.919   4.291   2.223 -0.6841 -0.2476  2.4254
 5595TIP3   OH238199   2.810   2.238   3.458 -0.0328  0.0178  0.1301
 5595TIP3    H138200   2.899   2.225   3.425 -0.4807 -0.7837 -0.8207
 5595TIP3    H238201   2.810   2.196   3.544  0.8921  1.3167  0.8050
 5596TIP3   OH238202   5.775   0.526   0.239  0.0536 -0.3926 -0.0305
 5596TIP3    H138203   5.815   0.441   0.256  1.5216  0.2975  0.1416
 5596TIP3    H238204   5.793   0.577   0.318  0.1711  0.4141 -0.5665
 5597TIP3   OH238205   6.167   4.570  11.846 -0.2895  0.2155  0.2107
 5597TIP3    H138206   6.157   4.529  11.760  0.3611  1.3624 -0.4454
 5597TIP3    H238207   6.153   4.663  11.829  1.4961  0.6784  1.0369
 5598TIP3   OH238208   0.007   6.747   4.227 -0.0069  0.2847 -0.4128
 5598TIP3    H138209  -0.056   6.787   4.286 -0.5494 -0.9996 -0.0781
 5598TIP3    H238210   0.035   6.819   4.170 -1.0191  1.1050  0.0737
 5599TIP3   OH238211   5.630   3.327  14.806  0.0770 -0.4314  0.3010
 5599TIP3    H138212   5.538   3.320  14.779 -1.1676 -1.0523  4.0218
 5599TIP3    H238213   5.656   3.415  14.781 -1.6117 -0.1807 -0.6948
 5600TIP3   OH238214   2.261   4.900   0.979  0.2388 -0.1941  0.2597
 5600TIP3    H138215   2.196   4.913   1.049 -0.0445 -0.4879  0.0550
 5600TIP3    H238216   2.231   4.958   0.908  0.3273 -0.1626  0.2482
 5601TIP3   OH238217   1.002   5.153   2.344 -0.3450  0.2081 -0.0064
 5601TIP3    H138218   0.917   5.188   2.368 -1.4770 -0.9730 -1.9988
 5601TIP3    H238219   1.040   5.220   2.286 -0.1859  0.4348  0.3526
 5602TIP3   OH238220   0.584   6.482  14.413  0.4276 -0.2790  0.3213
 5602TIP3    H138221   0.664   6.505  14.367  1.6040 -3.0853  0.7989
 5602TIP3    H238222   0.542   6.416  14.357  0.4042 -1.5894  1.8175
 5603TIP3   OH238223   3.852   5.512  15.614  0.4622  0.3114 -0.2109
 5603TIP3    H138224   3.805   5.594  15.629 -0.3361  0.2217 -1.9485
 5603TIP3    H238225   3.944   5.537  15.612  0.4511  0.7137  1.8805
 5604TIP3   OH238226   0.746   4.402   9.453  0.0650  0.3812  0.5228
 5604TIP3    H138227   0.831   4.394   9.496  0.2183 -1.6205 -0.0425
 5604TIP3    H238228   0.751   4.343   9.378 -2.0806 -0.3815  0.9016
 5605TIP3   OH238229   2.909   7.007  10.272 -0.2406 -0.3079  0.1272
 5605TIP3    H138230   2.908   6.914  10.296 -1.1954 -0.4665 -0.4607
 5605TIP3    H238231   2.983   7.016  10.213 -0.9862 -1.0263 -0.9664
 5606TIP3   OH238232   5.321   4.150  14.525 -0.0104 -0.1109 -0.0924
 5606TIP3    H138233   5.374   4.227  14.507 -1.1927  1.5431  2.8060
 5606TIP3    H238234   5.365   4.106  14.598  0.7211 -2.3918 -1.7727
 5607TIP3   OH238235   2.051   4.882  11.706 -0.1513  0.2314 -0.0405
 5607TIP3    H138236   2.091   4.879  11.619 -0.8705  1.6853 -0.4529
 5607TIP3    H238237   2.126   4.876  11.766  0.6520  1.9380 -0.7892
 5608TIP3   OH238238   2.973   4.561  14.159 -0.6365  0.1250  0.1464
 5608TIP3    H138239   2.958   4.638  14.104  2.5056  0.1596 -0.8499
 5608TIP3    H238240   2.889   4.516  14.160 -1.7171  1.8929 -1.9135
 5609TIP3   OH238241   5.599   1.501   0.893 -0.2136 -0.6486 -0.1884
 5609TIP3    H138242   5.590   1.588   0.856  1.5030 -0.5399 -0.3943
 5609TIP3    H238243   5.533   1.448   0.847 -1.4079  0.5431  0.0833
 5610TIP3   OH238244   6.046   5.347  12.075 -0.1019  0.1005  0.1555
 5610TIP3    H138245   6.011   5.394  11.999 -0.1211  0.3914  0.3464
 5610TIP3    H238246   6.022   5.401  12.150  1.0641  0.4851  0.2647
 5611TIP3   OH238247   1.225   2.231  13.698  0.0854  0.6099 -0.0681
 5611TIP3    H138248   1.141   2.186  13.693  0.3074 -0.0120  1.2846
 5611TIP3    H238249   1.204   2.317  13.732  0.0337  0.3134  0.6599
 5612TIP3   OH238250   4.689   4.723   4.187 -0.2344  0.0439 -0.6998
 5612TIP3    H138251   4.612   4.773   4.215 -0.4621  0.3324 -1.7706
 5612TIP3    H238252   4.652   4.644   4.147  0.0237  0.1539 -1.1606
 5613TIP3   OH238253   6.926   2.117   5.063  0.3071  0.5002  0.3262
 5613TIP3    H138254   6.982   2.114   4.986  0.1464  0.2185  0.2201
 5613TIP3    H238255   6.839   2.092   5.031  0.2367  0.3916  0.5961
 5614TIP3   OH238256   0.457   5.331  14.548  0.3567  0.3663  0.4427
 5614TIP3    H138257   0.432   5.422  14.566 -2.7309 -0.3377  0.2679
 5614TIP3    H238258   0.478   5.294  14.634 -2.0060  0.3245  1.0558
 5615TIP3   OH238259   5.266   2.427   3.022  0.1131  0.2890 -0.2652
 5615TIP3    H138260   5.343   2.477   3.047  0.9502 -1.3959  0.6864
 5615TIP3    H238261   5.233   2.471   2.943  3.0489  0.0311 -1.7400
 5616TIP3   OH238262   1.504   5.987  12.307  0.1564  0.0517  0.3031
 5616TIP3    H138263   1.553   6.067  12.329  0.1807  0.2926 -0.5918
 5616TIP3    H238264   1.479   5.999  12.215  0.0148 -0.9037  0.2116
 5617TIP3   OH238265   0.879   2.028   1.914  0.6123  0.4724 -0.0423
 5617TIP3    H138266   0.839   1.942   1.927  1.7133  0.1663  1.6159
 5617TIP3    H238267   0.861   2.049   1.822 -1.0079 -0.8161 -0.0606
 5618TIP3   OH238268   5.772   2.818  10.392  0.1939  0.7385  0.0324
 5618TIP3    H138269   5.858   2.789  10.423  1.1024  0.6747 -2.3588
 5618TIP3    H238270   5.731   2.739  10.357 -0.5572  0.9110  0.5100
 5619TIP3   OH238271   3.025   0.258  10.294  0.4392  0.7598 -0.4369
 5619TIP3    H138272   3.080   0.268  10.216  0.8412 -0.1687 -0.2886
 5619TIP3    H238273   3.014   0.347  10.327  0.8135  1.0942 -1.1818
 5620TIP3   OH238274   3.080   6.640   1.213  0.0796  0.3733 -0.0130
 5620TIP3    H138275   3.008   6.600   1.262 -0.2634  1.0047  0.0079
 5620TIP3    H238276   3.065   6.616   1.122 -0.2394  0.6216 -0.0265
 5621TIP3   OH238277   6.644   6.647   9.436 -0.2625  0.0984 -0.3976
 5621TIP3    H138278   6.559   6.691   9.433 -0.0172  0.7293  1.0170
 5621TIP3    H238279   6.651   6.613   9.525  0.7223 -0.4552 -0.6641
 5622TIP3   OH238280   3.553   5.396   2.714  0.2633  0.1840  0.2833
 5622TIP3    H138281   3.583   5.463   2.652  0.2056  1.1438  1.2455
 5622TIP3    H238282   3.534   5.445   2.794  0.8805 -1.0956  1.2436
 5623TIP3   OH238283   0.296   1.215   0.240 -0.3584  0.1442  0.7341
 5623TIP3    H138284   0.389   1.220   0.262 -0.2701 -1.6647  0.9348
 5623TIP3    H238285   0.294   1.162   0.160 -1.1501  1.1946  0.0265
 5624TIP3   OH238286   3.841   4.062  15.389 -0.5286  0.5228 -0.1605
 5624TIP3    H138287   3.850   3.993  15.324  0.4533  2.5218 -2.3147
 5624TIP3    H238288   3.928   4.070  15.428 -1.1882 -0.8729  1.7223
 5625TIP3   OH238289   3.391   4.957  10.181  0.2640 -0.8086  0.0899
 5625TIP3    H138290   3.463   4.999  10.134  0.8325 -2.5076 -0.6294
 5625TIP3    H238291   3.362   4.887  10.123 -0.0189 -2.0056  1.6041
 5626TIP3   OH238292   2.502   4.942  12.356 -0.2638  0.2707 -0.1133
 5626TIP3    H138293   2.544   4.995  12.289  0.6142 -0.6746 -0.3395
 5626TIP3    H238294   2.545   4.857  12.350 -0.8791 -0.1422  0.9662
 5627TIP3   OH238295   1.370   3.747   0.908 -0.2901 -0.6820 -0.9505
 5627TIP3    H138296   1.425   3.825   0.914 -0.1712 -0.7868 -0.6713
 5627TIP3    H238297   1.398   3.703   0.828  0.8398 -1.3473 -0.2217
 5628TIP3   OH238298   0.257   3.188  11.880  0.0930  0.9642 -0.0014
 5628TIP3    H138299   0.309   3.141  11.815 -2.1837  0.8269 -1.8258
 5628TIP3    H238300   0.190   3.233  11.830 -2.7380 -0.3859  2.2760
 5629TIP3   OH238301   5.700   3.151   1.411  0.2513 -0.4876 -0.2869
 5629TIP3    H138302   5.710   3.073   1.356  1.0107  0.5821 -1.7434
 5629TIP3    H238303   5.667   3.118   1.495  3.0553 -2.7299  0.0836
 5630TIP3   OH238304   4.783   1.932  12.868 -0.0759  0.3709  0.1513
 5630TIP3    H138305   4.801   1.893  12.782 -0.8714 -0.0715  0.1824
 5630TIP3    H238306   4.827   1.874  12.930  1.1100  1.0756  0.0227
 5631TIP3   OH238307   5.290   1.860  11.704 -0.2406 -0.1221 -0.5674
 5631TIP3    H138308   5.238   1.781  11.688  1.0072 -0.9812 -0.5165
 5631TIP3    H238309   5.264   1.889  11.791 -0.9405 -0.2970 -0.7136
 5632TIP3   OH238310   6.382   4.622  12.035  0.4935 -0.0280 -0.7130
 5632TIP3    H138311   6.315   4.603  11.969 -0.1121  1.6667 -0.6326
 5632TIP3    H238312   6.389   4.718  12.035  0.8378 -0.0116  1.3392
 5633TIP3   OH238313   5.944   4.430   9.774 -0.0596 -0.7302  0.2846
 5633TIP3    H138314   5.971   4.342   9.748  0.3006 -0.5893  0.1737
 5633TIP3    H238315   5.997   4.488   9.719  0.4842 -0.4298  1.1011
 5634TIP3   OH238316   0.376   0.728   0.733  0.6237 -0.0451 -0.0909
 5634TIP3    H138317   0.308   0.666   0.759  0.1328  0.8809  0.8878
 5634TIP3    H238318   0.333   0.787   0.671  0.9198 -0.2815 -0.5315
 5635TIP3   OH238319   0.014   2.382  15.327  0.2283  0.4504 -0.1657
 5635TIP3    H138320   0.089   2.385  15.267  1.0326 -1.8641  0.5956
 5635TIP3    H238321  -0.055   2.430  15.282  1.3741  0.4068 -2.0900
 5636TIP3   OH238322   7.076   1.003  11.114  0.3592  0.6406  0.2303
 5636TIP3    H138323   7.079   1.099  11.113  0.3676  0.6415  0.3381
 5636TIP3    H238324   7.035   0.981  11.197  1.8065  0.5096  0.9426
 5637TIP3   OH238325   0.194   4.698  13.913 -0.3735 -0.6131 -0.0608
 5637TIP3    H138326   0.197   4.788  13.945  1.7310 -1.4243  2.3319
 5637TIP3    H238327   0.103   4.671  13.926 -0.4140  0.3050  1.8611
 5638TIP3   OH238328   3.957   0.545   9.691  0.0908  0.0274  0.2438
 5638TIP3    H138329   3.904   0.574   9.617  1.7890  1.4696 -0.4536
 5638TIP3    H238330   3.964   0.622   9.748  2.8638  0.4880 -0.5731
 5639TIP3   OH238331   2.355   0.557  10.413 -0.3406  0.5461 -0.7137
 5639TIP3    H138332   2.317   0.531  10.330 -0.3783 -0.6264 -0.3485
 5639TIP3    H238333   2.284   0.600  10.460 -0.7096 -0.0405 -0.7355
 5640TIP3   OH238334   1.209   1.604  13.416 -0.2516 -0.5567  0.6063
 5640TIP3    H138335   1.177   1.635  13.331 -0.5499 -0.0016  0.9111
 5640TIP3    H238336   1.286   1.551  13.395  1.6324  2.1390  0.1553
 5641TIP3   OH238337   6.415   4.375  15.043 -0.5650  0.1502  0.0223
 5641TIP3    H138338   6.342   4.437  15.049 -1.4801 -0.6323 -2.1352
 5641TIP3    H238339   6.447   4.383  14.953  1.2287 -0.4273  0.5573
 5642TIP3   OH238340   1.194   1.030   0.524 -0.3731 -0.0979 -0.1012
 5642TIP3    H138341   1.117   1.085   0.522 -0.0594  0.3387 -0.2704
 5642TIP3    H238342   1.177   0.968   0.596  0.3030  1.7692  1.7846
 5643TIP3   OH238343   3.657   1.350  14.820 -0.5343 -0.0749  0.2466
 5643TIP3    H138344   3.583   1.406  14.798  1.1487  1.9376 -0.6419
 5643TIP3    H238345   3.700   1.395  14.893  0.5094 -0.5483 -0.0650
 5644TIP3   OH238346   4.004   6.970   3.484 -0.1635 -0.5023 -0.1068
 5644TIP3    H138347   3.915   6.938   3.470 -0.2698 -0.0791 -0.4357
 5644TIP3    H238348   4.012   6.978   3.580 -0.6260 -0.1549 -0.0912
 5645TIP3   OH238349   0.713   2.310  12.368 -0.0151  0.7649  0.0131
 5645TIP3    H138350   0.766   2.388  12.349  2.1618 -0.6606 -0.1028
 5645TIP3    H238351   0.764   2.262  12.433 -1.5530 -0.3580  0.4413
 5646TIP3   OH238352   4.268   4.824  12.103  0.3820  0.7002  0.3101
 5646TIP3    H138353   4.270   4.787  12.015  0.2722 -1.3203  1.1151
 5646TIP3    H238354   4.351   4.872  12.111  0.4841  0.7181 -0.8022
 5647TIP3   OH238355   6.677   2.196  14.656 -0.2649 -0.0062 -0.3072
 5647TIP3    H138356   6.675   2.246  14.574  0.4018 -0.5316 -0.6564
 5647TIP3    H238357   6.659   2.106  14.628 -1.3390  0.0048  0.2955
 5648TIP3   OH238358   5.657   4.979   1.808  0.4434  0.5844 -0.3338
 5648TIP3    H138359   5.639   4.994   1.901 -0.8935 -0.7094 -0.3539
 5648TIP3    H238360   5.578   5.011   1.763 -0.8624 -2.6581 -0.6460
 5649TIP3   OH238361   1.504   1.382   0.201 -0.2429  0.0831  0.1339
 5649TIP3    H138362   1.498   1.355   0.293 -0.8377 -2.3937 -0.5437
 5649TIP3    H238363   1.417   1.415   0.180 -0.0818  0.7349  0.4582
 5650TIP3   OH238364   6.467   5.615   0.163 -0.5821  0.4836  0.0062
 5650TIP3    H138365   6.489   5.669   0.087 -1.0261  0.0617 -0.4315
 5650TIP3    H238366   6.545   5.619   0.219 -0.3234  0.9500 -0.3830
 5651TIP3   OH238367   2.649   6.292  12.839  0.0517 -0.7194 -0.2542
 5651TIP3    H138368   2.594   6.349  12.893  1.7284  1.1963 -0.4641
 5651TIP3    H238369   2.592   6.267  12.766 -0.4511  1.6307 -0.7579
 5652TIP3   OH238370   4.088   5.327  11.492  0.0948 -0.0650 -0.1089
 5652TIP3    H138371   4.008   5.275  11.486  0.0380 -0.1540  1.1213
 5652TIP3    H238372   4.132   5.313  11.408 -0.8594 -0.5383 -0.5436
 5653TIP3   OH238373   5.214   7.024  10.348 -0.1217 -0.2923  0.2716
 5653TIP3    H138374   5.166   7.015  10.431 -1.8603 -1.1253 -0.7720
 5653TIP3    H238375   5.214   6.936  10.311  0.1181  0.1869 -0.9028
 5654TIP3   OH238376   6.401   1.138  12.112 -0.1896 -0.0146 -0.1470
 5654TIP3    H138377   6.323   1.120  12.164 -0.8822  0.0568 -1.1481
 5654TIP3    H238378   6.369   1.148  12.023  0.9141  0.4402 -0.5062
 5655TIP3   OH238379   6.357   3.730  13.596 -0.0956 -0.2036 -0.1473
 5655TIP3    H138380   6.428   3.788  13.570  1.6002 -1.0437  2.2416
 5655TIP3    H238381   6.367   3.653  13.541 -0.8874  0.7102 -1.6619
 5656TIP3   OH238382   0.570   4.384  11.521 -0.7166 -0.4231 -0.1986
 5656TIP3    H138383   0.561   4.298  11.479 -0.8258 -1.7368  2.3355
 5656TIP3    H238384   0.541   4.370  11.611  2.1981  1.4953  1.1935
 5657TIP3   OH238385   5.961   4.645  10.310  0.3943 -0.3575 -0.2668
 5657TIP3    H138386   6.055   4.631  10.322  0.5709 -1.1361 -2.1878
 5657TIP3    H238387   5.932   4.572  10.254 -1.6221 -0.8415  1.2798
 5658TIP3   OH238388   0.798   5.917  14.238  0.2348 -0.4008  0.0287
 5658TIP3    H138389   0.792   5.863  14.159 -0.4518  0.0279 -0.2227
 5658TIP3    H238390   0.888   5.949  14.238  0.2556 -0.4440 -0.5605
 5659TIP3   OH238391   3.919   0.666   1.359 -0.2184  0.9108  0.0226
 5659TIP3    H138392   3.834   0.683   1.400 -0.2209  0.9130  0.0165
 5659TIP3    H238393   3.979   0.726   1.403 -0.0072  0.1501  0.7752
 5660TIP3   OH238394   2.082   1.300   3.914 -0.6056  0.3456 -0.2154
 5660TIP3    H138395   2.095   1.381   3.963 -1.7620  0.0977  0.5409
 5660TIP3    H238396   2.171   1.270   3.893 -0.1513  1.4781  0.0176
 5661TIP3   OH238397   1.397   5.262   1.958 -0.0748  0.6708 -0.4340
 5661TIP3    H138398   1.485   5.263   1.995 -0.4124  1.7077  0.4035
 5661TIP3    H238399   1.410   5.255   1.864  0.8857  0.2652 -0.2787
 5662TIP3   OH238400   4.449   5.036  12.704  0.3869  0.2396  0.1236
 5662TIP3    H138401   4.490   5.099  12.763  0.5316  0.0645  0.2093
 5662TIP3    H238402   4.396   4.980  12.761  0.0866  0.4174  0.0227
 5663TIP3   OH238403   3.281   2.691  13.089  0.0373 -0.0466 -0.5794
 5663TIP3    H138404   3.369   2.721  13.069 -0.3760  1.7164  0.0213
 5663TIP3    H238405   3.226   2.730  13.020 -0.7376  2.1202  1.1369
 5664TIP3   OH238406   5.807   6.270  10.990  0.3208 -0.1434 -0.2493
 5664TIP3    H138407   5.780   6.180  11.008 -2.0434  0.6064  0.3994
 5664TIP3    H238408   5.886   6.283  11.043  0.2396 -1.5832  0.2651
 5665TIP3   OH238409   2.015   1.716   1.272 -0.2830 -0.3432 -0.4135
 5665TIP3    H138410   2.045   1.797   1.230 -0.5041  0.0062  0.0805
 5665TIP3    H238411   2.061   1.646   1.226 -1.9786 -0.1518 -2.5471
 5666TIP3   OH238412   3.000   5.627   3.957 -0.4005 -0.4750  0.4464
 5666TIP3    H138413   3.029   5.636   4.047  1.2879 -0.1705 -0.0933
 5666TIP3    H238414   3.071   5.581   3.912  0.7361  2.9106 -1.6024
 5667TIP3   OH238415   0.403   4.291  14.711 -0.4995  0.3293  0.1094
 5667TIP3    H138416   0.391   4.201  14.743  1.3398  0.9794  2.9447
 5667TIP3    H238417   0.419   4.280  14.617 -0.1423 -2.3558  0.3928
 5668TIP3   OH238418   3.228   7.115  10.404 -0.2370  0.6688  0.0122
 5668TIP3    H138419   3.202   7.196  10.448  1.2697  1.7447 -0.9656
 5668TIP3    H238420   3.226   7.138  10.310 -1.7757 -1.0614 -0.4288
 5669TIP3   OH238421   5.003   5.923   2.343 -0.6592 -0.1243 -0.2974
 5669TIP3    H138422   5.069   5.947   2.278  0.0267 -0.7097  0.1765
 5669TIP3    H238423   4.994   6.001   2.398  0.4675 -0.4264  0.3289
 5670TIP3   OH238424   1.092   6.472  12.552 -0.5581 -0.0283 -0.2075
 5670TIP3    H138425   1.077   6.522  12.632  1.7827  0.6319 -0.1044
 5670TIP3    H238426   1.130   6.535  12.491 -0.1601 -1.0305 -1.0397
 5671TIP3   OH238427   1.986   4.666   3.675 -0.3242  0.4281 -0.1893
 5671TIP3    H138428   1.961   4.651   3.584  0.0570  1.2678 -0.4412
 5671TIP3    H238429   2.063   4.611   3.688 -1.6338 -1.3906  0.2948
 5672TIP3   OH238430   6.512   5.989  12.429 -0.1572 -0.2452 -0.1003
 5672TIP3    H138431   6.504   5.894  12.436 -1.1103 -0.1728  0.0096
 5672TIP3    H238432   6.569   6.003  12.353 -0.6804 -0.8983 -0.6266
 5673TIP3   OH238433   4.509   0.592  12.100 -0.2478 -0.2214  0.4845
 5673TIP3    H138434   4.567   0.660  12.066  0.7631 -2.0195 -1.6955
 5673TIP3    H238435   4.442   0.639  12.149  2.8018  2.0217  2.9531
 5674TIP3   OH238436   4.827   3.846  14.860 -0.6730 -0.4351 -0.3320
 5674TIP3    H138437   4.739   3.866  14.891 -1.0195  0.3851 -1.7530
 5674TIP3    H238438   4.883   3.861  14.936 -1.7615 -1.2184  0.6624
 5675TIP3   OH238439   3.832   2.682   5.283  0.5062  0.0950  0.2067
 5675TIP3    H138440   3.917   2.660   5.321 -0.3646 -2.2253  1.0069
 5675TIP3    H238441   3.829   2.634   5.200 -0.0424  0.0897  0.2244
 5676TIP3   OH238442   5.061   1.044   1.071 -0.8466 -0.0686  0.3810
 5676TIP3    H138443   5.050   1.059   1.165 -1.2933  0.9663  0.1855
 5676TIP3    H238444   5.143   1.088   1.049 -2.3137  2.6067 -0.2531
 5677TIP3   OH238445   6.154   2.852   1.699 -0.1900 -0.0287  0.4139
 5677TIP3    H138446   6.169   2.910   1.774 -1.1866  1.0873 -0.2291
 5677TIP3    H238447   6.214   2.883   1.632 -0.4583  0.0039  0.1913
 5678TIP3   OH238448   5.381   0.850   0.941 -0.5583 -0.1249 -0.0754
 5678TIP3    H138449   5.453   0.791   0.922 -0.4576  0.1375 -0.5088
 5678TIP3    H238450   5.307   0.814   0.893 -0.6475 -0.2306  0.1380
 5679TIP3   OH238451   1.813   1.487  11.581  0.4900  0.0031 -0.0137
 5679TIP3    H138452   1.823   1.393  11.565 -1.1707 -0.2764  0.4013
 5679TIP3    H238453   1.738   1.513  11.527  0.3779  0.9099  0.5558
 5680TIP3   OH238454   1.252   6.918  14.112  0.1623 -0.1299  0.0102
 5680TIP3    H138455   1.173   6.865  14.125  0.2644  0.0656  1.5753
 5680TIP3    H238456   1.308   6.896  14.186  1.3909  0.0990 -0.8274
 5681TIP3   OH238457   4.898   3.404  10.219  0.2743  0.4295  0.5141
 5681TIP3    H138458   4.870   3.441  10.302 -0.3097  1.9564 -0.3122
 5681TIP3    H238459   4.868   3.468  10.153  2.8202  0.4999 -0.6999
 5682TIP3   OH238460   5.284   3.315   9.615  0.3792 -0.0070 -0.0619
 5682TIP3    H138461   5.357   3.376   9.614  0.7996 -0.5071 -0.6328
 5682TIP3    H238462   5.217   3.358   9.668  0.6454  0.9743 -0.5031
 5683TIP3   OH238463   6.812   2.646  11.947  0.5444  0.5468 -0.3229
 5683TIP3    H138464   6.872   2.585  11.903  0.6497 -0.6854  1.3973
 5683TIP3    H238465   6.725   2.619  11.918  0.6196 -0.1415  0.0676
 5684TIP3   OH238466   6.850   0.359   2.667 -0.1063  0.3532  0.0296
 5684TIP3    H138467   6.836   0.452   2.651  0.3513  0.5979  0.9836
 5684TIP3    H238468   6.934   0.354   2.712 -0.2846 -0.4936  0.2994
 5685TIP3   OH238469   3.647   3.015  15.360  0.5055 -0.6617 -0.1403
 5685TIP3    H138470   3.707   2.983  15.293  0.3556  1.7627 -1.5749
 5685TIP3    H238471   3.576   3.057  15.311  0.1937  0.8848  1.5130
 5686TIP3   OH238472   2.985   3.250  11.419 -0.0339 -0.1463  0.0008
 5686TIP3    H138473   2.961   3.262  11.327  1.2084 -0.5352 -0.3969
 5686TIP3    H238474   2.980   3.155  11.432 -1.6587  0.0244  0.7665
 5687TIP3   OH238475   0.256   1.457   2.222 -0.0477  0.0224  0.0110
 5687TIP3    H138476   0.282   1.370   2.254 -0.8720 -1.1921 -2.3735
 5687TIP3    H238477   0.311   1.472   2.145  0.0740  1.6355  0.3862
 5688TIP3   OH238478   0.604   5.921  13.102 -0.2565  0.0755  0.2469
 5688TIP3    H138479   0.609   6.016  13.096 -2.6808  0.2906  0.6461
 5688TIP3    H238480   0.529   5.898  13.048 -0.6774 -1.4455  1.4111
 5689TIP3   OH238481   0.211   0.557   0.911 -0.4862  0.6138  0.5041
 5689TIP3    H138482   0.163   0.620   0.964  0.4047  1.0186  0.8421
 5689TIP3    H238483   0.272   0.515   0.973 -1.0133 -0.5320  0.2738
 5690TIP3   OH238484   0.596   6.548   2.090  0.2784  0.7949 -0.1177
 5690TIP3    H138485   0.626   6.458   2.094 -0.5453  0.4625 -0.9169
 5690TIP3    H238486   0.501   6.542   2.096  0.3228  1.8612  3.0565
 5691TIP3   OH238487   0.065   3.269   2.489 -0.1239  0.0814  0.0879
 5691TIP3    H138488   0.133   3.252   2.554  0.5797  1.7148 -0.1591
 5691TIP3    H238489   0.071   3.364   2.473 -2.4177  0.2600 -0.0029
 5692TIP3   OH238490   3.943   3.417   1.201  0.1650 -0.0397  0.4289
 5692TIP3    H138491   3.928   3.326   1.225  0.6637  0.1476  1.5332
 5692TIP3    H238492   3.946   3.463   1.285  1.2508  0.7829 -0.0401
 5693TIP3   OH238493   6.642   4.062   0.819 -0.0472  0.0537  0.0520
 5693TIP3    H138494   6.579   4.009   0.769  0.7566 -1.7768  0.9115
 5693TIP3    H238495   6.647   4.019   0.904  2.1402  0.3319  0.1027
 5694TIP3   OH238496   5.575   0.238   2.724  0.0131 -0.7271  0.1705
 5694TIP3    H138497   5.655   0.212   2.770 -0.4112 -1.5923  0.4433
 5694TIP3    H238498   5.559   0.328   2.753  1.2651 -0.2778 -0.4296
 5695TIP3   OH238499   5.275   0.559  15.543  0.7091 -0.6371 -0.3419
 5695TIP3    H138500   5.188   0.597  15.532  0.9085 -0.6564 -2.2278
 5695TIP3    H238501   5.290   0.562  15.638 -0.0566  2.2150 -0.2285
 5696TIP3   OH238502   5.097   6.924  10.585  1.1110  0.0765 -0.1056
 5696TIP3    H138503   5.015   6.973  10.578  1.2898  0.5298  0.9209
 5696TIP3    H238504   5.073   6.834  10.561  1.0252  0.8238 -3.2457
 5697TIP3   OH238505   3.907   5.065  13.066  0.0759 -0.4279 -0.2550
 5697TIP3    H138506   3.846   5.127  13.027 -1.9820  0.4938  3.8222
 5697TIP3    H238507   3.990   5.112  13.070 -0.6728  0.9380 -0.0351
 5698TIP3   OH238508   6.259   1.712  10.170 -0.2770  0.7380 -0.2933
 5698TIP3    H138509   6.302   1.769  10.232  1.6199 -2.1203  1.2478
 5698TIP3    H238510   6.301   1.627  10.182 -2.5877 -0.9255 -2.7176
 5699TIP3   OH238511   6.683   3.241  13.602  0.6672 -0.2099 -0.1765
 5699TIP3    H138512   6.628   3.319  13.609 -0.2833 -0.9407  1.3467
 5699TIP3    H238513   6.639   3.186  13.537  0.2568 -0.2715  0.1469
 5700TIP3   OH238514   1.570   1.904  11.555 -0.3467 -0.1311 -0.3967
 5700TIP3    H138515   1.508   1.832  11.542  0.2978 -0.6680 -0.5386
 5700TIP3    H238516   1.514   1.982  11.563 -1.1466 -0.8129  1.1951
 5701TIP3   OH238517   1.145   2.484   1.660  0.2526 -0.2627  0.3553
 5701TIP3    H138518   1.076   2.473   1.725 -0.1420 -2.5307 -0.3542
 5701TIP3    H238519   1.099   2.491   1.576  0.8202 -0.1681  0.0426
 5702TIP3   OH238520   0.486   3.083  13.545  0.5036 -0.2023  0.2626
 5702TIP3    H138521   0.464   3.106  13.455 -1.4275  0.7949  0.9529
 5702TIP3    H238522   0.490   3.166  13.591  0.2377 -0.7778  1.3626
 5703TIP3   OH238523   0.700   1.318   2.755  0.0551 -0.0144  0.2494
 5703TIP3    H138524   0.679   1.268   2.833  2.3065 -0.9381  0.3503
 5703TIP3    H238525   0.788   1.288   2.730 -0.5595  0.2701 -2.6300
 5704TIP3   OH238526   5.618   1.381   2.560  0.4004  0.0255 -0.4222
 5704TIP3    H138527   5.597   1.288   2.558 -1.8291  0.4691 -0.1550
 5704TIP3    H238528   5.635   1.400   2.653  0.1862  0.0213 -0.3825
 5705TIP3   OH238529   4.658   0.864  11.714  0.0641 -0.3158 -0.0363
 5705TIP3    H138530   4.652   0.954  11.683  0.0180 -0.4759 -0.5103
 5705TIP3    H238531   4.647   0.870  11.808  1.2957  0.3011  0.0875
 5706TIP3   OH238532   7.039   0.410   2.947 -0.3869  0.3510  0.3476
 5706TIP3    H138533   7.106   0.351   2.982  0.7873  0.5732 -1.3682
 5706TIP3    H238534   6.974   0.417   3.016  0.3936 -1.4476  1.3297
 5707TIP3   OH238535   0.670   2.735  15.166  0.7368 -0.4010  0.6956
 5707TIP3    H138536   0.733   2.693  15.107  0.0511 -1.2698  0.5699
 5707TIP3    H238537   0.585   2.714  15.129  0.3591  0.6768  0.9300
 5708TIP3   OH238538   6.071   0.105  13.758 -0.6728 -0.2195 -0.0641
 5708TIP3    H138539   6.121   0.152  13.691 -0.5110  0.9451  0.8618
 5708TIP3    H238540   5.980   0.131  13.743 -0.5176  0.8784  0.8162
 5709TIP3   OH238541   3.187   1.302  14.869  0.0832 -0.6933 -0.1499
 5709TIP3    H138542   3.223   1.390  14.859 -3.1797  1.0915  1.7727
 5709TIP3    H238543   3.163   1.275  14.781  1.6401  0.0423 -0.8406
 5710TIP3   OH238544   4.564   1.460  12.299 -0.2654 -0.1131  0.3245
 5710TIP3    H138545   4.610   1.435  12.380 -0.4097 -1.4801  0.0092
 5710TIP3    H238546   4.471   1.456  12.322 -0.2896  0.2818  0.3022
 5711TIP3   OH238547   5.454   6.542   0.680  0.0414  0.2825 -0.6668
 5711TIP3    H138548   5.373   6.493   0.665  1.0258 -1.5808 -0.2719
 5711TIP3    H238549   5.523   6.480   0.657  1.3743  2.0276 -1.5897
 5712TIP3   OH238550   2.237   5.871   0.829 -0.2901 -0.3288 -0.0959
 5712TIP3    H138551   2.234   5.860   0.924 -1.3924 -0.0649 -0.0779
 5712TIP3    H238552   2.163   5.819   0.796 -0.0611 -0.2344 -0.7804
 5713TIP3   OH238553   4.929   1.452  12.663 -0.8746  0.0604  0.1387
 5713TIP3    H138554   4.963   1.362  12.667  0.6429  0.5301 -1.2470
 5713TIP3    H238555   5.007   1.507  12.657 -1.8229  1.3646 -0.5839
 5714TIP3   OH238556   1.394   1.017  14.085 -0.0968  0.0350  0.5140
 5714TIP3    H138557   1.403   0.970  14.002  1.1609  1.2360 -0.0800
 5714TIP3    H238558   1.346   1.097  14.062 -0.8026 -0.1837  1.1911
 5715TIP3   OH238559   3.531   2.761   2.548 -0.1583 -0.2910  0.3570
 5715TIP3    H138560   3.441   2.753   2.518 -0.9471  1.0121  2.1971
 5715TIP3    H238561   3.554   2.852   2.533  0.2037 -0.1687  1.5087
 5716TIP3   OH238562   5.166   6.342   0.022  0.0566  0.4453 -0.3515
 5716TIP3    H138563   5.147   6.292  -0.057 -1.4347  0.9374 -0.3413
 5716TIP3    H238564   5.260   6.328   0.038 -0.2900 -2.4158 -0.2931
 5717TIP3   OH238565   3.388   3.921  11.333 -0.0793  0.1156  0.1198
 5717TIP3    H138566   3.447   3.995  11.330 -1.2364  1.0520 -0.1684
 5717TIP3    H238567   3.428   3.855  11.276  0.1105  1.1678 -0.9946
 5718TIP3   OH238568   5.495   3.249  15.434  0.2571  0.4596 -0.2036
 5718TIP3    H138569   5.481   3.305  15.511  0.3417 -0.6126  0.6131
 5718TIP3    H238570   5.512   3.162  15.471 -1.4401 -0.4504 -1.4719
 5719TIP3   OH238571   0.482   4.277  13.828  0.4725 -0.0038  0.5405
 5719TIP3    H138572   0.400   4.291  13.876  0.0439 -2.0544  0.5106
 5719TIP3    H238573   0.491   4.355  13.773 -0.8861  0.7661  1.3426
 5720TIP3   OH238574   2.128   3.977  10.977 -0.2591 -0.3015 -0.3925
 5720TIP3    H138575   2.097   4.060  11.014  1.3663 -0.0306  0.4747
 5720TIP3    H238576   2.217   3.995  10.947  0.4931 -1.9410  0.6761
 5721TIP3   OH238577   1.036   5.543   0.119 -0.1314 -0.1396  0.4684
 5721TIP3    H138578   0.964   5.509   0.173 -0.5995 -0.1218 -0.1340
 5721TIP3    H238579   1.017   5.637   0.111 -0.5066 -0.2782 -0.3792
 5722TIP3   OH238580   0.555   5.216  13.420  0.4002  0.1501  0.0324
 5722TIP3    H138581   0.640   5.252  13.396 -0.0079  3.1919  2.4686
 5722TIP3    H238582   0.573   5.164  13.499  0.2195 -0.7416 -0.5009
 5723TIP3   OH238583   3.900   3.498   2.375  0.1742  0.0929  0.4877
 5723TIP3    H138584   3.819   3.549   2.363  0.1368 -0.4360 -2.2871
 5723TIP3    H238585   3.871   3.415   2.413 -0.7753 -0.4348 -1.2887
 5724TIP3   OH238586   6.086   0.388  11.302  0.2472 -0.3529  0.0113
 5724TIP3    H138587   6.093   0.477  11.337  1.6695 -0.4428  0.0296
 5724TIP3    H238588   6.098   0.331  11.378 -0.8220 -0.5799  0.0270
 5725TIP3   OH238589   2.611   0.080  11.563 -0.1007 -0.0562  0.0862
 5725TIP3    H138590   2.588   0.057  11.653  2.2142  0.0529  0.7900
 5725TIP3    H238591   2.601   0.175  11.559 -1.6837 -0.2120 -0.2811
 5726TIP3   OH238592   3.274   1.726  14.007  0.2888 -0.2135 -0.4647
 5726TIP3    H138593   3.327   1.653  14.040 -0.9031 -1.7635 -1.7900
 5726TIP3    H238594   3.305   1.741  13.918  0.0437  0.4123 -0.4518
 5727TIP3   OH238595   1.184   0.831  12.455 -0.0718  0.4543  0.0135
 5727TIP3    H138596   1.144   0.790  12.532 -1.8989  1.3184 -0.4126
 5727TIP3    H238597   1.208   0.757  12.399 -0.7513 -0.1316  0.4646
 5728TIP3   OH238598   4.885   6.129  13.109 -0.0298  0.1685  0.2304
 5728TIP3    H138599   4.790   6.121  13.117 -0.0254 -0.6299 -0.3037
 5728TIP3    H238600   4.914   6.041  13.081  0.9575  0.1515  1.2183
 5729TIP3   OH238601   0.569   2.936   2.527 -1.0027 -0.2597 -0.5899
 5729TIP3    H138602   0.514   2.863   2.555 -0.9625 -0.1071 -0.1037
 5729TIP3    H238603   0.527   3.013   2.564 -0.1665 -0.1891  0.2622
 5730TIP3   OH238604   0.228   1.946   0.156 -0.8122 -0.2829  0.4444
 5730TIP3    H138605   0.267   2.031   0.176 -0.8894 -0.3755  1.0188
 5730TIP3    H238606   0.288   1.906   0.094 -0.8977  0.2898 -0.0134
 5731TIP3   OH238607   3.476   0.807   4.010  0.1664 -1.0200 -0.0510
 5731TIP3    H138608   3.388   0.845   4.007  0.6457  0.7230  3.3302
 5731TIP3    H238609   3.483   0.768   4.097  2.4102 -2.0759 -0.6237
 5732TIP3   OH238610   3.495   5.939  10.700  0.4211 -0.4295  0.4368
 5732TIP3    H138611   3.428   5.887  10.657  0.0727  0.9450 -0.7596
 5732TIP3    H238612   3.454   6.023  10.716  1.1023 -0.3473  1.9497
 5733TIP3   OH238613   4.835   4.213  11.350 -0.3157 -0.3641  0.7629
 5733TIP3    H138614   4.882   4.205  11.267 -0.4797 -1.7351  0.7679
 5733TIP3    H238615   4.776   4.287  11.339 -1.4491 -1.4594 -0.9139
 5734TIP3   OH238616   4.048   6.841  15.090 -0.2276 -0.6505 -0.5920
 5734TIP3    H138617   4.062   6.842  14.995 -0.9554 -0.1948 -0.7039
 5734TIP3    H238618   4.034   6.749  15.112 -0.5833 -0.6969 -1.0080
 5735TIP3   OH238619   5.458   3.769  15.201 -0.0472  0.0802 -0.1037
 5735TIP3    H138620   5.402   3.753  15.125 -1.7752 -0.0966  1.1611
 5735TIP3    H238621   5.504   3.850  15.181 -0.4377  0.0064 -1.3454
 5736TIP3   OH238622   2.754   2.953   4.947  0.0964 -0.0502  0.1084
 5736TIP3    H138623   2.713   2.941   5.032  1.6135  3.2103  1.4788
 5736TIP3    H238624   2.682   2.949   4.884 -1.3931 -0.2799  1.7661
 5737TIP3   OH238625   1.849   5.411  14.385 -0.1045  0.2791 -0.0588
 5737TIP3    H138626   1.931   5.406  14.335  0.0844 -0.2842  0.2951
 5737TIP3    H238627   1.811   5.494  14.360 -0.2293 -0.1872 -1.4800
 5738TIP3   OH238628   3.166   0.835  13.642  0.1899  0.0187  0.3502
 5738TIP3    H138629   3.195   0.903  13.703 -1.7987  2.2469 -0.9694
 5738TIP3    H238630   3.076   0.816  13.668 -0.8681  1.3246 -1.9366
 5739TIP3   OH238631   5.257   4.013  11.825  0.2735  0.6141 -0.0109
 5739TIP3    H138632   5.172   3.969  11.819  0.6284 -0.1031  0.1258
 5739TIP3    H238633   5.256   4.077  11.754 -0.4087  0.6538  0.0315
 5740TIP3   OH238634   6.247   6.926   1.936  0.0395 -0.6520  0.7573
 5740TIP3    H138635   6.166   6.899   1.894  0.7795 -1.5059 -0.1889
 5740TIP3    H238636   6.227   7.011   1.976 -0.5459  0.6309 -1.9998
 5741TIP3   OH238637   5.169   5.266  12.623  0.9309 -0.3692  0.4788
 5741TIP3    H138638   5.144   5.335  12.561  1.6142 -0.0656  0.5285
 5741TIP3    H238639   5.092   5.254  12.678  1.1468  1.1009  1.1427
 5742TIP3   OH238640   1.730   3.370  10.786  0.5703  0.2319 -0.0082
 5742TIP3    H138641   1.667   3.439  10.808  0.5320  0.1318  0.1969
 5742TIP3    H238642   1.699   3.293  10.833  0.3984 -0.0269 -0.5311
 5743TIP3   OH238643   4.233   6.039  14.162  0.3782  0.3377  0.6548
 5743TIP3    H138644   4.201   6.015  14.075 -0.0099  1.2417  0.5367
 5743TIP3    H238645   4.306   5.979  14.178  0.5692  0.2808 -0.3669
 5744TIP3   OH238646   5.415   1.702   0.877 -0.0913 -0.7220 -0.2415
 5744TIP3    H138647   5.431   1.766   0.807 -0.5189 -1.4503 -1.0343
 5744TIP3    H238648   5.337   1.654   0.847 -1.2950  0.0330  1.5198
 5745TIP3   OH238649   5.280   2.295  11.491 -0.0347 -0.3245  0.5774
 5745TIP3    H138650   5.222   2.236  11.442  0.5787 -0.7901  0.3986
 5745TIP3    H238651   5.363   2.291  11.443  1.2045 -2.2791  2.6724
 5746TIP3   OH238652   3.267   3.699  11.467  0.1488 -0.2042 -0.1778
 5746TIP3    H138653   3.299   3.772  11.415 -2.0018  1.2514  0.4316
 5746TIP3    H238654   3.174   3.693  11.445 -0.1313 -1.5246  1.2308
 5747TIP3   OH238655   3.545   6.505  12.483  0.0913  0.0961  0.6258
 5747TIP3    H138656   3.480   6.444  12.518  1.5927 -2.0783 -0.2269
 5747TIP3    H238657   3.616   6.450  12.450  1.6533  2.3171  0.0211
 5748TIP3   OH238658   3.996   3.198  15.323 -0.3781 -0.4038 -0.2978
 5748TIP3    H138659   4.042   3.144  15.259  0.1005  0.3301 -0.5862
 5748TIP3    H238660   3.945   3.136  15.374  0.2184 -1.1362 -0.5706
 5749TIP3   OH238661   1.968   6.379  13.653 -0.4938 -0.6089  0.0355
 5749TIP3    H138662   1.944   6.296  13.694 -1.0033  0.6553  2.4880
 5749TIP3    H238663   1.885   6.417  13.625 -0.3728 -0.4827 -0.1509
 5750TIP3   OH238664   5.583   6.729  11.995 -0.0834  0.3209 -0.2167
 5750TIP3    H138665   5.559   6.788  11.924 -0.5402  2.2236  1.4192
 5750TIP3    H238666   5.501   6.686  12.019  0.1549 -0.6589 -1.0836
 5751TIP3   OH238667   0.390   1.787   3.836  0.3851 -0.0436  0.3725
 5751TIP3    H138668   0.372   1.746   3.751  1.9813 -0.7695  0.3517
 5751TIP3    H238669   0.325   1.747   3.895  0.9114 -1.4906  0.0202
 5752TIP3   OH238670   4.866   5.766  12.206 -0.1210 -0.1133 -0.1193
 5752TIP3    H138671   4.815   5.733  12.280 -2.8214  2.5452 -0.5997
 5752TIP3    H238672   4.835   5.717  12.131  0.0187 -0.3240 -0.0432
 5753TIP3   OH238673   4.265   7.057  11.402 -0.1728 -0.4682  0.0082
 5753TIP3    H138674   4.309   7.016  11.327 -0.5313  0.7124 -0.8945
 5753TIP3    H238675   4.178   7.018  11.402 -1.0416  1.2888 -1.7977
 5754TIP3   OH238676   2.759   4.663  12.330 -0.2384  0.4327 -0.1817
 5754TIP3    H138677   2.800   4.579  12.353 -0.6567  0.4584  0.7181
 5754TIP3    H238678   2.765   4.668  12.235  2.3123  0.6680 -0.0899
 5755TIP3   OH238679   4.304   4.985  10.243 -0.0396  0.5070  0.7658
 5755TIP3    H138680   4.367   5.019  10.179  0.9763 -0.6477  1.1066
 5755TIP3    H238681   4.332   4.895  10.258 -1.4314  0.1604  1.3950
 5756TIP3   OH238682   5.912   2.202  13.975  0.5912  0.1181  0.0307
 5756TIP3    H138683   5.984   2.256  13.943 -0.3968  0.6350 -1.4336
 5756TIP3    H238684   5.888   2.148  13.899 -0.6162  0.0140  0.4738
 5757TIP3   OH238685   0.303   6.555  12.026 -0.2172 -0.0086  0.9091
 5757TIP3    H138686   0.343   6.468  12.017 -0.3909 -0.1561  1.4922
 5757TIP3    H238687   0.209   6.539  12.019 -0.2034  0.2959 -0.1427
 5758TIP3   OH238688   6.938   1.195  14.470 -0.5302  0.1768 -0.0294
 5758TIP3    H138689   6.871   1.253  14.433  0.4979  1.0018 -0.6199
 5758TIP3    H238690   6.962   1.235  14.553 -0.1481  0.3538 -0.2238
 5759TIP3   OH238691   4.425   4.346   3.377  0.0442  0.2268 -0.9586
 5759TIP3    H138692   4.393   4.397   3.303 -0.2574 -0.9035 -1.6329
 5759TIP3    H238693   4.452   4.262   3.339  0.2091 -0.2511  0.1579
 5760TIP3   OH238694   1.550   6.618  14.705  0.1223 -0.3918  0.3274
 5760TIP3    H138695   1.482   6.582  14.761 -1.8907  0.6506 -1.3391
 5760TIP3    H238696   1.602   6.674  14.764 -0.7976 -0.7329  1.5010
 5761TIP3   OH238697   6.750   4.195  11.674  0.3199  0.2455  0.1983
 5761TIP3    H138698   6.719   4.109  11.648  0.7667  0.3333 -0.6663
 5761TIP3    H238699   6.779   4.184  11.765  0.0616 -0.4255  0.2022
 5762TIP3   OH238700   0.342   4.233   3.712  0.1155  0.2543 -0.1618
 5762TIP3    H138701   0.371   4.287   3.638 -2.3793  2.7745  0.5105
 5762TIP3    H238702   0.419   4.227   3.769  0.8192  2.2314 -0.8065
 5763TIP3   OH238703   3.061   4.710   9.936 -0.1849 -0.1323 -0.0566
 5763TIP3    H138704   3.093   4.655   9.865  1.7810 -0.4538  1.0134
 5763TIP3    H238705   2.968   4.689   9.943  0.1739 -2.1376 -0.7360
 5764TIP3   OH238706   2.843   5.497  11.183  0.2086 -0.0473 -0.1353
 5764TIP3    H138707   2.925   5.512  11.229 -0.4114  0.7948  0.7475
 5764TIP3    H238708   2.837   5.401  11.174  1.5915 -0.0825 -0.8263
 5765TIP3   OH238709   5.293   2.303  14.879  0.3048  0.0503 -0.0207
 5765TIP3    H138710   5.307   2.211  14.857 -1.0194 -0.3510  0.7037
 5765TIP3    H238711   5.377   2.345  14.862  0.4150 -0.9041 -2.2538
 5766TIP3   OH238712   1.221   0.309   4.559 -0.5671  0.3273  0.8052
 5766TIP3    H138713   1.139   0.336   4.602 -2.0129 -1.5881 -0.5666
 5766TIP3    H238714   1.235   0.376   4.492 -0.3225  1.3021  1.7842
 5767TIP3   OH238715   2.533   2.691   0.875  0.0070 -0.1718  0.2167
 5767TIP3    H138716   2.564   2.641   0.799 -1.4012 -0.4771 -0.1995
 5767TIP3    H238717   2.478   2.759   0.836 -1.7312 -1.0757  1.0004
 5768TIP3   OH238718   6.511   6.518  13.202 -0.3386 -0.0452  0.0846
 5768TIP3    H138719   6.421   6.488  13.215 -0.1416 -0.5372  0.3170
 5768TIP3    H238720   6.550   6.515  13.289 -0.4779  1.4543  0.2281
 5769TIP3   OH238721   0.394   4.441  10.862 -0.2941  0.0037 -0.1179
 5769TIP3    H138722   0.444   4.507  10.909 -0.8960  1.2024 -1.1048
 5769TIP3    H238723   0.381   4.370  10.926  0.0776  0.9806  1.0688
 5770TIP3   OH238724   2.656   4.701  14.211  0.1446  0.5846 -0.5194
 5770TIP3    H138725   2.679   4.609  14.197  1.6362  0.6238  1.2699
 5770TIP3    H238726   2.724   4.749  14.165 -0.5928  0.8194 -1.3883
 5771TIP3   OH238727   3.179   3.399  14.343  0.6854 -0.2053  0.0247
 5771TIP3    H138728   3.258   3.438  14.307  0.7620 -0.0810  0.3278
 5771TIP3    H238729   3.183   3.418  14.437 -1.0623  2.3297 -0.2840
 5772TIP3   OH238730   5.545   4.395   5.930 -0.5399  0.9754 -0.1596
 5772TIP3    H138731   5.482   4.412   6.000 -1.0284  0.2177 -0.4062
 5772TIP3    H238732   5.558   4.300   5.931  3.5216  1.3279  2.3819
 5773TIP3   OH238733   6.174   4.366  13.328  0.1634 -0.0738  0.3932
 5773TIP3    H138734   6.218   4.446  13.299 -0.0074 -0.2814 -0.4409
 5773TIP3    H238735   6.142   4.325  13.248 -0.8227 -0.3520  0.9061
 5774TIP3   OH238736   2.184   1.928   9.993  0.1414  0.0985 -0.1083
 5774TIP3    H138737   2.111   1.914   9.933  0.4354 -0.7632 -0.2870
 5774TIP3    H238738   2.212   1.840  10.018  0.7183  0.4264  0.4481
 5775TIP3   OH238739   6.883   6.919  12.017 -0.0709  0.2908  0.2063
 5775TIP3    H138740   6.876   6.994  12.076  0.5060  0.6604 -0.1827
 5775TIP3    H238741   6.796   6.910  11.978 -1.4893 -1.9179  3.4102
 5776TIP3   OH238742   6.914   5.340   2.530  0.5560 -0.1624  0.6598
 5776TIP3    H138743   6.853   5.274   2.497 -0.3611  0.6974  0.6106
 5776TIP3    H238744   6.952   5.379   2.452  0.1069  0.2838  0.6645
 5777TIP3   OH238745   5.926   3.367  12.570  0.3730 -0.9018  0.1930
 5777TIP3    H138746   5.940   3.351  12.476  1.5317  0.1174  0.1684
 5777TIP3    H238747   5.842   3.326  12.589  0.5713 -1.9497 -1.0841
 5778TIP3   OH238748   3.092   0.166  10.567 -0.2868 -0.5994  0.5572
 5778TIP3    H138749   3.077   0.220  10.490 -1.9255 -2.4002 -0.4851
 5778TIP3    H238750   3.120   0.227  10.634 -1.2769  1.4222 -0.7688
 5779TIP3   OH238751   1.859   3.242   0.834 -0.9661 -0.2095 -0.1436
 5779TIP3    H138752   1.924   3.282   0.891 -1.0611 -0.3397  0.0593
 5779TIP3    H238753   1.904   3.230   0.750 -1.1341  0.8932 -0.3994
 5780TIP3   OH238754   6.194   2.037   1.660  0.5071 -0.0755 -0.4915
 5780TIP3    H138755   6.199   2.111   1.600  0.5916 -0.5745 -1.1067
 5780TIP3    H238756   6.142   1.972   1.614  3.3835 -1.8231 -1.5527
 5781TIP3   OH238757   7.030   4.856  13.282  0.1012  0.2876 -0.1162
 5781TIP3    H138758   7.006   4.773  13.323  0.6349 -0.0912 -0.5400
 5781TIP3    H238759   6.949   4.889  13.245 -0.9226  1.7669  3.0864
 5782TIP3   OH238760   5.356   5.961  10.142  0.5568  0.5324 -0.5154
 5782TIP3    H138761   5.411   6.019  10.089 -0.1418  3.1155  1.3407
 5782TIP3    H238762   5.307   6.021  10.199 -1.0929 -1.8852  0.7854
 5783TIP3   OH238763   4.779   4.701   2.931  0.4722  0.6175 -0.0964
 5783TIP3    H138764   4.775   4.758   3.008 -0.4037  0.3062  0.1091
 5783TIP3    H238765   4.832   4.627   2.959 -1.2520 -0.3358  0.8219
 5784TIP3   OH238766   2.429   0.337  12.987  0.2319  1.0066  0.1032
 5784TIP3    H138767   2.447   0.242  12.987 -2.5567  0.3357 -2.2668
 5784TIP3    H238768   2.516   0.377  12.992  1.4604 -1.5812  2.6046
 5785TIP3   OH238769   4.801   0.896  14.550 -0.0545  0.4805 -0.3275
 5785TIP3    H138770   4.767   0.812  14.521 -0.7243  0.2094  1.1607
 5785TIP3    H238771   4.724   0.946  14.575  0.4911  0.5243  1.3731
 5786TIP3   OH238772   0.969   4.924   2.114  0.1852  0.5080 -0.4288
 5786TIP3    H138773   0.939   4.851   2.169 -2.3533 -0.7642 -3.2065
 5786TIP3    H238774   0.967   5.000   2.172  1.1942 -1.2422  2.1144
 5787TIP3   OH238775   2.650   1.784  12.094  0.3436 -0.3380 -0.0651
 5787TIP3    H138776   2.694   1.814  12.173  0.3383  1.0778 -0.5607
 5787TIP3    H238777   2.638   1.690  12.106  0.7038 -0.2049  1.4264
 5788TIP3   OH238778   4.400   0.947  13.683 -0.6071  0.1021  0.8273
 5788TIP3    H138779   4.342   1.017  13.654 -1.3255 -1.0278 -0.5984
 5788TIP3    H238780   4.341   0.877  13.711  0.0673 -0.6140  0.5015
 5789TIP3   OH238781   2.259   2.454  13.342 -0.2536  0.1168  0.5704
 5789TIP3    H138782   2.242   2.548  13.341 -0.4889  0.0730 -0.2848
 5789TIP3    H238783   2.220   2.421  13.261 -0.3785 -0.7578  0.9683
 5790TIP3   OH238784   3.847   6.330   4.391 -0.0479  0.1034 -0.3768
 5790TIP3    H138785   3.912   6.396   4.364  0.5314 -0.7464 -1.1328
 5790TIP3    H238786   3.874   6.305   4.479  0.6028 -0.1676 -0.6428
 5791TIP3   OH238787   6.747   3.964   9.619  0.2374  0.1485  0.1235
 5791TIP3    H138788   6.666   3.931   9.658  0.4084 -0.2464  0.1498
 5791TIP3    H238789   6.724   3.981   9.528  0.9949 -3.4362 -0.9125
 5792TIP3   OH238790   1.394   3.012   3.679 -0.2644  0.1853  0.0060
 5792TIP3    H138791   1.438   3.089   3.714 -0.2174  0.0932  0.1527
 5792TIP3    H238792   1.364   2.964   3.756 -1.0437  0.4842 -0.0962
 5793TIP3   OH238793   3.547   0.689  11.753 -0.4536  0.3536  0.0458
 5793TIP3    H138794   3.482   0.665  11.688  0.9782 -1.0131 -0.9745
 5793TIP3    H238795   3.501   0.746  11.814 -2.2674  0.3597 -1.2583
 5794TIP3   OH238796   6.633   2.141   9.971  0.1803  0.4616  0.0241
 5794TIP3    H138797   6.583   2.103   9.900 -0.0070  1.1273 -0.2114
 5794TIP3    H238798   6.712   2.176   9.929  0.1376  0.7288  0.1626
 5795TIP3   OH238799   2.247   2.391  11.718 -0.1803 -0.3732 -0.4157
 5795TIP3    H138800   2.193   2.406  11.640  0.9287 -1.2648 -1.3967
 5795TIP3    H238801   2.336   2.378  11.684 -0.1075 -3.6806  0.6786
 5796TIP3   OH238802   2.697   5.690   1.171  0.1535 -0.0043  0.4310
 5796TIP3    H138803   2.770   5.740   1.208 -0.5011 -0.2501  2.1338
 5796TIP3    H238804   2.667   5.744   1.097  0.7947  1.0734  0.9277
 5797TIP3   OH238805   2.259   7.062   5.970  0.0065 -0.7385 -0.4860
 5797TIP3    H138806   2.293   7.151   5.961 -1.3847  0.1395  1.9488
 5797TIP3    H238807   2.187   7.057   5.907 -0.0102 -0.0786 -0.5286
 5798TIP3   OH238808   1.094   2.809   3.153  0.5381 -0.3035  0.6992
 5798TIP3    H138809   1.071   2.891   3.109  1.4538  0.6218  1.8929
 5798TIP3    H238810   1.159   2.769   3.096 -1.1075 -1.0663 -0.7451
 5799TIP3   OH238811   5.434   3.398   4.522 -0.1887 -0.1417  0.1375
 5799TIP3    H138812   5.513   3.396   4.577  1.2876  1.3923 -1.7980
 5799TIP3    H238813   5.459   3.352   4.443 -0.3224  2.4552 -1.5341
 5800TIP3   OH238814   1.065   2.934  13.689 -0.7223  0.4735 -0.0896
 5800TIP3    H138815   1.062   2.974  13.776 -1.6909 -0.3155  0.2469
 5800TIP3    H238816   0.987   2.880  13.684 -1.8441  2.1095 -2.2327
 5801TIP3   OH238817   3.205   5.794  15.630  0.1411  0.2078 -0.2519
 5801TIP3    H138818   3.257   5.874  15.630  2.8940 -1.3697  2.0393
 5801TIP3    H238819   3.151   5.801  15.709  0.0385  0.0389 -0.3083
 5802TIP3   OH238820   3.529   4.811  12.026 -0.0152 -0.1625  0.1334
 5802TIP3    H138821   3.538   4.846  12.114 -0.6531  1.4824 -0.4229
 5802TIP3    H238822   3.437   4.825  12.004 -0.2764 -2.0517 -0.2110
 5803TIP3   OH238823   4.813   0.394   0.931 -0.3638 -0.2818 -0.0886
 5803TIP3    H138824   4.795   0.308   0.968 -1.0225 -0.6130 -1.1388
 5803TIP3    H238825   4.774   0.391   0.843  1.6018  0.2947 -1.0283
 5804TIP3   OH238826   6.726   2.273  11.787 -0.3820  0.1793  0.1190
 5804TIP3    H138827   6.740   2.201  11.726 -0.1708  2.5864 -2.9125
 5804TIP3    H238828   6.808   2.278  11.837 -0.4807 -1.7411  0.5524
 5805TIP3   OH238829   5.623   5.890  15.177  0.2610 -0.4364  0.5770
 5805TIP3    H138830   5.716   5.903  15.192  0.3583 -1.8768  1.3741
 5805TIP3    H238831   5.617   5.867  15.084  0.4886  1.2567  0.1120
 5806TIP3   OH238832   1.468   3.023  11.663  0.2142 -0.8030 -0.3305
 5806TIP3    H138833   1.496   3.001  11.574 -1.0536 -0.7889 -0.7484
 5806TIP3    H238834   1.395   3.084  11.651 -1.2414 -2.2825  0.6663
 5807TIP3   OH238835   4.582   3.120   4.014  0.1595 -0.1056  0.3240
 5807TIP3    H138836   4.620   3.158   4.093 -0.9822 -0.8917  1.2903
 5807TIP3    H238837   4.653   3.071   3.974  1.0650  1.2585  0.2103
 5808TIP3   OH238838   4.687   6.508   0.443  0.1262  0.3040  0.2255
 5808TIP3    H138839   4.734   6.425   0.439  2.7862  1.7119 -2.5498
 5808TIP3    H238840   4.694   6.536   0.535 -0.7741 -2.3958  1.1956
 5809TIP3   OH238841   1.744   6.613  14.237  0.4981  0.0607  0.3314
 5809TIP3    H138842   1.766   6.705  14.252  0.1567  0.0527  0.9232
 5809TIP3    H238843   1.688   6.589  14.311 -1.2162 -0.0060 -0.9232
 5810TIP3   OH238844   0.112   2.732  12.316 -0.1105 -0.5589 -0.1276
 5810TIP3    H138845   0.080   2.699  12.232 -2.5137  1.0383  0.0506
 5810TIP3    H238846   0.196   2.774  12.296 -1.5820  1.6538 -2.2535
 5811TIP3   OH238847   7.017   3.386  11.274  0.2133  0.3895  0.0937
 5811TIP3    H138848   7.005   3.475  11.307  3.3488 -0.4907  4.4398
 5811TIP3    H238849   7.111   3.379  11.257  0.1538 -2.2212  0.4348
 5812TIP3   OH238850   6.429   2.013  11.468  0.2602 -0.4471 -0.2640
 5812TIP3    H138851   6.372   2.079  11.427 -0.1525 -0.8670 -0.3814
 5812TIP3    H238852   6.447   2.048  11.555 -0.0708 -0.2423 -0.2741
 5813TIP3   OH238853   4.793   4.805   2.026 -0.6960  0.6582 -0.0554
 5813TIP3    H138854   4.700   4.828   2.023 -1.0595 -0.7830 -2.5772
 5813TIP3    H238855   4.795   4.711   2.011  1.2720  1.0629 -3.0881
 5814TIP3   OH238856   3.223   4.927  15.579  0.0325  0.5780  0.3480
 5814TIP3    H138857   3.220   4.842  15.624 -0.6505  1.6402  2.4416
 5814TIP3    H238858   3.176   4.912  15.497 -0.9728 -0.8386  1.1346
 5815TIP3   OH238859   3.773   6.723  12.230 -0.3248 -0.2557 -0.3065
 5815TIP3    H138860   3.701   6.722  12.293 -0.3375 -0.7852 -0.3221
 5815TIP3    H238861   3.824   6.800  12.253 -0.5598 -0.2168  0.0918
 5816TIP3   OH238862   3.225   6.712  11.788 -0.0310  0.1430 -0.9927
 5816TIP3    H138863   3.131   6.726  11.800 -0.3476 -1.7075 -0.9580
 5816TIP3    H238864   3.250   6.778  11.723 -1.8856 -0.8091 -2.8270
 5817TIP3   OH238865   0.630   4.286  12.903  0.3766  0.1051 -0.1883
 5817TIP3    H138866   0.607   4.345  12.831 -1.2216 -1.0654 -0.6892
 5817TIP3    H238867   0.546   4.262  12.941  0.9678 -1.9475 -0.0891
 5818TIP3   OH238868   6.551   3.628  10.511 -0.1176 -0.0277  0.6929
 5818TIP3    H138869   6.629   3.669  10.549 -0.5083  1.9101 -0.5043
 5818TIP3    H238870   6.585   3.568  10.445  0.4314 -1.1850  1.9783
 5819TIP3   OH238871   3.888   0.929  10.817  0.2157  0.3423  0.2382
 5819TIP3    H138872   3.976   0.963  10.797  0.4721  1.2643  2.5925
 5819TIP3    H238873   3.904   0.846  10.862 -0.2205 -0.3382 -0.8292
 5820TIP3   OH238874   4.926   0.086  12.376 -0.3707  0.5564  0.4906
 5820TIP3    H138875   4.965   0.124  12.455 -0.0478 -1.1633  1.1896
 5820TIP3    H238876   4.834   0.111  12.381 -0.2361  0.9683  1.0956
 5821TIP3   OH238877   1.752   0.245  10.572 -0.1733  0.0008  0.2465
 5821TIP3    H138878   1.666   0.211  10.596 -0.2712 -0.7106 -1.0123
 5821TIP3    H238879   1.752   0.245  10.476  1.4041 -0.5163  0.2110
 5822TIP3   OH238880   1.386   5.417  12.302  0.2357 -0.1916 -0.1546
 5822TIP3    H138881   1.472   5.389  12.333  0.1670 -0.3773 -0.1257
 5822TIP3    H238882   1.386   5.512  12.310  0.6948 -0.1277 -0.8107
 5823TIP3   OH238883   5.907   6.043   3.100  0.8125 -0.0109  0.0521
 5823TIP3    H138884   5.990   6.089   3.089  0.3679  0.6689 -0.6322
 5823TIP3    H238885   5.882   6.060   3.191  0.9550  0.5967 -0.0170
 5824TIP3   OH238886   6.897   4.280  10.070  0.0070  0.1883 -0.6193
 5824TIP3    H138887   6.957   4.352  10.051  0.6701 -0.5694 -1.4657
 5824TIP3    H238888   6.810   4.320  10.067  0.4542  1.4116  1.1780
 5825TIP3   OH238889   2.372   2.898   0.765 -0.2570  0.2232 -0.3981
 5825TIP3    H138890   2.377   2.861   0.677 -1.6022 -0.0081 -0.4118
 5825TIP3    H238891   2.279   2.920   0.776 -0.1362  0.1414  1.0060
 5826TIP3   OH238892   4.847   4.492   3.405 -0.2179  0.1730  0.2827
 5826TIP3    H138893   4.835   4.545   3.484 -1.3641  1.4537 -0.6752
 5826TIP3    H238894   4.923   4.530   3.361 -0.1375  0.0585  0.3221
 5827TIP3   OH238895   2.019   6.084  14.276 -0.0824  0.1632  0.5103
 5827TIP3    H138896   1.976   6.027  14.340 -0.8447 -0.4932 -0.5500
 5827TIP3    H238897   2.096   6.034  14.247 -0.7268 -0.3497 -0.3865
 5828TIP3   OH238898   1.069   0.890   1.758 -0.2830  0.0502 -0.4287
 5828TIP3    H138899   1.072   0.833   1.835  0.1700  0.4370 -0.1529
 5828TIP3    H238900   1.053   0.831   1.685  1.5016 -0.6397 -0.3311
 5829TIP3   OH238901   2.010   1.115  13.038  0.1457  0.1318 -0.0954
 5829TIP3    H138902   1.976   1.205  13.035  0.1748  0.1229 -1.1016
 5829TIP3    H238903   2.017   1.095  13.131  1.0534  1.5235  0.1665
 5830TIP3   OH238904   6.653   2.355  14.437 -0.0690  0.1105 -0.0008
 5830TIP3    H138905   6.583   2.383  14.378 -1.0992 -0.1910  1.0220
 5830TIP3    H238906   6.700   2.436  14.458 -0.0376  0.3039 -0.7889
 5831TIP3   OH238907   3.523   3.420   0.153  0.2066  0.0529 -0.0869
 5831TIP3    H138908   3.611   3.394   0.180 -0.3411 -1.0348  0.7377
 5831TIP3    H238909   3.521   3.515   0.167  0.2337 -0.3070  3.0022
 5832TIP3   OH238910   4.985   1.142   0.142  0.4001  0.1997  0.1372
 5832TIP3    H138911   5.057   1.098   0.188  0.1924 -1.0184 -0.6555
 5832TIP3    H238912   4.908   1.090   0.164  0.2425 -0.2028 -1.3025
 5833TIP3   OH238913   2.417   6.043  11.275 -0.2453  0.7734  0.1604
 5833TIP3    H138914   2.389   5.951  11.273 -0.2146  0.7666 -1.7161
 5833TIP3    H238915   2.479   6.051  11.202 -2.1533  2.8205 -1.3847
 5834TIP3   OH238916   2.088   1.160   1.567  0.0710  0.6807 -0.2964
 5834TIP3    H138917   1.995   1.183   1.562  0.1713  0.7807 -2.9010
 5834TIP3    H238918   2.088   1.068   1.594 -0.6289  1.2387  1.8780
 5835TIP3   OH238919   2.178   4.656  10.543 -0.6225  0.0248  0.1322
 5835TIP3    H138920   2.129   4.576  10.561 -1.5361  0.7465  0.9679
 5835TIP3    H238921   2.164   4.673  10.450 -0.7598 -0.5555  0.0462
 5836TIP3   OH238922   5.852   1.184  13.626 -0.1081  0.3286  0.2276
 5836TIP3    H138923   5.775   1.234  13.652 -1.3032 -1.2888 -0.1009
 5836TIP3    H238924   5.895   1.162  13.709  0.2105  1.4819  0.3962
 5837TIP3   OH238925   1.838   4.620  10.850  0.0116 -0.0544 -0.0444
 5837TIP3    H138926   1.809   4.596  10.938 -0.9499 -0.5478 -0.4820
 5837TIP3    H238927   1.923   4.576  10.840 -0.0450 -0.2895  0.5032
 5838TIP3   OH238928   5.644   6.446  14.245  0.4345 -0.4960  0.3271
 5838TIP3    H138929   5.673   6.525  14.291  2.8379 -0.0851 -1.6869
 5838TIP3    H238930   5.661   6.465  14.153 -0.2002 -2.8838 -0.3433
 5839TIP3   OH238931   1.692   6.256   3.717  0.0319 -0.4684 -0.8592
 5839TIP3    H138932   1.758   6.189   3.737  0.7471  1.3224  4.4666
 5839TIP3    H238933   1.743   6.329   3.682  0.2095 -0.5911 -0.8616
 5840TIP3   OH238934   1.676   0.161  12.847 -0.1465 -0.1087  0.0581
 5840TIP3    H138935   1.664   0.240  12.900 -2.1094  0.4075 -1.0511
 5840TIP3    H238936   1.607   0.102  12.877 -2.9724  1.0863 -3.3405
 5841TIP3   OH238937   5.710   4.083  13.567 -0.2370  0.2780 -0.3936
 5841TIP3    H138938   5.781   4.086  13.503  0.7170 -0.2679  0.5987
 5841TIP3    H238939   5.724   4.000  13.614 -0.3352  1.1117  1.1549
 5842TIP3   OH238940   5.402   3.023  12.470  0.3043 -0.6592 -0.9893
 5842TIP3    H138941   5.430   3.113  12.458 -0.6103 -0.2541 -0.1814
 5842TIP3    H238942   5.406   2.984  12.383 -1.1987  0.7211 -1.7152
 5843TIP3   OH238943   5.410   5.875  10.416  0.0221  0.3899 -0.5831
 5843TIP3    H138944   5.320   5.881  10.449  0.4652  1.3479  0.5167
 5843TIP3    H238945   5.400   5.865  10.321 -1.2322  0.5275 -0.4892
 5844TIP3   OH238946   0.820   3.070   1.178 -0.8719 -0.2462  0.2336
 5844TIP3    H138947   0.789   3.099   1.264 -1.4653 -2.0176  0.6623
 5844TIP3    H238948   0.740   3.057   1.127 -0.6315 -1.0995  0.0679
 5845TIP3   OH238949   6.907   1.150   0.023  0.1272  0.4250 -0.6773
 5845TIP3    H138950   6.884   1.057   0.027  2.2597 -0.1156  0.6717
 5845TIP3    H238951   6.844   1.193   0.081 -1.4489  0.0388 -1.9876
 5846TIP3   OH238952   2.572   4.429   2.705 -0.2226  0.5733 -0.3086
 5846TIP3    H138953   2.589   4.383   2.787 -0.4530 -0.2017 -0.6885
 5846TIP3    H238954   2.585   4.363   2.637 -1.2126  0.8883 -0.8216
 5847TIP3   OH238955   6.254   4.233   1.712  0.7453 -0.1097 -0.1197
 5847TIP3    H138956   6.317   4.304   1.701  0.8880  0.2217  2.3125
 5847TIP3    H238957   6.170   4.277   1.722  0.1618 -0.5213 -2.5460
 5848TIP3   OH238958   1.791   1.813  10.415  0.2808  0.6225  0.0801
 5848TIP3    H138959   1.790   1.731  10.365  0.3589  0.5731  0.1607
 5848TIP3    H238960   1.883   1.838  10.419  0.3946  0.0492  1.1540
 5849TIP3   OH238961   0.477   2.864   3.345 -0.4770  0.1055 -0.0031
 5849TIP3    H138962   0.396   2.856   3.395  0.5144 -0.4821  1.6200
 5849TIP3    H238963   0.465   2.808   3.269 -2.2182  1.3733 -0.7280
 5850TIP3   OH238964   0.337   3.169   4.761  0.1090 -0.1307  0.0127
 5850TIP3    H138965   0.389   3.244   4.791  0.0361 -0.7349  1.8240
 5850TIP3    H238966   0.397   3.095   4.770 -0.6500 -0.6562  0.9538
 5851TIP3   OH238967   3.888   6.977  12.324 -0.4150 -0.4849  0.4143
 5851TIP3    H138968   3.824   7.025  12.271  1.4780 -0.2006 -1.7679
 5851TIP3    H238969   3.864   6.997  12.414 -3.0471  0.0171 -0.3075
 5852TIP3   OH238970   3.221   3.874   0.624 -0.1998  0.4982 -0.0547
 5852TIP3    H138971   3.226   3.875   0.528 -1.4059 -0.0773 -0.1418
 5852TIP3    H238972   3.310   3.855   0.652 -0.3116 -2.1516 -1.1457
 5853TIP3   OH238973   3.629   1.221  11.128  0.2310 -1.0160 -0.3107
 5853TIP3    H138974   3.695   1.286  11.153  0.9760 -1.4999 -0.9671
 5853TIP3    H238975   3.545   1.266  11.138  0.6113 -0.5901  1.1806
 5854TIP3   OH238976   3.581   3.903  11.889  0.3123 -0.0483  0.1600
 5854TIP3    H138977   3.524   3.880  11.816 -0.2243  0.8956  0.2576
 5854TIP3    H238978   3.644   3.964  11.852 -0.0488  0.5438  0.5021
 5855TIP3   OH238979   4.840   5.469  13.504  0.3631 -0.5188 -0.0379
 5855TIP3    H138980   4.748   5.455  13.481  0.1504  0.6736  0.0142
 5855TIP3    H238981   4.840   5.475  13.599  0.1838  1.2643 -0.1055
 5856TIP3   OH238982   3.184   0.025  10.120  0.1185  0.1224 -0.1186
 5856TIP3    H138983   3.154  -0.064  10.105  1.0555 -0.0925 -0.8451
 5856TIP3    H238984   3.110   0.080  10.094 -0.2105 -0.4214 -0.3550
 5857TIP3   OH238985   1.229   3.674   1.148  0.1763  0.1525 -0.0444
 5857TIP3    H138986   1.232   3.579   1.158  2.1000 -0.0358 -1.8771
 5857TIP3    H238987   1.253   3.690   1.057 -1.8552  2.3470 -0.2972
 5858TIP3   OH238988   2.202   1.763   5.746 -0.4370  0.5312 -0.4182
 5858TIP3    H138989   2.252   1.719   5.815 -0.2406  0.6833 -0.4601
 5858TIP3    H238990   2.119   1.717   5.742 -0.5793  0.7343  0.1477
 5859TIP3   OH238991   0.542   6.026  10.505  0.0672 -0.2414  0.0628
 5859TIP3    H138992   0.527   5.947  10.454 -1.0023  0.2247 -0.3903
 5859TIP3    H238993   0.635   6.043  10.497  0.1736 -1.0176 -0.4769
 5860TIP3   OH238994   4.727   3.579  10.855 -0.1847 -0.1563  0.3496
 5860TIP3    H138995   4.812   3.538  10.868 -0.9318 -1.7210  0.6097
 5860TIP3    H238996   4.679   3.561  10.937 -0.9221  0.2996  0.0351
 5861TIP3   OH238997   3.443   2.533   4.075  0.2619  0.1248  0.2534
 5861TIP3    H138998   3.411   2.450   4.109 -2.1886  1.0495  0.4347
 5861TIP3    H238999   3.444   2.523   3.980 -0.8553  0.1359  0.2308
 5862TIP3   OH239000   0.141   6.767   1.950 -0.0214 -0.1943  0.2213
 5862TIP3    H139001   0.068   6.776   2.011 -1.8886  1.4747 -2.0625
 5862TIP3    H239002   0.204   6.834   1.979  0.1132 -0.8597  1.5257
 5863TIP3   OH239003   4.883   5.559  10.064 -0.3000  0.2749 -0.3724
 5863TIP3    H139004   4.945   5.492  10.035 -0.6917 -0.7327  0.9764
 5863TIP3    H239005   4.836   5.585   9.985  1.5407  0.7685 -1.3364
 5864TIP3   OH239006   5.920   4.825  12.342 -1.2147  0.0248  0.2280
 5864TIP3    H139007   5.988   4.890  12.354 -1.4565  0.3809 -0.2655
 5864TIP3    H239008   5.893   4.801  12.430  2.4218 -3.2766  0.6936
 5865TIP3   OH239009   3.948   4.021  10.521  0.9221 -0.3948  0.3833
 5865TIP3    H139010   3.967   4.113  10.538 -0.6215  0.0393 -0.0466
 5865TIP3    H239011   3.904   3.991  10.601  1.0869 -0.6521  0.3779
 5866TIP3   OH239012   3.330   0.454  15.084 -0.1616 -0.2561  0.0304
 5866TIP3    H139013   3.344   0.361  15.069 -1.1132 -0.6940  1.6465
 5866TIP3    H239014   3.323   0.463  15.179  1.4295  1.7054  0.0377
 5867TIP3   OH239015   4.862   3.641   4.341 -0.8422 -0.2641 -0.2410
 5867TIP3    H139016   4.901   3.728   4.341  0.2343 -0.7248 -0.1321
 5867TIP3    H239017   4.795   3.645   4.273 -0.7496  0.6271 -0.2895
 5868TIP3   OH239018   0.989   4.645  12.671  0.3323  0.3689  0.2276
 5868TIP3    H139019   0.972   4.736  12.694  0.8951  0.8045 -1.0270
 5868TIP3    H239020   1.057   4.617  12.732 -0.9108  0.2906  1.6383
 5869TIP3   OH239021   1.552   4.907  12.174  0.0125 -0.0560 -0.0017
 5869TIP3    H139022   1.488   4.974  12.198  0.4280  0.1108  0.6446
 5869TIP3    H239023   1.510   4.824  12.197 -0.5769 -0.0437 -0.9675
 5870TIP3   OH239024   0.879   0.991  13.181  0.1281 -0.3895 -0.1014
 5870TIP3    H139025   0.880   0.992  13.085 -0.0619  0.4252 -0.1022
 5870TIP3    H239026   0.904   1.080  13.206 -2.3873  0.1987  0.5636
 5871TIP3   OH239027   3.810   1.819  14.235 -0.0649 -0.2956 -0.0464
 5871TIP3    H139028   3.723   1.848  14.208 -0.1657 -0.8452 -0.3235
 5871TIP3    H239029   3.870   1.861  14.174 -0.2977 -1.6259 -1.2300
 5872TIP3   OH239030   1.584   6.075   9.866  0.5134  0.1047  0.0173
 5872TIP3    H139031   1.596   6.170   9.870  0.8920  0.0072  2.0855
 5872TIP3    H239032   1.561   6.049   9.955 -2.5416 -1.4074 -1.0725
 5873TIP3   OH239033   2.485   4.292   3.683 -0.2274  0.1361 -0.1417
 5873TIP3    H139034   2.433   4.235   3.626  1.8357  0.0687 -2.0657
 5873TIP3    H239035   2.558   4.321   3.629  0.5313  2.0755  1.7631
 5874TIP3   OH239036   5.754   2.584  14.839  0.5557  0.3624  0.0121
 5874TIP3    H139037   5.770   2.621  14.752 -1.0652  0.5148 -0.2584
 5874TIP3    H239038   5.782   2.493  14.833 -1.5865 -0.2678 -1.3984
 5875TIP3   OH239039   1.008   2.391  10.652  0.7230 -0.0432  0.2834
 5875TIP3    H139040   1.072   2.392  10.722 -0.6345  0.3889  1.5685
 5875TIP3    H239041   1.046   2.335  10.585  1.8192 -0.9097  1.5897
 5876TIP3   OH239042   3.916   6.500   3.479 -0.1009  0.6768  0.4031
 5876TIP3    H139043   3.868   6.550   3.413 -0.3107 -0.4113 -0.2989
 5876TIP3    H239044   3.849   6.475   3.543 -0.7926 -1.7523 -1.1218
 5877TIP3   OH239045   6.480   4.731  14.218  0.7860 -0.1322 -0.6739
 5877TIP3    H139046   6.547   4.714  14.152 -1.6842 -2.7089 -2.7654
 5877TIP3    H239047   6.415   4.784  14.173 -0.1222 -0.4164  0.2611
 5878TIP3   OH239048   6.631   4.069  14.753  0.0492 -0.4664 -0.4279
 5878TIP3    H139049   6.580   4.125  14.694  1.7863  1.3206 -0.3553
 5878TIP3    H239050   6.579   4.064  14.833 -0.6477  0.1589 -0.8301
 5879TIP3   OH239051   7.098   2.615   1.822 -0.2455 -0.2771 -0.5487
 5879TIP3    H139052   7.044   2.694   1.820  0.5063  0.3218  1.1053
 5879TIP3    H239053   7.183   2.642   1.788  0.1776 -0.2100  0.5208
 5880TIP3   OH239054   0.419   3.880   4.839 -0.2815 -0.0162 -0.0667
 5880TIP3    H139055   0.333   3.855   4.874 -0.5142  1.4703  0.5082
 5880TIP3    H239056   0.415   3.858   4.746 -0.9775 -0.7094  0.1167
 5881TIP3   OH239057   6.612   5.448  10.806  0.4391  0.2135  0.1248
 5881TIP3    H139058   6.594   5.542  10.809 -0.0597  0.1280 -0.1071
 5881TIP3    H239059   6.526   5.407  10.799  0.6901 -0.0761 -4.4806
 5882TIP3   OH239060   7.077   3.763  14.038 -0.2414 -0.0693  0.2527
 5882TIP3    H139061   7.116   3.849  14.053  0.2415 -0.0114 -1.1843
 5882TIP3    H239062   6.990   3.783  14.004  0.4233 -0.0791 -1.5664
 5883TIP3   OH239063   6.521   1.907  10.077  0.7434  0.0067 -0.0382
 5883TIP3    H139064   6.506   1.896  10.171 -2.1997  2.3578 -0.0744
 5883TIP3    H239065   6.590   1.973  10.072  0.8161 -0.0191  0.4837
 5884TIP3   OH239066   2.682   6.156   1.122 -0.0519  0.1279 -0.1985
 5884TIP3    H139067   2.721   6.136   1.037 -1.5259 -1.0504 -0.6430
 5884TIP3    H239068   2.719   6.241   1.146  2.4265 -0.7216 -0.7484
 5885TIP3   OH239069   3.421   2.768  11.615  0.4858  0.0029  0.4896
 5885TIP3    H139070   3.429   2.863  11.604 -0.5977  0.0022 -0.5867
 5885TIP3    H239071   3.509   2.734  11.600  1.1677  0.9154  2.1275
 5886TIP3   OH239072   5.493   3.135  10.722  0.2824  0.3790  0.3641
 5886TIP3    H139073   5.428   3.082  10.767  0.9699 -0.1107  0.8125
 5886TIP3    H239074   5.476   3.120  10.629  1.4702 -1.9967  0.4488
 5887TIP3   OH239075   3.282   4.387  11.045 -0.5943  0.3036  0.2241
 5887TIP3    H139076   3.256   4.339  11.123  1.1546  1.9387  1.9197
 5887TIP3    H239077   3.372   4.359  11.029 -1.3900 -1.1558 -2.2001
 5888TIP3   OH239078   0.271   6.396  14.047  0.1001  0.3448 -0.0907
 5888TIP3    H139079   0.355   6.382  14.003 -0.6033  0.4121 -1.5086
 5888TIP3    H239080   0.208   6.410  13.976 -1.0078  0.9174  0.9565
 5889TIP3   OH239081   3.782   4.338  13.145 -0.2833  0.6321  0.4607
 5889TIP3    H139082   3.723   4.356  13.072  0.7745  2.1685 -0.0533
 5889TIP3    H239083   3.728   4.352  13.223 -1.4352 -1.0774  0.0298
 5890TIP3   OH239084   0.970   7.078  13.591  0.6586  1.2513  0.1350
 5890TIP3    H139085   1.018   7.155  13.558  1.3849  0.4006 -0.8733
 5890TIP3    H239086   1.012   7.059  13.675  2.3418  0.3734 -0.8378
 5891TIP3   OH239087   0.334   1.779  12.846  0.3644  0.0470 -0.8157
 5891TIP3    H139088   0.355   1.859  12.895 -0.4790  0.9551 -1.8951
 5891TIP3    H239089   0.286   1.809  12.769  0.9973 -1.4165 -1.8321
 5892TIP3   OH239090   2.218   0.313   3.135  0.8181 -0.1990  0.2503
 5892TIP3    H139091   2.140   0.332   3.187  0.7360  1.5881 -0.4455
 5892TIP3    H239092   2.195   0.234   3.085 -0.7089  0.5211 -0.2398
 5893TIP3   OH239093   5.639   1.847   2.244 -0.4315  0.0502 -0.0767
 5893TIP3    H139094   5.671   1.924   2.292 -1.7147  1.5664 -1.5378
 5893TIP3    H239095   5.603   1.883   2.163 -2.7353 -1.9028  0.0023
 5894TIP3   OH239096   5.567   1.586  14.783  0.2524 -0.0569  0.6533
 5894TIP3    H139097   5.501   1.524  14.815 -0.8616  1.1926  0.8948
 5894TIP3    H239098   5.650   1.552  14.816 -0.3219 -1.3761  0.8213
 5895TIP3   OH239099   4.122   0.459  11.960 -1.0540 -0.1131  0.2939
 5895TIP3    H139100   4.213   0.430  11.971 -0.6011  1.2018  0.2545
 5895TIP3    H239101   4.125   0.520  11.887 -2.1588 -0.7679 -0.3143
 5896TIP3   OH239102   1.044   0.673   0.343 -0.2269 -0.0964 -0.0006
 5896TIP3    H139103   1.123   0.644   0.297  2.0277  0.7826  3.0337
 5896TIP3    H239104   1.040   0.768   0.327 -0.8951 -0.1746 -0.3705
 5897TIP3   OH239105   1.463   5.688   4.846  0.5025  0.1947  0.6249
 5897TIP3    H139106   1.477   5.709   4.753  2.4575  0.5814  0.9490
 5897TIP3    H239107   1.521   5.613   4.862  0.0710  0.0375  1.5042
 5898TIP3   OH239108   1.925   4.398   0.785 -0.0422  0.1992 -0.2892
 5898TIP3    H139109   1.907   4.315   0.829 -0.1297  0.6634  0.5720
 5898TIP3    H239110   1.905   4.381   0.692  1.0991 -1.0893 -0.3335
 5899TIP3   OH239111   2.473   5.796   0.709 -0.0389 -0.3889 -0.2509
 5899TIP3    H139112   2.453   5.731   0.642  0.0497 -0.1919 -0.4698
 5899TIP3    H239113   2.388   5.828   0.739 -0.1210 -1.2419  0.4934
 5900TIP3   OH239114   1.292   3.745   0.507  0.0458 -0.3171 -0.1203
 5900TIP3    H139115   1.267   3.670   0.453 -1.6489  0.5021 -0.5363
 5900TIP3    H239116   1.361   3.711   0.565 -0.3929 -2.0743 -0.5693
 5901TIP3   OH239117   6.936   5.787  10.237  0.2875 -0.1764  0.1983
 5901TIP3    H139118   6.889   5.738  10.169  0.3801 -1.5290  1.0796
 5901TIP3    H239119   7.015   5.819  10.193  1.5198 -2.9753  0.1774
 5902TIP3   OH239120   2.693   2.106   0.327 -0.4873  0.0735  0.6241
 5902TIP3    H139121   2.663   2.162   0.256 -0.1594  0.2867  0.6527
 5902TIP3    H239122   2.788   2.120   0.331  0.0211 -2.3379 -1.0183
 5903TIP3   OH239123   6.681   1.455  13.800 -0.4559  0.1549 -0.5177
 5903TIP3    H139124   6.616   1.393  13.833 -0.7058  1.1627  0.9678
 5903TIP3    H239125   6.661   1.537  13.844  1.0768  0.8093 -0.9637
 5904TIP3   OH239126   0.093   1.226  13.147 -0.7644  0.5068  0.2895
 5904TIP3    H139127   0.111   1.134  13.163  0.4965  0.5341 -0.7378
 5904TIP3    H239128   0.033   1.252  13.216  2.2676  0.0329  3.3661
 5905TIP3   OH239129   2.086   5.430  14.256 -0.4664 -0.3279 -0.1789
 5905TIP3    H139130   2.083   5.502  14.318  1.5929  1.9591 -2.4741
 5905TIP3    H239131   2.179   5.405  14.253 -0.8632 -1.8529 -0.7600
 5906TIP3   OH239132   4.914   6.558  10.826 -0.4629  0.2316 -0.2112
 5906TIP3    H139133   4.974   6.631  10.841  0.2071 -0.4269  0.3759
 5906TIP3    H239134   4.896   6.561  10.732 -0.3969  1.1127 -0.2013
 5907TIP3   OH239135   5.322   5.899  11.312 -0.1277  0.3728  0.2982
 5907TIP3    H139136   5.408   5.861  11.326 -1.0899 -2.4033 -0.6437
 5907TIP3    H239137   5.320   5.923  11.219 -0.8881 -1.1847 -0.1207
 5908TIP3   OH239138   4.170   5.349  13.764 -0.0454  0.0075 -0.2619
 5908TIP3    H139139   4.208   5.268  13.797  0.3454  0.5619  0.6706
 5908TIP3    H239140   4.080   5.348  13.795 -0.4172 -0.6377 -1.2932
 5909TIP3   OH239141   6.108   4.446  12.159 -0.6848 -0.3913  0.2053
 5909TIP3    H139142   6.142   4.365  12.121 -0.9231 -0.3474 -0.1071
 5909TIP3    H239143   6.145   4.449  12.247 -0.3534 -0.6374  0.0751
 5910TIP3   OH239144   1.698   3.310  10.517  0.1712 -0.5338 -0.0683
 5910TIP3    H139145   1.770   3.343  10.464  0.4428 -0.6550  0.2194
 5910TIP3    H239146   1.722   3.333  10.607 -0.5090  0.0894 -0.0378
 5911TIP3   OH239147   2.908   2.187  13.422  0.4615 -0.3461 -0.2228
 5911TIP3    H139148   2.880   2.268  13.381 -4.3610 -2.2888 -1.4557
 5911TIP3    H239149   2.865   2.186  13.507  3.2134 -0.2811  1.2923
 5912TIP3   OH239150   4.866   0.536   0.504  0.1787 -0.1570  0.0264
 5912TIP3    H139151   4.877   0.449   0.467 -1.0420  0.2588 -1.3983
 5912TIP3    H239152   4.785   0.531   0.555 -0.6125  0.4435 -1.1197
 5913TIP3   OH239153   5.563   5.810  11.371  0.2246  0.4195  0.2272
 5913TIP3    H139154   5.618   5.888  11.381 -1.1614  1.2777  1.4287
 5913TIP3    H239155   5.519   5.800  11.455 -1.2305 -0.4205 -0.5910
 5914TIP3   OH239156   6.255   4.803  15.192  0.2074 -0.0696  0.1883
 5914TIP3    H139157   6.323   4.821  15.128  1.2495 -1.5801  0.8329
 5914TIP3    H239158   6.280   4.855  15.269 -1.8761  3.0031 -1.0149
 5915TIP3   OH239159   3.709   3.566  12.801 -0.6345 -0.2087 -0.1738
 5915TIP3    H139160   3.646   3.538  12.734  0.6561 -0.4249 -1.3580
 5915TIP3    H239161   3.656   3.595  12.874 -2.0916 -1.1406 -0.8221
 5916TIP3   OH239162   6.227   4.624  10.371 -0.0573  0.1077  0.2483
 5916TIP3    H139163   6.289   4.656  10.305 -0.0235 -2.3154 -0.9871
 5916TIP3    H239164   6.205   4.702  10.422  2.1430  1.5074 -0.7874
 5917TIP3   OH239165   1.271   0.155   2.185  0.2918  0.3301  0.6867
 5917TIP3    H139166   1.182   0.156   2.220  0.6643 -0.3524  1.6917
 5917TIP3    H239167   1.277   0.235   2.133 -1.5992 -0.6479 -1.1857
 5918TIP3   OH239168   6.099   4.682  14.577  0.4228  0.8322 -0.2617
 5918TIP3    H139169   6.172   4.622  14.590 -0.8281 -0.4310  1.1300
 5918TIP3    H239170   6.065   4.700  14.664 -1.6150  0.5128 -0.9240
 5919TIP3   OH239171   5.280   4.221  13.700  0.2681  0.1934 -0.6529
 5919TIP3    H139172   5.375   4.221  13.707  0.2227 -0.9976  0.2432
 5919TIP3    H239173   5.260   4.151  13.638 -0.0683 -0.8634  0.5930
 5920TIP3   OH239174   3.028   0.922  10.153  0.1276 -0.0817  0.3015
 5920TIP3    H139175   3.021   1.015  10.134  2.1956  0.2737  1.1052
 5920TIP3    H239176   3.106   0.893  10.106 -0.0928 -1.2733  0.6310
 5921TIP3   OH239177   2.911   6.570  11.673 -0.2597  0.4821  0.1683
 5921TIP3    H139178   2.923   6.639  11.608  1.6969 -0.1425 -0.1937
 5921TIP3    H239179   2.938   6.610  11.756  0.5052  0.2758  0.0224
 5922TIP3   OH239180   2.286   4.236  10.707  0.2142 -0.3522  0.2339
 5922TIP3    H139181   2.300   4.185  10.627  0.7247  0.2691 -0.0859
 5922TIP3    H239182   2.322   4.182  10.777 -1.2769 -1.4135  0.2119
 5923TIP3   OH239183   4.981   4.896  14.536  0.0055 -0.2772 -0.3910
 5923TIP3    H139184   5.001   4.803  14.523  1.0413  0.1868 -2.4932
 5923TIP3    H239185   5.051   4.942  14.490  0.0491  1.5906  1.4038
 5924TIP3   OH239186   3.517   1.830  11.443  0.2673  0.2703 -0.2320
 5924TIP3    H139187   3.583   1.876  11.392  0.8118 -0.8075 -0.5217
 5924TIP3    H239188   3.437   1.881  11.429  0.8521  1.1311 -0.5225
 5925TIP3   OH239189   0.601   2.285  10.821  0.2429 -0.4263  0.2045
 5925TIP3    H139190   0.528   2.260  10.878  0.6443  0.6533  1.2304
 5925TIP3    H239191   0.562   2.291  10.734 -1.2722  1.5612  0.9484
 5926TIP3   OH239192   5.464   4.347  11.451  0.2836 -0.3517  0.0906
 5926TIP3    H139193   5.553   4.360  11.483  0.1040  0.8416  0.1520
 5926TIP3    H239194   5.410   4.345  11.530  0.0677  0.6346 -0.0231
 5927TIP3   OH239195   3.308   4.410   9.747 -0.2051  0.1401  0.3380
 5927TIP3    H139196   3.394   4.440   9.776  0.6037 -1.5101 -0.2580
 5927TIP3    H239197   3.316   4.315   9.739 -2.5294 -0.2546  1.7147
 5928TIP3   OH239198   3.637   4.974  11.259 -0.1912 -0.1460 -0.0361
 5928TIP3    H139199   3.576   4.905  11.285 -0.2863  0.0767  0.3381
 5928TIP3    H239200   3.711   4.965  11.319 -0.1664  0.0232 -0.0398
 5929TIP3   OH239201   3.429   4.252  13.837 -0.5884  0.0855  0.4180
 5929TIP3    H139202   3.495   4.224  13.773 -1.4669 -0.7887 -0.1340
 5929TIP3    H239203   3.474   4.318  13.890  0.5485 -0.0716 -0.3060
 5930TIP3   OH239204   0.515   4.505   9.550  0.2402 -0.8146 -0.3406
 5930TIP3    H139205   0.582   4.462   9.498  0.8600 -3.6013  2.4649
 5930TIP3    H239206   0.563   4.567   9.606  0.2040 -1.1778  0.1002
 5931TIP3   OH239207   5.575   2.463   2.709  0.1054  0.1184 -0.7440
 5931TIP3    H139208   5.506   2.437   2.770  0.4582 -3.5494 -1.6742
 5931TIP3    H239209   5.633   2.518   2.762 -2.0929  1.1130  0.7845
 5932TIP3   OH239210   5.026   5.211  15.499 -0.3860  0.5252 -0.7452
 5932TIP3    H139211   5.064   5.286  15.453  0.3445 -0.3602 -1.5945
 5932TIP3    H239212   5.006   5.148  15.431 -2.0352  0.3543 -0.1586
 5933TIP3   OH239213   0.323   4.146   0.195  0.0382  0.0434 -0.3887
 5933TIP3    H139214   0.277   4.096   0.128  1.2525 -0.9984 -0.4703
 5933TIP3    H239215   0.253   4.190   0.244 -1.0193 -1.2050 -0.7214
 5934TIP3   OH239216   6.067   5.529  12.343 -0.0960  0.4945  0.4292
 5934TIP3    H139217   6.011   5.501  12.416 -0.6440 -0.5132 -0.3620
 5934TIP3    H239218   6.007   5.566  12.279  0.1148 -0.6042 -0.4301
 5935TIP3   OH239219   6.666   4.011  11.407  0.0299  0.2170 -0.6697
 5935TIP3    H139220   6.634   4.048  11.325 -0.2678  1.4383 -0.0250
 5935TIP3    H239221   6.588   4.007  11.463 -0.0248 -1.7462 -0.8209
 5936TIP3   OH239222   0.257   5.180  11.078 -0.1341 -0.3687 -0.4283
 5936TIP3    H139223   0.162   5.169  11.068 -0.6408  2.2952  0.7402
 5936TIP3    H239224   0.275   5.151  11.167  0.0529 -0.3162 -0.4493
 5937TIP3   OH239225   6.268   2.747  14.439  0.2515 -0.0579 -0.2166
 5937TIP3    H139226   6.361   2.725  14.441  0.0640 -1.1778 -1.8832
 5937TIP3    H239227   6.265   2.841  14.422  1.0574  0.3840  1.8783
 5938TIP3   OH239228   3.750   0.870   0.822  0.8707  0.4835 -0.0952
 5938TIP3    H139229   3.709   0.823   0.894  0.4639  0.1647 -0.5336
 5938TIP3    H239230   3.804   0.804   0.778 -0.9793 -0.0268 -1.7175
 5939TIP3   OH239231   3.038   6.178  12.631  0.2289  0.0642 -0.1022
 5939TIP3    H139232   2.991   6.253  12.667 -1.4461 -1.4312  1.0064
 5939TIP3    H239233   3.020   6.106  12.692  2.8329 -0.9817 -0.3954
 5940TIP3   OH239234   5.478   1.241  12.794  0.3162 -0.1991  0.1311
 5940TIP3    H139235   5.548   1.304  12.779 -0.6937  0.4501 -2.3598
 5940TIP3    H239236   5.481   1.182  12.718 -1.0533 -0.9121  0.5795
 5941TIP3   OH239237   0.359   5.968  12.486  0.1044  0.3097 -0.1667
 5941TIP3    H139238   0.326   5.888  12.447 -1.2792 -0.7794  2.9511
 5941TIP3    H239239   0.433   5.940  12.540 -2.4609  0.3048  3.7417
 5942TIP3   OH239240   1.271   5.970   1.432 -0.2714  0.8423  0.1659
 5942TIP3    H139241   1.275   6.064   1.450 -3.7037  0.7446  2.3416
 5942TIP3    H239242   1.257   5.930   1.518 -0.6352 -1.4820 -0.9122
 5943TIP3   OH239243   5.018   2.142   2.281  0.4555 -0.1764 -0.0743
 5943TIP3    H139244   5.021   2.231   2.246  0.0540  0.1204  0.6307
 5943TIP3    H239245   5.102   2.103   2.254 -0.0031 -0.1086 -1.7206
 5944TIP3   OH239246   5.404   3.912  15.439  0.3219  0.1071  0.2089
 5944TIP3    H139247   5.385   3.871  15.524  0.1081 -0.4369 -0.0925
 5944TIP3    H239248   5.412   3.838  15.379  0.4851  0.4909 -0.2435
 5945TIP3   OH239249   4.076   1.620  14.288 -0.4932  0.4555 -0.2888
 5945TIP3    H139250   4.115   1.692  14.240 -0.8383  0.3647 -0.7194
 5945TIP3    H239251   4.017   1.662  14.351  1.7722  0.6933  1.7947
 5946TIP3   OH239252   3.304   4.538  11.409 -0.0370  0.1759 -0.0045
 5946TIP3    H139253   3.301   4.532  11.505 -1.3062  1.0003  0.0237
 5946TIP3    H239254   3.271   4.453  11.379  0.1350  0.0041  0.2750
 5947TIP3   OH239255   1.258   1.973  12.886 -0.0451 -0.4896  0.2177
 5947TIP3    H139256   1.272   2.048  12.828 -0.5788 -0.5465  0.0124
 5947TIP3    H239257   1.176   1.992  12.931 -0.4899 -1.2194 -0.2677
 5948TIP3   OH239258   3.743   0.692   4.981  0.0437 -0.5346  0.4596
 5948TIP3    H139259   3.705   0.643   4.909 -0.6114 -0.4038  0.7108
 5948TIP3    H239260   3.672   0.704   5.044  0.0954  0.9695  0.2828
 5949TIP3   OH239261   5.763   6.115  11.647  0.0054 -0.1611  0.2273
 5949TIP3    H139262   5.839   6.056  11.646 -1.4921 -2.2314  1.2705
 5949TIP3    H239263   5.791   6.187  11.703  0.7735 -1.6235  1.8488
 5950TIP3   OH239264   6.048   2.984  14.114  0.0986 -0.2951 -0.1288
 5950TIP3    H139265   6.087   3.003  14.029 -2.0829 -0.2279 -1.1834
 5950TIP3    H239266   5.954   2.988  14.098 -0.3885  1.2063  2.6386
 5951TIP3   OH239267   3.635   4.296   9.480  0.1914 -0.4548  0.8399
 5951TIP3    H139268   3.699   4.359   9.515 -1.5532  0.9313  1.6814
 5951TIP3    H239269   3.557   4.348   9.464 -0.7379 -2.0999 -0.2195
 5952TIP3   OH239270   4.793   4.767  13.361  0.0870  1.1158  0.0382
 5952TIP3    H139271   4.705   4.796  13.337 -0.8138 -0.8110  0.8548
 5952TIP3    H239272   4.790   4.755  13.455 -0.2646 -3.2738 -0.3066
 5953TIP3   OH239273   3.335   4.197   2.371 -0.0380 -0.0261  0.8119
 5953TIP3    H139274   3.357   4.186   2.278  1.1510  0.8981  0.9668
 5953TIP3    H239275   3.400   4.258   2.404 -1.5582  1.1077  1.8353
 5954TIP3   OH239276   3.145   3.079  15.145  0.2772 -0.1934  0.2172
 5954TIP3    H139277   3.081   3.128  15.197 -0.0139 -0.9253  0.5510
 5954TIP3    H239278   3.107   2.992  15.135  2.4415 -1.5892  2.8431
 5955TIP3   OH239279   5.895   6.342   4.413 -0.5852  0.4627  0.4636
 5955TIP3    H139280   5.986   6.368   4.430 -0.7586 -0.4345  3.4288
 5955TIP3    H239281   5.858   6.414   4.362  1.1632  1.9941  1.2363
 5956TIP3   OH239282   5.976   0.729  13.180  0.5977  0.0288  0.0165
 5956TIP3    H139283   6.046   0.674  13.146 -0.5971 -0.7747 -1.2289
 5956TIP3    H239284   5.903   0.716  13.120 -0.5257  1.1060  1.0764
 5957TIP3   OH239285   2.728   2.172  12.233  0.6063  0.4125 -0.0226
 5957TIP3    H139286   2.732   2.101  12.169  0.9171 -0.1923  0.6493
 5957TIP3    H239287   2.655   2.226  12.206  1.4853  0.8622 -1.6087
 5958TIP3   OH239288   6.033   5.510   3.505  0.2700  0.3903 -0.0816
 5958TIP3    H139289   6.107   5.551   3.459  0.1842  2.0861  1.2418
 5958TIP3    H239290   6.073   5.468   3.581 -0.0891  0.9486  0.4107
 5959TIP3   OH239291   5.861   3.831   0.767  0.0227 -0.5619  0.5583
 5959TIP3    H139292   5.767   3.833   0.789 -0.0945 -0.3950  0.0650
 5959TIP3    H239293   5.864   3.864   0.677  0.5691 -0.4584  0.6148
 5960TIP3   OH239294   3.450   4.429  12.516 -0.0588  0.5137 -0.6054
 5960TIP3    H139295   3.535   4.388  12.502 -0.6889 -0.7212 -1.0398
 5960TIP3    H239296   3.452   4.459  12.607 -0.2955 -2.4455  0.5051
 5961TIP3   OH239297   3.572   6.784  15.135 -0.2789 -0.5853  0.4727
 5961TIP3    H139298   3.480   6.762  15.121 -0.6243  0.5148  0.9058
 5961TIP3    H239299   3.588   6.859  15.079  0.3099 -0.6668  0.5258
 5962TIP3   OH239300   2.935   1.180   3.384  0.4392 -0.2656 -0.9106
 5962TIP3    H139301   2.861   1.130   3.418  1.1416 -1.2975 -0.8634
 5962TIP3    H239302   2.902   1.270   3.376 -0.5685 -0.5559 -0.1401
 5963TIP3   OH239303   0.659   3.699  15.159 -0.1848  0.3599 -0.1353
 5963TIP3    H139304   0.696   3.666  15.077  0.6232 -1.2763  0.8390
 5963TIP3    H239305   0.714   3.775  15.180 -1.1698  1.5805 -1.6792
 5964TIP3   OH239306   3.228   0.954   4.078 -0.0577 -0.3033  0.3107
 5964TIP3    H139307   3.314   0.985   4.109  0.0248  0.1338 -0.3378
 5964TIP3    H239308   3.191   0.908   4.154 -1.1365  3.2166  2.1594
 5965TIP3   OH239309   1.714   3.715  15.597  0.7123 -0.6640 -0.3333
 5965TIP3    H139310   1.637   3.742  15.647  0.3839  0.3687 -1.3520
 5965TIP3    H239311   1.780   3.782  15.616  0.0435  0.7052 -2.5289
 5966TIP3   OH239312   4.064   3.807  10.175 -0.2600 -1.0078  0.2920
 5966TIP3    H139313   4.068   3.874  10.107 -0.5408  1.5110  2.5529
 5966TIP3    H239314   3.970   3.792  10.187 -0.2199 -1.2612  0.2855
 5967TIP3   OH239315   3.378   5.361   4.376  0.0992  0.1646  0.2066
 5967TIP3    H139316   3.425   5.417   4.438 -0.2919  0.3845  0.3116
 5967TIP3    H239317   3.288   5.393   4.380  0.1636  0.5177 -0.8548
 5968TIP3   OH239318   1.489   6.253  12.699 -0.7773 -0.5445 -0.4610
 5968TIP3    H139319   1.574   6.236  12.739 -1.1681  0.8839  1.1121
 5968TIP3    H239320   1.508   6.286  12.612  0.4727  2.0862  0.6964
 5969TIP3   OH239321   2.998   0.311  13.545  0.2690 -0.4138  0.2645
 5969TIP3    H139322   3.089   0.296  13.571  0.3945 -1.0872 -0.5136
 5969TIP3    H239323   3.003   0.330  13.451 -0.5404 -2.3755 -0.2250
 5970TIP3   OH239324   4.691   1.642  11.269 -0.1697  0.5389 -0.5019
 5970TIP3    H139325   4.771   1.657  11.319  0.9015 -0.3242 -1.8809
 5970TIP3    H239326   4.660   1.730  11.247  0.9887  0.8808 -0.8444
 5971TIP3   OH239327   0.934   6.039  13.519 -0.3582 -1.0877 -0.4258
 5971TIP3    H139328   0.973   6.118  13.556 -3.4430 -0.5119  2.0635
 5971TIP3    H239329   0.856   6.071  13.473 -1.3400 -2.5831  0.1418
 5972TIP3   OH239330   2.957   3.386   4.263  0.2065  0.2294 -0.2055
 5972TIP3    H139331   2.998   3.303   4.286 -1.6954 -1.2651 -1.8752
 5972TIP3    H239332   3.014   3.422   4.195  0.4070 -0.2986 -0.3230
 5973TIP3   OH239333   5.973   7.035  11.557  0.0004  0.1037 -0.3928
 5973TIP3    H139334   5.887   6.995  11.566 -0.7498  1.6735 -0.0861
 5973TIP3    H239335   6.000   7.017  11.467 -0.1246 -1.3665 -0.1474
 5974TIP3   OH239336   4.162   5.773  11.891  0.0447 -0.2913 -0.6753
 5974TIP3    H139337   4.112   5.704  11.847 -0.1022 -1.8313  1.7600
 5974TIP3    H239338   4.240   5.783  11.837  0.8582 -3.5515 -0.3096
 5975TIP3   OH239339   2.740   1.888  14.176  0.2173 -0.1920 -0.0050
 5975TIP3    H139340   2.692   1.951  14.122  2.7382  1.7077 -0.2163
 5975TIP3    H239341   2.710   1.905  14.265  0.0089  0.5189 -0.2045
 5976TIP3   OH239342   0.588   1.183   0.323 -0.5051 -0.5768  0.2677
 5976TIP3    H139343   0.563   1.198   0.414  1.5483 -1.0727  0.9563
 5976TIP3    H239344   0.599   1.088   0.317  1.3878 -0.3809  0.1052
 5977TIP3   OH239345   0.243   4.569   3.235  0.0846  0.1764 -0.0102
 5977TIP3    H139346   0.194   4.648   3.215  0.1421  0.7661  1.9535
 5977TIP3    H239347   0.324   4.600   3.276 -1.8311 -0.7304  5.2408
 5978TIP3   OH239348   2.829   6.418  15.511  0.1824 -0.2484 -0.5852
 5978TIP3    H139349   2.878   6.487  15.556 -0.9076 -0.4818  1.0803
 5978TIP3    H239350   2.896   6.363  15.471  1.0970  1.3222 -1.2823
 5979TIP3   OH239351   2.849   6.997   1.596  0.1377  0.2415  0.7237
 5979TIP3    H139352   2.811   7.013   1.682 -0.2164 -0.5113  0.7211
 5979TIP3    H239353   2.896   7.077   1.575 -1.4853  1.2453  0.7089
 5980TIP3   OH239354   6.323   4.944  12.289  0.0686  0.6691 -0.1006
 5980TIP3    H139355   6.313   4.922  12.197  1.0947  0.0042 -0.0740
 5980TIP3    H239356   6.396   4.890  12.318 -0.2861  0.8195  1.1210
 5981TIP3   OH239357   0.162   3.616   9.613 -0.1645  0.3176 -0.2018
 5981TIP3    H139358   0.200   3.585   9.696 -1.7101  0.4191  0.5777
 5981TIP3    H239359   0.222   3.685   9.584  1.0372 -0.5162  0.2104
 5982TIP3   OH239360   4.930   0.736   1.498  0.1952  0.1088  0.0175
 5982TIP3    H139361   4.985   0.785   1.436 -0.5068  0.7647 -0.0977
 5982TIP3    H239362   4.931   0.646   1.466  0.6229  0.2562 -0.3916
 5983TIP3   OH239363   2.058   3.162   5.480  0.1368 -0.5696 -0.1435
 5983TIP3    H139364   1.969   3.159   5.516  0.0705 -0.9367 -0.3233
 5983TIP3    H239365   2.109   3.106   5.540  0.1069 -0.8734 -0.3976
 5984TIP3   OH239366   3.273   1.193  10.306 -0.6140  0.0731 -0.2491
 5984TIP3    H139367   3.183   1.226  10.311 -0.9331 -0.6867 -0.8490
 5984TIP3    H239368   3.312   1.240  10.232 -0.7170 -0.0600 -0.3887
 5985TIP3   OH239369   2.995   0.200   2.123 -0.1714 -0.2184 -0.5723
 5985TIP3    H139370   2.904   0.212   2.095 -0.0433 -2.8504 -2.5360
 5985TIP3    H239371   2.990   0.198   2.218 -1.6993  2.3960 -0.4988
 5986TIP3   OH239372   5.805   5.840  10.884 -0.1075 -0.0284 -0.2418
 5986TIP3    H139373   5.739   5.787  10.839 -1.5167  2.2589 -1.1019
 5986TIP3    H239374   5.841   5.895  10.814 -2.3414  3.6382  1.1827
 5987TIP3   OH239375   5.658   3.082   1.686  0.0387 -0.1634 -0.2222
 5987TIP3    H139376   5.704   3.085   1.770 -1.8985 -0.5029  0.9179
 5987TIP3    H239377   5.570   3.052   1.708 -0.3744 -0.7903 -2.4705
 5988TIP3   OH239378   5.043   0.959  12.121 -0.1647  0.1844  0.1067
 5988TIP3    H139379   5.121   1.015  12.114 -0.1555  0.5936  2.4571
 5988TIP3    H239380   4.982   0.994  12.057  0.9996  0.8888 -0.6546
 5989TIP3   OH239381   6.720   5.437  10.213  0.0248  0.7652 -0.8326
 5989TIP3    H139382   6.751   5.437  10.123  1.2865 -1.6669 -0.4987
 5989TIP3    H239383   6.726   5.528  10.241  2.7338  1.1174 -2.2275
 5990TIP3   OH239384   6.444   6.968  12.322 -0.5466  0.4613  0.2352
 5990TIP3    H139385   6.428   6.877  12.347  1.9111 -0.2465 -0.5417
 5990TIP3    H239386   6.427   7.018  12.401 -0.5193 -0.8403  1.0975
 5991TIP3   OH239387   3.344   6.605   3.931 -0.9726 -0.0732  0.1136
 5991TIP3    H139388   3.258   6.588   3.892 -0.3502  0.2140 -1.4519
 5991TIP3    H239389   3.340   6.562   4.017 -2.3065 -0.9596 -0.3562
 5992TIP3   OH239390   1.758   4.536  12.996  0.0780  0.1575 -0.0283
 5992TIP3    H139391   1.677   4.485  12.998  0.9256 -1.2775 -0.8796
 5992TIP3    H239392   1.806   4.503  12.920  1.2995  1.2524  0.2226
 5993TIP3   OH239393   2.218   2.783  13.778  0.6510 -0.2319  0.6529
 5993TIP3    H139394   2.310   2.789  13.804  0.9505 -0.8424 -0.1961
 5993TIP3    H239395   2.169   2.780  13.861  1.2294  1.9731  1.1251
 5994TIP3   OH239396   3.891   0.263  11.615 -0.1735 -0.5631 -0.4442
 5994TIP3    H139397   3.907   0.235  11.525 -0.5989 -0.0526 -0.6802
 5994TIP3    H239398   3.859   0.184  11.659 -0.9111 -0.5658 -0.9873
 5995TIP3   OH239399   2.924   0.686  14.024 -0.1193  0.3680 -0.4500
 5995TIP3    H139400   2.852   0.734  14.063 -0.4374  0.4504 -1.1192
 5995TIP3    H239401   3.002   0.718  14.071 -0.3726  1.2119 -0.5754
 5996TIP3   OH239402   6.852   6.365  13.282 -0.2491  0.3905 -0.4720
 5996TIP3    H139403   6.868   6.426  13.209  0.6290 -0.1772 -0.7724
 5996TIP3    H239404   6.785   6.408  13.335 -0.7295  0.9318 -1.4825
 5997TIP3   OH239405   5.597   4.584   2.010 -0.1009  0.1968  0.1773
 5997TIP3    H139406   5.577   4.625   1.925 -1.7245 -2.1792 -0.6866
 5997TIP3    H239407   5.679   4.626   2.038  0.9278  0.5441 -2.9518
 5998TIP3   OH239408   0.468   5.212   1.592  0.0152  0.4099 -0.0486
 5998TIP3    H139409   0.408   5.153   1.546 -0.1050  1.1205 -0.8292
 5998TIP3    H239410   0.424   5.229   1.676  0.2828 -0.9723  0.3948
 5999TIP3   OH239411   5.468   2.867   9.688 -0.2308  0.2110  0.1421
 5999TIP3    H139412   5.530   2.844   9.757  2.2327  1.5140 -1.4778
 5999TIP3    H239413   5.493   2.814   9.613 -1.7138  0.0899 -0.3112
 6000TIP3   OH239414   1.377   4.223  11.967  0.0432  0.0867 -0.4317
 6000TIP3    H139415   1.319   4.166  12.016  1.7199  0.1867  1.8710
 6000TIP3    H239416   1.439   4.255  12.032  1.4692  1.5312 -2.3707
 6001TIP3   OH239417   6.190   0.247  13.570  0.4381 -0.0537  0.3290
 6001TIP3    H139418   6.140   0.325  13.548 -1.0465 -0.6354  1.5196
 6001TIP3    H239419   6.255   0.240  13.500  0.2931  1.9575 -0.0603
 6002TIP3   OH239420   2.272   0.815  14.132  0.5157 -0.3876  0.2010
 6002TIP3    H139421   2.320   0.798  14.213  1.0708 -3.1747 -0.5970
 6002TIP3    H239422   2.181   0.829  14.161  0.6906 -1.3902  1.3132
 6003TIP3   OH239423   5.598   0.343  14.710 -0.0182 -0.0280  0.5555
 6003TIP3    H139424   5.633   0.358  14.798  1.0242 -2.2960  0.5999
 6003TIP3    H239425   5.506   0.320  14.725 -0.1385  0.6520  0.9245
 6004TIP3   OH239426   3.765   2.703  12.473  0.3602  0.1810 -0.0403
 6004TIP3    H139427   3.794   2.763  12.404  0.8196 -0.5438 -0.4910
 6004TIP3    H239428   3.674   2.728  12.490  0.9697  1.9800  0.8414
 6005TIP3   OH239429   4.702   3.371  12.100 -0.3591 -0.1009  0.7086
 6005TIP3    H139430   4.630   3.317  12.133 -1.4719 -0.0046 -1.3392
 6005TIP3    H239431   4.658   3.443  12.054  1.0223 -0.0828 -0.6729
 6006TIP3   OH239432   1.314   6.572  14.904  0.3027 -0.1356 -0.4409
 6006TIP3    H139433   1.358   6.490  14.883  0.1652 -0.7851  1.5286
 6006TIP3    H239434   1.222   6.555  14.884  0.6354  0.6390 -2.9350
 6007TIP3   OH239435   3.754   4.890   2.578 -0.7232  0.1069 -0.3769
 6007TIP3    H139436   3.738   4.844   2.495  0.1095  0.6685 -0.8626
 6007TIP3    H239437   3.722   4.979   2.563 -0.7216  0.1642 -0.0365
 6008TIP3   OH239438   5.938   2.728  15.006 -0.4625  0.4405 -0.0566
 6008TIP3    H139439   5.880   2.657  14.979  1.0219 -0.8599  0.0107
 6008TIP3    H239440   6.009   2.684  15.053  2.2366  1.5645 -2.7667
 6009TIP3   OH239441   2.049   2.167  12.235  0.0654  0.6926 -0.0663
 6009TIP3    H139442   2.074   2.129  12.320  0.2335  2.1634  0.5661
 6009TIP3    H239443   1.955   2.180  12.241  0.2106  1.6476  0.2637
 6010TIP3   OH239444   4.468   5.145  14.293  0.0038  0.2100 -0.0691
 6010TIP3    H139445   4.406   5.072  14.290  0.0980  0.1590 -1.0763
 6010TIP3    H239446   4.507   5.140  14.381 -1.9722  0.7151  0.8958
 6011TIP3   OH239447   3.864   1.767  10.847  0.2685  0.3147 -0.2467
 6011TIP3    H139448   3.817   1.817  10.780  1.2296  1.6594  0.0394
 6011TIP3    H239449   3.865   1.677  10.813  1.1211  1.0257 -2.2695
 6012TIP3   OH239450   6.076   0.448  11.037 -0.6564  0.1112  0.2452
 6012TIP3    H139451   6.079   0.423  11.129 -0.2897  1.2964  0.5717
 6012TIP3    H239452   6.059   0.542  11.038  1.7725  0.6412 -0.7957
 6013TIP3   OH239453   5.713   0.027  15.282 -0.3190 -0.0984 -0.1911
 6013TIP3    H139454   5.722   0.111  15.236 -0.3194 -0.0717 -0.1427
 6013TIP3    H239455   5.621   0.003  15.269  0.1642 -1.1351 -2.0041
 6014TIP3   OH239456   4.653   0.019  14.288 -0.1998  0.1328 -0.5237
 6014TIP3    H139457   4.675   0.033  14.380 -1.5683  1.5126 -0.3644
 6014TIP3    H239458   4.568  -0.026  14.291 -0.8903  1.3552 -1.0834
 6015TIP3   OH239459   2.563   2.878  10.538  0.3895  0.2558 -0.0353
 6015TIP3    H139460   2.486   2.882  10.595  1.3499 -0.3478  1.3695
 6015TIP3    H239461   2.537   2.926  10.459 -2.0461 -1.4784 -0.3819
 6016TIP3   OH239462   1.527   3.374  12.278  0.1384  0.0209  0.0699
 6016TIP3    H139463   1.596   3.405  12.338  0.8728 -1.2122 -0.1199
 6016TIP3    H239464   1.448   3.416  12.311  0.8352  0.8522  0.7703
 6017TIP3   OH239465   4.631   0.153   3.608  0.0931 -0.3028  0.3205
 6017TIP3    H139466   4.597   0.239   3.582  0.3574 -0.1485  0.4874
 6017TIP3    H239467   4.712   0.172   3.654  0.4425 -0.6777 -0.1335
 6018TIP3   OH239468   6.583   2.496   2.828 -0.5091  0.2836  0.8387
 6018TIP3    H139469   6.571   2.432   2.758  1.4926 -0.4120  1.0519
 6018TIP3    H239470   6.497   2.534   2.842 -1.6162 -1.8829  0.2308
 6019TIP3   OH239471   1.043   3.594  10.851  0.3877  0.2561 -0.2126
 6019TIP3    H139472   0.955   3.581  10.816  0.2576 -0.5246  0.3894
 6019TIP3    H239473   1.037   3.571  10.944  0.8859  1.6352  0.2001
 6020TIP3   OH239474   5.308   0.976  12.279  0.2187  0.1272  0.0141
 6020TIP3    H139475   5.338   0.892  12.312  0.1105  0.2644  0.4642
 6020TIP3    H239476   5.364   0.994  12.204  0.7939  0.0469  0.4204
 6021TIP3   OH239477   4.644   1.710  13.783 -0.4443  1.3126 -0.1733
 6021TIP3    H139478   4.736   1.689  13.800 -0.5338 -0.7880 -1.9042
 6021TIP3    H239479   4.595   1.653  13.842 -0.6203 -0.3455 -1.8147
 6022TIP3   OH239480   4.339   3.324  14.295  0.3182  0.0403 -0.2527
 6022TIP3    H139481   4.256   3.300  14.253  0.3193 -0.4635  0.0267
 6022TIP3    H239482   4.321   3.316  14.389  0.7167 -0.1673 -0.1974
 6023TIP3   OH239483   4.923   7.127   1.385 -0.7700  0.0099  0.4875
 6023TIP3    H139484   4.963   7.041   1.374 -1.2285 -0.4467  2.1222
 6023TIP3    H239485   4.983   7.187   1.340  0.7987 -0.8891  1.2890
 6024TIP3   OH239486   2.740   3.293  14.801 -0.1839 -0.2683 -0.1174
 6024TIP3    H139487   2.659   3.300  14.751 -0.7885  0.5005  0.9344
 6024TIP3    H239488   2.729   3.213  14.853  0.1024 -0.6223 -0.5884
 6025TIP3   OH239489   3.046   5.523   2.283 -0.2589 -0.1205  0.1946
 6025TIP3    H139490   3.013   5.453   2.226 -0.1566  0.9377 -1.2024
 6025TIP3    H239491   2.967   5.564   2.318 -0.3221 -0.7595  0.8263
 6026TIP3   OH239492   1.363   6.762   1.637  0.4660  0.3170 -0.1151
 6026TIP3    H139493   1.309   6.801   1.569 -0.5495  1.5433  1.3354
 6026TIP3    H239494   1.450   6.801   1.624  0.3213  0.4451 -0.7612
 6027TIP3   OH239495   6.030   2.733  12.224 -0.1951  0.3616  0.3273
 6027TIP3    H139496   5.946   2.771  12.199 -1.4914 -1.0092  2.2560
 6027TIP3    H239497   6.068   2.796  12.285 -0.7464  0.1577  0.9002
 6028TIP3   OH239498   4.622   1.137  11.638 -0.3206 -0.0318  0.0704
 6028TIP3    H139499   4.547   1.197  11.635  1.4149  2.2833  0.4044
 6028TIP3    H239500   4.682   1.170  11.571  1.7622  0.1868  1.9197
 6029TIP3   OH239501   5.483   5.223  13.585  0.2241 -0.3607  0.2120
 6029TIP3    H139502   5.490   5.173  13.504 -1.0590  0.4068 -0.4056
 6029TIP3    H239503   5.483   5.315  13.557 -0.0335 -0.0799  1.0870
 6030TIP3   OH239504   4.705   3.252   0.430 -0.4119 -0.3221  0.3230
 6030TIP3    H139505   4.642   3.180   0.431  0.7125 -1.3303  1.1173
 6030TIP3    H239506   4.666   3.319   0.486 -1.7370 -0.0505 -0.8889
 6031TIP3   OH239507   4.997   2.095   0.886 -0.3438  0.1106 -0.0986
 6031TIP3    H139508   4.944   2.070   0.962 -1.9847 -1.5568 -1.6926
 6031TIP3    H239509   4.958   2.047   0.813  2.9400 -0.6461 -1.5245
 6032TIP3   OH239510   4.744   0.547   4.162 -0.3050 -0.2968 -0.4757
 6032TIP3    H139511   4.689   0.484   4.114  1.7775 -1.4054 -1.5277
 6032TIP3    H239512   4.788   0.494   4.228 -0.0867  0.4793  0.0083
 6033TIP3   OH239513   1.893   4.330   4.813 -0.5101  0.1858 -0.5407
 6033TIP3    H139514   1.889   4.381   4.894 -1.2835 -0.2482 -0.3010
 6033TIP3    H239515   1.811   4.281   4.811  0.4651 -1.5370 -0.4469
 6034TIP3   OH239516   4.729   2.015  11.682 -0.1166  0.2538 -0.4076
 6034TIP3    H139517   4.744   2.096  11.634 -0.2248  0.8097  0.4706
 6034TIP3    H239518   4.713   2.043  11.772  1.0788 -0.8117  0.1694
 6035TIP3   OH239519   2.215   5.394  15.581  0.0431  0.1713  0.4984
 6035TIP3    H139520   2.301   5.403  15.541 -0.8991  1.5316 -1.3289
 6035TIP3    H239521   2.215   5.305  15.617  1.9821 -0.0539  0.0430
 6036TIP3   OH239522   2.667   6.488  13.123  0.3631 -0.0412  0.1683
 6036TIP3    H139523   2.733   6.554  13.145  0.5541 -0.2671  0.2855
 6036TIP3    H239524   2.719   6.411  13.097  0.1852  0.5533 -2.2123
 6037TIP3   OH239525   0.554   1.236  13.857  0.5319  0.0977  0.2266
 6037TIP3    H139526   0.551   1.321  13.901  2.0894  0.7695 -0.8981
 6037TIP3    H239527   0.643   1.204  13.872  0.3090 -0.8221 -0.3188
 6038TIP3   OH239528   1.531   5.923  11.204  0.1184 -0.8733 -0.0300
 6038TIP3    H139529   1.558   5.838  11.238  1.3612  0.3253  2.3008
 6038TIP3    H239530   1.606   5.981  11.221  0.2271  0.2697 -3.6276
 6039TIP3   OH239531   0.349   1.567  10.967  0.5727  0.2696 -0.4137
 6039TIP3    H139532   0.322   1.489  11.016 -0.9380 -2.0612 -4.4382
 6039TIP3    H239533   0.443   1.574  10.983  0.6208 -1.9494  0.6692
 6040TIP3   OH239534   1.401   1.659  12.478 -0.1907 -0.1465 -0.5389
 6040TIP3    H139535   1.406   1.579  12.529 -3.1099 -1.3256 -1.8682
 6040TIP3    H239536   1.395   1.729  12.543 -0.3720 -1.2605  0.6841
 6041TIP3   OH239537   3.244   0.384  10.719 -0.0807  0.1321 -0.1665
 6041TIP3    H139538   3.268   0.455  10.661  0.7874 -0.1794 -0.2064
 6041TIP3    H239539   3.157   0.407  10.751 -0.0871  0.8697 -0.6969
 6042TIP3   OH239540   7.013   0.145  11.982 -0.1022 -0.0138 -0.6658
 6042TIP3    H139541   6.989   0.179  12.068  1.9822 -1.3430  0.5291
 6042TIP3    H239542   6.929   0.118  11.943 -1.0014 -0.4486  1.4234
 6043TIP3   OH239543   6.004   1.327   0.440  0.0534  0.4916  0.1471
 6043TIP3    H139544   5.968   1.242   0.417  0.7210 -0.0249  0.9671
 6043TIP3    H239545   6.011   1.326   0.536  0.0451  1.4749  0.1762
 6044TIP3   OH239546   6.248   3.921   3.618  0.8525  0.2119  0.6892
 6044TIP3    H139547   6.250   4.014   3.595 -2.3101  0.4176  0.7356
 6044TIP3    H239548   6.260   3.875   3.535 -1.5969  0.8105 -0.0784
 6045TIP3   OH239549   0.675   2.307  10.400 -0.0870  0.0228  0.3202
 6045TIP3    H139550   0.654   2.383  10.455 -0.5006  0.5534 -0.5510
 6045TIP3    H239551   0.752   2.334  10.350  0.2423 -0.4317  0.5730
 6046TIP3   OH239552   6.094   1.601  11.049 -0.6304 -1.0460 -0.1785
 6046TIP3    H139553   6.109   1.653  10.970 -2.8412 -0.0638 -0.0342
 6046TIP3    H239554   6.119   1.512  11.024 -0.3393 -0.5802 -1.6652
 6047TIP3   OH239555   3.507   5.891  11.299  0.2231  0.5069 -0.6160
 6047TIP3    H139556   3.527   5.806  11.338 -1.0942  0.6263  0.3736
 6047TIP3    H239557   3.449   5.870  11.226  0.3217  0.5152 -0.6965
 6048TIP3   OH239558   1.928   4.273  10.956 -0.0497 -0.5275 -0.4042
 6048TIP3    H139559   1.872   4.258  10.880 -0.6876  1.5037 -0.3914
 6048TIP3    H239560   2.006   4.316  10.920 -0.1951  0.1068  0.0261
 6049TIP3   OH239561   4.934   6.141  12.427 -0.2590 -0.2961 -0.4687
 6049TIP3    H139562   4.976   6.083  12.491 -0.3630 -0.3187 -0.4198
 6049TIP3    H239563   4.998   6.210  12.411 -0.4229 -0.0349  0.0140
 6050TIP3   OH239564   0.076   5.376   3.941 -0.2565 -0.1103  0.2492
 6050TIP3    H139565   0.149   5.323   3.909 -0.3550 -0.1899  0.1582
 6050TIP3    H239566   0.115   5.430   4.010  0.2694  1.0525 -0.9099
 6051TIP3   OH239567   0.137   3.031  12.909 -0.5673 -0.2168  0.3348
 6051TIP3    H139568   0.080   3.106  12.896 -2.2483 -1.5700 -0.4559
 6051TIP3    H239569   0.154   2.998  12.821  3.4487  1.4597  0.2584
 6052TIP3   OH239570   2.841   1.902   4.954  0.1191 -0.1847  0.5419
 6052TIP3    H139571   2.925   1.859   4.970  0.7202  0.9139  0.4150
 6052TIP3    H239572   2.863   1.981   4.904 -1.0351 -0.1042  0.1323
 6053TIP3   OH239573   0.690   0.912   2.522 -0.1143 -0.1890  0.0361
 6053TIP3    H139574   0.735   0.994   2.502  0.6094 -0.5873 -0.0138
 6053TIP3    H239575   0.617   0.937   2.579  1.2649  0.2831  1.6950
 6054TIP3   OH239576   6.397   3.017   2.511  0.0571  0.5008 -0.1744
 6054TIP3    H139577   6.330   3.079   2.483 -1.8093 -1.1428  0.4193
 6054TIP3    H239578   6.427   2.976   2.430 -0.8301  0.1169 -0.3131
 6055TIP3   OH239579   1.558   3.492  15.494 -0.9830  0.2134 -0.1608
 6055TIP3    H139580   1.617   3.559  15.528  0.5284 -0.4093 -1.4377
 6055TIP3    H239581   1.471   3.519  15.524 -0.1481  1.5223  1.2112
 6056TIP3   OH239582   3.306   0.056   4.198 -1.0219 -0.7785 -0.3598
 6056TIP3    H139583   3.285   0.040   4.106  1.7081 -0.3660 -1.1330
 6056TIP3    H239584   3.369  -0.012   4.221  2.7200  2.2476 -0.6123
 6057TIP3   OH239585   2.833   3.339  12.067  0.0885 -0.1494  0.6042
 6057TIP3    H139586   2.769   3.340  11.996 -0.7225 -1.8546  1.2491
 6057TIP3    H239587   2.876   3.425  12.062 -1.0874  0.4002 -0.8898
 6058TIP3   OH239588   3.876   1.837   2.337 -0.7715  0.2895  0.0850
 6058TIP3    H139589   3.951   1.781   2.319 -0.7785  0.9516 -2.2600
 6058TIP3    H239590   3.801   1.777   2.334 -0.5683  0.0406 -0.1031
 6059TIP3   OH239591   0.057   5.894   4.185  0.2425  0.1981  0.1326
 6059TIP3    H139592   0.013   5.831   4.129  1.7808 -0.7588 -0.0606
 6059TIP3    H239593   0.093   5.842   4.257  1.5881  0.8254 -0.0486
 6060TIP3   OH239594   5.448   4.114  14.781 -0.6399 -0.1986  0.0358
 6060TIP3    H139595   5.421   4.113  14.873 -1.7218  0.4575 -0.2522
 6060TIP3    H239596   5.503   4.192  14.774  0.9998 -1.2599  0.5112
 6061TIP3   OH239597   3.361   6.885  13.515 -0.1242  0.0297  0.1152
 6061TIP3    H139598   3.448   6.922  13.531  0.7465 -1.7847 -0.2130
 6061TIP3    H239599   3.316   6.953  13.464  1.3454  0.7152 -0.3252
 6062TIP3   OH239600   3.605   2.482   1.717 -0.1142  0.2552  0.2220
 6062TIP3    H139601   3.603   2.413   1.784 -1.1724  1.6471  1.7048
 6062TIP3    H239602   3.514   2.495   1.692  0.0585  1.1502  0.0082
 6063TIP3   OH239603   0.037   4.368   2.317 -0.3623 -0.4077 -0.1785
 6063TIP3    H139604   0.104   4.306   2.346 -1.9559 -1.0138  2.5458
 6063TIP3    H239605  -0.038   4.351   2.374 -1.1302  3.5707  0.2527
 6064TIP3   OH239606   3.633   5.638   0.110  0.1679 -0.5228 -0.4631
 6064TIP3    H139607   3.558   5.591   0.147  0.3916 -0.5586 -0.0487
 6064TIP3    H239608   3.595   5.695   0.044 -0.4856  0.8759  1.0441
 6065TIP3   OH239609   7.004   2.394   1.235  0.0698 -0.6282  0.1870
 6065TIP3    H139610   7.013   2.483   1.271 -2.3278 -0.1267 -0.2750
 6065TIP3    H239611   7.081   2.347   1.268  1.9763  1.8602 -0.3881
 6066TIP3   OH239612   1.771   3.583   0.228 -0.4083 -1.0493 -0.8523
 6066TIP3    H139613   1.834   3.647   0.261 -0.2727 -1.5547 -0.1118
 6066TIP3    H239614   1.815   3.544   0.152 -0.6387 -0.0256 -1.5360
 6067TIP3   OH239615   5.296   5.041   9.430 -0.0288  0.3754 -0.1954
 6067TIP3    H139616   5.231   5.109   9.410 -0.9085 -0.1342  0.8497
 6067TIP3    H239617   5.255   4.959   9.402  0.6867  0.1815 -0.6861
 6068TIP3   OH239618   3.790   3.222  14.079 -0.3752 -0.1544  0.1089
 6068TIP3    H139619   3.793   3.200  14.172 -1.4911 -0.0861  0.1776
 6068TIP3    H239620   3.697   3.229  14.059 -0.2201 -1.5387 -1.3341
 6069TIP3   OH239621   2.367   0.257  10.603  0.1584  0.1360  0.6419
 6069TIP3    H139622   2.302   0.268  10.535 -0.0515 -0.4044  0.7444
 6069TIP3    H239623   2.330   0.300  10.680 -0.8877 -1.6499  1.1893
 6070TIP3   OH239624   2.009   1.689  12.076 -0.2042  0.2945 -0.1693
 6070TIP3    H139625   1.927   1.645  12.099  0.0321  1.5276  3.5687
 6070TIP3    H239626   1.983   1.755  12.012 -1.9340 -0.0827  0.0923
 6071TIP3   OH239627   6.647   0.472  14.961  0.6450 -0.0097 -0.2984
 6071TIP3    H139628   6.697   0.424  15.027  0.8049  0.0537 -0.3719
 6071TIP3    H239629   6.555   0.461  14.987  0.7766  1.6090  1.0262
 6072TIP3   OH239630   3.043   5.545   3.497  0.0679 -0.5562  0.7107
 6072TIP3    H139631   3.101   5.585   3.561 -0.0621 -0.4561  0.7643
 6072TIP3    H239632   2.973   5.506   3.549 -1.2906  1.4871  0.5187
 6073TIP3   OH239633   1.290   2.055   0.813 -0.2708  0.3564  0.1005
 6073TIP3    H139634   1.285   2.022   0.902  0.5261 -0.1320 -0.0224
 6073TIP3    H239635   1.279   2.149   0.821 -1.9830  0.1512  0.5256
 6074TIP3   OH239636   1.434   3.026   1.587  0.2187  0.4053 -0.5931
 6074TIP3    H139637   1.469   2.950   1.540 -2.9820 -1.1664 -0.7027
 6074TIP3    H239638   1.455   3.009   1.679  0.5305 -0.0321 -0.7431
 6075TIP3   OH239639   0.808   6.455  12.504 -0.5891 -0.2601  0.3740
 6075TIP3    H139640   0.853   6.527  12.548 -1.9053  1.9321 -1.6430
 6075TIP3    H239641   0.878   6.392  12.485  0.9356  1.2077  0.8046
 6076TIP3   OH239642   5.488   5.772   1.386  0.0594  0.4092 -0.0977
 6076TIP3    H139643   5.538   5.845   1.349 -0.8353  0.7708 -0.6281
 6076TIP3    H239644   5.402   5.810   1.407 -0.0509 -0.2348  0.6455
 6077TIP3   OH239645   2.948   4.819  13.012  0.0574  0.6692  0.2893
 6077TIP3    H139646   2.932   4.760  13.085 -1.2072  2.0223  1.1650
 6077TIP3    H239647   2.930   4.906  13.047 -0.1424  1.4020 -1.5135
 6078TIP3   OH239648   4.427   6.789   0.020 -0.3286  0.3573 -0.0961
 6078TIP3    H139649   4.445   6.883   0.028 -1.4165  0.6451 -0.8739
 6078TIP3    H239650   4.513   6.750   0.003  0.3744  1.0098  1.6917
 6079TIP3   OH239651   4.835   5.477  11.989 -0.4944  0.3913 -0.3380
 6079TIP3    H139652   4.889   5.413  11.944  0.4359 -0.1190  1.3940
 6079TIP3    H239653   4.866   5.562  11.957  1.3147  0.1056  0.5102
 6080TIP3   OH239654   6.692   1.287   0.135 -0.5735 -0.4954 -0.1188
 6080TIP3    H139655   6.625   1.219   0.135 -0.9767 -0.1377  1.5922
 6080TIP3    H239656   6.648   1.363   0.095 -2.4998  0.8168  3.8891
 6081TIP3   OH239657   0.971   4.034   0.310  0.3192  0.7178  0.5813
 6081TIP3    H139658   0.899   4.002   0.255  0.0573  2.6124 -0.2444
 6081TIP3    H239659   0.936   4.031   0.399 -1.5629  3.3346  0.0558
 6082TIP3   OH239660   0.021   6.574  12.070 -0.2844 -0.2425 -0.1946
 6082TIP3    H139661   0.039   6.481  12.055 -0.2423 -0.0613 -1.3546
 6082TIP3    H239662  -0.075   6.580  12.067 -0.2751 -0.2025 -0.4079
 6083TIP3   OH239663   6.422   3.670  11.818 -0.4270  0.2433 -0.1239
 6083TIP3    H139664   6.478   3.681  11.742 -0.2418 -0.0279 -0.0250
 6083TIP3    H239665   6.370   3.592  11.799  0.8893 -0.8970  0.8098
 6084TIP3   OH239666   4.855   6.881   3.799  0.5511  0.4625 -0.7397
 6084TIP3    H139667   4.861   6.790   3.826 -1.8041  1.4493  4.2949
 6084TIP3    H239668   4.815   6.878   3.713 -0.3362 -3.2468 -0.3608
 6085TIP3   OH239669   6.545   5.756  15.539  0.0605  0.0370 -0.2727
 6085TIP3    H139670   6.613   5.759  15.607 -0.0864  0.8261 -0.1471
 6085TIP3    H239671   6.527   5.663  15.527 -0.6715 -0.1173  1.5559
 6086TIP3   OH239672   6.233   1.442  15.229  0.2488 -0.2004  0.0242
 6086TIP3    H139673   6.170   1.510  15.252 -1.3027 -1.5386 -0.1032
 6086TIP3    H239674   6.188   1.360  15.249  1.6425 -1.2278 -0.8820
 6087TIP3   OH239675   3.977   1.503   0.064  0.4811 -0.0972  0.1345
 6087TIP3    H139676   3.993   1.571  -0.001 -0.3764 -1.4716 -1.6106
 6087TIP3    H239677   3.945   1.550   0.141 -2.4580  1.3671 -1.7896
 6088TIP3   OH239678   4.258   0.314   0.451  0.1826 -0.1277 -0.1418
 6088TIP3    H139679   4.176   0.271   0.426  0.7865 -1.1471 -0.4637
 6088TIP3    H239680   4.234   0.405   0.466 -0.8120 -0.1607 -1.3155
 6089TIP3   OH239681   3.089   6.558   1.677  0.2296  0.4653  0.4305
 6089TIP3    H139682   3.016   6.500   1.698  1.5937 -0.8987  1.6909
 6089TIP3    H239683   3.130   6.578   1.761  1.9231  0.2999 -0.3039
 6090TIP3   OH239684   6.746   2.789  10.316  0.2984  0.3486 -0.0646
 6090TIP3    H139685   6.799   2.735  10.373 -0.1075  0.6766  0.6377
 6090TIP3    H239686   6.797   2.797  10.236  1.0343  0.1770  0.3805
 6091TIP3   OH239687   5.004   1.024   5.210  0.5209 -0.8666  0.4114
 6091TIP3    H139688   5.076   1.062   5.261  1.1490 -0.1726 -0.9521
 6091TIP3    H239689   4.937   1.004   5.275  0.9225  0.8230  1.4044
 6092TIP3   OH239690   2.635   1.444  12.845 -0.0508 -0.0919 -0.2326
 6092TIP3    H139691   2.679   1.416  12.925 -0.0342  0.3932 -0.0661
 6092TIP3    H239692   2.677   1.527  12.822 -0.4436  0.0591 -0.4249
 6093TIP3   OH239693   6.868   1.118   5.347 -0.2904  0.3209  0.2386
 6093TIP3    H139694   6.946   1.063   5.340  0.1358  0.9944 -0.5829
 6093TIP3    H239695   6.873   1.176   5.271 -0.3582  1.9627  1.4245
 6094TIP3   OH239696   5.989   1.502  14.691 -0.0993  0.8411 -0.3156
 6094TIP3    H139697   6.046   1.487  14.765 -1.7377 -0.1586  0.8100
 6094TIP3    H239698   6.020   1.441  14.623  0.9404  1.2323 -0.1982
 6095TIP3   OH239699   2.559   1.676  15.014 -0.5867 -0.2226 -0.5669
 6095TIP3    H139700   2.632   1.727  14.978 -0.1624 -1.2661 -1.2249
 6095TIP3    H239701   2.600   1.594  15.043 -0.9425  0.4392  2.0462
 6096TIP3   OH239702   0.440   6.806  11.503 -0.0002 -0.4155 -0.2393
 6096TIP3    H139703   0.353   6.765  11.506  0.0459 -0.4522  0.6004
 6096TIP3    H239704   0.425   6.894  11.537 -0.4056  0.8777 -3.3481
 6097TIP3   OH239705   3.003   2.435   5.163 -0.3504 -0.2302 -0.0429
 6097TIP3    H139706   2.911   2.462   5.171 -0.2967 -0.5822  2.3785
 6097TIP3    H239707   3.052   2.503   5.210  0.1139 -2.4732  3.0270
 6098TIP3   OH239708   0.004   0.741  14.282  0.5247 -0.5507 -0.2609
 6098TIP3    H139709  -0.011   0.733  14.188  0.1015 -2.3761 -0.0750
 6098TIP3    H239710  -0.071   0.791  14.314  0.1842 -0.7430 -0.7572
 6099TIP3   OH239711   1.852   4.143   3.008 -0.2940  0.2116 -0.7883
 6099TIP3    H139712   1.875   4.086   3.082 -0.4471  0.0611 -0.8540
 6099TIP3    H239713   1.922   4.129   2.945  0.6547  1.4932 -0.0588
 6100TIP3   OH239714   6.524   3.808   0.884  0.4964 -0.2033  0.1186
 6100TIP3    H139715   6.460   3.785   0.951  1.0637 -0.0332  0.7359
 6100TIP3    H239716   6.598   3.750   0.901  0.6563 -0.1343 -0.3389
 6101TIP3   OH239717   3.019   6.706   2.297  0.1813  0.4926  0.6574
 6101TIP3    H139718   3.104   6.669   2.318 -0.0374 -0.7655 -0.5306
 6101TIP3    H239719   3.036   6.799   2.283  1.3581  0.2639  0.4700
 6102TIP3   OH239720   4.468   3.512  11.088 -0.1710 -0.6121 -0.4505
 6102TIP3    H139721   4.471   3.584  11.151  0.6930 -0.6438 -0.4370
 6102TIP3    H239722   4.467   3.433  11.142  1.8613 -0.6809 -0.4343
 6103TIP3   OH239723   1.687   6.487   2.503  0.3204  0.2300 -0.1976
 6103TIP3    H139724   1.707   6.421   2.436 -0.8718 -0.3605 -0.0105
 6103TIP3    H239725   1.648   6.559   2.453  1.1404  0.5840 -0.3412
 6104TIP3   OH239726   0.181   0.815  15.194 -0.0215 -0.4959 -0.6794
 6104TIP3    H139727   0.204   0.752  15.126  0.6233  0.8023 -1.6978
 6104TIP3    H239728   0.087   0.800  15.209  0.2217 -2.0173 -0.5248
 6105TIP3   OH239729   3.467   1.194  14.616 -0.0137  0.0999  0.3671
 6105TIP3    H139730   3.377   1.215  14.640  0.5327  1.7866  1.2045
 6105TIP3    H239731   3.502   1.148  14.693 -0.2611 -0.9007 -0.1128
 6106TIP3   OH239732   5.752   2.536  13.272 -0.8263 -0.2686 -0.1288
 6106TIP3    H139733   5.717   2.575  13.353 -1.2343  0.8481 -0.8279
 6106TIP3    H239734   5.680   2.541  13.210 -0.1004  0.0737 -0.9575
 6107TIP3   OH239735   6.748   2.045  11.615  0.3943 -0.1967 -0.2635
 6107TIP3    H139736   6.692   2.012  11.545  0.2088 -1.6875  0.5294
 6107TIP3    H239737   6.829   2.070  11.571 -1.2803  3.3886 -1.6434
 6108TIP3   OH239738   4.115   3.014  13.259 -0.3840 -0.8439  0.6697
 6108TIP3    H139739   4.148   3.014  13.169  1.8578 -0.8331  1.4307
 6108TIP3    H239740   4.049   3.084  13.260  2.0339  1.6387 -0.1599
 6109TIP3   OH239741   1.379   6.199  10.264 -0.6995 -0.1812  0.0398
 6109TIP3    H139742   1.384   6.206  10.359 -0.2200  0.7984 -0.0451
 6109TIP3    H239743   1.392   6.289  10.232 -1.9239 -0.3099 -0.9124
 6110TIP3   OH239744   0.448   6.538  13.684 -0.1740  0.4377 -0.0552
 6110TIP3    H139745   0.356   6.564  13.688 -0.0901  0.9422 -1.0739
 6110TIP3    H239746   0.446   6.442  13.683 -0.7289  0.4466 -0.5114
 6111TIP3   OH239747   0.457   5.386   5.368 -0.2762  0.3709 -0.6158
 6111TIP3    H139748   0.415   5.370   5.283 -0.7044  0.6761 -0.4636
 6111TIP3    H239749   0.549   5.369   5.353 -0.6331 -2.0043 -0.5640
 6112TIP3   OH239750   1.672   4.380  12.341  0.1457  0.5198  0.2970
 6112TIP3    H139751   1.690   4.472  12.325 -1.6805  0.8313 -0.2865
 6112TIP3    H239752   1.598   4.379  12.402  0.9550 -0.5893  1.3111
 6113TIP3   OH239753   5.513   1.119  10.111  0.2359  0.0170  0.7603
 6113TIP3    H139754   5.574   1.069  10.057 -0.6438 -0.2653  0.0068
 6113TIP3    H239755   5.489   1.195  10.058 -2.4218 -1.4244 -0.2896
 6114TIP3   OH239756   3.745   5.977  10.526 -0.2668 -0.1955  0.2639
 6114TIP3    H139757   3.762   5.956  10.435 -0.1267  2.6136 -0.4514
 6114TIP3    H239758   3.681   5.911  10.554 -1.7474 -0.0375 -2.4273
 6115TIP3   OH239759   3.878   2.659  11.367  0.6759  0.0613  0.1187
 6115TIP3    H139760   3.892   2.753  11.352  0.5235 -0.0874 -1.0127
 6115TIP3    H239761   3.819   2.656  11.443 -1.1675  0.9643 -1.2064
 6116TIP3   OH239762   6.156   1.277  10.099  0.0899  0.4385 -0.7098
 6116TIP3    H139763   6.207   1.296  10.020  0.6650  3.2828  0.2279
 6116TIP3    H239764   6.085   1.220  10.069  0.2984  1.4151 -3.2667
 6117TIP3   OH239765   1.126   0.724   9.362  0.1599 -0.4672 -0.2587
 6117TIP3    H139766   1.068   0.648   9.359  1.8220 -1.7749 -1.1546
 6117TIP3    H239767   1.213   0.687   9.373  0.7793  1.4877  2.4283
 6118TIP3   OH239768   2.119   6.577  10.566 -0.2495  0.1754  0.4589
 6118TIP3    H139769   2.105   6.603  10.658  0.8095  2.3644  0.0653
 6118TIP3    H239770   2.151   6.487  10.572 -1.2620 -0.1373  2.1455
 6119TIP3   OH239771   1.478   2.905  13.123 -0.1832  0.1363 -0.1317
 6119TIP3    H139772   1.425   2.966  13.173 -0.7382 -1.4003  1.2348
 6119TIP3    H239773   1.497   2.833  13.183 -0.1831 -1.4089 -1.8650
 6120TIP3   OH239774   2.093   0.066  10.600  0.1706 -0.2241  0.1961
 6120TIP3    H139775   2.141   0.129  10.545  0.4391 -0.4330  0.1886
 6120TIP3    H239776   2.093   0.106  10.687  0.9892 -0.5522  0.3560
 6121TIP3   OH239777   1.243   4.562  13.382  0.0203 -0.0145 -0.0770
 6121TIP3    H139778   1.220   4.516  13.462  0.5351 -0.3140 -0.1021
 6121TIP3    H239779   1.168   4.547  13.324 -1.5188  2.2507  1.1638
 6122TIP3   OH239780   0.255   4.211  15.550 -0.5933 -0.0134 -0.0227
 6122TIP3    H139781   0.312   4.280  15.515  0.1534 -0.8165 -0.4463
 6122TIP3    H239782   0.251   4.146  15.480 -0.0532 -1.0960  0.9141
 6123TIP3   OH239783   0.377   6.611   4.781  0.0379 -0.3003 -0.2472
 6123TIP3    H139784   0.431   6.552   4.729 -1.3033 -2.3614  0.5782
 6123TIP3    H239785   0.320   6.553   4.831 -1.6418  1.7315  0.3092
 6124TIP3   OH239786   1.903   6.788  13.528  0.0644 -0.4424  0.5075
 6124TIP3    H139787   1.895   6.858  13.464  1.7040 -1.6714 -1.1799
 6124TIP3    H239788   1.813   6.761  13.547 -0.4828  0.3309 -0.8795
 6125TIP3   OH239789   4.261   3.920  10.408 -0.1797 -0.3044  0.0502
 6125TIP3    H139790   4.171   3.896  10.384 -0.3210  2.4119 -2.9933
 6125TIP3    H239791   4.254   3.957  10.496 -2.4472  1.2499 -0.6822
 6126TIP3   OH239792   3.948   0.975   0.452  0.5326 -0.0403  0.2804
 6126TIP3    H139793   3.956   1.064   0.486  1.2108 -0.0557  0.1728
 6126TIP3    H239794   3.903   0.926   0.521  2.6926 -0.3031  1.5928
 6127TIP3   OH239795   1.689   0.426  10.101 -0.2982 -0.5086 -0.6171
 6127TIP3    H139796   1.636   0.400  10.025  0.1266 -0.2378 -1.0139
 6127TIP3    H239797   1.747   0.495  10.067  1.4977 -1.9387 -0.6426
 6128TIP3   OH239798   6.454   2.512   1.317 -0.1540 -0.0858  0.2591
 6128TIP3    H139799   6.402   2.486   1.241  2.4621  0.9076 -2.0450
 6128TIP3    H239800   6.436   2.605   1.328 -0.4461 -0.2044  0.8012
 6129TIP3   OH239801   5.553   1.388  14.423 -0.4436 -0.2893  0.3246
 6129TIP3    H139802   5.478   1.444  14.443 -0.1493  0.7572 -1.3451
 6129TIP3    H239803   5.629   1.446  14.424  0.0961 -0.9765  0.2363
 6130TIP3   OH239804   6.790   0.029  10.249 -0.4480  0.0166 -0.2512
 6130TIP3    H139805   6.709   0.012  10.297 -1.0798  1.3338 -0.7986
 6130TIP3    H239806   6.812  -0.055  10.208  0.2852 -1.2413  2.4967
 6131TIP3   OH239807   0.509   4.256  11.768 -0.0515  0.1387 -0.1065
 6131TIP3    H139808   0.438   4.194  11.788  0.0925 -0.3484 -1.0406
 6131TIP3    H239809   0.553   4.269  11.852 -0.2980 -0.7701  0.1780
 6132TIP3   OH239810   6.805   1.093   3.418  0.1915 -0.0316  0.2762
 6132TIP3    H139811   6.817   1.183   3.449  0.7913 -0.0728  0.1685
 6132TIP3    H239812   6.734   1.099   3.354 -0.7788  0.1292  1.3262
 6133TIP3   OH239813   5.106   3.116  12.795  0.5626  0.1374  0.4054
 6133TIP3    H139814   5.181   3.175  12.798 -0.2021  1.1594 -0.0485
 6133TIP3    H239815   5.096   3.087  12.886  1.3237  0.2118  0.5240
 6134TIP3   OH239816   0.899   6.044  12.996 -0.0855 -0.0242  0.2710
 6134TIP3    H139817   0.989   6.015  12.982 -0.3418 -0.7560  0.0357
 6134TIP3    H239818   0.906   6.134  13.027  0.7079  0.0475 -0.1038
 6135TIP3   OH239819   5.091   3.355  14.490  0.3537 -0.2620  0.0360
 6135TIP3    H139820   5.180   3.378  14.461  0.6626 -0.8756  0.4768
 6135TIP3    H239821   5.037   3.430  14.464  1.1730  0.5602  0.6487
 6136TIP3   OH239822   6.638   3.616  11.127 -0.3056  0.5003 -0.8838
 6136TIP3    H139823   6.716   3.658  11.091 -0.2932  1.0689 -0.2107
 6136TIP3    H239824   6.570   3.629  11.061  0.8165 -2.4530 -2.8345
 6137TIP3   OH239825   0.408   7.085  11.526 -0.2204  0.4151 -0.5638
 6137TIP3    H139826   0.400   7.072  11.620 -0.1628 -0.0561 -0.6227
 6137TIP3    H239827   0.358   7.164  11.508 -1.1668 -0.1199 -0.3086
 6138TIP3   OH239828   5.610   3.409  15.072 -0.3904 -0.2470 -0.1918
 6138TIP3    H139829   5.632   3.396  14.980 -1.0353 -0.6860 -0.2898
 6138TIP3    H239830   5.690   3.443  15.111  0.0423 -0.5276 -0.8147
 6139TIP3   OH239831   3.166   3.741  11.811  0.0503 -0.2904 -0.0101
 6139TIP3    H139832   3.079   3.700  11.808  0.1000 -0.5110  1.1129
 6139TIP3    H239833   3.160   3.805  11.882  0.4167  0.6598 -0.8076
 6140TIP3   OH239834   4.550   7.119  12.079  0.4593 -0.3924  0.1277
 6140TIP3    H139835   4.634   7.166  12.083 -0.0860  0.9003 -1.9271
 6140TIP3    H239836   4.570   7.040  12.028  0.2810  0.4128 -1.2507
 6141TIP3   OH239837   2.947   3.592   5.801 -0.8461 -0.1487 -0.7646
 6141TIP3    H139838   2.851   3.585   5.799 -1.0163  1.5360  0.1341
 6141TIP3    H239839   2.971   3.559   5.887 -0.7625  0.7989 -0.4192
 6142TIP3   OH239840   1.158   4.505   0.488  0.1219 -0.1042  0.0100
 6142TIP3    H139841   1.130   4.478   0.576  0.2009  1.2766  0.4865
 6142TIP3    H239842   1.210   4.431   0.455 -0.8634 -1.1176  0.6519
 6143TIP3   OH239843   4.882   1.391   0.142  0.1551  0.9825  0.1548
 6143TIP3    H139844   4.892   1.446   0.065 -1.8590 -0.3939 -1.1939
 6143TIP3    H239845   4.925   1.309   0.119 -0.8945  0.3820  0.2386
 6144TIP3   OH239846   1.565   2.065  14.836 -0.2638 -0.1797  0.3186
 6144TIP3    H139847   1.634   2.018  14.790  1.4570  0.2864  2.2900
 6144TIP3    H239848   1.558   2.148  14.789  2.0745  0.6503  1.2731
 6145TIP3   OH239849   3.019   2.093  14.922  0.3499  0.4460 -0.0942
 6145TIP3    H139850   2.982   2.075  15.008  0.7506 -0.6179 -0.1220
 6145TIP3    H239851   2.951   2.141  14.875  0.5631  2.1042  1.1918
 6146TIP3   OH239852   6.686   2.078   1.611  0.2503  0.2299 -0.0317
 6146TIP3    H139853   6.607   2.025   1.605  0.9327 -1.1195  1.8619
 6146TIP3    H239854   6.753   2.019   1.646  0.8720  2.4114  2.9204
 6147TIP3   OH239855   4.909   1.803  10.588  0.4331 -0.4148 -0.2153
 6147TIP3    H139856   4.870   1.716  10.597  0.9890 -0.7227 -0.6957
 6147TIP3    H239857   5.004   1.785  10.585  0.5546  0.2209 -0.1586
 6148TIP3   OH239858   1.636   5.866  12.689 -0.1658 -0.2124 -0.1196
 6148TIP3    H139859   1.573   5.927  12.650 -0.5231 -0.9382 -0.6919
 6148TIP3    H239860   1.653   5.903  12.776 -0.0954  0.8946 -0.5857
 6149TIP3   OH239861   4.579   5.133  10.582 -0.3597 -0.3294 -0.0968
 6149TIP3    H139862   4.546   5.062  10.527 -2.6179 -0.8680  1.7828
 6149TIP3    H239863   4.502   5.188  10.599  1.0489  1.8408 -0.3911
 6150TIP3   OH239864   2.636   0.283   4.857  1.0583  0.0456  0.5160
 6150TIP3    H139865   2.703   0.229   4.815  0.3385 -1.4652  1.2134
 6150TIP3    H239866   2.641   0.260   4.950 -0.8819 -0.6783  0.4977
 6151TIP3   OH239867   6.554   1.914  12.929 -0.3310  0.8548 -0.2152
 6151TIP3    H139868   6.602   1.906  12.847  0.3792  1.8066  0.0860
 6151TIP3    H239869   6.595   1.988  12.974 -0.6106  0.2561  1.0704
 6152TIP3   OH239870   2.321   4.740   0.280 -0.4031  0.3876  0.4017
 6152TIP3    H139871   2.358   4.655   0.305 -0.0250  0.5769  0.4895
 6152TIP3    H239872   2.396   4.800   0.281 -0.6324  0.6809  0.1449
 6153TIP3   OH239873   4.762   2.745   9.588  0.3229 -0.5765  0.3887
 6153TIP3    H139874   4.826   2.714   9.652  2.1468 -1.9299 -1.9302
 6153TIP3    H239875   4.758   2.676   9.523  1.3020  2.1345 -2.8203
 6154TIP3   OH239876   1.438   5.650  10.648  0.3499  0.0745 -0.1634
 6154TIP3    H139877   1.525   5.613  10.661  0.4208  0.0577 -0.6684
 6154TIP3    H239878   1.379   5.574  10.649  0.4701 -0.0336 -0.9711
 6155TIP3   OH239879   6.127   3.825  11.211  0.2728  0.0068  0.6520
 6155TIP3    H139880   6.117   3.745  11.158  0.9736 -1.1634  2.2149
 6155TIP3    H239881   6.052   3.879  11.186 -2.1631 -2.5405  1.9151
 6156TIP3   OH239882   6.157   4.217  14.186 -0.1698  0.0179 -0.3098
 6156TIP3    H139883   6.210   4.296  14.190 -0.0816 -0.0759  0.5288
 6156TIP3    H239884   6.146   4.191  14.277 -2.0103  0.2661 -0.4195
 6157TIP3   OH239885   4.113   3.299  14.101  0.2423 -0.3161 -0.6083
 6157TIP3    H139886   4.129   3.231  14.035  0.5127 -3.0160  2.0165
 6157TIP3    H239887   4.020   3.289  14.123  0.0761  0.7775 -0.7584
 6158TIP3   OH239888   1.973   2.820  13.675  0.1868 -0.3220 -0.0005
 6158TIP3    H139889   2.066   2.842  13.682  0.8211 -2.5578 -0.4557
 6158TIP3    H239890   1.934   2.857  13.754  1.0350  2.3365 -0.7143
 6159TIP3   OH239891   1.091   6.226  11.025  0.4099 -0.4752 -0.4173
 6159TIP3    H139892   1.145   6.211  11.103 -0.4925 -1.1120  0.0954
 6159TIP3    H239893   1.138   6.183  10.954  1.6508  0.7857 -0.4043
 6160TIP3   OH239894   2.525   4.016  13.112 -0.2606  0.2429  0.3845
 6160TIP3    H139895   2.535   3.923  13.134  0.5205 -0.0743 -1.1332
 6160TIP3    H239896   2.467   4.017  13.036 -0.9867  1.0817  0.9326
 6161TIP3   OH239897   5.149   5.421   3.397  0.1527 -0.6160  0.4734
 6161TIP3    H139898   5.162   5.344   3.341  0.7043 -1.0142  1.1149
 6161TIP3    H239899   5.235   5.435   3.436  0.8338  2.0113 -1.6787
 6162TIP3   OH239900   3.072   5.653  15.433  0.6028 -0.5377 -1.0570
 6162TIP3    H139901   2.981   5.643  15.463  0.3526  0.4719 -1.4230
 6162TIP3    H239902   3.120   5.682  15.511  0.2802  0.4923 -1.2289
 6163TIP3   OH239903   4.385   1.838  13.554 -0.3556 -0.0344 -0.6252
 6163TIP3    H139904   4.417   1.763  13.504  2.3779  0.3379  0.3783
 6163TIP3    H239905   4.364   1.904  13.487 -0.3884 -0.8371 -1.4200
 6164TIP3   OH239906   5.728   6.927  11.280  0.4631 -0.1944 -0.0440
 6164TIP3    H139907   5.816   6.957  11.302 -0.1042  0.9734  0.7698
 6164TIP3    H239908   5.673   7.004  11.294 -0.9813 -1.4232  1.4821
 6165TIP3   OH239909   0.139   6.914  13.385  0.0074 -0.3314  0.3259
 6165TIP3    H139910   0.130   6.830  13.429  0.0832 -0.3173  0.3678
 6165TIP3    H239911   0.095   6.902  13.301 -0.0685 -0.3825  0.3728
 6166TIP3   OH239912   3.951   3.445  12.346  0.4388 -0.2745  0.1110
 6166TIP3    H139913   3.945   3.412  12.256 -1.5864  0.4020 -0.0407
 6166TIP3    H239914   3.950   3.366  12.400 -2.4365 -0.6603 -0.3402
 6167TIP3   OH239915   2.686   2.057  13.737 -0.0367  0.2232 -0.3880
 6167TIP3    H139916   2.731   1.978  13.708 -4.6806 -2.5597 -1.0552
 6167TIP3    H239917   2.678   2.111  13.658  0.4976 -0.0800 -0.6536
 6168TIP3   OH239918   3.406   2.610  14.247  0.1866 -0.0484 -0.3626
 6168TIP3    H139919   3.367   2.585  14.331  0.0714 -0.7980 -0.6270
 6168TIP3    H239920   3.486   2.558  14.241 -0.5654 -1.1568 -1.3804
 6169TIP3   OH239921   5.206   2.991  10.708  0.1084 -0.2515  0.2530
 6169TIP3    H139922   5.230   3.046  10.634  1.7661 -0.8978  0.2535
 6169TIP3    H239923   5.112   3.003  10.718  0.2228  1.6246 -0.5018
 6170TIP3   OH239924   1.966   2.979  14.170 -0.3567  0.8070  0.2169
 6170TIP3    H139925   1.970   2.892  14.129 -2.5749  1.5006 -1.6744
 6170TIP3    H239926   2.039   3.027  14.130 -1.8517  1.1429 -2.3653
 6171TIP3   OH239927   2.603   5.043  12.126  0.9574  0.2131  0.4488
 6171TIP3    H139928   2.594   5.125  12.078  0.1001  0.2819  0.6961
 6171TIP3    H239929   2.627   4.978  12.060 -1.8666 -0.0487 -0.4436
 6172TIP3   OH239930   5.909   5.969  10.642  0.6648 -0.0333 -0.2673
 6172TIP3    H139931   5.958   6.052  10.642  0.0796  0.3207 -0.2870
 6172TIP3    H239932   5.942   5.922  10.566  0.7259  0.3592 -0.4864
 6173TIP3   OH239933   5.419   0.705  10.758 -0.2717  0.2181 -0.6116
 6173TIP3    H139934   5.357   0.741  10.695  0.1375  0.3187 -0.9633
 6173TIP3    H239935   5.424   0.612  10.737  1.6617  0.6480 -2.3155
 6174TIP3   OH239936   0.629   6.649  10.872  0.4955  0.0772 -0.1519
 6174TIP3    H139937   0.552   6.595  10.857  1.7730 -2.0650  0.5114
 6174TIP3    H239938   0.637   6.653  10.967  1.4926 -0.2177 -0.2081
 6175TIP3   OH239939   6.925   6.667   9.999  0.5670  0.2748  0.0409
 6175TIP3    H139940   6.974   6.732   9.949  1.0774  0.1815  0.4043
 6175TIP3    H239941   6.918   6.591   9.941 -1.6694  1.2719 -1.1075
 6176TIP3   OH239942   6.310   2.600  12.120  0.0768 -0.7036 -0.1593
 6176TIP3    H139943   6.227   2.594  12.167 -0.9129  1.7592 -1.4104
 6176TIP3    H239944   6.302   2.536  12.049 -0.4016 -1.0519  0.2031
 6177TIP3   OH239945   6.664   1.621  10.120  0.0150  0.0252 -0.1309
 6177TIP3    H139946   6.742   1.677  10.129 -0.1250  0.2181 -0.1160
 6177TIP3    H239947   6.592   1.683  10.107  0.2065 -0.1866 -2.8700
 6178TIP3   OH239948   6.414   1.928  14.823  0.2034  0.2430  0.7024
 6178TIP3    H139949   6.444   1.839  14.843 -0.2830  0.1474  1.0114
 6178TIP3    H239950   6.388   1.964  14.908 -1.5372 -0.0437  0.3263
 6179TIP3   OH239951   3.214   5.859   2.885  0.0635 -0.1891  0.8308
 6179TIP3    H139952   3.251   5.859   2.797  0.6263 -0.4010  1.0670
 6179TIP3    H239953   3.231   5.771   2.918  1.0247  0.2883  1.6408
 6180TIP3   OH239954   6.631   3.439  10.754 -0.2324 -0.2347 -0.0539
 6180TIP3    H139955   6.687   3.383  10.809 -2.5151 -0.2429  2.4999
 6180TIP3    H239956   6.603   3.382  10.683  2.1027 -0.5207 -0.8318
 6181TIP3   OH239957   3.241   1.610  11.857  0.8486  0.2809  0.3897
 6181TIP3    H139958   3.163   1.557  11.841  1.2918 -0.1077 -0.5227
 6181TIP3    H239959   3.241   1.624  11.952 -1.4764  2.0752  0.2391
 6182TIP3   OH239960   6.584   1.731  11.732  0.1933  0.0161  0.6014
 6182TIP3    H139961   6.584   1.765  11.643 -1.2367  1.3605  1.0684
 6182TIP3    H239962   6.677   1.728  11.757  0.9189 -3.2140 -1.8812
 6183TIP3   OH239963   3.795   5.422   0.238 -0.3298  0.3545  0.8112
 6183TIP3    H139964   3.759   5.472   0.165  0.8283 -0.7411 -0.5709
 6183TIP3    H239965   3.778   5.330   0.216  1.5661 -0.0908  1.0320
 6184TIP3   OH239966   0.984   6.032  10.642 -0.3134 -0.3093  0.1741
 6184TIP3    H139967   1.020   5.994  10.562 -0.6544  1.1138 -0.6821
 6184TIP3    H239968   1.050   6.014  10.709  1.8571  1.8656 -1.2366
 6185TIP3   OH239969   7.117   2.855   2.857  0.1078 -0.5684  0.3312
 6185TIP3    H139970   7.107   2.768   2.895 -0.2734 -1.6471 -2.0589
 6185TIP3    H239971   7.208   2.879   2.875  0.4993 -1.8930  0.1838
 6186TIP3   OH239972   5.718   4.187  11.274 -0.7343  0.3283 -0.2278
 6186TIP3    H139973   5.734   4.274  11.310 -0.9054  0.0902  0.4424
 6186TIP3    H239974   5.768   4.128  11.330 -1.3695 -0.0993 -0.0980
 6187TIP3   OH239975   4.436   5.120   0.212 -0.3973  0.2753 -0.4691
 6187TIP3    H139976   4.342   5.109   0.198 -1.4651 -0.3588  4.8715
 6187TIP3    H239977   4.450   5.214   0.210 -1.0646  0.3651 -1.5151
 6188TIP3   OH239978   1.664   5.487  10.010 -0.0629 -0.1659 -0.0100
 6188TIP3    H139979   1.678   5.392  10.012  3.5104  0.2115  2.5583
 6188TIP3    H239980   1.585   5.500  10.062  0.2374 -1.6706  0.9064
 6189TIP3   OH239981   0.162   3.641  11.053 -0.5341 -0.2945 -0.8201
 6189TIP3    H139982   0.236   3.617  10.998 -0.0441 -2.0420  0.5158
 6189TIP3    H239983   0.200   3.691  11.125 -0.7821 -0.3853 -0.6230
 6190TIP3   OH239984   0.493   4.540  11.331  0.2532  0.3745  0.1504
 6190TIP3    H139985   0.442   4.544  11.412 -0.6957  0.5185 -0.4334
 6190TIP3    H239986   0.577   4.502  11.357 -1.4478 -3.6562  0.5402
 6191TIP3   OH239987   4.720   6.504  11.537  0.0279 -0.0412 -0.0518
 6191TIP3    H139988   4.735   6.584  11.487 -2.3835  0.4398 -0.1616
 6191TIP3    H239989   4.624   6.498  11.543  0.1918 -1.5642  2.1291
 6192TIP3   OH239990   0.722   2.554  13.772 -0.7988 -0.1696  0.6858
 6192TIP3    H139991   0.763   2.520  13.851 -1.9727 -1.5764  0.7427
 6192TIP3    H239992   0.665   2.625  13.802 -0.8248 -0.3382  1.0430
 6193TIP3   OH239993   5.307   6.822  14.478 -0.0603 -0.2094 -0.3826
 6193TIP3    H139994   5.315   6.915  14.497  2.3964 -0.2129 -1.0090
 6193TIP3    H239995   5.356   6.810  14.397 -1.2583 -1.8872 -0.9063
 6194TIP3   OH239996   3.108   3.080   0.719  0.1716 -0.2662 -0.0010
 6194TIP3    H139997   3.147   3.117   0.798 -0.4720  0.3602  0.0425
 6194TIP3    H239998   3.019   3.115   0.718  0.4198  0.4013 -1.4301
 6195TIP3   OH239999   2.786   2.698  14.232 -0.4869  0.5731  0.0191
 6195TIP3    H140000   2.756   2.722  14.320  0.6736 -0.3179  0.6783
 6195TIP3    H240001   2.801   2.782  14.189  0.7815  1.0533  1.3324
 6196TIP3   OH240002   0.377   5.592  14.559 -0.5128  0.1798  0.6381
 6196TIP3    H140003   0.447   5.652  14.536  1.1279 -2.1208 -0.7922
 6196TIP3    H240004   0.312   5.603  14.489  0.4330 -0.6251 -0.4088
 6197TIP3   OH240005   6.555   6.385  10.190 -0.8647 -0.3631  0.0952
 6197TIP3    H140006   6.585   6.462  10.140  0.6925 -1.4162 -0.6912
 6197TIP3    H240007   6.539   6.419  10.278  0.2996  0.7924 -0.1013
 6198TIP3   OH240008   0.260   4.158  12.721 -0.0142 -0.0893 -0.1987
 6198TIP3    H140009   0.286   4.198  12.804  0.3420 -0.0027 -0.3489
 6198TIP3    H240010   0.201   4.086  12.746  0.3822 -0.2981  0.1557
 6199TIP3   OH240011   2.822   3.849  10.773  0.1690 -0.6714 -0.0284
 6199TIP3    H140012   2.838   3.760  10.807 -0.6968 -0.1676  1.8284
 6199TIP3    H240013   2.886   3.904  10.819 -1.8966  0.2316  1.9235
 6200TIP3   OH240014   2.375   1.274   3.876 -0.7909 -0.5324  0.0617
 6200TIP3    H140015   2.381   1.363   3.841  1.1519 -0.0843  1.3539
 6200TIP3    H240016   2.428   1.277   3.956 -1.0218 -2.7556  0.3385
 6201TIP3   OH240017   0.238   3.289  10.237  0.3533 -0.1641 -0.4773
 6201TIP3    H140018   0.153   3.270  10.279  1.0089 -0.5445  0.7241
 6201TIP3    H240019   0.214   3.326  10.152 -1.0846  1.8988  0.7045
 6202TIP3   OH240020   1.529   6.693  13.551 -0.0023 -0.2281  0.2441
 6202TIP3    H140021   1.485   6.768  13.511  1.0649  0.6497  0.6770
 6202TIP3    H240022   1.571   6.728  13.630  0.8520 -1.1799  0.2404
 6203TIP3   OH240023   0.172   2.345  10.736  0.6845 -0.0788  0.1230
 6203TIP3    H140024   0.205   2.360  10.825 -0.9735 -0.7860  0.8867
 6203TIP3    H240025   0.089   2.392  10.733  0.3409 -0.7354 -0.7876
 6204TIP3   OH240026   0.648   5.758  14.903  0.2639 -0.6091  0.2762
 6204TIP3    H140027   0.649   5.678  14.850  0.2520 -1.0604  0.9394
 6204TIP3    H240028   0.688   5.732  14.986 -1.4414 -0.4487  1.2022
 6205TIP3   OH240029   5.480   1.920  15.489  0.1685  0.3639  0.9290
 6205TIP3    H140030   5.393   1.959  15.477  0.2535 -0.0016 -1.5600
 6205TIP3    H240031   5.464   1.838  15.535 -0.5201  1.2536  2.3496
 6206TIP3   OH240032   3.163   7.105  14.101 -0.5825  0.6452  0.2643
 6206TIP3    H140033   3.124   7.024  14.065  0.2616  0.1381  0.4726
 6206TIP3    H240034   3.135   7.105  14.193 -0.8882  0.7825  0.1720
 6207TIP3   OH240035   6.674   6.986  13.373  0.5060  0.3988 -0.6188
 6207TIP3    H140036   6.696   6.978  13.280  3.0260 -1.4825  0.0335
 6207TIP3    H240037   6.756   7.010  13.416  0.2584 -2.1003  1.4892
 6208TIP3   OH240038   3.563   2.325  12.100 -0.0118 -0.2931  0.4886
 6208TIP3    H140039   3.549   2.265  12.173  0.8961  0.6914  1.5193
 6208TIP3    H240040   3.650   2.362  12.117  1.0425 -1.3902 -2.0766
 6209TIP3   OH240041   5.772   3.154  11.558 -0.5005 -0.0624 -0.1532
 6209TIP3    H140042   5.808   3.189  11.639  0.8868 -1.6629 -0.0376
 6209TIP3    H240043   5.776   3.227  11.497 -0.2983  0.7787  0.8309
 6210TIP3   OH240044   1.226   1.559  10.424 -0.2095  0.4423  0.3874
 6210TIP3    H140045   1.267   1.580  10.340 -1.3338  1.3791  0.0467
 6210TIP3    H240046   1.297   1.569  10.488  0.4928  0.3907 -0.3640
 6211TIP3   OH240047   5.387   5.209  10.589  0.2243 -0.2588 -0.3902
 6211TIP3    H140048   5.391   5.135  10.528  0.0531 -1.1302  0.6287
 6211TIP3    H240049   5.478   5.221  10.617 -0.0630 -1.8086  1.4109
 6212TIP3   OH240050   3.695   7.050   1.998 -0.3774 -0.0101  0.1880
 6212TIP3    H140051   3.645   6.990   1.942  1.1249 -0.0910 -1.1253
 6212TIP3    H240052   3.771   6.999   2.027  0.2442  0.8487  0.1175
 6213TIP3   OH240053   4.189   1.000   4.690  0.4572  0.5184  0.0631
 6213TIP3    H140054   4.244   0.926   4.715 -1.9660 -1.0782  1.0798
 6213TIP3    H240055   4.129   1.011   4.764 -0.9474  1.7780 -1.1940
 6214TIP3   OH240056   3.859   4.818  14.225  0.1081  0.2634 -0.2278
 6214TIP3    H140057   3.832   4.778  14.143  1.2747  0.0350 -0.5163
 6214TIP3    H240058   3.925   4.758  14.260 -0.0041  0.6233  0.6223
 6215TIP3   OH240059   4.649   5.148  10.947  0.1406  0.4262  0.3437
 6215TIP3    H140060   4.570   5.202  10.951 -0.7398 -0.7026 -0.9762
 6215TIP3    H240061   4.711   5.200  10.897  0.6245  1.7172  2.1600
 6216TIP3   OH240062   6.764   1.914  14.707  0.1961  0.2066 -0.1433
 6216TIP3    H140063   6.857   1.930  14.693  0.7983 -2.7383 -0.0812
 6216TIP3    H240064   6.742   1.844  14.646 -1.9972  0.8221 -0.1407
 6217TIP3   OH240065   2.929   5.432   5.803 -0.0358 -0.3982  0.6341
 6217TIP3    H140066   2.967   5.426   5.890  0.0768  0.9508  0.6952
 6217TIP3    H240067   2.903   5.523   5.794 -0.6754 -0.6662 -0.4903
 6218TIP3   OH240068   4.927   6.440   1.433 -0.3516 -0.3569 -0.1762
 6218TIP3    H140069   4.878   6.483   1.504 -1.2030 -0.1281 -0.8880
 6218TIP3    H240070   5.012   6.484   1.433 -0.5857  0.1122  0.2551
 6219TIP3   OH240071   6.496   4.747   2.297 -0.0268 -0.0652  0.8772
 6219TIP3    H140072   6.514   4.696   2.218 -1.7462  1.4901 -0.6090
 6219TIP3    H240073   6.563   4.815   2.298 -1.1934  1.1650 -0.4563
 6220TIP3   OH240074   6.336   4.211   0.299  0.2414  0.4529  0.3773
 6220TIP3    H140075   6.407   4.262   0.261 -0.1005  0.0912 -0.7879
 6220TIP3    H240076   6.291   4.173   0.224 -0.7163  0.0514  1.1326
 6221TIP3   OH240077   6.771   0.152   0.066 -0.8057 -0.2128  0.3939
 6221TIP3    H140078   6.703   0.212   0.097  0.6151  0.2764  2.8779
 6221TIP3    H240079   6.816   0.201  -0.003 -1.5105  0.3774  0.3388
 6222TIP3   OH240080   1.546   0.442  12.309  0.4337  0.3637 -0.1871
 6222TIP3    H140081   1.471   0.466  12.363  1.9974  1.3093  1.6951
 6222TIP3    H240082   1.508   0.414  12.226 -2.0243  0.0201  0.9611
 6223TIP3   OH240083   6.032   4.655   1.562 -0.0891 -0.5308  0.1005
 6223TIP3    H140084   6.125   4.671   1.549 -0.1030  0.5415  1.1670
 6223TIP3    H240085   6.011   4.696   1.646 -1.9378  1.1903 -1.0869
 6224TIP3   OH240086   0.511   4.101  15.646 -0.1255 -0.6020  0.0827
 6224TIP3    H140087   0.550   4.182  15.613  1.8989 -1.4281  0.2978
 6224TIP3    H240088   0.453   4.129  15.716 -0.1626  0.7313 -0.4526
 6225TIP3   OH240089   4.671   4.536   9.450  0.5925  0.1764 -0.1107
 6225TIP3    H140090   4.760   4.546   9.417  0.6620  0.4823  0.1614
 6225TIP3    H240091   4.622   4.607   9.409  1.0091  1.5093  1.5660
 6226TIP3   OH240092   1.956   6.310  10.476  0.7718  0.0358 -0.2308
 6226TIP3    H140093   1.988   6.342  10.560  1.1281  1.9705 -1.0634
 6226TIP3    H240094   1.920   6.223  10.496  1.6579  0.0626  1.7307
 6227TIP3   OH240095   6.278   3.469  11.365  0.0891  0.5739  0.3399
 6227TIP3    H140096   6.263   3.375  11.370 -0.0274  0.6467  1.7210
 6227TIP3    H240097   6.199   3.504  11.324 -0.1243  0.1374  0.3759
 6228TIP3   OH240098   0.892   4.277  14.199 -0.1938 -0.2424  0.9514
 6228TIP3    H140099   0.892   4.243  14.288 -0.3789  1.2429  1.5517
 6228TIP3    H240100   0.947   4.356  14.203  0.5494 -0.6516 -0.4605
 6229TIP3   OH240101   6.561   3.993  10.778  0.3624 -0.2513  0.2711
 6229TIP3    H140102   6.626   4.055  10.744 -0.8262  1.2006  0.5065
 6229TIP3    H240103   6.485   4.005  10.722 -0.0494 -1.2043  0.6071
 6230TIP3   OH240104   4.819   7.130   2.459 -0.2566  0.5589 -0.1643
 6230TIP3    H140105   4.806   7.222   2.484 -0.3812  0.3073  0.7049
 6230TIP3    H240106   4.736   7.087   2.481 -0.7160  0.4908 -1.8430
 6231TIP3   OH240107   5.311   1.933  15.056  0.1407 -0.0951 -0.1263
 6231TIP3    H140108   5.379   1.925  15.124 -0.2456 -1.4103  0.1300
 6231TIP3    H240109   5.357   1.970  14.981  1.0477 -0.5433  0.1909
 6232TIP3   OH240110   1.794   2.894  13.866 -0.3807 -0.3677 -0.2596
 6232TIP3    H140111   1.852   2.849  13.928 -1.0167 -1.6559 -0.5650
 6232TIP3    H240112   1.708   2.856  13.881 -1.1479  1.3784  0.0445
 6233TIP3   OH240113   7.016   2.455  11.860 -0.3890  0.2768  0.4862
 6233TIP3    H140114   6.999   2.405  11.781  0.0029 -0.1463  0.6656
 6233TIP3    H240115   7.076   2.400  11.911  0.7909  1.3302  0.2790
 6234TIP3   OH240116   1.969   5.063  14.129 -0.2077  0.2668  0.0370
 6234TIP3    H140117   1.922   5.134  14.172 -0.7030  0.4341 -0.7652
 6234TIP3    H240118   1.947   5.072  14.036  2.6565  1.3133 -0.6411
 6235TIP3   OH240119   2.618   3.591  10.646 -0.4134  0.3347  0.8409
 6235TIP3    H140120   2.535   3.601  10.599 -0.8030  1.9465  1.7767
 6235TIP3    H240121   2.685   3.618  10.584 -0.7297  0.4604  0.5535
 6236TIP3   OH240122   4.734   1.445  12.875 -0.2548  0.1767 -0.1503
 6236TIP3    H140123   4.662   1.506  12.858 -0.1025 -0.0731 -1.9120
 6236TIP3    H240124   4.803   1.472  12.815  0.7940 -0.1538  0.8735
 6237TIP3   OH240125   0.676   0.227   1.106 -0.0474 -0.5395 -0.4312
 6237TIP3    H140126   0.633   0.171   1.042  1.4032 -0.1199 -1.8628
 6237TIP3    H240127   0.747   0.172   1.142  0.7462  0.0237 -1.1001
 6238TIP3   OH240128   6.718   5.995   5.011 -0.0610  0.3504  0.3623
 6238TIP3    H140129   6.705   6.075   4.960 -0.4798  0.7953  1.1453
 6238TIP3    H240130   6.795   6.013   5.065  0.3530 -0.1015 -0.0565
 6239TIP3   OH240131   5.982   3.320  10.589 -0.0007 -0.1476 -0.0049
 6239TIP3    H140132   5.983   3.276  10.504  2.1946 -0.1052 -0.0491
 6239TIP3    H240133   6.071   3.310  10.622  0.3794  3.4641  0.4074
 6240TIP3   OH240134   5.907   3.591  11.716 -0.2232 -0.2149 -1.1125
 6240TIP3    H140135   5.837   3.636  11.763 -0.4925 -0.1801 -1.5368
 6240TIP3    H240136   5.880   3.499  11.716  0.7710 -0.5452  0.5405
 6241TIP3   OH240137   4.936   4.604   9.421 -0.1140  0.0069 -0.0256
 6241TIP3    H140138   4.968   4.607   9.511  0.3181  0.5405 -0.1907
 6241TIP3    H240139   5.015   4.604   9.367 -0.2720 -2.9463 -0.3967
 6242TIP3   OH240140   5.799   0.793   0.110  0.4064  0.4141 -1.0497
 6242TIP3    H140141   5.812   0.765   0.019 -0.8253 -1.1994 -0.7842
 6242TIP3    H240142   5.768   0.714   0.155 -0.1897  1.4766  0.4966
 6243TIP3   OH240143   4.846   0.783  12.098  0.2434  0.5979 -0.1108
 6243TIP3    H140144   4.813   0.759  12.184 -0.6433  1.1819 -0.2731
 6243TIP3    H240145   4.913   0.849  12.116  0.6568  0.1092  0.1704
 6244TIP3   OH240146   0.745   2.545  10.569 -0.1499 -0.2989  0.2994
 6244TIP3    H140147   0.777   2.635  10.557  0.0442 -0.2601  1.0159
 6244TIP3    H240148   0.822   2.490  10.554 -0.4481 -0.4110 -0.9278
 6245TIP3   OH240149   5.438   2.935  10.040 -0.2340  0.1710  0.2649
 6245TIP3    H140150   5.472   2.978  10.119 -0.4609  0.6651  0.0949
 6245TIP3    H240151   5.514   2.888  10.004 -0.0144  0.3251  0.5207
 6246TIP3   OH240152   0.482   2.178  14.954 -0.1577 -0.7214 -0.1752
 6246TIP3    H140153   0.393   2.169  14.918  0.1940 -0.6679 -1.0933
 6246TIP3    H240154   0.539   2.172  14.877  0.5395  1.1729  0.1492
 6247TIP3   OH240155   6.254   2.838  12.704 -0.2736  0.4814 -0.2179
 6247TIP3    H140156   6.255   2.801  12.616  0.7591 -0.6088  0.2171
 6247TIP3    H240157   6.177   2.799  12.746 -0.9223  1.2129 -0.7004
 6248TIP3   OH240158   2.928   2.789  14.566  0.0090  0.6956 -0.0583
 6248TIP3    H140159   2.933   2.808  14.472  0.5131  0.2306 -0.1298
 6248TIP3    H240160   2.931   2.875  14.608 -0.1927  0.9047 -0.4652
 6249TIP3   OH240161   6.918   3.624  15.314  0.1258  0.7822  0.4723
 6249TIP3    H140162   6.868   3.561  15.367  1.0104  0.0145  0.4252
 6249TIP3    H240163   6.956   3.684  15.379  0.5654  0.3145  0.6536
 6250TIP3   OH240164   4.493   0.795   2.020  0.2370 -0.3064 -0.0584
 6250TIP3    H140165   4.480   0.791   2.115 -0.6900  0.7010 -0.1280
 6250TIP3    H240166   4.418   0.844   1.987  2.6104  3.1793 -0.8387
 6251TIP3   OH240167   6.017   4.955  10.072  0.3766  0.1297 -0.0258
 6251TIP3    H140168   6.045   4.880  10.020 -0.7153 -0.1114 -0.2868
 6251TIP3    H240169   6.084   4.962  10.141 -0.6625 -2.5100  1.3922
 6252TIP3   OH240170   0.158   6.706  12.648 -0.7005 -0.7787 -0.1734
 6252TIP3    H140171   0.244   6.719  12.688 -1.4394 -0.6328  1.4595
 6252TIP3    H240172   0.172   6.722  12.555  0.9203 -0.1965  0.1352
 6253TIP3   OH240173   5.620   1.332  15.606 -0.4232 -0.4109 -0.1011
 6253TIP3    H140174   5.639   1.239  15.622 -0.8397 -0.2253  1.6579
 6253TIP3    H240175   5.553   1.354  15.671  1.4474  1.7354  1.2452
 6254TIP3   OH240176   1.274   2.097  14.031  0.6710  0.0286  0.6285
 6254TIP3    H140177   1.258   2.164  14.098  1.9631  0.2145  0.7968
 6254TIP3    H240178   1.198   2.101  13.974  0.4718  1.2869  0.9447
 6255TIP3   OH240179   5.862   7.038   2.322 -0.4062 -0.2428 -0.1355
 6255TIP3    H140180   5.906   7.074   2.398  0.0452 -0.6970 -0.1815
 6255TIP3    H240181   5.780   7.088   2.316  0.1287  0.6674 -0.1066
 6256TIP3   OH240182   4.181   0.718  10.395 -0.0042  0.2156  0.6173
 6256TIP3    H140183   4.207   0.752  10.309 -0.3213 -1.4383 -0.1819
 6256TIP3    H240184   4.260   0.725  10.448  0.2767  1.0069  0.1248
 6257TIP3   OH240185   2.663   5.544   1.392 -0.2679 -0.0943  0.0361
 6257TIP3    H140186   2.683   5.605   1.321 -0.1506  1.1976  1.1344
 6257TIP3    H240187   2.748   5.505   1.415 -0.5668 -2.0504 -1.7931
 6258TIP3   OH240188   3.145   3.091  11.982 -0.0949  0.9293  0.3114
 6258TIP3    H140189   3.160   3.168  12.037  2.4029  0.9572 -0.2674
 6258TIP3    H240190   3.196   3.108  11.902 -0.1939 -0.9372 -0.2080
 6259TIP3   OH240191   5.246   1.460  14.785 -0.3132  0.3439  0.6721
 6259TIP3    H140192   5.256   1.542  14.833 -0.2702  1.4871 -1.1910
 6259TIP3    H240193   5.316   1.404  14.817 -0.0941  1.1807  1.6800
 6260TIP3   OH240194   3.790   2.256  11.262  0.5666  0.0748 -0.3398
 6260TIP3    H140195   3.810   2.339  11.219 -1.5770 -0.6678 -3.1039
 6260TIP3    H240196   3.864   2.199  11.240  1.3466  0.8000  0.3309
 6261TIP3   OH240197   1.201   0.104  13.556 -0.1046 -0.2287  0.1507
 6261TIP3    H140198   1.240   0.111  13.643  2.3859 -0.0204 -0.8877
 6261TIP3    H240199   1.184   0.195  13.530 -0.6229 -0.2774  0.3046
 6262TIP3   OH240200   3.349   0.179  12.443 -0.1681  0.0721  0.5601
 6262TIP3    H140201   3.312   0.107  12.392 -0.6312  0.7961 -0.1549
 6262TIP3    H240202   3.420   0.213  12.388  0.3731 -0.1353  1.1100
 6263TIP3   OH240203   1.506   3.269  12.972 -0.1743 -0.0022 -0.2557
 6263TIP3    H140204   1.522   3.176  12.961  0.4320  0.2483 -1.7856
 6263TIP3    H240205   1.576   3.312  12.921  1.3288  1.3631  2.7255
 6264TIP3   OH240206   5.433   1.687   5.984 -0.4143 -0.3288 -0.4698
 6264TIP3    H140207   5.414   1.614   5.925 -4.0186 -0.0858  0.1598
 6264TIP3    H240208   5.464   1.645   6.064  0.5268 -0.9043 -1.1035
 6265TIP3   OH240209   5.165   0.317  12.362 -0.3768 -0.2293  0.3974
 6265TIP3    H140210   5.178   0.222  12.361 -0.2705 -0.2542  1.6673
 6265TIP3    H240211   5.202   0.348  12.280 -0.7399 -1.3254 -0.1914
 6266TIP3   OH240212   3.508   5.617  11.804 -0.1686 -0.6487 -0.4098
 6266TIP3    H140213   3.489   5.681  11.735  0.8871  0.7622  0.5758
 6266TIP3    H240214   3.479   5.533  11.766 -2.6987  0.5100 -1.2718
 6267TIP3   OH240215   1.162   5.931  15.171  0.0104 -0.0189  0.7516
 6267TIP3    H140216   1.088   5.988  15.151  0.7141  1.1633  1.4234
 6267TIP3    H240217   1.126   5.864  15.229 -0.9705 -0.6753 -0.5481
 6268TIP3   OH240218   5.298   1.989  12.139 -0.3277  0.1671 -0.2704
 6268TIP3    H140219   5.258   1.934  12.071  0.1783  0.1935 -0.5916
 6268TIP3    H240220   5.391   1.967  12.136  0.1007  1.8928 -1.2312
 6269TIP3   OH240221   3.213   2.801  14.327 -0.2354 -0.6699  0.2839
 6269TIP3    H140222   3.299   2.826  14.362  0.4519 -0.8750 -1.2035
 6269TIP3    H240223   3.230   2.723  14.275 -1.1338 -0.0985 -0.8921
 6270TIP3   OH240224   0.108   5.155  10.812  0.5352  0.1294  0.0629
 6270TIP3    H140225   0.098   5.089  10.881  1.2298 -0.3839 -0.3104
 6270TIP3    H240226   0.065   5.233  10.847  0.0542 -0.4005  0.6802
 6271TIP3   OH240227   6.574   0.628  13.919 -0.0945 -0.4301  0.5565
 6271TIP3    H140228   6.639   0.613  13.987 -0.2513  0.0048  0.8055
 6271TIP3    H240229   6.574   0.547  13.868  0.4319 -0.5437  0.7259
 6272TIP3   OH240230   1.303   6.369   2.032 -0.4036 -0.5489  0.9155
 6272TIP3    H140231   1.378   6.309   2.037  0.2045  0.2429  1.7692
 6272TIP3    H240232   1.296   6.391   1.940  2.3423  1.6665  1.1169
 6273TIP3   OH240233   1.474   4.473  11.103 -0.2949 -0.7523 -0.6512
 6273TIP3    H140234   1.525   4.554  11.098  0.5865 -1.0023  2.2101
 6273TIP3    H240235   1.540   4.405  11.119 -1.2016 -1.7075 -0.9179
 6274TIP3   OH240236   6.279   3.143   3.707 -1.0649 -0.3391 -0.0133
 6274TIP3    H140237   6.186   3.127   3.688 -1.8564  2.6157  0.9155
 6274TIP3    H240238   6.284   3.236   3.729  1.9046 -0.7260  1.4576
 6275TIP3   OH240239   4.451   6.040  10.339 -0.2293 -0.4935  0.6498
 6275TIP3    H140240   4.398   6.021  10.416  0.0249 -1.3528  0.6230
 6275TIP3    H240241   4.525   5.980  10.345  0.5776  0.4671  0.5173
 6276TIP3   OH240242   6.395   5.362  11.434 -0.0272  0.5833  0.4402
 6276TIP3    H140243   6.420   5.424  11.366  0.0213  0.8481  0.6976
 6276TIP3    H240244   6.478   5.336  11.474 -0.1053  1.0182  0.9067
 6277TIP3   OH240245   2.728   6.884  12.365  0.4446 -0.0726  0.3006
 6277TIP3    H140246   2.720   6.882  12.269  0.7625 -0.5878  0.2788
 6277TIP3    H240247   2.711   6.794  12.392  0.9944 -0.0720  0.6702
 6278TIP3   OH240248   0.565   5.218  15.470 -0.1095  0.5020 -0.3271
 6278TIP3    H140249   0.653   5.238  15.504  0.0559  0.3137 -0.6433
 6278TIP3    H240250   0.506   5.241  15.542  0.3505 -1.3822  0.7220
 6279TIP3   OH240251   4.479   6.739  11.758 -0.0702  0.0016 -0.1284
 6279TIP3    H140252   4.526   6.687  11.822 -0.1651 -0.0515 -0.1009
 6279TIP3    H240253   4.529   6.821  11.751  0.0722 -0.0894 -0.1648
 6280TIP3   OH240254   6.172   4.726  11.354 -0.1287  0.4303 -0.0403
 6280TIP3    H140255   6.250   4.697  11.305  0.2402  0.6659  0.4074
 6280TIP3    H240256   6.162   4.818  11.331  1.6311  1.3269  2.3474
 6281TIP3   OH240257   0.343   5.561  11.453 -0.2065  0.3382 -0.3313
 6281TIP3    H140258   0.319   5.639  11.502 -0.4637 -0.1653  0.3630
 6281TIP3    H240259   0.285   5.562  11.377 -0.0089  0.9734 -0.4730
 6282TIP3   OH240260   0.153   6.326  10.395  0.1039  0.5890 -0.8780
 6282TIP3    H140261   0.214   6.334  10.321 -0.0030  0.4359 -0.9828
 6282TIP3    H240262   0.165   6.236  10.426  0.0896  0.6283 -0.7610
 6283TIP3   OH240263   3.801   0.211   0.904 -0.8088  1.1722  0.1642
 6283TIP3    H140264   3.859   0.157   0.851 -1.0956  0.7631  0.2636
 6283TIP3    H240265   3.715   0.200   0.864 -0.4106  3.9717 -1.7250
 6284TIP3   OH240266   5.344   6.736   0.046 -0.7219 -0.0577 -0.0139
 6284TIP3    H140267   5.383   6.794   0.112  0.4261 -1.8431  0.9578
 6284TIP3    H240268   5.253   6.725   0.074 -0.4822 -0.1004  0.7679
 6285TIP3   OH240269   3.661   1.759   3.796  0.0824  0.2077 -0.1110
 6285TIP3    H140270   3.656   1.800   3.882  2.7416 -0.1328  0.2937
 6285TIP3    H240271   3.603   1.811   3.741 -1.0736  0.9114  1.6727
 6286TIP3   OH240272   0.800   7.069   9.771  0.0147  0.0990  0.6125
 6286TIP3    H140273   0.878   7.123   9.784  0.5781 -0.8516  1.3909
 6286TIP3    H240274   0.740   7.124   9.721  1.3891  0.6831 -0.4678
 6287TIP3   OH240275   0.102   1.126  10.862 -0.6094  0.1285  0.0247
 6287TIP3    H140276   0.078   1.204  10.911  2.1681  1.0285  0.1519
 6287TIP3    H240277   0.103   1.154  10.771 -0.9579 -0.1746 -0.0771
 6288TIP3   OH240278   1.901   4.010  12.859 -0.0601 -0.3510 -0.5433
 6288TIP3    H140279   1.895   3.991  12.953  0.5562 -0.4334 -0.5150
 6288TIP3    H240280   1.952   4.091  12.855  1.3466 -1.2181 -0.8703
 6289TIP3   OH240281   5.616   1.318  11.075  0.2270 -0.0957 -0.3599
 6289TIP3    H140282   5.650   1.249  11.019  1.4075  0.0534  0.1517
 6289TIP3    H240283   5.689   1.342  11.131 -0.4971  0.7916  0.2355
 6290TIP3   OH240284   1.106   4.235  12.346  0.3797 -0.2437  0.2541
 6290TIP3    H140285   1.151   4.193  12.419  1.2524  1.5275  0.7951
 6290TIP3    H240286   1.073   4.317  12.382  0.9844  0.7696 -1.3769
 6291TIP3   OH240287   1.209   6.425   4.886  0.5138 -0.1514 -0.0305
 6291TIP3    H140288   1.263   6.503   4.899  0.6158 -0.1822 -0.2527
 6291TIP3    H240289   1.131   6.457   4.842  0.4237 -0.1309  0.1457
 6292TIP3   OH240290   0.350   3.581  14.924 -0.0794 -0.1279  0.2048
 6292TIP3    H140291   0.415   3.547  14.861  0.5549 -0.8169  1.1935
 6292TIP3    H240292   0.365   3.529  15.003 -0.4751  1.1121  1.1177
 6293TIP3   OH240293   4.926   2.173  10.379  0.4235 -0.3682 -0.6115
 6293TIP3    H140294   4.890   2.246  10.429 -0.5608 -1.2797  0.0682
 6293TIP3    H240295   4.914   2.199  10.287  1.2259  0.8390 -0.3928
 6294TIP3   OH240296   1.210   5.521   4.181  0.1060 -0.1250 -0.2437
 6294TIP3    H140297   1.167   5.438   4.198 -2.0311  1.3956  2.6284
 6294TIP3    H240298   1.259   5.540   4.261  1.8143  0.7042 -1.4329
 6295TIP3   OH240299   1.822   2.372  15.044 -0.2753  0.0588  0.2363
 6295TIP3    H140300   1.882   2.437  15.080 -0.2906 -0.2808  0.9053
 6295TIP3    H240301   1.827   2.383  14.949  0.1773  0.6197  0.3224
 6296TIP3   OH240302   4.290   1.895  10.685 -0.1746  0.1156  0.0824
 6296TIP3    H140303   4.301   1.973  10.739  1.3795  0.7855 -1.1318
 6296TIP3    H240304   4.335   1.826  10.733 -1.9568 -0.2305  1.3980
 6297TIP3   OH240305   4.105   1.047  13.630  0.2978 -0.2185 -0.4523
 6297TIP3    H140306   4.049   1.125  13.636  0.2009 -0.3717  0.8081
 6297TIP3    H240307   4.046   0.974  13.647  1.0908 -0.2962  2.4489
 6298TIP3   OH240308   4.922   6.143  11.685  0.0200 -0.6707  0.0055
 6298TIP3    H140309   5.000   6.097  11.656  0.9991  2.0792 -2.2585
 6298TIP3    H240310   4.945   6.177  11.771  0.0881 -2.4232  0.7196
 6299TIP3   OH240311   4.951   5.737   2.558 -0.3167  0.1599  0.1613
 6299TIP3    H140312   4.938   5.779   2.473 -0.6822 -0.8758 -0.3099
 6299TIP3    H240313   5.010   5.796   2.605  0.2346  0.5370 -0.9631
 6300TIP3   OH240314   6.965   0.013  13.433 -0.1704 -0.1841 -0.3742
 6300TIP3    H140315   6.973   0.085  13.370  0.5486  1.6453  1.6830
 6300TIP3    H240316   7.021  -0.057  13.397 -1.5339 -0.1153 -2.8334
 6301TIP3   OH240317   4.386   3.217  15.649  0.7649  0.3418 -0.1097
 6301TIP3    H140318   4.414   3.201  15.739  1.5672 -1.2284 -0.6001
 6301TIP3    H240319   4.291   3.202  15.651  1.0115 -1.3654  0.1653
 6302TIP3   OH240320   1.059   6.914   3.857 -0.0989 -0.3258  0.2132
 6302TIP3    H140321   0.997   6.851   3.822 -1.9904  0.7169  1.5117
 6302TIP3    H240322   1.022   6.939   3.942  1.5874  1.0878  0.5890
 6303TIP3   OH240323   1.943   1.409   1.118  0.0655  0.5477  0.3434
 6303TIP3    H140324   1.853   1.421   1.088 -0.7860 -0.6838  2.1925
 6303TIP3    H240325   1.997   1.443   1.046 -1.8261  0.0359 -1.4224
 6304TIP3   OH240326   2.562   3.247  10.508  0.2792  0.2183 -0.2759
 6304TIP3    H140327   2.498   3.290  10.451 -0.3091 -2.4294 -1.7928
 6304TIP3    H240328   2.637   3.229  10.450 -0.1862 -2.2179 -0.2125
 6305TIP3   OH240329   6.110   4.920   0.339 -0.5202 -0.0275 -0.4981
 6305TIP3    H140330   6.121   4.925   0.434  1.1327 -1.6835 -0.5545
 6305TIP3    H240331   6.051   4.847   0.325 -0.5914  0.0800 -0.7645
 6306TIP3   OH240332   2.413   1.497  12.499 -0.1122 -0.2078  0.0948
 6306TIP3    H140333   2.507   1.482  12.509 -0.3659 -1.8588  0.2461
 6306TIP3    H240334   2.406   1.555  12.423  1.0124 -0.2608 -0.0601
 6307TIP3   OH240335   4.222   0.671  11.825  0.1189 -0.5431  0.2275
 6307TIP3    H140336   4.261   0.740  11.878  0.1041  0.1135 -0.5920
 6307TIP3    H240337   4.283   0.659  11.752  1.1493 -2.8015  1.3548
 6308TIP3   OH240338   4.404   3.015  12.462  0.2358  0.1671  1.0645
 6308TIP3    H140339   4.358   2.973  12.389  0.7054 -0.1031  0.9154
 6308TIP3    H240340   4.434   2.942  12.516  0.7766  0.3196  0.9793
 6309TIP3   OH240341   1.877   2.755   0.574 -0.8141  0.5977 -0.3277
 6309TIP3    H140342   1.807   2.720   0.629  1.3592 -1.5740  1.2763
 6309TIP3    H240343   1.910   2.680   0.526  0.0084  1.6910 -1.5540
 6310TIP3   OH240344   1.208   6.150   2.305 -0.8097  0.3511  0.0594
 6310TIP3    H140345   1.197   6.087   2.376 -1.3190  0.1675 -0.1846
 6310TIP3    H240346   1.133   6.208   2.312 -1.5116 -0.3886 -1.0682
 6311TIP3   OH240347   2.171   2.452   2.718  0.5639 -0.0280  0.4952
 6311TIP3    H140348   2.223   2.393   2.664 -0.3096  0.9841 -1.5482
 6311TIP3    H240349   2.234   2.516   2.751  0.6517  1.7215 -2.6892
 6312TIP3   OH240350   3.617   1.785   0.274  0.3626 -0.1114 -0.7499
 6312TIP3    H140351   3.702   1.830   0.267  0.5424 -0.3423 -0.1199
 6312TIP3    H240352   3.603   1.747   0.187  1.6685 -1.4032 -0.4394
 6313TIP3   OH240353   5.116   1.464  14.015  0.0731 -0.1549  0.0943
 6313TIP3    H140354   5.028   1.446  14.048 -0.6239  0.1362 -1.5137
 6313TIP3    H240355   5.155   1.522  14.081  0.8608 -3.9015  3.2831
 6314TIP3   OH240356   3.156   4.426  13.001  0.4493 -0.3002  0.4578
 6314TIP3    H140357   3.226   4.491  12.997  0.2728 -0.1617 -1.3295
 6314TIP3    H240358   3.178   4.363  12.932 -1.0185 -0.3965  0.0368
 6315TIP3   OH240359   4.282   2.279   1.643 -0.1793 -0.3168  0.6118
 6315TIP3    H140360   4.316   2.320   1.564 -0.9855  1.1974  1.0084
 6315TIP3    H240361   4.316   2.333   1.714 -2.4479  0.6459  1.0768
 6316TIP3   OH240362   2.370   6.971  14.843  0.4616  0.0344 -0.2177
 6316TIP3    H140363   2.366   7.067  14.848 -0.7281 -0.0610  2.3817
 6316TIP3    H240364   2.320   6.949  14.765  0.4938  1.5178 -0.6979
 6317TIP3   OH240365   0.574   6.869   4.732 -0.0293 -0.3235  0.4300
 6317TIP3    H140366   0.629   6.792   4.719 -0.1902 -1.0325  3.2023
 6317TIP3    H240367   0.487   6.833   4.751 -1.0082  0.7057 -1.7965
 6318TIP3   OH240368   2.065   6.552  14.242 -0.1679 -0.1881 -0.1442
 6318TIP3    H140369   2.069   6.503  14.160  0.2319 -2.4775  1.1431
 6318TIP3    H240370   1.974   6.579  14.250 -0.7440 -2.0037 -0.2505
 6319TIP3   OH240371   0.173   4.298  13.649  0.3435 -0.1691  0.0324
 6319TIP3    H140372   0.087   4.309  13.691  0.1494  0.8160 -0.5902
 6319TIP3    H240373   0.210   4.220  13.689  0.2726  0.8590  2.2493
 6320TIP3   OH240374   2.077   2.055  14.253 -0.0167  0.1929  0.1303
 6320TIP3    H140375   2.168   2.066  14.281  0.0179 -1.6026  0.8519
 6320TIP3    H240376   2.075   1.969  14.212 -1.7920 -0.7224  1.9719
 6321TIP3   OH240377   3.891   4.329  13.775  0.7169 -0.2663 -0.2751
 6321TIP3    H140378   3.985   4.346  13.777  0.6870 -0.0237  2.4113
 6321TIP3    H240379   3.881   4.246  13.822 -0.4994  0.3071  0.5200
 6322TIP3   OH240380   3.825   1.414  12.607  0.3731 -0.6480 -0.0371
 6322TIP3    H140381   3.866   1.419  12.693 -0.9880  1.1719  0.5595
 6322TIP3    H240382   3.785   1.500  12.594  1.2362 -0.5939 -2.8678
 6323TIP3   OH240383   5.917   3.239  15.378 -0.2768 -0.4873 -0.0517
 6323TIP3    H140384   5.918   3.311  15.315 -1.5230 -0.8633 -0.5212
 6323TIP3    H240385   6.009   3.224  15.399  0.0029  1.3698  0.2155
 6324TIP3   OH240386   5.598   5.570  10.400 -0.3898 -0.1782 -0.0604
 6324TIP3    H140387   5.671   5.613  10.355 -1.1825  0.5607 -0.6713
 6324TIP3    H240388   5.631   5.553  10.488 -0.5678  3.2498  0.8053
 6325TIP3   OH240389   4.790   3.665  13.519 -0.3805  0.5473 -0.4593
 6325TIP3    H140390   4.810   3.594  13.457 -0.4958  0.8936 -0.9023
 6325TIP3    H240391   4.706   3.699  13.488 -1.1767 -0.2340  0.7701
 6326TIP3   OH240392   4.860   4.873   3.167 -0.4189  0.0420  0.2947
 6326TIP3    H140393   4.914   4.871   3.245  0.8692  0.2558 -0.5597
 6326TIP3    H240394   4.882   4.957   3.125 -2.1658  0.6055  0.4254
 6327TIP3   OH240395   4.865   4.363  13.572 -0.8980  0.4674 -0.3363
 6327TIP3    H140396   4.878   4.273  13.601 -1.0190  0.2528 -0.9305
 6327TIP3    H240397   4.945   4.409  13.598  0.7568 -0.5939 -3.0521
 6328TIP3   OH240398   2.851   4.392   4.725 -0.2067  0.4966  0.3439
 6328TIP3    H140399   2.935   4.348   4.727  0.5615  1.8631 -0.1892
 6328TIP3    H240400   2.810   4.373   4.809  1.0071  0.5039  0.9429
 6329TIP3   OH240401   5.459   6.812  13.848  0.1007 -0.0230 -0.0834
 6329TIP3    H140402   5.553   6.797  13.856  0.2953  0.2087 -1.6319
 6329TIP3    H240403   5.419   6.734  13.887  0.8811  0.2991  1.4732
 6330TIP3   OH240404   3.645   5.721  12.037 -0.3396  0.1545  0.6758
 6330TIP3    H140405   3.640   5.678  11.951 -1.0310 -0.7523  1.1543
 6330TIP3    H240406   3.590   5.799  12.027  0.4829  0.6669 -0.0329
 6331TIP3   OH240407   6.144   2.670   3.427  0.3125 -0.1372  0.1778
 6331TIP3    H140408   6.149   2.686   3.522 -0.2937  2.3648 -0.1494
 6331TIP3    H240409   6.080   2.599   3.419 -0.9760  0.7849  1.5930
 6332TIP3   OH240410   5.994   1.593  11.396 -0.2418  0.1792  0.2236
 6332TIP3    H140411   6.015   1.683  11.374 -0.4297  0.5037  1.3129
 6332TIP3    H240412   6.067   1.564  11.451 -0.8578  0.1328  1.0361
 6333TIP3   OH240413   0.889   1.997   5.348  0.1674  0.0861  0.8467
 6333TIP3    H140414   0.848   2.013   5.433 -0.5550 -1.3149  0.7903
 6333TIP3    H240415   0.916   1.905   5.351 -1.2130 -0.4429 -0.9544
 6334TIP3   OH240416   5.481   4.457   3.028  0.2780 -0.7682 -0.0050
 6334TIP3    H140417   5.475   4.456   3.124 -2.4978  1.4118 -0.0337
 6334TIP3    H240418   5.519   4.542   3.007  0.1717 -0.9224 -0.8731
 6335TIP3   OH240419   4.335   1.934   5.054  0.8398 -0.0669 -0.0688
 6335TIP3    H140420   4.261   1.917   4.996 -0.0780 -2.0647  1.5756
 6335TIP3    H240421   4.298   1.983   5.127  1.6380  0.9247 -0.3061
 6336TIP3   OH240422   3.634   6.198  13.709 -0.4468 -0.2164  0.2779
 6336TIP3    H140423   3.603   6.175  13.796  2.5343 -1.1500  1.1843
 6336TIP3    H240424   3.624   6.293  13.705  0.8162  0.0497  2.2806
 6337TIP3   OH240425   2.715   3.738  15.084  0.5349  0.0225  0.2283
 6337TIP3    H140426   2.664   3.797  15.140  1.5611  2.0330 -0.8516
 6337TIP3    H240427   2.673   3.653  15.095 -0.9004  0.8842  2.0157
 6338TIP3   OH240428   4.598   2.538  10.824  0.1093  0.3947 -0.2688
 6338TIP3    H140429   4.581   2.450  10.792  1.9681 -0.5653  1.1799
 6338TIP3    H240430   4.656   2.526  10.899  1.4560  2.9159 -0.7641
 6339TIP3   OH240431   1.892   6.830  15.346 -0.6469 -0.1831  0.2627
 6339TIP3    H140432   1.889   6.864  15.436 -3.1798  0.3076  0.0893
 6339TIP3    H240433   1.979   6.793  15.336  1.2692  3.4810  1.5306
 6340TIP3   OH240434   2.312   1.960  12.830 -0.5250  0.6344  0.6993
 6340TIP3    H140435   2.250   1.954  12.903  0.7376  2.6655  2.0519
 6340TIP3    H240436   2.304   1.876  12.784 -3.3675  0.3727  1.5069
 6341TIP3   OH240437   0.529   5.197  11.725  0.5245 -0.5768 -0.4080
 6341TIP3    H140438   0.516   5.104  11.744 -3.2456 -0.1159  0.1012
 6341TIP3    H240439   0.556   5.235  11.809  3.1287 -1.2732 -0.8612
 6342TIP3   OH240440   5.006   3.226   0.730 -0.3786 -0.4970 -0.1518
 6342TIP3    H140441   5.087   3.262   0.695  0.0495 -1.9842 -0.7915
 6342TIP3    H240442   4.969   3.174   0.658 -1.7899 -0.0421  0.2010
 6343TIP3   OH240443   1.090   5.216   5.179  0.7572 -0.1123 -0.7633
 6343TIP3    H140444   1.084   5.148   5.112  2.4667  1.1758 -2.3124
 6343TIP3    H240445   1.169   5.193   5.229  0.6304  0.0499 -0.4858
 6344TIP3   OH240446   5.670   6.644   9.560 -0.1249  0.1395 -0.4547
 6344TIP3    H140447   5.676   6.577   9.492  0.7360 -0.9726  0.6855
 6344TIP3    H240448   5.588   6.625   9.605  0.6029 -0.8069  0.5111
 6345TIP3   OH240449   5.330   1.089  11.632  0.0290 -0.2557 -0.3097
 6345TIP3    H140450   5.298   1.067  11.544  0.1024  0.8627 -0.6231
 6345TIP3    H240451   5.414   1.131  11.618 -0.4126  0.8384  0.2296
 6346TIP3   OH240452   0.988   3.832   9.898 -0.1590  0.4578 -0.4552
 6346TIP3    H140453   0.980   3.805   9.806  2.8741  2.6866 -1.5618
 6346TIP3    H240454   1.037   3.761   9.939  0.1442  0.2985 -1.0708
 6347TIP3   OH240455   0.965   1.758   2.091 -0.3756  0.2078  0.5166
 6347TIP3    H140456   0.950   1.812   2.169 -1.8409 -1.8523  1.7687
 6347TIP3    H240457   1.059   1.765   2.076 -0.1926  1.4064  1.8899
 6348TIP3   OH240458   4.195   6.416  11.114  0.5082  0.2519  0.3235
 6348TIP3    H140459   4.222   6.354  11.181  0.1154 -0.6052 -0.2883
 6348TIP3    H240460   4.233   6.382  11.033 -0.0592  0.5664 -0.0885
 6349TIP3   OH240461   4.678   1.113   9.954  0.5142  0.3907  0.3723
 6349TIP3    H140462   4.700   1.077  10.040  2.0823  1.6313  0.5413
 6349TIP3    H240463   4.689   1.040   9.893 -0.0452 -0.3521  1.1496
 6350TIP3   OH240464   3.009   4.799   5.477  0.0610  0.2445 -0.1173
 6350TIP3    H140465   2.974   4.731   5.421  0.2923 -0.0240  0.0592
 6350TIP3    H240466   3.006   4.879   5.424 -1.9468  0.4983  0.3079
 6351TIP3   OH240467   3.549   2.539   0.980  0.4266 -0.2854 -0.3978
 6351TIP3    H140468   3.643   2.524   0.982  0.6807  1.1702 -0.4491
 6351TIP3    H240469   3.528   2.554   0.888  0.1802 -0.3410 -0.3534
 6352TIP3   OH240470   1.267   0.828   2.021  0.1415 -0.0105 -0.5442
 6352TIP3    H140471   1.313   0.793   2.097  0.6142  2.6062  0.4914
 6352TIP3    H240472   1.314   0.792   1.946  0.0940 -2.1042  0.3551
 6353TIP3   OH240473   5.763   2.538  10.341  0.3164 -0.0243 -0.5763
 6353TIP3    H140474   5.737   2.557  10.251  2.2696  1.1655 -0.9331
 6353TIP3    H240475   5.821   2.462  10.333 -2.0033 -2.0323  0.1120
 6354TIP3   OH240476   6.986   2.153  14.810 -0.1348 -0.4347 -0.3445
 6354TIP3    H140477   6.901   2.132  14.771 -1.0982 -2.0252  2.3609
 6354TIP3    H240478   7.038   2.186  14.737 -2.6888 -0.4972 -2.3333
 6355TIP3   OH240479   1.441   4.002  12.648  0.1488 -0.4030  0.0531
 6355TIP3    H140480   1.508   4.069  12.661 -0.5015  0.2107  0.3218
 6355TIP3    H240481   1.480   3.921  12.683  0.6087  0.0204  0.5310
 6356TIP3   OH240482   5.006   3.542  10.868  0.0712 -0.4145 -0.1084
 6356TIP3    H140483   5.098   3.517  10.868 -0.0702 -0.9637  0.4545
 6356TIP3    H240484   4.981   3.541  10.961 -0.8339 -1.5270 -0.3441
 6357TIP3   OH240485   0.275   5.978  11.025 -0.3565 -0.3300 -0.0323
 6357TIP3    H140486   0.284   5.884  11.014 -0.4755 -0.2527 -0.7934
 6357TIP3    H240487   0.364   6.012  11.011 -0.1001 -0.4104  1.2346
 6358TIP3   OH240488   5.162   4.357   0.187 -0.7203  0.1230  0.1656
 6358TIP3    H140489   5.111   4.429   0.150  0.5687 -0.0167 -2.0664
 6358TIP3    H240490   5.225   4.399   0.245 -1.0115  0.6514  0.1008
 6359TIP3   OH240491   2.542   1.539   2.916  0.3931  0.4947  0.0975
 6359TIP3    H140492   2.510   1.624   2.888 -0.2246  0.4047  0.5030
 6359TIP3    H240493   2.622   1.557   2.965  0.6917  0.7720 -0.4977
 6360TIP3   OH240494   1.953   2.376  11.154  0.1432  0.0163  0.0935
 6360TIP3    H140495   1.913   2.355  11.239 -1.5864 -0.8147 -0.8677
 6360TIP3    H240496   2.013   2.303  11.138 -1.1265 -0.9982 -0.3169
 6361TIP3   OH240497   3.425   3.382  13.873 -0.0357 -0.3536 -0.4488
 6361TIP3    H140498   3.345   3.434  13.868 -0.8534 -1.5007  0.3478
 6361TIP3    H240499   3.395   3.291  13.880  1.2959 -0.7276  1.1072
 6362TIP3   OH240500   4.616   5.423  11.115 -0.0954  0.1450  0.0340
 6362TIP3    H140501   4.630   5.410  11.208  0.7674  0.2855 -0.0688
 6362TIP3    H240502   4.703   5.416  11.076 -0.1519  2.0288 -0.5273
 6363TIP3   OH240503   1.582   1.253   2.279  0.6536 -0.0735 -0.0552
 6363TIP3    H140504   1.526   1.176   2.281  0.4658  0.0500  2.7701
 6363TIP3    H240505   1.565   1.298   2.361  1.5913  2.4205 -1.1176
 6364TIP3   OH240506   1.612   5.748   4.393 -0.2919 -0.0112 -0.3269
 6364TIP3    H140507   1.573   5.712   4.313 -0.5953  1.0988 -0.7000
 6364TIP3    H240508   1.604   5.843   4.383  0.5918  0.1771  0.5668
 6365TIP3   OH240509   6.301   0.273  10.614 -0.3265 -0.2240 -0.0315
 6365TIP3    H140510   6.376   0.307  10.661  0.1566  0.3160 -1.1695
 6365TIP3    H240511   6.225   0.310  10.659  0.0739 -0.5357  0.9346
 6366TIP3   OH240512   2.329   2.362  13.783 -0.5162  0.0075 -0.1189
 6366TIP3    H140513   2.402   2.374  13.723 -1.0090  1.2997 -0.4855
 6366TIP3    H240514   2.256   2.408  13.743 -1.6683 -1.5409  0.0660
 6367TIP3   OH240515   5.963   6.766  15.117 -0.1920 -0.6142 -0.0165
 6367TIP3    H140516   5.958   6.820  15.196 -1.3030  0.7228 -0.9710
 6367TIP3    H240517   6.057   6.764  15.096  0.0872 -0.7685  1.1729
 6368TIP3   OH240518   3.103   4.298  11.294 -0.1094 -0.4463 -0.1704
 6368TIP3    H140519   3.012   4.283  11.267 -0.7471  0.4602  1.3623
 6368TIP3    H240520   3.130   4.216  11.334 -1.1796  0.0906  1.7612
 6369TIP3   OH240521   4.582   1.333   4.969  0.1347  1.1804  0.0318
 6369TIP3    H140522   4.670   1.338   5.008 -0.3414 -0.5205  1.4955
 6369TIP3    H240523   4.524   1.369   5.037 -0.5837 -0.6287  0.4290
 6370TIP3   OH240524   5.520   2.115  12.898  0.3156 -0.2899 -0.6516
 6370TIP3    H140525   5.557   2.121  12.809 -1.1821  1.0381 -1.2343
 6370TIP3    H240526   5.482   2.027  12.902  0.6130 -0.4528 -1.2296
 6371TIP3   OH240527   2.374   0.298  14.304  0.0859 -0.6239  0.2263
 6371TIP3    H140528   2.359   0.354  14.228 -0.3083 -0.1531  0.6475
 6371TIP3    H240529   2.463   0.264  14.292  1.1140  1.6210  0.9285
 6372TIP3   OH240530   2.800   1.001  12.914  0.1202 -0.5926 -0.2533
 6372TIP3    H140531   2.848   1.061  12.857 -0.8337 -1.3017 -1.8896
 6372TIP3    H240532   2.713   0.993  12.873 -0.5383 -1.3026  1.1989
 6373TIP3   OH240533   3.487   4.602   2.083  0.1555  0.4915 -0.0547
 6373TIP3    H140534   3.573   4.560   2.088  0.4368  1.1876  1.8224
 6373TIP3    H240535   3.427   4.531   2.061  1.0945 -0.1634 -0.5669
 6374TIP3   OH240536   4.621   0.254  14.480  0.1432  0.3367  0.1546
 6374TIP3    H140537   4.622   0.182  14.542 -0.2209  0.5060  0.3593
 6374TIP3    H240538   4.709   0.255  14.442  0.4430  0.3855  0.8362
 6375TIP3   OH240539   0.889   1.354  14.923 -0.1486  0.2631 -0.3442
 6375TIP3    H140540   0.948   1.319  14.989 -0.5177 -0.1350 -0.2236
 6375TIP3    H240541   0.926   1.439  14.900  0.9978 -0.3753 -0.9476
 6376TIP3   OH240542   4.551   5.096   1.046  0.4931 -0.2777  0.3063
 6376TIP3    H140543   4.636   5.137   1.030  1.2498 -0.6686  2.7756
 6376TIP3    H240544   4.495   5.126   0.974  2.1296  1.7457 -0.2226
 6377TIP3   OH240545   1.746   3.293  13.855 -0.3303 -0.6251  0.3251
 6377TIP3    H140546   1.704   3.240  13.787 -0.1100  1.5310 -1.6235
 6377TIP3    H240547   1.685   3.365  13.872  0.0062 -0.6584  1.8399
 6378TIP3   OH240548   0.085   1.382   2.556 -0.9629 -0.5225  0.1285
 6378TIP3    H140549   0.063   1.298   2.598  0.7863 -2.1423 -2.0116
 6378TIP3    H240550   0.028   1.386   2.479 -0.9737  0.2349  0.1692
 6379TIP3   OH240551   1.033   2.115   4.691 -0.2060  0.4007 -0.2422
 6379TIP3    H140552   1.121   2.106   4.654 -0.6096  2.2424 -1.7966
 6379TIP3    H240553   0.996   2.191   4.647 -3.2324 -1.2790 -0.8748
 6380TIP3   OH240554   3.702   5.594  11.494  0.6809  0.3437  0.3241
 6380TIP3    H140555   3.636   5.607  11.425  1.4380 -0.8669 -0.6704
 6380TIP3    H240556   3.672   5.649  11.566  0.1086  2.0691 -1.1402
 6381TIP3   OH240557   6.115   2.705   2.794  0.9289  0.3689 -0.4596
 6381TIP3    H140558   6.065   2.637   2.840  0.6587  1.5222  1.0426
 6381TIP3    H240559   6.180   2.735   2.858  0.9144  1.6415 -0.9993
 6382TIP3   OH240560   0.113   0.660  15.497  0.3872 -0.5194 -0.2841
 6382TIP3    H140561   0.195   0.611  15.496  0.0175 -1.5755  3.5076
 6382TIP3    H240562   0.140   0.752  15.495  2.0805 -0.7276  3.5796
 6383TIP3   OH240563   2.234   2.097   3.172  0.6965  0.0340 -0.2002
 6383TIP3    H140564   2.313   2.044   3.184  2.0463  1.6311 -1.4602
 6383TIP3    H240565   2.256   2.155   3.099 -1.7088  0.4640 -0.6454
 6384TIP3   OH240566   3.963   6.730  15.471  0.0676 -0.0714  0.0328
 6384TIP3    H140567   4.043   6.782  15.466  2.0509 -2.9731 -0.3632
 6384TIP3    H240568   3.926   6.734  15.383  0.5957  0.0825 -0.1850
 6385TIP3   OH240569   4.075   0.176   3.007 -0.1061 -0.3039  0.4518
 6385TIP3    H140570   4.011   0.134   2.948 -0.5285 -0.9419  1.3451
 6385TIP3    H240571   4.136   0.220   2.948 -3.1722  3.1981 -0.4640
 6386TIP3   OH240572   4.513   1.618  15.256  0.3127 -0.0910 -0.1525
 6386TIP3    H140573   4.495   1.537  15.303 -2.3387  1.2807  1.4391
 6386TIP3    H240574   4.467   1.609  15.172  0.3040 -0.3412 -0.1202
 6387TIP3   OH240575   3.831   5.112  15.613  0.4717 -0.3384  0.0126
 6387TIP3    H140576   3.903   5.137  15.556  0.2062 -0.0815 -0.2121
 6387TIP3    H240577   3.752   5.133  15.563  0.2366  0.0320  0.5285
 6388TIP3   OH240578   3.422   2.228  11.439  0.7995 -0.7843 -0.6621
 6388TIP3    H140579   3.432   2.216  11.344  0.6066 -1.6305 -0.5783
 6388TIP3    H240580   3.342   2.180  11.461 -0.3017  1.0818 -0.3863
 6389TIP3   OH240581   7.001   2.032   0.803  0.6856 -0.6425  0.0911
 6389TIP3    H140582   7.063   2.052   0.732 -0.1431 -0.7234 -0.6820
 6389TIP3    H240583   7.041   1.959   0.850  1.7004  0.0308  0.2869
 6390TIP3   OH240584   7.018   4.294   0.962  0.0055  0.2600 -0.3071
 6390TIP3    H140585   7.078   4.344   0.906 -0.5352 -0.6012 -1.7124
 6390TIP3    H240586   6.931   4.324   0.935 -0.3599 -1.7295 -1.5606
 6391TIP3   OH240587   0.087   7.089  12.538 -0.0548  0.2343  0.3795
 6391TIP3    H140588   0.137   7.018  12.497  0.6021  1.0893 -0.3444
 6391TIP3    H240589   0.137   7.111  12.617 -0.2342 -0.0731  0.5804
 6392TIP3   OH240590   1.104   2.013   0.016  0.2943 -0.0165  0.3701
 6392TIP3    H140591   1.014   1.981   0.022 -0.2805  1.2503 -0.9881
 6392TIP3    H240592   1.158   1.935   0.031 -1.0434 -1.3147 -1.1880
 6393TIP3   OH240593   6.445   1.389   3.344 -0.2059 -0.1554 -0.2797
 6393TIP3    H140594   6.492   1.377   3.427 -2.9321  0.5650  1.4808
 6393TIP3    H240595   6.395   1.308   3.333 -1.4666  0.5716 -0.0803
 6394TIP3   OH240596   6.948   0.364  12.156  0.5539 -0.6764  0.5546
 6394TIP3    H140597   6.908   0.323  12.233 -0.7332  1.8429  1.3437
 6394TIP3    H240598   7.040   0.375  12.179  0.3038 -0.5023  1.5054
 6395TIP3   OH240599   6.232   5.375   3.107 -0.1336 -0.2409  0.1764
 6395TIP3    H140600   6.271   5.397   3.191 -0.3385 -1.2097  0.5443
 6395TIP3    H240601   6.187   5.454   3.079 -2.0898 -0.5792  2.1321
 6396TIP3   OH240602   3.189   4.688   1.892 -0.3827 -1.0425 -0.3868
 6396TIP3    H140603   3.166   4.655   1.805 -1.1978 -1.0395 -0.1805
 6396TIP3    H240604   3.158   4.620   1.952  0.1013 -1.0060 -0.0873
 6397TIP3   OH240605   4.476   2.672   1.091  0.5859  0.2197  0.4606
 6397TIP3    H140606   4.530   2.594   1.081 -0.1090 -0.1338 -0.6527
 6397TIP3    H240607   4.498   2.726   1.015 -1.2075 -0.2970 -0.4693
 6398TIP3   OH240608   7.073   1.637  11.964 -0.8226  0.4070 -0.1172
 6398TIP3    H140609   6.994   1.647  12.018 -0.3171 -0.8581  0.9052
 6398TIP3    H240610   7.115   1.558  11.997  0.7321  0.8831 -0.8567
 6399TIP3   OH240611   0.590   6.606  10.514 -0.6726  0.3633  0.0680
 6399TIP3    H140612   0.605   6.517  10.544  2.7180  0.7120 -0.2684
 6399TIP3    H240613   0.616   6.606  10.422 -0.2876  1.7529  0.1460
 6400TIP3   OH240614   0.763   1.537   0.535  0.8892  0.3895  0.6691
 6400TIP3    H140615   0.732   1.513   0.447 -0.2994  1.3792  0.8047
 6400TIP3    H240616   0.824   1.466   0.558  0.5159 -0.3709 -0.5662
 6401TIP3   OH240617   4.771   1.239   4.556  0.9013 -0.4674 -0.0606
 6401TIP3    H140618   4.824   1.249   4.635 -0.1771  1.3402  0.4961
 6401TIP3    H240619   4.711   1.167   4.576  1.5442 -0.9342  0.2137
 6402TIP3   OH240620   5.497   2.874  15.647  0.0623  0.1771 -0.1330
 6402TIP3    H140621   5.520   2.942  15.711  0.4113  1.6074 -1.7102
 6402TIP3    H240622   5.572   2.870  15.588 -0.1078 -1.3474 -0.2934
 6403TIP3   OH240623   0.612   3.872   3.222  0.0029  0.7677 -0.1614
 6403TIP3    H140624   0.570   3.957   3.211 -4.1766 -0.8024  1.7382
 6403TIP3    H240625   0.666   3.881   3.301  0.0476  1.7523 -0.2967
 6404TIP3   OH240626   4.155   0.691   3.474  0.1864  0.1540 -0.2566
 6404TIP3    H140627   4.228   0.661   3.420  0.6144  0.0343  0.3765
 6404TIP3    H240628   4.188   0.770   3.518 -0.3893  0.6477 -0.6946
 6405TIP3   OH240629   2.188   2.621  10.734  0.2765  0.3333  0.3681
 6405TIP3    H140630   2.236   2.605  10.653  0.2390  1.3591  0.1247
 6405TIP3    H240631   2.096   2.614  10.709  0.2718 -0.3678  0.5575
 6406TIP3   OH240632   2.976   1.549   0.452  0.0006 -0.2489  1.0391
 6406TIP3    H140633   2.900   1.604   0.473 -1.4556 -1.9634  0.4973
 6406TIP3    H240634   2.961   1.468   0.500  0.6682 -1.2330 -0.3483
 6407TIP3   OH240635   6.632   2.098   1.924 -0.3293  0.0742  0.4596
 6407TIP3    H140636   6.671   2.185   1.920 -0.9752  0.3570  0.1625
 6407TIP3    H240637   6.598   2.082   1.836  1.5090 -1.3155 -0.0532
 6408TIP3   OH240638   0.402   5.501  12.839  0.0853  0.2622 -0.4211
 6408TIP3    H140639   0.448   5.519  12.921 -0.4299  0.0660 -0.0792
 6408TIP3    H240640   0.357   5.418  12.856  0.0577  0.1720 -0.9409
 6409TIP3   OH240641   3.405   3.356   1.169  0.0516  0.2052  0.1737
 6409TIP3    H140642   3.320   3.314   1.158 -0.4819  0.8590  1.6653
 6409TIP3    H240643   3.469   3.286   1.152 -0.7688 -0.4138 -0.4331
 6410TIP3   OH240644   6.315   3.109   4.646 -0.2170 -0.7261  0.3416
 6410TIP3    H140645   6.314   3.172   4.574 -0.7305 -1.5213 -0.3652
 6410TIP3    H240646   6.382   3.143   4.706 -0.1361  0.2205 -0.2554
 6411TIP3   OH240647   3.827   4.081  12.407 -0.4353  0.1471 -0.0901
 6411TIP3    H140648   3.898   4.130  12.366 -0.7057  0.7412  0.1341
 6411TIP3    H240649   3.858   3.991  12.411  0.5310  0.4970  0.5126
 6412TIP3   OH240650   4.667   6.794   1.075 -0.4645 -0.3431 -0.1220
 6412TIP3    H140651   4.653   6.712   1.122  0.6394 -0.5373 -0.1074
 6412TIP3    H240652   4.691   6.857   1.143 -0.3825 -0.2464 -0.2407
 6413TIP3   OH240653   4.303   4.965   4.908  0.0981  0.3710 -0.5110
 6413TIP3    H140654   4.289   4.887   4.963 -2.0760  0.5721 -0.6645
 6413TIP3    H240655   4.248   5.032   4.949  0.3958  1.2513 -1.5213
 6414TIP3   OH240656   3.178   2.205  13.229 -0.8271 -0.1481  0.5118
 6414TIP3    H140657   3.156   2.287  13.186  0.9988  2.1499  3.5258
 6414TIP3    H240658   3.096   2.175  13.268 -1.2345  1.1960  0.7396
 6415TIP3   OH240659   1.970   4.766  12.883  0.2632 -0.7012 -0.5514
 6415TIP3    H140660   2.053   4.782  12.836 -0.7067 -0.0932 -2.1474
 6415TIP3    H240661   1.921   4.708  12.825 -1.3055  0.6996 -0.6840
 6416TIP3   OH240662   2.107   6.062   4.888 -0.2226 -0.2878 -0.0026
 6416TIP3    H140663   2.038   6.099   4.832  0.0575 -1.7670 -1.3876
 6416TIP3    H240664   2.059   6.013   4.954 -0.5172 -0.1898 -0.1397
 6417TIP3   OH240665   4.725   2.577  14.526  0.4900  0.1952  0.1899
 6417TIP3    H140666   4.734   2.601  14.434  0.5140  0.6662  0.3157
 6417TIP3    H240667   4.644   2.620  14.555  0.1064 -0.5192  0.2088
 6418TIP3   OH240668   2.864   0.404   5.830  0.2087  0.5230 -0.6490
 6418TIP3    H140669   2.947   0.358   5.817 -0.5380 -1.2202  0.3221
 6418TIP3    H240670   2.801   0.334   5.850 -1.3192  1.8633 -0.5646
 6419TIP3   OH240671   0.265   6.083  10.444 -1.0034 -0.1763 -0.2508
 6419TIP3    H140672   0.185   6.038  10.472 -0.9560  0.6956  1.4091
 6419TIP3    H240673   0.335   6.037  10.491 -0.7922  0.5572  0.1674
 6420TIP3   OH240674   3.213   2.455   0.784 -0.2184 -0.3750 -0.1593
 6420TIP3    H140675   3.239   2.389   0.848 -0.2003  1.2991  1.6304
 6420TIP3    H240676   3.295   2.496   0.756 -0.1856 -1.3405 -1.6095
 6421TIP3   OH240677   3.921   0.665  11.936 -0.6376 -0.3397 -0.2602
 6421TIP3    H140678   3.834   0.671  11.975 -0.1002  0.5998  0.8690
 6421TIP3    H240679   3.967   0.602  11.991  0.2637  1.3187  0.9726
 6422TIP3   OH240680   0.917   2.547   0.760  0.2072  0.3101  0.0106
 6422TIP3    H140681   0.888   2.469   0.807 -3.5507  0.5692 -1.5077
 6422TIP3    H240682   0.977   2.513   0.694  0.4026 -0.9621  0.7961
 6423TIP3   OH240683   6.506   2.883  14.995  0.1900 -0.8741  0.1056
 6423TIP3    H140684   6.504   2.854  14.904 -2.7395 -2.4395  0.5602
 6423TIP3    H240685   6.532   2.806  15.045  0.8491 -0.2886  0.6918
 6424TIP3   OH240686   6.055   2.115  10.160  0.7398  0.0999  0.2613
 6424TIP3    H140687   6.147   2.090  10.155  0.4276 -1.0245 -0.1328
 6424TIP3    H240688   6.026   2.121  10.069  0.3626  0.1916  0.3831
 6425TIP3   OH240689   6.478   3.273  12.938  0.1124  1.0154 -0.6750
 6425TIP3    H140690   6.432   3.352  12.909 -1.0410  0.4406 -0.4448
 6425TIP3    H240691   6.414   3.202  12.927  1.5595 -0.1348 -2.1906
 6426TIP3   OH240692   6.685   4.038   3.531 -0.0231 -0.0752  0.4827
 6426TIP3    H140693   6.664   3.964   3.589  0.4002  0.5005  1.3820
 6426TIP3    H240694   6.664   4.116   3.582 -2.5419  0.4899 -1.1942
 6427TIP3   OH240695   2.624   5.278  13.324  0.4067 -0.0904  0.1084
 6427TIP3    H140696   2.533   5.304  13.339  0.3844 -0.3970  0.5349
 6427TIP3    H240697   2.674   5.359  13.335  0.2059  0.0398  0.0721
 6428TIP3   OH240698   3.233   0.808  14.807  0.1416 -0.1794  0.1654
 6428TIP3    H140699   3.163   0.743  14.801 -0.7596  0.8971 -3.1064
 6428TIP3    H240700   3.272   0.793  14.892 -0.9565 -4.0127  0.1818
 6429TIP3   OH240701   3.960   6.718   3.709 -0.3486  0.3112  0.3082
 6429TIP3    H140702   3.978   6.665   3.786  2.9548  0.5315 -0.1675
 6429TIP3    H240703   3.898   6.665   3.657 -0.5836 -1.0102  1.8640
 6430TIP3   OH240704   7.099   6.506  10.126 -0.1737  0.1128  0.6827
 6430TIP3    H140705   7.038   6.572  10.091 -0.3892 -0.4702 -0.0607
 6430TIP3    H240706   7.075   6.425  10.081  0.6245 -0.2977  0.9847
 6431TIP3   OH240707   1.043   3.590  11.459 -0.3145 -0.1938 -0.5503
 6431TIP3    H140708   1.051   3.578  11.364  1.3285 -1.2965 -0.3179
 6431TIP3    H240709   1.085   3.513  11.497 -1.1037  0.1369  1.0927
 6432TIP3   OH240710   0.407   6.977   1.677  0.7175 -0.5015  0.2341
 6432TIP3    H140711   0.467   7.034   1.629 -0.3355 -0.0201 -0.5498
 6432TIP3    H240712   0.320   7.001   1.646  0.1017 -1.2052  1.3200
 6433TIP3   OH240713   2.511   4.923   2.897  0.7577  0.4600 -0.1394
 6433TIP3    H140714   2.457   4.951   2.971  0.2431 -2.0843  0.5308
 6433TIP3    H240715   2.453   4.866   2.846  1.2928  1.6794 -2.2426
 6434TIP3   OH240716   1.205   2.133  12.011 -0.0894  0.2661 -0.1395
 6434TIP3    H140717   1.210   2.037  12.015 -2.2130  0.1571  2.3257
 6434TIP3    H240718   1.115   2.151  11.983 -0.0174  1.5384  0.4041
 6435TIP3   OH240719   3.252   0.226  13.621  0.5955  0.1915  0.3419
 6435TIP3    H140720   3.316   0.205  13.554  0.2801  0.1261  0.0555
 6435TIP3    H240721   3.297   0.212  13.704  0.1989 -2.2844  0.1948
 6436TIP3   OH240722   0.050   3.451   3.124  0.9309 -0.4120 -0.2994
 6436TIP3    H140723   0.051   3.361   3.155  0.8271 -0.3549 -0.1257
 6436TIP3    H240724   0.142   3.476   3.117  1.0665 -1.2816 -2.5792
 6437TIP3   OH240725   0.098   3.762  12.314  0.5895  0.4224  0.1158
 6437TIP3    H140726   0.019   3.711  12.295  1.6942 -1.6481  0.6712
 6437TIP3    H240727   0.142   3.770  12.229 -0.0423  1.2871 -0.1354
 6438TIP3   OH240728   6.883   2.618  10.471  0.0164  0.2622 -0.4986
 6438TIP3    H140729   6.964   2.582  10.435  0.5494 -1.8344  2.3944
 6438TIP3    H240730   6.834   2.541  10.502 -2.5617  1.5600 -1.0713
 6439TIP3   OH240731   6.682   3.004  13.416 -0.0651  0.4441 -0.0170
 6439TIP3    H140732   6.745   3.066  13.379  0.5003 -0.4138 -0.5233
 6439TIP3    H240733   6.656   2.949  13.343  1.7298 -1.8499  0.9428
 6440TIP3   OH240734   3.530   1.927  15.315  0.4383 -0.1208 -0.0150
 6440TIP3    H140735   3.481   1.867  15.259  2.0662 -2.0869  0.5581
 6440TIP3    H240736   3.593   1.968  15.256  1.4583 -1.4138  0.1413
 6441TIP3   OH240737   2.587   3.298  12.227 -0.8957  0.2670 -0.4898
 6441TIP3    H140738   2.597   3.288  12.132 -0.9852  1.3574 -0.6300
 6441TIP3    H240739   2.566   3.391  12.239  0.8131  0.5329  0.7336
 6442TIP3   OH240740   6.712   2.597  12.920 -0.1063  0.6383  0.0547
 6442TIP3    H140741   6.763   2.676  12.941  0.1466 -0.1062  2.5886
 6442TIP3    H240742   6.643   2.628  12.862  1.8808  2.0904 -1.6901
 6443TIP3   OH240743   0.191   0.069   0.054 -0.2899  0.0776  0.2284
 6443TIP3    H140744   0.238   0.086  -0.027 -1.1419  0.0312 -0.2773
 6443TIP3    H240745   0.241  -0.001   0.096  0.7925  0.8601  0.2914
 6444TIP3   OH240746   3.535   0.504  15.269  0.6381  0.1214 -0.5657
 6444TIP3    H140747   3.591   0.430  15.293 -1.4695 -1.5483 -0.4584
 6444TIP3    H240748   3.463   0.501  15.333 -0.1844  1.4336 -1.3771
 6445TIP3   OH240749   5.186   0.465  10.508  0.2665 -0.3210  0.1237
 6445TIP3    H140750   5.232   0.482  10.426 -0.6627 -1.6642 -0.7088
 6445TIP3    H240751   5.156   0.375  10.501 -2.1134  0.3318  0.8151
 6446TIP3   OH240752   5.431   2.604  14.315  0.8523  0.3087 -0.1714
 6446TIP3    H140753   5.361   2.617  14.251  0.5838  0.1381  0.0863
 6446TIP3    H240754   5.504   2.655  14.281  0.5871  0.5289 -0.4159
 6447TIP3   OH240755   3.890   5.502   1.570  0.0684 -0.6790 -0.0003
 6447TIP3    H140756   3.958   5.565   1.596  0.8084 -1.5040  0.0889
 6447TIP3    H240757   3.808   5.548   1.588  0.5763 -0.2846  1.5242
 6448TIP3   OH240758   1.782   6.923  10.955 -0.2423 -0.1979 -0.1337
 6448TIP3    H140759   1.738   6.912  10.871 -0.0276  1.5767 -0.5115
 6448TIP3    H240760   1.737   6.996  10.997  0.6591 -0.0376  0.5999
 6449TIP3   OH240761   4.217   0.974  13.964  0.1341 -0.4082 -0.6275
 6449TIP3    H140762   4.299   0.936  13.997  0.5157  0.4612 -0.5251
 6449TIP3    H240763   4.199   0.926  13.883  0.0312 -1.5029  0.0338
 6450TIP3   OH240764   3.499   4.379   4.953  0.8011  0.3646  0.2151
 6450TIP3    H140765   3.519   4.468   4.981  1.1490 -0.6701  3.6259
 6450TIP3    H240766   3.403   4.375   4.952  0.6641 -0.0977  3.7200
 6451TIP3   OH240767   6.930   2.959   5.039 -0.0869 -0.4188 -0.2057
 6451TIP3    H140768   6.859   2.913   5.084  0.7229 -0.4356  1.0783
 6451TIP3    H240769   6.982   2.890   4.998 -1.0559 -0.3814 -1.5870
 6452TIP3   OH240770   0.225   5.845  12.121 -1.2299  0.1506 -0.0937
 6452TIP3    H140771   0.153   5.812  12.174  0.8511 -0.9890  2.2768
 6452TIP3    H240772   0.237   5.935  12.150 -1.1571  0.0598  0.1633
 6453TIP3   OH240773   2.912   1.422  12.642 -0.0666 -0.3745  0.3541
 6453TIP3    H140774   2.933   1.335  12.609  0.1627 -0.5886  1.0316
 6453TIP3    H240775   2.958   1.483  12.584  1.5008 -0.7902  1.1066
 6454TIP3   OH240776   4.093   4.433  12.081  0.1582  1.2029 -0.0141
 6454TIP3    H140777   4.081   4.376  12.156  0.9060  2.1272  0.8481
 6454TIP3    H240778   4.179   4.410  12.046 -0.5413  0.2001 -1.1223
 6455TIP3   OH240779   2.778   4.134  10.964 -0.1879 -0.0360 -0.3680
 6455TIP3    H140780   2.789   4.095  11.051 -1.3759  0.9106  0.2560
 6455TIP3    H240781   2.835   4.211  10.965  0.2662 -0.3668 -0.6637
 6456TIP3   OH240782   1.720   1.775   0.093 -0.6216 -0.2341 -0.0378
 6456TIP3    H140783   1.691   1.698   0.045 -1.3971  0.0404 -0.0177
 6456TIP3    H240784   1.775   1.740   0.163 -1.9749 -0.8882  0.7334
 6457TIP3   OH240785   5.659   4.072  11.021 -0.2897  0.5027 -0.6099
 6457TIP3    H140786   5.615   3.987  11.017  0.0413  0.3666 -1.5506
 6457TIP3    H240787   5.661   4.094  11.114  1.2911 -1.3880 -0.1421
 6458TIP3   OH240788   2.699   6.833   3.037  0.5904 -0.7601 -0.3105
 6458TIP3    H140789   2.645   6.910   3.054  1.0960 -0.4478 -0.1234
 6458TIP3    H240790   2.646   6.760   3.067  1.0742 -0.3122  1.7864
 6459TIP3   OH240791   1.268   5.722  12.391 -0.1526 -0.9211 -0.1475
 6459TIP3    H140792   1.259   5.813  12.363 -0.5823 -0.5669  1.0697
 6459TIP3    H240793   1.180   5.686  12.385  0.2266 -1.6584 -1.8421
 6460TIP3   OH240794   2.646   1.867   3.326  0.5558  0.4435 -0.0956
 6460TIP3    H140795   2.561   1.858   3.370  0.8379  0.7848  0.5333
 6460TIP3    H240796   2.649   1.958   3.298  0.3295  0.1997 -0.9410
 6461TIP3   OH240797   3.029   0.452   4.119 -0.7347  0.2257  0.5087
 6461TIP3    H140798   3.065   0.486   4.037  0.1262 -0.8623  0.3953
 6461TIP3    H240799   3.104   0.411   4.162 -1.3879 -0.1073  1.3616
 6462TIP3   OH240800   2.719   2.351  15.482  0.1372  0.2114  0.1915
 6462TIP3    H140801   2.674   2.367  15.399 -0.5642  1.4791  0.7846
 6462TIP3    H240802   2.735   2.439  15.518  0.9227 -0.2997  1.1353
 6463TIP3   OH240803   1.656   6.963  13.144  0.6937  0.2702  0.5251
 6463TIP3    H140804   1.599   6.889  13.163  1.2718 -0.1075  0.8031
 6463TIP3    H240805   1.733   6.924  13.101  0.2443  0.8926 -0.8939
 6464TIP3   OH240806   1.062   1.523  14.430 -0.3006  0.5017 -0.5744
 6464TIP3    H140807   1.124   1.510  14.358 -0.4942 -0.7020 -0.5349
 6464TIP3    H240808   1.101   1.594  14.482  0.9755 -0.1354 -0.6284
 6465TIP3   OH240809   2.135   5.108  13.362 -0.2469  0.4200 -0.4107
 6465TIP3    H140810   2.101   5.192  13.332 -0.1821  0.3995 -0.5434
 6465TIP3    H240811   2.151   5.059  13.281 -2.0703 -0.4292 -0.3198
 6466TIP3   OH240812   4.936   1.450  13.612 -0.3009 -0.4268  0.4105
 6466TIP3    H140813   4.904   1.361  13.604  2.8347 -1.5969 -0.5860
 6466TIP3    H240814   4.975   1.470  13.526  0.5214  1.2646  1.1157
 6467TIP3   OH240815   2.818   5.163   3.702  0.1414 -0.1656  0.3861
 6467TIP3    H140816   2.871   5.149   3.781 -0.8844 -4.0478  0.5873
 6467TIP3    H240817   2.845   5.094   3.642 -1.5198  0.5817 -1.3291
 6468TIP3   OH240818   6.408   6.831   2.938 -0.0388 -0.3009  0.0855
 6468TIP3    H140819   6.313   6.816   2.938 -0.4201  1.7501 -0.3058
 6468TIP3    H240820   6.446   6.745   2.921 -1.7367 -1.5194  1.9594
 6469TIP3   OH240821   0.592   1.264  10.195 -0.0097 -0.1262 -0.1025
 6469TIP3    H140822   0.657   1.333  10.181  0.0486 -0.2105 -0.2525
 6469TIP3    H240823   0.643   1.189  10.224  0.2173 -0.7842 -2.0254
 6470TIP3   OH240824   1.670   1.538   2.503 -0.5273  0.1584  0.1944
 6470TIP3    H140825   1.613   1.464   2.524  0.2172 -0.1526  1.1806
 6470TIP3    H240826   1.611   1.605   2.467 -1.5810 -0.0011  1.5745
 6471TIP3   OH240827   0.893   0.509   4.203 -0.3504  0.2232  0.1232
 6471TIP3    H140828   0.911   0.415   4.212 -0.2391  0.1087 -1.0521
 6471TIP3    H240829   0.847   0.533   4.283  2.8572 -0.0085  2.2034
 6472TIP3   OH240830   4.432   0.691   2.858  0.0127 -0.1576  0.3030
 6472TIP3    H140831   4.416   0.783   2.876  0.6919  0.2040 -0.8057
 6472TIP3    H240832   4.417   0.647   2.941 -1.8783  0.7388  0.4837
 6473TIP3   OH240833   4.783   2.408  15.488 -0.0635  0.4260 -0.0909
 6473TIP3    H140834   4.728   2.484  15.507 -0.5404  0.0918 -0.1051
 6473TIP3    H240835   4.799   2.414  15.394  0.4866  0.8916  0.0289
 6474TIP3   OH240836   6.410   3.930  14.134 -0.5519 -0.3474 -0.4338
 6474TIP3    H140837   6.391   3.850  14.182 -0.0957 -1.1542 -1.5468
 6474TIP3    H240838   6.324   3.970  14.118 -0.7239 -0.2247  0.7674
 6475TIP3   OH240839   4.627   1.961   4.538 -0.5796  0.0786  0.0896
 6475TIP3    H140840   4.708   2.010   4.550 -0.4959  0.0510 -0.3573
 6475TIP3    H240841   4.559   2.028   4.533 -0.4676  0.1562 -0.4994
 6476TIP3   OH240842   1.741   5.055  15.074 -0.1897 -0.1384 -0.7494
 6476TIP3    H140843   1.718   5.037  14.983  0.2494 -1.4301 -0.6180
 6476TIP3    H240844   1.832   5.084  15.070  0.5427 -2.2132 -0.5628
 6477TIP3   OH240845   5.515   3.759   2.520 -0.4693 -0.3368 -0.7967
 6477TIP3    H140846   5.502   3.842   2.566  0.0401  0.4328 -1.9805
 6477TIP3    H240847   5.503   3.781   2.428  0.7351 -1.3454 -1.2225
 6478TIP3   OH240848   1.375   5.900  10.383  0.7230  0.3598 -0.6402
 6478TIP3    H140849   1.333   5.903  10.297  1.4368 -0.9807 -1.0529
 6478TIP3    H240850   1.314   5.947  10.440 -1.3839 -1.4889 -1.2324
 6479TIP3   OH240851   0.160   4.239  12.084 -0.3629  0.8839  0.1331
 6479TIP3    H140852   0.079   4.289  12.091 -0.7567  0.0834  1.8898
 6479TIP3    H240853   0.229   4.303  12.101 -0.8268  1.0057  1.7502
 6480TIP3   OH240854   5.921   2.792  13.562 -0.1779 -0.2864  0.2527
 6480TIP3    H140855   5.855   2.771  13.628 -1.7128  0.8566 -0.8346
 6480TIP3    H240856   5.966   2.869  13.596 -0.0536 -0.4864  0.5477
 6481TIP3   OH240857   4.502   4.105  13.177 -0.4114  0.1770  0.3667
 6481TIP3    H140858   4.538   4.059  13.252 -0.7151  0.5857  0.7706
 6481TIP3    H240859   4.436   4.046  13.141 -0.9630  0.3801  1.0195
 6482TIP3   OH240860   1.442   1.514  12.772 -0.4096 -0.2149 -0.0661
 6482TIP3    H140861   1.530   1.533  12.739 -0.0397 -0.5554  0.7045
 6482TIP3    H240862   1.436   1.562  12.854 -1.4327  0.8613 -0.7447
 6483TIP3   OH240863   2.103   0.360   2.822  0.3496 -0.0273  0.2958
 6483TIP3    H140864   2.066   0.356   2.734 -0.3115 -1.4037  0.6101
 6483TIP3    H240865   2.109   0.454   2.842 -0.6395  0.2675 -0.7382
 6484TIP3   OH240866   0.211   1.663  15.337  0.4521 -0.1432  0.8911
 6484TIP3    H140867   0.207   1.571  15.364  0.1743  0.5576  3.5004
 6484TIP3    H240868   0.119   1.690  15.334  0.5670  0.2494  0.9402
 6485TIP3   OH240869   2.827   0.125  14.732 -0.1499 -0.1248  0.3478
 6485TIP3    H140870   2.807   0.045  14.685 -0.3916  0.0947  0.0727
 6485TIP3    H240871   2.918   0.143  14.711 -0.4302  0.3144 -0.5587
 6486TIP3   OH240872   4.358   2.608  10.609  0.2748 -0.1229 -0.0384
 6486TIP3    H140873   4.355   2.664  10.687  0.8350  1.5970 -1.1925
 6486TIP3    H240874   4.317   2.661  10.540  1.1869 -0.9696 -1.2747
 6487TIP3   OH240875   1.520   6.868  12.055 -0.1950 -0.3816 -0.6678
 6487TIP3    H140876   1.608   6.835  12.040  0.2545  1.5384 -2.8092
 6487TIP3    H240877   1.474   6.795  12.096  1.5019 -2.5776 -2.4075
 6488TIP3   OH240878   6.981   4.927   0.471  0.2256 -0.4264 -0.0310
 6488TIP3    H140879   6.960   4.948   0.380 -0.2577  0.5875  0.2943
 6488TIP3    H240880   6.911   4.867   0.499  1.0409 -1.7192 -0.6638
 6489TIP3   OH240881   3.115   3.006   1.218 -0.2092  0.1084 -0.4320
 6489TIP3    H140882   3.161   3.054   1.287 -0.0174  0.0724 -0.5339
 6489TIP3    H240883   3.101   2.919   1.255 -2.2233  0.7643  0.4839
 6490TIP3   OH240884   4.822   1.366   5.087 -0.4554  0.3933 -0.3761
 6490TIP3    H140885   4.858   1.453   5.102  1.3331  0.0311 -2.0912
 6490TIP3    H240886   4.861   1.312   5.156  1.0022  0.3626 -1.1781
 6491TIP3   OH240887   4.119   2.469   2.153  0.2487  0.3138  0.0664
 6491TIP3    H140888   4.193   2.432   2.202 -1.0361 -0.5103  1.4855
 6491TIP3    H240889   4.106   2.555   2.192 -0.6416 -0.2605  1.1324
 6492TIP3   OH240890   6.185   6.458   1.995  0.2978  0.4158 -0.0312
 6492TIP3    H140891   6.181   6.376   2.044  0.5450 -0.1635 -0.9457
 6492TIP3    H240892   6.131   6.519   2.045 -1.6558 -0.8927 -0.4411
 6493TIP3   OH240893   3.545   5.467   2.461  0.5442  0.3797 -0.0364
 6493TIP3    H140894   3.462   5.491   2.419 -0.4090 -0.5471  1.2175
 6493TIP3    H240895   3.569   5.384   2.421 -0.7407 -0.8717  1.6418
 6494TIP3   OH240896   1.932   4.543  11.964  0.1950 -0.2596 -0.2817
 6494TIP3    H140897   1.891   4.613  12.015  0.4553 -0.6111  0.4146
 6494TIP3    H240898   1.863   4.516  11.902 -0.9466 -1.3842  1.3864
 6495TIP3   OH240899   3.917   5.104   2.810 -0.1986  0.2970  0.0146
 6495TIP3    H140900   3.997   5.072   2.853  0.6315  0.8094 -1.0916
 6495TIP3    H240901   3.939   5.193   2.783 -1.7990  1.1320  1.3172
 6496TIP3   OH240902   6.082   4.913   4.073  0.1452  0.0223 -0.4452
 6496TIP3    H140903   6.106   5.006   4.079  0.2836  0.1427 -2.3003
 6496TIP3    H240904   6.093   4.880   4.162  1.0707  1.5514  0.0517
 6497TIP3   OH240905   6.371   5.607  13.954 -0.4377 -0.1151  0.1965
 6497TIP3    H140906   6.301   5.609  14.019  0.7030 -3.2068  1.7560
 6497TIP3    H240907   6.329   5.576  13.874 -1.6101  2.4717 -0.2743
 6498TIP3   OH240908   5.619   2.253  12.059  0.1973 -0.8432  0.3543
 6498TIP3    H140909   5.590   2.309  12.132 -0.3241  1.1340 -1.2626
 6498TIP3    H240910   5.635   2.168  12.099 -1.3862 -0.2103  2.5435
 6499TIP3   OH240911   6.205   2.621   0.753 -0.9524 -0.1255  0.4191
 6499TIP3    H140912   6.136   2.687   0.742 -0.9556  0.1206  1.7637
 6499TIP3    H240913   6.157   2.538   0.759 -1.0021 -0.1667 -0.4544
 6500TIP3   OH240914   3.058   1.379  13.522 -0.2912  0.5507 -0.2554
 6500TIP3    H140915   3.035   1.368  13.615  0.1323  0.7848 -0.1212
 6500TIP3    H240916   3.030   1.297  13.482  1.0967 -0.2884  0.4053
 6501TIP3   OH240917   3.620   1.762   5.731 -0.1042 -0.0297  0.1413
 6501TIP3    H140918   3.665   1.822   5.791 -1.4600  0.2156  0.9512
 6501TIP3    H240919   3.684   1.744   5.663  1.3282  0.0607  1.4172
 6502TIP3   OH240920   4.567   6.632  11.007 -0.6065 -0.5335 -0.7512
 6502TIP3    H140921   4.619   6.577  10.948  1.6553  1.9095 -1.2528
 6502TIP3    H240922   4.595   6.721  10.987  0.4429  0.5116  4.0079
 6503TIP3   OH240923   2.834   2.230  14.783  0.4042 -0.5290  0.2495
 6503TIP3    H140924   2.811   2.252  14.693  1.0089 -1.2348 -0.0811
 6503TIP3    H240925   2.750   2.209  14.824 -0.1557  1.6965  0.4275
 6504TIP3   OH240926   6.682   6.218   9.430 -0.5129 -0.7851 -0.4056
 6504TIP3    H140927   6.666   6.206   9.337 -1.7652  0.4217 -0.3768
 6504TIP3    H240928   6.765   6.174   9.446  0.0189 -0.5062 -2.2101
 6505TIP3   OH240929   6.036   6.090   5.126 -0.5564  0.1695 -0.5852
 6505TIP3    H140930   6.109   6.046   5.171 -1.1504 -0.4565 -0.2045
 6505TIP3    H240931   6.076   6.128   5.048  0.2083 -0.0367 -0.3117
 6506TIP3   OH240932   4.859   0.225  11.669 -0.4705 -0.0735  0.2560
 6506TIP3    H140933   4.937   0.247  11.720 -1.1915 -0.5099  1.5798
 6506TIP3    H240934   4.786   0.266  11.717 -1.5218 -2.8549  1.2182
 6507TIP3   OH240935   6.854   4.421   3.649 -0.3279  0.5100 -0.2208
 6507TIP3    H140936   6.774   4.473   3.644 -0.0590  0.9950  0.2966
 6507TIP3    H240937   6.838   4.359   3.721  0.1959  1.4169  0.7125
 6508TIP3   OH240938   1.165   5.278   2.164  0.6089  0.5148 -0.0182
 6508TIP3    H140939   1.247   5.296   2.118  1.4326 -0.1465  1.1482
 6508TIP3    H240940   1.115   5.360   2.157  1.9990  1.4397  0.5437
 6509TIP3   OH240941   4.641   2.062  14.283  0.2733 -0.3266  0.5946
 6509TIP3    H140942   4.645   2.155  14.304 -0.3299 -0.7588  2.9174
 6509TIP3    H240943   4.568   2.053  14.222  0.0774  0.6467  0.6790
 6510TIP3   OH240944   4.335   2.433   0.301  0.4556 -0.6607 -0.4157
 6510TIP3    H140945   4.324   2.526   0.285 -0.5830 -0.7886 -0.4852
 6510TIP3    H240946   4.414   2.410   0.253 -0.2183 -0.1597 -1.8078
 6511TIP3   OH240947   2.873   6.460  11.219 -0.4445 -0.1679 -0.1774
 6511TIP3    H140948   2.939   6.412  11.269 -0.9994  1.0345  1.8280
 6511TIP3    H240949   2.813   6.494  11.285 -1.1381  1.6708 -1.6672
 6512TIP3   OH240950   1.544   0.091   3.001 -0.3844  0.1884  0.1498
 6512TIP3    H140951   1.603   0.153   3.045 -2.6482  0.5614  2.8890
 6512TIP3    H240952   1.540   0.016   3.060 -3.7264  0.8011  0.8814
 6513TIP3   OH240953   6.436   3.059  13.697  0.2019 -0.2811 -0.2689
 6513TIP3    H140954   6.426   2.979  13.748 -2.5519  0.1725  0.0383
 6513TIP3    H240955   6.419   3.130  13.759  0.0359  0.4093 -1.0818
 6514TIP3   OH240956   6.827   0.125   0.711  0.2265  0.3564  0.3352
 6514TIP3    H140957   6.826   0.221   0.708  2.3661  0.6397  3.5708
 6514TIP3    H240958   6.835   0.104   0.804 -0.7821 -3.0455 -0.2062
 6515TIP3   OH240959   6.499   3.925  15.413  0.1602 -0.0181  0.2562
 6515TIP3    H140960   6.459   3.852  15.460  1.0184 -0.2049  0.7336
 6515TIP3    H240961   6.438   3.998  15.425  0.5383  0.0601  2.0535
 6516TIP3   OH240962   5.426   2.189   1.056 -0.0050  0.3401 -0.6527
 6516TIP3    H140963   5.520   2.195   1.038  0.2544 -0.0648  0.4625
 6516TIP3    H240964   5.387   2.256   1.000  0.8808  0.1453 -1.5391
 6517TIP3   OH240965   4.936   1.335  10.648 -0.4180 -0.5812  0.0568
 6517TIP3    H140966   4.879   1.305  10.718 -1.2738  0.6798 -0.0661
 6517TIP3    H240967   5.018   1.358  10.692 -1.1851  0.8866  0.7910
 6518TIP3   OH240968   4.539   2.452   2.055  0.5112 -0.1639  0.1253
 6518TIP3    H140969   4.622   2.418   2.089  0.9930  0.7064 -0.1607
 6518TIP3    H240970   4.535   2.542   2.088  0.4411  0.3235 -1.1558
 6519TIP3   OH240971   6.797   1.258  14.832  0.0742  0.2717 -0.7998
 6519TIP3    H140972   6.813   1.342  14.789  1.1797  0.0404 -0.8848
 6519TIP3    H240973   6.750   1.206  14.767  1.6946 -0.0644 -1.7722
 6520TIP3   OH240974   1.692   6.017   1.994 -0.6871  0.6313 -0.1434
 6520TIP3    H140975   1.625   6.065   1.946 -1.2954  0.6388  0.7003
 6520TIP3    H240976   1.656   5.929   2.005  1.0693 -0.5982 -3.0681
 6521TIP3   OH240977   0.578   3.704  13.321 -0.6430 -0.2869 -0.2073
 6521TIP3    H140978   0.643   3.680  13.387 -0.1428  1.2446 -0.0887
 6521TIP3    H240979   0.619   3.683  13.237  0.1239  0.8552 -0.1418
 6522TIP3   OH240980   4.510   4.202   0.240 -0.2683 -1.0104  0.0475
 6522TIP3    H140981   4.536   4.121   0.195  0.2907 -0.4194 -0.7176
 6522TIP3    H240982   4.593   4.242   0.267 -0.3689  0.4083 -1.5565
 6523TIP3   OH240983   3.729   5.903  10.229 -0.0921  0.4596 -0.4747
 6523TIP3    H140984   3.699   5.833  10.287 -0.7080  1.8315  0.9350
 6523TIP3    H240985   3.820   5.880  10.208 -0.8238 -1.7223 -1.6239
 6524TIP3   OH240986   5.418   0.752  11.623  0.2867 -0.1449 -0.3045
 6524TIP3    H140987   5.403   0.662  11.595 -0.2866  0.5443 -2.4175
 6524TIP3    H240988   5.347   0.770  11.685 -0.2954 -0.7757 -0.7771
 6525TIP3   OH240989   4.186   6.238   4.385 -0.0020 -0.0222  0.0808
 6525TIP3    H140990   4.173   6.260   4.478  2.3056  0.5185  0.3407
 6525TIP3    H240991   4.103   6.260   4.344 -0.4578  1.6407  1.7207
 6526TIP3   OH240992   5.815   5.294   4.913  0.1103  0.0237 -0.2707
 6526TIP3    H140993   5.720   5.300   4.907  0.0574 -0.1352  0.3734
 6526TIP3    H240994   5.841   5.372   4.962  0.1996 -0.5554  0.6142
 6527TIP3   OH240995   4.452   4.011   4.302 -0.2079  0.3218  0.7840
 6527TIP3    H140996   4.473   4.104   4.294 -3.5889  1.1534  0.0788
 6527TIP3    H240997   4.537   3.968   4.308  1.5132  3.3453  0.2049
 6528TIP3   OH240998   4.452   2.343  14.620  0.0780 -0.3872 -0.0142
 6528TIP3    H140999   4.465   2.340  14.525 -1.5531 -2.2827 -0.2470
 6528TIP3    H241000   4.430   2.253  14.644  0.0078  0.1414  2.0997
 6529TIP3   OH241001   0.793   1.266  12.735  0.1402 -0.6509 -0.4943
 6529TIP3    H141002   0.871   1.227  12.695  0.4693 -1.4816  0.8596
 6529TIP3    H241003   0.793   1.230  12.824 -1.0894  0.3459 -0.0766
 6530TIP3   OH241004   1.396   2.619   3.515 -0.1395  0.1304  0.3497
 6530TIP3    H141005   1.442   2.615   3.431  1.8181  0.9579  1.3342
 6530TIP3    H241006   1.349   2.702   3.513  0.6987  0.6203  0.4367
 6531TIP3   OH241007   1.758   4.620   2.895  0.0924  0.0400 -0.0698
 6531TIP3    H141008   1.793   4.573   2.970  0.7766 -0.6028 -0.7757
 6531TIP3    H241009   1.830   4.623   2.832 -0.1856  1.3394 -0.3617
 6532TIP3   OH241010   1.452   7.024   1.076 -0.0968  0.4338  0.3198
 6532TIP3    H141011   1.503   7.014   0.995 -0.3927  3.2563 -0.2987
 6532TIP3    H241012   1.361   7.032   1.046 -0.4391 -0.3444  1.1002
 6533TIP3   OH241013   5.105   1.596  14.582  0.3082 -0.0827  0.2039
 6533TIP3    H141014   5.146   1.553  14.657 -1.2904  1.1389  1.8579
 6533TIP3    H241015   5.052   1.529  14.540  0.4279 -0.5332  0.7723
 6534TIP3   OH241016   5.297   3.917   2.316  0.0682 -0.5299  0.1269
 6534TIP3    H141017   5.293   3.834   2.269 -1.2211 -0.6449  0.4090
 6534TIP3    H241018   5.224   3.968   2.283  0.9198  0.5646 -0.1326
 6535TIP3   OH241019   4.432   5.916  13.812 -0.3895  0.3814  0.0430
 6535TIP3    H141020   4.462   6.006  13.804  0.1634  0.1285 -0.9870
 6535TIP3    H241021   4.347   5.922  13.855  0.6089  1.2096  2.0040
 6536TIP3   OH241022   1.536   2.674  11.014 -0.5185 -0.5306  0.1709
 6536TIP3    H141023   1.561   2.582  11.018 -0.1534 -0.4882 -0.9672
 6536TIP3    H241024   1.440   2.673  11.006 -0.5043 -0.8062  0.0341
 6537TIP3   OH241025   6.268   2.010  12.022 -0.3211  0.4811  0.9748
 6537TIP3    H141026   6.346   1.962  11.993 -0.4830  0.1419  1.0902
 6537TIP3    H241027   6.302   2.089  12.063 -0.0180  0.1984  1.2823
 6538TIP3   OH241028   1.093   1.874   2.858  0.3289  0.5503 -0.3460
 6538TIP3    H141029   1.100   1.801   2.920 -1.3465 -0.3970 -1.1799
 6538TIP3    H241030   1.183   1.898   2.839  0.9258 -1.0072  0.3273
 6539TIP3   OH241031   2.690   3.256   2.347 -0.6938  0.4015 -0.4999
 6539TIP3    H141032   2.737   3.336   2.324 -1.7349  0.9676 -0.6902
 6539TIP3    H241033   2.675   3.212   2.264 -0.9664  0.4770 -0.4890
 6540TIP3   OH241034   0.318   5.260   1.828  0.2907  0.0335  0.4694
 6540TIP3    H141035   0.330   5.167   1.850 -2.5130 -0.5607 -0.0746
 6540TIP3    H241036   0.368   5.307   1.894 -0.2771 -1.8489  2.3526
 6541TIP3   OH241037   3.410   1.638  10.387  0.0738 -0.3396  0.2399
 6541TIP3    H141038   3.368   1.556  10.415 -1.0297 -0.2266 -0.9962
 6541TIP3    H241039   3.342   1.684  10.339 -0.1398  2.4759  2.9711
 6542TIP3   OH241040   6.804   4.883  14.295  0.2748 -0.0709 -0.0930
 6542TIP3    H141041   6.827   4.890  14.203  1.8309 -0.4991  0.2316
 6542TIP3    H241042   6.881   4.917  14.341 -0.4115 -0.0154  1.0551
 6543TIP3   OH241043   3.694   4.023  15.625  0.5066 -0.4533 -0.4168
 6543TIP3    H141044   3.616   4.035  15.571  0.4206  1.6604  0.1021
 6543TIP3    H241045   3.765   4.062  15.575  1.5582 -3.3012 -1.3766
 6544TIP3   OH241046   1.524   6.445   0.844 -0.3843 -0.1482 -0.0612
 6544TIP3    H141047   1.549   6.519   0.900  0.3106 -0.6450  0.2936
 6544TIP3    H241048   1.606   6.416   0.804 -0.8194 -0.0108 -1.0933
 6545TIP3   OH241049   6.120   6.674   1.146  0.0433  0.1247  0.0002
 6545TIP3    H141050   6.114   6.622   1.065 -1.7352 -2.7137  1.7597
 6545TIP3    H241051   6.039   6.726   1.147 -1.0453 -1.4861  0.8684
 6546TIP3   OH241052   4.124   2.162   4.017  0.2131 -0.0274  0.7515
 6546TIP3    H141053   4.174   2.081   4.022 -1.3829 -1.0287  1.0813
 6546TIP3    H241054   4.125   2.197   4.106 -1.5668 -1.2540  1.2843
 6547TIP3   OH241055   3.934   2.904   1.495 -0.2439  0.3501  0.1504
 6547TIP3    H141056   3.969   2.852   1.422  0.0322  0.7024  0.0288
 6547TIP3    H241057   3.986   2.984   1.495  0.4100 -0.0369  1.3118
 6548TIP3   OH241058   3.970   0.707  10.961 -0.5194  0.1828 -0.1838
 6548TIP3    H141059   3.907   0.652  10.913  0.8016 -0.6164 -1.0660
 6548TIP3    H241060   4.051   0.657  10.959 -0.1645  0.5543  2.1602
 6549TIP3   OH241061   0.025   1.175  14.087 -0.7492 -0.2368  0.2422
 6549TIP3    H141062   0.010   1.081  14.080 -0.0803 -0.4268  1.2637
 6549TIP3    H241063  -0.020   1.211  14.011  0.8558 -1.5910 -1.4653
 6550TIP3   OH241064   4.928   5.776   2.095 -0.6417 -0.0786  0.5844
 6550TIP3    H141065   4.960   5.864   2.114 -0.4149  0.1160 -0.6788
 6550TIP3    H241066   4.864   5.759   2.165 -1.1525  1.3262  0.4930
 6551TIP3   OH241067   6.216   5.201  12.805 -0.3028 -0.0276  0.5499
 6551TIP3    H141068   6.306   5.232  12.810 -0.0754 -0.7165  0.8411
 6551TIP3    H241069   6.166   5.263  12.859  0.0172  0.2621  0.5192
 6552TIP3   OH241070   3.519   2.876  14.195 -0.3591 -0.0287  0.4639
 6552TIP3    H141071   3.531   2.793  14.241  2.0773 -0.0655 -0.0585
 6552TIP3    H241072   3.586   2.875  14.126 -4.0870 -0.2114 -3.5871
 6553TIP3   OH241073   2.372   1.691  13.694  0.0236  0.1694  0.5270
 6553TIP3    H141074   2.439   1.750  13.659 -1.0854  0.3768 -1.4063
 6553TIP3    H241075   2.344   1.732  13.776 -0.2119  1.9800 -0.4001
 6554TIP3   OH241076   1.624   5.699  12.081  0.1540  0.0882  0.0201
 6554TIP3    H141077   1.539   5.701  12.037  0.4693  2.9648 -0.6622
 6554TIP3    H241078   1.612   5.639  12.155 -1.1541 -2.9422 -2.4060
 6555TIP3   OH241079   6.973   1.992  10.316 -0.8010  0.1444 -0.5850
 6555TIP3    H141080   7.006   2.066  10.264  0.7302  0.0312  0.1711
 6555TIP3    H241081   6.932   2.032  10.392  2.7496  0.2930  1.4462
 6556TIP3   OH241082   4.103   2.466  12.301 -0.1100  0.4504 -0.0714
 6556TIP3    H141083   4.087   2.374  12.279 -3.2163  0.2950  2.1518
 6556TIP3    H241084   4.176   2.463  12.363 -0.3319 -0.5794  0.1658
 6557TIP3   OH241085   6.385   0.175  15.057  0.1014 -0.0546 -0.7741
 6557TIP3    H141086   6.463   0.176  15.002 -0.3168  0.7598 -1.3800
 6557TIP3    H241087   6.396   0.249  15.116  0.4744 -0.8345  0.1568
 6558TIP3   OH241088   6.232   2.562   3.152  0.7180 -0.6944 -0.0916
 6558TIP3    H141089   6.239   2.468   3.168  0.3690 -0.7405 -0.2020
 6558TIP3    H241090   6.225   2.601   3.240  4.5688 -0.4123  0.2530
 6559TIP3   OH241091   1.346   5.289  15.505 -0.3851  0.2668 -0.1094
 6559TIP3    H141092   1.254   5.292  15.530 -0.1693  1.2830  0.6112
 6559TIP3    H241093   1.361   5.371  15.458 -0.0035 -0.2040 -0.8452
 6560TIP3   OH241094   0.312   3.676  13.714 -0.0983  0.6363 -0.2331
 6560TIP3    H141095   0.238   3.635  13.668  0.3770  0.6136 -0.9967
 6560TIP3    H241096   0.281   3.687  13.803 -0.8307  0.1098 -0.4071
 6561TIP3   OH241097   3.342   0.565   1.651 -0.1417  0.3180  0.1072
 6561TIP3    H141098   3.419   0.558   1.594  0.2617  1.3091  0.5065
 6561TIP3    H241099   3.327   0.476   1.682 -0.5405 -0.2979 -1.7555
 6562TIP3   OH241100   3.314   3.778   4.025 -0.3568 -0.5832  0.1483
 6562TIP3    H141101   3.301   3.851   3.964 -2.3257 -1.5096 -0.6425
 6562TIP3    H241102   3.311   3.817   4.112  1.7046  0.6588 -0.2769
 6563TIP3   OH241103   1.917   6.744   0.261  0.6126 -0.2240 -0.0253
 6563TIP3    H141104   1.874   6.725   0.178  2.1001  0.1728 -0.9233
 6563TIP3    H241105   1.857   6.710   0.327 -1.4779  1.0753 -1.1400
 6564TIP3   OH241106   2.176   6.790   5.617 -0.1639  0.5078  0.1413
 6564TIP3    H141107   2.260   6.789   5.663 -1.6649  0.5988  3.1428
 6564TIP3    H241108   2.173   6.706   5.572  0.2600 -0.9825  2.6830
 6565TIP3   OH241109   3.966   5.356   9.881  0.5363 -0.5725  0.0573
 6565TIP3    H141110   3.972   5.391   9.970  0.0335 -0.8193  0.1892
 6565TIP3    H241111   4.024   5.279   9.882  0.6031 -0.5219  0.1443
 6566TIP3   OH241112   6.850   2.215  12.068 -0.0399  0.8712 -0.0158
 6566TIP3    H141113   6.895   2.226  12.152 -1.2999 -1.3396  1.0466
 6566TIP3    H241114   6.918   2.189  12.007  0.3939 -1.2544  1.2780
 6567TIP3   OH241115   1.689   1.052  13.573 -0.6741  0.2456  0.2505
 6567TIP3    H141116   1.750   1.090  13.510 -1.1506 -1.3814 -1.2654
 6567TIP3    H241117   1.645   1.128  13.612 -0.1703  1.3195 -1.1961
 6568TIP3   OH241118   0.116   5.135   2.787 -0.2475 -0.0277 -0.0441
 6568TIP3    H141119   0.088   5.217   2.747 -1.9185 -1.2286 -1.5086
 6568TIP3    H241120   0.179   5.161   2.854 -0.6299  2.4175 -0.5402
 6569TIP3   OH241121   6.027   2.453  10.008 -0.0194 -0.3934 -0.0004
 6569TIP3    H141122   6.045   2.493   9.923  3.2012 -1.0695  0.2455
 6569TIP3    H241123   5.964   2.383   9.990  1.5329 -1.3296 -2.0928
 6570TIP3   OH241124   1.365   0.908  14.675 -0.1564  0.4040  0.3370
 6570TIP3    H141125   1.445   0.953  14.648 -0.7937  0.9925 -0.6270
 6570TIP3    H241126   1.356   0.836  14.612  0.2874 -0.4466  1.2273
 6571TIP3   OH241127   2.053   1.415  11.388 -0.5744 -0.1264 -0.0913
 6571TIP3    H141128   1.997   1.473  11.336  1.3098  1.8290 -0.0719
 6571TIP3    H241129   2.105   1.368  11.323  0.6559  1.1488 -0.0742
 6572TIP3   OH241130   5.250   4.467   3.610  0.3570  0.2611  0.6453
 6572TIP3    H141131   5.268   4.375   3.588  1.3587  0.4611  0.6229
 6572TIP3    H241132   5.317   4.490   3.674 -1.0920  0.3994  2.1827
 6573TIP3   OH241133   0.837   7.006   2.537 -0.3933  0.1091 -0.3532
 6573TIP3    H141134   0.904   7.072   2.521 -0.4653  0.6265  1.2490
 6573TIP3    H241135   0.758   7.040   2.495 -0.9539  2.1100  2.0294
 6574TIP3   OH241136   4.963   0.132  13.256 -0.2314 -0.7862 -0.3511
 6574TIP3    H141137   5.010   0.192  13.314  0.6259 -1.3864 -0.4048
 6574TIP3    H241138   4.907   0.082  13.314 -0.6557 -0.2122 -0.2560
 6575TIP3   OH241139   6.211   6.437   4.778 -0.3628  0.4281  0.1939
 6575TIP3    H141140   6.268   6.485   4.838  0.4751  0.6062 -0.7227
 6575TIP3    H241141   6.143   6.500   4.755  0.9661  1.3927 -1.3372
 6576TIP3   OH241142   6.071   1.355  14.922 -1.1684 -0.3487  0.4053
 6576TIP3    H141143   6.092   1.275  14.873 -1.6384  0.8805 -2.0022
 6576TIP3    H241144   6.090   1.334  15.013  2.9288 -1.7985 -0.5929
 6577TIP3   OH241145   5.076   0.988  12.569  0.6832 -0.6148  0.5198
 6577TIP3    H141146   5.164   0.992  12.529  0.3111 -2.3645 -0.6084
 6577TIP3    H241147   5.072   0.900  12.607 -0.2095 -0.1518  1.5223
 6578TIP3   OH241148   1.206   0.045   4.470 -0.1971  0.1229 -0.3481
 6578TIP3    H141149   1.154   0.089   4.537 -0.7133 -0.0812 -0.6126
 6578TIP3    H241150   1.251   0.116   4.424 -0.8851  0.3714 -0.6524
 6579TIP3   OH241151   4.431   4.181   9.647  0.0247  0.2938 -0.5492
 6579TIP3    H141152   4.461   4.257   9.599 -0.4495 -0.6679 -2.4775
 6579TIP3    H241153   4.400   4.216   9.731 -1.3989  2.4223 -1.8605
 6580TIP3   OH241154   6.128   4.770   9.823  0.0306 -0.2857  0.8367
 6580TIP3    H141155   6.101   4.838   9.762  2.6923  0.3508  0.2263
 6580TIP3    H241156   6.220   4.790   9.843  0.0018 -1.9423  3.0778
 6581TIP3   OH241157   1.798   5.045   3.155 -0.3298  0.3936  0.0889
 6581TIP3    H141158   1.860   5.061   3.227 -1.3570  0.5292  0.9631
 6581TIP3    H241159   1.841   5.083   3.078  1.8277 -1.7139  0.1138
 6582TIP3   OH241160   0.814   1.138   4.829  0.1651 -0.0400 -0.2061
 6582TIP3    H141161   0.798   1.047   4.807  1.2470  0.0627 -1.5525
 6582TIP3    H241162   0.771   1.188   4.759 -2.1594  0.6302  1.5536
 6583TIP3   OH241163   0.689   3.927  15.550  0.1987 -0.3684  0.2989
 6583TIP3    H141164   0.613   3.969  15.591  1.3231  0.1941  1.8939
 6583TIP3    H241165   0.654   3.889  15.469 -2.6841 -3.3383  2.6218
 6584TIP3   OH241166   3.765   0.554  10.850 -0.9295 -0.3253 -0.3324
 6584TIP3    H141167   3.823   0.493  10.805 -0.0871  1.4307 -1.7821
 6584TIP3    H241168   3.681   0.544  10.805 -0.7698 -0.3570 -0.6262
 6585TIP3   OH241169   5.009   5.448  10.520 -0.0974 -0.2316 -0.0743
 6585TIP3    H141170   5.007   5.489  10.433  1.0013  3.9778  1.6345
 6585TIP3    H241171   4.926   5.399  10.524 -0.4922 -0.0699 -3.2048
 6586TIP3   OH241172   1.527   3.680   0.647  0.1337  0.6423  0.0471
 6586TIP3    H141173   1.568   3.643   0.569  1.2009 -0.8619  1.2426
 6586TIP3    H241174   1.535   3.774   0.637  1.0455  0.4546 -1.2444
 6587TIP3   OH241175   4.155   4.391  13.512 -0.1247 -0.7257 -0.5509
 6587TIP3    H141176   4.161   4.468  13.569 -2.8448 -1.6452  1.1516
 6587TIP3    H241177   4.217   4.409  13.441  1.2304  1.8254  1.1195
 6588TIP3   OH241178   4.986   4.935   9.606  0.0378  0.1891 -0.2754
 6588TIP3    H141179   4.970   5.027   9.588 -1.6024  0.0813  0.4428
 6588TIP3    H241180   4.899   4.895   9.607  0.5057 -0.9138  1.7541
 6589TIP3   OH241181   7.044   4.658  12.752  0.1334  0.1944  0.5880
 6589TIP3    H141182   7.114   4.694  12.806 -0.8757  1.9538  0.8005
 6589TIP3    H241183   6.963   4.682  12.797 -0.6662 -0.2499 -0.5526
 6590TIP3   OH241184   3.628   4.593  14.695 -0.3049  0.0433  0.1852
 6590TIP3    H141185   3.584   4.629  14.618 -0.9320 -0.9954  0.0367
 6590TIP3    H241186   3.704   4.650  14.708  1.2113 -1.1115 -2.6769
 6591TIP3   OH241187   6.630   3.657   0.018  0.4596 -0.4729 -0.1000
 6591TIP3    H141188   6.627   3.656   0.114 -0.6528 -2.6587 -0.0865
 6591TIP3    H241189   6.661   3.744  -0.005 -1.6518  1.0081  2.2064
 6592TIP3   OH241190   2.483   2.343   2.389  0.2886 -0.3918 -0.3563
 6592TIP3    H141191   2.564   2.393   2.376 -0.6649  1.5139  0.6203
 6592TIP3    H241192   2.413   2.405   2.369 -0.9518 -1.5147  0.3288
 6593TIP3   OH241193   0.699   2.955   2.106  0.3843 -0.3405 -0.0312
 6593TIP3    H141194   0.734   3.043   2.120  1.6949 -0.9746  0.8829
 6593TIP3    H241195   0.729   2.905   2.182 -1.4593 -1.2623  0.1368
 6594TIP3   OH241196   3.853   2.314  12.105 -0.0083 -0.3423  0.5165
 6594TIP3    H141197   3.864   2.390  12.161  1.1602  0.5075 -0.8017
 6594TIP3    H241198   3.862   2.239  12.164  2.0270  0.4972  1.3593
 6595TIP3   OH241199   3.498   4.792  13.022 -0.0974  0.0418 -0.1012
 6595TIP3    H141200   3.540   4.843  12.952 -1.2466  1.9443  0.5276
 6595TIP3    H241201   3.405   4.792  12.999 -0.4930  0.6990  1.4179
 6596TIP3   OH241202   5.551   4.188   4.597  0.2446 -0.5120  0.1834
 6596TIP3    H141203   5.588   4.100   4.606  0.6628 -0.3838 -0.2616
 6596TIP3    H241204   5.490   4.180   4.523  0.5756 -0.3352 -0.1111
 6597TIP3   OH241205   6.854   1.078  13.230 -0.0449  0.1642  0.3561
 6597TIP3    H141206   6.902   1.009  13.184 -0.0473 -1.2540  2.3338
 6597TIP3    H241207   6.919   1.117  13.289 -0.2969  1.1896 -0.0309
 6598TIP3   OH241208   5.559   2.461  11.471  0.0379  0.6696  0.1914
 6598TIP3    H141209   5.578   2.378  11.514  0.5603  0.7273  0.0807
 6598TIP3    H241210   5.491   2.502  11.525 -0.9714 -0.2887 -0.3190
 6599TIP3   OH241211   0.854   2.838   1.464 -0.3965 -0.2283 -0.0445
 6599TIP3    H141212   0.788   2.877   1.522  0.0850 -1.7968  1.6527
 6599TIP3    H241213   0.807   2.821   1.382 -1.4502  0.8255  0.3068
 6600TIP3   OH241214   2.384   5.837  12.343  0.5337  0.1092  0.2948
 6600TIP3    H141215   2.381   5.783  12.422  0.0762  0.4759  0.5315
 6600TIP3    H241216   2.294   5.869  12.332  0.9653  1.5143  0.6357
 6601TIP3   OH241217   4.480   4.603  11.450 -0.0056  0.1668 -0.0216
 6601TIP3    H141218   4.447   4.693  11.456 -0.8351 -0.1745  0.9694
 6601TIP3    H241219   4.402   4.550  11.433  0.3437 -0.4510  0.2530
 6602TIP3   OH241220   3.462   2.439  10.219  0.3152  0.3506 -0.0369
 6602TIP3    H141221   3.422   2.526  10.221 -0.3306  0.0555  0.3190
 6602TIP3    H241222   3.461   2.410  10.311 -5.2997 -2.5795 -0.5787
 6603TIP3   OH241223   3.171   1.102  14.191 -0.2219 -0.2632 -0.1978
 6603TIP3    H141224   3.233   1.174  14.175 -0.0698  0.0813  1.6719
 6603TIP3    H241225   3.134   1.083  14.105 -0.5745  2.3372 -0.7212
 6604TIP3   OH241226   1.361   2.061   2.144 -0.0280 -0.0106 -0.5003
 6604TIP3    H141227   1.265   2.064   2.137 -0.0930  0.2438  0.3898
 6604TIP3    H241228   1.391   2.140   2.099 -0.1827 -0.5391 -1.5484
 6605TIP3   OH241229   5.260   3.445   0.502 -0.4860  0.1468  0.5961
 6605TIP3    H141230   5.224   3.358   0.484  0.2495 -0.1411  0.4901
 6605TIP3    H241231   5.183   3.498   0.525 -0.9818 -0.4431  0.3462
 6606TIP3   OH241232   3.323   0.952   2.225 -0.1011  0.1777 -0.5615
 6606TIP3    H141233   3.295   1.040   2.202  0.2215  1.1789  2.4035
 6606TIP3    H241234   3.409   0.963   2.264  0.8691 -1.7800 -1.9867
 6607TIP3   OH241235   6.233   2.373  13.374  0.3128  0.1393 -0.1877
 6607TIP3    H141236   6.207   2.427  13.299  1.7448  0.5131 -0.4387
 6607TIP3    H241237   6.187   2.290  13.360 -0.1960  0.5338 -0.9610
 6608TIP3   OH241238   1.548   1.766   1.871 -0.3655  0.4723 -0.6224
 6608TIP3    H141239   1.475   1.704   1.872 -0.2831  0.3282  1.5836
 6608TIP3    H241240   1.563   1.787   1.964  2.5424  0.3357 -0.9646
 6609TIP3   OH241241   3.481   4.691  14.460 -0.3420 -0.4214  0.3366
 6609TIP3    H141242   3.460   4.646  14.378 -0.5710  0.2803 -0.0011
 6609TIP3    H241243   3.434   4.774  14.453  0.7363  0.2203  0.5765
 6610TIP3   OH241244   1.525   1.018   1.959 -0.1267 -0.2289 -0.0215
 6610TIP3    H141245   1.530   1.086   1.892  0.3702  1.0798  1.2688
 6610TIP3    H241246   1.464   0.954   1.924 -1.7820  1.6040 -0.7154
 6611TIP3   OH241247   4.584   5.216  14.523 -0.3595  0.4443 -0.3861
 6611TIP3    H141248   4.619   5.222  14.612 -0.4858 -0.1251 -0.2954
 6611TIP3    H241249   4.656   5.246  14.467  1.2802 -2.9932 -0.4093
 6612TIP3   OH241250   1.585   0.352  13.921  0.4449 -0.0859 -0.0680
 6612TIP3    H141251   1.566   0.443  13.944  0.6547  0.2122 -1.0331
 6612TIP3    H241252   1.527   0.300  13.978 -0.6161  0.6937 -0.4029
 6613TIP3   OH241253   6.270   5.526   2.817  0.7850  0.0839 -0.7788
 6613TIP3    H141254   6.296   5.439   2.848  0.6611 -0.3035 -1.7295
 6613TIP3    H241255   6.352   5.566   2.787  1.1310  0.9791  1.2197
 6614TIP3   OH241256   6.267   3.441   2.619  0.3425  0.4775  0.6096
 6614TIP3    H141257   6.247   3.507   2.552 -1.0988 -1.4962 -1.0004
 6614TIP3    H241258   6.281   3.360   2.570  2.7873 -0.3309  2.4828
 6615TIP3   OH241259   1.782   1.779   9.509  0.3248 -0.7150 -0.3697
 6615TIP3    H141260   1.874   1.762   9.486  0.2594 -0.3532 -0.9262
 6615TIP3    H241261   1.735   1.768   9.426  0.1022  0.9070 -0.4891
 6616TIP3   OH241262   6.916   4.947   0.182 -0.4860 -0.4624  0.5799
 6616TIP3    H141263   6.836   4.912   0.144 -0.6312 -0.6086  1.0101
 6616TIP3    H241264   6.917   5.038   0.155 -0.8397 -0.4385  0.6373
 6617TIP3   OH241265   1.935   6.573  10.062  0.0058 -0.2402 -0.2143
 6617TIP3    H141266   1.904   6.491  10.023  1.8310 -0.4794 -1.3016
 6617TIP3    H241267   1.991   6.611   9.994 -2.1905  2.8435 -0.4623
 6618TIP3   OH241268   5.687   6.418   2.721  0.1543 -0.1091  0.3594
 6618TIP3    H141269   5.635   6.476   2.777  0.0511  0.9096 -0.7485
 6618TIP3    H241270   5.709   6.472   2.645  0.4085 -1.4062 -0.5196
 6619TIP3   OH241271   5.278   6.728   1.059  0.3921  0.1140  0.8659
 6619TIP3    H141272   5.189   6.700   1.081  0.3034 -0.1007  0.2354
 6619TIP3    H241273   5.334   6.656   1.090  0.1655 -0.8156 -0.7493
 6620TIP3   OH241274   3.677   6.143   1.706  0.0283  0.3322  0.0626
 6620TIP3    H141275   3.602   6.140   1.765  0.5211 -0.6338  0.6623
 6620TIP3    H241276   3.714   6.231   1.719 -1.5223  1.1720 -0.9477
 6621TIP3   OH241277   1.869   6.786   2.174 -0.3348  0.0650 -0.5689
 6621TIP3    H141278   1.865   6.703   2.221  3.3602 -1.6557 -2.8884
 6621TIP3    H241279   1.810   6.774   2.100 -0.5242 -0.1024 -0.3941
 6622TIP3   OH241280   6.377   2.442  14.819 -0.0960  0.5430 -0.9653
 6622TIP3    H141281   6.431   2.364  14.828  0.3568  1.0248  0.9592
 6622TIP3    H241282   6.323   2.425  14.742 -1.9508 -2.8628  0.8647
 6623TIP3   OH241283   2.771   6.840  13.723  0.0425 -0.3839 -0.0303
 6623TIP3    H141284   2.690   6.888  13.739 -0.4655 -1.4488  0.6813
 6623TIP3    H241285   2.799   6.870  13.636 -1.5814 -0.6134 -0.6839
 6624TIP3   OH241286   4.949   6.561  11.163 -0.0729  0.0899  0.4771
 6624TIP3    H141287   4.934   6.629  11.096 -2.5434 -1.1587 -0.3757
 6624TIP3    H241288   5.011   6.501  11.123  0.6851  0.8520  0.4885
 6625TIP3   OH241289   0.794   0.724  12.426  0.9960  0.2929  0.7134
 6625TIP3    H141290   0.857   0.654  12.411  2.4920  1.4720  1.1390
 6625TIP3    H241291   0.810   0.787  12.356 -0.0088  0.4311  0.5883
 6626TIP3   OH241292   6.931   5.264  13.124 -0.0927  0.1533  0.3533
 6626TIP3    H141293   6.896   5.345  13.159 -0.2454  0.5067 -0.6041
 6626TIP3    H241294   6.896   5.258  13.035 -1.4120 -1.7749  0.9295
 6627TIP3   OH241295   1.164   5.627  11.361 -0.3962 -0.4674 -0.2784
 6627TIP3    H141296   1.231   5.589  11.304  0.9018 -2.1600  2.1948
 6627TIP3    H241297   1.113   5.551  11.392  0.0556  0.1328  2.1165
 6628TIP3   OH241298   1.746   1.927  13.464  0.3727  0.8241 -0.4818
 6628TIP3    H141299   1.674   1.886  13.415 -0.1468  2.0968 -0.8252
 6628TIP3    H241300   1.709   2.009  13.495  0.6049 -0.0292  2.3081
 6629TIP3   OH241301   7.027   5.096   1.456  0.2309 -0.3891  0.2435
 6629TIP3    H141302   7.063   5.070   1.540 -1.2313  2.4769  1.9142
 6629TIP3    H241303   6.937   5.064   1.458 -0.1388  0.6032  0.2953
 6630TIP3   OH241304   2.036   2.918  10.606  0.2344 -0.0908 -0.2728
 6630TIP3    H141305   2.049   2.824  10.618 -1.1850 -0.2107  0.5984
 6630TIP3    H241306   2.086   2.940  10.527  0.0563 -1.6929 -0.8590
 6631TIP3   OH241307   4.395   5.757  10.888 -0.4029  0.0945  0.0736
 6631TIP3    H141308   4.339   5.682  10.906 -0.9967  0.1728 -1.3187
 6631TIP3    H241309   4.438   5.735  10.804  2.1517 -0.2459  1.3541
 6632TIP3   OH241310   0.026   0.673   0.345  0.4262  0.4405 -0.6631
 6632TIP3    H141311  -0.047   0.626   0.387  0.2351 -1.8276 -3.3069
 6632TIP3    H241312   0.061   0.612   0.281  2.3167  2.8247 -2.0764
 6633TIP3   OH241313   4.616   3.232  10.098  0.3833  0.1769  0.2071
 6633TIP3    H141314   4.661   3.277  10.026 -3.2799  0.3618 -2.2591
 6633TIP3    H241315   4.638   3.140  10.086  0.2417  0.2698 -0.9161
 6634TIP3   OH241316   6.177   0.271  11.525  0.1975  0.1098 -0.1416
 6634TIP3    H141317   6.261   0.262  11.479  1.3963  2.1156  1.4620
 6634TIP3    H241318   6.187   0.216  11.603  0.8345  1.7439  0.9944
 6635TIP3   OH241319   4.003   2.688   3.904 -0.1647  0.4674 -0.3735
 6635TIP3    H141320   3.913   2.668   3.878 -0.4294  0.3866  0.5829
 6635TIP3    H241321   4.057   2.649   3.835 -0.8566  0.6117 -1.0126
 6636TIP3   OH241322   2.360   6.817  11.516  0.7531  0.2536 -0.4694
 6636TIP3    H141323   2.426   6.753  11.489  1.0499  0.4423 -0.1909
 6636TIP3    H241324   2.367   6.887  11.451 -0.0140 -0.2816 -1.1529
 6637TIP3   OH241325   5.788   5.429   0.392 -0.5862 -0.2790  0.3218
 6637TIP3    H141326   5.839   5.351   0.369 -1.2724 -0.8696  0.7282
 6637TIP3    H241327   5.762   5.414   0.483  0.1760  0.9407  0.7678
 6638TIP3   OH241328   2.445   3.768  14.694  0.4769  0.0539  0.0906
 6638TIP3    H141329   2.458   3.855  14.654  0.3776 -0.0000 -0.0606
 6638TIP3    H241330   2.533   3.730  14.698  0.9581  1.2248  2.6424
 6639TIP3   OH241331   5.876   6.157  14.966 -0.1701  0.2163  0.8588
 6639TIP3    H141332   5.884   6.234  14.909 -0.3879 -0.8363 -0.6430
 6639TIP3    H241333   5.901   6.189  15.053 -0.9736  2.1615  0.4282
 6640TIP3   OH241334   5.198   6.754   0.759  0.1983  0.0053 -0.2730
 6640TIP3    H141335   5.145   6.680   0.790 -1.1337  0.3744 -1.5643
 6640TIP3    H241336   5.191   6.750   0.664 -1.1672  2.6308 -0.3759
 6641TIP3   OH241337   2.503   3.658  13.506  0.0146 -0.3577  0.4535
 6641TIP3    H141338   2.590   3.628  13.532  0.3685  0.4208  0.2311
 6641TIP3    H241339   2.479   3.603  13.431  1.0143  0.4331 -0.4850
 6642TIP3   OH241340   4.546   4.636   5.480 -0.4152 -0.0267  0.2305
 6642TIP3    H141341   4.549   4.612   5.573  0.2555 -0.3121  0.1387
 6642TIP3    H241342   4.633   4.671   5.462  0.6279 -3.0031 -1.0946
 6643TIP3   OH241343   3.603   3.562  13.457 -0.6136 -0.0586  0.5667
 6643TIP3    H141344   3.508   3.551  13.465 -0.7462  0.3273 -0.2883
 6643TIP3    H241345   3.636   3.474  13.436 -0.8212 -0.1406  0.5861
 6644TIP3   OH241346   2.284   6.659  10.281 -0.1141  0.2750 -0.0835
 6644TIP3    H141347   2.309   6.570  10.308 -0.6653  0.4084  0.8989
 6644TIP3    H241348   2.265   6.650  10.188  1.5166 -0.2668 -0.3920
 6645TIP3   OH241349   6.215   2.765  13.639 -0.0573  0.2978  0.5691
 6645TIP3    H141350   6.156   2.824  13.590 -0.0708 -1.0879 -1.1816
 6645TIP3    H241351   6.298   2.769  13.592  1.0497  1.5258  2.4852
 6646TIP3   OH241352   3.047   1.545  10.899 -0.0522  0.4740  0.4612
 6646TIP3    H141353   2.986   1.589  10.958 -0.7960  0.4162 -0.2498
 6646TIP3    H241354   3.068   1.610  10.833  2.2826  1.1872  1.7793
 6647TIP3   OH241355   1.331   2.940  11.068  0.4528 -0.0864  0.2255
 6647TIP3    H141356   1.409   2.890  11.090  0.7761 -1.3806 -3.2234
 6647TIP3    H241357   1.292   2.893  10.994 -1.7074  2.4008 -0.3939
 6648TIP3   OH241358   0.569   6.938   4.198 -0.4911  0.1241 -0.6869
 6648TIP3    H141359   0.639   7.002   4.188 -0.2179 -0.2216 -1.0324
 6648TIP3    H241360   0.501   6.968   4.138 -1.2378  1.2337  0.6513
 6649TIP3   OH241361   4.162   5.375   5.177 -0.5664  0.7408 -0.1240
 6649TIP3    H141362   4.121   5.311   5.235 -0.1533 -1.2400 -1.8589
 6649TIP3    H241363   4.255   5.371   5.199 -0.3745 -0.1900 -0.9913
 6650TIP3   OH241364   3.117   0.725  10.808  0.2108  0.5691  0.3594
 6650TIP3    H141365   3.177   0.699  10.879 -0.7631 -1.4308  0.4969
 6650TIP3    H241366   3.172   0.728  10.730  0.8475  0.5958  0.7999
 6651TIP3   OH241367   5.288   0.333   3.088 -0.3973  0.8939 -0.2707
 6651TIP3    H141368   5.194   0.332   3.104 -0.1452 -0.1801  1.4003
 6651TIP3    H241369   5.303   0.261   3.027 -0.3173 -1.2750  2.1454
 6652TIP3   OH241370   4.003   3.633   3.382  0.1184  0.3528 -0.3529
 6652TIP3    H141371   4.034   3.654   3.294 -0.9426 -1.0244 -1.1040
 6652TIP3    H241372   4.010   3.715   3.431  0.1255  1.3158 -1.9026
 6653TIP3   OH241373   2.398   5.269  12.402 -0.1720 -0.1555  0.2359
 6653TIP3    H141374   2.355   5.189  12.430 -1.8689  0.4145 -0.6036
 6653TIP3    H241375   2.428   5.311  12.483 -1.2761 -0.5489  0.8670
 6654TIP3   OH241376   4.837   4.179   5.065  0.3223 -0.4252  0.4184
 6654TIP3    H141377   4.847   4.272   5.087  1.0584 -0.5510  0.6414
 6654TIP3    H241378   4.905   4.135   5.116  0.8392 -0.9367 -0.6732
 6655TIP3   OH241379   0.028   6.591   0.322 -0.8322 -0.0066  0.1422
 6655TIP3    H141380   0.055   6.526   0.386 -0.4862  1.3993  1.4818
 6655TIP3    H241381  -0.066   6.601   0.336 -1.1830 -1.2494 -1.0860
 6656TIP3   OH241382   0.209   0.026   3.713  0.5880 -0.2816 -0.2765
 6656TIP3    H141383   0.292   0.002   3.754  0.6251 -0.0784 -0.2287
 6656TIP3    H241384   0.234   0.052   3.624  1.1719  3.5258  0.8148
 6657TIP3   OH241385   4.042   2.128   5.431  0.0204  0.0309  0.4058
 6657TIP3    H141386   4.006   2.096   5.514 -0.1595  2.2417  1.2412
 6657TIP3    H241387   4.108   2.193   5.456 -0.2110  0.9337 -1.1740
 6658TIP3   OH241388   1.516   0.315   1.608  0.2506 -0.9601  0.0257
 6658TIP3    H141389   1.554   0.317   1.696 -1.9216  0.4172  1.0116
 6658TIP3    H241390   1.423   0.297   1.622 -0.4103  0.6192 -1.8626
 6659TIP3   OH241391   7.057   3.601  13.364  0.0975 -0.1247  0.0978
 6659TIP3    H141392   7.102   3.685  13.353  0.8920 -0.4898  0.5158
 6659TIP3    H241393   6.978   3.610  13.310 -1.1468  1.8229  2.0545
 6660TIP3   OH241394   5.444   2.931  12.994 -0.9206  0.0911  0.3128
 6660TIP3    H141395   5.465   2.988  12.920  1.4051 -2.0067 -0.8131
 6660TIP3    H241396   5.407   2.853  12.954 -0.5095 -0.7030  1.4389
 6661TIP3   OH241397   1.703   3.610   3.086 -0.9355  0.0205  0.1165
 6661TIP3    H141398   1.623   3.602   3.139  1.1732 -2.3456  3.3736
 6661TIP3    H241399   1.694   3.543   3.019 -1.3662 -0.8015  0.9696
 6662TIP3   OH241400   0.179   4.235   1.933  0.0943 -0.2319 -0.1591
 6662TIP3    H141401   0.142   4.308   1.884 -0.3664  0.8762  1.7620
 6662TIP3    H241402   0.105   4.194   1.976  0.5058 -1.0951 -0.2524
 6663TIP3   OH241403   6.880   6.394   0.635 -0.5362 -0.6566 -0.1174
 6663TIP3    H141404   6.799   6.442   0.649  0.2706  0.9135 -0.5942
 6663TIP3    H241405   6.892   6.342   0.715 -2.2334 -1.2909 -0.2477
 6664TIP3   OH241406   3.063   1.173   3.973  0.1096 -0.1888 -0.0069
 6664TIP3    H141407   3.138   1.135   4.018  0.1408  0.8650  0.8596
 6664TIP3    H241408   3.066   1.134   3.886  2.7180  1.1448 -0.6157
 6665TIP3   OH241409   3.341   4.999   2.353 -0.2779 -0.0362 -0.1541
 6665TIP3    H141410   3.321   4.997   2.446  1.6101  0.1579  0.2923
 6665TIP3    H241411   3.405   4.929   2.340 -0.3154  0.1135 -1.2521
 6666TIP3   OH241412   4.862   0.829  11.008 -0.4427 -0.5671  0.2154
 6666TIP3    H141413   4.772   0.861  11.009 -0.2321  0.0717  1.7711
 6666TIP3    H241414   4.875   0.792  11.095  0.6560 -1.0758 -0.1438
 6667TIP3   OH241415   3.046   2.718  12.409 -0.1911  0.0230 -0.2451
 6667TIP3    H141416   3.041   2.669  12.328  0.6922 -1.3465  0.4977
 6667TIP3    H241417   3.131   2.761  12.406 -0.9488  1.5642 -0.8828
 6668TIP3   OH241418   5.450   2.173  10.937 -0.9417  0.2104 -0.0032
 6668TIP3    H141419   5.395   2.241  10.976 -2.2202 -1.1161  0.5809
 6668TIP3    H241420   5.392   2.128  10.876 -0.2132 -0.5864 -0.1222
 6669TIP3   OH241421   0.202   0.886   4.635  0.3553 -0.0681  0.3757
 6669TIP3    H141422   0.253   0.818   4.591 -1.3301  0.0875 -1.9757
 6669TIP3    H241423   0.111   0.854   4.632 -0.0109  0.5700  2.6487
 6670TIP3   OH241424   4.950   1.986  11.517  0.3349 -0.0951  0.0385
 6670TIP3    H141425   5.039   2.004  11.548  0.6454 -1.6989  0.1858
 6670TIP3    H241426   4.900   1.968  11.597  0.2931 -0.8205 -0.1426
 6671TIP3   OH241427   1.316   2.019  10.960 -0.3868 -0.1020  0.0437
 6671TIP3    H141428   1.232   2.065  10.950 -0.8198 -1.2478 -2.0273
 6671TIP3    H241429   1.324   1.965  10.882  2.3989  0.0919  0.0807
 6672TIP3   OH241430   2.828   3.934  13.026 -0.0488 -0.0488 -0.0742
 6672TIP3    H141431   2.893   3.979  12.973 -1.2128  1.5413 -0.2225
 6672TIP3    H241432   2.747   3.939  12.975 -1.3649  2.0707  2.0124
 6673TIP3   OH241433   5.071   5.837  13.993 -0.1594 -0.2016  0.3572
 6673TIP3    H141434   5.001   5.886  14.036  0.3971  0.0490  0.9921
 6673TIP3    H241435   5.057   5.746  14.020 -0.9981 -0.3638 -0.5594
 6674TIP3   OH241436   1.849   3.170   3.253 -0.0931  0.4324  0.1887
 6674TIP3    H141437   1.923   3.109   3.250 -0.3576  0.0525  1.1157
 6674TIP3    H241438   1.872   3.233   3.320 -0.9847 -0.1997  1.1157
 6675TIP3   OH241439   1.919   0.618  11.518  0.0675 -0.4511  0.0841
 6675TIP3    H141440   1.994   0.588  11.467 -1.0612 -1.9525 -0.7900
 6675TIP3    H241441   1.877   0.538  11.549 -2.6128  0.1619 -1.6092
 6676TIP3   OH241442   5.624   1.489   3.368 -0.2107 -0.3561 -0.2249
 6676TIP3    H141443   5.594   1.413   3.419 -1.8036  0.2323 -0.2266
 6676TIP3    H241444   5.707   1.514   3.409 -1.1210 -0.3024  1.7227
 6677TIP3   OH241445   5.807   6.980  15.058  0.1458 -0.3967 -0.0832
 6677TIP3    H141446   5.781   7.045  15.123 -0.1337 -1.3430  0.7932
 6677TIP3    H241447   5.880   6.933  15.099  1.4077  0.3640 -1.3524
 6678TIP3   OH241448   1.555   1.357  13.557 -0.1609  0.1211  0.2566
 6678TIP3    H141449   1.468   1.326  13.529 -0.6245  2.9678 -1.9565
 6678TIP3    H241450   1.536   1.418  13.629  0.3838 -1.6843  1.9999
 6679TIP3   OH241451   0.970   3.665  15.341 -0.2563 -0.0597 -0.1309
 6679TIP3    H141452   0.952   3.606  15.268 -2.5168  0.3037  0.0428
 6679TIP3    H241453   0.939   3.750  15.311  0.0492  0.3783  0.7561
 6680TIP3   OH241454   6.013   0.969  12.800 -0.3619  0.4625 -0.7228
 6680TIP3    H141455   5.999   1.048  12.852  0.2185 -0.1489  0.3858
 6680TIP3    H241456   6.069   0.914  12.854 -0.8851 -0.7889 -1.4138
 6681TIP3   OH241457   2.225   4.614  12.298  0.6073  0.3228 -0.2632
 6681TIP3    H141458   2.199   4.644  12.385 -0.7723 -1.6505  0.0574
 6681TIP3    H241459   2.311   4.574  12.311  1.1486  1.4938 -0.1490
 6682TIP3   OH241460   1.168   0.770  11.665 -0.2267 -0.1051  0.0637
 6682TIP3    H141461   1.122   0.689  11.685 -2.3274  0.9625 -0.1690
 6682TIP3    H241462   1.166   0.777  11.570  4.9212 -2.4373 -0.5505
 6683TIP3   OH241463   4.370   0.739  11.511 -0.3023 -0.5374 -0.1803
 6683TIP3    H141464   4.378   0.666  11.450 -1.2060  0.0363 -0.9967
 6683TIP3    H241465   4.428   0.807  11.476 -1.3893  0.0706 -0.8264
 6684TIP3   OH241466   2.737   3.270   0.059  0.3205  0.0313  0.1608
 6684TIP3    H141467   2.790   3.227   0.126 -1.2363 -1.6316  0.4142
 6684TIP3    H241468   2.798   3.327   0.012  1.8952 -0.3943  1.5981
 6685TIP3   OH241469   5.876   6.815  14.204 -0.2314  0.0629  0.1202
 6685TIP3    H141470   5.789   6.780  14.223  0.1047 -1.0070 -0.2087
 6685TIP3    H241471   5.922   6.742  14.162  0.2061  1.2301 -1.4992
 6686TIP3   OH241472   6.525   1.726   4.593 -0.2054 -0.6333 -0.0104
 6686TIP3    H141473   6.450   1.667   4.581  1.1569 -2.1775 -1.5614
 6686TIP3    H241474   6.600   1.677   4.557  1.3915  1.2173  0.6117
 6687TIP3   OH241475   1.252   4.349   1.834  0.1201 -0.2861 -0.1147
 6687TIP3    H141476   1.343   4.319   1.829  0.3323  0.5423 -2.8225
 6687TIP3    H241477   1.235   4.387   1.748 -2.2883  1.1108  0.8973
 6688TIP3   OH241478   0.355   6.730  13.203 -0.4812 -0.1767  0.0225
 6688TIP3    H141479   0.264   6.725  13.175 -0.5678 -1.2199  0.4443
 6688TIP3    H241480   0.353   6.776  13.286 -0.3677  1.7418 -0.9903
 6689TIP3   OH241481   5.744   4.107   2.642 -0.1830  0.0278  0.1169
 6689TIP3    H141482   5.726   4.131   2.733  1.1619  0.7134  0.2258
 6689TIP3    H241483   5.773   4.016   2.647 -0.9911 -0.2282  0.2557
 6690TIP3   OH241484   5.418   6.550   2.702  0.7358  0.5581 -0.1365
 6690TIP3    H141485   5.348   6.553   2.637  0.3521 -2.1656  0.0566
 6690TIP3    H241486   5.419   6.460   2.733  1.6624  1.4825  2.8564
 6691TIP3   OH241487   5.928   4.368   4.521  0.8433  0.3217 -0.6554
 6691TIP3    H141488   5.998   4.379   4.584 -0.2691  0.1607  0.6630
 6691TIP3    H241489   5.908   4.274   4.524 -1.2237  0.7155  1.0916
 6692TIP3   OH241490   3.431   6.307  14.443 -0.5922 -0.0112  0.5689
 6692TIP3    H141491   3.372   6.280  14.513 -0.5924 -0.0774  0.5426
 6692TIP3    H241492   3.458   6.396  14.467 -2.0172  0.6759 -0.2580
 6693TIP3   OH241493   6.253   5.959   5.239 -0.1304  0.0243 -0.7962
 6693TIP3    H141494   6.238   5.865   5.248  1.5322 -0.2425 -0.5352
 6693TIP3    H241495   6.298   5.969   5.155 -0.2986  0.5994 -0.8278
 6694TIP3   OH241496   1.985   2.941  14.441  0.6197  0.0721 -0.5947
 6694TIP3    H141497   1.984   2.940  14.345 -0.9705 -2.8333 -0.6581
 6694TIP3    H241498   2.062   2.890  14.465  1.2927  1.2100 -0.2929
 6695TIP3   OH241499   5.903   5.853   2.209  0.0623  0.2717 -0.4930
 6695TIP3    H141500   5.943   5.777   2.250  0.4900  0.9980  0.4907
 6695TIP3    H241501   5.833   5.879   2.270 -0.1424  0.6020 -0.8657
 6696TIP3   OH241502   1.437   6.514  11.826 -0.1512 -0.0524 -0.2841
 6696TIP3    H141503   1.511   6.555  11.870  0.5056 -1.7939  0.3314
 6696TIP3    H241504   1.430   6.428  11.867 -1.9672 -0.2659 -0.9587
 6697TIP3   OH241505   4.075   0.495   0.110 -0.6033 -0.6373  0.1547
 6697TIP3    H141506   4.140   0.489   0.180 -0.9104  0.7667  0.5725
 6697TIP3    H241507   3.992   0.474   0.152 -0.8240  0.4608  0.2788
 6698TIP3   OH241508   1.920   5.848   4.628  0.3629 -0.1263  0.1885
 6698TIP3    H141509   1.865   5.901   4.685 -0.2452  0.0262 -0.5261
 6698TIP3    H241510   1.892   5.869   4.539  0.7920 -0.8979 -0.1509
 6699TIP3   OH241511   2.148   1.760  10.874  0.0682  0.5533  0.3825
 6699TIP3    H141512   2.229   1.710  10.860  0.4758  1.2284  0.2894
 6699TIP3    H241513   2.148   1.779  10.968  0.7075  1.6964  0.1650
 6700TIP3   OH241514   2.399   5.986   0.389  0.1221  0.2571  0.0619
 6700TIP3    H141515   2.479   6.023   0.427  0.6130 -0.5081 -0.1856
 6700TIP3    H241516   2.328   6.023   0.441  0.7364 -0.1974  1.2763
 6701TIP3   OH241517   0.044   1.706  10.548  0.1783 -0.0296  0.2408
 6701TIP3    H141518  -0.018   1.653  10.499  1.4394 -0.6114 -0.7871
 6701TIP3    H241519   0.081   1.767  10.484  0.0763  0.8736  1.0117
 6702TIP3   OH241520   4.031   6.592  15.219 -0.4017 -0.6539  0.1881
 6702TIP3    H141521   4.012   6.510  15.264  1.2074 -1.4130 -0.4310
 6702TIP3    H241522   4.107   6.628  15.267 -0.0902 -0.3434 -0.5237
 6703TIP3   OH241523   3.659   7.076  12.192 -0.3544 -0.2157  0.2096
 6703TIP3    H141524   3.588   7.056  12.253 -1.6229  1.8533 -0.4818
 6703TIP3    H241525   3.617   7.075  12.106  1.1641 -1.9475 -0.5809
 6704TIP3   OH241526   5.590   0.695  11.297 -0.5404  0.0959 -0.5882
 6704TIP3    H141527   5.598   0.791  11.301 -0.4531  0.0577  0.9416
 6704TIP3    H241528   5.563   0.670  11.386 -3.0036 -1.1023 -1.5868
 6705TIP3   OH241529   2.973   6.705   9.559  0.1614 -0.0403  0.4989
 6705TIP3    H141530   2.937   6.785   9.522 -1.1215 -0.8379 -0.0662
 6705TIP3    H241531   3.066   6.707   9.537 -0.0118  0.9127 -0.1885
 6706TIP3   OH241532   2.215   5.488  10.377 -0.2425 -0.4141 -0.3306
 6706TIP3    H141533   2.216   5.539  10.458  1.7835  0.5879 -0.9212
 6706TIP3    H241534   2.223   5.397  10.405  1.3898 -0.0138  0.6063
 6707TIP3   OH241535   0.406   2.639  10.961  0.5010 -0.1472 -0.7376
 6707TIP3    H141536   0.368   2.702  10.900 -0.9645 -0.9128 -0.6799
 6707TIP3    H241537   0.359   2.557  10.942 -1.2346 -0.0496  2.4593
 6708TIP3   OH241538   4.379   5.775   1.533  0.2943  0.1280  0.2548
 6708TIP3    H141539   4.440   5.802   1.465 -0.5332  3.0294  0.5482
 6708TIP3    H241540   4.409   5.820   1.612 -1.5111  0.6654  0.6741
 6709TIP3   OH241541   1.826   3.592  11.001 -0.9765  0.5569 -0.0063
 6709TIP3    H141542   1.891   3.625  10.939 -0.9539 -3.0272 -2.1690
 6709TIP3    H241543   1.747   3.642  10.980 -0.2029  1.4899 -0.8423
 6710TIP3   OH241544   6.692   6.857  15.356 -0.4374 -0.0531 -0.2348
 6710TIP3    H141545   6.707   6.948  15.328 -0.0657  0.1636  0.6090
 6710TIP3    H241546   6.733   6.804  15.288 -1.1961  0.3843 -1.0597
 6711TIP3   OH241547   6.375   6.782  11.032  0.3156 -0.2452 -0.1552
 6711TIP3    H141548   6.379   6.743  11.119 -0.4377 -0.2464 -0.1165
 6711TIP3    H241549   6.359   6.708  10.973 -0.9940 -0.0323 -0.0938
 6712TIP3   OH241550   3.242   0.065   3.405  0.3052 -0.3062  0.7682
 6712TIP3    H141551   3.207   0.056   3.493  1.0795 -0.1826  1.0979
 6712TIP3    H241552   3.166   0.085   3.351 -0.4462 -1.9817  1.1267
 6713TIP3   OH241553   6.704   5.339   9.347 -0.0099  0.8901  0.3244
 6713TIP3    H141554   6.734   5.417   9.393  2.1907 -0.7687  1.9662
 6713TIP3    H241555   6.674   5.280   9.416 -0.9707 -0.0016 -0.8013
 6714TIP3   OH241556   0.562   6.300  12.027 -0.0666 -0.4558 -0.1693
 6714TIP3    H141557   0.587   6.208  12.039 -0.1544 -0.2476  2.2107
 6714TIP3    H241558   0.517   6.322  12.109  0.8228  1.9771 -0.2803
 6715TIP3   OH241559   1.485   2.269   2.015  0.3457  0.1421  0.0239
 6715TIP3    H141560   1.453   2.306   1.932  1.4681  2.6406  0.6330
 6715TIP3    H241561   1.572   2.307   2.026  0.5522 -0.8194  1.9436
 6716TIP3   OH241562   6.258   0.423   1.185  0.3491 -0.0875  0.7749
 6716TIP3    H141563   6.234   0.355   1.247  0.1741  0.0662  0.8775
 6716TIP3    H241564   6.181   0.479   1.180  0.6280  0.3196  0.9781
 6717TIP3   OH241565   1.527   4.058  15.509 -0.0962  0.0443 -0.6939
 6717TIP3    H141566   1.446   4.034  15.555 -0.4146  0.1891 -1.1672
 6717TIP3    H241567   1.596   4.014  15.557 -0.5816 -1.1415 -1.0593
 6718TIP3   OH241568   0.191   7.045  14.373 -0.1643  0.5524  0.1981
 6718TIP3    H141569   0.223   7.066  14.285  0.4818 -1.7994 -0.2004
 6718TIP3    H241570   0.244   6.969  14.400 -0.5411  1.0529  2.5167
 6719TIP3   OH241571   6.741   3.542  12.987  0.3116  0.0078 -0.0085
 6719TIP3    H141572   6.775   3.504  13.067  1.3416 -1.7392 -1.2232
 6719TIP3    H241573   6.675   3.479  12.956 -0.9195  1.2213  0.0248
 6720TIP3   OH241574   2.991   1.205  12.213 -0.1236 -0.4762  0.0107
 6720TIP3    H141575   3.048   1.147  12.161  0.8244  0.5890 -0.1901
 6720TIP3    H241576   3.052   1.265  12.256 -0.9421 -0.9335  1.8914
 6721TIP3   OH241577   5.119   2.643   9.465  0.2373 -0.2551  0.6740
 6721TIP3    H141578   5.049   2.580   9.483  0.5476 -0.3668  1.5374
 6721TIP3    H241579   5.075   2.728   9.466 -0.8170 -0.5438 -3.6221
 6722TIP3   OH241580   1.636   1.654  13.335  0.1747  0.5224  0.5566
 6722TIP3    H141581   1.548   1.677  13.364  0.1568 -0.2671  1.1688
 6722TIP3    H241582   1.676   1.612  13.411  1.3070  1.4352  0.4938
 6723TIP3   OH241583   4.688   1.216   1.551  0.3635 -0.1532  0.3661
 6723TIP3    H141584   4.640   1.258   1.480  0.3263 -1.6108 -0.5131
 6723TIP3    H241585   4.736   1.288   1.593  0.7088  0.6939 -1.3806
 6724TIP3   OH241586   2.566   3.209   1.179 -0.2939  0.0259 -0.1165
 6724TIP3    H141587   2.574   3.302   1.201 -1.7796  0.0711  0.3202
 6724TIP3    H241588   2.513   3.208   1.100  1.9125 -0.3506 -1.6955
 6725TIP3   OH241589   4.460   5.801  14.118  0.4795 -0.2116 -0.2865
 6725TIP3    H141590   4.530   5.736  14.122  1.8803  1.1486 -1.2659
 6725TIP3    H241591   4.506   5.884  14.106 -1.3145  0.7756 -0.6744
 6726TIP3   OH241592   3.629   6.151  11.193  0.1878  0.5071  0.2692
 6726TIP3    H141593   3.721   6.142  11.221 -0.1102  1.3608  1.6130
 6726TIP3    H241594   3.592   6.063  11.205  0.3057  0.6368  1.7915
 6727TIP3   OH241595   0.258   5.711   4.547  0.4117  0.0692 -0.0691
 6727TIP3    H141596   0.341   5.759   4.550  0.5706 -0.1891 -0.3570
 6727TIP3    H241597   0.203   5.755   4.613 -0.0500  1.7448 -1.4849
 6728TIP3   OH241598   3.496   0.865   1.438  0.4285 -0.2913  0.0534
 6728TIP3    H141599   3.571   0.824   1.480 -0.2268 -1.6972 -0.0715
 6728TIP3    H241600   3.477   0.809   1.363 -0.3589  0.3862 -0.2714
 6729TIP3   OH241601   3.840   0.112   9.661 -0.1746  0.5212 -0.0854
 6729TIP3    H141602   3.756   0.068   9.648  0.0503 -0.7852  2.2430
 6729TIP3    H241603   3.818   0.198   9.697 -0.5321  0.8524 -1.0749
 6730TIP3   OH241604   2.965   1.538   0.151  0.1426  0.5454 -0.1617
 6730TIP3    H141605   2.995   1.604   0.214  0.4332  0.7565 -0.5144
 6730TIP3    H241606   2.954   1.458   0.203 -0.2328  0.8774  0.2741
 6731TIP3   OH241607   2.132   0.376  12.760 -0.0147  0.2235  0.5514
 6731TIP3    H141608   2.186   0.332  12.695 -0.6360  0.2690 -0.0102
 6731TIP3    H241609   2.044   0.340  12.747 -0.5519  1.6387  0.0462
 6732TIP3   OH241610   2.996   6.183  13.082  0.1364  0.2585 -0.7679
 6732TIP3    H141611   2.991   6.091  13.109 -0.2714  0.4523 -0.1379
 6732TIP3    H241612   3.083   6.212  13.111 -0.4129  0.5479  0.6773
 6733TIP3   OH241613   2.935   1.660   5.183  0.1786  0.3470  0.2457
 6733TIP3    H141614   2.861   1.627   5.132 -0.5681 -0.6373  1.8932
 6733TIP3    H241615   2.902   1.665   5.273  1.8531  0.7394  0.8688
 6734TIP3   OH241616   7.125   0.610  10.970 -0.6705 -0.3669  0.4651
 6734TIP3    H141617   7.081   0.695  10.962 -1.3409 -0.7476  0.0048
 6734TIP3    H241618   7.091   0.558  10.897 -0.5766 -1.1657  0.9737
 6735TIP3   OH241619   6.437   0.125   0.619  0.9400  0.4171 -0.6388
 6735TIP3    H141620   6.454   0.211   0.579 -1.9836  2.2502  1.6967
 6735TIP3    H241621   6.366   0.088   0.567  0.3589  0.6763 -0.0456
 6736TIP3   OH241622   4.849   1.289  10.940 -0.1514  0.4374 -0.4578
 6736TIP3    H141623   4.802   1.209  10.964  0.6876  0.3591  1.0708
 6736TIP3    H241624   4.940   1.270  10.961  0.2814  1.2862 -1.4936
 6737TIP3   OH241625   6.858   5.429  15.493  0.5035  0.4725  0.1113
 6737TIP3    H141626   6.904   5.513  15.490  1.1657  0.0962 -0.4510
 6737TIP3    H241627   6.790   5.436  15.426  0.2098  0.7537  0.4347
 6738TIP3   OH241628   3.165   0.256   5.430  0.2019 -0.0521 -0.3680
 6738TIP3    H141629   3.245   0.294   5.467  0.1820 -0.3272 -0.0446
 6738TIP3    H241630   3.106   0.330   5.420 -0.5003 -0.2255  1.9449
 6739TIP3   OH241631   4.959   5.846  13.090  0.9647 -0.4384  0.5423
 6739TIP3    H141632   4.899   5.813  13.022 -0.4075  0.4932  1.2464
 6739TIP3    H241633   4.975   5.771  13.147 -1.0267 -0.3103  1.3606
 6740TIP3   OH241634   3.860   0.944  14.772 -0.1277  0.0675  0.5745
 6740TIP3    H141635   3.783   0.984  14.731  0.6251 -0.8808 -1.9325
 6740TIP3    H241636   3.934   0.971  14.717  0.9034 -1.5394  1.0984
 6741TIP3   OH241637   2.215   1.289   2.308  0.8840 -0.1764  0.1184
 6741TIP3    H141638   2.119   1.285   2.307  0.7754  1.3163 -1.4999
 6741TIP3    H241639   2.240   1.258   2.395 -0.9687 -2.0160  0.0584
 6742TIP3   OH241640   5.458   0.791  15.019 -0.3353  0.0637  0.4187
 6742TIP3    H141641   5.526   0.753  14.964 -1.1641 -1.5372  0.4613
 6742TIP3    H241642   5.386   0.810  14.959 -0.1520  1.0641  0.4963
 6743TIP3   OH241643   1.607   2.405  12.925  0.6577 -0.0264 -0.6162
 6743TIP3    H141644   1.514   2.417  12.906  0.8926  2.3695 -0.5040
 6743TIP3    H241645   1.642   2.363  12.847 -0.5534 -1.3715 -0.4866
 6744TIP3   OH241646   1.214   1.022  13.614 -0.1241 -0.6621  0.2533
 6744TIP3    H141647   1.271   0.973  13.555 -0.3856  0.4764 -0.9981
 6744TIP3    H241648   1.126   0.991  13.592 -0.1183 -1.2827  1.0819
 6745TIP3   OH241649   3.359   5.799  14.632 -0.1783  0.2187  0.2867
 6745TIP3    H141650   3.370   5.836  14.720 -1.6598  0.6274  0.3298
 6745TIP3    H241651   3.430   5.839  14.581  0.9024 -0.2740  1.3509
 6746TIP3   OH241652   4.723   0.306   5.945 -0.3666 -0.0747 -0.2943
 6746TIP3    H141653   4.776   0.273   5.872 -1.2191  0.3915 -1.1563
 6746TIP3    H241654   4.780   0.298   6.021  0.3376 -1.1529 -0.8988
 6747TIP3   OH241655   4.462   4.845   4.269  0.1014 -0.3670  0.1027
 6747TIP3    H141656   4.462   4.937   4.241 -0.2414 -0.0478  1.1038
 6747TIP3    H241657   4.398   4.803   4.212  0.0155  0.0962 -0.1466
 6748TIP3   OH241658   5.572   0.775   2.266  0.2660  0.0601 -0.0826
 6748TIP3    H141659   5.522   0.828   2.204 -3.4606  0.9715  3.2741
 6748TIP3    H241660   5.540   0.685   2.251 -0.9815  0.3445  0.6857
 6749TIP3   OH241661   3.820   1.244  11.559 -0.3303  0.5171  0.1010
 6749TIP3    H141662   3.820   1.317  11.497 -1.4036  1.4485  1.1523
 6749TIP3    H241663   3.908   1.243  11.595 -0.0933  0.8183 -0.4574
 6750TIP3   OH241664   2.267   4.805  10.768  0.4753  0.1288  0.0894
 6750TIP3    H141665   2.309   4.755  10.837  2.3069  0.4804 -0.7015
 6750TIP3    H241666   2.260   4.744  10.695  1.9432  0.7200 -0.5936
 6751TIP3   OH241667   0.709   0.099   1.833 -0.1361 -0.6460 -0.2743
 6751TIP3    H141668   0.661   0.182   1.824  0.6495 -0.2534 -1.0145
 6751TIP3    H241669   0.677   0.062   1.915  0.5826  1.1289  0.8783
 6752TIP3   OH241670   3.711   0.116  14.472 -0.3057 -0.4284 -0.4473
 6752TIP3    H141671   3.628   0.075  14.499  0.4008 -1.6921 -0.1022
 6752TIP3    H241672   3.766   0.111  14.550  1.9752 -4.6073 -2.0242
 6753TIP3   OH241673   5.548   6.138  12.135  0.4759 -0.3460  0.2213
 6753TIP3    H141674   5.469   6.120  12.185  0.6614 -0.7435  0.3790
 6753TIP3    H241675   5.524   6.119  12.044 -0.2013  1.4566 -0.0309
 6754TIP3   OH241676   0.511   1.987   3.215 -0.3786 -0.8233  0.1197
 6754TIP3    H141677   0.592   2.020   3.254 -1.0186 -0.2544  1.0062
 6754TIP3    H241678   0.540   1.935   3.140  0.7138  0.7145 -0.5768
 6755TIP3   OH241679   6.036   2.839  10.135 -0.8953  0.0017 -0.3577
 6755TIP3    H141680   6.096   2.804  10.199 -1.0051  0.0069 -0.2513
 6755TIP3    H241681   6.085   2.909  10.091 -0.1038 -1.3147 -1.6853
 6756TIP3   OH241682   7.071   2.345  14.104  0.0333  0.8363 -0.0407
 6756TIP3    H141683   7.067   2.260  14.059  0.1588  0.6139  0.3636
 6756TIP3    H241684   6.988   2.352  14.150  0.0158  0.9421 -0.0873
 6757TIP3   OH241685   3.332   4.984   4.050  0.4783 -0.2676  0.0550
 6757TIP3    H141686   3.408   4.938   4.015  1.3163  0.2457  1.1216
 6757TIP3    H241687   3.368   5.065   4.087 -0.6299  0.1270  0.3129
 6758TIP3   OH241688   7.132   4.997  12.351  0.7995  0.5239  0.2862
 6758TIP3    H141689   7.201   5.042  12.399  1.0165  1.0118 -0.4518
 6758TIP3    H241690   7.051   5.039  12.379  0.8255  0.1463  0.9379
 6759TIP3   OH241691   3.671   0.333   9.666  0.3092 -0.0118 -0.1624
 6759TIP3    H141692   3.604   0.269   9.641 -0.7563  0.8366  0.4687
 6759TIP3    H241693   3.662   0.404   9.603 -0.9794  1.1642  1.2561
 6760TIP3   OH241694   4.901   5.020   5.371 -0.8354  0.1525  0.1643
 6760TIP3    H141695   4.850   5.089   5.413  0.9041  1.2662  0.5426
 6760TIP3    H241696   4.902   5.045   5.278 -0.0601  0.7532  0.3275
 6761TIP3   OH241697   1.743   4.596  11.751  0.4463 -0.4080  0.4691
 6761TIP3    H141698   1.820   4.564  11.705 -0.0856 -0.3365 -0.5043
 6761TIP3    H241699   1.669   4.571  11.695 -0.2075 -0.0916  1.1621
 6762TIP3   OH241700   5.824   5.379  13.766 -0.0207 -0.5374  0.3163
 6762TIP3    H141701   5.789   5.467  13.751  0.9842  0.0014  1.0135
 6762TIP3    H241702   5.763   5.340  13.829 -0.3001 -0.2249  0.2408
 6763TIP3   OH241703   1.995   4.446   4.133 -0.1895  0.8005  0.0302
 6763TIP3    H141704   2.027   4.530   4.099 -0.8090  1.3792  0.8441
 6763TIP3    H241705   1.962   4.467   4.220  1.1255 -0.6003  0.9177
 6764TIP3   OH241706   2.886   2.124   2.577 -0.2988  0.0637  0.1556
 6764TIP3    H141707   2.852   2.186   2.642  1.3444  0.2768  0.8663
 6764TIP3    H241708   2.892   2.042   2.625 -0.5168 -0.1593 -0.1949
 6765TIP3   OH241709   5.339   5.954  15.608 -0.0739  0.6462  0.0741
 6765TIP3    H141710   5.330   5.902  15.688  0.5330  1.5667  0.7658
 6765TIP3    H241711   5.278   5.913  15.546 -0.1624 -0.4134  0.8250
 6766TIP3   OH241712   4.989   4.569   0.158 -0.1858  0.2435  0.2569
 6766TIP3    H141713   4.915   4.546   0.102  0.2741  0.0178 -0.2732
 6766TIP3    H241714   5.023   4.651   0.119  1.0390 -0.6816 -0.7262
 6767TIP3   OH241715   0.020   1.741   0.106 -0.5266  0.0120  0.0068
 6767TIP3    H141716   0.089   1.803   0.130 -1.5879  1.6065 -0.8353
 6767TIP3    H241717  -0.035   1.789   0.043 -2.4190 -1.1706  0.6473
 6768TIP3   OH241718   0.061   0.657   9.392 -0.4845  0.0714 -0.4144
 6768TIP3    H141719   0.101   0.634   9.476  0.3853  2.1959 -0.1830
 6768TIP3    H241720   0.129   0.706   9.345 -2.6877  3.9474  0.0320
 6769TIP3   OH241721   6.121   4.949  12.489  0.1106  0.5623 -0.2250
 6769TIP3    H141722   6.172   4.979  12.414  1.5029  1.1283  0.9069
 6769TIP3    H241723   6.167   4.871  12.520 -1.4730 -0.7482 -0.9857
 6770TIP3   OH241724   6.816   0.433  11.083  0.0373 -1.0539 -0.5653
 6770TIP3    H141725   6.865   0.392  11.012  2.1992  0.6337 -0.1377
 6770TIP3    H241726   6.750   0.486  11.039  0.1562 -1.4395 -1.2298
 6771TIP3   OH241727   3.871   6.193  11.302 -0.3583 -0.2765 -0.8595
 6771TIP3    H141728   3.822   6.124  11.348  0.8476 -1.1342 -0.8280
 6771TIP3    H241729   3.953   6.200  11.350 -0.6644  1.5950 -0.5278
 6772TIP3   OH241730   1.474   2.656   4.260  0.3989  0.1743 -0.8912
 6772TIP3    H141731   1.521   2.739   4.250 -0.7904  0.7846 -1.6526
 6772TIP3    H241732   1.446   2.656   4.351  1.9048 -0.2439 -0.3950
 6773TIP3   OH241733   6.813   5.862  12.918 -1.0590  0.5362  0.2534
 6773TIP3    H141734   6.826   5.799  12.989  0.6789  1.1351  0.4982
 6773TIP3    H241735   6.753   5.927  12.955 -0.9507  0.3141  0.8302
 6774TIP3   OH241736   5.985   4.374  11.139  0.1324 -0.0942 -0.1523
 6774TIP3    H141737   6.065   4.327  11.118  0.2799 -0.1144  0.4441
 6774TIP3    H241738   5.931   4.365  11.060  0.2078 -1.1526 -0.1019
 6775TIP3   OH241739   5.608   4.476   1.412  0.0583  0.6286  0.0452
 6775TIP3    H141740   5.518   4.460   1.442  1.1148 -2.7006  2.0684
 6775TIP3    H241741   5.612   4.434   1.326  0.0214 -0.6046  0.6255
 6776TIP3   OH241742   4.275   5.524   3.135  0.5929  0.3782  0.1499
 6776TIP3    H141743   4.255   5.440   3.094 -2.6868  0.2315  1.7751
 6776TIP3    H241744   4.303   5.580   3.062 -1.4246 -0.8812 -1.7155
 6777TIP3   OH241745   3.444   5.557   4.556  1.1059  0.2969 -0.0166
 6777TIP3    H141746   3.409   5.524   4.639  2.9857  0.6758  0.9780
 6777TIP3    H241747   3.530   5.593   4.579  2.3886 -1.0215 -2.3842
 6778TIP3   OH241748   1.224   3.934  13.047 -0.4420  0.2224  0.1878
 6778TIP3    H141749   1.262   3.881  12.977 -0.4160 -0.2913  0.5903
 6778TIP3    H241750   1.265   4.020  13.037 -0.6653  0.2478 -0.6195
 6779TIP3   OH241751   3.962   1.265  15.235 -0.0833 -0.2452  0.1488
 6779TIP3    H141752   3.896   1.234  15.297 -0.9817 -0.0416 -0.6699
 6779TIP3    H241753   4.032   1.201  15.239 -0.7794 -1.0070  0.3258
 6780TIP3   OH241754   5.224   5.338   5.284  0.0466 -0.2567  0.2755
 6780TIP3    H141755   5.198   5.332   5.192  0.3920 -2.0629  0.2599
 6780TIP3    H241756   5.238   5.248   5.311  0.0202  0.2398  2.1012
 6781TIP3   OH241757   5.899   1.149   2.044 -0.8456  0.0281  0.5921
 6781TIP3    H141758   5.857   1.134   1.959  0.0262 -0.1786  0.1816
 6781TIP3    H241759   5.907   1.062   2.083 -0.8844  0.0755  0.7052
 6782TIP3   OH241760   3.221   1.606   2.263 -0.0620  0.5798 -0.4324
 6782TIP3    H141761   3.131   1.610   2.232  0.3735  0.9291 -1.7070
 6782TIP3    H241762   3.250   1.518   2.239  0.1932  0.7610 -0.8012
 6783TIP3   OH241763   0.819   4.009  11.960 -0.3074 -0.7202  0.5556
 6783TIP3    H141764   0.727   3.987  11.942 -0.9259  1.6781  0.4815
 6783TIP3    H241765   0.829   3.998  12.054 -1.1198  0.4328  0.7921
 6784TIP3   OH241766   4.421   0.151  11.535 -0.2825  0.1931  0.1548
 6784TIP3    H141767   4.389   0.226  11.586 -0.3101  1.4920 -1.6541
 6784TIP3    H241768   4.341   0.106  11.507 -0.2894 -0.0947  0.6208
 6785TIP3   OH241769   3.622   5.559   0.855 -0.1650  0.1409  0.1461
 6785TIP3    H141770   3.661   5.565   0.768 -0.9846 -1.7008 -0.3973
 6785TIP3    H241771   3.642   5.469   0.883  0.0606  0.6880  1.8639
 6786TIP3   OH241772   3.873   4.364  14.124 -0.1215 -0.1320  0.7008
 6786TIP3    H141773   3.951   4.320  14.159 -0.6186 -0.8143  0.9800
 6786TIP3    H241774   3.865   4.332  14.034 -0.9233 -1.2340  1.1503
 6787TIP3   OH241775   5.404   6.490  10.564  0.4957  0.1026  0.6274
 6787TIP3    H141776   5.379   6.510  10.474  0.3871 -1.6669  0.2103
 6787TIP3    H241777   5.441   6.571  10.598  1.5830  0.5146 -1.3816
 6788TIP3   OH241778   3.854   1.987  13.730  0.0637  0.5912  0.8864
 6788TIP3    H141779   3.883   2.061  13.677  0.6792 -0.0336  0.3354
 6788TIP3    H241780   3.827   1.921  13.667  0.1332  0.0999  1.3591
 6789TIP3   OH241781   4.061   4.372  14.467 -0.2448  0.3027  0.0199
 6789TIP3    H141782   3.979   4.328  14.445 -1.7447  3.3256 -0.9436
 6789TIP3    H241783   4.037   4.436  14.534  1.0896  1.9402 -0.9872
 6790TIP3   OH241784   5.043   6.570  12.195 -0.3491  0.0773 -0.4447
 6790TIP3    H141785   5.053   6.557  12.289  0.4558 -4.1913 -0.9215
 6790TIP3    H241786   4.949   6.579  12.181 -0.6064 -0.7553  0.6397
 6791TIP3   OH241787   1.051   1.719   1.042  0.3763  0.2682 -0.0773
 6791TIP3    H141788   1.117   1.674   1.095 -1.7866 -0.6452  2.0381
 6791TIP3    H241789   1.016   1.651   0.985 -0.6651  0.0003  0.8434
 6792TIP3   OH241790   0.168   1.436   9.664  0.0478  0.5109 -0.0892
 6792TIP3    H141791   0.111   1.360   9.673  0.0377  0.4527 -0.5986
 6792TIP3    H241792   0.222   1.435   9.742  0.2681 -0.2051 -0.2435
 6793TIP3   OH241793   5.642   6.518  11.772  0.0622  0.5849 -0.9566
 6793TIP3    H141794   5.663   6.611  11.762 -0.2323  0.8475  0.6498
 6793TIP3    H241795   5.547   6.516  11.787 -0.0446 -0.0440 -1.6383
 6794TIP3   OH241796   6.071   1.450  14.143 -0.2561 -0.4019  0.5458
 6794TIP3    H141797   6.019   1.529  14.125  0.1757 -0.1443  0.4064
 6794TIP3    H241798   6.160   1.474  14.118  0.3099 -0.1595  2.5854
 6795TIP3   OH241799   3.531   2.771  13.013 -0.6577  0.3186  0.0588
 6795TIP3    H141800   3.535   2.769  12.918 -1.6358  0.3616 -0.0016
 6795TIP3    H241801   3.610   2.726  13.042 -1.6361 -2.1313 -0.8000
 6796TIP3   OH241802   6.712   4.030  15.242 -0.3978  0.3362 -0.2740
 6796TIP3    H141803   6.630   4.002  15.283 -0.4299 -1.3984 -1.4142
 6796TIP3    H241804   6.741   3.954  15.192  0.5843  1.7735 -1.9995
 6797TIP3   OH241805   5.971   0.165   1.144  0.3623  0.3734 -0.0287
 6797TIP3    H141806   6.007   0.189   1.058  1.0909  0.5110  0.3105
 6797TIP3    H241807   6.044   0.125   1.191 -0.4483 -1.2433 -0.0560
 6798TIP3   OH241808   5.157   5.354   4.679 -0.0127  0.2469 -0.1125
 6798TIP3    H141809   5.173   5.344   4.773  1.2940 -0.6133 -0.3991
 6798TIP3    H241810   5.150   5.265   4.646 -0.0792  0.5361 -0.8905
 6799TIP3   OH241811   1.821   5.402  13.715  0.4678  0.6272  0.6912
 6799TIP3    H141812   1.831   5.309  13.737  0.2203  1.1096  3.0556
 6799TIP3    H241813   1.827   5.448  13.799 -2.8158  2.4987  0.0578
 6800TIP3   OH241814   1.954   3.038  12.028 -0.1311 -0.3428  0.5676
 6800TIP3    H141815   1.972   3.036  11.934 -1.1942  1.4700  0.2881
 6800TIP3    H241816   1.860   3.050  12.035  0.0512  0.5489  1.8508
 6801TIP3   OH241817   6.640   0.322  12.585 -0.1968  0.1986  0.0815
 6801TIP3    H141818   6.558   0.303  12.539 -0.6098 -0.2655  0.9922
 6801TIP3    H241819   6.663   0.410  12.556  1.0367 -1.0486 -3.1607
 6802TIP3   OH241820   2.129   5.144  14.449  0.1683  0.1364 -0.0040
 6802TIP3    H141821   2.150   5.084  14.377 -0.9315 -0.6574  0.3099
 6802TIP3    H241822   2.067   5.096  14.503 -0.0171  1.2171  0.7846
 6803TIP3   OH241823   2.987   2.766  10.590 -0.4143 -0.2562 -0.5049
 6803TIP3    H141824   2.988   2.685  10.641  0.8420 -0.2011 -0.4066
 6803TIP3    H241825   2.931   2.825  10.640 -0.0386 -0.5444  0.2803
 6804TIP3   OH241826   4.655   4.419  11.295  0.4450 -0.3927  0.3872
 6804TIP3    H141827   4.610   4.443  11.376 -0.1526 -2.6605  0.7787
 6804TIP3    H241828   4.618   4.479  11.230 -1.2665 -0.4538  1.2307
 6805TIP3   OH241829   2.622   2.005  15.596 -0.1507 -0.2150  0.2860
 6805TIP3    H141830   2.640   2.090  15.637  0.2852  0.4641 -1.2433
 6805TIP3    H241831   2.541   2.020  15.547  1.6011  0.3678 -2.6578
 6806TIP3   OH241832   5.284   2.703  13.695  0.4108  0.3101 -0.3987
 6806TIP3    H141833   5.340   2.660  13.630  0.0792 -2.1723  0.8563
 6806TIP3    H241834   5.343   2.725  13.767 -0.0049 -1.8071  0.6841
 6807TIP3   OH241835   2.420   6.327  13.722 -0.1084 -0.3462 -0.0919
 6807TIP3    H141836   2.398   6.242  13.685  2.2019 -1.7034  1.4032
 6807TIP3    H241837   2.494   6.310  13.780  1.5758  2.9584 -1.0004
 6808TIP3   OH241838   4.667   5.023   0.372 -0.6429 -0.3336  0.0019
 6808TIP3    H141839   4.584   5.023   0.420 -0.7102  0.5399 -0.1137
 6808TIP3    H241840   4.653   5.082   0.298 -0.1714 -0.8029 -0.4704
 6809TIP3   OH241841   4.904   4.421  14.216 -0.2486  0.5217 -0.0370
 6809TIP3    H141842   4.834   4.410  14.281  0.5264  2.1745  1.1727
 6809TIP3    H241843   4.911   4.516  14.205  1.2610  0.3572 -0.7205
 6810TIP3   OH241844   6.195   5.126  13.132  0.2761 -0.1590 -0.3392
 6810TIP3    H141845   6.143   5.066  13.078  0.3554 -0.4072 -0.1435
 6810TIP3    H241846   6.185   5.212  13.090 -0.4016 -0.1794 -0.2305
 6811TIP3   OH241847   5.486   5.683   2.906 -0.3539 -0.3435 -0.2000
 6811TIP3    H141848   5.439   5.647   2.981  1.5851  0.0479  1.2684
 6811TIP3    H241849   5.561   5.729   2.944 -0.6800  2.0616 -2.2260
 6812TIP3   OH241850   1.728   2.678   0.220 -0.5017 -0.2930 -0.6600
 6812TIP3    H141851   1.733   2.588   0.251 -0.2418 -0.1840 -0.3842
 6812TIP3    H241852   1.741   2.731   0.298 -3.1487  0.0176 -0.3265
 6813TIP3   OH241853   0.542   7.101   2.732 -0.7608 -0.2256  0.2054
 6813TIP3    H141854   0.595   7.031   2.769 -0.4456 -0.5167 -0.7783
 6813TIP3    H241855   0.552   7.173   2.794 -0.5504 -0.8223  0.8824
 6814TIP3   OH241856   5.508   7.099  10.405  0.0107  0.3797  0.4798
 6814TIP3    H141857   5.491   7.192  10.421  0.0687 -0.0163  3.4066
 6814TIP3    H241858   5.422   7.061  10.390  0.0317  0.9231 -1.2911
 6815TIP3   OH241859   5.270   5.715   0.938 -0.0211  0.4183  0.2976
 6815TIP3    H141860   5.330   5.644   0.957  1.5342  1.8620  0.9950
 6815TIP3    H241861   5.285   5.735   0.845  0.7088  0.8674  0.5050
 6816TIP3   OH241862   3.929   2.402  11.629  0.2754 -0.3907  0.3534
 6816TIP3    H141863   4.001   2.395  11.566 -2.4954  1.4699 -3.5139
 6816TIP3    H241864   3.875   2.326  11.611 -0.3024 -0.1086  0.8721
 6817TIP3   OH241865   5.988   0.967  13.318 -0.0025  0.6140  0.5192
 6817TIP3    H141866   5.901   0.957  13.356 -0.4333 -0.3340 -0.6257
 6817TIP3    H241867   6.000   0.888  13.265  0.1997  2.1409 -1.9090
 6818TIP3   OH241868   2.712   3.666  12.703 -0.9590  0.0594 -0.3388
 6818TIP3    H141869   2.629   3.636  12.666 -1.1539  0.1282  0.0304
 6818TIP3    H241870   2.751   3.720  12.635 -0.6708 -0.9118 -0.9573
 6819TIP3   OH241871   6.356   5.977  13.113  0.4704  0.2837 -0.2401
 6819TIP3    H141872   6.415   5.975  13.188 -0.5681  3.1077  0.7788
 6819TIP3    H241873   6.391   6.045  13.056 -1.0468  1.1255 -0.2225
 6820TIP3   OH241874   5.869   4.854  14.165  0.5817 -0.0991 -0.6017
 6820TIP3    H141875   5.819   4.936  14.163  3.3600  1.7333 -0.9382
 6820TIP3    H241876   5.912   4.850  14.079  1.3952 -1.3055 -0.1693
 6821TIP3   OH241877   0.021   0.453  12.302  0.5708  0.0679  0.1679
 6821TIP3    H141878   0.106   0.495  12.316  0.9124  0.6497 -2.9832
 6821TIP3    H241879  -0.030   0.518  12.252 -0.5043 -1.5279 -0.9155
 6822TIP3   OH241880   5.540   1.089  10.904  0.2363 -0.4289 -0.1679
 6822TIP3    H141881   5.494   1.084  10.820  0.5544 -0.7143 -0.3256
 6822TIP3    H241882   5.534   1.001  10.940  0.4720 -0.4115 -0.0874
 6823TIP3   OH241883   1.324   3.536  12.397 -0.0170  0.7779 -0.5899
 6823TIP3    H141884   1.303   3.491  12.479  1.0179  0.0966 -0.6825
 6823TIP3    H241885   1.294   3.626  12.411 -0.8398  0.4105  0.1225
 6824TIP3   OH241886   2.774   0.361   2.103 -0.1416 -0.0788 -0.2844
 6824TIP3    H141887   2.703   0.344   2.165 -0.2921 -1.6323 -0.8365
 6824TIP3    H241888   2.732   0.358   2.017  0.5205 -0.6735 -0.5971
 6825TIP3   OH241889   4.645   0.209  11.045  0.9958 -0.0705  0.1593
 6825TIP3    H141890   4.655   0.297  11.081 -0.4118  1.3665 -2.6347
 6825TIP3    H241891   4.587   0.164  11.107  0.8609  1.3258  1.0911
 6826TIP3   OH241892   5.898   3.887  12.937  0.1379 -0.2739 -0.3160
 6826TIP3    H141893   5.965   3.914  12.874 -0.0133 -0.3646 -0.5152
 6826TIP3    H241894   5.946   3.835  13.002  0.3439  0.0590 -0.1965
 6827TIP3   OH241895   4.206   6.043  14.415  0.1769 -0.0723  0.1357
 6827TIP3    H141896   4.188   6.033  14.321  1.2848  0.5449 -0.1547
 6827TIP3    H241897   4.221   6.137  14.426 -0.2287 -0.1034  0.9925
 6828TIP3   OH241898   3.593   4.520  15.316  0.0608 -0.3632 -0.1822
 6828TIP3    H141899   3.621   4.439  15.273  0.3241  0.1387 -0.9799
 6828TIP3    H241900   3.666   4.543  15.374 -0.3850 -1.1581  0.7368
 6829TIP3   OH241901   4.701   5.819   0.672 -0.3801  0.1023  0.2274
 6829TIP3    H141902   4.762   5.775   0.614 -0.9340 -0.2222 -0.1226
 6829TIP3    H241903   4.635   5.752   0.693 -0.5542  0.4095  0.6862
 6830TIP3   OH241904   0.851   6.299   5.720 -0.0371 -0.1449 -0.0732
 6830TIP3    H141905   0.938   6.266   5.699  0.3334  1.7202 -1.7638
 6830TIP3    H241906   0.867   6.379   5.769 -0.7966  0.1275 -0.2582
 6831TIP3   OH241907   5.292   6.235  14.471 -0.0878  0.2000  0.0491
 6831TIP3    H141908   5.223   6.239  14.406 -1.5473  1.1912  1.5924
 6831TIP3    H241909   5.299   6.324  14.505  1.0408 -0.1732  0.8698
 6832TIP3   OH241910   5.232   0.840  13.863  0.3814 -0.2104  0.1595
 6832TIP3    H141911   5.175   0.788  13.919  0.5669 -0.9278 -0.2994
 6832TIP3    H241912   5.173   0.876  13.796  0.2484  0.1959  0.4930
 6833TIP3   OH241913   0.282   3.192  14.616 -0.6642 -0.4298 -0.9096
 6833TIP3    H141914   0.221   3.165  14.547 -0.1019 -2.6118 -0.6255
 6833TIP3    H241915   0.246   3.154  14.696  0.3156 -0.5831 -0.5242
 6834TIP3   OH241916   6.132   6.961  14.755  0.3643  0.0975 -0.0402
 6834TIP3    H141917   6.173   6.874  14.754  0.3907  0.1009  0.4310
 6834TIP3    H241918   6.089   6.968  14.670  1.0999 -0.0201 -0.4275
 6835TIP3   OH241919   3.326   0.312  10.424  0.4502 -0.5066 -0.0456
 6835TIP3    H141920   3.293   0.399  10.398 -0.7407 -0.3544  1.7817
 6835TIP3    H241921   3.367   0.277  10.344 -0.6549  0.9752 -1.3302
 6836TIP3   OH241922   2.220   3.550  10.676  0.6585 -0.2344 -0.0399
 6836TIP3    H141923   2.170   3.469  10.688  0.2085 -0.1072 -0.9661
 6836TIP3    H241924   2.222   3.562  10.581 -0.7165  1.7310  0.1302
 6837TIP3   OH241925   4.944   4.757   4.347  0.0866 -0.4882 -0.5415
 6837TIP3    H141926   4.974   4.843   4.317  2.0644 -1.6754 -2.2967
 6837TIP3    H241927   4.883   4.729   4.279  0.3898 -0.9476 -0.6272
 6838TIP3   OH241928   7.034   0.614   4.833  0.1523 -0.2383 -0.9133
 6838TIP3    H141929   7.104   0.577   4.780 -0.1349 -1.1495 -0.6821
 6838TIP3    H241930   6.993   0.538   4.875 -1.2725  0.2225 -1.4099
 6839TIP3   OH241931   2.978   6.864   5.595  0.6234  0.2486 -0.2650
 6839TIP3    H141932   3.004   6.955   5.604 -1.6200  1.2841 -2.8354
 6839TIP3    H241933   2.895   6.857   5.642  1.4731 -0.9521  1.1878
 6840TIP3   OH241934   3.356   2.575  12.166 -0.5805  0.4290 -0.4027
 6840TIP3    H141935   3.272   2.530  12.169  0.3137 -1.2965  1.5158
 6840TIP3    H241936   3.420   2.505  12.150  0.5356  1.6589 -1.5926
 6841TIP3   OH241937   3.413   0.608  13.292 -0.0810  0.4910 -0.2275
 6841TIP3    H141938   3.428   0.688  13.341  0.5753 -0.0449  0.4805
 6841TIP3    H241939   3.456   0.540  13.344 -2.1052 -0.6093  0.1207
 6842TIP3   OH241940   6.215   5.037   2.688  0.3134  0.4003 -0.2761
 6842TIP3    H141941   6.189   5.099   2.620  0.0929  2.0321  1.2383
 6842TIP3    H241942   6.302   5.066   2.716  0.4765 -0.3523  0.0293
 6843TIP3   OH241943   1.662   1.984   0.815  0.3239  0.6005  0.5358
 6843TIP3    H141944   1.577   1.953   0.847 -0.0045 -0.3590 -1.1730
 6843TIP3    H241945   1.718   1.984   0.893 -0.7402 -0.5072  1.3440
 6844TIP3   OH241946   5.596   3.890  14.859  0.4389 -0.7148 -0.6936
 6844TIP3    H141947   5.541   3.963  14.830 -1.1301 -2.1030 -1.3872
 6844TIP3    H241948   5.683   3.909  14.822 -0.6166 -0.5911 -3.3470
 6845TIP3   OH241949   0.145   3.514  11.700 -0.1010 -0.2083  0.4015
 6845TIP3    H141950   0.156   3.600  11.740 -0.0504 -0.0013 -0.0547
 6845TIP3    H241951   0.200   3.516  11.622 -0.8108 -0.3231 -0.1102
 6846TIP3   OH241952   4.645   5.627  13.239 -0.6613 -0.7131 -0.6965
 6846TIP3    H141953   4.655   5.536  13.211  0.8617 -0.3073 -1.6262
 6846TIP3    H241954   4.698   5.677  13.176 -0.0781  0.6297  0.7911
 6847TIP3   OH241955   3.305   4.513  10.244 -0.2888 -0.3199  0.4833
 6847TIP3    H141956   3.260   4.484  10.323  1.6938  2.4012  2.8616
 6847TIP3    H241957   3.397   4.489  10.258  0.2208  0.7850 -0.6583
 6848TIP3   OH241958   5.426   2.990   0.597 -0.3664  0.4960  0.5593
 6848TIP3    H141959   5.370   2.936   0.542 -0.7001  0.6528  0.7379
 6848TIP3    H241960   5.369   3.061   0.627 -0.4573 -0.0980  1.8606
 6849TIP3   OH241961   4.505   2.878  13.879 -0.2543  0.3758  0.0816
 6849TIP3    H141962   4.526   2.963  13.839 -0.1999  0.1439 -0.3866
 6849TIP3    H241963   4.467   2.827  13.808  0.3085 -0.2149  0.1948
 6850TIP3   OH241964   6.505   1.396  15.188  0.0529 -0.3199  0.3660
 6850TIP3    H141965   6.416   1.427  15.206  0.2541  0.5442 -0.1242
 6850TIP3    H241966   6.514   1.318  15.244 -1.3774 -1.0490 -0.3574
 6851TIP3   OH241967   3.444   1.811   0.751  0.4776  0.4296  0.0191
 6851TIP3    H141968   3.455   1.754   0.675  0.5788  0.8077 -0.2515
 6851TIP3    H241969   3.398   1.756   0.815 -0.0880  0.2746 -0.5090
 6852TIP3   OH241970   3.335   2.896  11.184 -0.1771 -0.0159  0.4611
 6852TIP3    H141971   3.429   2.912  11.181 -0.3947  1.6198  1.2820
 6852TIP3    H241972   3.326   2.808  11.219  1.0379  0.0806  1.0508
 6853TIP3   OH241973   5.971   3.873  10.483 -0.1738  0.0514 -0.3233
 6853TIP3    H141974   6.012   3.876  10.397  0.3176 -0.3004 -0.1062
 6853TIP3    H241975   5.956   3.780  10.500 -1.4585  0.1903 -0.5773
 6854TIP3   OH241976   2.644   4.259   9.954  0.3191  0.1024  0.3907
 6854TIP3    H141977   2.683   4.312   9.885 -1.2465  0.0081 -0.6366
 6854TIP3    H241978   2.683   4.172   9.942  1.8199  0.6441  1.1656
 6855TIP3   OH241979   7.084   7.019   1.199 -0.3783  0.5158 -0.0662
 6855TIP3    H141980   7.152   6.981   1.142  0.1571 -0.5345  1.2240
 6855TIP3    H241981   7.014   6.954   1.197  0.2833 -0.3093  1.6581
 6856TIP3   OH241982   6.018   4.125   2.587  0.4634 -0.1990 -0.8778
 6856TIP3    H141983   5.928   4.118   2.620  0.5565 -1.3393 -0.8407
 6856TIP3    H241984   6.056   4.198   2.637 -1.0041  1.6312 -2.2575
 6857TIP3   OH241985   4.938   4.573   1.777  0.0445 -0.1131  0.0265
 6857TIP3    H141986   4.877   4.552   1.848 -0.1867 -0.7345 -0.3423
 6857TIP3    H241987   4.888   4.553   1.697  0.5380 -0.0800 -0.2914
 6858TIP3   OH241988   6.249   4.994  15.414  0.4687  0.1121  0.4843
 6858TIP3    H141989   6.293   5.066  15.458  1.0207  0.1558 -0.1164
 6858TIP3    H241990   6.162   5.027  15.393 -0.5471 -0.5454  3.2294
 6859TIP3   OH241991   0.711   3.188   2.753 -0.0401 -0.1622  0.4492
 6859TIP3    H141992   0.622   3.161   2.733  0.1400 -0.6157  0.2542
 6859TIP3    H241993   0.701   3.263   2.812 -0.5411 -1.1224  1.6245
 6860TIP3   OH241994   5.569   0.321  10.846 -0.0171  0.3519 -0.0723
 6860TIP3    H141995   5.501   0.377  10.808  0.6165  1.1415 -0.0658
 6860TIP3    H241996   5.590   0.260  10.776 -0.6872  0.1419 -0.0963
 6861TIP3   OH241997   2.384   5.790  11.532  0.5995 -0.3290 -0.0834
 6861TIP3    H141998   2.414   5.699  11.531  0.2934 -0.4303 -1.3455
 6861TIP3    H241999   2.335   5.800  11.450  1.7229  1.3128 -0.6061
 6862TIP3   OH242000   1.124   2.864   4.014  0.2708 -0.9275 -0.4005
 6862TIP3    H142001   1.100   2.937   4.070 -1.0651 -1.6427  0.0230
 6862TIP3    H242002   1.095   2.890   3.926 -0.4031 -1.0143 -0.2122
 6863TIP3   OH242003   2.909   2.462  12.911  0.4592 -0.5628 -0.3430
 6863TIP3    H142004   2.873   2.383  12.870 -1.7990  0.3093 -0.1724
 6863TIP3    H242005   2.914   2.526  12.840 -1.4539  0.2934  0.2218
 6864TIP3   OH242006   3.793   2.461   1.067  0.1916 -0.1843 -0.2527
 6864TIP3    H142007   3.842   2.427   1.142 -0.0666 -2.8009 -1.1642
 6864TIP3    H242008   3.856   2.517   1.020  0.0248  2.5235  2.4086
 6865TIP3   OH242009   3.613   5.884  14.143  0.2414 -0.0470 -0.2235
 6865TIP3    H142010   3.598   5.968  14.186 -2.5481 -0.3630 -0.3891
 6865TIP3    H242011   3.642   5.906  14.055 -0.0448  0.7568 -0.1221
 6866TIP3   OH242012   1.260   5.264   1.380 -0.2105  0.3896  0.2250
 6866TIP3    H142013   1.210   5.252   1.460 -0.1596 -0.1872  0.1768
 6866TIP3    H242014   1.209   5.218   1.313  0.1397  0.2067  0.0825
 6867TIP3   OH242015   0.009   3.886  13.646  0.7826  0.2284 -0.4325
 6867TIP3    H142016   0.013   3.895  13.551 -1.8878 -0.4007 -0.6644
 6867TIP3    H242017   0.042   3.798  13.663 -0.8031 -0.5230 -1.0438
 6868TIP3   OH242018   7.021   0.576  15.368  0.1493 -0.3104 -0.1271
 6868TIP3    H142019   7.030   0.617  15.282  1.8243 -0.6958 -0.1829
 6868TIP3    H242020   7.108   0.585  15.408 -0.8314  0.6881  1.9314
 6869TIP3   OH242021   1.566   0.162   1.195 -0.1682 -0.0127  0.3657
 6869TIP3    H142022   1.578   0.070   1.169  2.9825  0.8613 -1.9194
 6869TIP3    H242023   1.644   0.182   1.246 -0.3255  1.6460 -0.0128
 6870TIP3   OH242024   5.556   3.695  12.407 -0.1926 -0.4368 -0.3604
 6870TIP3    H142025   5.648   3.706  12.382  0.3700 -0.8023  1.3866
 6870TIP3    H242026   5.532   3.777  12.450 -0.3835 -0.6760  0.0003
 6871TIP3   OH242027   6.468   1.751  11.413 -0.1204  0.0538 -0.7889
 6871TIP3    H142028   6.476   1.843  11.439 -0.3928 -0.3066  0.6232
 6871TIP3    H242029   6.500   1.749  11.322 -0.6917  1.6395 -1.0522
 6872TIP3   OH242030   4.069   0.041   1.526  0.4653  0.6257 -0.0483
 6872TIP3    H142031   4.073   0.117   1.469  3.4391  0.4748 -0.1869
 6872TIP3    H242032   4.063  -0.034   1.467 -1.5518  0.6264  0.0694
 6873TIP3   OH242033   4.451   6.250  11.890 -0.1474 -0.3097 -0.6951
 6873TIP3    H142034   4.510   6.289  11.826 -0.5748 -0.2617 -1.0689
 6873TIP3    H242035   4.422   6.168  11.850 -1.2703  0.2459 -1.0555
 6874TIP3   OH242036   4.791   3.817   3.197 -0.0808  0.3173 -0.5790
 6874TIP3    H142037   4.840   3.898   3.188 -0.2487  0.9430  2.9056
 6874TIP3    H242038   4.846   3.751   3.155  1.9415  1.6117 -0.0985
 6875TIP3   OH242039   5.568   5.165   6.449  0.1000  0.0381 -0.4372
 6875TIP3    H142040   5.494   5.204   6.403 -0.3939  0.7728  0.9072
 6875TIP3    H242041   5.616   5.241   6.484  0.0331 -0.4939  0.8571
 6876TIP3   OH242042   5.804   5.323   3.591  0.0387  0.4844  0.0773
 6876TIP3    H142043   5.813   5.358   3.680  1.2805  1.8587 -0.5442
 6876TIP3    H242044   5.850   5.387   3.536 -0.5787 -0.4205 -1.5356
 6877TIP3   OH242045   3.832   3.755  11.730  0.0001  0.1252  0.2248
 6877TIP3    H142046   3.896   3.707  11.678 -0.3785  2.8530 -3.0810
 6877TIP3    H242047   3.748   3.715  11.708  0.0059  0.1651  0.1318
 6878TIP3   OH242048   6.745   0.982   2.828 -0.0267 -0.4973  0.1634
 6878TIP3    H142049   6.835   0.970   2.797  0.3583  1.7035  0.2818
 6878TIP3    H242050   6.748   1.060   2.883 -2.1736  0.2084 -0.5976
 6879TIP3   OH242051   3.473   6.101  13.427  0.1910 -0.2146 -0.2473
 6879TIP3    H142052   3.384   6.111  13.394  1.2382  0.7236 -3.1329
 6879TIP3    H242053   3.488   6.179  13.480 -0.3786  0.1180 -0.5672
 6880TIP3   OH242054   4.249   3.744   2.347 -0.5296  0.1077 -0.7971
 6880TIP3    H142055   4.235   3.839   2.348  1.2613  0.4023 -0.2000
 6880TIP3    H242056   4.335   3.733   2.306  0.4530 -1.0308  1.3791
 6881TIP3   OH242057   3.307   6.464   0.740  0.1185  0.5018  0.1303
 6881TIP3    H142058   3.226   6.469   0.791 -0.1692  0.2733 -0.3009
 6881TIP3    H242059   3.292   6.523   0.666 -0.4859 -1.0907 -1.0810
 6882TIP3   OH242060   6.835   5.395  12.282 -0.6648 -0.5049  0.3321
 6882TIP3    H142061   6.756   5.424  12.236  0.5532 -0.8825 -2.1470
 6882TIP3    H242062   6.888   5.474  12.292  1.2371 -1.0577 -3.5553
 6883TIP3   OH242063   3.982   0.068  13.259  0.0281  0.8506  0.3103
 6883TIP3    H142064   4.057   0.008  13.254  0.5958  1.6506 -1.9886
 6883TIP3    H242065   4.015   0.143  13.308  0.1122  0.3746  0.9938
 6884TIP3   OH242066   0.179   6.252  13.558  0.1868 -0.4585 -0.4925
 6884TIP3    H142067   0.202   6.344  13.548  1.1444 -0.8549 -2.3424
 6884TIP3    H242068   0.084   6.250  13.548  0.2855  0.1982 -1.7507
 6885TIP3   OH242069   3.781   3.025  10.853  0.1317  0.4036 -0.8173
 6885TIP3    H142070   3.741   3.037  10.767 -1.3043 -0.9112 -0.3853
 6885TIP3    H242071   3.731   3.081  10.911 -0.3723 -0.3865 -0.4701
 6886TIP3   OH242072   5.826   3.536  14.961  0.2704 -0.1770 -0.0380
 6886TIP3    H142073   5.827   3.582  14.878 -0.4739 -0.7696 -0.3917
 6886TIP3    H242074   5.854   3.601  15.026 -1.5290  1.0300 -0.3930
 6887TIP3   OH242075   1.496   6.154   5.429  0.0380 -0.2911 -0.0970
 6887TIP3    H142076   1.572   6.172   5.375  0.5637  1.0079  1.0139
 6887TIP3    H242077   1.509   6.065   5.460  0.5401 -0.4682 -0.7837
 6888TIP3   OH242078   1.009   6.532   1.216  0.2368  0.0567 -0.5162
 6888TIP3    H142079   1.043   6.468   1.279 -0.0301  0.8692  0.4861
 6888TIP3    H242080   0.931   6.491   1.179  0.2601 -0.3331 -0.1346
 6889TIP3   OH242081   2.530   6.070   2.500  1.0818  0.7272 -0.3410
 6889TIP3    H142082   2.603   6.106   2.449  0.0857  0.2415 -2.1899
 6889TIP3    H242083   2.496   5.999   2.446 -1.2338  1.4133  0.1197
 6890TIP3   OH242084   2.617   2.069  10.157  0.2653  0.6052  0.4422
 6890TIP3    H142085   2.591   2.111  10.238 -0.9239 -2.6088  1.8930
 6890TIP3    H242086   2.537   2.069  10.103 -0.5119 -1.7974  1.4677
 6891TIP3   OH242087   5.107   4.055   0.292 -0.3173 -0.0435  0.1680
 6891TIP3    H142088   5.100   4.094   0.379  2.4837  1.4547 -0.1637
 6891TIP3    H242089   5.144   4.125   0.238  1.2651 -1.9511 -1.3737
 6892TIP3   OH242090   4.639   3.947  12.719 -0.6017  0.2593 -0.1627
 6892TIP3    H142091   4.547   3.920  12.711 -0.7434 -1.0376  3.7940
 6892TIP3    H242092   4.686   3.887  12.661 -2.1514  1.3742 -2.7981
 6893TIP3   OH242093   5.509   4.481  13.895 -0.1166 -0.0909 -0.2374
 6893TIP3    H142094   5.600   4.509  13.896 -0.2672  0.4304  1.0035
 6893TIP3    H242095   5.509   4.402  13.842  0.7538  0.8343 -1.6741
 6894TIP3   OH242096   1.054   2.636   9.678 -0.3636  0.5741  0.2860
 6894TIP3    H142097   1.141   2.609   9.650 -1.6601 -1.2820 -2.3310
 6894TIP3    H242098   1.022   2.691   9.607 -2.4988 -1.4851 -0.4713
 6895TIP3   OH242099   1.914   6.878   4.433 -0.5824 -0.1174 -0.3458
 6895TIP3    H142100   1.909   6.804   4.493 -0.5371 -0.4439 -0.7390
 6895TIP3    H242101   2.006   6.906   4.437  0.0668 -1.7559 -2.1528
 6896TIP3   OH242102   4.251   3.195  13.624 -0.0643  0.3973 -0.1066
 6896TIP3    H142103   4.209   3.262  13.569  1.4482  3.0472  1.7414
 6896TIP3    H242104   4.324   3.162  13.571 -0.5350  0.5496 -0.8627
 6897TIP3   OH242105   6.888   6.235   2.672 -0.9418  0.1364  0.3331
 6897TIP3    H142106   6.922   6.188   2.597 -0.7065  0.6266  0.1285
 6897TIP3    H242107   6.903   6.327   2.652 -0.4920  0.2550  1.1676
 6898TIP3   OH242108   6.264   6.177  14.372 -0.3268  0.5884  0.5831
 6898TIP3    H142109   6.176   6.141  14.372  0.0385 -0.3512  0.7364
 6898TIP3    H242110   6.268   6.232  14.294 -0.4950 -0.8293 -0.4773
 6899TIP3   OH242111   2.578   5.526  10.654 -0.1010 -0.3208 -0.5034
 6899TIP3    H142112   2.543   5.607  10.617  0.9333  1.0723  1.3922
 6899TIP3    H242113   2.527   5.512  10.733  1.5785  0.1109  0.7168
 6900TIP3   OH242114   3.203   2.911   4.515 -0.0919  0.2235 -0.4120
 6900TIP3    H142115   3.117   2.948   4.532 -0.1571  0.5345 -1.3182
 6900TIP3    H242116   3.219   2.851   4.587 -0.2200  1.6194  0.8096
 6901TIP3   OH242117   1.763   1.601   9.306 -0.8327  0.5359 -0.1302
 6901TIP3    H142118   1.817   1.522   9.309 -2.1783 -0.4973 -1.7774
 6901TIP3    H242119   1.688   1.578   9.251 -1.9833  2.5315  0.4776
 6902TIP3   OH242120   3.936   1.665  12.460 -0.1627 -0.1084 -0.0622
 6902TIP3    H142121   3.856   1.652  12.511 -1.0530  2.4862 -0.6456
 6902TIP3    H242122   4.006   1.637  12.519 -1.4110 -2.5912  0.4182
 6903TIP3   OH242123   1.775   0.689   5.425  0.8433  0.5352 -0.0303
 6903TIP3    H142124   1.852   0.715   5.476  1.2209  0.6291 -0.6286
 6903TIP3    H242125   1.810   0.631   5.357  0.3017  0.1394  0.0290
 6904TIP3   OH242126   3.775   6.168  10.271 -0.2975 -0.3339 -0.4083
 6904TIP3    H142127   3.744   6.080  10.248 -0.2941 -0.2840 -0.6031
 6904TIP3    H242128   3.783   6.213  10.187  0.6571 -0.4687 -0.4055
 6905TIP3   OH242129   0.136   5.961  13.209 -0.0796  0.3179  0.0186
 6905TIP3    H142130   0.189   5.971  13.130 -1.5911 -0.8757 -1.2081
 6905TIP3    H242131   0.074   6.034  13.205 -0.4230  0.0211 -0.1312
 6906TIP3   OH242132   1.527   6.438  11.499  0.2624  0.0027  0.6732
 6906TIP3    H142133   1.513   6.440  11.404 -0.8904 -1.9113  0.7575
 6906TIP3    H242134   1.439   6.433  11.536  0.6774  1.1538  1.8879
 6907TIP3   OH242135   4.847   1.646   0.872  0.1164 -0.2540 -1.0614
 6907TIP3    H142136   4.795   1.636   0.793 -0.9989 -1.7957 -0.1877
 6907TIP3    H242137   4.833   1.565   0.920 -0.0674  1.0389  1.1983
 6908TIP3   OH242138   5.039   2.052  12.248  0.4007 -0.8797  0.2731
 6908TIP3    H142139   5.078   1.965  12.255 -2.3055 -2.1257  1.3486
 6908TIP3    H242140   5.002   2.054  12.160 -1.1253 -1.6345  0.8505
 6909TIP3   OH242141   3.570   2.945  11.070  0.2952 -0.7909 -0.1171
 6909TIP3    H142142   3.555   3.036  11.045 -1.1323 -0.2026  2.5173
 6909TIP3    H242143   3.658   2.945  11.109  1.3771 -1.1511 -2.4143
 6910TIP3   OH242144   7.011   0.880  11.991  0.1254 -0.4207  1.2447
 6910TIP3    H142145   6.964   0.956  11.956 -0.1180  0.8885  4.1065
 6910TIP3    H242146   7.022   0.822  11.916 -2.5442  0.9982 -0.4183
 6911TIP3   OH242147   1.451   4.316   2.703 -0.0376  0.2436 -0.4387
 6911TIP3    H142148   1.461   4.324   2.798 -2.5194 -0.9342 -0.0008
 6911TIP3    H242149   1.357   4.325   2.688  0.2088 -0.3361 -2.7085
 6912TIP3   OH242150   3.354   1.208  13.321 -0.7667 -0.0700 -0.4953
 6912TIP3    H142151   3.294   1.157  13.266 -1.1462  0.8659 -0.9720
 6912TIP3    H242152   3.303   1.285  13.347 -0.5670 -0.4639  1.1323
 6913TIP3   OH242153   6.760   5.603  10.425 -0.5109 -0.0076  0.4091
 6913TIP3    H142154   6.701   5.642  10.491  1.1327  0.1294  1.8659
 6913TIP3    H242155   6.845   5.643  10.443  0.2093 -0.7797 -1.1540
 6914TIP3   OH242156   4.274   0.032  13.734 -0.0376 -0.5898 -0.0018
 6914TIP3    H142157   4.244   0.041  13.825  0.0098 -1.3254  0.0941
 6914TIP3    H242158   4.361  -0.007  13.742 -0.4347 -1.5736 -0.3881
 6915TIP3   OH242159   6.255   5.617   3.400  0.0604  0.0438  1.1821
 6915TIP3    H142160   6.250   5.705   3.363  0.8760  1.4180  4.0763
 6915TIP3    H242161   6.343   5.611   3.437 -0.1122 -1.8641  1.4000
 6916TIP3   OH242162   6.510   2.856   5.283  0.1936 -0.5892 -0.3820
 6916TIP3    H142163   6.524   2.831   5.374 -0.6158  0.5997  0.0978
 6916TIP3    H242164   6.593   2.836   5.239  0.8343 -0.5314  0.7611
 6917TIP3   OH242165   4.085   3.794  13.990  0.1185 -0.7534 -0.2804
 6917TIP3    H142166   4.154   3.856  13.965 -0.6150 -0.8180 -2.6356
 6917TIP3    H242167   4.132   3.712  14.004  0.5774 -0.7754 -1.7513
 6918TIP3   OH242168   1.277   4.412   3.405 -0.4045 -0.1903  0.0798
 6918TIP3    H142169   1.197   4.376   3.368 -1.8838  1.7280  1.2572
 6918TIP3    H242170   1.322   4.453   3.331 -2.2729  1.7582 -0.0663
 6919TIP3   OH242171   3.705   1.707  13.549  0.1174  0.5116 -0.1803
 6919TIP3    H142172   3.693   1.728  13.642 -1.0317  0.4332 -0.2957
 6919TIP3    H242173   3.798   1.723  13.533  0.7132 -1.0901  1.3787
 6920TIP3   OH242174   5.559   5.843  12.315 -0.5955 -0.0559 -0.3297
 6920TIP3    H142175   5.599   5.798  12.390 -0.7174 -1.3090 -1.0032
 6920TIP3    H242176   5.464   5.837  12.332 -0.6008  1.7193  0.5690
 6921TIP3   OH242177   3.081   5.895  13.614 -0.2365  0.2252 -0.2877
 6921TIP3    H142178   3.141   5.944  13.558  0.8938  1.3776  1.7918
 6921TIP3    H242179   3.085   5.805  13.583  0.8743  0.7037 -1.5784
 6922TIP3   OH242180   6.151   0.090   0.736  0.7986  0.5941 -0.3756
 6922TIP3    H142181   6.219   0.113   0.800  0.1522  0.8187  0.2413
 6922TIP3    H242182   6.199   0.080   0.654  1.6346  0.4059  0.1151
 6923TIP3   OH242183   6.975   1.540   2.293  0.3260 -0.1122 -0.3823
 6923TIP3    H142184   6.910   1.579   2.351 -1.2007 -1.4465 -1.1173
 6923TIP3    H242185   7.009   1.613   2.242  0.0313  0.7265  0.5895
 6924TIP3   OH242186   5.940   0.770  10.560 -0.4588 -0.0159  0.2163
 6924TIP3    H142187   6.023   0.723  10.553 -0.2247  0.1308  1.6409
 6924TIP3    H242188   5.876   0.714  10.516  0.4932  0.2262 -1.5959
 6925TIP3   OH242189   6.102   1.596   0.429  0.0508 -0.1727 -0.1380
 6925TIP3    H142190   6.076   1.506   0.446  3.5178 -1.3290 -0.4085
 6925TIP3    H242191   6.083   1.642   0.511  0.4866 -1.7124  0.8656
 6926TIP3   OH242192   4.897   3.745  10.690 -0.4412  0.0214 -0.6039
 6926TIP3    H142193   4.961   3.677  10.712 -0.0590  0.0577 -1.5547
 6926TIP3    H242194   4.821   3.724  10.743  1.0860  1.3002  2.3831
 6927TIP3   OH242195   6.667   5.392   5.631  0.0797 -0.3859  0.3980
 6927TIP3    H142196   6.689   5.428   5.717 -1.2110 -0.9690  1.0030
 6927TIP3    H242197   6.736   5.424   5.573  0.5157  0.7152  1.4774
 6928TIP3   OH242198   0.688   3.707  14.329 -0.9368 -0.2564  0.6304
 6928TIP3    H142199   0.695   3.787  14.276  0.5606 -2.0717 -2.1396
 6928TIP3    H242200   0.598   3.678  14.316 -1.1053  0.2632  0.5868
 6929TIP3   OH242201   5.350   3.434  10.335 -0.6177  0.7562 -0.0392
 6929TIP3    H142202   5.423   3.494  10.347 -1.6792  1.7980  1.5519
 6929TIP3    H242203   5.348   3.381  10.415  0.4676 -1.6879 -1.5156
 6930TIP3   OH242204   6.879   2.156   9.863 -0.1342  0.3516  0.0804
 6930TIP3    H142205   6.891   2.062   9.880  1.6084  0.3506 -0.8902
 6930TIP3    H242206   6.900   2.166   9.770 -0.8065  1.6378  0.0467
 6931TIP3   OH242207   2.746   5.806   0.611  0.1141 -0.3648  0.0583
 6931TIP3    H142208   2.749   5.888   0.562 -1.4864 -2.2624 -3.6125
 6931TIP3    H242209   2.657   5.801   0.644  0.7801  0.2115  2.0763
 6932TIP3   OH242210   6.029   1.864  12.975  0.3429 -0.5769 -0.0876
 6932TIP3    H142211   5.976   1.905  12.907 -0.5715 -0.3131  0.7546
 6932TIP3    H242212   6.113   1.908  12.971  0.1847 -0.3357 -0.8182
 6933TIP3   OH242213   2.003   2.630  14.509  0.4902  0.0745  0.0642
 6933TIP3    H142214   2.064   2.698  14.536 -0.7899  0.7591  1.3921
 6933TIP3    H242215   1.933   2.634  14.574  0.4238 -2.6099  0.2812
 6934TIP3   OH242216   6.141   1.422  11.894 -0.2112  0.0101  0.0367
 6934TIP3    H142217   6.144   1.326  11.894  1.4160  0.0380  0.0129
 6934TIP3    H242218   6.081   1.444  11.965  1.7945 -1.0110  2.1808
 6935TIP3   OH242219   1.551   5.941   3.212  0.1919  0.4776 -0.3368
 6935TIP3    H142220   1.599   5.880   3.156  0.5868  0.5804 -0.1128
 6935TIP3    H242221   1.608   5.955   3.287  0.1628  1.2220 -0.4440
 6936TIP3   OH242222   6.230   5.209   9.550  0.2049  0.0364 -0.1027
 6936TIP3    H142223   6.281   5.231   9.628 -1.3537  0.3601  0.8714
 6936TIP3    H242224   6.249   5.280   9.489 -0.9301  1.5197  1.1738
 6937TIP3   OH242225   4.749   3.867  14.615 -0.6413 -0.5584 -0.2479
 6937TIP3    H142226   4.837   3.851  14.581 -0.2148  2.3080 -0.7223
 6937TIP3    H242227   4.759   3.871  14.710  0.3544  2.4329 -0.3940
 6938TIP3   OH242228   0.819   3.619  13.071 -0.1716 -0.2056  0.1104
 6938TIP3    H142229   0.898   3.565  13.073  0.4755  0.4691 -2.4860
 6938TIP3    H242230   0.846   3.702  13.111  0.3290 -0.1205 -0.3888
 6939TIP3   OH242231   2.348   1.724  14.852  0.0068 -0.2782 -0.1644
 6939TIP3    H142232   2.336   1.637  14.813 -0.1706 -0.4963  0.3688
 6939TIP3    H242233   2.422   1.713  14.913 -0.2950 -0.1633  0.2262
 6940TIP3   OH242234   5.331   4.665   5.296 -0.2545 -0.1710  0.3476
 6940TIP3    H142235   5.250   4.714   5.304  0.1672  0.4904  0.6385
 6940TIP3    H242236   5.305   4.574   5.310 -1.2484 -0.2033 -1.4684
 6941TIP3   OH242237   6.146   6.417   0.394 -0.3448 -0.2150 -0.3796
 6941TIP3    H142238   6.103   6.356   0.333  0.3367  0.1821 -1.2867
 6941TIP3    H242239   6.238   6.415   0.369  0.0845 -0.6305  1.1843
 6942TIP3   OH242240   2.410   5.200   0.974 -0.2510  0.2493  0.0735
 6942TIP3    H142241   2.426   5.119   0.925  2.3981  1.1000 -0.6623
 6942TIP3    H242242   2.394   5.172   1.064  2.0755 -1.1088  0.1444
 6943TIP3   OH242243   1.850   1.392   3.780 -0.1214 -0.2855 -0.4300
 6943TIP3    H142244   1.816   1.309   3.746 -1.2220 -0.0518  0.0738
 6943TIP3    H242245   1.927   1.367   3.832 -0.7673 -1.0563  0.1712
 6944TIP3   OH242246   0.153   7.109   1.666  0.1557 -0.7660  0.6630
 6944TIP3    H142247   0.160   7.083   1.575 -0.0573  1.2882  0.0206
 6944TIP3    H242248   0.103   7.191   1.665  0.6524 -0.3742  2.5660
 6945TIP3   OH242249   4.809   2.655  10.023 -0.1116 -0.0321  0.5315
 6945TIP3    H142250   4.730   2.685   9.978  0.5666  1.1244  0.0654
 6945TIP3    H242251   4.784   2.572  10.064 -1.0367 -0.6294 -1.1551
 6946TIP3   OH242252   0.079   4.859   1.388  0.0490 -0.4201 -0.5924
 6946TIP3    H142253   0.102   4.848   1.296  0.8628 -0.8602 -0.3539
 6946TIP3    H242254   0.034   4.778   1.411 -1.2592  0.2031 -0.9110
 6947TIP3   OH242255   1.837   2.616   1.899  0.3455  0.7230 -0.3415
 6947TIP3    H142256   1.807   2.562   1.826  0.2811  0.1977  0.0743
 6947TIP3    H242257   1.931   2.625   1.885  0.2478  1.1050 -0.8016
 6948TIP3   OH242258   4.000   2.866  15.418 -0.5188 -0.2380  0.1688
 6948TIP3    H142259   4.003   2.771  15.409  0.0573 -0.2143  0.0530
 6948TIP3    H242260   4.091   2.894  15.408 -0.7733  0.3879 -0.4805
 6949TIP3   OH242261   6.065   2.374  11.469  0.0315  0.0005  0.2162
 6949TIP3    H142262   5.993   2.330  11.514 -1.6037  2.2892 -0.0137
 6949TIP3    H242263   6.069   2.461  11.507  2.8274 -0.0662  0.3023
 6950TIP3   OH242264   0.397   6.104   2.721  0.4196  0.3854  0.2102
 6950TIP3    H142265   0.463   6.075   2.658 -0.8601 -0.6725 -0.7014
 6950TIP3    H242266   0.320   6.123   2.668  0.2745  2.6811  1.1176
 6951TIP3   OH242267   3.085   4.794   2.499  0.2469 -0.5246  0.2203
 6951TIP3    H142268   3.135   4.731   2.447 -0.0336 -0.7421  0.2076
 6951TIP3    H242269   3.150   4.845   2.545  0.5234  0.0047 -0.7351
 6952TIP3   OH242270   6.267   2.090  13.741  0.3038 -0.1676 -0.1190
 6952TIP3    H142271   6.200   2.074  13.674 -0.0865 -1.7474  0.5768
 6952TIP3    H242272   6.278   2.185  13.743 -2.8465  0.3190  0.5569
 6953TIP3   OH242273   2.898   2.100  12.954  0.1820  0.0426  0.3675
 6953TIP3    H142274   2.830   2.098  13.022 -2.2162  0.9676 -1.8666
 6953TIP3    H242275   2.868   2.166  12.891  1.6882 -1.5464 -2.1884
 6954TIP3   OH242276   1.846   1.341   5.751 -0.4275  0.5552  0.4131
 6954TIP3    H142277   1.805   1.381   5.828  0.2600  1.3860  0.3616
 6954TIP3    H242278   1.790   1.367   5.678  0.3599  1.9898  0.2944
 6955TIP3   OH242279   3.481   3.076  14.469 -0.4981  0.5694 -0.0204
 6955TIP3    H142280   3.502   2.983  14.470 -0.9878  0.2397 -4.2285
 6955TIP3    H242281   3.385   3.079  14.472 -0.5593  0.7808 -1.5210
 6956TIP3   OH242282   4.330   1.975  12.995 -0.0928  0.3369 -0.0371
 6956TIP3    H142283   4.394   1.907  13.017  0.6082  0.9563 -0.0938
 6956TIP3    H242284   4.284   1.992  13.077 -0.1303 -0.0635  0.0262
 6957TIP3   OH242285   2.740   5.283  10.680 -0.2130  0.3315  0.4152
 6957TIP3    H142286   2.724   5.237  10.763 -0.1954  0.3853  0.4482
 6957TIP3    H242287   2.680   5.357  10.681  1.1840  1.5006  1.3018
 6958TIP3   OH242288   6.193   0.204  14.688 -0.1344 -0.3765  0.1369
 6958TIP3    H142289   6.214   0.139  14.621  1.2923  0.6680 -0.4637
 6958TIP3    H242290   6.142   0.155  14.753  2.0902 -2.4669  0.4311
 6959TIP3   OH242291   6.443   2.189  10.852  0.0684  0.3658  0.0898
 6959TIP3    H142292   6.483   2.252  10.912 -1.5561  1.4794  0.0874
 6959TIP3    H242293   6.402   2.244  10.784 -1.9327 -0.6369  0.4181
 6960TIP3   OH242294   0.982   4.861  10.273  0.0051 -0.2708 -0.0017
 6960TIP3    H142295   0.960   4.786  10.328 -0.4929 -1.2252 -1.4381
 6960TIP3    H242296   0.904   4.917  10.277  0.9955  1.0585  2.3938
 6961TIP3   OH242297   1.359   1.200  11.009  0.4643  0.5485  0.0471
 6961TIP3    H142298   1.342   1.207  10.915 -1.8529 -0.6240  0.3060
 6961TIP3    H242299   1.313   1.274  11.048  1.1719  0.8669  0.2896
 6962TIP3   OH242300   4.073   2.416   0.378 -0.2121  0.0273 -0.6651
 6962TIP3    H142301   4.155   2.413   0.328  0.7364  0.1839  0.8271
 6962TIP3    H242302   4.101   2.409   0.469 -1.9761 -1.2762 -0.1921
 6963TIP3   OH242303   1.735   0.189  10.895  0.4323 -0.5859  0.5058
 6963TIP3    H142304   1.784   0.111  10.920 -0.5419 -2.4903 -2.9468
 6963TIP3    H242305   1.779   0.222  10.817 -1.1183  0.3301 -0.0427
 6964TIP3   OH242306   2.055   4.700   0.272  0.1287 -0.5589 -0.3006
 6964TIP3    H142307   2.041   4.608   0.293  1.7868 -0.6575  0.4853
 6964TIP3    H242308   2.150   4.709   0.262 -0.0809  0.8553 -1.4132
 6965TIP3   OH242309   1.617   6.711   4.898  0.6407 -0.0872  0.4038
 6965TIP3    H142310   1.630   6.682   4.988 -0.4920 -0.5327  0.4386
 6965TIP3    H242311   1.532   6.675   4.873  0.1955  1.4006 -0.3042
 6966TIP3   OH242312   2.472   6.853   2.227 -0.1045  0.2034  0.0955
 6966TIP3    H142313   2.397   6.798   2.251 -0.5083  0.7688  0.1585
 6966TIP3    H242314   2.479   6.844   2.132  0.4572 -0.7317  0.2132
 6967TIP3   OH242315   3.200   1.385  14.039  0.1215  0.2340  0.5269
 6967TIP3    H142316   3.179   1.322  13.970 -2.0158  1.1636  0.2491
 6967TIP3    H242317   3.290   1.413  14.020  0.2809 -1.0199 -0.6693
 6968TIP3   OH242318   1.312   6.054   2.061  0.3351 -0.1037  0.6967
 6968TIP3    H142319   1.258   6.110   2.117 -0.9409 -1.7916  1.2349
 6968TIP3    H242320   1.364   6.115   2.009 -2.8926  1.7059 -0.7092
 6969TIP3   OH242321   0.289   6.329   0.058  0.0011  0.1314 -0.1750
 6969TIP3    H142322   0.249   6.247   0.029 -0.9735  0.7097 -0.5379
 6969TIP3    H242323   0.360   6.345  -0.004  2.4899 -2.1357  1.8615
 6970TIP3   OH242324   5.653   1.951   3.880  0.7282  0.7282  0.1164
 6970TIP3    H142325   5.724   1.913   3.931 -0.7876 -1.1950  0.9475
 6970TIP3    H242326   5.586   1.971   3.945 -1.0217 -1.2117 -0.9576
 6971TIP3   OH242327   5.640   5.059  13.384 -0.1593  0.5598  0.6841
 6971TIP3    H142328   5.658   4.970  13.356 -1.0151  0.5131  0.2349
 6971TIP3    H242329   5.551   5.076  13.353 -0.5233  1.0874  1.9385
 6972TIP3   OH242330   3.266   0.754  14.402 -0.0219 -0.0667  0.2331
 6972TIP3    H142331   3.213   0.805  14.340 -0.2159 -1.9780 -1.2751
 6972TIP3    H242332   3.202   0.713  14.460 -0.0341 -0.2648  0.0841
 6973TIP3   OH242333   0.441   3.324   0.344  0.0429  0.2451  0.2042
 6973TIP3    H142334   0.452   3.419   0.338  0.0611  0.2232 -0.1250
 6973TIP3    H242335   0.444   3.293   0.254 -3.8596  0.3808 -0.1562
 6974TIP3   OH242336   6.689   6.885   0.841 -0.4690  0.5239 -0.0657
 6974TIP3    H142337   6.616   6.824   0.845 -0.1734  0.0355 -1.5274
 6974TIP3    H242338   6.656   6.959   0.789  0.9721 -1.1488 -3.6745
 6975TIP3   OH242339   4.002   5.507   4.175 -0.2937  0.1610 -0.0370
 6975TIP3    H142340   3.971   5.553   4.253  1.1579  0.5934  0.3244
 6975TIP3    H242341   4.000   5.573   4.106  0.2059  0.3214  0.0934
 6976TIP3   OH242342   7.017   1.327   4.787  0.0482 -0.0315 -0.0594
 6976TIP3    H142343   6.946   1.332   4.852 -0.2313  1.4963 -0.4383
 6976TIP3    H242344   7.009   1.240   4.750 -1.9832  0.2593 -0.4450
 6977TIP3   OH242345   2.536   6.506   0.591 -0.3389  0.4572 -0.0419
 6977TIP3    H142346   2.559   6.561   0.666  0.0336  1.2638 -0.7295
 6977TIP3    H242347   2.446   6.478   0.608  0.0321 -0.0798  1.1152
 6978TIP3   OH242348   6.559   5.888  10.649  0.1136 -0.2030  0.0413
 6978TIP3    H142349   6.541   5.962  10.708 -1.5472 -2.0179  2.0198
 6978TIP3    H242350   6.644   5.908  10.611  1.2459  1.2557  2.9597
 6979TIP3   OH242351   6.373   6.051  14.736  0.7233 -0.4953 -0.8241
 6979TIP3    H142352   6.373   6.131  14.684  2.2032 -0.6454 -1.1026
 6979TIP3    H242353   6.315   6.070  14.810 -0.6173  0.0708 -1.9754
 6980TIP3   OH242354   0.847   2.148  14.769 -0.3939 -0.0240 -0.8021
 6980TIP3    H142355   0.857   2.171  14.677  0.9811  2.2192 -0.1776
 6980TIP3    H242356   0.926   2.099  14.791  1.3411  2.8546  0.0135
 6981TIP3   OH242357   2.755   5.429   3.905 -0.0883  0.5830 -0.2387
 6981TIP3    H142358   2.800   5.500   3.951  0.6033 -0.1418  0.2199
 6981TIP3    H242359   2.788   5.434   3.815  0.3317  0.5308 -0.0872
 6982TIP3   OH242360   2.056   5.177  12.363 -0.1497 -0.0821 -0.3695
 6982TIP3    H142361   2.135   5.152  12.315  0.1874  1.2425 -0.5488
 6982TIP3    H242362   2.004   5.097  12.366  0.5032 -0.5889 -1.6032
 6983TIP3   OH242363   0.960   6.802   1.163 -0.4798  0.1358  0.1606
 6983TIP3    H142364   0.872   6.830   1.186 -0.1970  0.4694  0.8708
 6983TIP3    H242365   0.967   6.713   1.199 -0.3330  0.3287  0.6121
 6984TIP3   OH242366   5.506   7.088   9.571 -0.6325  0.1896 -0.4665
 6984TIP3    H142367   5.455   7.053   9.498 -1.0664  1.4961 -0.8340
 6984TIP3    H242368   5.582   7.130   9.529 -0.8012  0.8100 -0.1703
 6985TIP3   OH242369   6.273   3.334   5.060  0.1529 -0.1156  0.4491
 6985TIP3    H142370   6.365   3.361   5.063 -0.2099  1.5185 -1.4337
 6985TIP3    H242371   6.227   3.399   5.113 -0.1243  0.0658 -0.0145
 6986TIP3   OH242372   2.222   4.114   0.840  0.1347 -0.3737 -0.1919
 6986TIP3    H142373   2.282   4.144   0.908  0.6665 -3.7029  1.0139
 6986TIP3    H242374   2.254   4.156   0.760  1.0754  1.6679  1.1695
 6987TIP3   OH242375   4.593   5.332  13.426 -0.1029 -0.2876 -0.4334
 6987TIP3    H142376   4.580   5.314  13.333 -0.3113 -0.4838 -0.3656
 6987TIP3    H242377   4.505   5.342  13.461 -0.2406 -3.4726  0.4028
 6988TIP3   OH242378   2.253   5.836  12.872 -0.3954  0.5100  0.3113
 6988TIP3    H142379   2.237   5.788  12.953 -1.8834 -2.2015 -1.4584
 6988TIP3    H242380   2.168   5.873  12.847 -0.7272 -1.2639 -1.4708
 6989TIP3   OH242381   4.514   3.483   3.971  0.1352 -0.3006 -0.2129
 6989TIP3    H142382   4.599   3.484   3.926  0.8040 -1.0430  0.9954
 6989TIP3    H242383   4.455   3.441   3.909 -0.2493  3.2446 -2.5279
 6990TIP3   OH242384   2.054   6.979   2.228 -0.0313  0.8815 -0.2897
 6990TIP3    H142385   1.975   6.926   2.222  0.4305  0.2872 -1.4336
 6990TIP3    H242386   2.026   7.060   2.270 -0.8723 -0.0214  0.9482
 6991TIP3   OH242387   3.878   6.608  14.066 -0.2391 -0.0669  0.1127
 6991TIP3    H142388   3.900   6.587  14.157 -0.1190 -0.7886 -0.0772
 6991TIP3    H242389   3.810   6.545  14.042 -0.2270  0.0811 -0.3224
 6992TIP3   OH242390   4.288   6.764   3.538 -0.9802  0.2416 -0.2213
 6992TIP3    H142391   4.362   6.712   3.508 -1.0607 -0.3848  0.6122
 6992TIP3    H242392   4.221   6.751   3.471 -0.6392  0.1009 -0.5361
 6993TIP3   OH242393   6.131   0.953  12.025 -0.0961 -0.1237  0.0106
 6993TIP3    H142394   6.177   0.899  12.090 -1.5681 -1.5741 -0.0746
 6993TIP3    H242395   6.073   0.891  11.979  1.2795  0.6881 -3.1138
 6994TIP3   OH242396   4.813   6.924  10.380  0.6348  0.1742 -0.0432
 6994TIP3    H142397   4.796   7.018  10.378 -0.1555  0.0613  0.6947
 6994TIP3    H242398   4.786   6.897  10.467  2.8903 -0.3815  0.5486
 6995TIP3   OH242399   2.644   1.042  12.678 -0.1014 -0.9299 -0.3055
 6995TIP3    H142400   2.553   1.041  12.708 -0.4614  1.1027 -1.1481
 6995TIP3    H242401   2.654   0.961  12.628 -2.2939 -0.0019 -2.4349
 6996TIP3   OH242402   6.296   5.871   2.590 -0.1196 -0.0297 -0.0387
 6996TIP3    H142403   6.326   5.848   2.679 -1.9003  0.7549  0.8065
 6996TIP3    H242404   6.286   5.966   2.592  0.4077  0.0672 -1.2977
 6997TIP3   OH242405   3.492   3.465   2.027 -0.4188  0.5072 -0.2906
 6997TIP3    H142406   3.547   3.386   2.029 -0.9048  0.1382 -1.0275
 6997TIP3    H242407   3.549   3.532   1.990  0.1478  0.6407  0.7756
 6998TIP3   OH242408   5.526   3.569   5.307 -0.3665 -1.1329 -0.6596
 6998TIP3    H142409   5.613   3.545   5.274 -0.1052 -0.2317 -0.6680
 6998TIP3    H242410   5.476   3.592   5.228  0.0319  0.3045 -0.5376
 6999TIP3   OH242411   2.255   3.314   1.141 -0.0610 -0.1552  0.7735
 6999TIP3    H142412   2.214   3.291   1.224  0.9926  0.4837  1.4899
 6999TIP3    H242413   2.288   3.231   1.107 -0.9983 -0.5075  0.6993
 7000TIP3   OH242414   6.163   0.177   2.536  0.3260 -0.0115 -0.0414
 7000TIP3    H142415   6.246   0.208   2.573  0.2873  0.4861 -0.3741
 7000TIP3    H242416   6.144   0.237   2.464 -0.9247  0.5880  0.7524
 7001TIP3   OH242417   5.293   4.271  11.676 -0.3308  0.1943 -0.3088
 7001TIP3    H142418   5.245   4.245  11.598  1.9928  1.0299 -2.1618
 7001TIP3    H242419   5.256   4.356  11.699 -1.9181 -0.6405  0.3484
 7002TIP3   OH242420   1.734   4.077   0.068  0.0281 -0.4760  0.3221
 7002TIP3    H142421   1.734   4.001   0.126  0.0839 -0.7185  0.0052
 7002TIP3    H242422   1.826   4.104   0.064 -0.1150  0.1833  1.1790
 7003TIP3   OH242423   0.473   4.564  14.025 -0.1400 -0.0483  0.0136
 7003TIP3    H142424   0.514   4.491  14.071 -3.1423 -1.8840  0.0802
 7003TIP3    H242425   0.384   4.533  14.007 -1.1350  3.1326 -1.1647
 7004TIP3   OH242426   5.967   2.195  11.243  0.3298  0.4885 -0.0232
 7004TIP3    H142427   5.999   2.281  11.270  1.4032  0.6148 -1.5890
 7004TIP3    H242428   5.891   2.213  11.188  2.1485  0.7072 -2.6822
 7005TIP3   OH242429   2.855   4.422  10.438  0.0681 -0.1736  0.1571
 7005TIP3    H142430   2.877   4.387  10.524 -0.3243 -0.4717  0.1395
 7005TIP3    H242431   2.799   4.354  10.398 -1.0045  0.6180  0.2588
 7006TIP3   OH242432   2.492   3.730  11.094  0.3859 -0.4763 -0.4546
 7006TIP3    H142433   2.497   3.797  11.026  0.3794 -1.3924 -1.3842
 7006TIP3    H242434   2.429   3.667  11.060 -1.0308 -0.0575  1.2312
 7007TIP3   OH242435   0.314   1.145  12.179 -0.1863  0.2264  0.1867
 7007TIP3    H142436   0.346   1.109  12.261 -2.0225  0.6382  1.1527
 7007TIP3    H242437   0.238   1.091  12.158  0.0889  0.3184 -1.0946
 7008TIP3   OH242438   5.955   6.672   4.985  0.3109  0.8120 -0.0398
 7008TIP3    H142439   6.006   6.692   4.906 -0.9235  1.4327 -0.6960
 7008TIP3    H242440   5.910   6.590   4.964  0.2895  0.7646  0.1860
 7009TIP3   OH242441   6.245   0.261   3.132  0.1551  0.2651  0.3091
 7009TIP3    H142442   6.235   0.269   3.037 -1.0882 -0.9520  0.2963
 7009TIP3    H242443   6.158   0.280   3.167  0.5785  0.6129  1.2125
 7010TIP3   OH242444   1.424   3.310  13.397 -0.3460 -0.2519 -0.3735
 7010TIP3    H142445   1.410   3.233  13.342 -2.9345 -0.4695  0.4699
 7010TIP3    H242446   1.385   3.382  13.348 -2.2218 -0.3606  0.8325
 7011TIP3   OH242447   2.329   4.599   1.725 -0.0667 -0.1125  0.4279
 7011TIP3    H142448   2.350   4.600   1.632  2.0851  1.6857  0.8325
 7011TIP3    H242449   2.266   4.670   1.736 -1.2960 -1.1372  0.2002
 7012TIP3   OH242450   1.372   0.853  12.740 -0.6578 -0.0361 -0.1643
 7012TIP3    H142451   1.333   0.930  12.782 -2.3509 -0.8890 -0.1047
 7012TIP3    H242452   1.300   0.812  12.692  0.7272 -0.3290 -2.1249
 7013TIP3   OH242453   6.512   0.760  10.840 -0.1029 -0.6474 -0.0747
 7013TIP3    H142454   6.419   0.762  10.865 -0.0344 -1.7813  0.3203
 7013TIP3    H242455   6.512   0.786  10.748 -0.6495  0.8197  0.3213
 7014TIP3   OH242456   3.623   6.951  13.544  0.1868  0.0099 -0.5818
 7014TIP3    H142457   3.673   6.875  13.575 -0.7552 -0.9527 -1.3205
 7014TIP3    H242458   3.664   6.974  13.461  1.7885  1.6713  0.5927
 7015TIP3   OH242459   6.262   3.843   3.056 -0.1018 -0.0843  0.0788
 7015TIP3    H142460   6.190   3.779   3.055 -1.3856  1.3155 -0.0358
 7015TIP3    H242461   6.335   3.797   3.014 -0.3740 -2.1146  1.6251
 7016TIP3   OH242462   0.698   3.923   1.287 -0.8062 -0.6587  0.3099
 7016TIP3    H142463   0.624   3.884   1.240  0.6105 -0.2011 -2.4535
 7016TIP3    H242464   0.762   3.852   1.294 -0.8085 -0.5884  1.2089
 7017TIP3   OH242465   3.194   1.587  11.195  0.1995  0.1752 -0.5681
 7017TIP3    H142466   3.129   1.629  11.138 -0.5669  0.2528  0.3366
 7017TIP3    H242467   3.142   1.528  11.250  0.8680  0.3898  0.3079
 7018TIP3   OH242468   3.307   2.340  12.330  0.0744 -0.2428  0.4827
 7018TIP3    H142469   3.244   2.325  12.259  1.1078  0.5629 -0.6364
 7018TIP3    H242470   3.260   2.314  12.409 -1.4026 -0.3663 -0.3987
 7019TIP3   OH242471   4.934   4.053   3.257 -0.0349 -0.2239  0.0473
 7019TIP3    H142472   4.972   3.993   3.321  0.2272 -1.3612 -1.1334
 7019TIP3    H242473   4.995   4.126   3.253  0.5005 -0.6523  0.3038
 7020TIP3   OH242474   1.282   1.413  11.181 -0.2005 -0.1857 -0.6393
 7020TIP3    H142475   1.327   1.482  11.133  0.9109 -1.6191 -1.7676
 7020TIP3    H242476   1.332   1.403  11.262 -0.2896  0.2294 -0.5318
 7021TIP3   OH242477   0.516   6.893  12.512 -0.5469 -0.8170  0.2452
 7021TIP3    H142478   0.544   6.855  12.428  2.6966  0.3673  0.6613
 7021TIP3    H242479   0.499   6.817  12.567 -0.6253 -1.6105 -0.8247
 7022TIP3   OH242480   2.355   2.982  11.469  0.6481  0.0225  0.6996
 7022TIP3    H142481   2.274   2.955  11.427  1.1969 -0.0717 -0.3336
 7022TIP3    H242482   2.392   2.901  11.504 -0.0266  0.1650  1.7804
 7023TIP3   OH242483   0.639   3.777  10.170  0.9493 -0.2748  0.3558
 7023TIP3    H142484   0.558   3.730  10.191  0.0503  1.2715  0.4750
 7023TIP3    H242485   0.705   3.708  10.160 -0.4115 -1.5748  0.0984
 7024TIP3   OH242486   6.028   3.357  12.099  0.4278  0.3598  0.3429
 7024TIP3    H142487   6.104   3.354  12.041  0.9172  1.3501  0.9110
 7024TIP3    H242488   5.953   3.338  12.041  1.0852 -0.5644 -0.2280
 7025TIP3   OH242489   6.032   1.678  13.657 -0.3153  0.3573 -0.6275
 7025TIP3    H142490   5.998   1.602  13.703  0.5651 -0.2816 -1.0095
 7025TIP3    H242491   6.036   1.747  13.723  0.1589 -0.3106  0.0456
 7026TIP3   OH242492   1.194   0.505   2.913  0.1221  0.0610  0.3047
 7026TIP3    H142493   1.223   0.462   2.993  1.6958 -2.7470 -1.5790
 7026TIP3    H242494   1.111   0.462   2.891 -1.1796  1.9909  1.1954
 7027TIP3   OH242495   5.729   4.649  10.118  0.1919 -0.2857 -0.5885
 7027TIP3    H142496   5.819   4.671  10.092  0.0118  1.3864  0.0836
 7027TIP3    H242497   5.675   4.713  10.072 -0.4701  0.0301  0.5878
 7028TIP3   OH242498   4.606   3.192   3.354 -0.0130 -0.3390  0.0486
 7028TIP3    H142499   4.647   3.267   3.397  1.1870 -1.3771  0.7748
 7028TIP3    H242500   4.578   3.135   3.426 -1.3652 -0.3829 -0.4782
 7029TIP3   OH242501   3.481   0.936   2.761  0.0766  0.2273 -0.8091
 7029TIP3    H142502   3.556   0.887   2.793 -0.0177  0.4846 -0.1951
 7029TIP3    H242503   3.468   1.006   2.824 -2.2293 -1.2790  0.5812
 7030TIP3   OH242504   1.611   3.123  10.861 -0.0890  0.1310  0.2308
 7030TIP3    H142505   1.652   3.064  10.924 -0.9478  1.2721  1.9372
 7030TIP3    H242506   1.526   3.084  10.843  0.1643 -0.2055 -0.2654
 7031TIP3   OH242507   2.945   6.436  10.957  0.8319  0.2903  0.2567
 7031TIP3    H142508   3.015   6.371  10.967  2.9962  2.2657 -0.9173
 7031TIP3    H242509   2.915   6.453  11.046  2.7943  0.3276  0.9608
 7032TIP3   OH242510   3.541   5.137  10.363 -0.5133 -0.8321 -0.5913
 7032TIP3    H142511   3.578   5.062  10.316 -1.7267 -1.7808 -0.0793
 7032TIP3    H242512   3.555   5.211  10.304  1.4812 -1.2567 -0.7522
 7033TIP3   OH242513   5.047   5.256  11.223 -0.0134 -0.2154 -0.4863
 7033TIP3    H142514   4.987   5.206  11.279 -0.7345  0.5850 -0.5149
 7033TIP3    H242515   5.133   5.220  11.242 -0.3814 -0.7148  0.3165
 7034TIP3   OH242516   4.350   4.395  11.797  0.6594  0.5554  0.0001
 7034TIP3    H142517   4.266   4.372  11.755 -0.1709  2.7133  0.3594
 7034TIP3    H242518   4.414   4.387  11.726  0.1128 -0.7781 -0.3787
 7035TIP3   OH242519   1.591   2.762  14.680  0.4306  0.0377  0.1318
 7035TIP3    H142520   1.652   2.835  14.670  0.0237  0.2706 -0.6793
 7035TIP3    H242521   1.647   2.684  14.682  0.9945  0.4089  2.3202
 7036TIP3   OH242522   3.899   5.543  12.991 -0.7982 -0.1007 -0.0763
 7036TIP3    H142523   3.955   5.465  12.996  2.0346  1.8045  0.5286
 7036TIP3    H242524   3.846   5.540  13.071  1.3769 -0.0390  1.4761
 7037TIP3   OH242525   4.729   4.610   4.722  0.2924 -0.0945  0.4682
 7037TIP3    H142526   4.687   4.679   4.773 -0.3747 -0.8098  0.9164
 7037TIP3    H242527   4.752   4.543   4.787  1.9099  0.1621  0.1957
 7038TIP3   OH242528   1.559   5.786  15.161  0.3935 -0.2315 -0.3385
 7038TIP3    H142529   1.587   5.706  15.117 -2.5710 -1.1342 -0.7893
 7038TIP3    H242530   1.569   5.766  15.255  0.0583 -0.9859 -0.4594
 7039TIP3   OH242531   4.343   6.792  10.432 -0.2848 -0.3094 -0.4061
 7039TIP3    H142532   4.298   6.876  10.440  1.5487  0.5611  1.5493
 7039TIP3    H242533   4.405   6.805  10.360 -0.2505 -0.1165 -0.3408
 7040TIP3   OH242534   2.918   4.910  12.291 -0.1272 -0.3480 -0.6320
 7040TIP3    H142535   2.840   4.928  12.344  1.1507  2.2676  0.5084
 7040TIP3    H242536   2.902   4.955  12.208  0.4329  0.8036 -0.1304
 7041TIP3   OH242537   4.432   3.133  13.318  0.1102  0.3287  0.2957
 7041TIP3    H142538   4.489   3.191  13.367  0.8283 -0.1327  0.0308
 7041TIP3    H242539   4.401   3.186  13.244  0.2488  0.5590  0.4030
 7042TIP3   OH242540   4.714   4.736  14.321  0.2459 -0.3735 -0.2952
 7042TIP3    H142541   4.726   4.760  14.413 -1.3906 -0.0637 -0.1302
 7042TIP3    H242542   4.639   4.677  14.322 -0.6824  0.7374 -1.5874
 7043TIP3   OH242543   2.112   5.410  13.273  0.3577  0.4232  0.1205
 7043TIP3    H142544   2.031   5.446  13.237  0.3114 -0.0519 -0.2565
 7043TIP3    H242545   2.100   5.413  13.368 -0.1425  0.2685  0.0637
 7044TIP3   OH242546   2.565   2.469   1.473 -0.3165  0.2239 -0.4376
 7044TIP3    H142547   2.644   2.416   1.463  0.8522  1.9121 -0.3813
 7044TIP3    H242548   2.566   2.529   1.399 -2.1559 -0.4132 -1.0536
 7045TIP3   OH242549   3.460   0.838  12.414  0.0944  0.1900 -0.5173
 7045TIP3    H142550   3.450   0.791  12.331  0.0234 -1.5581  0.4205
 7045TIP3    H242551   3.420   0.923  12.398 -2.2152 -0.9787 -1.5546
 7046TIP3   OH242552   0.952   1.257  13.240 -0.2992 -0.5939 -0.4739
 7046TIP3    H142553   0.891   1.286  13.173 -0.9321  0.1780  0.4045
 7046TIP3    H242554   0.916   1.292  13.322  1.3679 -0.0381  0.0645
 7047TIP3   OH242555   0.341   3.332  12.150 -0.1445 -0.1957 -0.2119
 7047TIP3    H142556   0.385   3.261  12.196 -2.0809  0.9751  3.8589
 7047TIP3    H242557   0.285   3.287  12.085 -0.1977 -2.3087  1.1935
 7048TIP3   OH242558   1.579   0.756  11.962  0.5274  0.6704  0.9522
 7048TIP3    H142559   1.579   0.851  11.972  1.3094  0.5591  2.3442
 7048TIP3    H242560   1.649   0.738  11.900  0.0567  1.0230  0.3128
 7049TIP3   OH242561   3.110   4.406  14.650  0.0375 -0.6594  0.1899
 7049TIP3    H142562   3.096   4.415  14.556  0.6236  0.9222  0.2317
 7049TIP3    H242563   3.022   4.396  14.686 -0.3449  0.5258 -0.3673
 7050TIP3   OH242564   3.233   3.723  14.542 -0.3939  0.5041  0.2907
 7050TIP3    H142565   3.222   3.761  14.455 -0.7003  1.1512  0.6021
 7050TIP3    H242566   3.216   3.630  14.530  1.8750  0.1744 -0.7947
 7051TIP3   OH242567   1.859   6.457  13.237  0.0011 -0.2476  0.0308
 7051TIP3    H142568   1.885   6.505  13.316 -1.0610 -0.8165  0.7427
 7051TIP3    H242569   1.942   6.437  13.193  0.5172  1.4652  0.1478
 7052TIP3   OH242570   0.404   4.910  11.368  0.3408  0.3556 -0.9832
 7052TIP3    H142571   0.359   4.994  11.373  0.1585  0.3562 -2.2569
 7052TIP3    H242572   0.475   4.925  11.305  0.9941 -0.1405 -0.3730
 7053TIP3   OH242573   1.453   0.428  15.261  1.0089 -0.8839  0.1514
 7053TIP3    H142574   1.436   0.389  15.176 -0.6990  1.4627 -0.7152
 7053TIP3    H242575   1.536   0.475  15.250  1.0376 -0.9854 -0.0667
 7054TIP3   OH242576   4.698   3.171   1.288  0.0147  0.2434  0.4576
 7054TIP3    H142577   4.677   3.264   1.277 -3.2588 -0.1115  2.2744
 7054TIP3    H242578   4.638   3.126   1.228  2.2419 -0.7741 -1.1452
 7055TIP3   OH242579   3.891   2.795  11.953 -0.7582  0.8483 -0.8605
 7055TIP3    H142580   3.836   2.853  11.901 -1.8850 -0.5639 -1.2816
 7055TIP3    H242581   3.940   2.855  12.011 -1.5881  2.2298 -1.5270
 7056TIP3   OH242582   0.068   0.135   2.117 -0.4047  0.2979 -0.2513
 7056TIP3    H142583   0.119   0.087   2.051  1.6707  1.3033  0.5236
 7056TIP3    H242584   0.039   0.214   2.071 -1.8173 -0.5438 -0.8600
 7057TIP3   OH242585   2.953   5.832   0.202  0.1041 -0.0809  0.2176
 7057TIP3    H142586   2.915   5.746   0.219  0.8475 -0.3921  0.3269
 7057TIP3    H242587   3.029   5.837   0.260  0.8452  0.1058 -0.7414
 7058TIP3   OH242588   4.576   0.557  10.839  0.3809  0.1737  0.2759
 7058TIP3    H142589   4.618   0.489  10.786 -1.8933  0.6154 -2.2693
 7058TIP3    H242590   4.573   0.519  10.927  1.8793 -1.7214 -0.4149
 7059TIP3   OH242591   5.769   2.533   5.732  0.2208  0.8676 -0.6759
 7059TIP3    H142592   5.764   2.532   5.636  0.3957  1.1290 -0.6866
 7059TIP3    H242593   5.683   2.564   5.760  0.1276  0.6732 -0.7440
 7060TIP3   OH242594   1.193   5.974  12.265 -0.6243 -0.7687 -0.5298
 7060TIP3    H142595   1.203   6.066  12.242 -0.0821 -0.7292 -0.1366
 7060TIP3    H242596   1.102   5.966  12.294  0.2516  0.4428  3.0105
 7061TIP3   OH242597   5.448   6.880  13.134 -0.6361  0.3351  0.4480
 7061TIP3    H142598   5.397   6.815  13.183 -1.2260  1.7231  1.7299
 7061TIP3    H242599   5.444   6.959  13.187  1.6313  0.9259 -0.1382
 7062TIP3   OH242600   0.174   2.101   2.187 -0.2324 -0.4363 -0.5400
 7062TIP3    H142601   0.179   2.100   2.283  1.2412 -1.6368 -0.6110
 7062TIP3    H242602   0.081   2.119   2.169 -0.2460  1.5337  1.0680
 7063TIP3   OH242603   4.083   1.160  11.301  0.3255  0.2855 -0.1788
 7063TIP3    H142604   4.058   1.244  11.264  0.4744  1.1123  1.5216
 7063TIP3    H242605   4.098   1.177  11.394 -2.1654 -2.1197  0.8111
 7064TIP3   OH242606   3.882   4.230   4.697  0.0122 -0.4392 -0.0461
 7064TIP3    H142607   3.930   4.299   4.743 -0.6698  0.6251 -0.8710
 7064TIP3    H242608   3.899   4.150   4.747 -1.2291  0.7546  2.4433
 7065TIP3   OH242609   2.073   1.073   9.957 -0.4849  0.2647  0.3811
 7065TIP3    H142610   2.150   1.022   9.932 -1.5878 -1.1213 -0.3046
 7065TIP3    H242611   2.028   1.019  10.022 -1.1046  0.8692  0.4685
 7066TIP3   OH242612   5.967   2.953   4.086 -0.1815  0.2978  0.1103
 7066TIP3    H142613   5.949   2.862   4.062 -0.8137  0.5087 -0.2401
 7066TIP3    H242614   5.914   3.004   4.025 -1.6532  0.8571  1.7774
 7067TIP3   OH242615   5.959   2.152  11.899  0.4014 -0.4762 -0.4507
 7067TIP3    H142616   5.898   2.197  11.958 -1.8600 -3.0860 -0.6118
 7067TIP3    H242617   5.976   2.068  11.942  3.4882 -0.1244 -0.7594
 7068TIP3   OH242618   3.355   7.061  12.293  0.0619  0.2901 -0.1903
 7068TIP3    H142619   3.361   7.125  12.222  0.3128  0.2654 -0.1958
 7068TIP3    H242620   3.322   6.981  12.250  2.4079 -0.4451 -0.7948
 7069TIP3   OH242621   1.333   3.209  10.306 -0.3752 -0.2053  0.0645
 7069TIP3    H142622   1.403   3.269  10.280 -0.0151 -1.0983 -1.1273
 7069TIP3    H242623   1.280   3.260  10.367  0.4726  0.9903 -0.1457
 7070TIP3   OH242624   7.072   7.101   9.760  0.3060 -0.4111 -0.0708
 7070TIP3    H142625   6.985   7.070   9.785 -0.0743 -1.9814 -2.8583
 7070TIP3    H242626   7.055   7.165   9.691  1.3652  0.6633  0.6267
 7071TIP3   OH242627   5.837   4.348   9.456  0.4111 -0.7469 -0.0860
 7071TIP3    H142628   5.789   4.267   9.473  0.7635 -1.4413 -2.1400
 7071TIP3    H242629   5.903   4.324   9.391  1.6346  0.8405  0.4880
 7072TIP3   OH242630   3.140   3.814  14.821 -0.0597  0.2838  0.0151
 7072TIP3    H142631   3.165   3.766  14.742 -0.4129 -1.0996  0.7180
 7072TIP3    H242632   3.139   3.748  14.890 -1.3673  1.1322  0.8584
 7073TIP3   OH242633   2.565   3.876  10.090 -0.1128 -0.1351 -0.4470
 7073TIP3    H142634   2.551   3.941  10.021 -2.4678  0.4918  0.5160
 7073TIP3    H242635   2.641   3.909  10.138 -0.1896  0.9710 -1.0288
 7074TIP3   OH242636   3.480   0.473  13.574 -0.0813  0.2125  0.1067
 7074TIP3    H142637   3.463   0.384  13.542 -3.5688  1.6180 -2.5285
 7074TIP3    H242638   3.561   0.464  13.624  0.8668 -4.0519 -1.6854
 7075TIP3   OH242639   3.641   5.752  15.122  0.3352  0.0238  0.9209
 7075TIP3    H142640   3.688   5.743  15.204 -0.3626 -1.6414  1.1796
 7075TIP3    H242641   3.562   5.698  15.133  0.5485 -0.7789 -1.0615
 7076TIP3   OH242642   5.229   2.125  10.398 -0.0994  0.0293 -0.4963
 7076TIP3    H142643   5.274   2.153  10.319 -0.5085  1.0576 -0.3795
 7076TIP3    H242644   5.147   2.175  10.399 -0.7785 -1.0348 -0.1679
 7077TIP3   OH242645   0.197   1.243  12.901 -0.2182 -0.1033  0.3145
 7077TIP3    H142646   0.287   1.275  12.896 -0.0818 -0.3317  1.2649
 7077TIP3    H242647   0.178   1.237  12.994 -1.0656 -0.4919  0.1261
 7078TIP3   OH242648   2.254   4.081   5.263 -0.1262  0.4257 -0.8019
 7078TIP3    H142649   2.281   4.104   5.352 -2.3083 -1.4506  0.4770
 7078TIP3    H242650   2.175   4.133   5.247  0.3072  0.8297 -1.6921
 7079TIP3   OH242651   5.765   2.983  10.647  0.1777  0.1888  0.2017
 7079TIP3    H142652   5.766   2.993  10.552  2.8369  0.6511  0.1987
 7079TIP3    H242653   5.719   3.061  10.679 -1.0881 -0.1661 -0.6859
 7080TIP3   OH242654   1.401   6.234  13.284 -0.0579 -0.4744  0.2771
 7080TIP3    H142655   1.412   6.329  13.292  0.6591 -0.6253  1.3803
 7080TIP3    H242656   1.399   6.203  13.375 -0.6998 -1.4701 -0.0652
 7081TIP3   OH242657   1.799   4.998   1.083  0.2944 -0.6773  0.0103
 7081TIP3    H142658   1.721   4.976   1.134  1.7174  0.7587  3.1301
 7081TIP3    H242659   1.774   5.074   1.032 -1.2707 -2.3269 -1.8252
 7082TIP3   OH242660   2.605   3.020  11.334 -0.7170 -0.3103  0.0106
 7082TIP3    H142661   2.523   3.042  11.378 -0.7181 -1.9254  0.9076
 7082TIP3    H242662   2.585   3.028  11.241 -1.6637  0.0714  0.2359
 7083TIP3   OH242663   3.022   5.281  10.624  0.0313 -0.2076 -0.1529
 7083TIP3    H142664   2.927   5.281  10.635 -0.1237  1.2109 -1.2228
 7083TIP3    H242665   3.052   5.354  10.677  0.1122  1.5372 -2.4540
 7084TIP3   OH242666   3.596   4.919   0.828 -0.1832 -0.1893 -0.7510
 7084TIP3    H142667   3.527   4.986   0.818  0.3961  0.2377 -2.1375
 7084TIP3    H242668   3.648   4.927   0.748  2.6005  0.7613  1.0052
 7085TIP3   OH242669   2.556   3.854  10.849  0.2334  0.3318 -0.1078
 7085TIP3    H142670   2.507   3.809  10.781 -0.3942 -4.7217  3.1181
 7085TIP3    H242671   2.647   3.853  10.818 -0.2698  0.0371 -1.6609
 7086TIP3   OH242672   1.291   1.868  12.016  0.6852  0.3335 -0.3524
 7086TIP3    H142673   1.261   1.802  11.953 -0.7375 -0.8619  1.4884
 7086TIP3    H242674   1.343   1.818  12.080  0.6535  1.2172  0.3824
 7087TIP3   OH242675   0.017   5.146  13.017  0.3265  0.3905 -0.0022
 7087TIP3    H142676   0.024   5.172  12.925  0.3255  1.6058  0.3231
 7087TIP3    H242677  -0.077   5.139  13.033  0.3457 -0.6345 -0.3030
 7088TIP3   OH242678   5.182   7.066   0.889 -0.0185  0.3686 -0.4837
 7088TIP3    H142679   5.229   7.146   0.912 -0.4253  0.3022  0.6139
 7088TIP3    H242680   5.112   7.095   0.831  0.2632  0.7084 -0.6587
 7089TIP3   OH242681   5.958   3.121  10.357  0.0438 -0.2310 -0.3936
 7089TIP3    H142682   5.888   3.056  10.355  0.6837 -0.9550 -0.1270
 7089TIP3    H242683   5.963   3.156  10.268  0.2867 -1.2118 -0.7727
 7090TIP3   OH242684   5.897   1.005   4.969 -0.2132 -0.1811  0.4261
 7090TIP3    H142685   5.939   1.090   4.962 -0.6518  0.0829  0.9146
 7090TIP3    H242686   5.878   0.979   4.878 -1.8809  1.1589  0.3557
 7091TIP3   OH242687   2.021   7.091  12.881 -0.0767  0.5744 -0.1717
 7091TIP3    H142688   2.104   7.138  12.874 -0.1193  0.5123 -1.1149
 7091TIP3    H242689   1.999   7.065  12.792  0.9130 -2.9477  0.4633
 7092TIP3   OH242690   2.076   1.271  11.933 -0.1011  0.2528  0.8215
 7092TIP3    H142691   2.002   1.233  11.886 -0.2365  2.2307 -0.6964
 7092TIP3    H242692   2.146   1.206  11.924 -1.3005 -1.1485  1.3166
 7093TIP3   OH242693   1.377   6.096  13.571  0.3490  0.3314 -1.0286
 7093TIP3    H142694   1.329   6.014  13.566 -1.2387  1.1226  0.3776
 7093TIP3    H242695   1.460   6.078  13.528 -1.2221 -1.0654 -3.7328
 7094TIP3   OH242696   7.042   4.245   2.559  0.0410 -0.0395  0.6773
 7094TIP3    H142697   7.068   4.153   2.564 -0.7572 -0.2161  2.4216
 7094TIP3    H242698   7.091   4.287   2.630  0.0090  0.8000  0.2167
 7095TIP3   OH242699   2.608   5.146  13.074  0.1546  0.1670 -0.1132
 7095TIP3    H142700   2.615   5.190  13.159  0.8270 -0.2134  0.0366
 7095TIP3    H242701   2.673   5.076  13.078 -0.9167 -0.8773 -0.3314
 7096TIP3   OH242702   5.346   3.332  14.767 -0.7249 -0.3714  0.1325
 7096TIP3    H142703   5.295   3.403  14.806 -1.6223 -1.2898  0.7172
 7096TIP3    H242704   5.342   3.347  14.673  0.6760  1.3645  0.2950
 7097TIP3   OH242705   2.606   6.509   3.990 -0.4441 -0.0747 -0.1139
 7097TIP3    H142706   2.646   6.506   4.077 -0.6855 -0.8527 -0.0276
 7097TIP3    H242707   2.636   6.592   3.953  0.1271 -0.0057  0.4893
 7098TIP3   OH242708   2.498   3.856  13.957 -0.2621 -0.4621  0.1226
 7098TIP3    H142709   2.411   3.872  13.922  0.4939 -0.6238 -1.9646
 7098TIP3    H242710   2.538   3.943  13.963 -1.0182 -0.1979  2.5636
 7099TIP3   OH242711   0.862   0.554  11.486  0.1375  0.0637  0.0699
 7099TIP3    H142712   0.898   0.482  11.434  0.0158  0.2904 -0.3361
 7099TIP3    H242713   0.836   0.620  11.421 -4.0511 -1.3562  0.0187
 7100TIP3   OH242714   1.335   0.984  11.397 -0.7353 -0.0713 -0.3089
 7100TIP3    H142715   1.291   0.899  11.402 -2.1495  0.6524 -0.1895
 7100TIP3    H242716   1.356   0.995  11.304 -0.7383 -0.4478 -0.3554
 7101TIP3   OH242717   0.030   6.007  11.562  0.9045  0.2984 -0.4919
 7101TIP3    H142718  -0.059   6.027  11.590  1.5181 -0.4776  2.3913
 7101TIP3    H242719   0.023   5.988  11.469 -2.3839 -1.9125  0.0264
 7102TIP3   OH242720   5.911   2.803   1.026 -0.0213  0.2659  0.8976
 7102TIP3    H142721   5.962   2.864   1.079  0.6024  0.3428  0.2190
 7102TIP3    H242722   5.882   2.736   1.088 -1.6166  1.7858  1.8668
 7103TIP3   OH242723   3.607   6.850   1.413 -0.8980 -0.4136 -0.1338
 7103TIP3    H142724   3.542   6.853   1.343  0.1913  0.1714 -1.1524
 7103TIP3    H242725   3.656   6.770   1.397 -2.2138 -1.5981  1.4588
 7104TIP3   OH242726   6.924   5.552   5.142 -0.0416  0.5181 -0.1799
 7104TIP3    H142727   7.015   5.523   5.145  1.1861  3.5561 -2.5757
 7104TIP3    H242728   6.922   5.634   5.191 -1.1782  1.1076 -1.1402
 7105TIP3   OH242729   5.021   6.678   4.632 -0.1437 -0.6705 -0.4210
 7105TIP3    H142730   5.028   6.644   4.543 -0.3413  2.0940 -1.5962
 7105TIP3    H242731   4.955   6.747   4.626  1.5100  1.2053  1.2894
 7106TIP3   OH242732   4.257   2.663  12.991  0.3113  0.0438 -0.3457
 7106TIP3    H142733   4.336   2.677  12.940  0.3832  0.1944 -0.1935
 7106TIP3    H242734   4.281   2.689  13.080 -0.6638  2.5949 -0.7571
 7107TIP3   OH242735   2.998   5.499  10.210 -0.2977  0.0313  0.5989
 7107TIP3    H142736   2.917   5.470  10.167 -1.8908  2.6080  1.5896
 7107TIP3    H242737   3.064   5.496  10.141 -0.7732 -3.5062  0.0897
 7108TIP3   OH242738   6.620   5.795   9.800  0.3642 -1.1202  0.3187
 7108TIP3    H142739   6.647   5.750   9.721 -1.1675  0.5043 -1.2236
 7108TIP3    H242740   6.697   5.845   9.828  0.8225 -1.4817 -0.2861
 7109TIP3   OH242741   4.774   6.641  10.373 -0.6886 -0.0700 -0.1880
 7109TIP3    H142742   4.768   6.734  10.351  1.7795  0.0912 -0.4575
 7109TIP3    H242743   4.768   6.596  10.289 -0.7784 -0.0791 -0.1766
 7110TIP3   OH242744   1.863   7.061  12.661 -0.8081 -0.0569  0.3334
 7110TIP3    H142745   1.778   7.084  12.699 -0.5132 -1.5308  2.0024
 7110TIP3    H242746   1.848   6.977  12.617 -0.0048 -0.9526  1.6764
 7111TIP3   OH242747   3.837   0.752   2.590 -0.2379 -0.2065 -0.1123
 7111TIP3    H142748   3.829   0.813   2.517  0.5034 -0.7706 -0.6703
 7111TIP3    H242749   3.852   0.667   2.550  0.7177 -0.4399  0.6936
 7112TIP3   OH242750   5.494   0.824   5.197  0.1171  0.1821  0.1834
 7112TIP3    H142751   5.459   0.767   5.265  2.0038 -0.3353  0.7679
 7112TIP3    H242752   5.565   0.774   5.157 -0.2092  0.9278 -1.4248
 7113TIP3   OH242753   0.609   1.485  14.825  0.1663 -0.3209  0.3371
 7113TIP3    H142754   0.704   1.496  14.831  0.3685 -1.4355 -0.4600
 7113TIP3    H242755   0.573   1.572  14.840  1.3894  0.4810 -1.1428
 7114TIP3   OH242756   4.330   4.926   1.524  0.7406 -0.2842 -0.3250
 7114TIP3    H142757   4.392   4.935   1.451 -0.4514  1.0263 -1.2121
 7114TIP3    H242758   4.284   5.009   1.527 -1.6045 -1.5016 -0.2706
 7115TIP3   OH242759   0.747   4.151  12.422 -0.1578  0.1870  0.0889
 7115TIP3    H142760   0.690   4.219  12.457 -1.1554 -0.1363 -0.8499
 7115TIP3    H242761   0.747   4.083  12.489 -1.1029  0.0777 -0.0132
 7116TIP3   OH242762   1.015   2.908   2.103 -0.2092  0.0926  0.0745
 7116TIP3    H142763   0.932   2.886   2.145 -0.1412  0.3435  0.3459
 7116TIP3    H242764   0.991   2.976   2.039 -0.4384 -0.8245 -0.8473
 7117TIP3   OH242765   2.990   2.656   2.471  0.4673 -0.1094 -0.2311
 7117TIP3    H142766   2.927   2.621   2.409 -1.6277  1.5205  0.8672
 7117TIP3    H242767   3.073   2.615   2.447 -0.9199 -2.0891 -1.9266
 7118TIP3   OH242768   4.986   6.228  14.025 -0.1083  0.2024  0.0288
 7118TIP3    H142769   5.028   6.187  13.950 -0.1538  0.8836 -0.3744
 7118TIP3    H242770   4.923   6.162  14.056  0.4157 -0.3604 -0.0789
 7119TIP3   OH242771   5.172   1.400  11.936  0.4635 -0.0135  0.4270
 7119TIP3    H142772   5.147   1.492  11.942  2.1431  0.4600  0.8669
 7119TIP3    H242773   5.131   1.369  11.855  2.4051  2.0244 -1.5001
 7120TIP3   OH242774   0.914   5.445   4.604 -0.4588 -0.2896  0.1133
 7120TIP3    H142775   0.860   5.374   4.571  0.0643 -0.8259  0.3718
 7120TIP3    H242776   0.923   5.505   4.531 -1.2994 -0.2472  0.0348
 7121TIP3   OH242777   3.540   6.764  13.859 -0.2072  0.1539  0.1054
 7121TIP3    H142778   3.475   6.700  13.888 -0.7274 -0.1480 -1.5673
 7121TIP3    H242779   3.489   6.836  13.822  0.3923  1.0287  0.9532
 7122TIP3   OH242780   4.257   5.480  12.001  0.2818  0.1189 -0.0428
 7122TIP3    H142781   4.201   5.542  12.047  1.3686  1.1124 -0.0283
 7122TIP3    H242782   4.343   5.520  12.001  0.6362 -0.5656 -1.6180
 7123TIP3   OH242783   0.518   1.983   0.295 -0.1524 -0.2466  0.1427
 7123TIP3    H142784   0.550   1.948   0.212  1.2991  0.0817  0.5269
 7123TIP3    H242785   0.493   1.906   0.346 -1.2693 -0.4388 -0.6592
 7124TIP3   OH242786   0.801   6.233  10.697 -0.2076  0.1571  0.0115
 7124TIP3    H142787   0.828   6.307  10.642  0.7732  2.1996  2.9939
 7124TIP3    H242788   0.863   6.163  10.675 -0.4083  0.5444 -2.0413
 7125TIP3   OH242789   3.607   6.606  10.387 -0.0355  0.1361  0.0592
 7125TIP3    H142790   3.550   6.604  10.464 -1.8925  0.6004 -1.2195
 7125TIP3    H242791   3.645   6.518  10.382  0.4904  0.2449  1.7326
 7126TIP3   OH242792   5.253   6.321   0.600  0.1372  0.2169  0.3210
 7126TIP3    H142793   5.289   6.238   0.632  2.1429  0.3931 -1.2666
 7126TIP3    H242794   5.219   6.301   0.513 -1.5826  0.5870  0.8746
 7127TIP3   OH242795   2.255   1.966   2.673  0.3855 -0.0145  0.1677
 7127TIP3    H142796   2.283   1.878   2.697  0.1036  0.1270  1.0552
 7127TIP3    H242797   2.304   1.986   2.593  2.1296 -0.1384  1.1452
 7128TIP3   OH242798   6.494   5.382  14.989 -0.2396 -0.1990 -0.3826
 7128TIP3    H142799   6.488   5.329  15.069  1.0402  0.0235 -0.1038
 7128TIP3    H242800   6.587   5.378  14.965 -0.4960  0.2273 -1.5316
 7129TIP3   OH242801   5.636   0.064   2.346 -0.2656 -0.2245  0.1743
 7129TIP3    H142802   5.584   0.081   2.267 -0.8871  0.5633  0.7395
 7129TIP3    H242803   5.588   0.109   2.416  0.7793 -0.1139  0.8316
 7130TIP3   OH242804   7.009   3.737  15.541  0.1230 -0.4854  0.7925
 7130TIP3    H142805   7.073   3.809  15.547 -0.6394  1.0696 -4.4484
 7130TIP3    H242806   6.924   3.780  15.547 -0.4515 -1.7394  2.1991
 7131TIP3   OH242807   4.854   2.452  14.744  0.0124 -0.1266  0.5267
 7131TIP3    H142808   4.786   2.440  14.810 -0.4690  0.0298  0.0630
 7131TIP3    H242809   4.808   2.485  14.667  0.6563  0.3060  0.3107
 7132TIP3   OH242810   4.113   1.311  15.587  0.3933 -0.3987 -0.2969
 7132TIP3    H142811   4.064   1.371  15.642  0.4406 -0.2883 -0.3749
 7132TIP3    H242812   4.070   1.226  15.599 -0.0532 -0.2239 -0.6698
 7133TIP3   OH242813   1.939   0.842  10.855 -0.2189  0.4122 -0.3443
 7133TIP3    H142814   1.957   0.933  10.876 -1.3265  0.7466 -0.7504
 7133TIP3    H242815   1.898   0.807  10.934 -0.5295  0.4957 -0.4669
 7134TIP3   OH242816   2.607   3.959   3.839  0.6260  0.0598  0.7276
 7134TIP3    H142817   2.579   3.906   3.763  0.7344  0.1673  0.6127
 7134TIP3    H242818   2.616   3.895   3.910  0.2553 -0.0019  0.7221
 7135TIP3   OH242819   1.715   2.278  10.007  0.0931 -0.1217 -0.0137
 7135TIP3    H142820   1.764   2.217  10.062  0.4670 -1.7780 -2.0636
 7135TIP3    H242821   1.781   2.338   9.973  0.2158 -0.4065 -0.2891
 7136TIP3   OH242822   0.463   2.992  15.563 -0.5010 -0.4417  0.2128
 7136TIP3    H142823   0.441   2.935  15.637 -1.2131  0.9536  1.1153
 7136TIP3    H242824   0.485   3.075  15.603 -0.0274  0.0996 -1.1150
 7137TIP3   OH242825   6.308   3.306  14.849 -0.6879  0.5183 -0.0670
 7137TIP3    H142826   6.315   3.211  14.862 -1.8136  0.8038  4.1547
 7137TIP3    H242827   6.219   3.327  14.876 -0.5693  2.8061 -1.2203
 7138TIP3   OH242828   5.570   5.723  11.118  0.0701  0.4644 -0.2065
 7138TIP3    H142829   5.605   5.797  11.067  0.3624 -0.2497 -1.0641
 7138TIP3    H242830   5.573   5.753  11.208  0.0164  1.5744 -0.5602
 7139TIP3   OH242831   5.308   6.985   4.072 -0.4123 -0.2259 -0.6729
 7139TIP3    H142832   5.248   6.911   4.066  1.4077 -2.3755  3.3561
 7139TIP3    H242833   5.258   7.053   4.116 -0.9387 -0.5982 -0.6876
 7140TIP3   OH242834   5.193   1.714  13.793 -0.0692 -0.3010 -0.1552
 7140TIP3    H142835   5.248   1.636  13.794  0.2979 -0.0462 -0.3621
 7140TIP3    H242836   5.219   1.763  13.871 -1.5211 -1.2184  0.9575
 7141TIP3   OH242837   4.201   5.584  15.050  0.3323  0.4036 -0.0461
 7141TIP3    H142838   4.171   5.513  14.994  1.7185  0.0999 -0.4330
 7141TIP3    H242839   4.285   5.610  15.014  0.3236  1.5714  0.6972
 7142TIP3   OH242840   5.934   2.677  12.905  0.0903  0.0878 -0.1417
 7142TIP3    H142841   5.851   2.719  12.882  0.3998 -0.0067 -1.4657
 7142TIP3    H242842   5.989   2.748  12.937 -0.1869  0.3004 -0.1290
 7143TIP3   OH242843   4.291   4.289   4.024  0.1672  0.1772 -0.1075
 7143TIP3    H142844   4.366   4.297   3.964  0.5515  0.5237  0.4125
 7143TIP3    H242845   4.217   4.324   3.974  0.4011  0.0609 -0.5400
 7144TIP3   OH242846   0.181   0.645   2.603  0.1760  0.0589  0.5748
 7144TIP3    H142847   0.197   0.601   2.520  1.2789 -1.3740  1.4968
 7144TIP3    H242848   0.243   0.718   2.603  0.4916 -0.2071  0.3398
 7145TIP3   OH242849   5.363   5.308  15.333 -0.4055 -0.0439  0.7391
 7145TIP3    H142850   5.300   5.362  15.286 -1.6039 -0.4525  1.8010
 7145TIP3    H242851   5.323   5.221  15.334  1.7073 -1.1513 -1.3950
 7146TIP3   OH242852   5.005   5.022   4.266  0.4024  0.1908  0.3419
 7146TIP3    H142853   4.987   5.115   4.252  0.0564  0.1244  0.3501
 7146TIP3    H242854   5.018   4.986   4.178  0.2823  0.1934  0.3238
 7147TIP3   OH242855   0.579   1.652   5.407  0.0494  0.7383 -0.0588
 7147TIP3    H142856   0.594   1.684   5.496  0.1412 -2.2960  1.1327
 7147TIP3    H242857   0.484   1.637   5.403  0.2512 -0.6657  0.1309
 7148TIP3   OH242858   3.180   3.239  13.997 -0.3386 -0.2569  0.6397
 7148TIP3    H142859   3.091   3.259  14.028 -0.3565 -1.0529  1.1248
 7148TIP3    H242860   3.231   3.228  14.077  0.4247  1.0963  0.3712
 7149TIP3   OH242861   5.909   5.864  15.182  0.7178  0.0901  0.6879
 7149TIP3    H142862   5.969   5.831  15.249  2.9795 -0.8124 -1.6516
 7149TIP3    H242863   5.931   5.957  15.173  1.6807 -0.1988 -0.0394
 7150TIP3   OH242864   4.502   5.089   1.740  0.0844  0.0383 -0.2711
 7150TIP3    H142865   4.486   5.113   1.649 -0.0363 -0.1455 -0.3003
 7150TIP3    H242866   4.541   5.002   1.735  1.5080  0.6607 -0.2215
 7151TIP3   OH242867   4.348   5.972  10.572 -0.3790  0.0656  0.5894
 7151TIP3    H142868   4.276   5.960  10.634 -0.4559 -0.3517  0.4268
 7151TIP3    H242869   4.427   5.959  10.624 -0.4525 -2.6122  0.1962
 7152TIP3   OH242870   5.639   3.243  14.062  0.1039 -0.0415  0.4368
 7152TIP3    H142871   5.579   3.198  14.003  0.0432 -0.1675  0.5939
 7152TIP3    H242872   5.710   3.180  14.077 -0.1591 -0.2216  0.9391
 7153TIP3   OH242873   6.462   5.105   2.765  0.2630 -0.2292  0.1471
 7153TIP3    H142874   6.533   5.125   2.704  0.2034 -0.6329 -0.0573
 7153TIP3    H242875   6.446   5.188   2.811  0.0991  0.1569 -0.5969
 7154TIP3   OH242876   2.063   3.474   0.056 -0.2496 -0.7702 -0.3559
 7154TIP3    H142877   2.106   3.559   0.042 -1.1197 -0.1618  0.4918
 7154TIP3    H242878   2.088   3.422  -0.020 -0.3430  0.5274 -1.3101
 7155TIP3   OH242879   6.263   6.572   2.378 -0.7686  0.4246 -0.3637
 7155TIP3    H142880   6.262   6.640   2.311 -2.8771  1.1739  0.3483
 7155TIP3    H242881   6.303   6.613   2.454 -0.8107  0.4372 -0.3483
 7156TIP3   OH242882   2.037   1.316  11.634  0.3997 -0.5361 -0.6610
 7156TIP3    H142883   2.028   1.363  11.551 -0.9217  3.2982  1.3729
 7156TIP3    H242884   2.124   1.339  11.666 -0.0180  0.1339  0.0596
 7157TIP3   OH242885   4.613   1.822   5.614  0.3011 -0.1722 -0.2573
 7157TIP3    H142886   4.588   1.815   5.706  0.7765 -0.0137 -0.1152
 7157TIP3    H242887   4.671   1.899   5.610 -0.7146  0.5954 -0.8963
 7158TIP3   OH242888   3.622   1.461   3.341  0.2331 -0.0573 -0.7548
 7158TIP3    H142889   3.649   1.474   3.432 -2.7201 -0.8007  0.3458
 7158TIP3    H242890   3.572   1.540   3.320  0.4056 -0.1532 -1.5556
 7159TIP3   OH242891   5.733   2.152   2.957 -0.5020  0.1816  0.3053
 7159TIP3    H142892   5.751   2.223   3.019  2.2351 -0.7848  0.7646
 7159TIP3    H242893   5.702   2.080   3.012 -2.9965  0.8437 -0.1272
 7160TIP3   OH242894   0.922   2.812  12.606 -0.4479  0.2114 -0.5078
 7160TIP3    H142895   0.888   2.869  12.676 -0.3573 -0.3154 -0.0281
 7160TIP3    H242896   0.849   2.753  12.587  0.3232 -1.2993  0.9178
 7161TIP3   OH242897   4.110   1.223   3.195  0.7453 -0.2259 -0.6260
 7161TIP3    H142898   4.126   1.225   3.289  1.5502 -0.4580 -0.7472
 7161TIP3    H242899   4.105   1.315   3.169 -0.2583 -0.1607 -0.2401
 7162TIP3   OH242900   5.330   3.564  12.299 -0.3548 -0.0326 -0.4206
 7162TIP3    H142901   5.288   3.606  12.223 -2.1745  1.9194  1.5101
 7162TIP3    H242902   5.393   3.629  12.330 -1.7361  0.5466  1.3887
 7163TIP3   OH242903   1.673   1.934   1.289  0.2238  0.7136 -0.9830
 7163TIP3    H142904   1.683   1.842   1.315  0.8776  1.1419  0.3474
 7163TIP3    H242905   1.580   1.952   1.301  0.2560  0.4787 -0.3146
 7164TIP3   OH242906   1.223   0.228  14.771  0.3139  0.1946 -0.1337
 7164TIP3    H142907   1.172   0.215  14.851 -1.2194  2.4344 -0.6359
 7164TIP3    H242908   1.287   0.296  14.793  0.2004  0.4800 -0.6511
 7165TIP3   OH242909   3.910   6.798  11.738 -0.4615 -0.6660 -0.0887
 7165TIP3    H142910   3.953   6.715  11.719 -0.2475 -1.2050  2.3810
 7165TIP3    H242911   3.858   6.780  11.816 -1.1377  1.3047 -0.0352
 7166TIP3   OH242912   0.999   5.285  12.588  0.1886  0.5231 -0.4421
 7166TIP3    H142913   0.935   5.266  12.656  1.4405 -1.3368  0.2836
 7166TIP3    H242914   0.979   5.375  12.562 -2.8333 -0.0338 -0.4467
 7167TIP3   OH242915   2.672   4.738  13.456 -0.2713  0.4987  0.7825
 7167TIP3    H142916   2.669   4.796  13.532  0.1927 -0.0045  1.1982
 7167TIP3    H242917   2.746   4.680  13.474 -0.6057 -0.0876  0.2866
 7168TIP3   OH242918   6.767   0.651   2.663 -0.3321  0.1543  0.0399
 7168TIP3    H142919   6.752   0.679   2.573 -1.5359  2.2252  0.8190
 7168TIP3    H242920   6.848   0.694   2.688 -0.7684  0.7815  0.3922
 7169TIP3   OH242921   2.114   2.597  13.021  0.1790 -0.3310  0.3283
 7169TIP3    H142922   2.076   2.612  12.934  2.3309 -1.0803 -0.8077
 7169TIP3    H242923   2.098   2.678  13.069  0.7029  0.8717 -1.4465
 7170TIP3   OH242924   1.491   5.179   3.403  0.3056 -0.0453 -0.0117
 7170TIP3    H142925   1.484   5.199   3.497  1.6458 -0.4458  0.1951
 7170TIP3    H242926   1.461   5.259   3.360  0.6961  0.5446  0.7715
 7171TIP3   OH242927   3.145   6.070  15.155  0.6379 -0.0966 -0.2185
 7171TIP3    H142928   3.090   6.134  15.109  0.3633  0.1708  0.4722
 7171TIP3    H242929   3.084   6.021  15.210  1.1250  0.3838  0.7626
 7172TIP3   OH242930   5.298   4.226   2.119  0.4290 -0.3258  0.1754
 7172TIP3    H142931   5.258   4.313   2.114  0.2078 -0.3834  0.7704
 7172TIP3    H242932   5.392   4.243   2.111  0.3715 -0.0542  0.0428
 7173TIP3   OH242933   2.868   1.890  12.279 -0.5455  0.2838  0.2093
 7173TIP3    H142934   2.847   1.875  12.187 -0.9684  1.8573  0.0309
 7173TIP3    H242935   2.947   1.943  12.278 -1.3046  1.4696  0.6939
 7174TIP3   OH242936   5.685   6.549  13.970  0.3631  0.3069 -0.6650
 7174TIP3    H142937   5.736   6.625  13.942 -1.1445  1.3766 -0.5952
 7174TIP3    H242938   5.629   6.528  13.895  0.0041 -0.0546 -0.3038
 7175TIP3   OH242939   4.797   2.778   0.475  0.3026  0.0032  0.1890
 7175TIP3    H142940   4.711   2.739   0.491 -1.1773  3.0266  0.3452
 7175TIP3    H242941   4.827   2.738   0.393 -0.2334 -2.6223  1.1928
 7176TIP3   OH242942   2.256   3.177  10.569 -0.0957  0.7678  0.0667
 7176TIP3    H142943   2.340   3.148  10.605  0.0200  0.3782 -0.5076
 7176TIP3    H242944   2.279   3.232  10.494 -0.3425  1.3473  0.4045
 7177TIP3   OH242945   3.692   4.942  14.397 -0.5963  0.4912 -0.9713
 7177TIP3    H142946   3.659   5.002  14.330 -0.6682  0.6858 -0.7651
 7177TIP3    H242947   3.755   4.886  14.351  0.4536  1.5660 -0.9075
 7178TIP3   OH242948   4.281   1.271  13.083 -0.0653  0.1947 -0.3414
 7178TIP3    H142949   4.362   1.220  13.082 -0.4543 -0.4360 -0.1740
 7178TIP3    H242950   4.211   1.206  13.090 -0.5574  0.7667  0.2749
 7179TIP3   OH242951   3.607   6.146   2.728 -0.5599 -0.2457  0.0464
 7179TIP3    H142952   3.687   6.198   2.738 -1.0632  0.5139  0.1697
 7179TIP3    H242953   3.598   6.100   2.812 -1.0296  0.7924  0.5841
 7180TIP3   OH242954   1.720   0.491  11.335  0.4004 -0.4937  0.0928
 7180TIP3    H142955   1.768   0.409  11.338  0.4801 -0.4649 -0.3099
 7180TIP3    H242956   1.786   0.558  11.353  0.3839 -0.5007  0.1789
 7181TIP3   OH242957   3.798   0.422  14.614  0.4149  0.4230 -0.1363
 7181TIP3    H142958   3.815   0.499  14.561  2.9034 -1.0658 -1.6615
 7181TIP3    H242959   3.733   0.372  14.564  0.4753  0.4588 -0.2506
 7182TIP3   OH242960   2.197   2.778   5.140 -0.5409 -0.3614  0.2543
 7182TIP3    H142961   2.217   2.684   5.140  2.0466  0.1215  1.5737
 7182TIP3    H242962   2.104   2.782   5.161 -1.2600 -2.6655 -1.9133
 7183TIP3   OH242963   0.016   6.963  11.143 -0.0852  0.0838 -0.6683
 7183TIP3    H142964  -0.046   7.025  11.182  2.1310  1.8850  0.2490
 7183TIP3    H242965   0.076   6.942  11.215  0.4352 -1.5115 -1.5345
 7184TIP3   OH242966   6.740   2.611   0.839 -0.6838  0.1808  0.3632
 7184TIP3    H142967   6.663   2.620   0.783 -0.5403  1.0786  0.3019
 7184TIP3    H242968   6.705   2.589   0.925 -0.9537 -0.2687  0.1454
 7185TIP3   OH242969   1.726   2.328  12.717  0.1799  0.5164  0.1280
 7185TIP3    H142970   1.704   2.376  12.637 -0.2113 -0.5129 -0.4004
 7185TIP3    H242971   1.822   2.327  12.719  0.2779 -1.4437 -1.6206
 7186TIP3   OH242972   3.090   2.669   4.209  0.5601  0.0137  0.2481
 7186TIP3    H142973   3.033   2.608   4.255  0.7042 -1.3155 -1.2349
 7186TIP3    H242974   3.174   2.662   4.254  0.5891 -0.9474  0.0634
 7187TIP3   OH242975   6.155   4.425   3.257 -0.3889  0.7542  0.0126
 7187TIP3    H142976   6.167   4.520   3.269  1.6215  0.4238  0.9250
 7187TIP3    H242977   6.219   4.401   3.190  1.0366 -0.3573  1.6991
 7188TIP3   OH242978   2.137   6.310  12.552 -0.3832 -0.1883 -0.1363
 7188TIP3    H142979   2.189   6.302  12.632  1.3918 -0.5478 -1.2689
 7188TIP3    H242980   2.160   6.396  12.517 -1.3239  0.0637 -0.1533
 7189TIP3   OH242981   6.935   3.036  10.696  0.1362 -0.5938  0.1955
 7189TIP3    H142982   7.010   3.008  10.645  0.4498 -1.4067  1.0688
 7189TIP3    H242983   6.862   2.985  10.661 -0.1085  0.4676 -0.9033
 7190TIP3   OH242984   4.995   6.052  10.824  0.3578  0.1673  0.2861
 7190TIP3    H142985   5.083   6.069  10.790  1.5152  0.8343  3.3101
 7190TIP3    H242986   5.001   5.965  10.862 -0.9653 -0.6532 -1.2741
 7191TIP3   OH242987   6.381   1.026   1.900  0.0336  0.4671 -0.0974
 7191TIP3    H142988   6.298   0.989   1.870  0.3190  0.1213 -0.4698
 7191TIP3    H242989   6.438   1.022   1.823  0.3802  0.7549  0.1407
 7192TIP3   OH242990   1.042   1.068  10.323 -0.1304  0.2956 -0.1783
 7192TIP3    H142991   1.133   1.068  10.352 -0.3805  1.0070  0.6561
 7192TIP3    H242992   1.044   1.111  10.238  0.3175  0.3320 -0.1501
 7193TIP3   OH242993   5.962   5.919  14.632  0.1254 -0.1698 -0.2013
 7193TIP3    H142994   5.890   5.875  14.677 -1.0001  0.4668 -1.3215
 7193TIP3    H242995   6.029   5.932  14.700 -0.5280 -1.3657  0.7074
 7194TIP3   OH242996   5.297   2.023  13.331 -0.6023 -0.0733 -0.1652
 7194TIP3    H142997   5.373   2.068  13.294 -0.2574 -0.3017  0.2584
 7194TIP3    H242998   5.294   1.940  13.283  0.2420 -0.6572  0.7549
 7195TIP3   OH242999   4.497   4.049   5.721  0.5264  0.2763  0.4329
 7195TIP3    H143000   4.518   4.142   5.731 -0.9819  0.7043 -0.0446
 7195TIP3    H243001   4.403   4.048   5.703  1.0080 -1.1219 -2.5821
 7196TIP3   OH243002   2.083   0.528  11.844 -0.7840 -0.1814 -0.4291
 7196TIP3    H143003   1.990   0.539  11.829 -0.8284  2.1096  1.0535
 7196TIP3    H243004   2.096   0.554  11.935  1.2747 -0.7221 -0.5136
 7197TIP3   OH243005   2.232   0.230  13.478  0.0454 -0.3784  0.0270
 7197TIP3    H143006   2.194   0.262  13.560  1.7559 -0.5120  0.9238
 7197TIP3    H243007   2.193   0.286  13.410 -1.4156 -0.2761  0.9156
 7198TIP3   OH243008   1.262   5.450  10.678  0.1482  1.0913  0.1918
 7198TIP3    H143009   1.171   5.434  10.706  0.5608 -3.6665 -0.3836
 7198TIP3    H243010   1.315   5.414  10.749  1.5114  1.5258 -0.5764
 7199TIP3   OH243011   4.473   1.186  11.120 -0.2035 -0.9269  0.0252
 7199TIP3    H143012   4.384   1.170  11.090 -0.3401 -0.2099  0.0292
 7199TIP3    H243013   4.478   1.281  11.131  0.3997 -1.0071  0.5240
 7200TIP3   OH243014   3.880   4.551   0.447  0.0038  0.2749  0.0462
 7200TIP3    H143015   3.849   4.555   0.537  0.1709 -0.5211  0.1523
 7200TIP3    H243016   3.971   4.525   0.454 -0.4882 -1.7932 -0.3851
 7201TIP3   OH243017   6.767   7.102   4.284  0.1499 -0.2628 -0.3680
 7201TIP3    H143018   6.694   7.141   4.236 -0.4896 -0.2701  0.5891
 7201TIP3    H243019   6.762   7.139   4.372  0.1670 -1.6706  0.2618
 7202TIP3   OH243020   4.055   0.762  15.654 -0.0939  0.4006 -0.3053
 7202TIP3    H143021   4.098   0.679  15.632  1.9031  1.2095  0.3253
 7202TIP3    H243022   4.063   0.769  15.749  0.5190  1.6721 -0.4258
 7203TIP3   OH243023   3.817   1.127  13.757  0.1029  0.3286 -0.2889
 7203TIP3    H143024   3.819   1.213  13.799 -1.3122  0.5402 -0.6261
 7203TIP3    H243025   3.829   1.065  13.830 -0.3753  0.7609  0.1647
 7204TIP3   OH243026   2.436   4.737  12.732 -0.3533  0.3296 -0.7525
 7204TIP3    H143027   2.486   4.777  12.803 -0.3295 -0.5657 -0.2603
 7204TIP3    H243028   2.496   4.739  12.657  0.6408 -1.1855 -0.0428
 7205TIP3   OH243029   4.220   2.540   1.164 -0.3856  0.2243  0.1105
 7205TIP3    H143030   4.293   2.592   1.131 -0.9635  0.3241 -1.0448
 7205TIP3    H243031   4.218   2.462   1.108  0.1415 -0.8223  1.4818
 7206TIP3   OH243032   0.474   4.008   2.520 -0.1365 -0.0114 -0.0841
 7206TIP3    H143033   0.496   3.962   2.601 -2.8052 -1.1860  0.0959
 7206TIP3    H243034   0.512   3.954   2.450  2.8009  1.3915  0.3065
 7207TIP3   OH243035   5.953   5.837   4.455 -0.2668 -0.3403  0.2282
 7207TIP3    H143036   5.900   5.808   4.380 -1.9484 -0.8250  1.5522
 7207TIP3    H243037   5.924   5.783   4.528  0.5459  0.8652  1.4915
 7208TIP3   OH243038   3.977   4.448   2.633  0.0336 -0.4964 -0.1179
 7208TIP3    H143039   4.002   4.539   2.620  0.3434 -0.5834 -0.1344
 7208TIP3    H243040   4.059   4.401   2.646 -0.2083 -0.4924  1.6595
 7209TIP3   OH243041   5.286   3.557   3.101 -0.2563  0.3192 -0.1998
 7209TIP3    H143042   5.328   3.566   3.015 -0.0735  1.0904 -0.0384
 7209TIP3    H243043   5.347   3.505   3.153 -0.9485 -1.2557 -0.9157
 7210TIP3   OH243044   5.288   0.069   4.864 -0.5814  0.5509  0.0505
 7210TIP3    H143045   5.288   0.077   4.959 -2.1359  0.1678  0.1017
 7210TIP3    H243046   5.203   0.103   4.836 -0.3837  0.1133 -1.1460
 7211TIP3   OH243047   5.322   5.486   9.372 -0.6283  0.1408 -0.7214
 7211TIP3    H143048   5.324   5.578   9.346  0.2947  0.8326  1.4985
 7211TIP3    H243049   5.238   5.476   9.418 -1.1065 -0.3710 -1.6871
 7212TIP3   OH243050   5.292   1.425   2.507  0.2289 -1.0516  0.4320
 7212TIP3    H143051   5.209   1.471   2.497  0.8309 -0.0047  0.0145
 7212TIP3    H243052   5.304   1.417   2.602  0.0352 -0.4857  0.5055
 7213TIP3   OH243053   0.480   6.580  15.394  0.3310 -0.6264  0.1304
 7213TIP3    H143054   0.496   6.584  15.300  1.0973  0.3000  0.2893
 7213TIP3    H243055   0.430   6.499  15.406  0.1371 -0.7076 -1.0770
 7214TIP3   OH243056   3.351   2.021  13.399  0.2694  0.4464 -0.2533
 7214TIP3    H143057   3.349   2.087  13.329 -0.4046 -0.5855 -1.2530
 7214TIP3    H243058   3.292   2.055  13.466 -2.1268 -0.2498 -1.8672
 7215TIP3   OH243059   1.728   4.759   0.064 -0.2473  0.4392 -0.2474
 7215TIP3    H143060   1.729   4.696   0.135  0.7819 -0.2023 -0.8146
 7215TIP3    H243061   1.782   4.720  -0.004 -0.4232  1.4743 -1.0090
 7216TIP3   OH243062   2.538   1.480  13.783  0.3675 -0.0289  0.4833
 7216TIP3    H143063   2.472   1.536  13.742 -0.8475 -0.3618  1.8964
 7216TIP3    H243064   2.564   1.526  13.862  1.3441 -0.2193  0.2814
 7217TIP3   OH243065   0.103   1.215  10.606 -0.6315 -0.8352  0.2747
 7217TIP3    H143066   0.161   1.282  10.569  0.5504 -1.7722  0.3741
 7217TIP3    H243067   0.042   1.195  10.535  0.2497 -1.0575 -0.4310
 7218TIP3   OH243068   1.250   5.341  14.259  0.5099 -0.4093 -0.4238
 7218TIP3    H143069   1.256   5.436  14.269  0.4278 -0.5868  1.8028
 7218TIP3    H243070   1.333   5.316  14.219  0.2623  0.6453 -1.6480
 7219TIP3   OH243071   1.504   4.928   0.149 -0.0787 -0.7568  0.5206
 7219TIP3    H143072   1.469   4.875   0.221  0.7996 -0.2008  1.3931
 7219TIP3    H243073   1.583   4.882   0.121 -0.4602 -1.0131 -0.1603
 7220TIP3   OH243074   3.479   2.244  11.009 -0.5223  0.2236 -0.3855
 7220TIP3    H143075   3.566   2.227  10.973 -0.8372  1.9853 -2.1544
 7220TIP3    H243076   3.489   2.321  11.064 -1.0447  0.8743 -1.1653
 7221TIP3   OH243077   1.847   5.622   4.384  0.3226 -0.5184 -0.6766
 7221TIP3    H143078   1.825   5.529   4.374  0.8980 -0.7343 -0.0437
 7221TIP3    H243079   1.768   5.662   4.420 -0.8261 -0.2454 -3.2743
 7222TIP3   OH243080   2.817   5.528   4.498 -0.1816 -0.0723  0.0931
 7222TIP3    H143081   2.818   5.622   4.517 -2.0873  0.1356 -0.5884
 7222TIP3    H243082   2.772   5.521   4.414  1.6349 -1.4910 -0.8264
 7223TIP3   OH243083   0.399   1.455   0.050  0.5131 -0.6967  0.0857
 7223TIP3    H143084   0.421   1.529  -0.007  0.6122 -1.3597 -0.7587
 7223TIP3    H243085   0.475   1.398   0.046  0.9991 -0.2321  1.8058
 7224TIP3   OH243086   6.192   5.362   0.316 -0.2520 -0.5177 -0.4909
 7224TIP3    H143087   6.172   5.456   0.315 -2.8484 -0.9853 -0.7296
 7224TIP3    H243088   6.239   5.348   0.398  0.5408  1.0320 -0.6490
 7225TIP3   OH243089   4.700   1.263  10.430 -0.0455 -0.5277  0.4066
 7225TIP3    H143090   4.742   1.345  10.401  0.1226 -0.5073  0.7002
 7225TIP3    H243091   4.615   1.290  10.464 -0.5896 -0.6484 -0.8110
 7226TIP3   OH243092   0.659   2.024  10.352 -0.0836 -0.8744  0.5502
 7226TIP3    H143093   0.664   2.116  10.377  0.8195 -0.8903  0.4672
 7226TIP3    H243094   0.737   2.010  10.298  0.2371 -1.8880  1.2447
 7227TIP3   OH243095   0.553   3.447  15.154 -0.3759 -0.3909 -0.4678
 7227TIP3    H143096   0.574   3.539  15.172  2.2525 -0.3060 -3.2084
 7227TIP3    H243097   0.586   3.400  15.230  1.4580  0.6647 -0.5493
 7228TIP3   OH243098   4.611   7.034  12.674  0.2236  0.6735 -0.2493
 7228TIP3    H143099   4.571   7.096  12.736  1.0507  0.0615  0.9359
 7228TIP3    H243100   4.653   6.969  12.730 -0.9783 -1.2155 -1.4509
 7229TIP3   OH243101   1.786   4.773  13.543  0.1329  0.0569  0.3647
 7229TIP3    H143102   1.843   4.789  13.468  0.0146  0.2002  0.3070
 7229TIP3    H243103   1.720   4.711  13.510  0.0230  0.1963  0.3237
 7230TIP3   OH243104   6.568   3.677   9.923 -0.2475 -0.5963 -0.6275
 7230TIP3    H143105   6.494   3.616   9.927 -0.2198 -0.6681 -1.2039
 7230TIP3    H243106   6.589   3.685   9.830 -0.7195  0.8604 -0.6378
 7231TIP3   OH243107   6.990   4.122  14.862 -0.2583 -0.1236 -0.0055
 7231TIP3    H143108   6.983   4.200  14.917 -0.8788  0.1194 -0.4080
 7231TIP3    H243109   7.073   4.081  14.886 -0.2165  0.3396  0.6315
 7232TIP3   OH243110   6.926   0.539  12.480  0.1260  0.1367 -0.3909
 7232TIP3    H143111   6.946   0.562  12.389 -1.6189 -0.1554 -0.8658
 7232TIP3    H243112   6.931   0.444  12.483 -0.4196  0.1062 -0.3407
 7233TIP3   OH243113   3.105   4.095  10.797  0.6077 -0.6110 -0.0736
 7233TIP3    H143114   3.050   4.166  10.830  1.1121 -0.8395  1.3425
 7233TIP3    H243115   3.140   4.127  10.714  0.5515  0.6549  0.3821
 7234TIP3   OH243116   6.731   2.841   1.454 -0.0746  0.0556 -0.2540
 7234TIP3    H143117   6.754   2.753   1.482  0.7325  0.0832 -0.7756
 7234TIP3    H243118   6.674   2.875   1.523  2.2878  0.3486  1.6938
 7235TIP3   OH243119   0.944   6.416  10.567 -0.3164 -0.3455  0.4190
 7235TIP3    H143120   0.926   6.428  10.474 -2.3066 -0.2554  0.7796
 7235TIP3    H243121   0.915   6.497  10.608 -2.1783 -1.4531  1.4154
 7236TIP3   OH243122   0.047   0.324   0.449 -0.1381  0.0268 -0.3237
 7236TIP3    H143123   0.064   0.361   0.536 -2.5105  0.6392 -0.0314
 7236TIP3    H243124   0.132   0.293   0.418  0.6915 -0.7101  2.4392
 7237TIP3   OH243125   4.836   5.473   1.856  0.4150 -0.1432 -0.0509
 7237TIP3    H143126   4.803   5.455   1.944  1.9324  1.9774  1.0356
 7237TIP3    H243127   4.930   5.484   1.867  0.6849 -0.1808 -2.0260
 7238TIP3   OH243128   1.610   0.375   5.520  0.1370 -0.1935  0.1112
 7238TIP3    H143129   1.632   0.399   5.430 -1.0389  1.4791  0.2156
 7238TIP3    H243130   1.528   0.326   5.513 -0.7161  1.1498  0.3341
 7239TIP3   OH243131   1.752   7.075   0.493 -0.4868 -0.5427 -0.0926
 7239TIP3    H143132   1.685   7.009   0.513 -0.0283 -0.7030  0.9705
 7239TIP3    H243133   1.792   7.045   0.412 -2.5812  0.2510 -1.4841
 7240TIP3   OH243134   2.345   4.160  15.352 -0.4387 -0.0018  0.1780
 7240TIP3    H143135   2.311   4.147  15.441  0.0837 -0.4891  0.3165
 7240TIP3    H243136   2.419   4.219  15.363  0.7999 -1.5426  0.3335
 7241TIP3   OH243137   0.978   0.099   2.175  0.1607 -0.0233  0.5314
 7241TIP3    H143138   0.901   0.129   2.223 -0.8354  1.5096 -1.8308
 7241TIP3    H243139   0.957   0.008   2.150 -2.5859  1.3220 -2.9282
 7242TIP3   OH243140   1.841   2.498   4.621  0.7365  0.0960 -0.0387
 7242TIP3    H143141   1.828   2.431   4.688  0.6125 -0.7314 -0.8640
 7242TIP3    H243142   1.849   2.448   4.539  1.6164  1.0297 -0.5449
 7243TIP3   OH243143   0.374   3.115  13.284  0.0928  0.2061  0.3955
 7243TIP3    H143144   0.400   3.188  13.228  0.3748  2.1763  2.8649
 7243TIP3    H243145   0.329   3.054  13.226  0.9753  1.7347 -2.0415
 7244TIP3   OH243146   5.115   4.525  13.659  0.4445  0.3068 -0.7626
 7244TIP3    H143147   5.082   4.538  13.748  0.2925  1.0657 -0.9262
 7244TIP3    H243148   5.210   4.519  13.669  0.6352  2.4897 -0.7519
 7245TIP3   OH243149   4.752   2.939   3.054 -0.6137 -0.0619  0.0670
 7245TIP3    H143150   4.809   3.003   3.012 -0.8879  0.1763  0.0504
 7245TIP3    H243151   4.762   2.859   3.001  1.7282 -0.8835  1.5985
 7246TIP3   OH243152   5.739   1.126   0.329  0.5303 -0.2277 -0.0519
 7246TIP3    H143153   5.752   1.068   0.253  1.9433  2.2318 -1.8531
 7246TIP3    H243154   5.804   1.097   0.393  0.8759 -0.9388 -0.7114
 7247TIP3   OH243155   1.631   4.214   4.835 -0.0134  0.9161  0.0239
 7247TIP3    H143156   1.563   4.174   4.781 -0.3232  0.7907  0.5022
 7247TIP3    H243157   1.597   4.301   4.856  0.3754  1.1966 -0.4804
 7248TIP3   OH243158   6.059   5.518   5.228  0.5497  0.3776  0.2441
 7248TIP3    H143159   6.119   5.492   5.159 -0.2563 -2.6801  0.5740
 7248TIP3    H243160   6.059   5.445   5.290 -2.6320  0.6949  0.8038
 7249TIP3   OH243161   1.986   1.625  12.438 -0.0855  0.2662  0.1757
 7249TIP3    H143162   1.895   1.645  12.416 -0.0378 -1.1104 -1.5149
 7249TIP3    H243163   1.985   1.533  12.466  0.8484  0.0001 -0.5745
 7250TIP3   OH243164   7.084   2.828  11.114 -0.4731 -0.1424 -0.2609
 7250TIP3    H143165   7.081   2.922  11.100  1.6290 -0.1194 -0.8780
 7250TIP3    H243166   7.161   2.813  11.169  0.1949 -1.6116 -1.5038
 7251TIP3   OH243167   5.051   4.379  12.131  0.0717 -0.3054  0.5064
 7251TIP3    H143168   5.054   4.297  12.081  0.5478 -0.0305  0.0738
 7251TIP3    H243169   5.062   4.352  12.222  2.1667 -0.5766  0.2172
 7252TIP3   OH243170   0.693   6.604   1.427 -0.3023 -0.5107  0.4329
 7252TIP3    H143171   0.669   6.524   1.474  0.1994 -0.8684  0.1015
 7252TIP3    H243172   0.655   6.675   1.478  0.8714 -0.8242  1.8200
 7253TIP3   OH243173   4.320   5.098  13.540 -0.0419  0.0720  0.5415
 7253TIP3    H143174   4.372   5.147  13.604 -1.0733  1.8550  0.1035
 7253TIP3    H243175   4.323   5.152  13.461 -1.8705 -0.1709  0.2676
 7254TIP3   OH243176   0.567   3.892  11.925 -0.3266 -0.1781  0.4588
 7254TIP3    H143177   0.550   3.875  12.018  0.6596  1.8587  1.0690
 7254TIP3    H243178   0.492   3.942  11.895  0.3430  1.0698  0.7835
 7255TIP3   OH243179   6.935   6.481  12.429 -0.3300  0.2655  0.3734
 7255TIP3    H143180   6.922   6.499  12.522  1.5155  2.1647  0.3392
 7255TIP3    H243181   7.029   6.467  12.420 -0.3179  1.1646 -1.3562
 7256TIP3   OH243182   2.189   2.838  10.202 -0.8554  0.0228  0.4809
 7256TIP3    H143183   2.160   2.782  10.274 -0.3141  1.0696  1.5521
 7256TIP3    H243184   2.278   2.808  10.184 -1.3503 -0.9211 -0.4751
 7257TIP3   OH243185   6.922   0.885  10.131 -0.7504 -0.2823 -0.1556
 7257TIP3    H143186   6.989   0.823  10.103 -0.4961 -0.8961  1.6492
 7257TIP3    H243187   6.871   0.836  10.196  0.3041  1.7616  2.3624
 7258TIP3   OH243188   0.422   3.914  13.572  0.8140  0.1858  0.3081
 7258TIP3    H143189   0.417   3.833  13.622 -1.2646  0.5344  0.7498
 7258TIP3    H243190   0.369   3.898  13.494  0.2917  1.1377  0.4521
 7259TIP3   OH243191   4.536   3.135   5.567  1.3463 -0.0007 -0.2131
 7259TIP3    H143192   4.567   3.199   5.504  0.3232  0.3680 -0.3518
 7259TIP3    H243193   4.450   3.167   5.595  1.2730 -0.7646  0.4946
 7260TIP3   OH243194   1.377   6.536   1.477  0.2998  0.3928 -0.4129
 7260TIP3    H143195   1.392   6.606   1.542  0.0289  0.2682 -0.2154
 7260TIP3    H243196   1.463   6.522   1.437  0.2300  1.2849 -0.9083
 7261TIP3   OH243197   6.775   6.285  11.091 -0.1794  0.5411  0.2795
 7261TIP3    H143198   6.725   6.367  11.101 -0.8344  0.0681  1.0200
 7261TIP3    H243199   6.851   6.296  11.149 -0.1737  0.6969  0.2420
 7262TIP3   OH243200   0.331   0.250   5.580 -0.1318 -0.4771  0.6383
 7262TIP3    H143201   0.323   0.342   5.605  1.3800 -0.1829  0.1592
 7262TIP3    H243202   0.420   0.226   5.606  0.3340 -1.1083 -1.3389
 7263TIP3   OH243203   6.508   3.155  14.442  0.2879 -0.1927  0.2989
 7263TIP3    H143204   6.438   3.189  14.386  0.3312  0.3241  0.5556
 7263TIP3    H243205   6.490   3.192  14.528  0.7016 -0.3106  0.4365
 7264TIP3   OH243206   5.073   3.407   3.012 -0.4780  0.2267 -0.2508
 7264TIP3    H143207   5.146   3.459   3.047 -1.3382  1.1273  0.2654
 7264TIP3    H243208   5.025   3.468   2.957 -0.3649 -0.6009 -1.2923
 7265TIP3   OH243209   2.108   0.076  14.918  0.1440  0.4685  0.0095
 7265TIP3    H143210   2.055   0.156  14.914  0.4806  0.6779 -3.9342
 7265TIP3    H243211   2.050   0.007  14.886  1.2014  0.0485 -1.0592
 7266TIP3   OH243212   0.453   3.533  11.313  0.0769  0.0980 -0.4804
 7266TIP3    H143213   0.485   3.616  11.350  2.0485 -0.0455 -1.7213
 7266TIP3    H243214   0.502   3.523  11.232  2.4616 -3.9265  1.2027
 7267TIP3   OH243215   2.557   1.886   3.712 -0.4486  0.0346  0.1612
 7267TIP3    H143216   2.508   1.874   3.630  0.5402 -2.1481 -0.1744
 7267TIP3    H243217   2.489   1.889   3.780 -1.1711 -2.2861 -0.3632
 7268TIP3   OH243218   3.654   0.048  13.693 -0.0887  0.0369  0.1571
 7268TIP3    H143219   3.648  -0.031  13.640 -3.3895 -0.1455  0.5646
 7268TIP3    H243220   3.730   0.034  13.750 -0.2595 -2.6204 -0.1458
 7269TIP3   OH243221   6.298   0.627  15.248  0.2451 -0.0491 -0.0419
 7269TIP3    H143222   6.351   0.695  15.290 -1.5723  1.0270  0.6190
 7269TIP3    H243223   6.291   0.656  15.157  3.1094 -1.7126 -0.9059
 7270TIP3   OH243224   7.018   6.386  13.565 -0.4905  0.1942  0.1516
 7270TIP3    H143225   7.028   6.426  13.652  1.2026  1.7013 -0.6693
 7270TIP3    H243226   6.951   6.319  13.577  0.1409 -0.0886  2.7711
 7271TIP3   OH243227   2.650   4.225   0.459 -0.1815  0.0922 -0.0767
 7271TIP3    H143228   2.653   4.258   0.549 -0.8691  1.2004 -0.4349
 7271TIP3    H243229   2.729   4.260   0.418 -0.5962  0.8049 -0.2858
 7272TIP3   OH243230   1.082   1.331  10.439 -0.3370  0.1015  0.4770
 7272TIP3    H143231   1.141   1.405  10.453  2.3864 -1.8976  0.4916
 7272TIP3    H243232   1.083   1.317  10.345  1.3802 -1.4670  0.6657
 7273TIP3   OH243233   6.132   0.834   4.503  0.1611 -0.0449  0.3828
 7273TIP3    H143234   6.053   0.871   4.465 -0.5065 -1.1399  0.6800
 7273TIP3    H243235   6.192   0.909   4.509 -0.7215  0.7327 -0.1422
 7274TIP3   OH243236   4.060   6.989  15.312 -0.5262  0.2942  0.3875
 7274TIP3    H143237   4.144   7.032  15.296 -1.2623  1.8357  0.4654
 7274TIP3    H243238   4.045   6.937  15.233  1.0639 -1.0260  0.8983
 7275TIP3   OH243239   6.667   3.386   3.725 -0.0603  0.0371 -0.3092
 7275TIP3    H143240   6.602   3.450   3.755 -0.5752 -0.5647 -0.1011
 7275TIP3    H243241   6.721   3.369   3.802  0.5902  0.8111 -0.5799
 7276TIP3   OH243242   2.104   2.428   2.069  0.0074  0.2585  0.4596
 7276TIP3    H143243   2.102   2.523   2.059 -0.6966  0.0782 -1.8310
 7276TIP3    H243244   2.081   2.394   1.982  0.4208 -2.0167  1.1532
 7277TIP3   OH243245   5.303   1.240  13.169  0.3021  0.0326 -0.7095
 7277TIP3    H143246   5.237   1.221  13.103  0.4143  0.8142 -1.0567
 7277TIP3    H243247   5.259   1.223  13.252 -0.4961  0.9474 -0.9226
 7278TIP3   OH243248   6.896   6.996   1.000 -0.0702  0.5409  0.1056
 7278TIP3    H143249   6.853   7.049   1.067 -0.8734 -0.6142  0.5324
 7278TIP3    H243250   6.824   6.951   0.955  0.5195  0.5886 -0.9377
 7279TIP3   OH243251   3.335   6.679  12.633 -0.4726  0.0699 -0.1177
 7279TIP3    H143252   3.278   6.682  12.556 -0.8797  0.6584  0.1972
 7279TIP3    H243253   3.347   6.586  12.651 -2.2950 -0.0869  0.5081
 7280TIP3   OH243254   4.483   2.035   5.397 -0.2091 -0.0914  0.0053
 7280TIP3    H143255   4.528   1.956   5.368 -0.4348 -0.1228 -0.2594
 7280TIP3    H243256   4.527   2.058   5.479  0.6492  0.1709 -0.5073
 7281TIP3   OH243257   0.616   6.153  11.572 -0.3574  0.0801 -0.1340
 7281TIP3    H143258   0.583   6.090  11.637  0.7262 -1.6503 -1.1849
 7281TIP3    H243259   0.671   6.213  11.622 -0.1970 -0.7187  0.6662
 7282TIP3   OH243260   5.396   0.146   4.229  0.2079 -0.6556  0.4064
 7282TIP3    H143261   5.475   0.104   4.195  1.4485  1.2448  0.7922
 7282TIP3    H243262   5.351   0.180   4.151  0.5424 -0.4570  0.3009
 7283TIP3   OH243263   1.532   0.617   3.352 -0.2659  0.4339 -0.2943
 7283TIP3    H143264   1.552   0.549   3.288  1.5240  2.0683 -1.5832
 7283TIP3    H243265   1.540   0.573   3.437 -0.3536 -1.2203 -1.1059
 7284TIP3   OH243266   2.542   3.872   3.572 -0.5288  0.5607  0.0261
 7284TIP3    H143267   2.486   3.803   3.538 -0.2453 -0.0043  0.6772
 7284TIP3    H243268   2.497   3.953   3.548 -0.1090  0.2242 -2.0715
 7285TIP3   OH243269   2.515   0.129  14.663  0.5136  0.8057  0.2896
 7285TIP3    H143270   2.611   0.127  14.672  0.4159  0.7389  1.4215
 7285TIP3    H243271   2.483   0.134  14.753 -0.5762 -0.0919 -0.0379
 7286TIP3   OH243272   2.124   1.307  11.159  0.2703  0.5120  0.1024
 7286TIP3    H143273   2.058   1.243  11.185  0.8815  0.9701  3.3254
 7286TIP3    H243274   2.094   1.342  11.075 -2.1483 -1.1534  0.1972
 7287TIP3   OH243275   5.386   2.113   0.698  0.0685  0.0700 -0.3692
 7287TIP3    H143276   5.306   2.121   0.647 -0.6036 -0.3870  0.5875
 7287TIP3    H243277   5.374   2.173   0.771  1.4679  1.5116 -1.2415
 7288TIP3   OH243278   4.694   2.160   5.100  0.2475  0.0096  0.1598
 7288TIP3    H143279   4.715   2.095   5.167 -0.6151 -0.5088 -0.0509
 7288TIP3    H243280   4.708   2.244   5.142  0.7336 -0.3078  0.6512
 7289TIP3   OH243281   4.956   4.518  13.072  0.3059 -0.6844  0.0299
 7289TIP3    H143282   4.928   4.499  13.161 -0.3580  1.7686  0.4142
 7289TIP3    H243283   5.042   4.479  13.065  0.4335 -0.7958  1.8147
 7290TIP3   OH243284   4.725   4.325  14.690  0.1252  0.4001 -0.3731
 7290TIP3    H143285   4.786   4.325  14.764  0.3127 -0.2660 -0.5277
 7290TIP3    H243286   4.647   4.281  14.724 -0.0050  0.6096 -0.3977
 7291TIP3   OH243287   3.687   3.148  12.030 -0.5863  0.1641 -0.4124
 7291TIP3    H143288   3.768   3.160  12.079  0.4877  0.4648 -2.1989
 7291TIP3    H243289   3.649   3.236  12.026 -1.0190  0.0233  0.4234
 7292TIP3   OH243290   6.671   5.932   3.663  0.3154 -0.1533 -0.4103
 7292TIP3    H143291   6.734   5.946   3.734  0.0523  2.8056 -0.6503
 7292TIP3    H243292   6.586   5.928   3.706  0.2235  0.9464 -0.4618
 7293TIP3   OH243293   3.326   3.239  14.756 -0.3594 -0.1248  0.2633
 7293TIP3    H143294   3.301   3.159  14.801  1.5368 -0.7892  0.2125
 7293TIP3    H243295   3.406   3.216  14.708 -0.5328  1.4281 -0.8525
 7294TIP3   OH243296   5.559   3.589  14.345 -0.1034 -0.1765 -0.2236
 7294TIP3    H143297   5.513   3.565  14.265 -0.5577 -0.2607  0.0589
 7294TIP3    H243298   5.640   3.537  14.343 -0.9603 -1.5652  0.2660
 7295TIP3   OH243299   4.578   1.070  13.372  0.2173  0.0374  0.2572
 7295TIP3    H143300   4.618   1.073  13.459 -0.6295 -1.5404  0.7417
 7295TIP3    H243301   4.485   1.089  13.389 -0.1092 -1.1054 -0.1553
 7296TIP3   OH243302   3.295   0.712   3.390 -0.1829 -0.6604  0.1977
 7296TIP3    H143303   3.236   0.775   3.431  1.2856  0.7430  0.2799
 7296TIP3    H243304   3.356   0.687   3.460 -0.5307 -1.9142  0.0668
 7297TIP3   OH243305   6.901   1.132   4.075  0.1469 -0.9106 -0.1679
 7297TIP3    H143306   6.861   1.189   4.010 -0.2325 -1.6479 -0.5846
 7297TIP3    H243307   6.865   1.163   4.159 -0.7607 -1.1276 -0.4738
 7298TIP3   OH243308   1.182   4.968  14.186 -0.0828  0.5713  0.0567
 7298TIP3    H143309   1.179   5.019  14.267  0.5574  0.6923  0.0104
 7298TIP3    H243310   1.262   4.997  14.143  1.1968 -1.6777  0.7965
 7299TIP3   OH243311   6.024   1.455   0.181 -0.0056  0.0310  0.1292
 7299TIP3    H143312   6.022   1.460   0.276  0.4665 -2.4115  0.3370
 7299TIP3    H243313   5.944   1.406   0.158 -0.4044  1.0789 -0.7934
 7300TIP3   OH243314   5.230   2.028  14.420 -0.0358  0.4308 -0.0926
 7300TIP3    H143315   5.201   2.119  14.414  2.0567  1.0926 -0.9468
 7300TIP3    H243316   5.196   1.998  14.505 -0.4609  2.0930  0.3669
 7301TIP3   OH243317   1.455   3.741  12.716 -0.2911 -0.0283 -0.2483
 7301TIP3    H143318   1.422   3.671  12.660 -2.4683 -0.3482  1.3173
 7301TIP3    H243319   1.403   3.735  12.796  0.4160  2.4991  0.5003
 7302TIP3   OH243320   6.009   1.189   5.168 -0.3080 -0.4502  0.5818
 7302TIP3    H143321   6.077   1.205   5.233  1.0552 -0.3389 -0.8077
 7302TIP3    H243322   5.927   1.195   5.217  0.6824 -0.9850  2.3881
 7303TIP3   OH243323   4.147   5.886  15.639  0.1637  0.5421  0.2294
 7303TIP3    H143324   4.111   5.800  15.619 -1.4101  0.8228  1.6043
 7303TIP3    H243325   4.207   5.872  15.712  1.9433  0.2628 -1.2385
 7304TIP3   OH243326   0.824   3.352  11.873 -0.1243  0.2523  0.1966
 7304TIP3    H143327   0.826   3.302  11.955  1.4790  0.4389  0.3051
 7304TIP3    H243328   0.886   3.424  11.887  0.9950 -0.3122 -1.5314
 7305TIP3   OH243329   4.398   3.272   4.880  0.4530  0.2475  0.4524
 7305TIP3    H143330   4.429   3.358   4.909 -1.4853  1.5933 -1.2786
 7305TIP3    H243331   4.474   3.233   4.836  1.4088  0.9319  1.4285
 7306TIP3   OH243332   6.355   1.289  12.483 -0.2585 -0.0769 -0.1025
 7306TIP3    H143333   6.310   1.229  12.423  0.3672 -0.3593 -0.2952
 7306TIP3    H243334   6.425   1.328  12.430  0.4244 -0.4718  0.4864
 7307TIP3   OH243335   6.372   6.051  15.194  0.7895  0.1293 -0.3737
 7307TIP3    H143336   6.449   6.013  15.237  0.7029 -0.1773 -0.4866
 7307TIP3    H243337   6.342   5.982  15.134 -1.0993 -0.7701  1.4835
 7308TIP3   OH243338   3.077   4.633   4.354  0.1065  0.0374  0.1504
 7308TIP3    H143339   3.065   4.664   4.444 -0.6883  0.0233  0.0524
 7308TIP3    H243340   2.992   4.596   4.329  0.4447 -0.3551 -0.4564
 7309TIP3   OH243341   1.657   0.462  10.395  0.7147 -0.1122  0.4778
 7309TIP3    H143342   1.660   0.467  10.299 -0.9195  2.5427  0.4738
 7309TIP3    H243343   1.594   0.393  10.414 -0.1771  0.4373 -0.4168
 7310TIP3   OH243344   2.840   4.101  13.260  0.0628 -0.2628 -0.0340
 7310TIP3    H143345   2.802   4.048  13.191 -0.6479  2.6790 -2.1018
 7310TIP3    H243346   2.925   4.128  13.225 -0.3760  1.3961  0.0928
 7311TIP3   OH243347   0.994   5.964   1.019  0.7378 -0.1269  0.3165
 7311TIP3    H143348   0.914   6.016   1.031  1.2475  1.3950 -2.1436
 7311TIP3    H243349   1.016   5.933   1.107 -3.9057 -2.7768  0.8687
 7312TIP3   OH243350   7.056   5.097   9.423 -0.2731 -0.1813  0.3005
 7312TIP3    H143351   7.055   5.135   9.511 -0.5536 -0.8829  0.6058
 7312TIP3    H243352   7.097   5.012   9.434  0.8326  0.2339 -0.4770
 7313TIP3   OH243353   0.791   3.340  13.592 -0.2973 -0.2293  0.0496
 7313TIP3    H143354   0.702   3.317  13.618 -0.4306  1.4119  1.2104
 7313TIP3    H243355   0.781   3.411  13.529  0.1853  0.2683  0.5197
 7314TIP3   OH243356   5.443   3.003   3.935 -0.2351  0.4713  0.7242
 7314TIP3    H143357   5.522   2.958   3.906  0.0508  0.3174  1.6870
 7314TIP3    H243358   5.379   2.932   3.948 -0.0340  0.4090  1.4554
 7315TIP3   OH243359   1.253   3.342  13.006 -0.4271 -1.2169 -0.9279
 7315TIP3    H143360   1.207   3.302  12.932 -0.7786 -1.7700 -0.4089
 7315TIP3    H243361   1.346   3.327  12.986 -0.4982 -0.9793 -1.4738
 7316TIP3   OH243362   6.083   5.619   2.451 -0.3547  0.0357  0.0557
 7316TIP3    H143363   6.089   5.712   2.429 -0.9753  0.0634 -0.0215
 7316TIP3    H243364   6.118   5.613   2.540 -0.6349  0.4007  0.1949
 7317TIP3   OH243365   5.051   3.529   4.534 -0.0303  0.4916 -0.1830
 7317TIP3    H143366   4.987   3.596   4.511 -2.2751 -1.3767  0.3058
 7317TIP3    H243367   5.132   3.558   4.491 -0.4287  4.2305  1.1577
 7318TIP3   OH243368   0.114   0.401   0.694 -0.0088  0.1630 -0.1705
 7318TIP3    H143369   0.082   0.312   0.708 -0.6149  0.4483  0.3033
 7318TIP3    H243370   0.130   0.435   0.782 -1.0753  0.9800 -0.2685
 7319TIP3   OH243371   4.944   4.331   9.901  0.0925  0.2656  0.5231
 7319TIP3    H143372   5.025   4.302   9.860  0.7731  0.0500  1.9298
 7319TIP3    H243373   4.905   4.250   9.935 -1.0281  0.2918 -0.6333
 7320TIP3   OH243374   6.862   4.024  11.116  0.1696 -0.4834 -1.1017
 7320TIP3    H143375   6.873   3.963  11.043 -1.6522 -0.3870 -1.5146
 7320TIP3    H243376   6.767   4.037  11.122  0.3258  0.1068  0.8041
 7321TIP3   OH243377   6.421   2.774  12.312 -0.2672  0.6176 -0.5863
 7321TIP3    H143378   6.425   2.698  12.255 -0.6313 -0.5788  0.9194
 7321TIP3    H243379   6.477   2.839  12.270  0.9659 -0.8753 -1.3287
 7322TIP3   OH243380   2.756   3.441  15.063 -0.1612 -0.3917  0.9370
 7322TIP3    H143381   2.828   3.484  15.109 -0.1678  0.4605  0.1940
 7322TIP3    H243382   2.785   3.437  14.972  0.3885 -3.1992  1.1590
 7323TIP3   OH243383   2.359   2.338   3.712  0.0885  0.4507 -0.2549
 7323TIP3    H143384   2.269   2.336   3.744  0.3055  1.8184  0.5373
 7323TIP3    H243385   2.410   2.297   3.783  0.3460  1.8080  0.3821
 7324TIP3   OH243386   1.097   2.167  10.177 -0.0152 -1.0302 -0.2568
 7324TIP3    H143387   1.091   2.210  10.092 -0.6559 -2.0468 -0.7457
 7324TIP3    H243388   1.177   2.114  10.172 -0.4184 -1.6250 -0.4889
 7325TIP3   OH243389   0.418   6.786  13.458  0.1043 -0.4207  0.4086
 7325TIP3    H143390   0.338   6.763  13.505 -0.8372  0.2055 -0.8148
 7325TIP3    H243391   0.446   6.868  13.497 -0.0526 -0.4634  0.6124
 7326TIP3   OH243392   1.027   1.644   5.099 -0.2145  0.0203  0.4951
 7326TIP3    H143393   0.983   1.682   5.023  0.6795 -0.2913 -0.1976
 7326TIP3    H243394   1.089   1.712   5.127  1.4021 -0.8494 -0.7585
 7327TIP3   OH243395   5.356   5.244   6.296  0.2214 -0.1189 -0.0420
 7327TIP3    H143396   5.285   5.188   6.262 -0.7030  0.5025  0.8031
 7327TIP3    H243397   5.314   5.329   6.311  1.3727  0.5220 -0.3535
 7328TIP3   OH243398   2.075   3.946  10.332  0.5000  0.0330  0.5063
 7328TIP3    H143399   2.101   3.966  10.242  2.0457  0.4251  0.9963
 7328TIP3    H243400   2.158   3.937  10.379 -0.2745 -0.2817  1.8704
 7329TIP3   OH243401   3.009   6.782  11.527 -0.4926  0.0885  0.2744
 7329TIP3    H143402   2.977   6.815  11.444  1.0045 -0.6815 -0.6507
 7329TIP3    H243403   3.089   6.832  11.544  0.6993 -1.5936 -0.1458
 7330TIP3   OH243404   0.047   2.758  10.257 -0.1596 -0.5928  0.2207
 7330TIP3    H143405   0.113   2.811  10.300 -0.3340 -0.7930  0.7395
 7330TIP3    H243406  -0.036   2.792  10.289 -0.3158 -0.2709 -0.5131
 7331TIP3   OH243407   1.582   1.904   2.125  0.1050 -0.2359  0.0894
 7331TIP3    H143408   1.645   1.975   2.121 -1.5202  1.2105 -1.1213
 7331TIP3    H243409   1.498   1.947   2.139 -0.6181 -2.1351  2.1337
 7332TIP3   OH243410   0.662   3.678  12.629  0.1796  0.2767  0.0568
 7332TIP3    H143411   0.725   3.624  12.677  0.0478  1.1865  1.2999
 7332TIP3    H243412   0.576   3.643  12.654  0.0890 -1.8726 -2.6938
 7333TIP3   OH243413   5.262   6.761  15.409  0.0774 -0.1997  0.4918
 7333TIP3    H143414   5.293   6.851  15.416 -2.8549  0.8996  0.6979
 7333TIP3    H243415   5.287   6.721  15.492  2.0462  0.1264  0.1210
 7334TIP3   OH243416   7.100   6.200  13.217  0.5380  0.1728 -0.4770
 7334TIP3    H143417   7.021   6.247  13.245  0.0029  0.0319 -1.6750
 7334TIP3    H243418   7.150   6.264  13.166  0.0005 -0.3947 -1.7695
 7335TIP3   OH243419   3.716   5.037   0.609  0.1077  0.4967  0.0512
 7335TIP3    H143420   3.672   4.979   0.546  1.7182  0.1841 -0.8499
 7335TIP3    H243421   3.679   5.123   0.591  0.9933  0.5424 -1.8497
 7336TIP3   OH243422   1.406   2.253  13.443  0.5152 -0.4515 -0.2770
 7336TIP3    H143423   1.475   2.319  13.439  0.2564 -0.1398  0.1931
 7336TIP3    H243424   1.375   2.256  13.534  0.5275 -1.2563 -0.2401
 7337TIP3   OH243425   5.274   2.816  11.203  0.4713 -0.5064  0.2335
 7337TIP3    H143426   5.265   2.759  11.127  3.1177  0.1497 -0.6680
 7337TIP3    H243427   5.184   2.830  11.233 -0.4145 -3.4869 -0.6875
 7338TIP3   OH243428   4.219   5.140   0.455 -0.7752  0.2324 -0.2213
 7338TIP3    H143429   4.145   5.123   0.514  0.3230  0.1370  1.1862
 7338TIP3    H243430   4.263   5.055   0.446 -0.3509  0.4601 -0.3408
 7339TIP3   OH243431   4.557   6.061  14.457  0.1582  0.3432 -0.0253
 7339TIP3    H143432   4.639   6.012  14.460 -0.7135 -1.1739  0.2282
 7339TIP3    H243433   4.508   6.032  14.534 -0.7116  1.0412 -0.2885
 7340TIP3   OH243434   7.037   0.992  15.404  0.0369 -0.1080  0.0686
 7340TIP3    H143435   7.014   1.068  15.352 -1.5676 -1.6516 -1.5990
 7340TIP3    H243436   7.133   0.996  15.412 -0.0865  2.6467  1.0526
 7341TIP3   OH243437   6.616   5.183   3.688  0.1586 -0.3286 -0.0612
 7341TIP3    H143438   6.681   5.245   3.724  0.0177 -1.0465  1.5134
 7341TIP3    H243439   6.585   5.135   3.765  0.4432 -2.5343 -1.2682
 7342TIP3   OH243440   5.998   1.938  11.361  0.2349  0.0741 -0.1969
 7342TIP3    H143441   6.011   2.026  11.324 -1.3030 -0.0698 -1.1358
 7342TIP3    H243442   5.909   1.939  11.396  0.6589 -0.7244  0.9916
 7343TIP3   OH243443   6.894   5.519   0.752  0.0082  0.1632  0.5517
 7343TIP3    H143444   6.975   5.476   0.779 -0.6088 -0.9176  0.7601
 7343TIP3    H243445   6.879   5.587   0.818  0.8972  0.5821  0.3322
 7344TIP3   OH243446   4.990   2.572   2.712  0.0226  0.1965  0.0212
 7344TIP3    H143447   4.977   2.551   2.805  1.8533 -2.0189 -0.1336
 7344TIP3    H243448   5.026   2.660   2.713  1.1763 -0.2371  1.5434
 7345TIP3   OH243449   1.066   1.071   3.094  0.2014  0.3535 -0.0275
 7345TIP3    H143450   1.032   1.118   3.171 -0.1963 -0.2808  0.1854
 7345TIP3    H243451   1.034   0.982   3.104  2.0169 -0.3149  0.2522
 7346TIP3   OH243452   0.603   5.613   1.151 -0.1394 -0.3900  0.8188
 7346TIP3    H143453   0.585   5.678   1.084  0.8726 -0.4949  0.4219
 7346TIP3    H243454   0.605   5.662   1.233  0.1049 -0.0005  0.5828
 7347TIP3   OH243455   5.273   5.746   5.534 -0.2661  0.1200  0.1365
 7347TIP3    H143456   5.330   5.765   5.609  0.9705 -1.2360 -0.4175
 7347TIP3    H243457   5.213   5.679   5.567  0.1033 -0.2768  0.0274
 7348TIP3   OH243458   3.634   2.885   5.248  0.3229 -0.1017 -0.0433
 7348TIP3    H143459   3.634   2.850   5.159 -0.4083 -1.8385  0.5919
 7348TIP3    H243460   3.553   2.935   5.255  1.6964  2.5302 -1.1762
 7349TIP3   OH243461   5.425   4.287   4.153 -0.2487 -0.6391 -0.0978
 7349TIP3    H143462   5.486   4.215   4.136  0.2300 -0.4455  0.7141
 7349TIP3    H243463   5.387   4.308   4.067  1.4931 -0.1810 -0.8012
 7350TIP3   OH243464   7.042   3.833   1.161 -0.4650 -0.1703 -0.0344
 7350TIP3    H143465   7.005   3.920   1.145 -0.3754 -0.2535 -0.7481
 7350TIP3    H243466   7.050   3.827   1.256 -0.8187  0.4563  0.0409
 7351TIP3   OH243467   2.108   0.647  14.788 -0.0988  0.1997  0.9501
 7351TIP3    H143468   2.095   0.632  14.882 -1.3344  0.5095  0.8532
 7351TIP3    H243469   2.082   0.738  14.775 -1.1887 -0.2034  0.1169
 7352TIP3   OH243470   2.324   5.006  13.527 -0.0949  0.7559 -0.0138
 7352TIP3    H143471   2.392   5.069  13.503 -0.2490  1.3180  0.9669
 7352TIP3    H243472   2.246   5.036  13.481 -0.0471  0.9938  0.0597
 7353TIP3   OH243473   3.166   5.797  13.318  0.0761  0.6287  0.2435
 7353TIP3    H143474   3.216   5.782  13.237 -0.0511  0.2047  0.2394
 7353TIP3    H243475   3.182   5.719  13.370 -1.1595  0.1577 -0.0617
 7354TIP3   OH243476   4.439   0.780   4.603 -0.1126  0.0177 -0.3726
 7354TIP3    H143477   4.452   0.824   4.519 -2.8715  0.4897 -0.6337
 7354TIP3    H243478   4.501   0.706   4.601 -0.1164  0.0108 -2.8321
 7355TIP3   OH243479   0.979   5.733  13.432  0.3821  0.5632  0.1087
 7355TIP3    H143480   0.942   5.777  13.355 -0.4089  0.7928  0.6060
 7355TIP3    H243481   0.935   5.775  13.506 -0.0875 -0.7743  0.6109
 7356TIP3   OH243482   1.653   0.172   3.323  0.3437  0.3848  0.5470
 7356TIP3    H143483   1.632   0.245   3.265 -2.8744 -0.3759  0.6054
 7356TIP3    H243484   1.578   0.166   3.383  0.9609 -2.3595  1.1827
 7357TIP3   OH243485   5.665   2.064   0.733 -0.0119 -0.0911 -0.1325
 7357TIP3    H143486   5.720   2.107   0.668 -0.0540  0.7055  0.3494
 7357TIP3    H243487   5.575   2.081   0.703 -0.0174 -0.9588 -0.6423
 7358TIP3   OH243488   0.673   4.265  14.761 -0.4185 -0.1316  0.1508
 7358TIP3    H143489   0.579   4.257  14.775 -0.1253 -0.9231  2.0461
 7358TIP3    H243490   0.707   4.176  14.774  0.6823  0.2957  0.3558
 7359TIP3   OH243491   1.298   1.606  14.894  0.4085  0.6175  0.1670
 7359TIP3    H143492   1.341   1.589  14.810  2.0791  3.0956  0.4322
 7359TIP3    H243493   1.292   1.701  14.900 -1.7258  0.4620  1.9025
 7360TIP3   OH243494   0.062   1.407   0.405  0.0669  0.1106 -0.1380
 7360TIP3    H143495  -0.017   1.458   0.387 -0.1535 -0.3990 -0.6604
 7360TIP3    H243496   0.062   1.396   0.500 -0.4075  0.2541 -0.1166
 7361TIP3   OH243497   5.037   6.723  14.491  0.2438  0.0134  0.1284
 7361TIP3    H143498   5.040   6.670  14.411  0.1052 -1.8741  1.3183
 7361TIP3    H243499   5.128   6.752  14.504  0.1984  0.6938 -0.8948
 7362TIP3   OH243500   2.181   0.974  13.915  0.0357  0.3118  0.5609
 7362TIP3    H143501   2.102   0.930  13.947 -0.4912 -0.1904 -1.3365
 7362TIP3    H243502   2.253   0.929  13.960 -0.4839 -2.5817 -1.2616
 7363TIP3   OH243503   3.459   2.950  12.036  0.0809 -0.7449 -0.5582
 7363TIP3    H143504   3.509   3.022  11.999 -0.9021 -1.0645 -2.6849
 7363TIP3    H243505   3.417   2.908  11.960 -3.0037 -0.7791  0.9809
 7364TIP3   OH243506   0.046   4.648   2.748  0.2447  0.5843  0.4565
 7364TIP3    H143507   0.126   4.598   2.762  0.3766  1.2640  2.4041
 7364TIP3    H243508   0.011   4.662   2.836 -2.0213  0.3041 -0.3395
 7365TIP3   OH243509   2.430   1.743   4.545  0.6264 -0.2307  0.0190
 7365TIP3    H143510   2.499   1.804   4.571  0.3696  0.1594 -0.2026
 7365TIP3    H243511   2.463   1.657   4.570  0.1273  0.1640  2.2392
 7366TIP3   OH243512   3.907   1.404  11.908  0.0381  0.5613 -0.1277
 7366TIP3    H143513   3.837   1.465  11.885 -0.5411 -0.8616 -2.4019
 7366TIP3    H243514   3.866   1.341  11.966 -0.5563 -0.1349 -1.2683
 7367TIP3   OH243515   5.921   7.122   5.321 -0.3176  0.5020 -0.1458
 7367TIP3    H143516   5.960   7.192   5.374  0.6221 -0.3501  0.3195
 7367TIP3    H243517   5.863   7.076   5.382 -1.1385  1.0154 -0.5199
 7368TIP3   OH243518   4.592   2.380   0.170  0.2431 -0.4702 -0.3364
 7368TIP3    H143519   4.597   2.329   0.090 -1.3462  0.7783 -1.3019
 7368TIP3    H243520   4.652   2.337   0.231 -0.8436 -3.3053 -1.1457
 7369TIP3   OH243521   2.105   1.971  13.545 -0.1266  0.1823 -0.1653
 7369TIP3    H143522   2.098   1.876  13.536 -1.0916  0.1412  0.7314
 7369TIP3    H243523   2.082   1.988  13.637  2.3604  1.1001  0.3721
 7370TIP3   OH243524   1.604   5.232   0.102  0.6389  0.4081  0.2820
 7370TIP3    H143525   1.630   5.324   0.099  2.7046 -0.1398 -0.2060
 7370TIP3    H243526   1.614   5.207   0.193 -1.5752  1.0403  0.7684
 7371TIP3   OH243527   4.246   2.578   2.508  0.1403 -0.4341 -0.1175
 7371TIP3    H143528   4.268   2.670   2.498  2.1658 -0.7592  0.8500
 7371TIP3    H243529   4.287   2.553   2.591  0.1814 -2.3676 -0.6861
 7372TIP3   OH243530   0.045   6.961   3.810 -0.3190 -0.1515  0.1536
 7372TIP3    H143531  -0.024   6.997   3.865 -1.6898 -1.4627 -0.6196
 7372TIP3    H243532   0.081   7.036   3.763 -1.6553  0.4877  0.1176
 7373TIP3   OH243533   3.560   1.638  12.897  0.1421 -0.4790  0.8005
 7373TIP3    H143534   3.510   1.557  12.890 -1.1752  0.4285 -1.4537
 7373TIP3    H243535   3.508   1.702  12.848  2.6813  0.9590 -0.2091
 7374TIP3   OH243536   3.598   5.093  15.462 -0.2780 -0.6251 -0.0636
 7374TIP3    H143537   3.516   5.138  15.479  0.8065  0.9485  1.3039
 7374TIP3    H243538   3.575   5.000  15.464 -2.0135 -0.2284  0.1787
 7375TIP3   OH243539   1.536   6.675  14.064 -0.4415 -0.0301 -0.0933
 7375TIP3    H143540   1.603   6.678  13.995  0.3085  1.8222  0.6622
 7375TIP3    H243541   1.576   6.622  14.133  0.3176  1.1520  0.3973
 7376TIP3   OH243542   0.685   3.633   1.109  0.3648 -0.0205 -0.1745
 7376TIP3    H143543   0.747   3.622   1.037  0.4955 -0.5533  0.0147
 7376TIP3    H243544   0.695   3.553   1.161  1.5585  1.1185  1.4272
 7377TIP3   OH243545   3.467   2.687   2.178 -0.2424  0.1187 -0.4685
 7377TIP3    H143546   3.436   2.776   2.195 -1.8799 -1.0527  4.1105
 7377TIP3    H243547   3.392   2.644   2.136  1.3094  1.2032 -4.8485
 7378TIP3   OH243548   1.096   4.133  11.432  0.1911  0.3896 -0.1835
 7378TIP3    H143549   1.005   4.149  11.455  0.1738  1.2025 -0.7596
 7378TIP3    H243550   1.095   4.049  11.386 -0.1545  0.0645  0.4063
 7379TIP3   OH243551   3.214   6.393   4.779 -0.4301 -0.5699 -0.0589
 7379TIP3    H143552   3.217   6.488   4.770 -0.7413 -0.6711 -1.6827
 7379TIP3    H243553   3.306   6.367   4.790 -0.2583 -0.1252 -0.3974
 7380TIP3   OH243554   0.412   1.338   1.414  0.3191  0.2803  0.2568
 7380TIP3    H143555   0.384   1.363   1.326 -0.4572  0.1153  0.4495
 7380TIP3    H243556   0.508   1.336   1.409  0.3748  2.2212 -0.0444
 7381TIP3   OH243557   0.347   5.673   3.137  0.1420  0.1617  0.3881
 7381TIP3    H143558   0.338   5.667   3.042  0.3637  1.0561  0.2998
 7381TIP3    H243559   0.267   5.716   3.166  0.4596  0.6731  0.5093
 7382TIP3   OH243560   1.912   6.902  13.053 -0.3605  0.1673  0.0381
 7382TIP3    H143561   1.940   6.967  12.988 -1.2064  0.1033 -0.3995
 7382TIP3    H243562   1.981   6.836  13.052  0.2182  0.7587  0.0669
 7383TIP3   OH243563   5.588   5.973   3.708  0.1965 -0.2663 -0.1242
 7383TIP3    H143564   5.633   5.904   3.756 -1.3137 -1.2940 -0.1085
 7383TIP3    H243565   5.556   5.930   3.628  0.9782  0.9360 -1.1332
 7384TIP3   OH243566   2.117   1.221  15.305 -0.2330  0.3606 -0.2098
 7384TIP3    H143567   2.188   1.273  15.269 -0.0658 -0.6362 -1.3541
 7384TIP3    H243568   2.129   1.226  15.400  1.3416  0.2405 -0.3846
 7385TIP3   OH243569   2.737   5.008  11.467  0.6718 -0.6125  0.0455
 7385TIP3    H143570   2.726   5.072  11.397  0.7040 -2.9377 -2.2286
 7385TIP3    H243571   2.830   5.015  11.491  0.8997 -0.4588 -0.8561
 7386TIP3   OH243572   6.876   4.011   4.811 -0.2806  0.1871  0.1624
 7386TIP3    H143573   6.848   4.018   4.719  0.4265  0.6892 -0.0190
 7386TIP3    H243574   6.837   4.088   4.853 -0.8811 -0.2166  0.3701
 7387TIP3   OH243575   5.928   3.442   2.035  0.2766 -0.0060 -0.3689
 7387TIP3    H143576   5.871   3.386   2.088 -1.5206  1.7589 -0.3522
 7387TIP3    H243577   5.968   3.502   2.098 -0.4793  0.9436 -0.7763
 7388TIP3   OH243578   0.597   4.673   9.757  0.2929 -0.3649  0.4197
 7388TIP3    H143579   0.677   4.658   9.806  0.9779 -0.7241 -0.7776
 7388TIP3    H243580   0.540   4.720   9.818  1.1391 -0.7226  1.5163
 7389TIP3   OH243581   4.880   5.507  15.367 -0.4953 -0.1585 -0.1447
 7389TIP3    H143582   4.923   5.507  15.453 -1.4775 -0.5347  0.3578
 7389TIP3    H243583   4.888   5.597  15.337  0.7636 -0.2454 -0.1343
 7390TIP3   OH243584   6.749   3.894  13.084 -0.4591 -0.3780 -0.5763
 7390TIP3    H143585   6.664   3.930  13.059 -1.0236 -2.0802 -1.2536
 7390TIP3    H243586   6.775   3.840  13.009  1.1985  0.0481 -0.3476
 7391TIP3   OH243587   0.306   4.755  12.676 -0.1193  0.1283  0.0199
 7391TIP3    H143588   0.338   4.837  12.713  1.0730 -0.8654  1.3089
 7391TIP3    H243589   0.245   4.722  12.742 -0.0560 -0.3549 -0.1652
 7392TIP3   OH243590   0.794   3.735  12.329 -0.4724  0.0847 -0.0920
 7392TIP3    H143591   0.740   3.779  12.395  1.4985  1.5029  0.6767
 7392TIP3    H243592   0.858   3.686  12.380  0.2463  0.1122 -0.9464
 7393TIP3   OH243593   4.325   0.688   3.941  0.0679  0.2685  0.5506
 7393TIP3    H143594   4.229   0.684   3.940  0.0531  0.1694  1.3845
 7393TIP3    H243595   4.349   0.710   3.851 -0.7220 -0.0241  0.2564
 7394TIP3   OH243596   4.505   2.890  14.400 -0.6094  1.0440 -0.1580
 7394TIP3    H143597   4.568   2.962  14.405  1.1353 -0.4602  0.7295
 7394TIP3    H243598   4.507   2.863  14.308 -0.2164  1.2254 -0.2072
 7395TIP3   OH243599   4.750   4.529   0.438  0.5012  0.3141 -0.6964
 7395TIP3    H143600   4.776   4.620   0.452 -3.7567  1.5155  1.1422
 7395TIP3    H243601   4.710   4.529   0.351 -0.1651  0.4529 -0.4008
 7396TIP3   OH243602   0.891   6.369   3.964  0.1868  0.4307 -0.7142
 7396TIP3    H143603   0.948   6.299   3.932  0.3953  1.3755 -2.5758
 7396TIP3    H243604   0.924   6.448   3.920 -0.3937  1.6026  0.8885
 7397TIP3   OH243605   3.419   2.276  14.600 -0.8534 -0.6292  0.8510
 7397TIP3    H143606   3.425   2.246  14.510 -1.7806  2.0654 -0.2240
 7397TIP3    H243607   3.510   2.288  14.628 -0.5071  1.3761 -0.8760
 7398TIP3   OH243608   3.397   1.563  15.016  0.4232  0.2897  0.1979
 7398TIP3    H143609   3.427   1.596  14.931  0.6035  0.8122  0.4639
 7398TIP3    H243610   3.306   1.539  15.001 -0.6506  3.5707  0.6980
 7399TIP3   OH243611   6.136   1.151  14.088 -0.0659 -0.9238  0.4270
 7399TIP3    H143612   6.076   1.218  14.122  0.8405  0.1989 -0.1497
 7399TIP3    H243613   6.219   1.169  14.130 -0.0643 -2.4012  1.1204
 7400TIP3   OH243614   1.105   0.495  10.641 -0.0768 -0.2362  0.1487
 7400TIP3    H143615   1.127   0.569  10.697 -0.4033  0.0422 -0.0868
 7400TIP3    H243616   1.021   0.463  10.675  0.7582 -1.4364  1.1905
 7401TIP3   OH243617   1.729   4.944  13.085 -0.5673 -0.1958  0.7664
 7401TIP3    H143618   1.690   4.956  13.172  1.4347 -0.1263  1.7202
 7401TIP3    H243619   1.809   4.894  13.102 -0.0195  0.0097 -1.0209
 7402TIP3   OH243620   2.964   6.458   1.369  0.5134 -0.1694  0.3138
 7402TIP3    H143621   2.883   6.407   1.368 -0.4021  1.2402 -0.1260
 7402TIP3    H243622   2.999   6.445   1.457 -1.9043  1.7709  1.6953
 7403TIP3   OH243623   5.430   7.028  14.644 -0.3286  0.1746 -0.1310
 7403TIP3    H143624   5.349   7.009  14.691 -0.1402  0.2414  0.2284
 7403TIP3    H243625   5.437   7.123  14.645 -0.7169  0.2161 -0.9758
 7404TIP3   OH243626   4.689   0.650  12.766  0.7732  0.2784  0.0826
 7404TIP3    H143627   4.655   0.706  12.836  2.3191  0.3414  0.8343
 7404TIP3    H243628   4.648   0.565  12.781 -2.3144  1.3272 -1.6118
 7405TIP3   OH243629   4.333   0.156   3.635  0.1932  0.3506  0.0207
 7405TIP3    H143630   4.407   0.193   3.586 -0.7412  2.5048  0.1084
 7405TIP3    H243631   4.267   0.137   3.568  0.5668 -1.0057  0.0075
 7406TIP3   OH243632   5.102   6.575  10.295  0.0476  0.1531 -0.3811
 7406TIP3    H143633   5.186   6.551  10.258 -0.8805 -0.4975 -2.1539
 7406TIP3    H243634   5.037   6.529  10.242 -1.5457  2.3332 -0.4810
 7407TIP3   OH243635   0.930   6.491  12.241 -0.2046 -1.4493  0.2466
 7407TIP3    H143636   0.877   6.533  12.173 -0.9445 -2.3141  0.2722
 7407TIP3    H243637   0.869   6.474  12.313  0.7140  0.1232  1.4762
 7408TIP3   OH243638   3.180   2.387  10.928  0.1800 -0.0321 -0.2020
 7408TIP3    H143639   3.182   2.481  10.912 -1.0403  0.3271  1.4353
 7408TIP3    H243640   3.272   2.361  10.932  0.5276  1.0358 -0.9051
 7409TIP3   OH243641   6.720   5.330  14.163  0.7694  0.0371 -0.2435
 7409TIP3    H143642   6.653   5.379  14.116  0.1633 -0.6220 -0.0782
 7409TIP3    H243643   6.736   5.381  14.242  0.4733  0.2027 -0.2887
 7410TIP3   OH243644   6.753   6.367  10.409  0.2698 -0.2382 -0.1096
 7410TIP3    H143645   6.725   6.286  10.366  1.1482 -0.9796  0.6612
 7410TIP3    H243646   6.744   6.349  10.503 -0.2663  0.8389  0.0609
 7411TIP3   OH243647   1.875   5.892  15.475  0.2442 -0.3413 -0.1944
 7411TIP3    H143648   1.965   5.922  15.458  0.2944 -1.4513 -2.2475
 7411TIP3    H243649   1.882   5.838  15.553  0.9574  1.2100  0.8730
 7412TIP3   OH243650   5.552   1.096  14.516 -0.2994 -0.3830 -0.3682
 7412TIP3    H143651   5.554   1.190  14.499 -1.0519 -0.6091 -1.7896
 7412TIP3    H243652   5.478   1.084  14.576  1.4608  0.2231  2.1169
 7413TIP3   OH243653   0.105   5.450  13.692 -0.0230 -0.3666  0.3439
 7413TIP3    H143654   0.139   5.459  13.780 -0.9823 -2.2767  0.9815
 7413TIP3    H243655   0.046   5.524  13.680  1.8855  1.2420  0.3608
 7414TIP3   OH243656   0.031   6.055  11.843  0.3001  0.3439  0.3959
 7414TIP3    H143657  -0.004   6.010  11.920  1.9043 -1.5499  0.0964
 7414TIP3    H243658  -0.020   6.018  11.770  0.0066  0.7993  0.3686
 7415TIP3   OH243659   0.175   4.584  15.655 -0.5681  0.4151  0.0534
 7415TIP3    H143660   0.123   4.597  15.575  0.4881 -1.3179 -0.9887
 7415TIP3    H243661   0.115   4.542  15.716 -1.0161  0.4782 -0.3371
 7416TIP3   OH243662   1.311   2.838  15.056  0.2051 -0.0168 -0.2766
 7416TIP3    H143663   1.401   2.843  15.089  0.3887  0.8828 -0.8540
 7416TIP3    H243664   1.271   2.766  15.105  0.5501  1.0229  1.6100
 7417TIP3   OH243665   5.736   2.929  11.240  0.6217  0.0156 -0.2661
 7417TIP3    H143666   5.773   2.941  11.152 -1.0140  0.5915 -0.9092
 7417TIP3    H243667   5.647   2.963  11.234  0.6198  0.5409  1.7648
 7418TIP3   OH243668   6.647   2.164   0.460 -0.0024 -0.0846 -0.3539
 7418TIP3    H143669   6.645   2.251   0.500 -1.0883 -0.3063  0.1075
 7418TIP3    H243670   6.737   2.154   0.428  0.3312  0.9090  0.2395
 7419TIP3   OH243671   2.113   4.768   1.716  0.1969  0.0850 -0.2147
 7419TIP3    H143672   2.109   4.758   1.621  2.5397  1.4756 -0.5269
 7419TIP3    H243673   2.035   4.723   1.748 -0.2768 -1.0473 -2.7306
 7420TIP3   OH243674   0.181   1.422   4.111  0.6094  0.1475 -0.4269
 7420TIP3    H143675   0.169   1.438   4.204  2.5586 -1.0271  0.0869
 7420TIP3    H243676   0.105   1.370   4.085  0.7376 -0.7030  0.8357
 7421TIP3   OH243677   4.517   5.830   3.124  0.0375 -0.2961 -0.2591
 7421TIP3    H143678   4.587   5.877   3.168 -0.9662  0.0159  1.0748
 7421TIP3    H243679   4.560   5.781   3.054  1.6388 -0.5395  0.8610
 7422TIP3   OH243680   2.054   4.526  11.289  0.2052  0.2622 -0.2945
 7422TIP3    H143681   2.114   4.509  11.362  1.2866 -0.5317 -1.3198
 7422TIP3    H243682   2.050   4.622  11.284 -1.3989  0.3852  1.9566
 7423TIP3   OH243683   5.707   5.239  10.059 -0.4914  0.0507  0.2046
 7423TIP3    H143684   5.740   5.182   9.990  0.2556  2.6950 -1.7490
 7423TIP3    H243685   5.631   5.192  10.094 -0.5575 -1.6411 -2.0137
 7424TIP3   OH243686   3.461   1.033  14.068 -0.6865  0.2549 -0.0015
 7424TIP3    H143687   3.552   1.062  14.060 -0.9980  2.1176  2.3161
 7424TIP3    H243688   3.453   1.002  14.158 -1.5038 -3.4440 -1.1362
 7425TIP3   OH243689   5.071   4.124   2.284  0.0177 -0.4659 -0.0441
 7425TIP3    H143690   5.018   4.149   2.360 -2.6080  1.1483 -2.2210
 7425TIP3    H243691   5.131   4.198   2.272  1.2613 -1.2437  1.0348
 7426TIP3   OH243692   5.332   0.179   1.951 -0.4853  0.0377  0.2636
 7426TIP3    H143693   5.403   0.151   1.895 -1.3435  0.4366 -1.0630
 7426TIP3    H243694   5.300   0.099   1.993  0.7225 -0.1381  0.8887
 7427TIP3   OH243695   3.399   6.119   3.617  0.3374  0.5324 -0.6485
 7427TIP3    H143696   3.340   6.178   3.571  0.6859 -0.0376 -1.8671
 7427TIP3    H243697   3.353   6.098   3.699 -1.2122  0.0229 -1.6033
 7428TIP3   OH243698   3.892   1.712  11.220 -0.4907  0.1585 -0.0068
 7428TIP3    H143699   3.890   1.780  11.287  1.0242 -0.0494  0.2664
 7428TIP3    H243700   3.923   1.634  11.265 -0.7467 -0.3303 -0.6614
 7429TIP3   OH243701   0.931   0.892   9.850 -0.9059  0.7177  0.1292
 7429TIP3    H143702   0.973   0.969   9.888 -0.5598  0.7644 -0.3463
 7429TIP3    H243703   0.895   0.845   9.925  1.8831 -0.5097  0.8094
 7430TIP3   OH243704   6.343   4.277   0.998  0.1050  0.4090  0.2313
 7430TIP3    H143705   6.346   4.199   1.054 -0.8732 -0.5737 -0.9959
 7430TIP3    H243706   6.256   4.272   0.957 -0.3759  2.7062  0.8589
 7431TIP3   OH243707   2.112   5.245   0.958  1.0776 -0.2280 -1.0956
 7431TIP3    H143708   2.045   5.295   1.004 -0.7357 -1.6524 -2.0334
 7431TIP3    H243709   2.177   5.223   1.025  1.2445  2.1385 -0.3967
 7432TIP3   OH243710   5.750   5.172  12.244  0.2966  0.5760 -0.2338
 7432TIP3    H143711   5.661   5.137  12.247  1.0424 -1.3710  0.7533
 7432TIP3    H243712   5.738   5.265  12.221 -1.7547 -0.3581 -3.8932
 7433TIP3   OH243713   0.554   1.375  12.646  0.3923 -0.0989 -0.1794
 7433TIP3    H143714   0.644   1.344  12.658 -0.1673 -1.8838 -0.2664
 7433TIP3    H243715   0.519   1.320  12.576 -0.8465  0.4034  0.0149
 7434TIP3   OH243716   0.496   3.341   3.996 -0.0312 -1.3474  0.1604
 7434TIP3    H143717   0.526   3.268   3.942 -0.1141 -0.9685 -0.4080
 7434TIP3    H243718   0.448   3.300   4.068 -1.0976 -1.8201 -0.7831
 7435TIP3   OH243719   1.069   6.683   0.305 -0.1458 -0.3128 -0.0104
 7435TIP3    H143720   1.145   6.690   0.362  0.1284 -0.5466 -0.3440
 7435TIP3    H243721   1.067   6.766   0.257 -1.0546  0.3876  1.1510
 7436TIP3   OH243722   0.525   0.531   5.444 -0.0163  1.2778 -0.6873
 7436TIP3    H143723   0.604   0.563   5.487 -0.9894  1.2782  1.1975
 7436TIP3    H243724   0.542   0.543   5.351  2.5803  0.3362 -0.4084
 7437TIP3   OH243725   4.524   4.226   0.907 -0.3938 -0.3077 -0.1023
 7437TIP3    H143726   4.577   4.279   0.967 -1.4231  1.2082 -0.4688
 7437TIP3    H243727   4.494   4.152   0.960 -0.5395  0.5309  1.0169
 7438TIP3   OH243728   2.966   1.431  10.623  0.1613  0.2304 -0.0633
 7438TIP3    H143729   3.002   1.444  10.711  0.0392 -0.7403  0.1351
 7438TIP3    H243730   2.871   1.435  10.635  0.1410 -0.0736 -0.1229
 7439TIP3   OH243731   5.960   5.052   3.595 -0.8418 -0.1471 -0.0768
 7439TIP3    H143732   5.899   5.119   3.627  0.0050  0.8234 -0.4493
 7439TIP3    H243733   5.937   5.041   3.503  1.8865  3.0363 -1.3434
 7440TIP3   OH243734   3.429   6.398  10.920 -0.0375  0.0829  0.0707
 7440TIP3    H143735   3.499   6.402  10.986  0.7116  1.8447 -0.7792
 7440TIP3    H243736   3.379   6.479  10.933 -1.8648 -1.0460  0.5229
 7441TIP3   OH243737   6.152   5.637  15.272  0.1896  0.0733  0.2531
 7441TIP3    H143738   6.174   5.667  15.360 -1.2841  2.4744 -0.1030
 7441TIP3    H243739   6.139   5.543  15.281  0.4820  0.1883  2.5025
 7442TIP3   OH243740   6.151   4.426   4.701 -0.2859  0.3470 -0.6577
 7442TIP3    H143741   6.212   4.440   4.774 -1.0204  1.1985 -0.1877
 7442TIP3    H243742   6.155   4.507   4.650 -0.3501  0.0538 -1.1313
 7443TIP3   OH243743   6.501   2.045  12.295  0.0894 -0.2885  0.8122
 7443TIP3    H143744   6.408   2.022  12.299  0.2952 -1.1589  0.8690
 7443TIP3    H243745   6.510   2.095  12.214 -0.1242 -1.7122 -0.1232
 7444TIP3   OH243746   1.293   5.042   0.373  0.2994  0.2353  0.7887
 7444TIP3    H143747   1.251   5.094   0.442  1.3746 -2.3698  3.6578
 7444TIP3    H243748   1.386   5.043   0.396  0.4372 -2.3549  0.6389
 7445TIP3   OH243749   5.745   4.805   4.546  0.2168  0.1058 -0.4384
 7445TIP3    H143750   5.716   4.751   4.472  0.7432  0.4757 -0.9270
 7445TIP3    H243751   5.669   4.810   4.603  0.1487 -1.1477 -0.3830
 7446TIP3   OH243752   1.396   1.995  13.618 -0.0360 -0.5070  0.4157
 7446TIP3    H143753   1.343   2.019  13.542  0.5751  1.6799  0.6119
 7446TIP3    H243754   1.382   2.067  13.681  0.1280 -1.8419  2.0446
 7447TIP3   OH243755   6.147   6.806   4.866 -0.1610  0.0629  0.2856
 7447TIP3    H143756   6.152   6.889   4.818 -0.7571 -0.0532  0.0022
 7447TIP3    H243757   6.176   6.828   4.955  2.0151  0.0434 -0.3785
 7448TIP3   OH243758   5.059   3.884   3.400 -0.1081 -0.1801 -0.1455
 7448TIP3    H143759   5.035   3.807   3.347  0.3882 -0.1598 -0.4062
 7448TIP3    H243760   5.136   3.856   3.448  1.0944  0.6740 -1.4948
 7449TIP3   OH243761   3.463   1.083   4.232  0.0738 -0.1538 -0.0520
 7449TIP3    H143762   3.558   1.079   4.217  0.0171  0.5312 -0.6124
 7449TIP3    H243763   3.429   1.132   4.157 -0.6003  0.5518  0.7136
 7450TIP3   OH243764   6.589   5.924   4.508 -0.5658  0.0291  0.5622
 7450TIP3    H143765   6.674   5.958   4.481 -1.2179  1.4610  0.1817
 7450TIP3    H243766   6.604   5.887   4.595  0.5621 -0.2735  0.2448
 7451TIP3   OH243767   1.615   3.536   0.449  0.1944 -0.5789  0.2220
 7451TIP3    H143768   1.663   3.556   0.368  0.6647 -0.9926  0.3949
 7451TIP3    H243769   1.525   3.523   0.420  0.1788  0.1821 -0.1110
 7452TIP3   OH243770   3.165   6.967   9.672 -0.1983 -0.1181 -0.2373
 7452TIP3    H143771   3.151   6.939   9.582 -1.1666 -2.2825  0.5161
 7452TIP3    H243772   3.135   7.058   9.674 -0.3972 -0.1104 -2.0298
 7453TIP3   OH243773   2.476   5.304   0.646 -0.6808 -0.1854 -0.0551
 7453TIP3    H143774   2.469   5.209   0.632 -0.0963 -0.6013  2.1942
 7453TIP3    H243775   2.569   5.318   0.667 -1.0583  0.6380  1.1599
 7454TIP3   OH243776   1.281   1.371   4.361 -0.4191  0.3549  0.6479
 7454TIP3    H143777   1.321   1.331   4.284  0.8178 -0.6037  1.7352
 7454TIP3    H243778   1.272   1.463   4.337 -2.0818 -0.2621 -1.4109
 7455TIP3   OH243779   0.686   4.737   2.593  0.2238  0.3830  0.8745
 7455TIP3    H143780   0.606   4.762   2.548  0.5274  0.2245  0.2356
 7455TIP3    H243781   0.744   4.813   2.584  0.6774 -0.0494  0.0456
 7456TIP3   OH243782   1.864   6.233   2.093 -0.3358  0.2301 -0.5811
 7456TIP3    H143783   1.900   6.154   2.132 -0.8377  0.7368  0.9635
 7456TIP3    H243784   1.931   6.261   2.030  0.6710 -0.4225  0.1672
 7457TIP3   OH243785   3.185   0.307   1.127 -0.3408  0.3124 -0.2601
 7457TIP3    H143786   3.261   0.365   1.124  0.0327 -0.1256  0.4394
 7457TIP3    H243787   3.144   0.318   1.041 -0.0721  1.3238 -0.2781
 7458TIP3   OH243788   2.820   2.237  11.202  0.0517 -0.1020 -0.2308
 7458TIP3    H143789   2.866   2.240  11.119 -1.2971 -0.9236 -1.0506
 7458TIP3    H243790   2.809   2.329  11.227 -1.0131  0.2527 -1.8524
 7459TIP3   OH243791   0.982   2.360  13.770  0.0363  0.2944  0.1868
 7459TIP3    H143792   0.904   2.321  13.730 -0.4106  1.7814 -0.4816
 7459TIP3    H243793   0.970   2.349  13.864  0.5512 -2.2574  0.0234
 7460TIP3   OH243794   6.514   6.720   0.734  0.4349 -0.3688  0.4677
 7460TIP3    H143795   6.501   6.628   0.713  0.7479  0.0040 -1.5986
 7460TIP3    H243796   6.447   6.740   0.799  0.6695 -2.1477  1.3192
 7461TIP3   OH243797   5.073   1.083   5.702 -0.2464 -1.5018 -0.1160
 7461TIP3    H143798   4.984   1.049   5.704  0.0081 -2.3823 -1.7915
 7461TIP3    H243799   5.081   1.126   5.617  1.1509 -2.1223 -0.3325
 7462TIP3   OH243800   5.879   0.833  13.790  0.2693 -0.5289 -0.2316
 7462TIP3    H143801   5.853   0.792  13.707  2.1701  1.2111 -1.8002
 7462TIP3    H243802   5.972   0.812  13.799  0.1052 -0.6530  1.5006
 7463TIP3   OH243803   4.912   0.494  15.405  0.5320 -0.4046  0.4629
 7463TIP3    H143804   4.959   0.414  15.431 -0.3333 -1.0857 -0.0301
 7463TIP3    H243805   4.819   0.469  15.407  0.2464  0.6117  0.3676
 7464TIP3   OH243806   5.157   1.167   3.196 -0.1635 -0.5941 -0.0042
 7464TIP3    H143807   5.178   1.102   3.129  0.8962  0.0027 -0.2639
 7464TIP3    H243808   5.191   1.249   3.163 -2.2109  0.3108 -0.0631
 7465TIP3   OH243809   2.743   4.189  14.977 -0.2934 -0.3951  0.3321
 7465TIP3    H143810   2.702   4.163  14.894 -0.4851  0.2662  0.2197
 7465TIP3    H243811   2.682   4.251  15.016  1.0762  1.4977 -0.3718
 7466TIP3   OH243812   6.529   3.565  14.485 -0.1914  0.2254  0.9440
 7466TIP3    H143813   6.482   3.503  14.540  0.7810  0.5153  2.1433
 7466TIP3    H243814   6.612   3.580  14.531  0.4960  0.7719 -0.4110
 7467TIP3   OH243815   0.057   5.261  14.516 -0.1981  0.0797  0.2916
 7467TIP3    H143816   0.062   5.350  14.480 -0.6068 -0.0473 -0.0821
 7467TIP3    H243817   0.048   5.275  14.611  1.4698  0.4012  0.4338
 7468TIP3   OH243818   4.298   2.570  13.957  0.1901  0.5232  0.0199
 7468TIP3    H143819   4.346   2.601  13.880 -0.0955  1.5636  0.2443
 7468TIP3    H243820   4.295   2.475  13.947  1.4705  0.5203 -0.4796
 7469TIP3   OH243821   1.888   0.818  10.034  0.1567  0.2187 -0.3674
 7469TIP3    H143822   1.940   0.749   9.993 -1.1530  0.5550 -2.7884
 7469TIP3    H243823   1.801   0.779  10.044  0.2322  0.4275  1.5016
 7470TIP3   OH243824   4.111   3.472  13.793  0.3664 -0.7909 -0.1692
 7470TIP3    H143825   4.137   3.493  13.882 -0.4054  1.8010 -0.4900
 7470TIP3    H243826   4.193   3.445  13.750  0.8368 -1.4811  1.1147
 7471TIP3   OH243827   0.032   5.894   1.495  0.0477 -0.3796  0.9077
 7471TIP3    H143828  -0.005   5.831   1.433 -0.0467  0.5953 -0.0679
 7471TIP3    H243829  -0.044   5.942   1.529  0.3030  2.5351 -2.0943
 7472TIP3   OH243830   2.978   2.760  13.283 -0.5301 -0.8442  0.4190
 7472TIP3    H143831   2.884   2.778  13.281 -0.8336 -1.5244  3.3343
 7472TIP3    H243832   2.984   2.667  13.308  0.8732 -0.4821  1.5719
 7473TIP3   OH243833   5.160   3.455  12.991  0.5533 -0.2341  0.6244
 7473TIP3    H143834   5.109   3.374  12.994 -0.2200  0.0759 -1.7061
 7473TIP3    H243835   5.169   3.473  12.897  1.5840  1.8350  1.0781
 7474TIP3   OH243836   2.835   4.976   9.981 -0.5762 -0.2289 -0.0868
 7474TIP3    H143837   2.865   4.909   9.920 -0.8594 -0.1629 -0.3037
 7474TIP3    H243838   2.791   5.041   9.926  0.2854  0.4772  0.0486
 7475TIP3   OH243839   6.872   4.684  14.978  0.0704  0.3041  0.4370
 7475TIP3    H143840   6.826   4.695  15.061  1.0819  0.3314  1.0061
 7475TIP3    H243841   6.935   4.756  14.975 -0.5032  0.7942 -0.7422
 7476TIP3   OH243842   3.122   1.600  14.961  0.1821 -0.7068 -0.4157
 7476TIP3    H143843   3.093   1.671  15.017  0.1195  0.9123 -2.3640
 7476TIP3    H243844   3.041   1.562  14.926  0.2384 -1.1307 -0.0881
 7477TIP3   OH243845   4.390   6.635  14.045 -0.2172 -0.0645 -0.1142
 7477TIP3    H143846   4.297   6.632  14.026 -0.0003  1.3399 -1.6182
 7477TIP3    H243847   4.431   6.588  13.972  0.2204 -1.6014  1.0773
 7478TIP3   OH243848   7.046   3.401  12.461  0.1143 -0.0245  0.1649
 7478TIP3    H143849   7.111   3.425  12.527  0.9674 -0.0308 -0.6483
 7478TIP3    H243850   7.082   3.323  12.418 -0.7905 -0.4816  0.1952
 7479TIP3   OH243851   3.065   4.767   0.775  0.4666 -0.1649  0.2926
 7479TIP3    H143852   3.079   4.679   0.810 -0.5059 -0.5913 -0.3629
 7479TIP3    H243853   3.020   4.754   0.692 -2.9760  1.0432  1.7865
 7480TIP3   OH243854   6.805   6.647  14.453  0.2315  0.0253  0.1898
 7480TIP3    H143855   6.766   6.728  14.485  0.8943  0.4218  0.0127
 7480TIP3    H243856   6.818   6.662  14.359 -0.3262 -0.5691  0.0071
 7481TIP3   OH243857   6.751   5.659  10.047  0.0584  0.3139  0.2847
 7481TIP3    H143858   6.710   5.727   9.993 -0.4796  0.6324  1.0621
 7481TIP3    H243859   6.820   5.623   9.992 -0.9520  0.1031 -0.8973
 7482TIP3   OH243860   6.624   6.276   9.183  0.8251  0.6444  0.2684
 7482TIP3    H143861   6.532   6.300   9.181  0.5570  0.0946  2.7323
 7482TIP3    H243862   6.671   6.359   9.197  0.5526  0.7117  0.7872
 7483TIP3   OH243863   5.110   3.704   1.400  0.1425  0.9155  0.3215
 7483TIP3    H143864   5.063   3.787   1.409 -1.6990 -0.1542  1.1206
 7483TIP3    H243865   5.113   3.668   1.489  1.5013  0.4068  0.0969
 7484TIP3   OH243866   0.516   4.077   4.529 -0.2931  0.0450  0.5361
 7484TIP3    H143867   0.430   4.043   4.556  0.4097 -1.1973  1.3064
 7484TIP3    H243868   0.528   4.155   4.582 -1.6132  1.1837 -0.7267
 7485TIP3   OH243869   0.887   3.727  11.824  1.3700 -0.0967 -0.5316
 7485TIP3    H143870   0.829   3.802  11.836  2.3325  0.8143 -1.3330
 7485TIP3    H243871   0.872   3.698  11.734  0.5537 -1.2928 -0.0399
 7486TIP3   OH243872   3.793   1.448  15.060 -0.1187 -0.5713  0.3663
 7486TIP3    H143873   3.835   1.527  15.095  0.9532 -0.7543 -0.4400
 7486TIP3    H243874   3.854   1.377  15.080  0.7646 -0.6266 -2.1248
 7487TIP3   OH243875   1.608   5.394  13.526  0.0546  0.5511  0.0144
 7487TIP3    H143876   1.644   5.317  13.481 -0.5547 -0.2379  0.8302
 7487TIP3    H243877   1.658   5.399  13.608 -1.0848 -0.0669  0.7798
 7488TIP3   OH243878   1.771   6.206  12.299  0.4613 -0.0989  0.5817
 7488TIP3    H143879   1.808   6.117  12.300 -0.2147 -0.3900  1.2404
 7488TIP3    H243880   1.828   6.255  12.240  0.7504 -1.0140  0.0802
 7489TIP3   OH243881   1.339   2.465  11.337 -0.1441 -0.0202 -0.3691
 7489TIP3    H143882   1.424   2.440  11.301  0.1311  1.3181 -0.6999
 7489TIP3    H243883   1.354   2.473  11.431 -0.0526 -0.3228 -0.3571
 7490TIP3   OH243884   3.728   0.117  15.020  0.0574 -0.6148  0.3267
 7490TIP3    H143885   3.802   0.070  15.058 -0.9899 -1.0567  1.9163
 7490TIP3    H243886   3.769   0.184  14.965  1.5952 -2.3166 -0.7090
 7491TIP3   OH243887   6.841   4.933   0.992  0.3052  0.8989  0.0070
 7491TIP3    H143888   6.828   4.966   0.903 -0.2078  0.0250 -0.2567
 7491TIP3    H243889   6.912   4.986   1.027 -0.1281  1.9002 -0.5847
 7492TIP3   OH243890   5.467   4.306  11.176 -0.2880  0.3843  0.1702
 7492TIP3    H143891   5.434   4.302  11.266 -1.6579 -0.3236 -0.3295
 7492TIP3    H243892   5.543   4.248  11.176 -2.4451 -2.6675  0.0625
 7493TIP3   OH243893   0.873   1.634  13.064  0.3908 -0.0150  0.1981
 7493TIP3    H143894   0.843   1.636  13.155  2.5237  0.7709  0.9532
 7493TIP3    H243895   0.822   1.702  13.020  2.3798  2.8530  1.9509
 7494TIP3   OH243896   5.016   6.822  10.228 -0.3938 -0.1683 -0.0762
 7494TIP3    H143897   4.945   6.860  10.279 -1.8399 -0.6609 -1.6049
 7494TIP3    H243898   5.024   6.733  10.261  0.1868  0.1947  0.7619
 7495TIP3   OH243899   3.253   5.962  12.683 -0.8363 -0.1600 -0.2499
 7495TIP3    H143900   3.284   5.899  12.748 -2.0694 -0.8734 -0.3226
 7495TIP3    H243901   3.167   5.988  12.714 -0.4794  1.2859 -0.3866
 7496TIP3   OH243902   6.897   0.782  11.581 -0.4649 -0.0310 -0.1329
 7496TIP3    H143903   6.892   0.686  11.578  2.0381 -0.2498 -3.2400
 7496TIP3    H243904   6.973   0.800  11.636  0.5636 -0.0408 -1.4907
 7497TIP3   OH243905   4.716   6.077   1.223 -0.0291 -0.1744 -0.2481
 7497TIP3    H143906   4.726   6.167   1.252 -1.0789 -0.0060 -0.3753
 7497TIP3    H243907   4.805   6.043   1.220  0.5367  1.3005 -1.6071
 7498TIP3   OH243908   1.303   4.529  15.396 -0.0688 -0.8583  0.5987
 7498TIP3    H143909   1.279   4.570  15.480  0.3970 -0.9540  0.7797
 7498TIP3    H243910   1.273   4.592  15.330  1.1274  0.0561  0.8889
 7499TIP3   OH243911   4.336   5.348  14.592  0.3033 -0.1628 -0.5274
 7499TIP3    H143912   4.411   5.296  14.561 -0.6219 -3.4374  2.1601
 7499TIP3    H243913   4.261   5.312  14.545  0.1275  2.1570 -2.1714
 7500TIP3   OH243914   3.101   4.253  12.622 -0.2472 -0.4951  0.0191
 7500TIP3    H143915   3.183   4.260  12.670  0.4673  0.3421 -1.2806
 7500TIP3    H243916   3.063   4.341  12.627  0.5266  0.0118 -2.0825
 7501TIP3   OH243917   3.227   6.670   9.470 -0.7075 -0.5516  0.3640
 7501TIP3    H143918   3.207   6.588   9.426 -3.8708 -0.7567  1.8416
 7501TIP3    H243919   3.270   6.645   9.551  4.5557 -0.2006 -1.8957
 7502TIP3   OH243920   4.488   1.341   2.121 -0.6008 -0.2124  0.3024
 7502TIP3    H143921   4.554   1.390   2.170  0.2701 -0.5385 -0.5098
 7502TIP3    H243922   4.500   1.368   2.031 -0.4978 -1.4623 -0.0814
 7503TIP3   OH243923   2.509   2.924  11.763  0.0893  0.3333 -0.3179
 7503TIP3    H143924   2.580   2.927  11.826  1.1201 -0.7103 -1.3960
 7503TIP3    H243925   2.452   2.854  11.793  0.6377 -0.2361 -0.5947
 7504TIP3   OH243926   2.852   3.779   2.588  0.0775  0.2999 -0.0575
 7504TIP3    H143927   2.947   3.785   2.584  0.0842  1.0355  0.7274
 7504TIP3    H243928   2.834   3.688   2.611  0.5687  0.0827 -0.5060
 7505TIP3   OH243929   2.277   0.987  10.796  0.1793  0.0745  0.2445
 7505TIP3    H143930   2.259   1.004  10.888 -0.2903 -0.6686  0.2949
 7505TIP3    H243931   2.236   0.903  10.778  1.1326 -0.2773 -0.3920
 7506TIP3   OH243932   1.790   5.197  10.316  0.1972  0.0632 -0.3120
 7506TIP3    H143933   1.750   5.128  10.263 -1.5896 -0.5500  1.6946
 7506TIP3    H243934   1.718   5.230  10.370  1.7088  1.3446  1.0160
 7507TIP3   OH243935   2.912   0.261   2.849 -0.0424 -0.0335  0.3876
 7507TIP3    H143936   2.971   0.319   2.801 -0.0194 -1.0424 -0.8436
 7507TIP3    H243937   2.824   0.296   2.832 -0.1570 -1.1173 -1.5254
 7508TIP3   OH243938   6.765   6.313   2.353 -0.5870  0.4872  0.4063
 7508TIP3    H143939   6.752   6.273   2.439 -2.4368  0.8564  0.3333
 7508TIP3    H243940   6.851   6.356   2.360 -0.7340  0.5840  2.0834
 7509TIP3   OH243941   6.570   4.191  13.786  0.7539  0.4094  0.1786
 7509TIP3    H143942   6.635   4.257  13.759  0.6629 -0.0090 -1.1473
 7509TIP3    H243943   6.486   4.226  13.754  0.9454 -1.2858 -2.5553
 7510TIP3   OH243944   2.439   1.748  14.421 -0.5224  0.1040 -0.1901
 7510TIP3    H143945   2.450   1.840  14.400 -1.2762  0.1250 -0.5374
 7510TIP3    H243946   2.511   1.727  14.480  1.0141  0.3348 -1.9008
 7511TIP3   OH243947   0.692   2.379   9.919 -0.2717 -0.7893  0.2167
 7511TIP3    H143948   0.647   2.295   9.917 -0.5163 -0.6407 -1.5350
 7511TIP3    H243949   0.762   2.371   9.854 -0.5217  0.4667 -0.2399
 7512TIP3   OH243950   3.312   6.630   0.517 -0.7070  0.5242 -0.6045
 7512TIP3    H143951   3.340   6.700   0.576 -1.2781 -0.0855  0.4276
 7512TIP3    H243952   3.370   6.637   0.441  0.0638  1.3136  0.0398
 7513TIP3   OH243953   6.404   1.233  14.109  0.3215 -0.2910 -0.2928
 7513TIP3    H143954   6.497   1.251  14.120 -0.2139  1.9882  0.9878
 7513TIP3    H243955   6.396   1.208  14.016  2.1020  0.0632 -0.5898
 7514TIP3   OH243956   1.169   6.045   9.868  0.1053 -0.1263 -0.1558
 7514TIP3    H143957   1.227   6.117   9.893  0.5430 -1.2059  2.2171
 7514TIP3    H243958   1.147   6.063   9.777  2.3879  1.5275 -0.4804
 7515TIP3   OH243959   3.936   3.732   9.461 -0.5006  0.1753  0.3480
 7515TIP3    H143960   3.983   3.781   9.528 -0.2925 -0.8205  0.9615
 7515TIP3    H243961   4.001   3.719   9.391 -0.4333  0.4210  0.3650
 7516TIP3   OH243962   1.706   4.968  11.195  0.5713 -0.0440  0.4762
 7516TIP3    H143963   1.643   4.963  11.123  0.0284  0.4227  0.9041
 7516TIP3    H243964   1.781   5.014  11.158  0.5901 -0.4353  0.0125
 7517TIP3   OH243965   2.807   3.177  10.911  0.3900  0.3835 -0.1587
 7517TIP3    H143966   2.739   3.238  10.884  2.1664  3.3417  1.5194
 7517TIP3    H243967   2.837   3.136  10.830 -1.5959  0.9064 -1.2119
 7518TIP3   OH243968   0.664   4.304  10.876  0.3564 -0.2411 -0.0563
 7518TIP3    H143969   0.625   4.331  10.792 -0.1714 -0.4040  0.1338
 7518TIP3    H243970   0.739   4.250  10.851 -0.2105 -0.8614 -0.4184
 7519TIP3   OH243971   1.812   3.164   5.598  0.3149 -0.5797 -0.2156
 7519TIP3    H143972   1.725   3.141   5.564  0.5700 -1.2116 -0.4509
 7519TIP3    H243973   1.831   3.096   5.661  1.1773 -1.1579 -1.0759
 7520TIP3   OH243974   1.878   7.016   0.260  0.1125 -0.0432 -0.6787
 7520TIP3    H143975   1.889   6.922   0.273 -1.1275 -0.1062  0.0226
 7520TIP3    H243976   1.968   7.049   0.251  0.6079 -1.1661 -0.1031
 7521TIP3   OH243977   0.072   3.962  12.851  0.1192  0.5915  0.3728
 7521TIP3    H143978  -0.016   3.998  12.850  0.2133  0.8450  0.9250
 7521TIP3    H243979   0.059   3.868  12.837 -0.3595  0.4129  1.7895
 7522TIP3   OH243980   1.309   3.412   1.103  0.0291  0.5691 -0.4350
 7522TIP3    H143981   1.266   3.331   1.127 -1.8380  1.5866 -0.1957
 7522TIP3    H243982   1.402   3.395   1.119 -0.4167 -1.1579  0.5892
 7523TIP3   OH243983   4.274   2.260   4.821  0.0933  0.3079 -0.3480
 7523TIP3    H143984   4.195   2.227   4.863 -0.4106  1.1741 -0.6066
 7523TIP3    H243985   4.311   2.184   4.776 -1.1930  0.1485 -1.1626
 7524TIP3   OH243986   0.465   6.979  11.116  0.1428 -0.1782 -0.4216
 7524TIP3    H143987   0.377   6.957  11.087  0.6890 -1.4928 -1.1651
 7524TIP3    H243988   0.516   6.988  11.035  0.4110  1.9894 -0.0754
 7525TIP3   OH243989   1.720   6.225  15.285 -0.3654 -0.0519 -0.0905
 7525TIP3    H143990   1.649   6.250  15.226  0.4080 -0.8381 -1.3813
 7525TIP3    H243991   1.793   6.281  15.260 -0.5258  0.8243  1.2994
 7526TIP3   OH243992   2.121   4.956  10.520 -0.0059  0.2703  0.2907
 7526TIP3    H143993   2.123   4.900  10.597  0.2675  1.4019  1.1336
 7526TIP3    H243994   2.116   4.895  10.446  4.4045 -1.1306  0.8637
 7527TIP3   OH243995   1.960   5.784  10.996  0.1393  0.1248 -0.6358
 7527TIP3    H143996   2.038   5.736  10.968 -0.0649 -1.0093  0.6184
 7527TIP3    H243997   1.947   5.756  11.087 -2.7524 -1.1096 -1.3239
 7528TIP3   OH243998   1.861   1.052   1.861  0.2513  0.2012  0.6637
 7528TIP3    H143999   1.785   1.056   1.803  1.0572 -0.3785 -0.4675
 7528TIP3    H244000   1.914   0.982   1.825  0.8316 -0.0978  2.0622
 7529TIP3   OH244001   2.207   5.370   0.708  0.0486 -0.4516  0.7900
 7529TIP3    H144002   2.184   5.339   0.796  1.4158 -0.4483  1.1673
 7529TIP3    H244003   2.297   5.341   0.695  0.0028 -0.0771 -0.4503
 7530TIP3   OH244004   5.084   3.072  14.748 -0.7957 -0.4862 -0.5222
 7530TIP3    H144005   5.048   3.080  14.659 -0.3077 -1.7338 -0.8454
 7530TIP3    H244006   5.030   3.131  14.801 -0.6848  0.7738 -1.7598
 7531TIP3   OH244007   1.323   2.629  12.958  0.3092  0.2128 -0.0959
 7531TIP3    H144008   1.358   2.665  13.040  2.2933  0.8673 -1.1803
 7531TIP3    H244009   1.360   2.684  12.890  2.9704 -3.3587 -1.8163
 7532TIP3   OH244010   4.414   3.183   0.713  0.1375  0.2740  0.5476
 7532TIP3    H144011   4.369   3.099   0.716  2.4555 -1.1540 -0.8314
 7532TIP3    H244012   4.507   3.160   0.712  0.8801  2.6464 -2.3802
 7533TIP3   OH244013   3.492   3.335  11.254  0.1289  0.2098 -0.1649
 7533TIP3    H144014   3.398   3.324  11.267  0.2807 -1.2137 -0.1137
 7533TIP3    H244015   3.530   3.249  11.275  1.8870  1.6680  3.6389
 7534TIP3   OH244016   6.713   3.137  12.999  0.1239  0.3933 -0.1688
 7534TIP3    H144017   6.737   3.202  12.933  0.1878 -0.7646 -1.3300
 7534TIP3    H244018   6.617   3.136  12.999  0.1243  0.3669 -0.2785
 7535TIP3   OH244019   4.196   1.442   0.293  0.3690  0.1070 -0.0452
 7535TIP3    H144020   4.277   1.414   0.335 -0.2869 -3.4011 -0.7403
 7535TIP3    H244021   4.137   1.462   0.365  1.1397  0.4130  0.5120
 7536TIP3   OH244022   3.228   4.271   0.651  0.4977  1.2247 -0.0973
 7536TIP3    H144023   3.147   4.220   0.646  0.1106  1.8145  0.0746
 7536TIP3    H244024   3.278   4.229   0.720  0.1869  1.0628  0.0329
 7537TIP3   OH244025   6.668   5.491  14.684 -0.3091  0.5046 -0.1374
 7537TIP3    H144026   6.763   5.504  14.683 -0.2561  0.1393 -1.2059
 7537TIP3    H244027   6.640   5.507  14.593 -1.4610  1.8914  0.4169
 7538TIP3   OH244028   1.825   4.730   3.433  0.4130 -0.1466 -0.9381
 7538TIP3    H144029   1.873   4.807   3.401  0.5981 -0.3536 -1.1625
 7538TIP3    H244030   1.733   4.758   3.432  0.5236  0.2540 -0.4945
 7539TIP3   OH244031   3.991   5.177   2.505 -0.3644 -0.6038  0.2151
 7539TIP3    H144032   3.929   5.168   2.577 -0.0068  0.8013  0.7321
 7539TIP3    H244033   3.944   5.225   2.437 -0.2457 -0.6415  0.1040
 7540TIP3   OH244034   6.305   2.252   9.854 -0.2936  0.2825  0.2091
 7540TIP3    H144035   6.275   2.175   9.903  0.9936 -0.3572  0.0271
 7540TIP3    H244036   6.224   2.297   9.828 -1.0342 -0.3352  1.3717
 7541TIP3   OH244037   6.801   5.492   3.660  0.0890 -0.3310  0.6021
 7541TIP3    H144038   6.742   5.474   3.733  0.2104 -0.5291  0.6526
 7541TIP3    H244039   6.885   5.512   3.701  0.1098 -0.2595  0.5233
 7542TIP3   OH244040   5.573   1.450  12.351  0.1554  0.5031 -0.4804
 7542TIP3    H144041   5.584   1.504  12.429  1.8164  0.2753 -0.5246
 7542TIP3    H244042   5.586   1.360  12.381 -1.0725  0.2246 -0.6975
 7543TIP3   OH244043   4.349   2.749  10.850 -0.3064 -0.7851  0.7161
 7543TIP3    H144044   4.297   2.797  10.914  1.7742 -0.3366  2.1766
 7543TIP3    H244045   4.438   2.749  10.886  0.6650 -1.8066 -1.4732
 7544TIP3   OH244046   0.802   1.901  11.899 -0.0666 -0.6020 -0.1649
 7544TIP3    H144047   0.775   1.900  11.807  2.7251  1.4585 -1.1428
 7544TIP3    H244048   0.868   1.832  11.905 -0.7431 -1.2042  0.5102
 7545TIP3   OH244049   0.989   0.056   2.745 -0.1740 -0.2754  0.0662
 7545TIP3    H144050   1.046   0.130   2.768 -0.5756 -0.3904  1.5173
 7545TIP3    H244051   0.904   0.096   2.727 -0.4486 -0.3760  1.0651
 7546TIP3   OH244052   4.952   2.456   1.896 -1.1154  0.1891 -0.4546
 7546TIP3    H144053   4.887   2.389   1.876 -0.2828 -0.3116 -1.6309
 7546TIP3    H244054   4.917   2.535   1.855 -1.7393  0.3122  0.2955
 7547TIP3   OH244055   6.278   2.057   2.151  0.3647  0.0714  0.3204
 7547TIP3    H144056   6.198   2.012   2.123  0.9350 -1.0996  0.5266
 7547TIP3    H244057   6.286   2.131   2.091 -0.3373 -0.3683 -0.3381
 7548TIP3   OH244058   0.285   1.379  14.091 -0.1816 -0.2795 -0.3731
 7548TIP3    H144059   0.297   1.426  14.008 -2.2937 -0.1494 -0.6506
 7548TIP3    H244060   0.195   1.398  14.117 -0.1865 -1.8941  0.9758
 7549TIP3   OH244061   5.895   0.090   4.258  0.4083  0.1394  0.2226
 7549TIP3    H144062   5.847   0.009   4.275  1.7859 -0.7849 -0.0822
 7549TIP3    H244063   5.987   0.063   4.253  0.6404  1.0241 -3.8265
 7550TIP3   OH244064   6.500   5.522  12.642  0.0589 -0.8077  0.6159
 7550TIP3    H144065   6.421   5.526  12.588  0.0747  0.2315  0.6528
 7550TIP3    H244066   6.536   5.611  12.639  1.5575 -1.3886  0.1182
 7551TIP3   OH244067   1.324   1.683   3.589 -0.1351  0.2290  0.1088
 7551TIP3    H144068   1.240   1.643   3.567 -0.1042  0.3853 -0.3070
 7551TIP3    H244069   1.321   1.697   3.683 -0.7475  0.6155  0.0334
 7552TIP3   OH244070   1.569   5.037   2.450 -0.0194 -0.3059 -0.3346
 7552TIP3    H144071   1.503   5.106   2.451 -0.3398 -0.6184  0.0607
 7552TIP3    H244072   1.603   5.038   2.360 -2.3033 -1.7851 -1.3026
 7553TIP3   OH244073   2.584   6.480  15.326  0.2767 -0.8126 -0.1706
 7553TIP3    H144074   2.526   6.426  15.379  0.7529 -0.4683  0.7170
 7553TIP3    H244075   2.663   6.491  15.379 -0.2694  1.7782  0.2536
 7554TIP3   OH244076   5.222   1.240   4.754 -0.3428 -0.3533  0.0672
 7554TIP3    H144077   5.198   1.207   4.668  0.2570  0.3851 -0.3937
 7554TIP3    H244078   5.318   1.238   4.754 -0.3364 -0.1395  0.6384
 7555TIP3   OH244079   0.551   5.732  12.064 -0.9624  0.0940 -0.3577
 7555TIP3    H144080   0.588   5.756  12.149 -2.7814 -2.0164  1.1730
 7555TIP3    H244081   0.603   5.656  12.036 -2.5377 -1.4644  0.7084
 7556TIP3   OH244082   6.677   1.087   3.187  0.4222  0.6523  0.2604
 7556TIP3    H144083   6.659   1.013   3.129  1.7767  0.6824 -0.2465
 7556TIP3    H244084   6.638   1.162   3.143  0.4550  0.4920 -0.0446
 7557TIP3   OH244085   4.583   5.886  13.583 -0.2921 -0.2783  1.0005
 7557TIP3    H144086   4.589   5.793  13.558  1.0792  0.0515  0.0326
 7557TIP3    H244087   4.511   5.888  13.647 -1.8870 -1.6540 -0.6224
 7558TIP3   OH244088   0.246   2.209  12.291  0.2579  0.4581 -0.2029
 7558TIP3    H144089   0.171   2.227  12.347 -0.9841 -1.1397 -1.2636
 7558TIP3    H244090   0.247   2.113  12.282  2.0468  0.4916 -0.7226
 7559TIP3   OH244091   4.544   4.572  11.105 -0.1068  0.4113 -0.1911
 7559TIP3    H144092   4.461   4.554  11.060 -1.5108  1.2537  1.9344
 7559TIP3    H244093   4.584   4.642  11.053 -0.9453  0.3495 -0.9592
 7560TIP3   OH244094   5.467   4.806   2.307 -0.1286 -0.1531 -0.0900
 7560TIP3    H144095   5.428   4.868   2.369 -0.8987 -0.1319 -0.5703
 7560TIP3    H244096   5.431   4.721   2.332 -0.9533 -0.0526 -0.8875
 7561TIP3   OH244097   4.697   4.860  15.131  0.2576  0.6977  0.1443
 7561TIP3    H144098   4.768   4.805  15.164 -0.4111  0.3887  1.1232
 7561TIP3    H244099   4.689   4.836  15.039 -1.1928 -2.2731  0.9153
 7562TIP3   OH244100   6.617   0.088   1.661 -0.3058 -0.1338 -0.4006
 7562TIP3    H144101   6.703   0.080   1.618  0.3202  0.7605  0.6215
 7562TIP3    H244102   6.577   0.002   1.651  1.3652 -1.0576  0.4215
 7563TIP3   OH244103   6.416   5.305   0.797  0.1581 -0.3718 -0.1509
 7563TIP3    H144104   6.378   5.332   0.881  0.4509  0.0510 -0.1534
 7563TIP3    H244105   6.509   5.294   0.815  0.4347  0.8997 -0.6906
 7564TIP3   OH244106   1.165   3.589  13.922  0.2343  0.1265 -0.1105
 7564TIP3    H144107   1.096   3.648  13.953 -0.7262 -0.4467 -1.0570
 7564TIP3    H244108   1.203   3.635  13.847  1.6529  0.9230  1.0478
 7565TIP3   OH244109   2.818   7.087  10.515  0.0972 -0.2273  0.2928
 7565TIP3    H144110   2.847   7.035  10.440  0.4649 -0.2969  0.4814
 7565TIP3    H244111   2.782   7.167  10.477  0.3414 -0.2364  0.0450
 7566TIP3   OH244112   2.077   0.409   1.260 -0.3185  0.0561  0.2982
 7566TIP3    H144113   2.067   0.488   1.313  0.3310  0.8104 -0.6547
 7566TIP3    H244114   2.076   0.337   1.323 -2.4757  0.6837  1.0420
 7567TIP3   OH244115   2.721   5.520   0.562 -0.0730 -0.3215 -0.5061
 7567TIP3    H144116   2.723   5.615   0.573 -1.5919 -0.3743  0.4826
 7567TIP3    H244117   2.646   5.504   0.505  0.8946 -0.8780 -1.6804
 7568TIP3   OH244118   3.573   4.616   9.496 -0.5061 -0.2296  0.8236
 7568TIP3    H144119   3.543   4.706   9.515 -1.6692 -0.5601  0.6510
 7568TIP3    H244120   3.643   4.627   9.433 -0.5957  0.5692  0.8481
 7569TIP3   OH244121   5.117   1.686   3.274  0.1234  0.3003 -0.0196
 7569TIP3    H144122   5.178   1.756   3.300  0.1551  0.6894 -1.0755
 7569TIP3    H244123   5.070   1.722   3.199 -0.0643 -0.7129 -0.4063
 7570TIP3   OH244124   6.056   6.703  13.868 -0.0749  0.3149  0.3853
 7570TIP3    H144125   6.037   6.653  13.947  1.7131 -2.0151 -0.5346
 7570TIP3    H244126   6.108   6.778  13.898 -1.4166  0.7778  1.6262
 7571TIP3   OH244127   3.272   6.746  15.075  0.1928  0.1594 -0.3979
 7571TIP3    H144128   3.254   6.655  15.055  1.9282 -0.1535 -0.6570
 7571TIP3    H244129   3.186   6.783  15.096 -0.3211 -2.0576  1.9743
 7572TIP3   OH244130   2.944   4.376  10.700  0.1248 -0.2892  0.6563
 7572TIP3    H144131   3.035   4.350  10.681 -0.3138 -0.1663 -1.8761
 7572TIP3    H244132   2.945   4.471  10.697 -0.3434 -0.3156 -0.8290
 7573TIP3   OH244133   0.966   1.622   0.149  0.2020  0.0771 -0.4597
 7573TIP3    H144134   1.030   1.688   0.124 -0.5279  1.7666  1.7416
 7573TIP3    H244135   0.887   1.644   0.100  0.0288  0.7575  0.1025
 7574TIP3   OH244136   0.628   2.300   5.340  0.2555 -0.1305  0.5200
 7574TIP3    H144137   0.601   2.209   5.335 -0.8113  0.1807  0.4109
 7574TIP3    H244138   0.566   2.347   5.284  1.4741  0.5240 -0.3399
 7575TIP3   OH244139   2.771   0.807   0.188 -0.2331  0.4473 -0.7959
 7575TIP3    H144140   2.708   0.741   0.159 -0.9247  0.7678 -0.0856
 7575TIP3    H244141   2.782   0.790   0.281  0.1279  0.8926 -0.7547
 7576TIP3   OH244142   6.593   2.386   2.117 -0.1765  0.4186  0.2251
 7576TIP3    H144143   6.578   2.479   2.098 -1.5508  0.4209  1.1959
 7576TIP3    H244144   6.657   2.358   2.051 -1.4306  1.4900 -1.5370
 7577TIP3   OH244145   0.309   5.672  15.378 -0.3605  0.5335  0.0746
 7577TIP3    H144146   0.347   5.659  15.292  1.0923  3.0993  0.2182
 7577TIP3    H244147   0.251   5.747  15.368  0.2349  1.2198  1.3859
 7578TIP3   OH244148   2.247   5.780   5.284 -0.3856 -0.0971  0.0656
 7578TIP3    H144149   2.186   5.844   5.323 -1.6283 -0.9419 -0.4378
 7578TIP3    H244150   2.199   5.744   5.209  1.2157  0.0839 -1.0904
 7579TIP3   OH244151   5.346   3.086  13.207  0.4393  0.4362  0.0411
 7579TIP3    H144152   5.369   3.049  13.121  0.0193  0.7164 -0.1963
 7579TIP3    H244153   5.342   3.180  13.192 -1.6890  0.3734 -0.1554
 7580TIP3   OH244154   1.585   3.551   4.233  0.1315  0.4077 -0.5550
 7580TIP3    H144155   1.660   3.502   4.198 -0.2676 -0.3087 -0.4275
 7580TIP3    H244156   1.616   3.642   4.238  2.0531 -0.2736  2.3438
 7581TIP3   OH244157   3.629   3.263   3.141  0.4469 -0.2093  0.2638
 7581TIP3    H144158   3.538   3.256   3.172  0.1456 -0.2825 -0.6084
 7581TIP3    H244159   3.667   3.177   3.160 -0.2291 -0.8277 -1.0745
 7582TIP3   OH244160   5.509   0.217   1.645 -0.0723  0.2441 -0.3299
 7582TIP3    H144161   5.426   0.250   1.609  0.8571  0.5076 -2.4278
 7582TIP3    H244162   5.574   0.282   1.617  1.0710 -0.7776 -0.1320
 7583TIP3   OH244163   4.599   3.439  15.603  0.0023 -0.2097  0.5191
 7583TIP3    H144164   4.619   3.461  15.694 -0.5404 -0.3339  0.6690
 7583TIP3    H244165   4.562   3.351  15.607  0.3968 -0.4026  0.1237
 7584TIP3   OH244166   5.121   6.251   6.160  0.0749 -0.0711  0.2548
 7584TIP3    H144167   5.080   6.166   6.147  1.0011 -0.8372  1.9630
 7584TIP3    H244168   5.202   6.247   6.108  0.3380 -0.4252  0.6821
 7585TIP3   OH244169   4.280   3.674   4.661  0.2475 -0.4767  0.7797
 7585TIP3    H144170   4.357   3.639   4.706  1.0482 -0.3737 -0.4522
 7585TIP3    H244171   4.309   3.686   4.570 -1.1263 -0.1106  0.3678
 7586TIP3   OH244172   1.507   5.783   9.616  0.4920  0.2950 -0.0939
 7586TIP3    H144173   1.484   5.876   9.624 -0.9307 -0.0966  0.6934
 7586TIP3    H244174   1.434   5.744   9.567 -0.4943 -0.9279  2.1859
 7587TIP3   OH244175   5.955   5.479  11.846 -0.3369  0.3060  0.1901
 7587TIP3    H144176   5.980   5.531  11.769  1.3029  1.4554  1.4415
 7587TIP3    H244177   5.959   5.540  11.919  1.1433 -1.4271  1.6563
 7588TIP3   OH244178   5.560   3.079  12.039 -0.1972  0.6985 -0.2250
 7588TIP3    H144179   5.592   3.169  12.040  1.4779  0.1366  0.7914
 7588TIP3    H244180   5.485   3.081  11.980 -0.7268  2.9256  0.4279
 7589TIP3   OH244181   2.629   6.959   4.157 -0.2202 -0.6102  0.0953
 7589TIP3    H144182   2.706   7.003   4.121  1.5364 -1.6302  2.3674
 7589TIP3    H244183   2.594   7.021   4.221  1.0493 -1.5831  1.8151
 7590TIP3   OH244184   2.089   4.282  10.319 -0.3164  0.2681  0.1203
 7590TIP3    H144185   2.047   4.354  10.272  0.8672  0.7470 -0.2441
 7590TIP3    H244186   2.096   4.212  10.254 -0.3133  0.2847  0.1030
 7591TIP3   OH244187   2.132   1.094   9.065  0.2353 -0.4967 -0.0927
 7591TIP3    H144188   2.159   1.036   9.136  0.1953  1.0145  1.2116
 7591TIP3    H244189   2.207   1.151   9.052 -0.4729  0.5067  0.1089
 7592TIP3   OH244190   1.078   1.162   9.679  0.0341  0.7945 -0.2138
 7592TIP3    H144191   1.170   1.180   9.660 -0.3714  0.9967 -2.2531
 7592TIP3    H244192   1.030   1.233   9.637 -1.0890  0.4635  0.4443
 7593TIP3   OH244193   2.576   2.822  12.483  0.4527 -0.1972  0.4127
 7593TIP3    H144194   2.646   2.830  12.548  0.3597  1.7326  0.3330
 7593TIP3    H244195   2.588   2.897  12.426 -1.0874 -0.3947 -0.2193
 7594TIP3   OH244196   6.752   5.396  14.968 -0.4758  0.0856 -0.3086
 7594TIP3    H144197   6.790   5.483  14.956  1.4810 -0.2728  2.3224
 7594TIP3    H244198   6.828   5.338  14.973 -1.5334 -1.2570  1.2992
 7595TIP3   OH244199   4.765   3.393  12.737  0.8759 -0.3014  0.4490
 7595TIP3    H144200   4.824   3.462  12.765  0.5736  0.7259 -1.2746
 7595TIP3    H244201   4.802   3.363  12.654 -1.2030  0.6934 -0.9220
 7596TIP3   OH244202   0.285   4.393   4.832  0.2980 -0.1210  0.4746
 7596TIP3    H144203   0.319   4.334   4.899  0.3438  0.4532  0.9673
 7596TIP3    H244204   0.223   4.449   4.879  1.1117  0.9890  0.2829
 7597TIP3   OH244205   1.095   6.728   2.312 -0.1047  0.0248 -0.2739
 7597TIP3    H144206   1.019   6.735   2.254 -0.2893 -2.6806 -0.4733
 7597TIP3    H244207   1.135   6.644   2.290  0.3737 -0.6908  2.8006
 7598TIP3   OH244208   4.540   4.177  13.722 -0.1362  0.2425  0.1043
 7598TIP3    H144209   4.484   4.157  13.647 -0.3838 -0.2017  0.3986
 7598TIP3    H244210   4.520   4.107  13.785  0.0168  0.6504  0.6067
 7599TIP3   OH244211   3.572   1.423   1.737  0.0614  0.0170 -0.5877
 7599TIP3    H144212   3.541   1.362   1.804  1.3973  0.0688  0.1239
 7599TIP3    H244213   3.508   1.494   1.737  1.2147  1.2441  2.4270
 7600TIP3   OH244214   6.997   3.569   5.210  0.9324 -0.3958 -0.3856
 7600TIP3    H144215   6.961   3.570   5.121 -0.1709 -0.7196  0.0379
 7600TIP3    H244216   6.924   3.595   5.265  1.6256 -0.1568  0.4276
 7601TIP3   OH244217   3.099   5.360  12.458 -0.1870 -0.4489 -0.4987
 7601TIP3    H144218   3.047   5.437  12.433  0.1647 -0.1755 -0.4070
 7601TIP3    H244219   3.038   5.287  12.453 -0.9872  0.0759  1.0954
 7602TIP3   OH244220   2.527   6.408   4.696  0.2239  0.1008  0.1134
 7602TIP3    H144221   2.489   6.327   4.664  0.3399  0.5625 -1.2602
 7602TIP3    H244222   2.515   6.405   4.791 -2.0105 -0.3818 -0.1373
 7603TIP3   OH244223   0.477   2.114  13.377 -0.7877 -0.1145  0.1289
 7603TIP3    H144224   0.504   2.072  13.458 -0.9502 -0.1635  0.1589
 7603TIP3    H244225   0.387   2.144  13.394 -0.2992  1.1926  0.4674
 7604TIP3   OH244226   1.134   0.854   2.716 -1.0284 -0.3996  0.1207
 7604TIP3    H144227   1.139   0.940   2.757  0.6102  0.1828 -1.1937
 7604TIP3    H244228   1.101   0.796   2.784 -0.4517  0.9276  1.5710
 7605TIP3   OH244229   3.299   6.162  15.397 -0.3392  0.1538 -0.4757
 7605TIP3    H144230   3.313   6.074  15.361  0.4340  0.0918 -0.0453
 7605TIP3    H244231   3.205   6.165  15.415 -0.4430 -0.4422 -0.8586
 7606TIP3   OH244232   6.374   1.880  13.314  0.1245 -0.0989 -0.5723
 7606TIP3    H144233   6.353   1.814  13.380 -0.0398  0.1596 -0.3670
 7606TIP3    H244234   6.448   1.928  13.350  0.0173  0.0604 -0.5640
 7607TIP3   OH244235   4.854   6.207  11.981  0.7323  0.0916 -0.5103
 7607TIP3    H144236   4.842   6.284  11.926  0.8875 -1.0133 -2.1848
 7607TIP3    H244237   4.948   6.189  11.978  0.7222 -0.0609  0.0157
 7608TIP3   OH244238   4.168   0.047   3.424 -0.0701  0.1880  0.4551
 7608TIP3    H144239   4.121   0.073   3.344 -0.1791 -0.8642  0.1517
 7608TIP3    H244240   4.115  -0.024   3.460  0.3101  0.2450  1.1356
 7609TIP3   OH244241   6.826   0.773   0.666 -0.6142  0.4599 -0.4503
 7609TIP3    H144242   6.876   0.718   0.726 -0.0111  0.2658 -1.1238
 7609TIP3    H244243   6.746   0.795   0.715  0.0498  0.6548  0.5777
 7610TIP3   OH244244   1.247   6.168   3.382  0.4303 -0.0126 -0.4639
 7610TIP3    H144245   1.293   6.219   3.449  1.6247  1.1380 -2.0796
 7610TIP3    H244246   1.266   6.214   3.300 -0.2313 -1.8858 -1.7243
 7611TIP3   OH244247   6.426   2.632  15.600 -0.2446 -0.1971  0.4266
 7611TIP3    H144248   6.489   2.568  15.569 -0.8128 -0.1806 -0.8305
 7611TIP3    H244249   6.408   2.607  15.691 -0.0494 -1.4827  0.1211
 7612TIP3   OH244250   5.873   2.490  11.937  0.0289  0.1497  0.1482
 7612TIP3    H144251   5.807   2.555  11.913  1.0624  1.4140  0.6079
 7612TIP3    H244252   5.953   2.520  11.893  0.6262 -0.5934  0.7020
 7613TIP3   OH244253   6.038   3.727   4.504  0.6327  0.5069 -0.6039
 7613TIP3    H144254   5.973   3.700   4.569  1.0209 -0.7685 -0.7223
 7613TIP3    H244255   6.079   3.805   4.542 -0.1284  0.6210  0.0132
 7614TIP3   OH244256   1.260   1.409   3.770 -0.0912  0.4524 -0.1274
 7614TIP3    H144257   1.227   1.379   3.686  0.4687  1.3276 -0.6732
 7614TIP3    H244258   1.212   1.357   3.835 -0.8708  0.1081 -0.9681
 7615TIP3   OH244259   0.043   1.534  12.572 -0.8147 -0.0823  0.3767
 7615TIP3    H144260   0.047   1.526  12.477 -1.5687 -0.7203  0.3838
 7615TIP3    H244261   0.133   1.549  12.599 -0.7489  1.4681 -0.5401
 7616TIP3   OH244262   3.153   4.065   4.103  0.0547 -0.7441  0.5159
 7616TIP3    H144263   3.215   4.104   4.164  0.5807 -0.5174 -0.1481
 7616TIP3    H244264   3.077   4.043   4.157 -0.4006  1.4844  0.8965
 7617TIP3   OH244265   3.561   1.986  14.750 -0.1735  0.0757 -0.5453
 7617TIP3    H144266   3.489   2.023  14.699 -0.6654  0.3628  0.3308
 7617TIP3    H244267   3.530   1.989  14.840  1.3292  1.1308 -0.0285
 7618TIP3   OH244268   0.639   5.380  12.730 -0.2940  0.0263 -0.2102
 7618TIP3    H144269   0.651   5.346  12.819 -0.2376 -0.3907 -0.3737
 7618TIP3    H244270   0.689   5.461  12.729  1.0532 -0.7746 -0.3403
 7619TIP3   OH244271   6.179   0.955  12.555 -0.1293  0.0101  0.0770
 7619TIP3    H144272   6.160   1.021  12.488 -0.4040  0.3013  0.4443
 7619TIP3    H244273   6.144   0.991  12.636 -1.2076 -1.0420  0.1018
 7620TIP3   OH244274   5.513   6.913  12.224 -0.2499  0.1717 -0.3641
 7620TIP3    H144275   5.430   6.959  12.224 -0.7112 -0.6160  0.6414
 7620TIP3    H244276   5.490   6.821  12.238  0.8038  0.0040  0.4253
 7621TIP3   OH244277   3.913   7.001  14.470  0.6811 -0.4808  0.0103
 7621TIP3    H144278   3.940   7.084  14.431 -0.1006  0.2469  0.9676
 7621TIP3    H244279   3.864   6.957  14.401 -0.0756  0.4732 -0.0831
 7622TIP3   OH244280   6.739   6.660  13.737  0.0711 -0.3282  0.1693
 7622TIP3    H144281   6.673   6.594  13.756  0.3132 -0.6783 -0.1896
 7622TIP3    H244282   6.822   6.612  13.734  0.0532 -0.3319 -1.8031
 7623TIP3   OH244283   2.746   2.776   1.258  0.0664  0.6440  0.5428
 7623TIP3    H144284   2.687   2.848   1.237  0.9966  1.6880  1.4320
 7623TIP3    H244285   2.747   2.723   1.178  0.3413  2.2971 -0.6096
 7624TIP3   OH244286   3.375   5.882  15.344  0.3189  0.0875  0.2835
 7624TIP3    H144287   3.336   5.800  15.311  0.7526 -0.1786  0.4229
 7624TIP3    H244288   3.399   5.930  15.265 -0.4209  0.3249  0.1893
 7625TIP3   OH244289   5.504   6.885  11.793  0.0130  0.0615 -0.0979
 7625TIP3    H144290   5.421   6.919  11.759  0.8300  0.5936 -1.6796
 7625TIP3    H244291   5.555   6.864  11.714  1.4212 -0.1762  0.8346
 7626TIP3   OH244292   0.471   2.026   5.493  0.4673  0.6993 -0.2210
 7626TIP3    H144293   0.489   1.940   5.532  0.8112  0.4101 -0.9932
 7626TIP3    H244294   0.442   2.006   5.404  1.9156  1.4254 -0.8885
 7627TIP3   OH244295   0.389   1.112  12.657  0.0392  0.1488  0.4089
 7627TIP3    H144296   0.306   1.093  12.701  1.3365 -2.1970  2.0990
 7627TIP3    H244297   0.445   1.145  12.727  0.8224  0.8201 -0.5210
 7628TIP3   OH244298   6.824   0.821  12.527 -0.6377  0.6190 -0.8785
 7628TIP3    H144299   6.836   0.899  12.472  0.3095  0.3593 -1.0545
 7628TIP3    H244300   6.830   0.747  12.466  0.4379  0.3297 -0.4480
 7629TIP3   OH244301   5.424   5.656  15.362 -0.0638  0.5553 -0.0552
 7629TIP3    H144302   5.388   5.745  15.366 -1.6960 -0.0990  0.5220
 7629TIP3    H244303   5.464   5.650  15.276 -1.5202  1.2772 -0.8134
 7630TIP3   OH244304   3.636   5.248  10.596  0.2741  0.1258 -0.4686
 7630TIP3    H144305   3.590   5.220  10.516 -0.8045 -1.7772  0.7336
 7630TIP3    H244306   3.703   5.181  10.609 -0.9727 -0.8248  1.3592
 7631TIP3   OH244307   2.429   1.544   1.796  0.3051  0.6885 -0.3379
 7631TIP3    H144308   2.455   1.625   1.840 -0.8873  1.0272 -0.2361
 7631TIP3    H244309   2.506   1.519   1.745  1.1226  1.1991  0.6237
 7632TIP3   OH244310   1.611   1.974  12.336 -0.1371  0.0304 -0.1670
 7632TIP3    H144311   1.641   1.963  12.245 -0.1372 -0.9028 -0.0693
 7632TIP3    H244312   1.529   2.022  12.329  0.6404  1.3380 -0.5454
 7633TIP3   OH244313   4.430   2.986  11.750 -0.1669  0.8295 -0.3210
 7633TIP3    H144314   4.402   3.023  11.833 -0.0535  1.7120 -0.6732
 7633TIP3    H244315   4.471   3.058  11.703  1.7465 -0.1486 -0.2629
 7634TIP3   OH244316   3.501   2.310   0.156  0.2596 -0.2328  0.3610
 7634TIP3    H144317   3.509   2.223   0.195  0.3794 -0.6451 -0.5476
 7634TIP3    H244318   3.582   2.354   0.179  0.9341 -0.9469 -0.5304
 7635TIP3   OH244319   6.869   1.379  13.624 -1.0227 -0.6231 -0.2939
 7635TIP3    H144320   6.795   1.412  13.675 -0.4979 -1.4742  1.0511
 7635TIP3    H244321   6.897   1.301  13.671  0.9763 -0.1161 -0.5854
 7636TIP3   OH244322   0.787   2.972  12.792  0.2390  0.2049  0.0333
 7636TIP3    H144323   0.806   3.060  12.823  0.0498  0.1147  0.4102
 7636TIP3    H244324   0.713   2.943  12.845  2.1608 -1.3321  2.0636
 7637TIP3   OH244325   6.677   2.174  13.888 -0.5495 -0.0840 -0.7391
 7637TIP3    H144326   6.689   2.213  13.802 -0.4617 -2.1131 -1.7114
 7637TIP3    H244327   6.744   2.215  13.942 -0.0963  0.6651 -1.8332
 7638TIP3   OH244328   2.589   0.271  13.644 -0.5719 -0.1477  0.5237
 7638TIP3    H144329   2.662   0.293  13.702 -0.6828 -0.9233  0.9843
 7638TIP3    H244330   2.560   0.354  13.609  1.0159  0.1208 -0.2623
 7639TIP3   OH244331   3.711   0.767   3.875  0.0152 -0.4635  0.0226
 7639TIP3    H144332   3.759   0.689   3.902 -1.7237 -2.2651 -1.7356
 7639TIP3    H244333   3.639   0.774   3.937 -0.8242 -1.3376 -0.8220
 7640TIP3   OH244334   0.575   5.586  15.433  0.0072 -0.1005 -0.1714
 7640TIP3    H144335   0.480   5.592  15.447  0.1574  1.3524  0.4535
 7640TIP3    H244336   0.607   5.675  15.450  1.8904 -1.1703  2.6925
 7641TIP3   OH244337   4.327   4.135   1.948  0.2476  0.0256 -0.3930
 7641TIP3    H144338   4.408   4.123   1.998  0.3333  0.8408 -0.3260
 7641TIP3    H244339   4.337   4.076   1.873  0.9687  0.2189 -0.4625
 7642TIP3   OH244340   5.255   0.274   2.767  0.3310 -0.3824 -0.5820
 7642TIP3    H144341   5.334   0.253   2.718  1.2706  0.5046  0.5182
 7642TIP3    H244342   5.229   0.361   2.736 -0.6363 -0.9474 -1.4355
 7643TIP3   OH244343   2.847   3.236   2.749  0.5677 -0.0378  0.1517
 7643TIP3    H144344   2.892   3.177   2.810 -0.7450 -0.6204  0.5872
 7643TIP3    H244345   2.892   3.222   2.665  1.4544 -0.2994  0.6592
 7644TIP3   OH244346   1.160   4.722  11.056 -0.3476 -0.0566  0.4892
 7644TIP3    H144347   1.120   4.733  11.142  0.3088 -0.4858  0.8696
 7644TIP3    H244348   1.161   4.627  11.043  0.7093 -0.0694  0.5849
 7645TIP3   OH244349   0.910   0.587  13.853 -0.2403  0.1847  0.0872
 7645TIP3    H144350   0.990   0.640  13.860  0.7119 -1.1924 -0.0992
 7645TIP3    H244351   0.854   0.619  13.923  0.0414  1.8697 -0.4050
 7646TIP3   OH244352   5.902   5.402  15.062  0.8458 -0.3474  0.1205
 7646TIP3    H144353   5.979   5.392  15.118  1.1367 -0.2657 -0.2637
 7646TIP3    H244354   5.834   5.434  15.121  1.0450 -0.6318  0.5069
 7647TIP3   OH244355   0.865   2.257   5.486  0.1311  0.0514 -0.3510
 7647TIP3    H144356   0.778   2.283   5.455  0.3778 -1.8555 -2.8420
 7647TIP3    H244357   0.848   2.188   5.550 -0.1782 -0.6474 -1.1826
 7648TIP3   OH244358   2.287   3.099  13.493  0.1724 -0.1230  0.0353
 7648TIP3    H144359   2.315   3.026  13.549 -1.3202 -1.1733 -0.4940
 7648TIP3    H244360   2.365   3.152  13.482  1.0871 -1.1468  1.2096
 7649TIP3   OH244361   6.116   4.358  10.432  0.0383 -0.1055  0.1408
 7649TIP3    H144362   6.177   4.330  10.501  0.9611  0.8025 -0.2885
 7649TIP3    H244363   6.122   4.453  10.433 -2.1399  0.0670  0.7502
 7650TIP3   OH244364   2.326   3.365   4.685  0.0542 -0.4766  0.1760
 7650TIP3    H144365   2.260   3.311   4.729  1.0495 -2.5069 -0.6821
 7650TIP3    H244366   2.281   3.398   4.608 -0.4195 -0.5150  0.4253
 7651TIP3   OH244367   6.545   2.802  13.199  0.5049 -0.1089 -0.0367
 7651TIP3    H144368   6.578   2.764  13.117  0.1328  0.0474 -0.2634
 7651TIP3    H244369   6.485   2.870  13.171  2.5935  2.0145  0.3366
 7652TIP3   OH244370   2.585   5.509  14.984 -1.1530  0.0520 -0.1295
 7652TIP3    H144371   2.610   5.571  15.053  0.4599  0.3783 -0.9510
 7652TIP3    H244372   2.492   5.492  14.999 -1.1136  1.0078  1.4129
 7653TIP3   OH244373   4.997   0.292  11.958 -0.3294 -0.0340 -0.1129
 7653TIP3    H144374   4.987   0.381  11.992  0.6507  0.6910 -1.5805
 7653TIP3    H244375   5.051   0.303  11.879  0.2244 -1.9956 -0.0520
 7654TIP3   OH244376   0.975   3.689  10.520 -0.5282 -0.7871  0.3775
 7654TIP3    H144377   0.976   3.595  10.499 -1.3629 -0.8071  0.3687
 7654TIP3    H244378   0.964   3.732  10.436 -1.3199 -0.7438  0.4965
 7655TIP3   OH244379   0.564   0.610   5.184  0.2982  0.1644  0.3771
 7655TIP3    H144380   0.616   0.533   5.160 -1.1645 -1.3482  1.7897
 7655TIP3    H244381   0.476   0.591   5.151 -0.3924  0.5948  1.8713
 7656TIP3   OH244382   6.681   5.293   0.844 -0.4461 -0.5383 -0.7569
 7656TIP3    H144383   6.742   5.237   0.892 -3.0572 -2.5598  0.4626
 7656TIP3    H244384   6.705   5.382   0.870  1.3573 -1.2912  0.3656
 7657TIP3   OH244385   1.562   4.671  10.843  0.6182  0.5333 -0.7174
 7657TIP3    H144386   1.650   4.634  10.839  1.2735  2.0116 -0.4587
 7657TIP3    H244387   1.505   4.597  10.823  1.6948 -1.2213  2.0838
 7658TIP3   OH244388   0.252   1.067  11.085  0.1637  0.3085 -0.4905
 7658TIP3    H144389   0.199   1.020  11.019  0.6271 -0.0460 -0.6196
 7658TIP3    H244390   0.343   1.047  11.061  0.4828 -3.7816  2.9064
 7659TIP3   OH244391   5.239   6.362   0.981  0.1440 -0.2423  0.0271
 7659TIP3    H144392   5.175   6.349   1.051 -0.5584 -0.8817 -0.7165
 7659TIP3    H244393   5.304   6.421   1.019  0.3122 -1.3458  1.5688
 7660TIP3   OH244394   6.699   5.159   2.458  0.5197 -0.1872 -0.0901
 7660TIP3    H144395   6.673   5.190   2.371 -1.5642  1.2171  0.9529
 7660TIP3    H244396   6.722   5.067   2.445 -1.3230 -0.4646 -1.8629
 7661TIP3   OH244397   3.071   4.630   3.111 -0.3009 -0.2120  0.8611
 7661TIP3    H144398   3.161   4.598   3.104  0.2788  1.4345  0.2052
 7661TIP3    H244399   3.060   4.687   3.035 -2.0803 -0.7675  0.6534
 7662TIP3   OH244400   5.829   6.501   0.875  0.5403  0.0350  0.3780
 7662TIP3    H144401   5.887   6.576   0.867  1.2056 -0.4992  0.1467
 7662TIP3    H244402   5.887   6.426   0.881 -0.1354 -0.6221 -0.9641
 7663TIP3   OH244403   3.995   2.727  12.985  0.4848 -0.0831 -0.3045
 7663TIP3    H144404   4.080   2.683  12.994  0.1603 -0.6874 -0.1429
 7663TIP3    H244405   3.982   2.737  12.891  1.1669  0.8782 -0.3138
 7664TIP3   OH244406   6.245   0.806  10.934  0.3147 -0.7568 -0.4002
 7664TIP3    H144407   6.159   0.812  10.890  0.4748  1.8909 -0.5121
 7664TIP3    H244408   6.229   0.841  11.021  0.8947 -2.2173  0.3271
 7665TIP3   OH244409   1.241   3.997  14.095 -0.1941  0.3998 -0.2857
 7665TIP3    H144410   1.193   4.080  14.088  0.4225  0.8782  0.9239
 7665TIP3    H244411   1.210   3.958  14.177 -0.5056 -0.6020 -0.8600
 7666TIP3   OH244412   3.239   5.442  14.232  0.1321  0.2926 -0.1558
 7666TIP3    H144413   3.223   5.513  14.170  0.9136  1.7027  1.1812
 7666TIP3    H244414   3.250   5.485  14.317 -0.1827 -1.5021  0.8672
 7667TIP3   OH244415   3.563   1.984  12.159 -0.0659  0.1560  0.0750
 7667TIP3    H144416   3.591   1.926  12.088  0.7297  1.8371 -1.0584
 7667TIP3    H244417   3.643   2.029  12.186 -0.5987  0.4888  1.1582
 7668TIP3   OH244418   6.171   4.192  15.374  0.5646 -0.2485  0.3635
 7668TIP3    H144419   6.124   4.273  15.394 -0.6116  0.2125 -3.3818
 7668TIP3    H244420   6.118   4.123  15.414 -0.3853  0.6179  0.6453
 7669TIP3   OH244421   6.455   1.395  11.590 -0.4185  0.0409 -0.3873
 7669TIP3    H144422   6.400   1.316  11.588 -0.0999 -0.1747 -0.9974
 7669TIP3    H244423   6.439   1.437  11.506  2.6604 -1.6606 -1.9950
 7670TIP3   OH244424   6.927   1.435  14.277 -0.1745  0.1510 -0.2151
 7670TIP3    H144425   7.001   1.443  14.218 -0.5111  0.9302 -0.5347
 7670TIP3    H244426   6.850   1.446  14.222 -0.5428 -0.7246  0.1008
 7671TIP3   OH244427   2.837   1.824  13.675  0.1132 -0.0556 -0.1075
 7671TIP3    H144428   2.767   1.824  13.609 -0.5723  1.1419  0.5969
 7671TIP3    H244429   2.915   1.798  13.626 -0.7859 -1.3774 -0.9254
 7672TIP3   OH244430   5.122   6.840  14.950 -0.6242  0.5476 -0.2044
 7672TIP3    H144431   5.117   6.762  15.005  1.2946  0.8436  0.4667
 7672TIP3    H244432   5.170   6.813  14.872  0.3904  1.1027  0.1998
 7673TIP3   OH244433   4.310   1.736   0.324 -0.1452 -0.0217 -0.3351
 7673TIP3    H144434   4.221   1.710   0.299 -0.4920 -0.7597  1.4960
 7673TIP3    H244435   4.357   1.654   0.335  0.8961  0.3714 -1.6230
 7674TIP3   OH244436   3.770   5.088   1.415  0.9198 -0.1560  0.4582
 7674TIP3    H144437   3.770   5.154   1.484  1.9371  0.6161 -0.2410
 7674TIP3    H244438   3.678   5.070   1.398  0.6512 -0.7023  2.3177
 7675TIP3   OH244439   0.745   1.844  10.538  0.2530 -0.0968  0.4108
 7675TIP3    H144440   0.735   1.757  10.499  2.7324 -0.0501 -0.4594
 7675TIP3    H244441   0.710   1.903  10.471  0.0590 -0.3169  0.3129
 7676TIP3   OH244442   4.011   4.240  12.296 -0.1798  0.6075 -0.0543
 7676TIP3    H144443   4.073   4.245  12.369  0.2610  0.1432 -0.3907
 7676TIP3    H244444   4.037   4.162  12.247 -1.5704 -0.1142  0.2849
 7677TIP3   OH244445   1.984   1.009  12.222  0.6192 -0.4388  0.5389
 7677TIP3    H144446   1.931   1.087  12.206  0.7140 -0.8534 -2.1314
 7677TIP3    H244447   1.921   0.944  12.255  0.3258  0.3616  1.6110
 7678TIP3   OH244448   5.081   0.514   4.831  0.4579  0.0157  0.4427
 7678TIP3    H144449   5.068   0.607   4.853  1.5772  0.3060 -0.0252
 7678TIP3    H244450   5.075   0.511   4.736 -0.8778 -0.6313  0.5375
 7679TIP3   OH244451   4.121   4.827  11.353  0.1596 -0.1890  0.2690
 7679TIP3    H144452   4.205   4.816  11.399  0.7519  0.3364 -0.6576
 7679TIP3    H244453   4.130   4.909  11.305 -0.5427 -0.5838 -0.5685
 7680TIP3   OH244454   0.587   7.108  13.140 -0.2587 -0.0814  0.3049
 7680TIP3    H144455   0.577   7.175  13.073 -0.9240 -0.7373 -0.2719
 7680TIP3    H244456   0.666   7.060  13.114 -0.6534 -0.4912 -0.1643
 7681TIP3   OH244457   1.698   1.594  14.433  0.1531  0.0500 -0.2536
 7681TIP3    H144458   1.696   1.622  14.524 -1.2957 -1.6570  0.2823
 7681TIP3    H244459   1.608   1.603  14.402  0.2821 -0.9831 -0.9952
 7682TIP3   OH244460   6.409   5.339  11.063  0.0494 -0.2599 -0.3878
 7682TIP3    H144461   6.488   5.342  11.117 -0.2996  0.9577  0.0842
 7682TIP3    H244462   6.356   5.270  11.103  0.8523 -1.0763 -0.6988
 7683TIP3   OH244463   2.052   3.646   4.578  0.7307  0.4329  0.1449
 7683TIP3    H144464   2.059   3.736   4.609 -0.8753  0.9797 -0.9348
 7683TIP3    H244465   1.991   3.650   4.505  0.8499 -1.5040 -0.1361
 7684TIP3   OH244466   2.696   0.726  14.601  0.4571 -0.2366  0.1465
 7684TIP3    H144467   2.715   0.677  14.521  2.7729 -1.2552  1.2108
 7684TIP3    H244468   2.663   0.659  14.662 -0.0015  0.2760  0.4710
 7685TIP3   OH244469   0.586   2.894   9.777  0.5061  0.2254  0.1985
 7685TIP3    H144470   0.501   2.851   9.769  0.3619  0.4784  0.3563
 7685TIP3    H244471   0.598   2.940   9.694  1.0230 -0.7598 -0.2928
 7686TIP3   OH244472   5.931   4.435   1.173 -0.2420  0.7067 -0.4768
 7686TIP3    H144473   5.935   4.508   1.110 -2.8305 -0.0166 -1.6107
 7686TIP3    H244474   5.846   4.446   1.217  0.2749 -0.4335  0.8929
 7687TIP3   OH244475   4.550   6.105   3.444 -0.0249 -0.2876 -0.7372
 7687TIP3    H144476   4.627   6.161   3.454 -0.5306  0.2147  0.4871
 7687TIP3    H244477   4.574   6.024   3.489 -0.6426  0.3255  0.7556
 7688TIP3   OH244478   2.036   1.395  10.143  0.5194  0.0161 -0.2652
 7688TIP3    H144479   1.966   1.330  10.133  1.3701 -1.3854  1.9520
 7688TIP3    H244480   1.990   1.477  10.165 -0.5280 -0.0345 -2.1350
 7689TIP3   OH244481   0.875   0.832   3.748 -0.6819 -0.0766  0.0210
 7689TIP3    H144482   0.858   0.758   3.690  3.5385 -0.7972 -0.6145
 7689TIP3    H244483   0.931   0.796   3.817  0.2315  2.1978  0.5423
 7690TIP3   OH244484   7.124   3.090  11.494 -0.2567 -0.5219  0.2488
 7690TIP3    H144485   7.088   3.002  11.485  0.4207 -0.8535  0.6972
 7690TIP3    H244486   7.210   3.077  11.534 -0.6429  0.4214  1.4664
 7691TIP3   OH244487   3.034   3.294   2.978 -0.2818  0.5551  0.1620
 7691TIP3    H144488   2.958   3.342   3.010  0.6815  1.4511  1.1822
 7691TIP3    H244489   3.029   3.209   3.021 -0.8625  0.4849 -0.0273
 7692TIP3   OH244490   4.506   1.556   0.441 -0.5372 -0.1710  0.2221
 7692TIP3    H144491   4.495   1.463   0.462  1.1248 -0.4487 -0.0325
 7692TIP3    H244492   4.521   1.598   0.526  0.6967 -0.4603  0.1672
 7693TIP3   OH244493   3.825   0.365  12.620 -0.2865  0.0986  0.2483
 7693TIP3    H144494   3.842   0.458  12.604  0.8125 -0.2988 -1.0818
 7693TIP3    H244495   3.814   0.327  12.532  0.5038 -1.2421  0.6994
 7694TIP3   OH244496   1.914   5.128   9.787  0.0987 -0.0175  0.0718
 7694TIP3    H144497   1.964   5.076   9.850 -0.2604 -1.4084 -0.7374
 7694TIP3    H244498   1.980   5.176   9.738  0.6200 -1.1603 -0.3950
 7695TIP3   OH244499   1.968   5.742   1.760 -0.3246 -0.3845 -0.3628
 7695TIP3    H144500   2.018   5.815   1.722  0.2827 -1.4207 -1.6264
 7695TIP3    H244501   2.035   5.682   1.792 -0.8288  0.0020  1.4987
 7696TIP3   OH244502   2.372   1.691  12.684 -0.4404 -0.2570  0.0126
 7696TIP3    H144503   2.368   1.632  12.609 -1.9882  0.9710 -0.9163
 7696TIP3    H244504   2.321   1.647  12.752  0.3651 -1.0338  0.1412
 7697TIP3   OH244505   4.843   0.844   0.513  0.1627 -0.2311 -0.4368
 7697TIP3    H144506   4.852   0.749   0.524  1.6731 -0.0225  0.5113
 7697TIP3    H244507   4.805   0.874   0.596  0.7945  0.1078 -0.2636
 7698TIP3   OH244508   6.817   3.916  13.548 -0.4961 -0.2958  0.2082
 7698TIP3    H144509   6.852   3.828  13.561 -0.6966 -0.6353 -1.3485
 7698TIP3    H244510   6.893   3.973  13.554 -0.4065 -0.5293  1.5116
 7699TIP3   OH244511   5.711   2.436  14.296 -0.4240  0.1767 -0.2242
 7699TIP3    H144512   5.672   2.507  14.246 -1.0628  2.2587  2.9718
 7699TIP3    H244513   5.706   2.360  14.237 -3.9981  1.6471 -2.1482
 7700TIP3   OH244514   4.439   2.507  13.448  0.3935 -0.3997 -0.0401
 7700TIP3    H144515   4.515   2.456  13.474  1.4590  1.0302 -0.2351
 7700TIP3    H244516   4.364   2.455  13.477  1.4594 -1.2084  1.3688
 7701TIP3   OH244517   1.183   6.491   9.602 -0.4452  0.0507 -0.6745
 7701TIP3    H144518   1.235   6.419   9.565 -0.8928 -1.0977  0.8615
 7701TIP3    H244519   1.239   6.529   9.669 -1.1738 -0.5345  0.2859
 7702TIP3   OH244520   3.114   5.992  14.863  0.0128 -0.0412  0.5897
 7702TIP3    H144521   3.097   5.952  14.778 -0.0531 -0.2187  0.6851
 7702TIP3    H244522   3.140   5.919  14.919 -1.4943 -0.1849  1.1442
 7703TIP3   OH244523   6.962   0.308  10.768 -0.9055 -0.2307  0.1614
 7703TIP3    H144524   7.008   0.233  10.806 -0.3814 -0.3004 -0.5867
 7703TIP3    H244525   6.975   0.299  10.674  0.0144  1.3333  0.1115
 7704TIP3   OH244526   4.798   5.318   3.279  0.2981  0.1089  0.2807
 7704TIP3    H144527   4.819   5.410   3.264 -0.5705  0.1605 -0.6920
 7704TIP3    H244528   4.764   5.315   3.368  1.1900  0.5594  0.6551
 7705TIP3   OH244529   1.191   0.071  13.839 -0.5324  0.0801 -0.0249
 7705TIP3    H144530   1.252   0.078  13.912  0.1306  0.6344 -0.6190
 7705TIP3    H244531   1.143  -0.011  13.855  0.9812 -0.8391 -0.0181
 7706TIP3   OH244532   6.842   6.938   9.770  0.4809  0.6171  0.0335
 7706TIP3    H144533   6.883   6.862   9.728 -1.2057 -0.1556 -0.3174
 7706TIP3    H244534   6.759   6.904   9.804 -0.8889  2.5461 -1.1562
 7707TIP3   OH244535   6.222   1.562   0.939 -0.4830  0.3226 -0.2871
 7707TIP3    H144536   6.310   1.527   0.954 -0.1851  0.6242 -1.2190
 7707TIP3    H244537   6.181   1.499   0.880 -0.3885  0.8704 -0.9609
 7708TIP3   OH244538   4.736   1.161  12.931  0.4246 -0.4687  0.6889
 7708TIP3    H144539   4.720   1.254  12.949 -2.2333 -0.7754  0.4117
 7708TIP3    H244540   4.796   1.160  12.857  0.5734  1.0327  0.7564
 7709TIP3   OH244541   0.028   2.928   1.651  0.2273 -0.0352  0.4008
 7709TIP3    H144542   0.050   2.860   1.588  0.6682 -0.5006  1.0520
 7709TIP3    H244543   0.083   2.910   1.727 -0.6116  0.2559  1.0931
 7710TIP3   OH244544   5.821   1.925   1.221 -0.0467 -0.1480  0.3387
 7710TIP3    H144545   5.846   1.926   1.129 -0.7088  0.8462  0.1484
 7710TIP3    H244546   5.886   1.980   1.264 -0.2599  0.1306  0.3087
 7711TIP3   OH244547   1.369   6.984   4.113 -0.2213  0.1962 -0.5577
 7711TIP3    H144548   1.280   6.978   4.148 -0.7361  1.6883 -1.5114
 7711TIP3    H244549   1.406   6.897   4.126 -2.1192 -0.7148 -0.8966
 7712TIP3   OH244550   6.207   1.415  13.609  0.8940 -0.6062  0.1026
 7712TIP3    H144551   6.157   1.407  13.690 -0.7538  0.2415 -0.7718
 7712TIP3    H244552   6.202   1.328  13.569  0.7772 -0.7308  0.3871
 7713TIP3   OH244553   6.910   6.558  10.676 -0.0326 -0.1100 -0.4782
 7713TIP3    H144554   6.963   6.627  10.638  1.5657 -1.2958 -0.5071
 7713TIP3    H244555   6.973   6.495  10.711 -1.3871 -0.1252  2.2837
 7714TIP3   OH244556   4.397   1.902   1.407 -0.0648 -0.2464 -0.1498
 7714TIP3    H144557   4.400   1.818   1.453  1.1639 -0.8366 -1.2440
 7714TIP3    H244558   4.313   1.941   1.434 -0.0797 -1.2330  1.3638
 7715TIP3   OH244559   4.920   4.070  10.236 -0.1177 -0.1522 -0.4090
 7715TIP3    H144560   4.839   4.118  10.217  0.6199  1.0032 -0.7111
 7715TIP3    H244561   4.928   4.007  10.164  0.6342  1.5706 -1.9140
 7716TIP3   OH244562   2.661   1.698  14.584 -0.3933  0.8762 -0.3056
 7716TIP3    H144563   2.632   1.631  14.646  1.5040 -0.6814 -1.0010
 7716TIP3    H244564   2.728   1.748  14.633  1.2412 -0.4724 -1.0622
 7717TIP3   OH244565   1.652   4.027  10.822 -0.0920 -0.2428 -0.1140
 7717TIP3    H144566   1.661   3.975  10.742  1.7217 -0.3221  0.1126
 7717TIP3    H244567   1.690   3.973  10.891 -1.3712 -0.0528  0.7777
 7718TIP3   OH244568   0.105   3.291   1.671  0.6233  0.3566 -0.1192
 7718TIP3    H144569   0.096   3.379   1.636 -1.1744  0.6633  0.9726
 7718TIP3    H244570   0.046   3.237   1.619  1.2234 -0.0794 -0.3612
 7719TIP3   OH244571   0.569   5.058   9.684  0.2429 -0.2919  0.4260
 7719TIP3    H144572   0.626   5.085   9.756 -1.4760 -0.3071  1.8543
 7719TIP3    H244573   0.628   5.016   9.621  1.7725 -0.4786  1.9218
 7720TIP3   OH244574   4.792   0.619  11.776  0.3132 -0.2722 -0.7859
 7720TIP3    H144575   4.815   0.544  11.831 -0.6591  0.1905  0.2969
 7720TIP3    H244576   4.862   0.683  11.793  0.1320 -0.2122 -0.2221
 7721TIP3   OH244577   5.926   2.097  14.684  0.3184 -0.4001  0.3717
 7721TIP3    H144578   6.002   2.143  14.648 -1.0560 -0.3996 -2.8461
 7721TIP3    H244579   5.851   2.139  14.643 -1.2814 -2.0145  1.5168
 7722TIP3   OH244580   0.497   0.218   0.519 -0.1251  0.0102  0.6705
 7722TIP3    H144581   0.547   0.198   0.440  0.8518  1.4676  0.8767
 7722TIP3    H244582   0.563   0.246   0.583 -1.1667  2.4759  0.7910
 7723TIP3   OH244583   0.557   3.895  10.738 -0.1792  0.1429  0.5705
 7723TIP3    H144584   0.463   3.888  10.751 -0.0448 -1.6147  0.8534
 7723TIP3    H244585   0.595   3.865  10.821  0.6174 -0.8620 -0.1309
 7724TIP3   OH244586   3.707   0.274  12.014 -0.4998  0.4773 -0.2062
 7724TIP3    H144587   3.802   0.262  12.026 -0.7776  0.5280  2.8187
 7724TIP3    H244588   3.689   0.233  11.930  1.8432 -1.8068  0.2465
 7725TIP3   OH244589   1.056   3.215  11.992  0.8520  0.2985  0.6437
 7725TIP3    H144590   1.040   3.309  11.993 -4.2470 -0.2759  0.2262
 7725TIP3    H244591   1.039   3.187  12.083 -1.1500 -0.4666  0.0952
 7726TIP3   OH244592   3.012   3.802   0.812 -0.5657 -0.5677  0.9368
 7726TIP3    H144593   3.054   3.746   0.878  0.3910 -0.9865  0.0023
 7726TIP3    H244594   3.086   3.841   0.765 -1.2372  0.2969  0.5863
 7727TIP3   OH244595   2.797   2.375  11.954 -0.5978 -0.1844 -0.5605
 7727TIP3    H144596   2.793   2.342  11.865 -0.7452  0.5275 -0.8216
 7727TIP3    H244597   2.708   2.364  11.988 -0.2614 -1.6101 -0.0655
 7728TIP3   OH244598   0.806   2.562  12.287 -0.4163 -1.0455 -0.1201
 7728TIP3    H144599   0.740   2.605  12.233 -1.7915 -1.5061  1.1153
 7728TIP3    H244600   0.861   2.633  12.318 -0.5402 -0.6015 -0.8947
 7729TIP3   OH244601   0.769   3.297   4.316 -0.1228 -0.0271  0.3125
 7729TIP3    H144602   0.783   3.235   4.244  2.8533 -1.4152  1.9157
 7729TIP3    H244603   0.751   3.380   4.273 -0.0196 -1.1252 -1.9963
 7730TIP3   OH244604   4.027   0.924  13.386  0.3512 -0.4977  0.2983
 7730TIP3    H144605   4.018   0.844  13.437 -3.4467 -1.0494 -0.9114
 7730TIP3    H244606   4.003   0.995  13.446 -2.1825 -0.9510 -0.0906
 7731TIP3   OH244607   5.348   5.708  10.932  0.0906  0.0924  0.4271
 7731TIP3    H144608   5.375   5.704  10.840  1.4164  0.8331  0.7576
 7731TIP3    H244609   5.425   5.676  10.980 -0.8780 -1.0694  1.2512
 7732TIP3   OH244610   4.659   4.379   6.037 -0.2101  0.1511 -0.1739
 7732TIP3    H144611   4.605   4.453   6.064 -0.8165 -1.4411  3.6387
 7732TIP3    H244612   4.748   4.403   6.065  0.1412  0.5503 -1.5556
 7733TIP3   OH244613   0.852   4.525   2.034 -0.1130 -0.3719  0.0498
 7733TIP3    H144614   0.820   4.471   1.962 -0.5294 -0.0183 -0.0323
 7733TIP3    H244615   0.946   4.531   2.019 -0.2841  0.2676 -0.8566
 7734TIP3   OH244616   1.131   3.423   2.363 -0.3934  0.2642 -0.3929
 7734TIP3    H144617   1.085   3.414   2.279  0.2831  0.2234 -0.7659
 7734TIP3    H244618   1.061   3.441   2.426 -0.8761  0.6639 -1.0201
 7735TIP3   OH244619   6.913   2.860  11.549 -0.2666  0.0303 -0.1189
 7735TIP3    H144620   6.877   2.773  11.564 -2.1317  0.6319 -0.8382
 7735TIP3    H244621   6.955   2.883  11.632 -0.1321 -1.3609  0.2217
 7736TIP3   OH244622   7.072   2.377  13.607 -0.2957 -0.1553  0.2899
 7736TIP3    H144623   7.139   2.391  13.674 -0.6887 -2.6227  1.3422
 7736TIP3    H244624   7.102   2.427  13.531  0.8115  1.7316  1.8831
 7737TIP3   OH244625   1.259   3.758  14.804 -0.1330 -0.0915 -0.2841
 7737TIP3    H144626   1.169   3.765  14.836 -0.1673  0.6772 -0.5225
 7737TIP3    H244627   1.254   3.700  14.729 -0.5291  0.3986 -0.6408
 7738TIP3   OH244628   5.835   3.798   1.572  0.1497  0.1817  0.2038
 7738TIP3    H144629   5.858   3.828   1.660 -1.3876  0.9759  0.3593
 7738TIP3    H244630   5.817   3.704   1.583  0.9002  0.0704  0.5388
 7739TIP3   OH244631   1.662   5.258   1.070  0.5383 -0.1287 -0.2413
 7739TIP3    H144632   1.575   5.229   1.044  0.5045  1.0514 -1.5763
 7739TIP3    H244633   1.659   5.262   1.165 -1.1400  0.6653 -0.2985
 7740TIP3   OH244634   6.546   2.051  13.488 -0.6750  0.1152 -0.2123
 7740TIP3    H144635   6.625   2.050  13.542 -0.9001 -0.6482  0.1068
 7740TIP3    H244636   6.541   2.141  13.455 -0.5919  0.6150  1.1027
 7741TIP3   OH244637   1.727   1.274   3.316 -0.7489  0.2182  0.1418
 7741TIP3    H144638   1.719   1.267   3.221 -1.3227  0.1220  0.1932
 7741TIP3    H244639   1.790   1.344   3.330 -0.4814  0.0710 -0.3129
 7742TIP3   OH244640   4.703   1.883   0.703  0.5137 -0.8726 -0.5405
 7742TIP3    H144641   4.619   1.840   0.717  0.1248  0.6094  2.3774
 7742TIP3    H244642   4.681   1.970   0.668  0.9198 -0.8776 -0.8253
 7743TIP3   OH244643   0.014   1.115  11.467  0.3079 -0.1425 -0.6969
 7743TIP3    H144644   0.002   1.054  11.540 -1.9507  0.1201 -0.7752
 7743TIP3    H244645   0.037   1.060  11.392  0.2276 -0.6722 -0.3356
 7744TIP3   OH244646   6.369   2.043  15.088  0.3376 -0.7830  0.7347
 7744TIP3    H144647   6.419   2.023  15.167  0.1805  0.2448  1.1118
 7744TIP3    H244648   6.359   2.138  15.089 -1.7647 -0.9440  0.7748
 7745TIP3   OH244649   1.697   5.070  13.635 -0.1041 -0.4878  0.3904
 7745TIP3    H144650   1.702   4.975  13.625 -2.8336 -0.6026 -0.8276
 7745TIP3    H244651   1.715   5.104  13.547  1.3691  0.2060  0.9268
 7746TIP3   OH244652   3.798   1.285  15.628 -0.2842 -0.0756 -0.1428
 7746TIP3    H144653   3.797   1.340  15.706  2.0581  1.0335 -0.8348
 7746TIP3    H244654   3.721   1.313  15.578 -1.3350 -0.2169  1.3153
 7747TIP3   OH244655   5.546   4.800   3.484  0.2089 -0.2643 -0.4285
 7747TIP3    H144656   5.458   4.780   3.453  0.3395  0.1908 -1.1096
 7747TIP3    H244657   5.535   4.882   3.534  0.4774  0.6331 -1.7873
 7748TIP3   OH244658   4.438   7.070  12.902  0.3256  0.2914 -0.4178
 7748TIP3    H144659   4.356   7.108  12.868 -1.2201 -0.4317  2.1864
 7748TIP3    H244660   4.474   7.139  12.958 -0.5013 -0.6461  1.3401
 7749TIP3   OH244661   1.188   6.506  10.584 -0.0382 -0.0133  0.4719
 7749TIP3    H144662   1.171   6.585  10.636  0.0313  0.2753  0.0608
 7749TIP3    H244663   1.105   6.459  10.584 -0.1377  0.1602  0.5454
 7750TIP3   OH244664   4.674   2.270  10.725 -0.0489 -0.1558 -0.6808
 7750TIP3    H144665   4.750   2.316  10.762  0.0095 -0.3032 -0.6159
 7750TIP3    H244666   4.705   2.181  10.709 -0.0581 -0.0770 -1.1430
 7751TIP3   OH244667   1.237   6.972   2.297  0.2601  0.9468 -0.1762
 7751TIP3    H144668   1.172   7.022   2.249 -0.9237 -1.7406 -1.5565
 7751TIP3    H244669   1.191   6.893   2.326  2.5429 -0.4583 -0.0820
 7752TIP3   OH244670   3.214   3.258   0.899 -0.3323 -0.0254 -0.4783
 7752TIP3    H144671   3.179   3.281   0.985  0.6296  1.0812 -0.3530
 7752TIP3    H244672   3.207   3.339   0.849 -0.2757 -0.4861 -1.2403
 7753TIP3   OH244673   6.676   6.486  12.286  0.2676 -0.1818 -0.1479
 7753TIP3    H144674   6.634   6.569  12.306 -1.0922 -0.9665  0.4292
 7753TIP3    H244675   6.769   6.506  12.282  0.0776  1.1383  1.2093
 7754TIP3   OH244676   0.626   2.198  13.848  0.5194 -0.7494 -0.1773
 7754TIP3    H144677   0.624   2.196  13.753 -1.1811 -3.6029 -0.2153
 7754TIP3    H244678   0.656   2.110  13.873  3.1691  0.6066  1.9960
 7755TIP3   OH244679   3.150   3.363   2.732 -0.1154 -0.0251  0.5648
 7755TIP3    H144680   3.125   3.340   2.821 -0.4533  1.3658  0.8543
 7755TIP3    H244681   3.073   3.343   2.679  0.2846 -1.4070  0.4623
 7756TIP3   OH244682   3.080   7.026  14.762 -0.1220  0.1598 -0.3412
 7756TIP3    H144683   3.131   7.038  14.842  1.0642 -0.8639 -0.9119
 7756TIP3    H244684   3.011   6.965  14.787  0.3192 -0.2563 -0.1205
 7757TIP3   OH244685   6.101   1.373   4.177 -0.0633  0.5519  0.2244
 7757TIP3    H144686   6.036   1.400   4.241  1.2163  2.9066  0.6290
 7757TIP3    H244687   6.105   1.446   4.115  1.5956  0.1078 -0.2365
 7758TIP3   OH244688   1.581   2.230   2.440 -0.2050  0.0888 -0.5820
 7758TIP3    H144689   1.558   2.317   2.472 -0.1627 -0.6831  1.7583
 7758TIP3    H244690   1.666   2.242   2.397  0.9796  0.8825  1.7848
 7759TIP3   OH244691   7.021   2.252  12.863 -0.1797  0.7584 -0.0178
 7759TIP3    H144692   7.009   2.200  12.784 -0.6776 -0.4619  0.8264
 7759TIP3    H244693   7.041   2.188  12.931 -0.4947  1.7130  1.0044
 7760TIP3   OH244694   2.020   2.248  11.486  0.5640 -0.3030  0.4825
 7760TIP3    H144695   2.047   2.202  11.566  1.6300 -0.2021  0.1871
 7760TIP3    H244696   1.999   2.336  11.515 -2.1674 -1.0825  1.1796
 7761TIP3   OH244697   2.372   1.754   1.396 -0.3574  0.0415  0.2111
 7761TIP3    H144698   2.369   1.681   1.457  0.6493 -0.5070 -0.3902
 7761TIP3    H244699   2.458   1.793   1.408 -0.4137  0.3575 -0.3583
 7762TIP3   OH244700   6.525   6.699   4.754 -0.3501  0.3293 -0.2219
 7762TIP3    H144701   6.573   6.692   4.671  0.8130  1.7594  0.2923
 7762TIP3    H244702   6.501   6.791   4.761 -0.0888  0.3221  1.2004
 7763TIP3   OH244703   1.626   5.756   1.937  1.1043 -0.0555 -0.0944
 7763TIP3    H144704   1.653   5.683   1.881  2.3611  0.8551 -0.7178
 7763TIP3    H244705   1.594   5.714   2.017 -0.4077 -1.3712 -1.3170
 7764TIP3   OH244706   2.063   5.102   4.217  0.5468 -0.1151 -0.0359
 7764TIP3    H144707   1.971   5.098   4.190  0.4981 -0.7022  0.2018
 7764TIP3    H244708   2.070   5.183   4.267  0.1728 -0.0379 -0.1079
 7765TIP3   OH244709   0.961   6.384   5.150  0.1071 -0.4780  0.2938
 7765TIP3    H144710   0.932   6.317   5.212 -0.1748 -1.3061 -0.7048
 7765TIP3    H244711   0.903   6.375   5.075  0.8660  0.0454 -0.3822
 7766TIP3   OH244712   1.052   2.641   1.186 -0.1490  0.2084  0.2463
 7766TIP3    H144713   1.064   2.685   1.102  0.9121  1.3803  0.9653
 7766TIP3    H244714   1.113   2.687   1.245 -2.3276  0.8228  2.1483
 7767TIP3   OH244715   3.802   0.314   4.130 -0.4972 -0.2930  0.3407
 7767TIP3    H144716   3.786   0.231   4.175  0.0006 -0.6550 -0.1326
 7767TIP3    H244717   3.715   0.353   4.119 -0.9158 -1.4749 -0.7982
 7768TIP3   OH244718   6.965   7.026  13.155  0.6244 -0.6086  0.2360
 7768TIP3    H144719   6.999   6.963  13.091  0.0257 -0.6437 -0.0479
 7768TIP3    H244720   6.871   7.031  13.138  0.7633  0.9392 -0.2521
 7769TIP3   OH244721   5.290   2.405  10.136 -0.5149 -0.2126 -0.5585
 7769TIP3    H144722   5.232   2.418  10.211 -1.3148  1.2029 -1.3870
 7769TIP3    H244723   5.362   2.465  10.151 -1.4814  1.2934 -1.6816
 7770TIP3   OH244724   3.094   2.730  15.310  0.2258  0.2257  0.3964
 7770TIP3    H144725   3.078   2.740  15.216  1.9096  0.0195  0.0488
 7770TIP3    H244726   3.036   2.793  15.352  0.4558  1.3279 -0.8860
 7771TIP3   OH244727   0.687   1.243  10.763 -0.1392  0.0493  0.3275
 7771TIP3    H144728   0.767   1.287  10.734 -0.0170 -0.1241  0.3953
 7771TIP3    H244729   0.623   1.262  10.695 -0.0289  0.1583  0.2539
 7772TIP3   OH244730   7.054   3.328  13.890 -0.5690  0.0461  0.5203
 7772TIP3    H144731   6.987   3.351  13.955  0.1207  1.8883  0.6551
 7772TIP3    H244732   7.127   3.387  13.909  1.1787 -1.9886  0.4561
 7773TIP3   OH244733   1.261   2.879  14.057  0.3550 -0.0868 -0.5583
 7773TIP3    H144734   1.204   2.865  14.133  1.6035 -1.6377  0.1639
 7773TIP3    H244735   1.224   2.955  14.013  0.0825  1.4605  2.0953
 7774TIP3   OH244736   2.028   4.762   0.008 -0.0006  0.0563  0.1647
 7774TIP3    H144737   2.015   4.694  -0.058  0.1385 -0.5632  0.7743
 7774TIP3    H244738   2.013   4.719   0.091  2.3715  0.1348  0.7223
 7775TIP3   OH244739   3.421   3.562   3.842  0.1110  0.5239 -0.3419
 7775TIP3    H144740   3.380   3.614   3.911  1.8682  0.8869  0.4836
 7775TIP3    H244741   3.364   3.486   3.833  0.8462 -0.6014  3.0180
 7776TIP3   OH244742   1.761   1.709   4.058  0.2626  0.3119 -0.1220
 7776TIP3    H144743   1.696   1.646   4.090  0.4948 -0.4850 -1.1828
 7776TIP3    H244744   1.784   1.760   4.136  0.3958 -1.1882  0.8641
 7777TIP3   OH244745   2.668   5.559   9.753 -0.0350 -0.6633  1.0483
 7777TIP3    H144746   2.578   5.567   9.722 -0.4859  0.1496  2.5104
 7777TIP3    H244747   2.722   5.590   9.680 -1.0500  0.9334  0.9525
 7778TIP3   OH244748   4.953   1.960   1.886 -0.1792 -0.2907  0.3167
 7778TIP3    H144749   5.021   2.019   1.921 -0.9211  0.9116 -0.2216
 7778TIP3    H244750   4.892   2.018   1.841 -1.2508 -1.4255  0.2686
 7779TIP3   OH244751   5.343   4.138  10.593 -0.0358  0.2486 -0.7318
 7779TIP3    H144752   5.348   4.225  10.552  0.6548  1.4700  1.7366
 7779TIP3    H244753   5.261   4.140  10.642  1.1678  0.5466  1.3769
 7780TIP3   OH244754   6.587   1.465  14.134 -0.4230 -0.0204 -0.2062
 7780TIP3    H144755   6.635   1.545  14.111 -0.6567  0.2552  0.2564
 7780TIP3    H244756   6.534   1.490  14.210 -1.1127 -0.3960 -0.5621
 7781TIP3   OH244757   6.202   3.004  10.003  0.3012  0.0153  0.0796
 7781TIP3    H144758   6.208   2.992   9.908 -1.2640  0.8712 -0.1606
 7781TIP3    H244759   6.260   3.077  10.021  0.1755  0.2134 -0.3048
 7782TIP3   OH244760   6.583   2.427  15.550 -0.9015 -0.2925  0.1773
 7782TIP3    H144761   6.586   2.338  15.584 -1.6009 -0.5708 -0.4694
 7782TIP3    H244762   6.660   2.435  15.494 -0.2062 -0.1039  1.1300
 7783TIP3   OH244763   0.162   3.759  10.390 -0.0245  0.2082  1.0825
 7783TIP3    H144764   0.117   3.841  10.372  0.3295  1.0322  3.5409
 7783TIP3    H244765   0.091   3.696  10.404 -0.3333  0.5491  1.0662
 7784TIP3   OH244766   0.422   5.411   1.072 -0.3973 -0.1493 -0.2416
 7784TIP3    H144767   0.394   5.451   0.990 -0.6051 -0.4772 -0.3332
 7784TIP3    H244768   0.504   5.454   1.093  1.1601 -1.9915 -2.0871
 7785TIP3   OH244769   1.101   5.965   4.356  0.1059 -0.2732  0.7887
 7785TIP3    H144770   1.112   5.882   4.402  0.3121  0.8825  2.9784
 7785TIP3    H244771   1.070   6.026   4.424 -0.5564  1.3184 -0.8501
 7786TIP3   OH244772   3.914   3.172  10.227  0.3855 -0.3352  0.1469
 7786TIP3    H144773   3.947   3.087  10.197  0.2190 -0.9675  1.6370
 7786TIP3    H244774   3.823   3.154  10.253 -0.7132  1.0205 -2.4012
 7787TIP3   OH244775   6.375   6.961   4.431  0.2512  0.4118  0.5053
 7787TIP3    H144776   6.436   6.975   4.504  0.0970  1.6630  0.4090
 7787TIP3    H244777   6.428   6.976   4.352  0.0632  0.4717  0.3917
 7788TIP3   OH244778   1.417   5.003   4.371 -0.1327  0.2163 -0.2440
 7788TIP3    H144779   1.415   4.911   4.345 -0.3379  0.0649  0.3021
 7788TIP3    H244780   1.454   5.049   4.295 -0.3378 -0.2717 -0.6390
 7789TIP3   OH244781   1.985   5.689  13.371 -0.9825 -0.3891 -0.0431
 7789TIP3    H144782   2.038   5.758  13.331 -1.6938  0.3662  0.2931
 7789TIP3    H244783   2.037   5.659  13.446 -1.2443  0.7110  0.5994
 7790TIP3   OH244784   2.924   0.039  11.757  0.5943 -0.0792  0.4396
 7790TIP3    H144785   2.997   0.001  11.806  1.6160  2.1172  0.7298
 7790TIP3    H244786   2.853  -0.024  11.767  1.6680 -1.0780  2.2749
 7791TIP3   OH244787   6.407   4.661   1.507 -1.0655  0.1017 -0.0016
 7791TIP3    H144788   6.379   4.706   1.586  0.6402 -0.7184  1.1297
 7791TIP3    H244789   6.390   4.568   1.525  0.3614 -0.2046 -0.1097
 7792TIP3   OH244790   5.470   1.150   4.394  0.2313 -0.1041  0.0011
 7792TIP3    H144791   5.505   1.064   4.417  1.2977  0.4220  0.3946
 7792TIP3    H244792   5.377   1.145   4.416  0.3866 -0.9998  0.4751
 7793TIP3   OH244793   5.243   4.786   2.114 -0.2558 -0.3360  0.0823
 7793TIP3    H144794   5.241   4.835   2.032 -0.5201  1.2065  0.9743
 7793TIP3    H244795   5.301   4.836   2.171 -0.4454 -1.1289  1.0017
 7794TIP3   OH244796   1.328   0.971   1.380 -0.2070  0.3551  0.1049
 7794TIP3    H144797   1.248   0.993   1.331  0.1114 -0.1139 -0.6400
 7794TIP3    H244798   1.354   0.886   1.346  1.0909  0.8831 -0.2799
 7795TIP3   OH244799   3.061   5.947   3.880 -0.1450 -0.3644 -0.1666
 7795TIP3    H144800   2.988   5.885   3.876 -2.1419  1.8758 -1.4949
 7795TIP3    H244801   3.028   6.020   3.932  1.8054  0.0348  0.6031
 7796TIP3   OH244802   4.386   3.438  13.753  0.8426  0.2944 -0.2198
 7796TIP3    H144803   4.422   3.376  13.690  2.1288 -0.1142  0.8585
 7796TIP3    H244804   4.441   3.427  13.831 -0.6492  0.8143  0.9555
 7797TIP3   OH244805   5.969   5.366   1.701 -0.0687 -0.2590  0.2008
 7797TIP3    H144806   5.882   5.396   1.675  0.5933  1.6657  0.0466
 7797TIP3    H244807   5.977   5.279   1.662 -1.0653  0.4306 -1.6829
 7798TIP3   OH244808   4.808   1.951   1.031  0.0714  0.1893 -0.4665
 7798TIP3    H144809   4.758   1.901   1.096 -1.4751  1.6153 -0.4984
 7798TIP3    H244810   4.855   1.884   0.981  0.8670 -1.0030  1.7053
 7799TIP3   OH244811   6.186   1.079   3.734 -0.1829  0.0343 -0.6378
 7799TIP3    H144812   6.180   1.115   3.646 -0.5786  1.0873 -0.1893
 7799TIP3    H244813   6.098   1.088   3.770 -0.5285 -2.1323 -0.7713
 7800TIP3   OH244814   5.919   5.645   5.504 -0.3079  0.1808 -0.0795
 7800TIP3    H144815   5.832   5.627   5.467  0.3386 -0.0343 -1.5708
 7800TIP3    H244816   5.939   5.567   5.556 -0.0703 -0.8136 -1.5930
 7801TIP3   OH244817   6.967   0.416  13.747  0.4376 -0.4179 -0.8052
 7801TIP3    H144818   6.976   0.482  13.679 -0.2594  0.1612 -0.3372
 7801TIP3    H244819   6.952   0.465  13.827 -1.3539 -1.1626 -0.6485
 7802TIP3   OH244820   2.432   1.246  14.936  0.0108 -0.4956  0.5552
 7802TIP3    H144821   2.475   1.160  14.938 -0.3665 -0.7367 -0.6577
 7802TIP3    H244822   2.432   1.270  14.844 -0.5671  0.4731  0.7972
 7803TIP3   OH244823   5.825   0.431  10.833 -0.1577  0.0930  0.5186
 7803TIP3    H144824   5.855   0.357  10.886  1.4518 -0.9766 -1.6688
 7803TIP3    H244825   5.733   0.411  10.814 -0.6784  0.3703  2.5927
 7804TIP3   OH244826   6.177   6.043  12.372  0.0523 -0.8089 -0.3364
 7804TIP3    H144827   6.176   6.138  12.386  0.0556 -0.2111 -3.5986
 7804TIP3    H244828   6.266   6.016  12.396  0.6906  0.3860 -1.2405
 7805TIP3   OH244829   2.862   1.414  15.218 -0.5466  0.5040  0.4050
 7805TIP3    H144830   2.844   1.502  15.251  1.7463  1.1221  0.2395
 7805TIP3    H244831   2.950   1.394  15.252 -1.1860 -1.9102  0.7727
 7806TIP3   OH244832   1.904   3.866  10.896 -0.3693 -0.1820 -0.0401
 7806TIP3    H144833   1.917   3.817  10.814 -1.1342  0.0120 -0.2892
 7806TIP3    H244834   1.978   3.927  10.899 -0.5796  0.1260 -0.8239
 7807TIP3   OH244835   6.839   2.442   9.906 -0.1635 -0.5381  0.1727
 7807TIP3    H144836   6.866   2.353   9.882 -1.9181 -1.1564  0.3552
 7807TIP3    H244837   6.748   2.449   9.875  0.1839  1.4874 -0.5866
 7808TIP3   OH244838   1.012   4.018   3.248  0.1456  0.3020  0.3175
 7808TIP3    H144839   1.076   4.014   3.177  0.9754 -0.4469  1.0769
 7808TIP3    H244840   0.951   4.086   3.222  0.6804  0.3340 -0.9088
 7809TIP3   OH244841   4.315   7.045   1.376  0.3221 -0.0751 -0.1958
 7809TIP3    H144842   4.357   7.127   1.349  0.6853 -0.3066 -0.3386
 7809TIP3    H244843   4.289   7.060   1.467  0.3170  0.2263 -0.2466
 7810TIP3   OH244844   3.534   0.139   0.837 -0.2097 -0.4095  0.5061
 7810TIP3    H144845   3.520   0.045   0.823  0.8172 -0.7679  1.6927
 7810TIP3    H244846   3.471   0.181   0.779  0.0763 -1.8142 -0.9052
 7811TIP3   OH244847   0.110   4.920  15.419 -0.5507  0.1662 -0.0371
 7811TIP3    H144848   0.064   4.838  15.406 -0.4993  0.1398 -0.0521
 7811TIP3    H244849   0.048   4.988  15.392 -0.2310  0.0882 -1.0005
 7812TIP3   OH244850   3.484   2.815   5.021  0.4774 -0.7632  0.5112
 7812TIP3    H144851   3.485   2.900   5.065  2.1883 -0.9950  1.0170
 7812TIP3    H244852   3.419   2.764   5.068  0.6528 -0.2640  1.3159
 7813TIP3   OH244853   7.121   5.186  11.085 -0.0031 -0.2866 -0.4445
 7813TIP3    H144854   7.121   5.119  11.154 -1.9144  0.2112  0.0928
 7813TIP3    H244855   7.033   5.223  11.087  0.4240  0.9387 -2.0263
 7814TIP3   OH244856   1.557   1.464  14.945  0.1646 -0.0869  0.4397
 7814TIP3    H144857   1.478   1.410  14.949 -0.9316  1.4845  1.7156
 7814TIP3    H244858   1.559   1.497  14.854 -2.0318  1.6753  0.9360
 7815TIP3   OH244859   3.599   0.089   2.917  0.1466 -0.2434 -0.0107
 7815TIP3    H144860   3.573   0.082   2.825  2.2813  1.9266 -0.8990
 7815TIP3    H244861   3.543   0.158   2.952  1.7012  1.5217 -0.7901
 7816TIP3   OH244862   7.088   2.471   3.831 -0.1141  0.1853 -0.2924
 7816TIP3    H144863   7.160   2.417   3.864 -1.4415 -1.9283 -0.6587
 7816TIP3    H244864   7.074   2.536   3.900  2.1860  0.7501 -0.2721
 7817TIP3   OH244865   2.853   0.074  13.874 -0.5492  0.0659 -0.1804
 7817TIP3    H144866   2.862   0.000  13.934  0.3121  2.1221  2.4219
 7817TIP3    H244867   2.759   0.092  13.872 -0.4812  0.8295  1.7814
 7818TIP3   OH244868   3.681   3.443   3.916  0.3230  0.1607  0.4036
 7818TIP3    H144869   3.720   3.433   3.829  1.1845  0.7511  0.7023
 7818TIP3    H244870   3.605   3.499   3.902  1.8167  2.3199  0.3226
 7819TIP3   OH244871   1.783   6.668   5.165  0.1384 -0.3836  0.5395
 7819TIP3    H144872   1.828   6.708   5.239 -1.8209  5.0900 -0.7115
 7819TIP3    H244873   1.693   6.654   5.196 -0.5113  1.2834 -0.4497
 7820TIP3   OH244874   6.610   1.264  14.469 -0.2813 -0.1752 -0.5118
 7820TIP3    H144875   6.532   1.231  14.425 -0.0641  0.1172 -1.1251
 7820TIP3    H244876   6.579   1.338  14.521 -0.8394 -1.5322  1.1727
 7821TIP3   OH244877   6.133   6.964   3.917 -0.3870  0.3261  0.0620
 7821TIP3    H144878   6.107   6.874   3.899  0.4408  0.0368  0.2942
 7821TIP3    H244879   6.169   6.996   3.835  0.1805  0.1415  0.2394
 7822TIP3   OH244880   5.982   6.618   9.967  0.0250 -0.4744  0.0915
 7822TIP3    H144881   5.956   6.706   9.941 -0.0527 -0.2604  0.8597
 7822TIP3    H244882   6.076   6.623   9.979 -0.1613 -0.1083  1.5350
 7823TIP3   OH244883   3.910   6.184   9.654 -0.5446 -0.5574 -0.1841
 7823TIP3    H144884   3.908   6.088   9.648  0.9561 -0.5884 -0.5199
 7823TIP3    H244885   3.842   6.205   9.719 -0.0122 -1.9427  0.8721
 7824TIP3   OH244886   0.268   5.970  14.471  0.1473  0.2030 -0.3255
 7824TIP3    H144887   0.314   5.890  14.495  0.3034  0.3384 -0.1729
 7824TIP3    H244888   0.182   5.940  14.442  0.7653 -0.1656 -1.8691
 7825TIP3   OH244889   6.334   2.999   1.173  0.2767 -0.5666 -0.0584
 7825TIP3    H144890   6.260   3.058   1.159  1.1734  0.6704  0.3108
 7825TIP3    H244891   6.391   3.012   1.098  0.5624 -0.8407  0.1045
 7826TIP3   OH244892   2.473   4.560  13.938  0.0833  0.3321  0.0379
 7826TIP3    H144893   2.389   4.532  13.901 -0.5838  1.8760  0.3163
 7826TIP3    H244894   2.472   4.655  13.932  1.6890  0.4049  0.3591
 7827TIP3   OH244895   0.309   3.907   1.649  0.2852  0.0892  0.8921
 7827TIP3    H144896   0.269   3.893   1.735 -0.1876  1.6410  0.9467
 7827TIP3    H244897   0.251   3.861   1.588 -0.6347  0.8649  1.1642
 7828TIP3   OH244898   0.950   3.609   4.749 -0.3205 -0.4989  0.2089
 7828TIP3    H144899   0.877   3.631   4.807 -0.3673 -1.1699  0.4128
 7828TIP3    H244900   0.933   3.518   4.722 -0.2381 -0.2316 -0.7671
 7829TIP3   OH244901   1.601   4.708   3.114  0.3171 -0.1085  0.3106
 7829TIP3    H144902   1.655   4.700   3.035  1.0249  0.2154  0.7605
 7829TIP3    H244903   1.613   4.799   3.142  0.3659 -0.3321  1.0143
 7830TIP3   OH244904   0.163   2.915  15.125 -0.5784  0.6706  0.8184
 7830TIP3    H144905   0.093   2.979  15.112 -1.6967 -0.9600 -2.4728
 7830TIP3    H244906   0.124   2.848  15.181 -1.9222 -0.3769 -1.2255
 7831TIP3   OH244907   4.845   0.682   0.231 -0.2801 -1.5410 -0.3796
 7831TIP3    H144908   4.879   0.605   0.276  0.6219 -0.8948  0.0659
 7831TIP3    H244909   4.750   0.676   0.241 -0.0958 -0.8889  2.5395
 7832TIP3   OH244910   3.925   0.726  14.120 -0.2489 -0.0695 -0.4525
 7832TIP3    H144911   3.860   0.656  14.123  0.4163 -0.8082  3.9603
 7832TIP3    H244912   3.894   0.790  14.185  3.0748 -0.3189  1.6578
 7833TIP3   OH244913   2.679   6.535   1.622 -0.2574 -0.3445 -0.3160
 7833TIP3    H144914   2.609   6.543   1.686  0.0017 -0.9056  0.0412
 7833TIP3    H244915   2.670   6.613   1.567 -1.6829 -0.8261 -0.8065
 7834TIP3   OH244916   5.298   1.458  13.810  0.2580  0.2259 -0.0169
 7834TIP3    H144917   5.234   1.469  13.880 -0.2468  1.5385 -0.6560
 7834TIP3    H244918   5.362   1.395  13.845 -1.0412 -0.6445  0.8506
 7835TIP3   OH244919   2.457   6.293  15.044  0.5952 -0.2651 -0.9524
 7835TIP3    H144920   2.371   6.285  15.084  1.3095 -2.1733  0.3545
 7835TIP3    H244921   2.448   6.253  14.957  0.5107 -2.0071 -0.1814
 7836TIP3   OH244922   2.426   1.582   0.223  0.1888 -0.2257  0.3617
 7836TIP3    H144923   2.403   1.611   0.135 -1.3555  0.8642  1.0745
 7836TIP3    H244924   2.367   1.509   0.240  0.5551 -0.5004  0.4757
 7837TIP3   OH244925   2.583   6.981  10.619  0.3564 -0.3740  0.2024
 7837TIP3    H144926   2.571   7.015  10.708 -0.8219  4.2892 -1.4626
 7837TIP3    H244927   2.675   6.996  10.599  0.1740  0.4526 -0.0235
 7838TIP3   OH244928   4.979   1.760  13.010  0.4779 -0.0276  0.1756
 7838TIP3    H144929   4.913   1.774  13.078  1.3301  0.4001  0.9226
 7838TIP3    H244930   5.058   1.802  13.043  0.3242  2.2458 -2.0664
 7839TIP3   OH244931   3.209   6.498  14.986  0.0229  0.1217 -0.2799
 7839TIP3    H144932   3.133   6.513  15.042 -0.6393 -0.8834 -0.8737
 7839TIP3    H244933   3.249   6.417  15.020  0.5491  0.3780 -0.2753
 7840TIP3   OH244934   2.128   3.952   4.955  0.1516 -0.0045 -0.3488
 7840TIP3    H144935   2.091   4.015   4.894  0.1479  0.9783  0.6405
 7840TIP3    H244936   2.121   3.994   5.041 -1.5115 -2.0664  0.6259
 7841TIP3   OH244937   6.788   4.678   1.745  0.4788  0.1957 -0.0926
 7841TIP3    H144938   6.719   4.638   1.692  1.2003 -1.7510  0.3354
 7841TIP3    H244939   6.861   4.690   1.685  0.9390 -1.0405  0.1874
 7842TIP3   OH244940   1.668   5.510  10.601  0.1491 -0.0623 -0.2029
 7842TIP3    H144941   1.737   5.462  10.646  0.1354 -0.3024 -0.4360
 7842TIP3    H244942   1.702   5.524  10.512  1.2437  2.5549  0.5190
 7843TIP3   OH244943   0.901   2.838   9.548  0.4074 -0.2674 -0.2104
 7843TIP3    H144944   0.809   2.850   9.526  0.1724  0.6793  1.1464
 7843TIP3    H244945   0.940   2.925   9.535  1.0740 -0.6117 -0.5843
 7844TIP3   OH244946   5.900   0.215  14.434 -0.0697 -0.3613  0.3556
 7844TIP3    H144947   5.995   0.222  14.422 -0.1677 -0.1265 -0.3250
 7844TIP3    H244948   5.883   0.121  14.425  0.2156 -0.5224  1.4319
 7845TIP3   OH244949   3.907   1.282  12.305  0.0911 -0.0592  0.3500
 7845TIP3    H144950   3.872   1.228  12.235 -1.5396 -0.2436  1.2529
 7845TIP3    H244951   3.944   1.220  12.368 -0.6435 -0.0723  0.7848
 7846TIP3   OH244952   7.106   0.657   2.252  0.1530  0.0072 -0.1787
 7846TIP3    H144953   7.109   0.665   2.157 -0.5200 -1.1095 -0.3066
 7846TIP3    H244954   7.030   0.710   2.278 -0.9664 -1.3764 -0.4927
 7847TIP3   OH244955   5.330   3.899  12.806  0.1166  0.6880  0.0365
 7847TIP3    H144956   5.303   3.987  12.781 -1.5671 -0.1345 -1.2800
 7847TIP3    H244957   5.297   3.888  12.896 -0.0390  1.2548  0.0521
 7848TIP3   OH244958   7.004   6.284  15.068  0.1654  0.8764  0.3864
 7848TIP3    H144959   6.975   6.320  15.151 -0.3603 -0.0327  0.6086
 7848TIP3    H244960   6.961   6.337  15.002 -0.6489  0.6277  0.7080
 7849TIP3   OH244961   2.356   4.407  13.154  0.2285  0.3417 -0.2314
 7849TIP3    H144962   2.287   4.470  13.131 -1.2630 -0.9884  0.4074
 7849TIP3    H244963   2.435   4.443  13.113 -1.2945  0.6141 -3.2627
 7850TIP3   OH244964   4.307   7.116   9.903 -0.3021  0.0151  0.4922
 7850TIP3    H144965   4.230   7.171   9.891 -0.7690 -0.3364  1.6993
 7850TIP3    H244966   4.381   7.176   9.889 -0.7735  0.3880 -0.5210
 7851TIP3   OH244967   5.752   6.934   9.669 -0.0235  0.3941  0.1802
 7851TIP3    H144968   5.763   6.977   9.584 -1.9634  0.1236 -0.2414
 7851TIP3    H244969   5.664   6.898   9.667  0.0759 -0.0762  2.1210
 7852TIP3   OH244970   1.825   2.985   2.466  0.0145  0.0125 -0.5650
 7852TIP3    H144971   1.776   3.017   2.390 -0.6074  0.1738 -0.1032
 7852TIP3    H244972   1.909   3.031   2.461 -0.7668  1.5584 -0.0653
 7853TIP3   OH244973   4.538   0.069   5.111  0.3574 -0.0747  0.3747
 7853TIP3    H144974   4.612   0.129   5.114  1.3028 -1.1463 -0.4445
 7853TIP3    H244975   4.574  -0.014   5.143 -1.1879  0.0081  2.5430
 7854TIP3   OH244976   3.414   3.819  15.377 -0.0765 -0.5718 -0.1251
 7854TIP3    H144977   3.448   3.900  15.415  0.5716 -0.4541 -0.9118
 7854TIP3    H244978   3.460   3.812  15.293 -0.8867 -1.2186 -0.5233
 7855TIP3   OH244979   3.347   6.423  15.366 -0.3155 -0.2129  0.3729
 7855TIP3    H144980   3.329   6.330  15.359 -0.8833  0.0032 -1.4452
 7855TIP3    H244981   3.279   6.456  15.425 -2.4474 -0.3725 -1.8682
 7856TIP3   OH244982   5.781   5.749  10.202  0.3803  0.3202  0.3160
 7856TIP3    H144983   5.785   5.665  10.157  0.4860 -1.3145  3.1473
 7856TIP3    H244984   5.871   5.768  10.226  0.0388 -0.6691  2.7458
 7857TIP3   OH244985   1.598   0.370   9.701 -0.0339 -0.0810  0.2367
 7857TIP3    H144986   1.657   0.365   9.626  0.1881 -0.9868  0.4577
 7857TIP3    H244987   1.627   0.300   9.759 -0.9693 -0.1756  0.6100
 7858TIP3   OH244988   1.833   1.206  11.447 -0.1995  0.0730 -0.1182
 7858TIP3    H144989   1.913   1.160  11.474  1.4262  2.0339 -1.2991
 7858TIP3    H244990   1.788   1.145  11.390  1.6167 -0.3168 -1.2226
 7859TIP3   OH244991   1.170   5.250   4.322 -0.3193  0.6198  0.2984
 7859TIP3    H144992   1.244   5.205   4.362 -0.3522 -1.0379 -1.3621
 7859TIP3    H244993   1.097   5.235   4.381  0.3155  0.9841  1.1931
 7860TIP3   OH244994   1.474   2.846  12.177 -0.0039  0.3374 -0.2481
 7860TIP3    H144995   1.480   2.933  12.218 -0.2418 -0.1752  0.9056
 7860TIP3    H244996   1.394   2.850  12.124  0.9247  1.3913 -1.6359
 7861TIP3   OH244997   2.475   3.095  12.752 -0.2736 -0.3740 -0.2091
 7861TIP3    H144998   2.545   3.030  12.760 -0.8832 -0.8899  1.2503
 7861TIP3    H244999   2.399   3.045  12.724 -0.5962 -0.1953  0.3283
 7862TIP3   OH245000   5.763   3.874   5.138  0.1511  0.1844  0.0496
 7862TIP3    H145001   5.850   3.890   5.101  0.8439 -0.0618  1.4837
 7862TIP3    H245002   5.770   3.787   5.177 -0.4430  0.5501  0.9929
 7863TIP3   OH245003   5.620   4.337  10.521  0.0325  0.4066  0.5811
 7863TIP3    H145004   5.612   4.243  10.506 -2.0033  0.7169 -0.5079
 7863TIP3    H245005   5.585   4.378  10.442 -5.5028  2.1114  3.4032
 7864TIP3   OH245006   3.922   3.861  15.201 -0.2912  0.3340 -0.4778
 7864TIP3    H145007   3.875   3.897  15.126 -0.0719  1.0004 -0.2969
 7864TIP3    H245008   4.014   3.876  15.182 -0.2846  1.7430  0.5368
 7865TIP3   OH245009   1.654   2.043   2.618 -0.1019 -0.1550  0.2456
 7865TIP3    H145010   1.620   2.106   2.555 -1.4791 -1.1248 -0.0391
 7865TIP3    H245011   1.694   1.975   2.565 -0.0357 -0.2917  0.4689
 7866TIP3   OH245012   1.612   6.834   1.275 -0.8579  0.2317  0.1664
 7866TIP3    H145013   1.536   6.876   1.316 -1.0839 -1.3311  1.4552
 7866TIP3    H245014   1.624   6.882   1.193 -1.0803  2.7777  1.5037
 7867TIP3   OH245015   1.145   4.314  12.937 -0.6573 -0.0148 -0.0904
 7867TIP3    H145016   1.176   4.294  13.025 -0.9095  0.1012  0.0283
 7867TIP3    H245017   1.071   4.374  12.951 -0.8642 -0.2004 -0.3654
 7868TIP3   OH245018   2.625   1.321  10.219  0.2912 -0.1926  0.3508
 7868TIP3    H145019   2.705   1.353  10.177  0.0785  0.1230  0.1827
 7868TIP3    H245020   2.616   1.231  10.188  0.4733 -0.1649  0.2116
 7869TIP3   OH245021   6.189   0.953  11.161 -0.6747  0.1361 -0.4456
 7869TIP3    H145022   6.114   1.010  11.144 -0.7484 -0.0423 -0.7338
 7869TIP3    H245023   6.257   1.011  11.193 -1.4346  0.1050  1.3490
 7870TIP3   OH245024   4.450   4.379  12.084  0.8096  0.0230  0.3576
 7870TIP3    H145025   4.438   4.351  11.994 -1.7657  1.6159  0.0881
 7870TIP3    H245026   4.485   4.468  12.077 -0.5526  0.6297  0.8341
 7871TIP3   OH245027   1.722   2.873  12.633 -0.5136 -0.3440 -0.2835
 7871TIP3    H145028   1.765   2.792  12.604  0.6191  0.3799 -0.6595
 7871TIP3    H245029   1.686   2.910  12.553  0.0180  0.1291 -0.3091
 7872TIP3   OH245030   5.022   2.202   2.887  0.5977 -0.3583 -0.1709
 7872TIP3    H145031   5.049   2.139   2.821 -2.2897 -1.1162 -0.7659
 7872TIP3    H245032   5.037   2.158   2.970  0.0615 -1.2305 -0.5287
 7873TIP3   OH245033   2.713   5.035  11.736 -0.0329  0.0407 -0.2392
 7873TIP3    H145034   2.718   5.006  11.645  3.2986 -1.5230  0.2840
 7873TIP3    H245035   2.680   5.125  11.731 -2.0231 -0.7254 -2.7380
 7874TIP3   OH245036   2.414   6.915  10.216 -0.2412  0.3650 -0.0184
 7874TIP3    H145037   2.334   6.895  10.265 -0.3808 -0.0425 -0.3984
 7874TIP3    H245038   2.392   6.893  10.125  0.6971 -0.9462  0.0441
 7875TIP3   OH245039   2.893   4.583  15.200  0.1504  0.0069  0.0800
 7875TIP3    H145040   2.838   4.566  15.276  1.7580 -2.1655  0.8712
 7875TIP3    H245041   2.836   4.569  15.125 -0.7211 -0.8656  0.8712
 7876TIP3   OH245042   1.447   2.240  15.473  0.6658 -0.4129  0.2019
 7876TIP3    H145043   1.469   2.261  15.564  2.9920  3.8036 -1.0153
 7876TIP3    H245044   1.511   2.173  15.448  2.1986  0.7170  0.8946
 7877TIP3   OH245045   7.104   6.834   9.869 -0.0332 -0.1237  0.4607
 7877TIP3    H145046   7.101   6.924   9.839  1.7415  0.1136  0.8723
 7877TIP3    H245047   7.180   6.796   9.824 -1.3098 -1.7373 -0.4843
 7878TIP3   OH245048   3.337   1.024  13.808  0.0804 -0.1032  0.7676
 7878TIP3    H145049   3.372   1.069  13.731 -2.1384  1.2569  0.4566
 7878TIP3    H245050   3.400   1.041  13.877  0.8939  0.7629 -0.1516
 7879TIP3   OH245051   5.041   0.017   0.681 -0.0369  0.6805 -0.6819
 7879TIP3    H145052   5.025   0.111   0.684 -0.4670  0.5994 -0.0942
 7879TIP3    H245053   5.005  -0.011   0.597 -0.8300  0.8984 -0.4329
 7880TIP3   OH245054   2.818   4.456  12.747 -0.4654 -0.4401  0.4411
 7880TIP3    H145055   2.733   4.460  12.702  0.3339 -0.7785 -1.1958
 7880TIP3    H245056   2.826   4.364  12.774 -1.0487 -0.1861  1.5050
 7881TIP3   OH245057   4.936   5.967   5.173  0.3057  0.1732  0.1815
 7881TIP3    H145058   4.937   5.975   5.078  0.1576  0.8225  0.2323
 7881TIP3    H245059   5.008   5.907   5.193  0.2340 -0.0885 -0.3506
 7882TIP3   OH245060   3.249   1.087   2.606 -0.0063  0.3136  0.0282
 7882TIP3    H145061   3.181   1.022   2.620 -0.3284  0.7365  0.5012
 7882TIP3    H245062   3.328   1.036   2.589 -0.2292 -0.2062  0.4953
 7883TIP3   OH245063   5.825   7.088  14.284  0.7980  0.1567 -0.1762
 7883TIP3    H145064   5.809   6.994  14.285  2.8707 -0.2350 -0.2321
 7883TIP3    H245065   5.885   7.102  14.212 -1.1815  1.8929 -1.6180
 7884TIP3   OH245066   2.506   4.612  12.399 -0.7894  0.6343  0.0787
 7884TIP3    H145067   2.593   4.628  12.361 -1.3138  1.6395 -0.7611
 7884TIP3    H245068   2.520   4.543  12.463  0.2253 -0.8033 -1.6132
 7885TIP3   OH245069   5.067   6.949  12.100 -0.5738  0.0839 -0.1281
 7885TIP3    H145070   5.017   6.968  12.179  0.2642  3.4867 -0.2808
 7885TIP3    H245071   5.153   6.990  12.115  1.0611 -2.6426 -1.2380
 7886TIP3   OH245072   4.101   3.562  11.719  0.6013 -1.0869 -0.2377
 7886TIP3    H145073   4.191   3.531  11.706  0.1395 -2.8895  0.6371
 7886TIP3    H245074   4.110   3.634  11.782  1.5796  0.0210 -1.5502
 7887TIP3   OH245075   2.561   6.581   9.444 -0.2278  0.1043  0.0590
 7887TIP3    H145076   2.653   6.602   9.427 -0.2502 -0.0445 -0.2582
 7887TIP3    H245077   2.545   6.503   9.391  0.0316 -1.0965  1.6580
 7888TIP3   OH245078   6.311   2.668  13.016 -0.5678  0.0646  0.5685
 7888TIP3    H145079   6.259   2.735  13.061 -0.0880  1.2307 -0.5483
 7888TIP3    H245080   6.272   2.585  13.043 -2.2960  0.8585  0.6488
 7889TIP3   OH245081   0.926   5.857  14.832 -0.3440 -0.1194 -0.5451
 7889TIP3    H145082   0.936   5.910  14.912  0.5439 -1.1577  0.0651
 7889TIP3    H245083   0.879   5.914  14.771  0.1160  1.1756  0.2639
 7890TIP3   OH245084   0.412   3.422   3.040 -0.0760 -0.5887  0.1650
 7890TIP3    H145085   0.391   3.334   3.073 -4.2241 -0.3735 -1.3242
 7890TIP3    H245086   0.420   3.475   3.119  0.7160 -1.9470  1.0469
 7891TIP3   OH245087   2.175   7.094   3.030  0.0719  0.1823 -0.1282
 7891TIP3    H145088   2.146   7.018   3.081 -0.7126  0.6291  0.1161
 7891TIP3    H245089   2.195   7.059   2.943 -0.9269 -0.2069 -0.2114
 7892TIP3   OH245090   6.876   1.911  12.082 -0.1216  0.3985 -0.5077
 7892TIP3    H145091   6.899   1.990  12.131  2.1483 -0.0740 -0.7197
 7892TIP3    H245092   6.857   1.845  12.148 -1.8054  1.0074 -0.3310
 7893TIP3   OH245093   6.667   0.373   0.544 -0.5996  0.1010 -0.2655
 7893TIP3    H145094   6.577   0.394   0.568 -0.4200 -0.4767  1.0246
 7893TIP3    H245095   6.718   0.402   0.620 -0.0589 -2.5317  0.4526
 7894TIP3   OH245096   4.855   2.814  14.662  0.2634 -0.8381 -0.1995
 7894TIP3    H145097   4.865   2.873  14.587  0.1180 -1.3036 -0.5879
 7894TIP3    H245098   4.767   2.778  14.653  0.3208 -1.0507  0.0840
 7895TIP3   OH245099   4.650   5.939   3.636  0.1841  0.0550 -0.4538
 7895TIP3    H145100   4.738   5.921   3.667 -0.1751 -1.9635 -0.4798
 7895TIP3    H245101   4.631   5.868   3.574 -0.2607  2.2432 -3.0203
 7896TIP3   OH245102   3.015   6.893  12.260 -0.2520  0.2692 -0.8768
 7896TIP3    H145103   3.100   6.857  12.235  0.5865  1.1146  0.5799
 7896TIP3    H245104   2.969   6.821  12.302 -0.7846 -0.5352 -2.7641
 7897TIP3   OH245105   5.027   6.434  12.431  0.5381  0.8309  0.0230
 7897TIP3    H145106   4.979   6.419  12.513  0.8251 -0.7555 -0.0634
 7897TIP3    H245107   5.102   6.488  12.456 -1.6638  4.1772  0.0212
 7898TIP3   OH245108   1.095   0.802  15.115  0.1700 -0.3713 -0.2305
 7898TIP3    H145109   1.161   0.870  15.100  0.4682 -0.3662  0.9605
 7898TIP3    H245110   1.012   0.845  15.094  0.3520  0.3853  0.5316
 7899TIP3   OH245111   1.495   6.177   1.880  0.5292  0.4632  0.0948
 7899TIP3    H145112   1.554   6.230   1.827 -1.4724  1.1315 -1.6606
 7899TIP3    H245113   1.421   6.159   1.821  0.1600 -2.5101  1.3150
 7900TIP3   OH245114   1.068   2.710  11.150  0.3985 -0.0422 -0.0956
 7900TIP3    H145115   1.086   2.804  11.150 -1.7618  0.4093 -0.4537
 7900TIP3    H245116   0.989   2.700  11.202 -0.3038 -1.4530 -1.3454
 7901TIP3   OH245117   3.784   6.339  13.976  0.0647  0.1866 -0.0551
 7901TIP3    H145118   3.724   6.272  14.007  0.0344 -0.0348 -0.5707
 7901TIP3    H245119   3.871   6.302  13.989  0.0349 -0.1536 -0.7623
 7902TIP3   OH245120   3.661   1.251   3.660 -0.1807  0.7091 -0.1873
 7902TIP3    H145121   3.676   1.255   3.566 -1.8130 -0.6631 -0.5480
 7902TIP3    H245122   3.567   1.236   3.669 -0.2947  2.1725  1.7198
 7903TIP3   OH245123   6.469   6.840  11.737  0.6211 -0.3647 -0.2033
 7903TIP3    H145124   6.509   6.909  11.789  0.9233  0.5055 -1.5402
 7903TIP3    H245125   6.376   6.860  11.736  0.4231 -1.1218  1.0451
 7904TIP3   OH245126   6.955   5.774  15.493 -0.5143 -0.6193  0.1330
 7904TIP3    H145127   7.042   5.750  15.526 -0.2721  1.2628  0.9715
 7904TIP3    H245128   6.966   5.783  15.399  0.4552  0.5573  0.3437
 7905TIP3   OH245129   6.117   4.132   5.837 -0.8031  0.2661 -0.1808
 7905TIP3    H145130   6.070   4.183   5.902  0.7775 -0.0069  1.2548
 7905TIP3    H245131   6.185   4.087   5.887  0.8774  0.5391 -2.0922
 7906TIP3   OH245132   3.039   6.623  15.329 -1.0595  0.5258 -0.6703
 7906TIP3    H145133   3.069   6.558  15.394 -1.1687  1.5304  0.4135
 7906TIP3    H245134   2.985   6.572  15.269  0.0356 -0.6750 -0.6955
 7907TIP3   OH245135   4.142   0.952   2.147  0.0328 -0.0078 -0.2509
 7907TIP3    H145136   4.081   0.889   2.108  1.1785  0.1770 -2.4915
 7907TIP3    H245137   4.127   1.033   2.099  1.1561  0.3679  0.0085
 7908TIP3   OH245138   2.942   5.583   1.958 -0.3634  0.2380  0.2393
 7908TIP3    H145139   2.852   5.588   1.991 -0.0351 -0.7499  1.3456
 7908TIP3    H245140   2.978   5.670   1.974 -0.6228  0.1584  1.3087
 7909TIP3   OH245141   4.798   4.036  15.279 -0.3046 -0.4992  0.1802
 7909TIP3    H145142   4.856   3.975  15.324 -1.0143  0.1042  2.0174
 7909TIP3    H245143   4.712   3.993  15.281 -0.8286  0.5394  1.5699
 7910TIP3   OH245144   6.810   4.738  12.853  0.2118  0.1310  0.9803
 7910TIP3    H145145   6.720   4.772  12.853 -0.3734 -1.2902 -0.3718
 7910TIP3    H245146   6.819   4.693  12.938 -0.2463  0.5213  1.2412
 7911TIP3   OH245147   1.906   6.293   2.421  0.0668 -0.3259 -0.3584
 7911TIP3    H145148   1.914   6.262   2.512 -1.7279  1.3552  0.4486
 7911TIP3    H245149   1.994   6.285   2.385  0.8956 -0.7326  1.6297
 7912TIP3   OH245150   0.145   5.223   5.169  0.1082  0.0131 -0.3330
 7912TIP3    H145151   0.148   5.162   5.095 -0.7473 -1.1044  0.5141
 7912TIP3    H245152   0.187   5.176   5.241 -0.7374  0.3311  0.3841
 7913TIP3   OH245153   2.176   3.724   0.126  0.0094  0.3067 -0.2509
 7913TIP3    H145154   2.180   3.667   0.203 -0.6459  1.3684  0.6012
 7913TIP3    H245155   2.265   3.760   0.117  0.2411 -0.2873 -0.3675
 7914TIP3   OH245156   6.685   2.892  11.904 -0.5216 -0.7158  0.1157
 7914TIP3    H145157   6.761   2.846  11.939 -0.6424 -0.2521  1.0180
 7914TIP3    H245158   6.674   2.857  11.816  1.9374  0.6049 -0.7956
 7915TIP3   OH245159   5.606   1.961   4.466 -0.3250  0.1306  0.1151
 7915TIP3    H145160   5.623   1.871   4.437 -2.1298  0.4533 -2.3188
 7915TIP3    H245161   5.673   2.014   4.423  0.2495  0.0455  0.8981
 7916TIP3   OH245162   0.375   4.706  15.208  0.0727  0.2085 -1.0091
 7916TIP3    H145163   0.450   4.648  15.198  0.1822  0.2763 -0.5890
 7916TIP3    H245164   0.335   4.709  15.121  0.0661 -0.4962 -1.0329
 7917TIP3   OH245165   5.537   4.885   9.445 -0.2042  0.3112 -0.4093
 7917TIP3    H145166   5.460   4.932   9.413 -0.4488 -0.9012 -1.7171
 7917TIP3    H245167   5.592   4.874   9.367  1.5340  1.5417  0.5778
 7918TIP3   OH245168   7.094   4.761   0.849 -0.4420 -0.1234  0.2584
 7918TIP3    H145169   7.050   4.762   0.934  1.2688  1.1231  1.1846
 7918TIP3    H245170   7.121   4.852   0.835  0.4486 -0.5558 -1.0029
 7919TIP3   OH245171   4.115   0.416  14.693  0.0587 -0.5408  0.2423
 7919TIP3    H145172   4.113   0.487  14.758 -0.1587  2.3694 -2.6598
 7919TIP3    H245173   4.026   0.416  14.656  1.0317  0.3303 -2.3102
 7920TIP3   OH245174   0.850   1.869   0.048  0.0600 -0.4516 -0.3850
 7920TIP3    H145175   0.765   1.828   0.068 -0.0955  0.2537  0.4508
 7920TIP3    H245176   0.843   1.957   0.085  1.2522 -0.4685 -0.1030
 7921TIP3   OH245177   2.799   4.605  14.947  0.4558  0.0262 -0.6140
 7921TIP3    H145178   2.830   4.683  14.902  2.1049  0.8345  1.7246
 7921TIP3    H245179   2.706   4.620  14.960  0.8274  1.8647  0.1847
 7922TIP3   OH245180   0.583   6.300   2.493  0.2094  0.4932  0.2323
 7922TIP3    H145181   0.500   6.257   2.474  1.4453 -1.4046 -1.2478
 7922TIP3    H245182   0.616   6.328   2.407  0.8854  1.6698  0.8481
 7923TIP3   OH245183   4.660   1.724  10.285  0.2336 -0.1538  0.6079
 7923TIP3    H145184   4.629   1.801  10.237 -1.4671 -0.9775  0.2988
 7923TIP3    H245185   4.606   1.722  10.364  1.5316 -0.0248  1.5335
 7924TIP3   OH245186   5.622   6.849   1.128  0.4384  0.3356 -0.2183
 7924TIP3    H145187   5.607   6.922   1.067  0.6211  0.0266 -0.6350
 7924TIP3    H245188   5.554   6.860   1.195  1.0619  1.4685  0.2681
 7925TIP3   OH245189   3.302   0.925  10.230  0.5100 -0.1171  0.1449
 7925TIP3    H145190   3.266   1.014  10.233 -1.3209 -0.7210 -2.0202
 7925TIP3    H245191   3.270   0.884  10.310  0.5400  0.8379  0.6695
 7926TIP3   OH245192   4.037   6.284   0.326 -0.3708 -0.0495 -0.3541
 7926TIP3    H145193   4.065   6.301   0.416  2.7044  0.1648 -1.2465
 7926TIP3    H245194   4.056   6.192   0.312 -0.6285 -0.0307 -0.8549
 7927TIP3   OH245195   6.249   4.802   1.697  0.9125 -0.2462  0.2730
 7927TIP3    H145196   6.196   4.777   1.772  1.6761 -1.0436  0.5699
 7927TIP3    H245197   6.327   4.843   1.735  0.9130  0.1382 -0.1243
 7928TIP3   OH245198   0.783   4.150   3.238  0.2950  0.5448  0.3662
 7928TIP3    H145199   0.718   4.165   3.307 -0.1760  1.8266 -0.3260
 7928TIP3    H245200   0.761   4.213   3.170  1.5420  0.1758 -0.4140
 7929TIP3   OH245201   6.799   5.663  12.487  0.2139  0.6458  0.2607
 7929TIP3    H145202   6.886   5.679  12.522  0.4025  0.1112  0.0474
 7929TIP3    H245203   6.812   5.650  12.393  0.2930 -1.9669  0.5403
 7930TIP3   OH245204   3.395   2.704   2.983 -0.2342 -0.1856  0.1846
 7930TIP3    H145205   3.371   2.614   3.003 -3.1065  0.6404  0.8036
 7930TIP3    H245206   3.401   2.748   3.068 -1.1020  0.7000 -0.1918
 7931TIP3   OH245207   3.412   3.600  10.187 -0.1584  0.2332  0.3311
 7931TIP3    H145208   3.342   3.591  10.122  1.1980  0.9853 -1.3302
 7931TIP3    H245209   3.411   3.693  10.211 -1.4115 -0.2399  2.3798
 7932TIP3   OH245210   1.491   6.340   4.916  0.0338 -0.0556  0.5495
 7932TIP3    H145211   1.532   6.264   4.958 -0.9782 -0.9661 -0.0467
 7932TIP3    H245212   1.397   6.320   4.917 -0.1188  0.3808 -1.1507
 7933TIP3   OH245213   4.852   4.444   3.829 -0.2807  0.3761 -0.1018
 7933TIP3    H145214   4.762   4.429   3.858 -0.0228  3.0026  2.5659
 7933TIP3    H245215   4.903   4.374   3.872 -0.6412  0.9771  1.3592
 7934TIP3   OH245216   1.807   1.421  11.850  0.0099 -0.6197 -0.4423
 7934TIP3    H145217   1.837   1.455  11.765  0.1394 -0.5359 -0.3643
 7934TIP3    H245218   1.887   1.387  11.890  0.4195  1.4206  0.6311
 7935TIP3   OH245219   5.797   2.843   1.862  0.4256  0.3117 -0.2479
 7935TIP3    H145220   5.806   2.938   1.868 -0.1340  0.2826  3.2764
 7935TIP3    H245221   5.884   2.809   1.882  0.2988  0.0793 -0.0818
 7936TIP3   OH245222   6.730   5.626   1.699 -0.0543 -0.2721 -0.3782
 7936TIP3    H145223   6.674   5.614   1.622 -0.7455 -2.2611  0.3783
 7936TIP3    H245224   6.696   5.704   1.741 -0.1566  0.4052 -1.6578
 7937TIP3   OH245225   1.494   0.977  12.357  0.2533  0.9771 -0.0459
 7937TIP3    H145226   1.482   1.072  12.353 -2.0014  0.7208 -0.7218
 7937TIP3    H245227   1.467   0.953  12.445  0.2218  0.8964 -0.0772
 7938TIP3   OH245228   4.214   0.589   0.547 -0.0291 -1.1387 -0.1468
 7938TIP3    H145229   4.220   0.684   0.558 -0.1819 -1.1325 -0.1091
 7938TIP3    H245230   4.165   0.560   0.624  1.6380 -1.4720  0.8358
 7939TIP3   OH245231   1.359   2.050   3.624 -0.5711  0.4811 -0.0607
 7939TIP3    H145232   1.388   1.959   3.613 -0.3531  0.6328 -0.8522
 7939TIP3    H245233   1.318   2.052   3.710  0.7945 -0.0141  0.6326
 7940TIP3   OH245234   4.472   1.454  11.217  0.2119 -0.5744  0.5521
 7940TIP3    H145235   4.545   1.515  11.220  1.0561 -1.4852 -0.5709
 7940TIP3    H245236   4.431   1.460  11.304  1.5041  0.0881  1.1311
 7941TIP3   OH245237   0.971   0.100   9.516  0.5856  0.7063  0.0681
 7941TIP3    H145238   1.041   0.163   9.534  1.2159  0.8356 -2.4866
 7941TIP3    H245239   1.015   0.015   9.518  0.6854  0.7271 -0.7529
 7942TIP3   OH245240   3.329   2.003  14.935 -0.2168  0.4758  0.1748
 7942TIP3    H145241   3.305   1.931  14.877  0.0860 -1.3004  2.1583
 7942TIP3    H245242   3.247   2.031  14.975  0.1048 -1.7927  2.6790
 7943TIP3   OH245243   2.274   1.604  12.072 -0.1624  0.2014  0.6237
 7943TIP3    H145244   2.265   1.511  12.089  1.0042  0.0795  0.6364
 7943TIP3    H245245   2.188   1.641  12.096 -1.0831 -1.0163 -0.6486
 7944TIP3   OH245246   4.791   2.122  13.992 -0.8954  0.2426 -0.1325
 7944TIP3    H145247   4.845   2.076  13.928 -0.0971  1.6520 -0.5054
 7944TIP3    H245248   4.853   2.158  14.055 -1.7205 -2.3327  2.3743
 7945TIP3   OH245249   3.175   3.674   1.019  0.4732  0.0554 -0.4763
 7945TIP3    H145250   3.204   3.734   1.088  0.3304  0.2573 -0.5933
 7945TIP3    H245251   3.131   3.603   1.067 -0.0903  0.4579 -0.3880
 7946TIP3   OH245252   0.229   1.612  10.265  0.0067  0.6007 -0.2742
 7946TIP3    H145253   0.173   1.690  10.265  0.1561  0.7890 -2.8305
 7946TIP3    H245254   0.312   1.642  10.229  0.8140 -0.3032  0.7749
 7947TIP3   OH245255   2.614   5.193  12.766 -0.0987  0.0231  0.3021
 7947TIP3    H145256   2.612   5.192  12.862 -3.2051 -1.0083  0.3546
 7947TIP3    H245257   2.572   5.276  12.742 -1.8373 -0.9251 -0.0685
 7948TIP3   OH245258   7.101   3.745   2.414  0.0156  0.0477 -0.2259
 7948TIP3    H145259   7.078   3.836   2.398  0.7124  0.6423  1.8356
 7948TIP3    H245260   7.069   3.727   2.503  1.1199 -1.2651 -0.0576
 7949TIP3   OH245261   6.569   5.551   0.989 -0.2222 -0.0193  0.2178
 7949TIP3    H145262   6.527   5.507   1.064 -0.7973  0.3183  0.1002
 7949TIP3    H245263   6.515   5.628   0.973  0.1138  0.1120 -0.3170
 7950TIP3   OH245264   5.786   4.075  13.142 -0.2794 -0.0879  0.1432
 7950TIP3    H145265   5.777   4.112  13.230  2.3692 -0.1907  0.5191
 7950TIP3    H245266   5.837   3.995  13.154  0.5173  0.1277 -1.5197
 7951TIP3   OH245267   6.497   2.499  10.582  0.3039 -0.1611  0.0273
 7951TIP3    H145268   6.462   2.552  10.654  0.9089 -0.4821  0.5617
 7951TIP3    H245269   6.457   2.536  10.504  0.7188  1.0866  0.3889
 7952TIP3   OH245270   2.038   1.070   0.898 -0.2882  0.3688 -0.1173
 7952TIP3    H145271   2.038   1.050   0.992  0.8838 -0.4825 -0.2800
 7952TIP3    H245272   2.129   1.088   0.877 -0.3065 -0.8881 -1.3903
 7953TIP3   OH245273   0.067   5.059  14.796  0.1837  0.4228 -0.1171
 7953TIP3    H145274   0.058   4.998  14.723  0.0513  0.6519 -0.2948
 7953TIP3    H245275   0.073   5.004  14.874  0.5933  0.1689 -0.3283
 7954TIP3   OH245276   1.590   1.160   1.740  0.0176  0.3357  0.5242
 7954TIP3    H145277   1.507   1.167   1.695 -0.3487  0.1584  1.1522
 7954TIP3    H245278   1.627   1.248   1.738  0.5204  0.1193 -1.0454
 7955TIP3   OH245279   6.962   6.003  15.090 -0.1910 -0.3729  0.4133
 7955TIP3    H145280   7.006   6.088  15.090 -2.9489  1.1690  0.6261
 7955TIP3    H245281   6.886   6.016  15.034 -0.9332 -2.5989  0.8064
 7956TIP3   OH245282   5.220   7.101  14.310  0.0141  0.4768  0.5561
 7956TIP3    H145283   5.156   7.154  14.262  0.3895  2.1598  1.8294
 7956TIP3    H245284   5.252   7.159  14.379  3.0312 -0.2480 -0.1086
 7957TIP3   OH245285   3.020   1.001   9.696 -0.8021  0.6476  0.8078
 7957TIP3    H145286   2.993   1.093   9.693  0.9685  1.1897  0.2321
 7957TIP3    H245287   3.113   1.004   9.718  0.0017 -0.8246 -1.9100
 7958TIP3   OH245288   1.016   6.487  14.020 -0.0721  0.5448  0.0787
 7958TIP3    H145289   0.961   6.533  13.957 -0.3042  1.0345  0.6309
 7958TIP3    H245290   1.100   6.475  13.974  0.2563  2.2139  0.1916
 7959TIP3   OH245291   3.442   4.529  14.209 -0.0358  0.0459  0.2636
 7959TIP3    H145292   3.349   4.529  14.190 -0.1323 -1.5627  0.5864
 7959TIP3    H245293   3.468   4.437  14.203  1.2963  0.3227  1.2439
 7960TIP3   OH245294   1.208   0.294  12.010  0.2164 -0.3321 -0.1899
 7960TIP3    H145295   1.263   0.268  12.084 -0.0276 -2.9400 -0.8188
 7960TIP3    H245296   1.270   0.312  11.939  0.3590 -0.7211 -0.1661
 7961TIP3   OH245297   5.027   0.129   2.116  0.9153  0.1475 -0.1703
 7961TIP3    H145298   5.069   0.212   2.093  0.7152  0.1523 -0.5232
 7961TIP3    H245299   4.962   0.115   2.047 -0.8594  0.9931  1.2631
 7962TIP3   OH245300   1.594   4.262  12.664 -0.2881  0.1516 -0.0711
 7962TIP3    H145301   1.680   4.298  12.682 -0.7413  1.1586  0.1823
 7962TIP3    H245302   1.535   4.312  12.720 -1.2092  0.4182 -1.2286
 7963TIP3   OH245303   0.821   5.320   1.087 -0.7393 -0.1874  0.1710
 7963TIP3    H145304   0.892   5.284   1.140 -2.3029 -1.1036  1.7759
 7963TIP3    H245305   0.830   5.415   1.097  0.0508 -0.2986  0.6259
 7964TIP3   OH245306   4.745   2.506  13.598 -0.2336  0.1492  0.3893
 7964TIP3    H145307   4.752   2.595  13.631  0.2383  0.2629 -0.0073
 7964TIP3    H245308   4.807   2.502  13.526 -1.6199  0.0666 -0.8413
 7965TIP3   OH245309   5.013   6.057  14.888  0.4119  0.0535  0.2601
 7965TIP3    H145310   4.960   6.075  14.809  0.7475 -0.1122 -0.0049
 7965TIP3    H245311   5.091   6.012  14.855  0.2108 -0.6950  0.7697
 7966TIP3   OH245312   3.538   4.644   4.382 -0.3930 -0.0487  0.2784
 7966TIP3    H145313   3.571   4.554   4.382  0.8882  0.4073  0.8027
 7966TIP3    H245314   3.571   4.681   4.300 -0.4068  0.1326  0.3556
 7967TIP3   OH245315   3.125   0.401   0.187  0.7918  0.1216  0.0346
 7967TIP3    H145316   3.060   0.360   0.129  1.6210  1.1610 -1.7129
 7967TIP3    H245317   3.080   0.408   0.271 -0.5729 -1.1902 -0.5327
 7968TIP3   OH245318   0.254   0.001   2.765 -0.0921  0.5164 -0.2528
 7968TIP3    H145319   0.349  -0.010   2.774 -0.3904 -1.4605  1.2082
 7968TIP3    H245320   0.218  -0.039   2.844 -2.1492  1.7757 -0.4861
 7969TIP3   OH245321   1.819   5.279  15.609 -0.4772 -0.0259 -0.2659
 7969TIP3    H145322   1.798   5.291  15.702  0.4683 -0.7757  0.0636
 7969TIP3    H245323   1.740   5.240  15.572 -0.9003  0.3675  0.2084
 7970TIP3   OH245324   4.804   3.025   5.635  0.4094 -0.0206 -0.0212
 7970TIP3    H145325   4.717   3.041   5.598 -0.5463  0.3240  2.2624
 7970TIP3    H245326   4.831   3.110   5.670  1.0035 -0.4673  0.6382
 7971TIP3   OH245327   1.204   6.539   1.026  0.1673 -0.3964 -0.6681
 7971TIP3    H145328   1.144   6.545   1.100  1.9955  0.8717  0.8124
 7971TIP3    H245329   1.270   6.475   1.053 -0.8082 -2.3396 -2.5701
 7972TIP3   OH245330   5.044   3.616   5.556  0.2683  0.3466 -0.1447
 7972TIP3    H145331   4.966   3.610   5.501 -0.2867  0.9309  0.5531
 7972TIP3    H245332   5.010   3.614   5.646  0.9599  1.6713  0.1739
 7973TIP3   OH245333   2.802   1.371  11.641  0.0946  0.0345  0.2481
 7973TIP3    H145334   2.887   1.409  11.620  0.7250 -1.0740  0.6860
 7973TIP3    H245335   2.823   1.286  11.679 -1.1539  0.4161  1.8780
 7974TIP3   OH245336   6.866   1.704  12.805 -0.4125  0.1942  0.2760
 7974TIP3    H145337   6.885   1.751  12.724 -0.1161  0.3594  0.4404
 7974TIP3    H245338   6.949   1.662  12.829 -0.6844 -0.4414  0.1114
 7975TIP3   OH245339   0.116   2.512  13.817  0.4231 -0.4870 -0.4539
 7975TIP3    H145340   0.033   2.542  13.852  1.2970  1.2677  0.2413
 7975TIP3    H245341   0.164   2.477  13.892  1.7205  1.9363 -0.0405
 7976TIP3   OH245342   6.705   3.242   0.616  0.4382  0.0912  0.3652
 7976TIP3    H145343   6.737   3.177   0.552 -0.8781  0.1392 -0.3830
 7976TIP3    H245344   6.632   3.284   0.572 -0.4209  0.2307  1.8665
 7977TIP3   OH245345   4.159   1.866  12.808 -0.0117 -0.1009 -0.3480
 7977TIP3    H145346   4.203   1.889  12.890 -0.2519 -0.5732 -0.0755
 7977TIP3    H245347   4.066   1.861  12.832 -0.1134  0.0403 -0.7157
 7978TIP3   OH245348   1.563   1.752  13.610  0.4809  0.2075  0.6148
 7978TIP3    H145349   1.616   1.827  13.581 -0.1137  0.3210 -0.2155
 7978TIP3    H245350   1.472   1.781  13.599  0.2209 -0.9876 -0.7146
 7979TIP3   OH245351   6.804   4.336  13.170  0.5833  0.0904 -0.1982
 7979TIP3    H145352   6.863   4.262  13.158  0.3695 -0.4831  1.9161
 7979TIP3    H245353   6.716   4.299  13.163  0.3678  0.8727 -2.9275
 7980TIP3   OH245354   0.303   0.221  14.161 -0.1408 -0.1451 -0.1698
 7980TIP3    H145355   0.242   0.241  14.232  2.2784 -1.3301  2.4470
 7980TIP3    H245356   0.387   0.255  14.191  1.3184 -2.1523 -1.7252
 7981TIP3   OH245357   5.322   1.750   2.435  0.6130  0.3489 -0.5247
 7981TIP3    H145358   5.400   1.712   2.394  0.7236  0.8814 -0.8056
 7981TIP3    H245359   5.250   1.727   2.376  0.3943 -0.9515  0.1993
 7982TIP3   OH245360   1.144   3.671   2.679 -0.0309  0.1104  0.6299
 7982TIP3    H145361   1.084   3.601   2.705  1.0846 -0.2811  2.3029
 7982TIP3    H245362   1.230   3.629   2.679  0.6542  1.4581  1.5975
 7983TIP3   OH245363   2.784   5.083   3.375  0.6994  0.0696  0.0515
 7983TIP3    H145364   2.835   5.003   3.361  0.3312 -0.1486 -0.0820
 7983TIP3    H245365   2.817   5.144   3.309  1.4980  0.2891  0.6391
 7984TIP3   OH245366   6.321   2.988   0.898  0.6992 -0.7032 -0.1886
 7984TIP3    H145367   6.391   2.928   0.871  0.1118 -1.1155 -0.8235
 7984TIP3    H245368   6.260   2.988   0.824  1.0615  1.2817 -0.5399
 7985TIP3   OH245369   2.212   6.252   5.037 -0.2279  0.4962 -0.1122
 7985TIP3    H145370   2.177   6.183   4.980 -0.8011  1.3212 -0.7793
 7985TIP3    H245371   2.149   6.258   5.109 -1.2060  1.5924 -1.0222
 7986TIP3   OH245372   0.243   6.921  10.981 -0.0035  0.4540 -0.0388
 7986TIP3    H145373   0.178   6.888  11.044 -0.9095 -1.6420 -1.9575
 7986TIP3    H245374   0.203   7.000  10.945 -1.1103 -0.3033 -0.5217
 7987TIP3   OH245375   7.111   0.440  14.389 -0.5616 -0.5112 -0.2474
 7987TIP3    H145376   7.135   0.416  14.299 -0.6581 -1.1374 -0.1114
 7987TIP3    H245377   7.143   0.529  14.399  1.1970 -1.0854 -0.2719
 7988TIP3   OH245378   0.654   1.096  11.083  0.3444  0.3032 -0.0009
 7988TIP3    H145379   0.585   1.079  11.147 -0.4841  1.4946 -0.5289
 7988TIP3    H245380   0.644   1.026  11.018  0.6161 -0.3917  0.6868
 7989TIP3   OH245381   0.009   1.942  13.683 -0.3832  0.1656  0.6061
 7989TIP3    H145382  -0.026   1.996  13.612 -0.3310 -0.0768  0.3900
 7989TIP3    H245383   0.103   1.938  13.665 -0.4100 -0.1410  0.5127
 7990TIP3   OH245384   1.362   2.195   5.357  0.5531 -0.2004 -0.0068
 7990TIP3    H145385   1.314   2.271   5.389  0.6951 -0.7418  1.5724
 7990TIP3    H245386   1.444   2.231   5.324  0.1885  0.4358 -0.2449
 7991TIP3   OH245387   2.318   0.770   1.681  0.9778 -0.7356  0.3068
 7991TIP3    H145388   2.238   0.777   1.733  0.7113 -1.2312 -0.0336
 7991TIP3    H245389   2.299   0.819   1.601  0.1861 -2.7047 -0.7652
 7992TIP3   OH245390   3.237   4.637   2.341  0.7362  1.1476  0.5134
 7992TIP3    H145391   3.217   4.561   2.286 -2.5974  1.9595  0.4022
 7992TIP3    H245392   3.322   4.667   2.310  0.6038 -0.5510 -1.7499
 7993TIP3   OH245393   5.672   0.650  11.693 -0.6321  0.0756  0.1929
 7993TIP3    H145394   5.631   0.569  11.724 -1.6978  0.7370  0.5898
 7993TIP3    H245395   5.599   0.710  11.682 -0.5435 -0.3724 -4.7415
 7994TIP3   OH245396   5.437   1.471   3.988 -0.4441 -0.4613 -0.4333
 7994TIP3    H145397   5.447   1.415   4.065  1.0685  0.0776 -0.1898
 7994TIP3    H245398   5.346   1.499   3.989 -0.6242 -1.0573  0.7515
 7995TIP3   OH245399   4.576   6.646   3.003  0.4478 -0.1677 -0.1130
 7995TIP3    H145400   4.569   6.550   2.996  0.3482 -0.1907  0.2613
 7995TIP3    H245401   4.486   6.675   3.017  0.1255  0.2010 -2.5280
 7996TIP3   OH245402   5.426   5.314   2.193 -0.1421  0.0818  0.6199
 7996TIP3    H145403   5.372   5.321   2.114  1.2086  0.0833 -0.3369
 7996TIP3    H245404   5.443   5.405   2.219  0.7540  0.1236 -0.0600
 7997TIP3   OH245405   1.986   4.761  14.298 -0.2694 -0.2797  0.0728
 7997TIP3    H145406   2.037   4.752  14.378 -0.3384  0.5057  0.2110
 7997TIP3    H245407   2.049   4.795  14.234 -0.1805 -1.0320 -0.2479
 7998TIP3   OH245408   5.100   6.138  13.810  0.8286 -0.0882 -0.2862
 7998TIP3    H145409   5.143   6.223  13.817  3.5369 -1.4391  0.8644
 7998TIP3    H245410   5.083   6.127  13.717 -0.2114  1.9366 -0.3963
 7999TIP3   OH245411   4.637   6.553   1.165 -0.1066 -0.1252  0.0271
 7999TIP3    H145412   4.608   6.508   1.085 -0.1537  1.2282 -0.7472
 7999TIP3    H245413   4.555   6.583   1.205 -0.1696 -1.6959  1.1825
 8000TIP3   OH245414   4.173   6.257  11.325  0.0548 -0.0405  0.1505
 8000TIP3    H145415   4.152   6.344  11.361  2.8919  0.3278  1.1751
 8000TIP3    H245416   4.151   6.196  11.395 -1.1281 -0.1235 -0.2553
 8001TIP3   OH245417   5.667   0.811  14.504 -0.2363 -0.3920 -0.2587
 8001TIP3    H145418   5.671   0.796  14.410  0.1739 -0.4286 -0.2387
 8001TIP3    H245419   5.660   0.906  14.513  2.7509 -0.0650 -0.2880
 8002TIP3   OH245420   5.947   0.102   5.073  0.0141 -0.2834 -0.0172
 8002TIP3    H145421   5.927   0.064   5.159 -2.2501  0.4696 -0.1533
 8002TIP3    H245422   5.912   0.039   5.010  3.2159 -1.7259 -0.5770
 8003TIP3   OH245423   5.265   5.020  15.360  0.1168 -0.0752  0.3129
 8003TIP3    H145424   5.208   4.965  15.307 -0.3252  0.2276  0.4731
 8003TIP3    H245425   5.295   4.964  15.431 -1.6679  0.3394  1.4381
 8004TIP3   OH245426   0.802   4.275   5.382  0.5141  0.1062 -0.1766
 8004TIP3    H145427   0.872   4.329   5.420  0.4456  1.0772 -1.3515
 8004TIP3    H245428   0.835   4.251   5.296 -0.2337 -0.1604 -0.3972
 8005TIP3   OH245429   5.678   6.992  12.449  0.1087  0.5823 -0.6082
 8005TIP3    H145430   5.719   6.930  12.509 -0.4675  0.9185  0.1513
 8005TIP3    H245431   5.624   6.938  12.391  2.2486  0.0292 -2.2190
 8006TIP3   OH245432   5.406   6.809  10.402  0.0187  0.4798  0.5729
 8006TIP3    H145433   5.392   6.824  10.496  0.9766 -2.6091  1.3322
 8006TIP3    H245434   5.495   6.773  10.397 -1.3048 -3.0316 -0.9456
 8007TIP3   OH245435   1.420   1.231  14.872 -0.2554  0.2030  0.4562
 8007TIP3    H145436   1.412   1.257  14.780 -2.2300  2.6395  1.1978
 8007TIP3    H245437   1.332   1.199  14.895  0.4420 -1.1758  1.3208
 8008TIP3   OH245438   3.803   0.894  14.299 -0.6376 -0.2241 -0.2119
 8008TIP3    H145439   3.733   0.921  14.358 -0.2383 -0.5881  0.4456
 8008TIP3    H245440   3.866   0.966  14.303 -0.1288 -0.6976  0.6208
 8009TIP3   OH245441   5.515   2.129  11.358  0.6652 -0.0196 -0.4192
 8009TIP3    H145442   5.480   2.047  11.394 -1.3835  0.4604 -1.1985
 8009TIP3    H245443   5.550   2.103  11.272  1.8981 -0.4151  0.1727
 8010TIP3   OH245444   6.568   4.826  11.000 -0.9076  0.2611  0.1426
 8010TIP3    H145445   6.549   4.860  11.087  1.2997  0.5710  0.5660
 8010TIP3    H245446   6.664   4.824  10.995 -0.9705 -0.5257 -1.9800
 8011TIP3   OH245447   6.731   6.790  14.754 -0.9585  0.4689 -0.0887
 8011TIP3    H145448   6.769   6.825  14.834 -0.3933 -0.6641  0.1630
 8011TIP3    H245449   6.798   6.802  14.688 -0.7832 -0.0501 -0.0137
 8012TIP3   OH245450   5.519   2.376  12.552 -0.2215  0.1433 -0.1117
 8012TIP3    H145451   5.611   2.364  12.577 -0.1292  0.5350 -0.2592
 8012TIP3    H245452   5.497   2.463  12.584  0.1891  1.0856 -2.2040
 8013TIP3   OH245453   5.106   4.414   1.531 -0.4994 -0.2583  0.3827
 8013TIP3    H145454   5.144   4.462   1.604 -1.1704  1.3650 -0.2913
 8013TIP3    H245455   5.070   4.335   1.570  1.9357 -1.0024  1.3089
 8014TIP3   OH245456   2.498   0.549   0.586  1.1215  0.1387 -0.6748
 8014TIP3    H145457   2.541   0.579   0.666 -0.6359 -0.1927  0.4494
 8014TIP3    H245458   2.478   0.629   0.538 -1.4543  0.7201  1.1917
 8015TIP3   OH245459   4.231   2.383  15.321 -0.3216  0.0683  0.3504
 8015TIP3    H145460   4.287   2.410  15.249 -1.4107 -0.0699 -0.5851
 8015TIP3    H245461   4.255   2.291  15.336 -1.0091 -0.3130 -0.7651
 8016TIP3   OH245462   2.134   5.316   9.823 -0.4624  0.1001  0.0956
 8016TIP3    H145463   2.147   5.283   9.734 -0.0456 -1.4698  0.7184
 8016TIP3    H245464   2.178   5.401   9.823  0.5152 -0.3813 -0.8698
 8017TIP3   OH245465   1.965   6.201  14.782 -0.7123  0.1417  0.3857
 8017TIP3    H145466   1.889   6.254  14.806 -0.3071  0.5752  0.7212
 8017TIP3    H245467   2.033   6.264  14.761 -0.3673 -0.2469  0.3224
 8018TIP3   OH245468   1.990   0.610   3.774  0.1064  1.1093  0.0995
 8018TIP3    H145469   2.062   0.554   3.802 -0.8927  1.3557  3.6356
 8018TIP3    H245470   2.033   0.687   3.737  1.5094 -0.5199 -1.9411
 8019TIP3   OH245471   4.943   3.291  12.571 -0.6785  0.5354  0.3250
 8019TIP3    H145472   5.005   3.364  12.573 -1.1351  1.0050 -1.5120
 8019TIP3    H245473   4.980   3.227  12.632  1.5243  0.8869 -0.5581
 8020TIP3   OH245474   2.087   0.795   4.911 -0.0953  0.1139  0.0634
 8020TIP3    H145475   2.064   0.702   4.913  1.2732 -0.2442  0.7558
 8020TIP3    H245476   2.016   0.836   4.863 -0.5159 -1.3528 -0.6437
 8021TIP3   OH245477   6.023   4.597   0.115 -0.0831  0.0961  0.6856
 8021TIP3    H145478   6.109   4.622   0.079 -0.4358 -0.4521 -0.6252
 8021TIP3    H245479   6.031   4.503   0.132 -0.4356  0.0337  0.5133
 8022TIP3   OH245480   0.718   0.722  15.336 -0.3808 -0.3959 -0.0563
 8022TIP3    H145481   0.790   0.659  15.337 -0.5490 -0.5864  0.2997
 8022TIP3    H245482   0.671   0.702  15.255 -0.1456 -0.3962 -0.1962
 8023TIP3   OH245483   0.726   3.971  13.074  0.4438 -0.3612 -0.0917
 8023TIP3    H145484   0.711   3.975  13.168 -2.4267 -1.2489 -0.4091
 8023TIP3    H245485   0.738   4.062  13.048  1.7000 -0.1393  1.1478
 8024TIP3   OH245486   4.144   1.261   2.626 -0.2429 -0.8788 -0.0909
 8024TIP3    H145487   4.140   1.323   2.700  2.8589 -0.3450 -0.2348
 8024TIP3    H245488   4.188   1.185   2.661  1.0935 -0.7002 -1.3189
 8025TIP3   OH245489   0.697   2.658   0.383  0.1776 -0.4784 -0.2314
 8025TIP3    H145490   0.653   2.642   0.466  0.0110  0.2449 -0.1708
 8025TIP3    H245491   0.696   2.754   0.374 -0.7917 -0.5896 -1.5921
 8026TIP3   OH245492   3.083   6.737   0.433  0.1876  0.5303 -0.3336
 8026TIP3    H145493   3.169   6.695   0.433  0.5580  1.1798 -2.2446
 8026TIP3    H245494   3.020   6.664   0.436  0.8223 -0.0633 -1.0043
 8027TIP3   OH245495   1.728   4.236   1.692  0.4068  0.0682  0.0192
 8027TIP3    H145496   1.800   4.286   1.731  2.1595 -2.5771  0.4981
 8027TIP3    H245497   1.728   4.261   1.600  2.5937 -0.4306 -0.1811
 8028TIP3   OH245498   1.933   2.006  15.641 -0.2793  0.2020 -0.3717
 8028TIP3    H145499   1.980   1.950  15.702  0.0329  0.4026 -0.4284
 8028TIP3    H245500   1.849   2.023  15.683  0.0700  0.6267  0.1644
 8029TIP3   OH245501   1.100   0.515  11.658 -0.3053 -0.5638 -0.3017
 8029TIP3    H145502   1.032   0.510  11.590  0.7315 -0.3815 -1.3924
 8029TIP3    H245503   1.075   0.448  11.722 -2.5231  0.7890  0.3194
 8030TIP3   OH245504   2.973   3.965  11.554 -0.3295 -0.1085  0.3682
 8030TIP3    H145505   2.928   3.886  11.525 -1.1111  0.5158 -0.1713
 8030TIP3    H245506   3.017   3.998  11.476  0.6340 -0.4169  0.7668
 8031TIP3   OH245507   0.364   2.586  11.897 -0.1712 -0.4181 -0.0486
 8031TIP3    H145508   0.354   2.566  11.804 -1.5756  0.2898 -0.0706
 8031TIP3    H245509   0.454   2.617  11.906 -0.6859  1.7326 -1.6173
 8032TIP3   OH245510   6.696   0.952   0.065 -0.1372 -0.1904  0.8740
 8032TIP3    H145511   6.615   1.002   0.067 -1.1049 -1.7246  2.3692
 8032TIP3    H245512   6.690   0.901  -0.016 -0.6440 -0.2812  0.9672
 8033TIP3   OH245513   3.913   6.094  14.569  0.2772  0.2376  0.4868
 8033TIP3    H145514   3.981   6.034  14.539 -0.6712  0.0764 -1.4553
 8033TIP3    H245515   3.893   6.148  14.493 -2.8312 -0.7320  0.4893
 8034TIP3   OH245516   1.378   0.025  14.404 -0.0754 -0.3838  0.1389
 8034TIP3    H145517   1.418  -0.056  14.435  0.4521 -0.2596 -0.2126
 8034TIP3    H245518   1.286   0.003  14.392  0.0883 -0.9687 -0.0759
 8035TIP3   OH245519   0.354   1.433  13.458  0.8954 -0.1642  0.2626
 8035TIP3    H145520   0.428   1.446  13.517  0.7475 -1.1417  0.6866
 8035TIP3    H245521   0.312   1.352  13.489 -0.2544  0.2794 -0.0628
 8036TIP3   OH245522   6.989   5.746   1.822  0.0730  0.4165 -0.3523
 8036TIP3    H145523   6.906   5.700   1.832 -0.4805  1.7877  3.0231
 8036TIP3    H245524   7.051   5.679   1.793 -1.2201 -1.8873  1.7721
 8037TIP3   OH245525   3.517   2.481  11.174 -0.1215 -0.3484 -0.1539
 8037TIP3    H145526   3.587   2.521  11.122  0.9221 -1.7671  0.1240
 8037TIP3    H245527   3.531   2.515  11.263 -0.8388  0.6794 -0.4054
 8038TIP3   OH245528   0.960   0.554  15.451  0.1636  0.0924 -0.1613
 8038TIP3    H145529   1.044   0.529  15.414  0.9461  1.5791  0.5074
 8038TIP3    H245530   0.956   0.649  15.440  0.0112  0.4974  2.5828
 8039TIP3   OH245531   1.087   3.422  14.371  0.5867  0.7421  0.1610
 8039TIP3    H145532   1.145   3.432  14.296 -0.3440  1.4631 -0.4949
 8039TIP3    H245533   1.000   3.443  14.337  0.0374  0.3590  1.2736
 8040TIP3   OH245534   2.604   2.391  12.558 -0.3475  0.1077 -0.2010
 8040TIP3    H145535   2.679   2.446  12.536  0.7843 -0.8676  1.0359
 8040TIP3    H245536   2.602   2.324  12.490 -0.8137  0.7800 -0.8661
 8041TIP3   OH245537   0.068   4.119   0.082  0.3531 -0.4979  0.6120
 8041TIP3    H145538  -0.001   4.072   0.035 -0.4773  2.1814 -1.1076
 8041TIP3    H245539   0.123   4.155   0.012  2.5498 -1.1732  1.9136
 8042TIP3   OH245540   3.249   2.646  10.482  0.3731  0.0205  0.1229
 8042TIP3    H145541   3.187   2.701  10.530  1.0109  0.1806  0.7814
 8042TIP3    H245542   3.261   2.690  10.398 -0.2454  0.0916  0.0661
 8043TIP3   OH245543   1.069   3.941   2.712 -0.2748 -0.1280 -0.1313
 8043TIP3    H145544   0.977   3.919   2.701 -0.0174 -0.0764 -3.2509
 8043TIP3    H245545   1.113   3.857   2.721 -0.5463 -0.1729  0.9160
 8044TIP3   OH245546   6.048   6.620  14.146 -0.1619 -0.7037  0.1334
 8044TIP3    H145547   6.068   6.611  14.240 -1.2005 -0.2195  0.4201
 8044TIP3    H245548   6.048   6.531  14.113  0.2438 -0.8776  0.5825
 8045TIP3   OH245549   5.733   0.964  13.490  0.1616 -0.4604 -0.3051
 8045TIP3    H145550   5.764   1.034  13.547 -1.5773 -0.9127  1.2956
 8045TIP3    H245551   5.642   0.989  13.469  0.0883 -1.3726 -1.1387
 8046TIP3   OH245552   3.051   4.704  12.198 -0.1838  0.2241  0.2976
 8046TIP3    H145553   3.087   4.649  12.268  0.2055 -0.5912 -0.5173
 8046TIP3    H245554   2.973   4.744  12.236 -1.2373 -1.9153  0.5295
 8047TIP3   OH245555   1.914   5.705  14.260  0.2344 -0.7117  0.3415
 8047TIP3    H145556   2.002   5.701  14.299  0.2824  1.7448  0.6714
 8047TIP3    H245557   1.854   5.693  14.334  0.2727 -1.5717  0.2447
 8048TIP3   OH245558   3.936   2.474  11.130 -0.4654  0.4511 -0.0714
 8048TIP3    H145559   3.917   2.551  11.183 -2.3972  1.3725 -1.9267
 8048TIP3    H245560   4.031   2.468  11.130 -0.3549  1.0329  2.5071
 8049TIP3   OH245561   4.098   5.471  13.403 -0.2686  0.0936  0.1000
 8049TIP3    H145562   4.145   5.430  13.476  0.7677  2.1372  0.6414
 8049TIP3    H245563   4.136   5.558  13.396 -1.7385  0.6481 -1.6258
 8050TIP3   OH245564   5.794   1.532  14.413  0.1157 -0.6344  0.7456
 8050TIP3    H145565   5.803   1.602  14.348 -1.9907 -0.2918  0.7618
 8050TIP3    H245566   5.814   1.574  14.496 -1.2977  0.0344  0.7754
 8051TIP3   OH245567   4.572   6.523  11.921 -0.2184 -0.1795 -0.2480
 8051TIP3    H145568   4.591   6.510  12.014  0.2672  0.1388 -0.3020
 8051TIP3    H245569   4.643   6.479  11.876  0.3401  0.9042 -0.4522
 8052TIP3   OH245570   5.335   1.822  12.601 -0.3209  0.3712  0.2106
 8052TIP3    H145571   5.282   1.878  12.658 -0.8758  1.3074 -1.1881
 8052TIP3    H245572   5.363   1.879  12.530  0.1351 -0.8365 -0.6061
 8053TIP3   OH245573   5.234   3.849  13.079 -0.4945 -0.2538 -0.2702
 8053TIP3    H145574   5.303   3.790  13.111  1.0926  0.9799 -1.2490
 8053TIP3    H245575   5.169   3.849  13.149  1.5872  0.3033  1.7960
 8054TIP3   OH245576   2.328   5.827   1.126  0.4307 -0.1299 -0.0362
 8054TIP3    H145577   2.250   5.878   1.152  0.9318  0.5298  0.2025
 8054TIP3    H245578   2.310   5.739   1.158  0.4713  0.3750  1.4697
 8055TIP3   OH245579   1.533   1.197  15.443 -0.1394  0.3084 -0.3040
 8055TIP3    H145580   1.577   1.128  15.392  1.0694  1.3941 -0.7638
 8055TIP3    H245581   1.594   1.217  15.514 -0.7588  0.5030  0.1834
 8056TIP3   OH245582   5.342   1.100  12.574  0.5359 -0.1909 -0.0475
 8056TIP3    H145583   5.295   1.183  12.577 -0.4059 -0.6605 -1.2451
 8056TIP3    H245584   5.363   1.087  12.482  1.2922 -0.9623  0.2132
 8057TIP3   OH245585   1.900   3.444  10.337 -0.5248  0.1288 -0.3508
 8057TIP3    H145586   1.911   3.531  10.374  0.0079  0.2207 -0.7164
 8057TIP3    H245587   1.946   3.386  10.398  1.7217  0.4605 -1.6380
 8058TIP3   OH245588   3.963   6.756  14.580 -0.8054 -0.0625  0.9346
 8058TIP3    H145589   3.956   6.843  14.542 -2.6294 -0.1142  1.0935
 8058TIP3    H245590   3.921   6.698  14.516 -0.8708 -0.6319  1.4838
 8059TIP3   OH245591   1.888   1.751   0.517 -0.6042  0.4522 -0.1400
 8059TIP3    H145592   1.885   1.660   0.545 -0.4982  0.7889  1.0244
 8059TIP3    H245593   1.952   1.792   0.576 -1.3400  1.4828 -0.0348
 8060TIP3   OH245594   2.497   2.159  12.936 -0.1796  0.0981  0.0952
 8060TIP3    H145595   2.430   2.092  12.930  0.9592 -1.3352  2.1854
 8060TIP3    H245596   2.531   2.151  13.025  1.1815  2.3209 -0.1537
 8061TIP3   OH245597   5.099   6.174   2.825  0.1559  0.0497 -0.0819
 8061TIP3    H145598   5.121   6.087   2.858  1.1184 -0.6152 -2.2727
 8061TIP3    H245599   5.004   6.176   2.824  0.0740  0.0651  2.4435
 8062TIP3   OH245600   4.832   0.174   1.119 -0.3403 -1.0644  0.4435
 8062TIP3    H145601   4.914   0.212   1.151 -0.6538 -0.6710  0.7986
 8062TIP3    H245602   4.764   0.222   1.167 -0.8016 -0.8241 -0.4420
 8063TIP3   OH245603   6.211   5.124   0.176  0.9558 -0.3264 -0.9418
 8063TIP3    H145604   6.215   5.047   0.233  0.7140 -0.6007 -1.2945
 8063TIP3    H245605   6.237   5.196   0.233 -2.2750 -0.0714  0.4787
 8064TIP3   OH245606   3.168   1.313   0.423  0.3821 -0.3194  0.3623
 8064TIP3    H145607   3.259   1.292   0.445  0.1594 -0.9043  0.7645
 8064TIP3    H245608   3.121   1.307   0.506 -0.1905 -0.9626  0.0100
 8065TIP3   OH245609   0.064   3.279   0.985  0.6234 -0.0833  0.2334
 8065TIP3    H145610  -0.007   3.216   0.977  0.3347  0.2309  0.2839
 8065TIP3    H245611   0.025   3.354   1.031  1.1507 -0.1634  0.8302
 8066TIP3   OH245612   0.934   3.042  10.994 -0.0965 -0.4811  0.4177
 8066TIP3    H145613   0.941   2.959  10.946 -1.7889 -0.1565 -0.4769
 8066TIP3    H245614   0.841   3.066  10.988 -0.3645 -0.2523  3.6726
 8067TIP3   OH245615   5.684   1.741  14.261 -0.2477  0.5903  0.0484
 8067TIP3    H145616   5.700   1.826  14.220 -1.9610 -0.3156 -2.7580
 8067TIP3    H245617   5.592   1.723  14.244 -0.1159 -1.5077  1.2646
 8068TIP3   OH245618   3.915   6.283   0.000  0.1348 -0.3167  0.2629
 8068TIP3    H145619   3.910   6.378  -0.011  1.3178 -0.2220  0.4350
 8068TIP3    H245620   4.003   6.268   0.034 -0.4494 -1.3711  1.3575
 8069TIP3   OH245621   5.973   1.039   4.402 -0.0129 -0.0512 -0.2135
 8069TIP3    H145622   5.940   1.127   4.420 -0.2441 -0.3624  0.9698
 8069TIP3    H245623   6.037   1.051   4.332 -0.1621  1.0308 -0.1834
 8070TIP3   OH245624   2.682   3.667   0.567 -0.1098  0.3004  0.0152
 8070TIP3    H145625   2.732   3.641   0.490 -0.1913  0.9188 -0.2527
 8070TIP3    H245626   2.650   3.755   0.546 -0.3801  0.3528  0.6342
 8071TIP3   OH245627   6.744   2.387  10.525 -0.2667 -0.1982 -0.0066
 8071TIP3    H145628   6.720   2.339  10.446  0.0500 -1.3699  0.5716
 8071TIP3    H245629   6.661   2.412  10.564 -0.4840 -1.0471  0.1092
 8072TIP3   OH245630   5.624   0.434   1.860  0.1448  0.1379  0.2347
 8072TIP3    H145631   5.694   0.427   1.925 -0.6691 -2.1308  0.9462
 8072TIP3    H245632   5.671   0.441   1.776  1.1979  1.4194  0.8926
 8073TIP3   OH245633   0.345   1.565  13.888  0.1489  0.1904  0.9077
 8073TIP3    H145634   0.309   1.645  13.926  1.1366  0.3814  1.4729
 8073TIP3    H245635   0.390   1.594  13.810  0.9486  0.2674  1.3905
 8074TIP3   OH245636   3.414   5.628  15.182 -0.0487 -0.2077 -0.4046
 8074TIP3    H145637   3.340   5.643  15.124  0.3580 -0.3837 -0.9790
 8074TIP3    H245638   3.388   5.553  15.236 -0.1230 -0.5532 -0.9074
 8075TIP3   OH245639   3.635   6.876   0.276  0.8791  0.0202  0.2817
 8075TIP3    H145640   3.730   6.874   0.276  1.1423  0.2396 -4.5569
 8075TIP3    H245641   3.613   6.964   0.307  2.0746 -0.4181  2.5506
 8076TIP3   OH245642   3.566   4.852   0.422  0.1722  0.1686  0.1290
 8076TIP3    H145643   3.483   4.861   0.470 -0.0427 -2.0259  0.2605
 8076TIP3    H245644   3.542   4.871   0.331 -0.5369 -0.6063  0.1374
 8077TIP3   OH245645   1.614   0.600  14.665 -0.3234  0.1832 -0.6006
 8077TIP3    H145646   1.682   0.634  14.723  0.7999 -0.5070 -1.4528
 8077TIP3    H245647   1.619   0.656  14.587 -2.0642  1.3359  0.0608
 8078TIP3   OH245648   1.578   0.595   4.725  0.5965  0.5266  0.0224
 8078TIP3    H145649   1.545   0.680   4.756 -1.2074 -0.0300 -0.2995
 8078TIP3    H245650   1.520   0.531   4.766  0.4749 -0.4218 -1.5938
 8079TIP3   OH245651   1.094   2.551  13.596  0.3555  0.2471  0.0972
 8079TIP3    H145652   1.163   2.579  13.656  0.4030 -0.8406  0.5734
 8079TIP3    H245653   1.044   2.485  13.645 -2.1860  2.2647  0.4571
 8080TIP3   OH245654   6.243   3.795   4.092 -0.2478  0.1625 -0.1736
 8080TIP3    H145655   6.190   3.723   4.124  0.3388 -0.2237 -0.0518
 8080TIP3    H245656   6.181   3.854   4.048 -0.8616  0.0543  0.5419
 8081TIP3   OH245657   5.130   3.888  10.773 -0.1882 -0.4050  0.3603
 8081TIP3    H145658   5.066   3.852  10.712  0.3528  1.0834 -1.1553
 8081TIP3    H245659   5.111   3.982  10.775  0.7757 -0.2123  1.3398
 8082TIP3   OH245660   5.016   1.540  10.456 -0.1595 -0.0146  0.1406
 8082TIP3    H145661   4.926   1.509  10.453  1.2723 -4.9947 -2.4929
 8082TIP3    H245662   5.057   1.487  10.524  1.1889  0.8622  0.0480
 8083TIP3   OH245663   3.219   0.850   9.944  0.2898  0.1938 -0.3666
 8083TIP3    H145664   3.292   0.852  10.005  1.2159  2.0130 -1.4482
 8083TIP3    H245665   3.259   0.855   9.857 -1.0929  1.4516 -0.9888
 8084TIP3   OH245666   5.455   2.823  11.443  0.2338 -0.0007  0.0936
 8084TIP3    H145667   5.413   2.796  11.361 -0.3828 -0.3902  0.5381
 8084TIP3    H245668   5.416   2.769  11.510  0.0708  0.9459  0.7864
 8085TIP3   OH245669   5.053   5.416  13.046  0.2856 -0.5873 -0.0321
 8085TIP3    H145670   5.017   5.383  12.963 -0.3249  1.3574 -0.5956
 8085TIP3    H245671   5.129   5.361  13.063  1.3561 -0.0569 -2.7146
 8086TIP3   OH245672   2.389   3.899  12.127 -0.0939  0.2679  0.2020
 8086TIP3    H145673   2.439   3.844  12.066 -0.7149  0.6637 -0.6885
 8086TIP3    H245674   2.401   3.857  12.212  3.3342  1.4101  0.4355
 8087TIP3   OH245675   3.758   3.557  14.039  0.1837  0.0050  0.3457
 8087TIP3    H145676   3.740   3.593  13.952  0.4576 -1.4296 -0.3247
 8087TIP3    H245677   3.717   3.471  14.039  1.7258 -0.7739  0.9838
 8088TIP3   OH245678   2.283   1.508  14.692  0.3077 -0.3031  0.1381
 8088TIP3    H145679   2.252   1.568  14.624  2.3220  0.8431  0.1699
 8088TIP3    H245680   2.308   1.429  14.644  0.4402 -0.0136 -0.2718
 8089TIP3   OH245681   5.617   1.507  11.680  0.2231 -0.1473 -0.1588
 8089TIP3    H145682   5.564   1.492  11.758  0.0562  0.5340 -0.1369
 8089TIP3    H245683   5.690   1.447  11.689  1.3021  1.3245  1.5594
 8090TIP3   OH245684   7.104   6.528  13.351  0.0560 -0.3395  0.2437
 8090TIP3    H145685   7.111   6.491  13.263  1.1626 -0.4466  0.3615
 8090TIP3    H245686   7.078   6.454  13.406 -1.2459 -0.1400 -0.0744
 8091TIP3   OH245687   4.114   7.095  12.551  0.2019  0.5431 -0.4823
 8091TIP3    H145688   4.051   7.124  12.617  2.2485 -0.8321  2.2542
 8091TIP3    H245689   4.196   7.135  12.577  1.4407 -1.4322 -1.1136
 8092TIP3   OH245690   1.955   6.986  14.829  0.0933 -0.0938  0.2406
 8092TIP3    H145691   1.993   6.963  14.745  1.1823 -0.0647  0.7060
 8092TIP3    H245692   1.953   6.903  14.878 -0.5417 -0.1143  0.1866
 8093TIP3   OH245693   1.307   5.813  13.858  0.4660 -0.1074  0.1022
 8093TIP3    H145694   1.282   5.816  13.766 -1.2239  1.1698  0.5617
 8093TIP3    H245695   1.390   5.765  13.858 -0.0360 -1.1062 -1.9488
 8094TIP3   OH245696   2.398   3.165   0.969  0.2106 -0.3677  0.0389
 8094TIP3    H145697   2.442   3.080   0.972  2.0917  0.5060 -1.0981
 8094TIP3    H245698   2.336   3.157   0.897  2.4532  0.0903 -2.0447
 8095TIP3   OH245699   7.110   1.198  12.727  0.2922  0.2433  0.0991
 8095TIP3    H145700   7.186   1.185  12.785 -0.3341 -1.5050  0.5735
 8095TIP3    H245701   7.039   1.222  12.787  0.6049  2.8214 -0.4299
 8096TIP3   OH245702   1.293   7.125   0.801 -0.4061 -0.5013  0.2448
 8096TIP3    H145703   1.198   7.133   0.804 -0.2934  2.4919  4.1752
 8096TIP3    H245704   1.326   7.211   0.827  3.3789 -1.6962  0.0925
 8097TIP3   OH245705   1.767   0.543  10.795  0.2934 -0.0299  0.0180
 8097TIP3    H145706   1.749   0.518  10.885 -1.7390 -0.5956 -0.4999
 8097TIP3    H245707   1.725   0.628  10.784 -0.6539 -0.5811 -0.7585
 8098TIP3   OH245708   3.092   6.627  13.604  0.4789 -0.5094  0.1763
 8098TIP3    H145709   3.043   6.679  13.539  0.3203  0.0666  0.7463
 8098TIP3    H245710   3.060   6.538  13.591 -1.5365  0.0008  1.2364
 8099TIP3   OH245711   6.447   5.918   9.575  0.3695 -0.2109  0.0914
 8099TIP3    H145712   6.480   5.895   9.662  0.9873 -1.0057 -0.3311
 8099TIP3    H245713   6.467   5.841   9.522 -1.3965 -0.3784 -0.4047
 8100TIP3   OH245714   3.555   4.153   4.266  0.7408 -0.4029  0.3248
 8100TIP3    H145715   3.608   4.120   4.339 -0.0953 -1.2579  0.5735
 8100TIP3    H245716   3.616   4.164   4.194  1.8630  1.7469  1.4960
 8101TIP3   OH245717   2.349   2.016  14.240  0.6422  0.0126 -0.0551
 8101TIP3    H145718   2.422   2.031  14.300  0.8545  1.0410 -0.5450
 8101TIP3    H245719   2.390   1.989  14.158  0.3377 -1.6653  0.3169
 8102TIP3   OH245720   1.724   4.160  14.655  0.5820 -0.1301 -0.1688
 8102TIP3    H145721   1.761   4.119  14.734 -0.9179 -1.8676 -0.2957
 8102TIP3    H245722   1.703   4.249  14.682 -1.2183 -1.0749  1.9107
 8103TIP3   OH245723   0.163   6.924   1.046  0.1163  0.2174 -0.1146
 8103TIP3    H145724   0.228   6.940   0.977 -0.7076 -0.8529 -1.1769
 8103TIP3    H245725   0.160   6.829   1.055  1.3877  0.3352  2.6289
 8104TIP3   OH245726   0.692   0.577  10.065 -0.1489 -0.0236  1.0506
 8104TIP3    H145727   0.600   0.599  10.080  0.5265  2.9055  1.5521
 8104TIP3    H245728   0.698   0.558   9.972 -1.6463 -2.9688  1.4310
 8105TIP3   OH245729   3.155   7.034  12.841 -0.5874 -0.4042 -0.3456
 8105TIP3    H145730   3.096   6.968  12.879 -0.1746 -0.4864  0.1622
 8105TIP3    H245731   3.174   7.001  12.753  0.8741 -1.8101  0.4357
 8106TIP3   OH245732   2.821   5.276  10.108 -0.3397 -0.2018  0.5769
 8106TIP3    H145733   2.801   5.351  10.052  0.8230 -0.8077 -0.7097
 8106TIP3    H245734   2.849   5.207  10.047  1.6640 -0.6678  1.9407
 8107TIP3   OH245735   3.510   2.309   0.473 -0.3901 -0.2657 -0.3710
 8107TIP3    H145736   3.530   2.255   0.549 -0.6107 -1.1342 -0.9270
 8107TIP3    H245737   3.519   2.251   0.398  0.1620  0.6629 -1.0569
 8108TIP3   OH245738   4.930   6.420  12.673  0.2992 -0.0113  0.3948
 8108TIP3    H145739   4.990   6.480  12.720  0.5362  0.6831 -0.7549
 8108TIP3    H245740   4.924   6.343  12.730  0.6929  0.7386  1.4916
 8109TIP3   OH245741   7.114   5.865   2.596 -0.2247 -0.6849  0.2664
 8109TIP3    H145742   7.027   5.879   2.558 -0.5071  0.8318  1.3948
 8109TIP3    H245743   7.151   5.793   2.545 -2.1815 -1.4366 -0.1523
 8110TIP3   OH245744   4.809   5.043   9.885 -0.0603  0.3190 -0.3539
 8110TIP3    H145745   4.718   5.028   9.909 -0.2172  0.2395 -0.9839
 8110TIP3    H245746   4.805   5.089   9.801  0.4581 -2.6568 -2.1661
 8111TIP3   OH245747   4.730   3.542   5.294 -0.2556  0.4134 -0.0876
 8111TIP3    H145748   4.650   3.593   5.302  0.7284  2.2445 -1.2441
 8111TIP3    H245749   4.789   3.597   5.243  1.5497 -1.1215  0.2153
 8112TIP3   OH245750   0.671   3.417  13.200  0.5703 -0.5108  0.3406
 8112TIP3    H145751   0.714   3.460  13.126  0.3055 -3.5631 -1.8004
 8112TIP3    H245752   0.715   3.332  13.208 -0.1711 -0.7394  3.0171
 8113TIP3   OH245753   1.680   6.013   1.529  0.2696 -0.1855 -0.6045
 8113TIP3    H145754   1.716   6.029   1.616  0.1612  1.2806 -0.8138
 8113TIP3    H245755   1.703   5.922   1.510  1.3314 -0.1574  0.4606
 8114TIP3   OH245756   6.596   6.066   0.843 -0.2147  0.3853  0.5235
 8114TIP3    H145757   6.632   6.003   0.781  0.2131 -0.2037  1.3444
 8114TIP3    H245758   6.520   6.104   0.799 -0.2011 -0.3722 -0.1612
 8115TIP3   OH245759   2.033   4.670  13.646 -0.1267  0.1476  0.2245
 8115TIP3    H145760   1.949   4.645  13.607  0.2233  0.7558 -0.9685
 8115TIP3    H245761   2.063   4.745  13.594  1.4878 -0.5019  0.1319
 8116TIP3   OH245762   3.926   3.377  11.078 -0.2381  0.1548  0.0702
 8116TIP3    H145763   3.950   3.410  10.991 -0.3746 -0.5757 -0.2558
 8116TIP3    H245764   3.844   3.423  11.099  1.0397  2.1645  0.9063
 8117TIP3   OH245765   3.747   4.580   4.615  0.1373 -0.1484  0.5087
 8117TIP3    H145766   3.730   4.489   4.637 -0.4195 -0.1548  0.0571
 8117TIP3    H245767   3.764   4.580   4.521  2.0810 -0.0535  0.8311
 8118TIP3   OH245768   0.665   1.510  11.454  0.0003 -0.0701 -0.0121
 8118TIP3    H145769   0.610   1.559  11.393  0.0165 -0.4378 -0.3297
 8118TIP3    H245770   0.737   1.569  11.475 -0.2102  0.2001 -0.0495
 8119TIP3   OH245771   0.649   3.206   4.593  0.6338 -0.2539 -0.0075
 8119TIP3    H145772   0.574   3.235   4.540  0.8071  0.8311  0.3274
 8119TIP3    H245773   0.710   3.170   4.529  0.6090  0.5414 -0.4974
 8120TIP3   OH245774   5.637   5.024  14.407  0.1635 -0.1662  0.6510
 8120TIP3    H145775   5.717   5.047  14.454  0.6480 -0.5577  0.0409
 8120TIP3    H245776   5.637   4.928  14.405  0.1170 -0.1517 -0.0930
 8121TIP3   OH245777   5.156   6.591  14.778 -0.2877  0.6582 -0.1767
 8121TIP3    H145778   5.180   6.526  14.844 -0.4018  1.5920  0.8155
 8121TIP3    H245779   5.239   6.629  14.749 -0.2841  0.7617 -0.0303
 8122TIP3   OH245780   2.887   2.341   3.012 -0.4898  0.6237  0.5809
 8122TIP3    H145781   2.812   2.351   2.952  0.0951  0.7214 -0.1472
 8122TIP3    H245782   2.956   2.303   2.958 -0.6682 -1.5277  1.7526
 8123TIP3   OH245783   3.225   5.441   5.033 -0.6799  0.2816 -0.3463
 8123TIP3    H145784   3.307   5.458   5.079 -1.6426 -1.6395  2.3112
 8123TIP3    H245785   3.179   5.525   5.036  0.1117  0.7109  0.5139
 8124TIP3   OH245786   1.420   2.018   2.403 -0.0846 -0.1870 -0.1092
 8124TIP3    H145787   1.475   2.096   2.404 -1.5547  0.9060 -0.7852
 8124TIP3    H245788   1.374   2.022   2.319 -0.2236 -1.7620 -0.1408
 8125TIP3   OH245789   2.778   6.339  11.748 -0.3561  0.3507 -0.1467
 8125TIP3    H145790   2.787   6.433  11.732 -0.1073  0.0539 -2.0785
 8125TIP3    H245791   2.847   6.319  11.811 -0.7609  1.5467  0.7067
 8126TIP3   OH245792   5.836   6.488  10.469  0.3653  0.2509 -0.3587
 8126TIP3    H145793   5.831   6.429  10.545 -3.1435  1.4991  0.5397
 8126TIP3    H245794   5.929   6.491  10.448  1.0729 -2.9743  1.6123
 8127TIP3   OH245795   4.697   0.071   2.909  0.1224  0.1178 -0.2749
 8127TIP3    H145796   4.789   0.048   2.920 -0.2457 -1.5851 -0.4740
 8127TIP3    H245797   4.696   0.166   2.906  1.8148  0.1747  0.2337
 8128TIP3   OH245798   0.542   2.733   2.058 -0.6021 -0.0671 -0.1597
 8128TIP3    H145799   0.539   2.685   1.975 -1.0196 -0.5152  0.1115
 8128TIP3    H245800   0.599   2.808   2.040  0.1292 -0.7047 -0.5675
 8129TIP3   OH245801   2.061   5.708  11.671  0.1537 -0.2115 -0.3409
 8129TIP3    H145802   2.023   5.623  11.695 -1.9836  0.7338 -0.1408
 8129TIP3    H245803   2.051   5.713  11.576  2.1129 -0.9753 -0.6280
 8130TIP3   OH245804   2.530   5.513   0.052 -0.3040 -0.0527  0.2052
 8130TIP3    H145805   2.440   5.542   0.068 -0.5623 -1.2887  1.0895
 8130TIP3    H245806   2.559   5.477   0.135  0.3714 -1.3449 -0.5497
 8131TIP3   OH245807   4.991   4.545   4.107  0.2628  0.2906  0.5049
 8131TIP3    H145808   5.000   4.456   4.072 -1.6441 -1.1881  3.3761
 8131TIP3    H245809   5.080   4.572   4.126  0.8235 -1.5329  0.7105
 8132TIP3   OH245810   4.967   0.558   1.842 -0.1169  0.3015  0.0489
 8132TIP3    H145811   4.877   0.590   1.828 -0.8058 -1.3090  0.5790
 8132TIP3    H245812   4.959   0.492   1.911  1.3532 -0.4581 -0.4565
 8133TIP3   OH245813   3.197   1.637   4.106 -0.6110 -0.1003 -0.2558
 8133TIP3    H145814   3.282   1.602   4.080 -0.6165  0.5793 -1.2258
 8133TIP3    H245815   3.201   1.642   4.202  1.1038  1.5623 -0.3661
 8134TIP3   OH245816   2.380   1.935   3.962 -0.1743 -0.2661 -0.3692
 8134TIP3    H145817   2.460   1.900   4.000 -0.3203 -1.6039 -1.2397
 8134TIP3    H245818   2.313   1.918   4.029 -0.4188 -2.5564 -1.1215
 8135TIP3   OH245819   4.214   6.856  10.005  0.0500 -0.0031  0.4935
 8135TIP3    H145820   4.226   6.802   9.927 -1.7603  0.9366 -0.5261
 8135TIP3    H245821   4.240   6.944   9.977  0.0547  0.2099  1.1610
 8136TIP3   OH245822   1.552   4.358  12.985  0.4285 -0.6464  0.2737
 8136TIP3    H145823   1.512   4.421  13.045  0.3565 -0.3168 -0.1121
 8136TIP3    H245824   1.496   4.361  12.907 -0.3783 -2.1933  0.7565
 8137TIP3   OH245825   2.826   2.024  12.591  0.2518  0.2391 -0.2208
 8137TIP3    H145826   2.742   1.998  12.551  1.2410 -1.3304 -1.3921
 8137TIP3    H245827   2.884   1.951  12.574  1.6586  0.9403  1.3282
 8138TIP3   OH245828   5.046   5.967  11.149 -0.3046 -0.1979 -0.5391
 8138TIP3    H145829   5.133   5.960  11.110  0.0702  0.2646  0.1774
 8138TIP3    H245830   5.004   5.883  11.131  0.3273 -0.4584 -0.8100
 8139TIP3   OH245831   4.155   6.170   2.333 -0.0158 -0.1474 -0.4964
 8139TIP3    H145832   4.240   6.146   2.296 -1.1991 -2.9628 -1.6248
 8139TIP3    H245833   4.164   6.153   2.427  0.7436 -0.0477 -0.5367
 8140TIP3   OH245834   6.403   4.519  12.289 -0.5011 -0.2969 -0.2164
 8140TIP3    H145835   6.352   4.587  12.333 -0.1978 -0.4129  0.3389
 8140TIP3    H245836   6.392   4.536  12.196 -0.8549  0.1937 -0.0885
 8141TIP3   OH245837   0.312   0.196  13.015  0.3197 -0.4906  0.2244
 8141TIP3    H145838   0.299   0.288  12.995 -0.4044 -0.4077  1.0270
 8141TIP3    H245839   0.407   0.184  13.011  0.3514 -0.0211 -1.1312
 8142TIP3   OH245840   0.916   2.012   3.792 -0.6797  0.3071  0.0587
 8142TIP3    H145841   0.835   2.046   3.829 -0.1754  1.3172  0.2441
 8142TIP3    H245842   0.942   2.077   3.727  1.8989  1.9549  2.5081
 8143TIP3   OH245843   6.804   2.480  15.418  0.4152  0.6014 -0.0637
 8143TIP3    H145844   6.784   2.572  15.398 -0.2262  0.4928  0.0725
 8143TIP3    H245845   6.879   2.485  15.478 -1.3767  1.1624  2.2605
 8144TIP3   OH245846   4.000   4.264   2.309  0.0145 -0.2471 -0.3156
 8144TIP3    H145847   4.021   4.213   2.231 -0.6352 -0.8395 -0.1104
 8144TIP3    H245848   4.059   4.339   2.305  0.6884 -0.7902 -0.8469
 8145TIP3   OH245849   6.601   4.879   1.097 -0.0301  0.1776  0.1766
 8145TIP3    H145850   6.696   4.886   1.088  0.0453 -0.1239  0.6956
 8145TIP3    H245851   6.575   4.815   1.031  0.2646 -0.5418  0.7498
 8146TIP3   OH245852   0.261   2.552   2.872 -0.2302 -0.1126 -0.4833
 8146TIP3    H145853   0.169   2.580   2.874 -0.3093 -0.3748  1.2443
 8146TIP3    H245854   0.264   2.478   2.933  0.7486 -1.4034 -2.0254
 8147TIP3   OH245855   0.396   1.977  11.695 -0.1097 -0.2824 -0.6428
 8147TIP3    H145856   0.383   2.070  11.678 -1.3216  0.0612  1.7873
 8147TIP3    H245857   0.307   1.941  11.696  0.2390 -1.1486  0.0012
 8148TIP3   OH245858   7.132   4.312  12.617 -0.1197  0.4379  0.1795
 8148TIP3    H145859   7.082   4.388  12.588 -0.2201  0.3755  0.1859
 8148TIP3    H245860   7.101   4.241  12.561 -1.5775 -0.0689  1.5338
 8149TIP3   OH245861   4.827   0.174  15.421  0.0958 -0.4143 -0.0680
 8149TIP3    H145862   4.745   0.218  15.444  0.9839  0.6021  1.3127
 8149TIP3    H245863   4.800   0.087  15.391 -1.7034  0.9032 -2.6829
 8150TIP3   OH245864   5.424   5.334   0.789  0.1832  0.2902  0.4294
 8150TIP3    H145865   5.438   5.254   0.738  1.8707  0.1109  1.1019
 8150TIP3    H245866   5.429   5.405   0.724  0.1284 -0.0614  0.0389
 8151TIP3   OH245867   0.091   1.501  11.375 -0.1589 -0.3413  0.2791
 8151TIP3    H145868   0.105   1.588  11.337 -0.5320 -0.3617  0.0895
 8151TIP3    H245869   0.017   1.512  11.434  0.0600 -0.4393  0.5751
 8152TIP3   OH245870   6.525   5.394   4.775  0.2815  0.2595  0.6912
 8152TIP3    H145871   6.450   5.419   4.722  0.5733  2.3195  1.1553
 8152TIP3    H245872   6.490   5.381   4.863  0.2358 -0.3797  0.5847
 8153TIP3   OH245873   5.878   1.418   1.865 -0.1910 -0.4069  0.6467
 8153TIP3    H145874   5.927   1.470   1.928  0.6066  0.2734 -0.4903
 8153TIP3    H245875   5.786   1.443   1.879  0.2200  1.8834 -0.3136
 8154TIP3   OH245876   0.999   5.695  11.670  0.5913 -0.1784  0.0069
 8154TIP3    H145877   1.055   5.617  11.668  1.3180  0.3176 -2.3211
 8154TIP3    H245878   0.933   5.678  11.603 -0.6445  0.2772  1.0694
 8155TIP3   OH245879   2.262   6.165   0.533  0.1551 -0.3496  0.6767
 8155TIP3    H145880   2.286   6.144   0.623 -1.7348 -0.8581  1.1065
 8155TIP3    H245881   2.289   6.256   0.521 -1.2897  0.3621  2.4354
 8156TIP3   OH245882   3.254   6.622  13.154 -0.3920  0.1131 -0.0571
 8156TIP3    H145883   3.333   6.645  13.201 -0.3935 -1.6371  0.9008
 8156TIP3    H245884   3.283   6.606  13.064 -0.1076  1.8261 -0.3022
 8157TIP3   OH245885   5.206   1.567   2.910 -0.1232 -0.5432  0.2672
 8157TIP3    H145886   5.119   1.553   2.946 -1.2554 -1.9347 -2.7096
 8157TIP3    H245887   5.191   1.603   2.822  2.4058  1.6575  0.5735
 8158TIP3   OH245888   5.794   0.700   4.247  0.2081 -0.5794  0.6365
 8158TIP3    H145889   5.881   0.728   4.220  0.0203  0.2144  0.8419
 8158TIP3    H245890   5.808   0.655   4.331  0.2473  0.8937  1.4485
 8159TIP3   OH245891   4.126   2.736   1.321 -0.0392  0.1546  0.5350
 8159TIP3    H145892   4.165   2.699   1.400 -2.7053 -1.7122  1.1095
 8159TIP3    H245893   4.150   2.675   1.252 -0.4123  0.0248  0.5224
 8160TIP3   OH245894   1.873   1.225   0.071  0.1253  0.7848  0.1279
 8160TIP3    H145895   1.868   1.148   0.127 -0.6712  1.8734  1.6463
 8160TIP3    H245896   1.932   1.200  -0.000 -0.8568 -1.5110  0.0447
 8161TIP3   OH245897   1.910   1.723  10.741 -0.9378  0.2774 -0.1346
 8161TIP3    H145898   2.002   1.735  10.765 -0.5821 -2.7741  0.4671
 8161TIP3    H245899   1.913   1.659  10.669 -2.5957 -0.5952  0.5284
 8162TIP3   OH245900   5.448   3.613   1.909 -0.2850  0.0032 -0.7691
 8162TIP3    H145901   5.417   3.588   1.822  1.6513 -0.7732 -1.2925
 8162TIP3    H245902   5.508   3.686   1.893  0.0227 -0.0926 -0.0786
 8163TIP3   OH245903   0.116   2.171  15.174  0.1517  0.5476  0.0453
 8163TIP3    H145904   0.074   2.146  15.256 -2.2507 -0.4048 -1.3812
 8163TIP3    H245905   0.044   2.196  15.116  1.6850  0.3873 -2.0373
 8164TIP3   OH245906   6.306   1.543  14.009 -0.6644  0.2190  0.0928
 8164TIP3    H145907   6.321   1.634  13.982  0.0738 -0.1953 -0.9920
 8164TIP3    H245908   6.332   1.492  13.932 -0.4045 -0.9405  0.9381
 8165TIP3   OH245909   5.405   4.831   0.296 -0.0484 -0.2410  0.1305
 8165TIP3    H145910   5.421   4.736   0.294 -0.6761 -0.3917  1.1880
 8165TIP3    H245911   5.491   4.870   0.311  0.5485 -0.4935 -2.3057
 8166TIP3   OH245912   1.307   2.018  12.423  0.0318 -0.4684  0.0173
 8166TIP3    H145913   1.287   1.950  12.358  2.9260  0.1171 -1.6918
 8166TIP3    H245914   1.250   2.091  12.401 -1.8668 -1.6589  0.7645
 8167TIP3   OH245915   6.692   6.005  13.908 -0.1251  0.5239 -0.0689
 8167TIP3    H145916   6.762   5.940  13.898 -0.0573  0.7972 -1.5083
 8167TIP3    H245917   6.612   5.956  13.888 -0.1836  0.6126 -0.0521
 8168TIP3   OH245918   5.806   0.475   3.703 -0.3840 -0.4207 -0.2932
 8168TIP3    H145919   5.811   0.453   3.610  0.5166  0.1833 -0.3950
 8168TIP3    H245920   5.807   0.390   3.747  0.2067 -0.6774 -0.7939
 8169TIP3   OH245921   5.996   2.441   2.240  0.3402 -0.5414  0.2344
 8169TIP3    H145922   6.014   2.499   2.314 -2.3380  0.1986  0.4150
 8169TIP3    H245923   6.080   2.402   2.219  1.8476  1.7863  1.5019
 8170TIP3   OH245924   2.717   3.338   3.783  0.3170  0.7540  0.7391
 8170TIP3    H145925   2.706   3.426   3.747  0.9203  0.3666 -0.4370
 8170TIP3    H245926   2.644   3.328   3.844  0.2011  2.0398  0.8367
 8171TIP3   OH245927   3.313   6.469   5.688 -0.3692  0.2212  1.0683
 8171TIP3    H145928   3.240   6.408   5.691 -0.9659  0.6491 -1.8633
 8171TIP3    H245929   3.273   6.554   5.672  0.5364  1.3016  3.9195
 8172TIP3   OH245930   6.027   2.225   2.555 -0.0565  0.3702  0.3808
 8172TIP3    H145931   5.946   2.187   2.592 -0.6180 -2.0029 -2.8095
 8172TIP3    H245932   6.003   2.315   2.533 -1.3652  0.1749  0.8900
 8173TIP3   OH245933   3.208   1.413  15.638  0.2302 -0.1083  0.1287
 8173TIP3    H145934   3.253   1.393  15.720  0.3893 -0.1068  0.0413
 8173TIP3    H245935   3.273   1.460  15.585 -0.2952  1.1017  0.5221
 8174TIP3   OH245936   0.416   2.568   1.264  0.8876 -0.3670 -0.2725
 8174TIP3    H145937   0.479   2.511   1.220  0.2802 -0.1788 -1.4028
 8174TIP3    H245938   0.378   2.621   1.195 -2.1791 -2.0156 -0.0380
 8175TIP3   OH245939   2.683   5.168   2.769  0.3165 -0.2329  0.6455
 8175TIP3    H145940   2.768   5.156   2.812  0.4056  0.4019  0.6640
 8175TIP3    H245941   2.619   5.149   2.838  0.3676 -3.2690 -0.0437
 8176TIP3   OH245942   1.251   0.042   1.310 -0.3149  0.4943  0.1970
 8176TIP3    H145943   1.265   0.126   1.268 -0.1882  0.4862  0.2214
 8176TIP3    H245944   1.221  -0.016   1.240 -1.8142  0.9239  0.4584
 8177TIP3   OH245945   6.797   2.956   2.792  0.6257  0.1260 -0.0126
 8177TIP3    H145946   6.862   2.938   2.723 -0.9402  1.9690 -2.1400
 8177TIP3    H245947   6.737   2.882   2.788  2.6053 -1.7634  2.1950
 8178TIP3   OH245948   0.669   0.990   3.818 -0.3198 -0.6108 -0.4557
 8178TIP3    H145949   0.749   0.948   3.787 -0.3648 -0.9744 -0.0873
 8178TIP3    H245950   0.599   0.953   3.764 -0.2646 -0.4306 -0.6523
 8179TIP3   OH245951   1.743   5.688  14.493  0.0789 -0.5086  0.2036
 8179TIP3    H145952   1.774   5.634  14.565  1.7142  0.9180  0.6557
 8179TIP3    H245953   1.725   5.773  14.533  0.5511  0.1643 -0.9628
 8180TIP3   OH245954   5.591   5.827   1.786  0.2337  0.2453 -0.5825
 8180TIP3    H145955   5.562   5.914   1.814  0.0561 -0.1070  0.3642
 8180TIP3    H245956   5.678   5.842   1.748  0.4903  0.7349  0.1858
 8181TIP3   OH245957   0.095   1.514   3.394  0.1448  0.2459 -0.0171
 8181TIP3    H145958   0.176   1.555   3.367  0.0691 -0.0891 -0.7713
 8181TIP3    H245959   0.119   1.463   3.472  0.6839  0.0532 -0.3046
 8182TIP3   OH245960   6.602   4.048  11.076  0.6349  0.1631  0.0469
 8182TIP3    H145961   6.594   4.061  10.982 -0.5113 -0.8949 -0.0409
 8182TIP3    H245962   6.515   4.018  11.103  1.2689 -0.7165  1.2319
 8183TIP3   OH245963   5.511   4.029  13.385 -0.5221  0.5095 -0.4627
 8183TIP3    H145964   5.542   3.989  13.466 -0.4154  1.1289 -0.1915
 8183TIP3    H245965   5.565   4.108  13.375  2.9486 -1.9240 -3.6884
 8184TIP3   OH245966   4.327   1.887  15.065 -0.1125  0.3278  0.3895
 8184TIP3    H145967   4.318   1.800  15.026  3.4355  0.4382 -1.0739
 8184TIP3    H245968   4.418   1.890  15.095 -0.4316  3.1821  1.3728
 8185TIP3   OH245969   5.485   4.593  15.620  0.7444  0.2627 -0.2895
 8185TIP3    H145970   5.430   4.543  15.559  0.3725  1.2297 -0.7623
 8185TIP3    H245971   5.461   4.560  15.706 -0.8994  0.9293 -0.4514
 8186TIP3   OH245972   3.164   6.100   4.112 -0.0597  0.3135  0.9912
 8186TIP3    H145973   3.235   6.085   4.175 -0.1746 -1.8121  0.6823
 8186TIP3    H245974   3.191   6.177   4.063  3.6861 -2.1152 -1.2492
 8187TIP3   OH245975   6.116   7.102   2.823  0.4940 -0.6446  0.0042
 8187TIP3    H145976   6.038   7.075   2.872  0.3400  0.4160  0.3651
 8187TIP3    H245977   6.098   7.192   2.798  1.6232 -0.3752  0.1232
 8188TIP3   OH245978   2.493   5.806  14.657 -0.1263  0.3408  0.1582
 8188TIP3    H145979   2.561   5.873  14.645 -0.0803  0.3978  0.7087
 8188TIP3    H245980   2.532   5.744  14.720  0.3213 -0.8786 -1.2619
 8189TIP3   OH245981   6.083   1.824  13.355  0.2126 -0.0989 -0.5121
 8189TIP3    H145982   5.994   1.798  13.332  0.3376  0.0152 -1.1429
 8189TIP3    H245983   6.122   1.853  13.272  1.0759 -0.8538 -0.3910
 8190TIP3   OH245984   0.378   5.179   4.902 -0.1789  0.3086 -0.4907
 8190TIP3    H145985   0.389   5.180   4.807 -0.7394  1.9905 -0.5764
 8190TIP3    H245986   0.292   5.139   4.915 -0.2077  0.2926 -0.7152
 8191TIP3   OH245987   3.539   4.461  11.950  0.1963 -0.4923  0.0241
 8191TIP3    H145988   3.614   4.403  11.940  0.9508  0.5608 -0.6259
 8191TIP3    H245989   3.512   4.451  12.041  1.6437 -0.2725  0.4987
 8192TIP3   OH245990   4.231   1.102  11.060 -0.0450 -0.0619  0.0543
 8192TIP3    H145991   4.184   1.121  11.141 -3.5998 -2.2160 -1.2640
 8192TIP3    H245992   4.173   1.135  10.991  0.9163 -1.8378 -1.7029
 8193TIP3   OH245993   0.276   1.472   1.207  0.7866  0.3147 -0.1818
 8193TIP3    H145994   0.264   1.462   1.113  0.7818  0.9815 -0.2528
 8193TIP3    H245995   0.217   1.543   1.232 -0.8526 -1.2661  0.6916
 8194TIP3   OH245996   0.652   3.295   5.223 -0.7297 -0.0587 -0.2643
 8194TIP3    H145997   0.725   3.240   5.252 -0.2272  0.9265  0.4002
 8194TIP3    H245998   0.609   3.323   5.304 -1.4281 -0.0529 -0.6235
 8195TIP3   OH245999   4.367   6.802   0.545  0.1103 -0.8339 -0.1168
 8195TIP3    H146000   4.453   6.787   0.584  0.2261 -0.5871 -0.2730
 8195TIP3    H246001   4.385   6.853   0.466 -0.2495 -0.0683  0.2845
 8196TIP3   OH246002   2.341   3.630   0.784 -0.0720 -0.1502 -0.6464
 8196TIP3    H146003   2.277   3.635   0.714  1.9311 -1.5641 -2.7365
 8196TIP3    H246004   2.400   3.559   0.758  1.6515  0.2512  1.7463
 8197TIP3   OH246005   6.092   3.972  12.775 -0.5917  0.2616  0.4886
 8197TIP3    H146006   6.158   4.017  12.827  0.0382  0.4194 -0.4097
 8197TIP3    H246007   6.142   3.927  12.707 -1.4020  0.3492 -0.1866
 8198TIP3   OH246008   5.670   2.559   4.287  0.4344  0.1756 -0.3896
 8198TIP3    H146009   5.614   2.482   4.288 -1.7477  1.6481 -0.6170
 8198TIP3    H246010   5.609   2.633   4.292  2.2494  1.9616 -2.2345
 8199TIP3   OH246011   4.722   1.030   2.022 -0.0749  0.3272 -0.5048
 8199TIP3    H146012   4.805   0.988   2.000 -0.6018 -0.9006 -0.2068
 8199TIP3    H246013   4.707   1.009   2.114 -1.0710 -0.0953 -0.7491
 8200TIP3   OH246014   1.479   5.700  13.044  0.5490  0.0065 -0.3952
 8200TIP3    H146015   1.429   5.647  12.982  1.6129 -1.5632  0.0428
 8200TIP3    H246016   1.412   5.749  13.092 -0.5138 -1.1692 -0.6132
 8201TIP3   OH246017   4.737   0.732  12.340 -0.5312 -0.0361  0.7225
 8201TIP3    H146018   4.824   0.709  12.375 -0.4049  0.7004  0.9001
 8201TIP3    H246019   4.679   0.665  12.376  0.0477 -0.8417  0.1853
 8202TIP3   OH246020   0.739   3.552   4.247 -0.4188 -0.0683 -0.8282
 8202TIP3    H146021   0.783   3.570   4.330 -0.6308 -2.8545  0.0097
 8202TIP3    H246022   0.717   3.638   4.212  0.0975  1.2258  1.7799
 8203TIP3   OH246023   2.610   6.239  14.525 -0.7441  0.0073 -0.2451
 8203TIP3    H146024   2.578   6.295  14.596  0.6826 -2.7024  2.8150
 8203TIP3    H246025   2.543   6.172  14.515  0.3217 -1.2385  0.6437
 8204TIP3   OH246026   5.443   1.656  13.582 -0.7264 -0.2862 -0.6248
 8204TIP3    H146027   5.391   1.579  13.604 -2.0906  0.9693  0.7585
 8204TIP3    H246028   5.383   1.711  13.532 -0.0713  0.3313 -0.7446
 8205TIP3   OH246029   6.210   6.824  12.399  0.0080 -0.2125  0.2629
 8205TIP3    H146030   6.173   6.737  12.384 -1.0473  0.1856  0.4307
 8205TIP3    H246031   6.151   6.864  12.462  0.0597  0.8910 -0.3678
 8206TIP3   OH246032   4.042   0.976  12.834  0.3139  0.3947 -0.4674
 8206TIP3    H146033   4.099   1.006  12.763  0.4071  1.0949 -0.0980
 8206TIP3    H246034   4.099   0.973  12.911 -0.2294  1.4387 -0.0182
 8207TIP3   OH246035   3.594   3.774  14.340  0.2841 -0.4896  0.1036
 8207TIP3    H146036   3.587   3.766  14.244 -0.2068 -1.1907  0.1907
 8207TIP3    H246037   3.526   3.836  14.364  1.1848  0.6159 -0.1134
 8208TIP3   OH246038   1.405   5.689  12.621  0.3694  0.4203 -0.0737
 8208TIP3    H146039   1.353   5.692  12.541  0.5918  0.2118 -0.2288
 8208TIP3    H246040   1.442   5.777  12.630 -0.0129  0.5714  0.0401
 8209TIP3   OH246041   0.756   3.402   3.771  0.2440 -0.3443  0.2507
 8209TIP3    H146042   0.732   3.325   3.822  2.1592 -1.7653 -0.8583
 8209TIP3    H246043   0.792   3.463   3.836  1.8923 -1.7835  0.7479
 8210TIP3   OH246044   4.646   5.342   0.179  0.0711  0.4948  0.5384
 8210TIP3    H146045   4.628   5.409   0.112  0.1040  1.5466  1.5539
 8210TIP3    H246046   4.724   5.296   0.146 -0.4153  0.4181 -0.5547
 8211TIP3   OH246047   0.614   4.578  15.144  0.3310 -0.1475 -0.6341
 8211TIP3    H146048   0.644   4.495  15.180  0.2243 -0.9796 -2.3525
 8211TIP3    H246049   0.672   4.643  15.183  0.2653 -0.9706  0.9299
 8212TIP3   OH246050   3.717   6.385   0.826  0.1426 -0.4772 -0.3574
 8212TIP3    H146051   3.719   6.473   0.789 -0.9660 -0.3015 -0.0471
 8212TIP3    H246052   3.770   6.332   0.767 -0.5819  0.0474 -1.5150
 8213TIP3   OH246053   4.929   5.788  10.194  0.2881 -0.0831  0.1851
 8213TIP3    H146054   4.966   5.824  10.113 -1.8861 -0.2893 -0.9761
 8213TIP3    H246055   4.924   5.694  10.177  1.1666 -0.3323  1.1855
 8214TIP3   OH246056   3.218   1.134  11.323  0.1765 -0.1082  0.5468
 8214TIP3    H146057   3.312   1.128  11.312  0.1506 -0.9029  0.7226
 8214TIP3    H246058   3.188   1.043  11.329 -0.8405  0.0314 -1.4959
 8215TIP3   OH246059   3.453   3.718   0.299 -0.9484 -0.0840  0.0412
 8215TIP3    H146060   3.515   3.791   0.294 -1.6540  0.7369  2.1105
 8215TIP3    H246061   3.401   3.725   0.219 -0.6070  1.3190 -0.0866
 8216TIP3   OH246062   5.864   3.839  11.032  0.2942 -0.1946  0.1560
 8216TIP3    H146063   5.865   3.902  10.960  0.7529  0.4484  0.7055
 8216TIP3    H246064   5.772   3.823  11.050  0.1695  0.4107  0.0751
 8217TIP3   OH246065   4.962   3.547  11.127 -0.0446 -0.3311 -0.0287
 8217TIP3    H146066   5.040   3.556  11.181  0.4435 -0.6491 -0.6550
 8217TIP3    H246067   4.925   3.635  11.121  1.0755  0.1085 -0.8913
 8218TIP3   OH246068   4.180   5.046  10.498 -0.6365 -0.4729  0.3583
 8218TIP3    H146069   4.086   5.054  10.484 -0.4076  2.5202 -0.1593
 8218TIP3    H246070   4.217   5.039  10.410 -0.3243 -1.2851  0.5426
 8219TIP3   OH246071   7.053   5.035   2.965  0.2436  0.2273  0.4161
 8219TIP3    H146072   7.107   5.027   2.886 -0.0714  0.8808  0.1190
 8219TIP3    H246073   7.074   5.122   2.999 -1.0432  0.7482 -0.0442
 8220TIP3   OH246074   4.763   5.205  12.608  0.2598 -0.0929  0.0804
 8220TIP3    H146075   4.745   5.234  12.518 -0.5448  1.6339  0.7612
 8220TIP3    H246076   4.835   5.143  12.599  1.0296  0.9889 -1.6398
 8221TIP3   OH246077   5.964   3.192  14.762 -0.0161  0.3172 -0.6412
 8221TIP3    H146078   5.960   3.286  14.783 -0.7603  0.5414 -1.7000
 8221TIP3    H246079   6.009   3.153  14.836  4.0458  2.0454 -1.8969
 8222TIP3   OH246080   0.808   6.166   3.198 -0.0087 -0.3157  0.6745
 8222TIP3    H146081   0.869   6.184   3.126 -0.6878 -0.5958  0.0094
 8222TIP3    H246082   0.787   6.252   3.234  0.7901 -0.2204  0.9182
 8223TIP3   OH246083   2.642   7.004  13.321 -0.3836 -0.1234 -0.0978
 8223TIP3    H146084   2.630   7.059  13.398  0.2053 -0.7577  0.4557
 8223TIP3    H246085   2.559   6.958  13.311 -0.7073  0.4870 -0.2711
 8224TIP3   OH246086   1.195   7.054  12.761  0.0305  0.1623 -0.0588
 8224TIP3    H146087   1.146   7.136  12.749 -0.0047  0.1619  0.0731
 8224TIP3    H246088   1.216   7.053  12.855 -0.0299 -0.0151 -0.0465
 8225TIP3   OH246089   5.901   2.713   3.960  0.2572  0.2394  0.2139
 8225TIP3    H146090   5.926   2.726   3.868  0.2069  0.5128  0.2382
 8225TIP3    H246091   5.829   2.650   3.956  1.8562 -1.6778  0.2430
 8226TIP3   OH246092   0.003   5.768  13.391 -0.2792 -0.1441  1.0209
 8226TIP3    H146093   0.035   5.843  13.342 -0.1225 -0.2946  0.8889
 8226TIP3    H246094   0.045   5.693  13.350 -0.4788 -0.3090  1.1151
 8227TIP3   OH246095   4.576   5.991  13.306  0.1803  0.5321  0.0760
 8227TIP3    H146096   4.635   5.941  13.362  1.0168  0.9860 -0.3783
 8227TIP3    H246097   4.495   5.999  13.357  0.2721 -0.6762  0.4253
 8228TIP3   OH246098   2.936   4.273   0.369 -0.3617  0.4585  0.3750
 8228TIP3    H146099   2.945   4.213   0.443  0.5906  0.5814  0.3715
 8228TIP3    H246100   3.025   4.287   0.338 -0.7489  0.4237 -0.7928
 8229TIP3   OH246101   6.784   6.214  13.663 -0.2323  0.4274 -0.3889
 8229TIP3    H146102   6.850   6.147  13.646  0.8691  1.2959  0.3408
 8229TIP3    H246103   6.703   6.177  13.628 -0.0492 -2.0384  1.5136
 8230TIP3   OH246104   5.381   5.876   3.549 -0.0390  0.6249 -0.9099
 8230TIP3    H146105   5.312   5.817   3.577 -0.1153  0.8610 -0.5925
 8230TIP3    H246106   5.335   5.949   3.508  0.0065  0.8689 -0.5364
 8231TIP3   OH246107   6.721   4.404  14.471 -0.2824  0.4297  0.2152
 8231TIP3    H146108   6.627   4.402  14.453 -0.5232 -2.0527  1.3579
 8231TIP3    H246109   6.728   4.393  14.566  1.1705  0.5252  0.1389
 8232TIP3   OH246110   4.973   1.536  10.075 -0.3289  0.2954  0.5198
 8232TIP3    H146111   5.058   1.517  10.034  0.2066 -2.2070  2.5432
 8232TIP3    H246112   4.909   1.497  10.016  0.2399 -0.9497  0.6765
 8233TIP3   OH246113   5.784   1.590  10.698  0.1441 -0.0449  0.1128
 8233TIP3    H146114   5.764   1.622  10.786  1.0390  0.9987 -0.0412
 8233TIP3    H246115   5.839   1.658  10.660 -0.2605 -0.4647 -1.2756
 8234TIP3   OH246116   5.327   4.156   3.257 -0.6257 -0.2196  0.4107
 8234TIP3    H146117   5.380   4.105   3.196  0.6443  2.8738 -1.2628
 8234TIP3    H246118   5.246   4.174   3.209 -0.8196 -0.1512  0.7581
 8235TIP3   OH246119   1.883   2.353  14.251 -0.3184 -0.3249  0.2846
 8235TIP3    H146120   1.910   2.354  14.159  0.6231  0.7187  0.5532
 8235TIP3    H246121   1.957   2.311  14.297 -0.4519 -0.1476  0.6644
 8236TIP3   OH246122   3.271   5.315   2.684 -0.3080 -0.0270  0.0998
 8236TIP3    H146123   3.212   5.388   2.704 -0.9880 -0.8800  1.3493
 8236TIP3    H246124   3.358   5.356   2.677 -0.6612  0.9032  0.8902
 8237TIP3   OH246125   0.840   3.574   5.611 -0.3332  0.1702 -0.1801
 8237TIP3    H146126   0.775   3.602   5.674 -1.4666  0.3303 -1.3717
 8237TIP3    H246127   0.839   3.478   5.615  0.1047  0.1890  0.5172
 8238TIP3   OH246128   1.143   6.056  10.412  0.1371  0.0531 -0.3248
 8238TIP3    H146129   1.166   6.147  10.426 -1.7566  0.7393 -1.3520
 8238TIP3    H246130   1.125   6.049  10.318 -0.3305 -1.2159 -0.1652
 8239TIP3   OH246131   0.419   4.163   0.610  0.5669  0.6749  0.0144
 8239TIP3    H146132   0.329   4.195   0.606  0.6601  0.9221 -0.1980
 8239TIP3    H246133   0.471   4.240   0.633  0.5743  0.2344  1.5796
 8240TIP3   OH246134   2.202   5.508  15.250 -0.4313  0.0156 -0.4057
 8240TIP3    H146135   2.225   5.540  15.337 -0.7598  0.5974 -0.5284
 8240TIP3    H246136   2.151   5.428  15.266 -2.8819  1.5809  0.0567
 8241TIP3   OH246137   2.922   3.355   4.565 -0.2625 -0.0824  0.1816
 8241TIP3    H146138   2.886   3.276   4.604 -0.5401 -0.0856 -0.0776
 8241TIP3    H246139   2.846   3.412   4.551 -0.3424 -0.5307 -1.4114
 8242TIP3   OH246140   2.501   4.814   5.915  0.0357  0.4761  0.7161
 8242TIP3    H146141   2.436   4.747   5.931 -0.5883  0.8288 -0.2761
 8242TIP3    H246142   2.466   4.866   5.843  0.7588  1.5312  1.0887
 8243TIP3   OH246143   6.568   3.487  12.760  0.2685 -0.3218  0.2780
 8243TIP3    H146144   6.639   3.426  12.782  1.3182  0.9470  0.5230
 8243TIP3    H246145   6.581   3.507  12.667 -0.5769 -1.0977 -0.0152
 8244TIP3   OH246146   2.818   2.864  13.600 -0.2714 -0.4835 -0.7358
 8244TIP3    H146147   2.819   2.839  13.692 -0.5150  2.5166  0.2006
 8244TIP3    H246148   2.909   2.889  13.581 -0.6951  1.4508 -0.4452
 8245TIP3   OH246149   4.595   6.371   4.468 -0.2242 -0.2591 -0.3067
 8245TIP3    H146150   4.597   6.423   4.388 -0.1933 -0.0021 -0.1385
 8245TIP3    H246151   4.533   6.416   4.525 -0.6058 -0.7036 -0.3635
 8246TIP3   OH246152   1.593   0.686  12.752 -0.1137 -0.0283 -0.0839
 8246TIP3    H146153   1.513   0.735  12.732  1.6555  2.8348 -0.7755
 8246TIP3    H246154   1.575   0.597  12.723 -2.9754  0.5383 -0.3132
 8247TIP3   OH246155   2.372   3.052   4.437  0.1535  0.2875  0.7728
 8247TIP3    H146156   2.297   3.054   4.497  0.1786 -1.4508  0.8933
 8247TIP3    H246157   2.334   3.032   4.351  0.4021  0.1311  0.6972
 8248TIP3   OH246158   5.499   3.881   2.783 -0.6791  0.2548  0.4174
 8248TIP3    H146159   5.492   3.975   2.766  0.4410  0.1180 -1.0289
 8248TIP3    H246160   5.593   3.867   2.800 -0.7488 -0.6772  0.0838
 8249TIP3   OH246161   4.584   4.603   1.502 -0.1842  0.2406 -0.1739
 8249TIP3    H146162   4.574   4.510   1.483 -1.3833  0.0603  1.1953
 8249TIP3    H246163   4.565   4.646   1.419 -0.8586 -0.6926 -0.5232
 8250TIP3   OH246164   4.817   2.992   0.195  0.3138  0.0927 -0.1997
 8250TIP3    H146165   4.791   3.017   0.107 -0.2976 -0.0008 -0.0548
 8250TIP3    H246166   4.831   2.897   0.190  0.6849  0.1517 -0.2906
 8251TIP3   OH246167   4.305   3.704   1.860  0.2177 -0.1861 -0.3803
 8251TIP3    H146168   4.249   3.685   1.935 -0.7237 -0.1662 -1.0690
 8251TIP3    H246169   4.331   3.618   1.827  0.2763 -0.1983 -0.3038
 8252TIP3   OH246170   3.411   2.774   1.744  0.2873  0.0295  0.1225
 8252TIP3    H146171   3.505   2.767   1.759  0.6416  0.1814 -1.7444
 8252TIP3    H246172   3.403   2.844   1.679 -1.0700 -0.3337 -0.1234
 8253TIP3   OH246173   4.634   5.080  11.225 -0.1517  0.1076  0.2394
 8253TIP3    H146174   4.724   5.082  11.256  0.3462  0.1387 -1.1496
 8253TIP3    H246175   4.639   5.104  11.133 -1.5970  0.2078  0.1539
 8254TIP3   OH246176   2.090   5.736   4.388  0.0895 -0.1006  0.2722
 8254TIP3    H146177   2.144   5.673   4.437 -0.2673  0.8667  2.0117
 8254TIP3    H246178   2.004   5.693   4.382  0.1354 -0.2364  0.5327
 8255TIP3   OH246179   6.643   3.907  10.495 -0.2109  0.3997 -0.6513
 8255TIP3    H146180   6.559   3.951  10.484  0.4982  1.9863 -0.0786
 8255TIP3    H246181   6.683   3.951  10.571  1.4758  0.2711 -1.4154
 8256TIP3   OH246182   3.383   1.251  10.825  0.3663  0.8626  0.2089
 8256TIP3    H146183   3.406   1.161  10.849 -1.9421  0.1033 -0.2567
 8256TIP3    H246184   3.327   1.281  10.897 -0.6078  1.1669 -0.6602
 8257TIP3   OH246185   5.120   6.650  14.228  0.2418  0.4876 -0.6418
 8257TIP3    H146186   5.184   6.588  14.265 -1.0053 -1.0233 -0.9078
 8257TIP3    H246187   5.074   6.599  14.161 -1.4310  1.4432 -0.2614
 8258TIP3   OH246188   0.298   3.919   2.184  0.0377 -0.2673 -0.0031
 8258TIP3    H146189   0.376   3.952   2.228  1.1561 -0.8847 -1.4276
 8258TIP3    H246190   0.320   3.829   2.160 -0.7048 -0.1333 -1.3359
 8259TIP3   OH246191   2.927   6.260   3.397  0.3639 -0.3766 -0.3829
 8259TIP3    H146192   2.867   6.269   3.322  0.1691  0.5441 -0.1280
 8259TIP3    H246193   2.899   6.180   3.440 -1.7662  0.8246  0.6506
 8260TIP3   OH246194   0.362   6.933   3.249  0.3417 -0.6582 -0.4818
 8260TIP3    H146195   0.447   6.974   3.267  0.1806  0.2077 -1.5940
 8260TIP3    H246196   0.383   6.844   3.221  0.9470 -0.1870 -1.5604
 8261TIP3   OH246197   0.267   0.178  13.898 -0.6140  0.1947 -0.2969
 8261TIP3    H146198   0.276   0.198  13.991  1.5463  0.6603 -0.5546
 8261TIP3    H246199   0.194   0.232  13.869 -1.5334 -0.2001  1.1630
 8262TIP3   OH246200   4.009   4.917   4.483  0.6344 -0.3996 -0.8599
 8262TIP3    H146201   3.923   4.881   4.509 -0.0508  1.1926 -0.8071
 8262TIP3    H246202   4.061   4.912   4.563  0.5912 -1.3275 -0.8744
 8263TIP3   OH246203   0.315   4.123  12.462 -0.7512 -0.5851  0.2325
 8263TIP3    H146204   0.311   4.106  12.556 -0.5112  2.1416  0.8063
 8263TIP3    H246205   0.367   4.203  12.454 -1.8213 -0.0443 -2.1036
 8264TIP3   OH246206   0.552   2.668  10.713 -0.4979 -0.2347  0.4130
 8264TIP3    H146207   0.613   2.610  10.667  0.2265  0.9562 -0.1870
 8264TIP3    H246208   0.475   2.614  10.729 -0.2905 -1.0509 -1.1220
 8265TIP3   OH246209   5.772   3.989  14.077 -0.3065 -0.0868  0.2154
 8265TIP3    H146210   5.682   3.973  14.047 -0.1758 -0.8252  0.1814
 8265TIP3    H246211   5.785   3.926  14.147  0.3718 -0.3860 -0.1681
 8266TIP3   OH246212   0.670   2.635  11.032 -0.6111  0.6320  0.1577
 8266TIP3    H146213   0.580   2.626  11.003 -0.0663 -1.7158 -0.9924
 8266TIP3    H246214   0.721   2.583  10.971  1.3055  0.3085  1.9108
 8267TIP3   OH246215   1.352   3.605  12.951 -0.1809  0.4040  0.6990
 8267TIP3    H146216   1.321   3.539  13.013  0.3213 -1.0531 -0.5432
 8267TIP3    H246217   1.442   3.622  12.977 -0.5286  1.1546  1.4535
 8268TIP3   OH246218   1.458   4.096  13.014  0.4028  0.5935 -0.1819
 8268TIP3    H146219   1.455   4.155  12.938  0.9871  0.9718  0.0838
 8268TIP3    H246220   1.545   4.055  13.009  0.3078  0.3576  0.0870
 8269TIP3   OH246221   6.441   0.132   0.195  0.4344 -0.0928 -0.1214
 8269TIP3    H146222   6.478   0.044   0.188  1.2099  0.3153 -1.6019
 8269TIP3    H246223   6.428   0.160   0.105 -0.2758  1.1230  0.3347
 8270TIP3   OH246224   7.091   5.153  15.394 -0.7522 -0.2772 -0.0087
 8270TIP3    H146225   7.012   5.187  15.350  0.2992  0.9142 -1.0452
 8270TIP3    H246226   7.112   5.220  15.460 -0.6226 -0.6126  0.2929
 8271TIP3   OH246227   2.731   1.598  14.326 -0.1761 -0.0606  0.2553
 8271TIP3    H146228   2.826   1.608  14.318 -0.1930 -0.1073  0.0010
 8271TIP3    H246229   2.710   1.643  14.408  0.2957 -1.5502  1.2393
 8272TIP3   OH246230   5.227   1.981   3.376 -0.0116  0.0071  0.2347
 8272TIP3    H146231   5.249   2.060   3.427 -0.2868  0.2451 -0.0094
 8272TIP3    H246232   5.225   1.911   3.441 -0.6759  0.3665  0.6124
 8273TIP3   OH246233   2.674   5.698  11.108  0.2836  0.4438 -0.5217
 8273TIP3    H146234   2.743   5.634  11.125 -0.1146  0.3132  0.7049
 8273TIP3    H246235   2.623   5.660  11.036 -0.5143 -1.1355  0.7881
 8274TIP3   OH246236   6.566   5.925  11.066 -0.3332  0.2769 -0.2736
 8274TIP3    H146237   6.584   6.016  11.042 -0.8644  0.7792  1.1600
 8274TIP3    H246238   6.552   5.927  11.160 -0.9349 -1.2031 -0.3035
 8275TIP3   OH246239   3.283   5.839  11.563 -0.9055 -0.2561 -0.3363
 8275TIP3    H146240   3.220   5.854  11.633  0.3103  2.2006  0.3742
 8275TIP3    H246241   3.291   5.924  11.520  0.8706 -0.8481 -1.2745
 8276TIP3   OH246242   1.964   1.737  11.565  0.0357 -0.1223 -0.6100
 8276TIP3    H146243   1.950   1.647  11.594  1.8432 -0.3809 -0.4296
 8276TIP3    H246244   1.983   1.785  11.645 -0.2304  0.2817 -0.7876
 8277TIP3   OH246245   2.920   4.890   9.737 -0.4116 -0.4593 -0.5441
 8277TIP3    H146246   2.976   4.968   9.730 -0.1324 -0.5281  0.6785
 8277TIP3    H246247   2.981   4.816   9.733 -0.5005 -0.5614 -0.0859
 8278TIP3   OH246248   4.958   6.934   1.012  0.4392 -0.4223  0.2488
 8278TIP3    H146249   4.944   6.866   0.946  0.6571 -0.6971  0.4863
 8278TIP3    H246250   5.040   6.976   0.987  0.5399 -0.5501  0.3689
 8279TIP3   OH246251   1.035   2.895   0.450 -0.6313 -0.2474 -0.2957
 8279TIP3    H146252   1.108   2.904   0.388 -2.1166 -0.0302 -2.1185
 8279TIP3    H246253   0.959   2.883   0.394 -2.1982  0.9009  1.4904
 8280TIP3   OH246254   1.848   3.291  12.555  0.0924  0.4456 -0.1499
 8280TIP3    H146255   1.850   3.211  12.502  1.7998 -0.0111  0.5633
 8280TIP3    H246256   1.823   3.360  12.493  2.1737 -0.0421 -1.6350
 8281TIP3   OH246257   0.621   4.164   0.893 -0.3701 -0.4666  0.1878
 8281TIP3    H146258   0.557   4.094   0.876  0.1301 -1.2059  1.2630
 8281TIP3    H246259   0.615   4.181   0.986  1.2267 -0.8100  0.3982
 8282TIP3   OH246260   2.389   5.203  14.630 -0.2822 -0.1447  0.0796
 8282TIP3    H146261   2.424   5.187  14.718 -1.8286  0.6382  0.8820
 8282TIP3    H246262   2.367   5.296  14.630 -0.9497 -0.2929 -0.8907
 8283TIP3   OH246263   2.529   5.551  11.301  0.4542  0.0405 -0.3444
 8283TIP3    H146264   2.595   5.580  11.237 -1.3869  0.6937 -2.0409
 8283TIP3    H246265   2.445   5.571  11.259 -0.8677 -2.3173  0.9970
 8284TIP3   OH246266   2.057   1.267   2.845  0.5525  0.7066 -0.0138
 8284TIP3    H146267   2.091   1.354   2.864  1.7554  0.6057 -1.5016
 8284TIP3    H246268   1.962   1.280   2.835  0.6455  1.7296  0.3051
 8285TIP3   OH246269   5.206   0.507   1.671 -0.2441  0.5223 -0.6409
 8285TIP3    H146270   5.129   0.561   1.686 -0.6336 -0.3367  0.6210
 8285TIP3    H246271   5.276   0.570   1.652 -0.5681  1.5406  1.2921
 8286TIP3   OH246272   4.081   5.727   3.172 -0.2773 -0.1640  0.1630
 8286TIP3    H146273   4.113   5.650   3.125  1.0737 -1.5312  3.0713
 8286TIP3    H246274   4.048   5.692   3.255 -2.3227  2.1199  0.4168
 8287TIP3   OH246275   4.148   0.629   2.057 -0.3342  0.0789  0.5651
 8287TIP3    H146276   4.106   0.568   1.996  3.7653 -1.7910 -0.7739
 8287TIP3    H246277   4.185   0.697   2.001 -0.5596  1.0092  1.5202
 8288TIP3   OH246278   3.810   4.781  13.921 -0.5317  0.2450  0.2737
 8288TIP3    H146279   3.760   4.743  13.849 -1.0861  0.1503  0.7103
 8288TIP3    H246280   3.854   4.706  13.962  0.0657  0.3388 -0.1684
 8289TIP3   OH246281   0.229   6.656  11.612 -0.1253 -0.6137 -0.1477
 8289TIP3    H146282   0.191   6.711  11.681 -1.7137 -2.1354  0.2468
 8289TIP3    H246283   0.165   6.658  11.542  1.1027  0.2465 -1.2940
 8290TIP3   OH246284   6.583   1.001   9.674 -0.6457 -0.4980 -0.4870
 8290TIP3    H146285   6.556   1.071   9.733  0.0736 -1.2309  0.7562
 8290TIP3    H246286   6.582   0.922   9.728  0.7374 -1.0817 -1.2693
 8291TIP3   OH246287   0.363   2.827  14.971 -0.3988 -0.8408 -0.2663
 8291TIP3    H146288   0.394   2.738  14.989  2.3009  0.3024  1.4351
 8291TIP3    H246289   0.320   2.854  15.052 -1.0577 -0.5057 -0.7183
 8292TIP3   OH246290   6.691   2.082  14.324 -0.2024  0.4363  0.6988
 8292TIP3    H146291   6.641   2.002  14.307  0.3061  0.4265 -0.8537
 8292TIP3    H246292   6.626   2.146  14.350 -0.9278  0.1822 -0.4441
 8293TIP3   OH246293   1.872   6.348   1.028  0.2791 -0.0196  0.4302
 8293TIP3    H146294   1.794   6.299   1.052  0.1354 -1.8370 -3.1379
 8293TIP3    H246295   1.855   6.381   0.940  2.7362  1.3987  0.3641
 8294TIP3   OH246296   1.785   5.427  11.087 -0.0938  0.3848 -0.6688
 8294TIP3    H146297   1.792   5.355  11.025 -1.8426 -1.2055  0.8547
 8294TIP3    H246298   1.738   5.390  11.162  1.3553  2.3695  1.3705
 8295TIP3   OH246299   4.511   4.599  14.474  0.0340 -0.1587 -0.6681
 8295TIP3    H146300   4.454   4.535  14.431 -1.2030  1.5133 -1.6796
 8295TIP3    H246301   4.460   4.628  14.550  1.8776 -2.5153  1.6242
 8296TIP3   OH246302   1.266   2.700   1.795  0.1322 -0.0369 -0.5636
 8296TIP3    H146303   1.262   2.625   1.736  2.6650 -0.6289 -0.0938
 8296TIP3    H246304   1.243   2.665   1.880 -0.2603  0.0934 -0.6124
 8297TIP3   OH246305   4.100   0.973   4.428  0.1454  0.1084 -0.1145
 8297TIP3    H146306   4.130   1.058   4.395  0.8492  0.4948  1.4298
 8297TIP3    H246307   4.120   0.976   4.522  0.8516 -2.0482 -0.1581
 8298TIP3   OH246308   5.618   4.633  12.966 -0.3671  0.3015 -0.2661
 8298TIP3    H146309   5.678   4.560  12.951  0.4710  1.2077 -1.5695
 8298TIP3    H246310   5.653   4.703  12.911 -2.1394  1.1279 -0.3835
 8299TIP3   OH246311   2.351   0.253  12.386  0.2006 -0.8628 -0.3380
 8299TIP3    H146312   2.378   0.200  12.312  0.7785 -1.4640  0.2949
 8299TIP3    H246313   2.267   0.216  12.413  1.5847 -2.9594  1.4742
 8300TIP3   OH246314   1.179   4.367  14.327  0.6104 -0.3350 -0.1806
 8300TIP3    H146315   1.161   4.461  14.321  0.7966 -0.2900 -0.0468
 8300TIP3    H246316   1.244   4.360  14.397 -0.9473 -0.7642  1.2848
 8301TIP3   OH246317   0.006   2.007  15.377  0.1659 -0.0835 -0.3267
 8301TIP3    H146318  -0.011   1.939  15.442  0.7044  0.8359  0.8024
 8301TIP3    H246319  -0.063   1.995  15.311  1.5531 -3.1782 -1.4096
 8302TIP3   OH246320   0.091   5.837  10.301 -0.2720 -0.1885 -0.0211
 8302TIP3    H146321   0.053   5.836  10.388 -1.5405  2.3873 -0.4476
 8302TIP3    H246322   0.085   5.929  10.273  1.8843 -0.5535 -2.0554
 8303TIP3   OH246323   6.737   3.501  11.898  0.6357  0.1331  0.0807
 8303TIP3    H146324   6.786   3.427  11.860  2.3417  0.3310  1.7646
 8303TIP3    H246325   6.664   3.460  11.944 -0.2542 -0.2401 -1.5620
 8304TIP3   OH246326   5.293   6.170  11.765 -0.7172 -0.4969  0.5498
 8304TIP3    H146327   5.292   6.147  11.672 -2.6577  0.9730  0.1553
 8304TIP3    H246328   5.238   6.104  11.807  0.2395 -1.2194  0.7035
 8305TIP3   OH246329   6.657   5.819  12.651 -0.2435 -0.0488  0.2056
 8305TIP3    H146330   6.722   5.813  12.721 -1.7332 -1.7323  1.5623
 8305TIP3    H246331   6.698   5.776  12.577  1.2363  1.4487  0.0894
 8306TIP3   OH246332   4.615   4.558   4.490  0.5795  0.3140 -0.1442
 8306TIP3    H146333   4.624   4.462   4.490  0.3769  0.2917  0.3009
 8306TIP3    H246334   4.662   4.587   4.568  0.2928  0.5413 -0.0539
 8307TIP3   OH246335   1.754   6.547  15.168 -0.3256 -0.1185  0.3348
 8307TIP3    H146336   1.690   6.616  15.152  0.0965  0.0389 -0.8624
 8307TIP3    H246337   1.769   6.548  15.262  1.5231  3.1680  0.1618
 8308TIP3   OH246338   2.867   0.422  14.773  0.0526  0.4181 -0.1454
 8308TIP3    H146339   2.853   0.329  14.757  1.0680  0.0377  1.0544
 8308TIP3    H246340   2.779   0.458  14.782 -0.3381 -0.4802 -0.2664
 8309TIP3   OH246341   4.314   6.501   3.015 -0.0334 -0.0869 -0.0509
 8309TIP3    H146342   4.276   6.444   3.081 -0.6052 -0.6156 -0.8094
 8309TIP3    H246343   4.248   6.569   3.001 -0.2191 -0.3699 -0.5688
 8310TIP3   OH246344   6.098   0.063  11.188  0.2521  0.0306 -0.2491
 8310TIP3    H146345   6.109  -0.032  11.191 -0.1166 -0.0516 -1.2747
 8310TIP3    H246346   6.178   0.096  11.147  0.7842  0.2595  0.9212
 8311TIP3   OH246347   1.572   6.576  14.453  0.4027 -0.2631 -0.4015
 8311TIP3    H146348   1.612   6.490  14.467 -0.3229 -0.3703  1.1843
 8311TIP3    H246349   1.554   6.608  14.541  2.2244  2.2881 -0.8573
 8312TIP3   OH246350   1.022   2.999   3.802  0.6091  0.0691 -0.1697
 8312TIP3    H146351   1.041   3.093   3.798  0.6442  0.1094  0.7379
 8312TIP3    H246352   0.940   2.990   3.754  0.8671  0.4848 -0.7015
 8313TIP3   OH246353   5.836   5.085  14.590  0.0386 -0.1513  0.0226
 8313TIP3    H146354   5.850   5.125  14.675 -0.8889  0.5239 -0.1214
 8313TIP3    H246355   5.877   4.998  14.596  2.4825  0.9354  0.1974
 8314TIP3   OH246356   2.929   1.138  13.430 -0.1101  0.5030  0.3784
 8314TIP3    H146357   2.847   1.102  13.464  1.1892 -1.6571  1.4555
 8314TIP3    H246358   2.943   1.091  13.347  1.9774 -2.3117  2.1539
 8315TIP3   OH246359   2.406   6.443   1.785  0.2970  0.2998  0.0021
 8315TIP3    H146360   2.438   6.356   1.765 -1.3094 -0.1266 -0.9152
 8315TIP3    H246361   2.436   6.460   1.874  0.5279 -1.2415  0.2458
 8316TIP3   OH246362   6.671   0.937  13.370  0.9649  0.6555  0.4502
 8316TIP3    H146363   6.628   1.009  13.416  0.8579  0.9447 -0.0934
 8316TIP3    H246364   6.728   0.980  13.307 -0.5323  0.3022 -1.2400
 8317TIP3   OH246365   4.745   3.755  14.080  0.0489 -0.1762  0.1277
 8317TIP3    H146366   4.713   3.745  13.991 -1.1527  0.9494  0.4075
 8317TIP3    H246367   4.760   3.849  14.090  1.1478 -0.3973  0.8041
 8318TIP3   OH246368   1.340   3.282   5.173 -0.3956 -0.8753  0.3304
 8318TIP3    H146369   1.270   3.280   5.239 -1.1958  0.1699 -0.4448
 8318TIP3    H246370   1.325   3.205   5.119 -0.3704 -1.1635  0.7301
 8319TIP3   OH246371   6.531   2.674  14.338  0.0009 -0.3447  0.1967
 8319TIP3    H146372   6.502   2.594  14.295 -3.0246  0.2895  0.7509
 8319TIP3    H246373   6.545   2.737  14.267 -4.1443  0.4583 -0.1657
 8320TIP3   OH246374   6.637   4.572   2.140  0.2649  0.3017 -0.6338
 8320TIP3    H146375   6.603   4.507   2.078  0.6929 -0.4244 -0.1183
 8320TIP3    H246376   6.699   4.524   2.194 -2.0646  0.2467  2.2015
 8321TIP3   OH246377   6.340   4.217   2.001  0.7687  0.3272 -0.1667
 8321TIP3    H146378   6.325   4.201   1.908 -1.1007  0.1824  0.1210
 8321TIP3    H246379   6.298   4.300   2.019  1.5685  0.6130  0.4672
 8322TIP3   OH246380   0.712   3.975  13.373 -0.2719  0.3980 -0.1615
 8322TIP3    H146381   0.627   3.939  13.396  0.1645 -0.1288  0.6816
 8322TIP3    H246382   0.775   3.918  13.417  0.4406  2.6755  2.0139
 8323TIP3   OH246383   5.788   2.345   0.467 -0.5087 -0.3170 -0.8213
 8323TIP3    H146384   5.697   2.316   0.477 -1.2915  2.0264 -0.5068
 8323TIP3    H246385   5.783   2.418   0.406  0.5411  2.2809  1.9248
 8324TIP3   OH246386   2.808   6.525   9.977  0.4932  0.3025 -0.5072
 8324TIP3    H146387   2.731   6.469   9.989 -0.4560  1.5735 -0.4698
 8324TIP3    H246388   2.833   6.511   9.885  0.1898 -0.0922 -0.5324
 8325TIP3   OH246389   2.666   0.313  14.016  0.3124 -0.2497 -0.2786
 8325TIP3    H146390   2.725   0.355  13.954 -1.6747  1.7052 -0.9818
 8325TIP3    H246391   2.723   0.279  14.085  2.2696  0.8995 -1.2528
 8326TIP3   OH246392   0.132   3.180   2.185 -0.4207 -0.0454  0.0768
 8326TIP3    H146393   0.073   3.197   2.259 -1.3456 -3.5156  0.3322
 8326TIP3    H246394   0.217   3.164   2.226 -0.3302  0.5436  0.1277
 8327TIP3   OH246395   0.447   0.126  15.509 -0.2044 -0.3001  0.1565
 8327TIP3    H146396   0.450   0.172  15.425 -0.3020 -1.4940 -0.5241
 8327TIP3    H246397   0.491   0.185  15.570  0.5324  0.2685 -0.8837
 8328TIP3   OH246398   5.696   5.962   4.659  0.2386 -0.1183  0.1572
 8328TIP3    H146399   5.701   5.969   4.564 -0.5485 -0.1772  0.1080
 8328TIP3    H246400   5.682   6.052   4.689  1.9012  0.1167  0.3298
 8329TIP3   OH246401   6.124   4.341  12.742 -0.5431  0.1276  0.1426
 8329TIP3    H146402   6.175   4.280  12.795 -0.9336  0.1020  0.4922
 8329TIP3    H246403   6.033   4.326  12.769 -0.5994  1.2208  0.6090
 8330TIP3   OH246404   2.262   6.896  14.604  0.0101 -0.4822  0.0461
 8330TIP3    H146405   2.258   6.957  14.530  0.0446 -0.1285  0.3364
 8330TIP3    H246406   2.231   6.813  14.567  0.3498 -0.3916 -0.4526
 8331TIP3   OH246407   4.824   6.651   4.362  0.1231 -0.1543 -0.3002
 8331TIP3    H146408   4.750   6.605   4.323  1.3325  0.3224 -3.5139
 8331TIP3    H246409   4.796   6.742   4.367  0.5684  0.0951 -1.8956
 8332TIP3   OH246410   6.884   0.578  10.750  0.2692  0.2569  0.0045
 8332TIP3    H146411   6.902   0.484  10.749 -0.3317  0.1251  0.7222
 8332TIP3    H246412   6.970   0.619  10.759  0.9761 -0.0426 -3.8978
 8333TIP3   OH246413   1.209   4.945   2.326  0.2805  0.0229  0.4391
 8333TIP3    H146414   1.142   5.012   2.316  1.6363  1.9487  3.1776
 8333TIP3    H246415   1.266   4.957   2.250 -1.9830 -1.2655 -1.6101
 8334TIP3   OH246416   2.057   2.917   1.878  0.0807 -0.8815 -0.2758
 8334TIP3    H146417   2.070   2.921   1.973  1.0065 -0.5485 -0.4043
 8334TIP3    H246418   2.141   2.944   1.841 -1.0289  1.7349 -1.1849
 8335TIP3   OH246419   6.361   2.537  10.346 -0.4594 -0.2489  1.2084
 8335TIP3    H146420   6.317   2.620  10.364 -1.1985  0.0375 -1.5659
 8335TIP3    H246421   6.290   2.474  10.338 -0.2542 -0.2433 -1.0171
 8336TIP3   OH246422   3.777   3.785  10.200 -0.4497 -0.2555  0.0054
 8336TIP3    H146423   3.735   3.719  10.255 -0.3689 -0.7243 -0.4860
 8336TIP3    H246424   3.710   3.853  10.190 -0.3450  0.0017  0.9564
 8337TIP3   OH246425   4.652   0.408  10.333  0.1694  0.1661 -0.3891
 8337TIP3    H146426   4.720   0.387  10.396 -0.9322 -0.6809  0.5591
 8337TIP3    H246427   4.618   0.493  10.361  0.5367  0.3933 -0.6184
 8338TIP3   OH246428   3.991   0.748   1.664  0.1518 -0.0830 -0.2880
 8338TIP3    H146429   3.943   0.679   1.710 -0.4752 -2.5053 -4.1623
 8338TIP3    H246430   4.079   0.744   1.700 -0.4021 -1.4950  1.0264
 8339TIP3   OH246431   5.766   1.167   3.775  0.1229  0.2311  0.0213
 8339TIP3    H146432   5.771   1.087   3.723 -0.8319 -1.0312  1.7551
 8339TIP3    H246433   5.847   1.167   3.826  0.2842  0.5800 -0.2263
 8340TIP3   OH246434   4.141   6.397   1.708  0.1642  0.2433 -0.5893
 8340TIP3    H146435   4.126   6.457   1.781  3.2645  0.7356 -0.2268
 8340TIP3    H246436   4.161   6.313   1.749  1.6562  0.4590 -0.7959
 8341TIP3   OH246437   6.362   4.361  13.719 -0.1502 -0.0890  0.3793
 8341TIP3    H146438   6.345   4.455  13.720 -0.1764 -0.0389 -1.7173
 8341TIP3    H246439   6.275   4.321  13.716 -0.1955 -0.0136 -2.6610
 8342TIP3   OH246440   5.081   2.113  13.110 -0.3258  0.0978  0.1109
 8342TIP3    H146441   5.035   2.060  13.175  0.7320 -0.7617  0.1818
 8342TIP3    H246442   5.139   2.051  13.066 -0.4830  0.8181 -1.1480
 8343TIP3   OH246443   5.476   0.574  14.025  0.0741 -0.3137  0.6058
 8343TIP3    H146444   5.399   0.608  14.071 -0.6117  0.7960 -1.2419
 8343TIP3    H246445   5.550   0.610  14.074 -0.6117  0.2003  1.2987
 8344TIP3   OH246446   0.468   6.928  10.169  0.1634 -0.4718  0.0521
 8344TIP3    H146447   0.441   6.847  10.213 -0.4464 -1.3100 -1.7916
 8344TIP3    H246448   0.401   6.943  10.103  0.8780  0.9403 -0.3921
 8345TIP3   OH246449   3.698   4.666  13.401  0.1228  0.0065 -0.7726
 8345TIP3    H146450   3.780   4.634  13.364  0.8174 -0.5783  1.1338
 8345TIP3    H246451   3.720   4.750  13.440  0.1889 -0.7617  0.9264
 8346TIP3   OH246452   4.002   4.790  12.166  0.2535  0.0283  0.6498
 8346TIP3    H146453   3.998   4.701  12.201  1.9075  0.2792  1.5916
 8346TIP3    H246454   4.095   4.803  12.145  0.1103  1.6724  0.9198
 8347TIP3   OH246455   5.840   2.279  10.265 -0.6030 -0.1420  0.0828
 8347TIP3    H146456   5.788   2.289  10.184  0.3526  0.9469 -0.4098
 8347TIP3    H246457   5.893   2.201  10.249 -1.5490 -0.8547  0.3108
 8348TIP3   OH246458   0.040   5.574  12.160  0.7547 -0.2141 -0.0333
 8348TIP3    H146459   0.057   5.547  12.251 -0.1769 -0.7356 -0.0029
 8348TIP3    H246460   0.107   5.530  12.109  0.9875 -0.3076  0.3463
 8349TIP3   OH246461   0.624   0.609   1.653  0.2361  0.7274 -0.0043
 8349TIP3    H146462   0.541   0.646   1.622 -0.5248 -0.4017  0.5993
 8349TIP3    H246463   0.599   0.528   1.697  1.7814 -0.2945 -0.9005
 8350TIP3   OH246464   0.232   3.021  13.643 -0.0541  0.3632 -0.6816
 8350TIP3    H146465   0.179   3.100  13.652 -2.5044 -0.8753 -3.0515
 8350TIP3    H246466   0.308   3.049  13.591 -0.3095  1.3691 -0.5321
 8351TIP3   OH246467   3.684   6.093  15.567 -0.1954 -0.6760 -0.5871
 8351TIP3    H146468   3.709   6.074  15.657 -1.5029 -1.1638 -0.2940
 8351TIP3    H246469   3.620   6.025  15.545  0.2099 -0.6519 -1.9378
 8352TIP3   OH246470   3.499   5.083   2.026 -0.0008 -0.2110  0.3525
 8352TIP3    H146471   3.453   4.999   2.026 -4.5599  2.0103  0.1870
 8352TIP3    H246472   3.511   5.103   1.934 -0.0997 -0.0995  0.3641
 8353TIP3   OH246473   5.528   6.205  10.070  0.0165  0.2193 -0.0479
 8353TIP3    H146474   5.571   6.213  10.155 -0.9033 -0.7027  0.5267
 8353TIP3    H246475   5.575   6.266  10.014  0.6235  0.8706  1.1253
 8354TIP3   OH246476   3.487   1.269  11.832 -0.5287  0.5607  0.4284
 8354TIP3    H146477   3.571   1.225  11.847 -0.4747  0.4284 -0.2286
 8354TIP3    H246478   3.442   1.214  11.768 -0.3145  1.6171 -0.6772
 8355TIP3   OH246479   0.015   4.534  10.936 -0.0180  0.5807  0.3537
 8355TIP3    H146480   0.034   4.442  10.954 -0.3452  0.3995 -0.2102
 8355TIP3    H246481   0.047   4.548  10.847  0.9705  1.2900  0.7931
 8356TIP3   OH246482   3.406   0.787   1.188 -0.5255 -0.5353  0.1751
 8356TIP3    H146483   3.348   0.863   1.195  0.4099  0.1536  0.7733
 8356TIP3    H246484   3.351   0.713   1.213 -1.5117 -0.0920 -0.6100
 8357TIP3   OH246485   0.299   2.721   9.996  0.1952  0.0836  0.1881
 8357TIP3    H146486   0.302   2.734   9.901  1.2271  1.3809  0.3711
 8357TIP3    H246487   0.354   2.645  10.011  0.7671  0.4164 -0.1804
 8358TIP3   OH246488   4.718   0.143   4.831 -0.1511 -0.6239  0.0720
 8358TIP3    H146489   4.799   0.192   4.816 -0.9520  1.0090  0.8424
 8358TIP3    H246490   4.741   0.077   4.896  0.3176  0.5766  1.1585
 8359TIP3   OH246491   4.838   6.818   2.468  0.7716  0.2506  0.1977
 8359TIP3    H146492   4.858   6.774   2.385 -1.1189 -0.4825  0.0823
 8359TIP3    H246493   4.828   6.910   2.445 -1.2270 -0.1397 -0.7257
 8360TIP3   OH246494   3.395   6.439   5.379 -0.3919  0.3907 -0.1621
 8360TIP3    H146495   3.319   6.495   5.393 -0.9536 -0.4749  0.3288
 8360TIP3    H246496   3.449   6.452   5.458  0.5753  1.8964 -1.0233
 8361TIP3   OH246497   5.143   6.893  12.806 -0.0860  0.4150  0.4995
 8361TIP3    H146498   5.135   6.988  12.798  0.1990  0.3449 -1.0545
 8361TIP3    H246499   5.218   6.871  12.751 -0.5443 -0.7715  0.3166
 8362TIP3   OH246500   0.456   1.480   2.921 -0.9154  0.2646  1.3543
 8362TIP3    H146501   0.460   1.559   2.867  0.5732  0.5033  1.7523
 8362TIP3    H246502   0.529   1.490   2.982 -0.8108 -1.3560  1.5235
 8363TIP3   OH246503   0.782   6.218   4.214 -0.3340  0.0211 -0.0520
 8363TIP3    H146504   0.791   6.275   4.137  0.5708 -2.1260 -1.6585
 8363TIP3    H246505   0.831   6.139   4.190 -2.5021 -1.9208  1.5235
 8364TIP3   OH246506   0.911   1.169   3.330 -0.1552 -0.4243 -0.4733
 8364TIP3    H146507   0.861   1.243   3.364 -1.2810 -0.3851 -2.0692
 8364TIP3    H246508   0.844   1.112   3.291  0.7996 -1.7567 -0.2156
 8365TIP3   OH246509   2.918   1.672   0.731 -0.2667 -0.7469 -0.9361
 8365TIP3    H146510   2.871   1.687   0.649 -0.8143  0.5005 -0.4276
 8365TIP3    H246511   2.899   1.750   0.783  0.9479 -1.0374 -0.0322
 8366TIP3   OH246512   3.924   2.990  12.166 -0.5109  0.1645  0.3073
 8366TIP3    H146513   3.848   2.950  12.209  0.0260  0.5435  1.6659
 8366TIP3    H246514   3.928   3.078  12.203  1.6344 -0.4234  1.6417
 8367TIP3   OH246515   1.726   4.587   0.480  0.5832 -0.1306 -0.3533
 8367TIP3    H146516   1.669   4.645   0.530  0.8807 -0.3409  0.2344
 8367TIP3    H246517   1.678   4.570   0.399  0.4705  0.8836 -0.5091
 8368TIP3   OH246518   2.499   0.902  10.662  0.2653  0.3700  0.3042
 8368TIP3    H146519   2.547   0.908  10.744 -0.0994 -0.8104  0.6182
 8368TIP3    H246520   2.411   0.934  10.684  0.7468  2.1679 -0.1811
 8369TIP3   OH246521   1.323   4.941   0.965  0.0424 -0.1445 -0.1298
 8369TIP3    H146522   1.229   4.932   0.983  0.3326 -0.8209  1.1265
 8369TIP3    H246523   1.351   4.854   0.937  0.6399 -0.4152  1.2534
 8370TIP3   OH246524   1.119   5.025  11.460 -0.4274 -0.0495  0.3315
 8370TIP3    H146525   1.187   5.082  11.498  0.3308 -0.8508  0.2172
 8370TIP3    H246526   1.068   5.083  11.404  0.6070  0.4382 -0.1330
 8371TIP3   OH246527   4.039   0.082  14.948  0.1452  0.0028  0.2544
 8371TIP3    H146528   4.016   0.032  14.870  0.5475  0.4666 -0.1742
 8371TIP3    H246529   4.033   0.174  14.920  0.7072  0.1658  0.6389
 8372TIP3   OH246530   6.031   4.869  13.884  0.0065 -0.3719 -0.2536
 8372TIP3    H146531   6.001   4.805  13.819  0.8523 -0.8001 -0.2459
 8372TIP3    H246532   5.959   4.930  13.894 -1.1038 -1.7125  0.2398
 8373TIP3   OH246533   1.176   3.569  14.595 -0.0751  0.3212 -0.4477
 8373TIP3    H146534   1.129   3.648  14.568  2.9038  1.5730 -2.5992
 8373TIP3    H246535   1.156   3.504  14.527 -0.8798 -0.1060  0.1855
 8374TIP3   OH246536   6.807   5.464  11.404 -0.0057  0.3674 -0.1409
 8374TIP3    H146537   6.886   5.420  11.435 -0.5112 -0.4320  0.0479
 8374TIP3    H246538   6.755   5.478  11.482 -0.9714 -1.0195 -0.4958
 8375TIP3   OH246539   4.043   2.378   3.858 -0.6152  0.4635  0.0257
 8375TIP3    H146540   4.008   2.450   3.910  2.5044  1.5929  0.7926
 8375TIP3    H246541   4.056   2.308   3.921  0.8834  0.9818  0.3274
 8376TIP3   OH246542   3.302   3.199  11.796  0.1558 -0.6210 -0.1196
 8376TIP3    H146543   3.246   3.269  11.828 -0.2509 -0.4375 -1.1993
 8376TIP3    H246544   3.389   3.221  11.829  0.2631  1.0454 -1.4055
 8377TIP3   OH246545   6.475   4.726  11.544 -0.1946  0.4284  0.7269
 8377TIP3    H146546   6.380   4.726  11.553 -0.2244 -2.1047  0.9261
 8377TIP3    H246547   6.490   4.708  11.451 -0.0108 -3.4053  1.3679
 8378TIP3   OH246548   3.821   1.009   1.387 -0.3187  0.0054  0.1906
 8378TIP3    H146549   3.754   1.061   1.342 -1.7442  0.5089  2.6649
 8378TIP3    H246550   3.901   1.062   1.380 -1.1041  1.2624  0.3421
 8379TIP3   OH246551   2.228   2.235   1.103 -0.4904  0.2773  0.3630
 8379TIP3    H146552   2.280   2.204   1.028  0.7578  1.0607  0.8601
 8379TIP3    H246553   2.241   2.168   1.170 -0.0517  0.4946  0.5028
 8380TIP3   OH246554   2.792   5.311   0.135 -0.4245 -0.0488  0.0328
 8380TIP3    H146555   2.844   5.371   0.082 -2.7805  0.3981 -1.9698
 8380TIP3    H246556   2.856   5.261   0.186  1.7637  1.9900 -0.5558
 8381TIP3   OH246557   5.365   2.507   2.510  0.7110  0.3910 -0.0745
 8381TIP3    H146558   5.439   2.508   2.570  0.1327  3.4128  0.7581
 8381TIP3    H246559   5.295   2.465   2.559  1.0057  0.3580  0.3225
 8382TIP3   OH246560   4.492   6.575  12.637  0.1938 -0.1235  0.2793
 8382TIP3    H146561   4.399   6.591  12.655 -0.0871 -1.0064 -0.3621
 8382TIP3    H246562   4.503   6.594  12.544  0.7871  0.5217  0.4691
 8383TIP3   OH246563   5.516   6.198   2.118  0.8272 -0.3249 -0.0404
 8383TIP3    H146564   5.501   6.105   2.136 -1.5729  0.0281  0.1074
 8383TIP3    H246565   5.528   6.237   2.205 -0.3412 -0.2095  0.0926
 8384TIP3   OH246566   1.748   0.618  12.323 -0.3000 -0.0701  0.1240
 8384TIP3    H146567   1.810   0.592  12.392 -1.5832  1.1371  1.8119
 8384TIP3    H246568   1.680   0.550  12.324 -1.2539  0.8676  1.3394
 8385TIP3   OH246569   2.819   3.753  11.434  0.3186 -0.3123  1.0702
 8385TIP3    H146570   2.730   3.724  11.415  0.2953  1.0912 -1.5142
 8385TIP3    H246571   2.870   3.672  11.438 -0.2281 -1.0594 -2.8901
 8386TIP3   OH246572   4.168   5.368  14.818  0.1136 -0.5357  0.1083
 8386TIP3    H146573   4.237   5.347  14.755  0.4387 -2.5865  1.0492
 8386TIP3    H246574   4.087   5.341  14.775 -0.0829  1.3213 -0.7619
 8387TIP3   OH246575   5.501   3.982  14.018  0.2519  0.1396  0.1050
 8387TIP3    H146576   5.434   3.939  13.965  0.0146 -2.8880  2.5713
 8387TIP3    H246577   5.458   4.059  14.054 -0.6618  0.2952 -1.2551
 8388TIP3   OH246578   0.974   5.077   1.470  0.3755 -0.2700 -0.0322
 8388TIP3    H146579   0.881   5.081   1.492  0.8487 -0.7581  2.4096
 8388TIP3    H246580   1.009   5.161   1.499  0.8879 -0.5580  0.1962
 8389TIP3   OH246581   0.315   2.995   2.354  0.2643  0.1315 -0.0226
 8389TIP3    H146582   0.251   3.010   2.424 -0.7762 -1.2942 -0.6092
 8389TIP3    H246583   0.385   2.945   2.396  0.2999  0.4552  0.3041
 8390TIP3   OH246584   5.287   0.505  14.806  0.4640  0.1936 -0.2057
 8390TIP3    H146585   5.349   0.574  14.783  1.1550 -0.4268 -0.2515
 8390TIP3    H246586   5.219   0.550  14.855  0.3210  1.0893 -1.1952
 8391TIP3   OH246587   2.381   3.780  11.834  0.6905  0.0575 -0.5483
 8391TIP3    H146588   2.445   3.842  11.798  0.3533  0.3815 -0.6021
 8391TIP3    H246589   2.303   3.833  11.849  1.3159  0.3727  2.3055
 8392TIP3   OH246590   2.020   6.977   1.358  0.8742 -0.1474 -0.2476
 8392TIP3    H146591   2.111   7.002   1.345 -0.0220  2.4686 -2.4479
 8392TIP3    H246592   1.989   7.033   1.430  0.8209 -0.5404  0.0387
 8393TIP3   OH246593   5.460   5.709  13.464 -0.0070  0.3080  0.4543
 8393TIP3    H146594   5.391   5.771  13.439 -1.2532 -1.3438 -0.3378
 8393TIP3    H246595   5.421   5.656  13.533  0.8138 -0.0542  0.6543
 8394TIP3   OH246596   6.515   5.012  11.206  0.1693 -0.0843 -0.0648
 8394TIP3    H146597   6.535   4.959  11.284  0.8636 -0.3022 -0.3861
 8394TIP3    H246598   6.462   5.084  11.240  0.7106 -0.0159  0.6653
 8395TIP3   OH246599   3.728   2.521  15.322  0.4966  0.1578 -0.1507
 8395TIP3    H146600   3.820   2.498  15.330  0.2546 -1.0364 -0.5884
 8395TIP3    H246601   3.682   2.449  15.366 -0.1823  1.4779  1.4119
 8396TIP3   OH246602   1.067   2.271  12.510  0.1677 -0.4117  0.4045
 8396TIP3    H146603   1.096   2.266  12.419  1.2592 -1.8713  0.7940
 8396TIP3    H246604   1.040   2.363  12.522  0.1097 -0.1722 -1.3342
 8397TIP3   OH246605   1.503   1.457   3.934 -0.6497  0.5388  0.7429
 8397TIP3    H146606   1.572   1.479   3.872 -0.2545  0.2319  1.0681
 8397TIP3    H246607   1.422   1.466   3.884 -0.4632  2.0225  0.6681
 8398TIP3   OH246608   4.850   1.002  15.306 -0.1332  0.0218  0.9168
 8398TIP3    H146609   4.834   1.096  15.298 -1.1009 -0.1158  1.0895
 8398TIP3    H246610   4.905   0.994  15.384 -1.9532  0.2872  2.2906
 8399TIP3   OH246611   5.065   2.030  12.553 -0.3214  0.1437 -0.0963
 8399TIP3    H146612   5.044   2.049  12.462  2.4066 -4.0880 -1.9575
 8399TIP3    H246613   5.002   1.963  12.579  1.8587 -2.3958 -0.8688
 8400TIP3   OH246614   1.084   4.797   4.109  0.8441 -0.1384 -0.0048
 8400TIP3    H146615   0.998   4.792   4.067  0.8737 -0.8683  0.0003
 8400TIP3    H246616   1.124   4.875   4.072  0.8530 -0.7294 -1.3169
 8401TIP3   OH246617   5.247   1.921   1.834 -0.0104 -0.0554  0.7565
 8401TIP3    H146618   5.155   1.945   1.818 -0.1369 -0.5288  0.7468
 8401TIP3    H246619   5.246   1.879   1.920  0.5492  1.8254  1.7323
 8402TIP3   OH246620   7.118   1.146   1.355 -0.0081 -0.3104 -0.5581
 8402TIP3    H146621   7.156   1.058   1.352 -1.9733 -1.3633  1.9068
 8402TIP3    H246622   7.173   1.193   1.418 -0.0816 -0.3594 -0.4583
 8403TIP3   OH246623   2.176   6.434  11.799 -0.1258 -0.1941  0.7464
 8403TIP3    H146624   2.219   6.371  11.740 -1.7032  1.5686 -2.5626
 8403TIP3    H246625   2.235   6.509  11.801 -1.6563  1.2465 -1.8416
 8404TIP3   OH246626   3.679   2.002  11.291 -0.1407  0.3863 -0.2489
 8404TIP3    H146627   3.666   1.964  11.204  0.0476  0.4664 -0.3126
 8404TIP3    H246628   3.707   2.092  11.275  1.7836 -0.1411 -0.1721
 8405TIP3   OH246629   3.368   2.983   1.940 -0.1711  0.5064  0.1497
 8405TIP3    H146630   3.313   2.981   2.018  0.0718 -0.3187  0.3134
 8405TIP3    H246631   3.336   2.911   1.886 -0.0019  0.7484 -0.2809
 8406TIP3   OH246632   3.219   1.416  11.457  0.4922  0.0850  0.0197
 8406TIP3    H146633   3.234   1.333  11.414 -2.4979 -0.3307 -0.4589
 8406TIP3    H246634   3.306   1.449  11.479  1.8507 -2.0429 -1.8421
 8407TIP3   OH246635   6.612   5.987   2.594  0.3369 -0.3341  0.2625
 8407TIP3    H146636   6.563   5.914   2.556  0.3347 -0.0652 -0.2572
 8407TIP3    H246637   6.632   5.958   2.684  1.2808 -1.4232 -0.2726
 8408TIP3   OH246638   5.149   6.715   0.489 -1.2489 -0.8898  0.3377
 8408TIP3    H146639   5.071   6.711   0.433 -1.7339 -1.1109  1.0100
 8408TIP3    H246640   5.222   6.691   0.431 -1.6114 -0.2156 -0.4169
 8409TIP3   OH246641   4.309   6.018  15.439 -0.0843 -0.5052 -0.4926
 8409TIP3    H146642   4.243   5.975  15.494  0.6616  0.7634  1.5011
 8409TIP3    H246643   4.278   6.108  15.432  0.2768 -0.4505 -1.4997
 8410TIP3   OH246644   3.949   4.587  10.919  0.4987  0.5757 -0.0893
 8410TIP3    H146645   3.863   4.579  10.959  0.0206  2.1368 -0.7146
 8410TIP3    H246646   4.010   4.590  10.993  0.1760 -1.6120  0.3340
 8411TIP3   OH246647   2.757   2.662  10.904 -0.1292  0.7692 -0.2300
 8411TIP3    H146648   2.784   2.570  10.898  0.7360  1.0657 -1.1229
 8411TIP3    H246649   2.837   2.710  10.923 -0.7857  1.2315  1.5348
 8412TIP3   OH246650   3.009   2.021   1.058  0.2491 -0.4432 -0.1846
 8412TIP3    H146651   3.105   2.031   1.061  0.0495  1.6506  0.3930
 8412TIP3    H246652   2.992   1.946   1.116  1.4060  0.4071  1.3300
 8413TIP3   OH246653   3.585   2.707  10.432  0.5353 -0.3302  0.0568
 8413TIP3    H146654   3.543   2.659  10.360 -0.0231 -1.1745  0.9213
 8413TIP3    H246655   3.677   2.681  10.426  0.5384 -0.2198 -0.4827
 8414TIP3   OH246656   2.718   4.817   1.330 -0.5901 -0.3770  0.1117
 8414TIP3    H146657   2.760   4.763   1.397 -1.4694 -0.4324  0.6413
 8414TIP3    H246658   2.788   4.840   1.269 -0.0776 -1.5772  0.2321
 8415TIP3   OH246659   4.525   5.800   2.294  0.0069 -0.1532 -0.1620
 8415TIP3    H146660   4.554   5.891   2.299 -1.3593  0.3138 -0.2868
 8415TIP3    H246661   4.492   5.779   2.381  2.4325 -1.3218  0.5516
 8416TIP3   OH246662   1.868   1.801  14.390 -0.2889  0.1195 -0.2204
 8416TIP3    H146663   1.846   1.709  14.374  0.7425  0.0396 -1.3142
 8416TIP3    H246664   1.866   1.841  14.303  1.8416  0.5453 -0.1268
 8417TIP3   OH246665   5.377   5.861  11.870  0.2771 -0.1695 -0.2054
 8417TIP3    H146666   5.326   5.824  11.942 -0.3567  3.6653  1.5569
 8417TIP3    H246667   5.463   5.880  11.907  0.3372  0.7859 -0.7937
 8418TIP3   OH246668   4.895   6.388  14.799 -0.4569 -0.1393  0.3096
 8418TIP3    H146669   4.828   6.345  14.852  0.4824 -2.1231 -0.0395
 8418TIP3    H246670   4.963   6.321  14.787 -0.5902  0.2177 -3.3359
 8419TIP3   OH246671   6.798   2.924   4.653 -0.1144  0.0506  0.2638
 8419TIP3    H146672   6.746   2.910   4.574 -1.0989  1.5371  0.6104
 8419TIP3    H246673   6.791   2.841   4.701 -0.2310 -0.5651 -0.7853
 8420TIP3   OH246674   2.583   3.363  13.914 -0.1243  0.7281  0.3515
 8420TIP3    H146675   2.656   3.387  13.858  0.5481 -0.6073  0.6283
 8420TIP3    H246676   2.510   3.416  13.882 -0.4673 -1.7234 -3.5201
 8421TIP3   OH246677   2.660   1.000  14.601  0.1057 -0.0317  0.1818
 8421TIP3    H146678   2.653   0.905  14.616 -0.7219 -0.6658 -3.4094
 8421TIP3    H246679   2.600   1.038  14.665 -0.5061 -2.0166  0.8865
 8422TIP3   OH246680   6.133   1.005   0.733  0.8615  0.2655  0.2247
 8422TIP3    H146681   6.176   0.999   0.819 -0.0178 -0.8658  0.6208
 8422TIP3    H246682   6.045   1.036   0.753 -0.0078 -1.8604  0.0189
 8423TIP3   OH246683   5.922   1.055   3.093 -1.3357 -0.3284  0.0211
 8423TIP3    H146684   5.924   0.963   3.122 -0.4927 -0.5075 -0.5568
 8423TIP3    H246685   5.908   1.049   2.998 -0.6594  0.1131 -0.1091
 8424TIP3   OH246686   2.498   2.202  10.350  0.3410  0.8282 -0.4050
 8424TIP3    H146687   2.478   2.292  10.325  0.8554  0.6995 -1.3280
 8424TIP3    H246688   2.497   2.203  10.446 -0.6478  1.5783 -0.4133
 8425TIP3   OH246689   3.450   6.852   4.860 -0.0449 -0.3302 -0.7154
 8425TIP3    H146690   3.496   6.915   4.805  3.5798 -0.1308  2.1469
 8425TIP3    H246691   3.440   6.896   4.944  1.4746 -2.9309  1.0002
 8426TIP3   OH246692   1.747   0.222  11.208 -0.5255  0.5992 -0.2411
 8426TIP3    H146693   1.828   0.271  11.196 -0.8818  1.2460 -0.0249
 8426TIP3    H246694   1.747   0.158  11.137  0.1113  0.6810 -0.3180
 8427TIP3   OH246695   6.098   3.729  13.086 -0.0255  0.1720  0.0513
 8427TIP3    H146696   6.172   3.788  13.069 -0.5352  0.0574 -3.3074
 8427TIP3    H246697   6.135   3.660  13.142  2.1172  0.7131 -0.5908
 8428TIP3   OH246698   5.970   4.740   3.363  1.1266 -0.2081 -0.8459
 8428TIP3    H146699   5.968   4.777   3.275 -1.6708  2.2207  0.0859
 8428TIP3    H246700   5.879   4.718   3.382  1.3764  0.8583  2.0033
 8429TIP3   OH246701   3.958   5.650   9.767  0.4172 -0.2772  0.2354
 8429TIP3    H146702   3.925   5.566   9.734  2.9086 -0.2559 -2.7773
 8429TIP3    H246703   4.032   5.626   9.823  0.5987 -0.1614  0.0506
 8430TIP3   OH246704   1.003   2.531   9.963 -0.2287 -0.8171  0.1366
 8430TIP3    H146705   0.920   2.520   9.918 -0.9936 -2.3415  1.8065
 8430TIP3    H246706   1.063   2.564   9.896 -2.0218 -0.1923 -1.2206
 8431TIP3   OH246707   5.456   1.332  14.170  0.2158 -0.4191 -0.2980
 8431TIP3    H146708   5.370   1.352  14.205 -0.1240 -3.5691  1.0102
 8431TIP3    H246709   5.513   1.325  14.247  1.2218 -0.2091 -0.9961
 8432TIP3   OH246710   6.410   3.374  10.605  0.2346  0.4915 -0.1302
 8432TIP3    H146711   6.405   3.316  10.529  0.5056 -1.3706  1.2091
 8432TIP3    H246712   6.337   3.348  10.660 -0.1269  2.0070  0.1586
 8433TIP3   OH246713   6.147   3.026  14.365 -0.5086 -0.4175  0.2924
 8433TIP3    H146714   6.187   3.111  14.377 -0.0950 -0.9042  2.8513
 8433TIP3    H246715   6.134   3.019  14.270  2.0468  1.2723 -0.2845
 8434TIP3   OH246716   5.011   6.626   9.992 -0.1804  0.0656 -0.0512
 8434TIP3    H146717   4.968   6.582  10.065 -2.8577 -0.5290 -1.8351
 8434TIP3    H246718   5.057   6.556   9.946 -1.9333 -0.4035 -1.1838
 8435TIP3   OH246719   4.283   6.922  10.948  0.3661  0.1992  0.4305
 8435TIP3    H146720   4.279   6.932  10.853  1.4071 -0.9508  0.2430
 8435TIP3    H246721   4.261   6.829  10.963 -1.4207  0.7269  1.4622
 8436TIP3   OH246722   2.655   7.084  11.038  0.4437  0.0653 -0.0330
 8436TIP3    H146723   2.684   7.167  11.075  1.7427 -0.4648  0.1850
 8436TIP3    H246724   2.732   7.048  10.995 -0.7000  0.0953 -2.2615
 8437TIP3   OH246725   0.086   6.862  13.118  0.0099 -0.3549 -0.0623
 8437TIP3    H146726   0.108   6.955  13.109  0.1247 -0.4477 -0.7684
 8437TIP3    H246727   0.030   6.843  13.044 -2.4221 -0.1662  1.6130
 8438TIP3   OH246728   3.923   0.459  15.301  0.0549 -0.9150  0.1304
 8438TIP3    H146729   3.933   0.476  15.208  2.4369 -1.6587  0.1706
 8438TIP3    H246730   3.857   0.390  15.306 -1.5443  0.4857 -0.8109
 8439TIP3   OH246731   6.945   2.107  12.597 -0.3855  0.4638  0.3203
 8439TIP3    H146732   6.857   2.110  12.558 -0.2177  0.7057 -0.0400
 8439TIP3    H246733   6.968   2.014  12.594  1.0133  0.7580 -3.3349
 8440TIP3   OH246734   3.167   0.525  12.661 -0.4160 -0.0464  0.4870
 8440TIP3    H146735   3.124   0.457  12.713 -0.1441  0.0229  0.8074
 8440TIP3    H246736   3.130   0.607  12.693 -0.6089 -0.0323  0.2282
 8441TIP3   OH246737   2.398   1.946  13.397  0.2217  0.1162 -0.0640
 8441TIP3    H146738   2.372   1.972  13.485  1.1077 -1.8315  0.8462
 8441TIP3    H246739   2.325   1.891  13.366  0.1324  0.3942 -0.3501
 8442TIP3   OH246740   0.044   5.473   1.135  0.0027  0.0976  0.6635
 8442TIP3    H146741   0.067   5.388   1.096  0.1895  1.0065 -1.3362
 8442TIP3    H246742  -0.047   5.464   1.162 -0.0104 -0.6947  0.3699
 8443TIP3   OH246743   4.164   6.659   4.615 -0.1471 -0.1547 -0.0265
 8443TIP3    H146744   4.135   6.595   4.680  0.2836  0.1338  0.4538
 8443TIP3    H246745   4.259   6.649   4.611 -0.3021 -1.3778 -1.8925
 8444TIP3   OH246746   6.062   3.795   0.344 -0.1043  0.0461 -0.0927
 8444TIP3    H146747   6.123   3.769   0.274 -0.4656  0.2851 -0.5041
 8444TIP3    H246748   6.117   3.842   0.407  0.6477 -2.0766  0.9144
 8445TIP3   OH246749   0.185   6.163   4.720 -0.1227 -0.1023  0.0381
 8445TIP3    H146750   0.144   6.229   4.664  1.5588  0.2832 -0.7910
 8445TIP3    H246751   0.277   6.188   4.724  0.0862 -0.9878  1.7651
 8446TIP3   OH246752   5.085   5.597   1.196  0.2891  0.7439  0.0377
 8446TIP3    H146753   5.073   5.579   1.289 -0.0503  1.2218  0.0864
 8446TIP3    H246754   5.167   5.554   1.174 -0.1847 -0.3418  0.2984
 8447TIP3   OH246755   3.112   0.392   2.698  0.2329  0.2794 -0.2956
 8447TIP3    H146756   3.132   0.391   2.604 -1.2006  0.8437 -0.6403
 8447TIP3    H246757   3.065   0.474   2.711  1.3444  0.7205  1.1524
 8448TIP3   OH246758   5.335   4.719  10.064  0.3146  0.1998 -0.1861
 8448TIP3    H146759   5.346   4.664  10.141 -0.7639  2.2144  1.5229
 8448TIP3    H246760   5.415   4.706  10.013  1.0678 -1.1950  1.2666
 8449TIP3   OH246761   6.185   4.995  14.354 -0.8662 -0.5561  0.1812
 8449TIP3    H146762   6.279   4.983  14.338 -0.4652  1.9158  0.1725
 8449TIP3    H246763   6.181   5.047  14.435 -2.0627  1.2522 -0.9560
 8450TIP3   OH246764   6.688   0.473  13.325 -0.8223 -0.1544  0.3713
 8450TIP3    H146765   6.652   0.387  13.303  1.9810 -1.3011 -0.1863
 8450TIP3    H246766   6.665   0.529  13.251 -0.3195 -1.2024 -0.6091
 8451TIP3   OH246767   0.630   1.328   0.016  0.6865  0.0846 -0.0801
 8451TIP3    H146768   0.718   1.328  -0.021  0.5329 -0.7624 -0.4552
 8451TIP3    H246769   0.585   1.256  -0.027 -0.9304  1.8696 -1.5876
 8452TIP3   OH246770   6.989   2.932  13.174  0.0222  0.7977 -0.2331
 8452TIP3    H146771   7.036   2.856  13.141 -0.2374  0.8870 -0.8109
 8452TIP3    H246772   6.987   2.919  13.269 -0.5082 -0.2044 -0.3651
 8453TIP3   OH246773   1.137   0.458   1.414 -0.3611 -0.6643  0.0355
 8453TIP3    H146774   1.065   0.395   1.422 -0.3999 -0.8474 -1.5329
 8453TIP3    H246775   1.094   0.540   1.389 -0.0187 -0.7984 -0.9992
 8454TIP3   OH246776   4.262   1.417   1.196 -0.6552 -0.0303 -0.3876
 8454TIP3    H146777   4.271   1.389   1.104  0.7786  0.2588 -0.3512
 8454TIP3    H246778   4.350   1.410   1.232 -1.3454 -0.9509  1.2356
 8455TIP3   OH246779   0.478   0.132   0.208  0.3734  0.3005  0.4662
 8455TIP3    H146780   0.400   0.187   0.200 -0.6970 -1.2534 -0.2826
 8455TIP3    H246781   0.444   0.044   0.222  2.0197 -0.3677  0.5185
 8456TIP3   OH246782   0.152   4.557  14.410 -0.6243  0.4293  0.1270
 8456TIP3    H146783   0.153   4.557  14.506  2.4259 -2.7189  0.3262
 8456TIP3    H246784   0.177   4.646  14.386  1.7531  0.5553  2.4878
 8457TIP3   OH246785   4.171   2.248  14.825 -0.3299 -0.0179  0.2849
 8457TIP3    H146786   4.077   2.237  14.820 -0.3728  0.8127 -2.2946
 8457TIP3    H246787   4.189   2.327  14.774  1.8071 -0.5015  0.1646
 8458TIP3   OH246788   6.328   4.990  14.853 -0.2544  0.6337 -0.1450
 8458TIP3    H146789   6.351   5.007  14.762  1.2373  2.0011  0.4480
 8458TIP3    H246790   6.411   4.988  14.900 -1.0247  0.4942  1.2959
 8459TIP3   OH246791   0.273   0.209  11.525 -0.1149  0.1516 -0.8182
 8459TIP3    H146792   0.256   0.294  11.567  0.7172 -0.1250  0.1119
 8459TIP3    H246793   0.186   0.174  11.508 -0.4902  0.4074  0.4383
 8460TIP3   OH246794   3.723   1.644  11.942  0.3097  0.0047 -0.4167
 8460TIP3    H146795   3.742   1.636  12.035 -0.8989  2.2663  0.0965
 8460TIP3    H246796   3.647   1.702  11.938  0.0992 -0.3415 -2.8044
 8461TIP3   OH246797   1.075   4.563   4.227  0.1100  0.0041  0.1174
 8461TIP3    H146798   1.070   4.645   4.178 -3.5604 -1.2941 -2.1341
 8461TIP3    H246799   1.153   4.519   4.192 -0.9801  0.2354 -2.8810
 8462TIP3   OH246800   6.289   6.067   0.262 -0.1014  0.7268  0.0837
 8462TIP3    H146801   6.198   6.071   0.232 -0.6720  0.6801  1.7205
 8462TIP3    H246802   6.341   6.091   0.185 -1.5634  2.2903 -0.4630
 8463TIP3   OH246803   5.809   4.469  15.598  0.3890 -0.3463  0.4382
 8463TIP3    H146804   5.779   4.559  15.583 -1.9500 -0.6897  2.4083
 8463TIP3    H246805   5.878   4.478  15.664  2.1524  0.1518 -1.3800
 8464TIP3   OH246806   4.194   0.731  12.634 -0.6108 -0.8686  0.0686
 8464TIP3    H146807   4.157   0.794  12.572 -1.2724 -1.6811 -0.3989
 8464TIP3    H246808   4.288   0.735  12.619 -0.7234 -0.6835 -0.6430
 8465TIP3   OH246809   2.175   3.138   6.086 -0.2163  0.7108  0.3242
 8465TIP3    H146810   2.258   3.100   6.117 -0.3529 -0.1455 -0.3440
 8465TIP3    H246811   2.184   3.232   6.105  0.4906  0.4833  1.1793
 8466TIP3   OH246812   5.563   6.113  12.691 -0.0464 -0.4406 -0.2886
 8466TIP3    H146813   5.619   6.044  12.656 -1.1839 -2.3056  1.3803
 8466TIP3    H246814   5.504   6.135  12.619  0.5572 -0.9367 -0.9469
 8467TIP3   OH246815   6.763   2.447  13.435 -0.2604 -0.0692 -0.3154
 8467TIP3    H146816   6.765   2.401  13.519 -3.0475 -0.5653 -0.4215
 8467TIP3    H246817   6.827   2.518  13.445  0.9878 -1.3539  1.4222
 8468TIP3   OH246818   6.079   0.542   3.134 -0.2846 -0.2575 -0.1770
 8468TIP3    H146819   6.166   0.535   3.095 -0.0245  0.4070  0.2665
 8468TIP3    H246820   6.095   0.569   3.224 -1.0420  4.3569 -1.2021
 8469TIP3   OH246821   1.711   3.961  14.423 -0.2837  0.4505  0.0238
 8469TIP3    H146822   1.734   3.975  14.515  0.5442 -0.2375 -0.0642
 8469TIP3    H246823   1.619   3.986  14.417 -0.3707  0.4068  1.0619
 8470TIP3   OH246824   1.748   6.259  11.435  0.5977 -0.1411 -0.4839
 8470TIP3    H146825   1.843   6.270  11.433  0.7418 -0.9430  0.5674
 8470TIP3    H246826   1.713   6.348  11.441  1.4763  0.1056  3.0029
 8471TIP3   OH246827   6.831   5.144   4.912 -0.4567 -0.1211 -0.0145
 8471TIP3    H146828   6.746   5.102   4.925  0.1002 -0.9038  1.2535
 8471TIP3    H246829   6.846   5.194   4.993  0.9569 -1.2095  0.4342
 8472TIP3   OH246830   0.884   0.974  15.099  0.3759 -0.0199  0.0714
 8472TIP3    H146831   0.882   0.974  15.195 -0.0310 -0.4015  0.0720
 8472TIP3    H246832   0.819   1.040  15.074 -0.0409 -0.4230  0.0654
 8473TIP3   OH246833   6.833   0.263  14.758  0.5787 -0.1731 -0.0701
 8473TIP3    H146834   6.904   0.206  14.790  0.1365 -0.5851  0.1882
 8473TIP3    H246835   6.864   0.294  14.673  0.5370 -1.3695 -0.5461
 8474TIP3   OH246836   5.401   0.297  12.935  0.0779  0.1158  0.0306
 8474TIP3    H146837   5.471   0.363  12.929 -0.5403  0.7000 -1.4153
 8474TIP3    H246838   5.427   0.229  12.872 -0.0822 -0.2288  0.3355
 8475TIP3   OH246839   2.580   3.090  13.946  0.3536  0.0283  0.5269
 8475TIP3    H146840   2.595   3.101  13.852  0.0799 -0.8242  0.3818
 8475TIP3    H246841   2.563   3.179  13.978  2.1398  0.5787  0.0869
 8476TIP3   OH246842   5.649   3.278   0.219 -0.5314  0.2529 -0.1265
 8476TIP3    H146843   5.576   3.239   0.172 -0.0086 -0.2613 -0.5320
 8476TIP3    H246844   5.703   3.318   0.152  1.8641 -3.1497 -0.4664
 8477TIP3   OH246845   5.141   5.518  15.520 -0.4821 -0.4057 -0.2875
 8477TIP3    H146846   5.131   5.612  15.540  5.4202  0.5127  0.1768
 8477TIP3    H246847   5.175   5.516  15.431  1.0108 -1.8932  0.2637
 8478TIP3   OH246848   4.116   2.178  12.299  0.7703  0.0058 -0.1789
 8478TIP3    H146849   4.137   2.109  12.236 -0.6815 -1.3147  0.7037
 8478TIP3    H246850   4.078   2.132  12.373  0.5516  1.7017  0.8177
 8479TIP3   OH246851   5.586   0.611   2.678  0.5523  0.2360  0.8178
 8479TIP3    H146852   5.667   0.566   2.652 -0.2480 -1.2875  0.8181
 8479TIP3    H246853   5.529   0.603   2.602 -0.3360 -0.6009  1.5442
 8480TIP3   OH246854   2.889   6.885  12.739  0.1185 -0.1446 -0.0084
 8480TIP3    H146855   2.803   6.911  12.706 -0.3548 -0.6860  0.7549
 8480TIP3    H246856   2.879   6.887  12.834  0.5243 -1.5362  0.0873
 8481TIP3   OH246857   0.170   2.582  10.465  0.2851  0.7445 -0.0683
 8481TIP3    H146858   0.098   2.519  10.469 -0.0093  1.1564  1.3990
 8481TIP3    H246859   0.157   2.627  10.381  0.5056 -1.0997 -1.1626
 8482TIP3   OH246860   1.289   5.900  13.138  0.0036  0.1624  0.6257
 8482TIP3    H146861   1.240   5.953  13.200 -0.9896 -0.3608  0.3100
 8482TIP3    H246862   1.232   5.894  13.061  0.1741 -1.1737  0.5706
 8483TIP3   OH246863   1.372   7.123  14.807 -0.0156 -0.1735  0.8546
 8483TIP3    H146864   1.352   7.066  14.732  0.2334 -0.0910  0.7234
 8483TIP3    H246865   1.310   7.195  14.799  0.1441 -0.0608  0.6090
 8484TIP3   OH246866   2.361   1.264   3.534 -0.0266 -0.0090 -0.7068
 8484TIP3    H146867   2.361   1.357   3.514  0.5425 -0.0062 -0.6974
 8484TIP3    H246868   2.444   1.249   3.579 -1.3300  0.0701  1.9832
 8485TIP3   OH246869   4.982   2.886  13.416 -0.5429  0.3749 -0.2878
 8485TIP3    H146870   4.997   2.845  13.501 -0.5233 -0.8928 -0.8830
 8485TIP3    H246871   5.058   2.860  13.363 -1.1440  0.1404 -1.0508
 8486TIP3   OH246872   2.243   6.531   5.109  0.4509  0.4621  0.3401
 8486TIP3    H146873   2.302   6.514   5.035 -0.3036  0.5519 -0.2909
 8486TIP3    H246874   2.222   6.444   5.143 -2.2213  0.0957 -1.9580
 8487TIP3   OH246875   2.291   6.269  12.304  0.1177  0.3357 -0.2083
 8487TIP3    H146876   2.257   6.273  12.393  1.8583  1.4180  0.4658
 8487TIP3    H246877   2.346   6.190  12.303  3.0403  2.1800  0.9091
 8488TIP3   OH246878   1.105   5.528  14.988 -0.1530  0.3798  0.3490
 8488TIP3    H146879   1.181   5.587  14.997 -0.1973  0.4054  0.5584
 8488TIP3    H246880   1.057   5.563  14.914 -0.3232  0.7734  0.6382
 8489TIP3   OH246881   3.970   2.087  15.083  0.0577  0.2988  0.4715
 8489TIP3    H146882   3.997   2.177  15.068  1.1143 -0.0808  0.0423
 8489TIP3    H246883   4.012   2.037  15.013 -0.1447 -0.5914  0.9739
 8490TIP3   OH246884   6.569   5.148   3.407  0.0825 -0.5271 -0.3051
 8490TIP3    H146885   6.524   5.219   3.362  0.9786 -0.0610 -0.4970
 8490TIP3    H246886   6.559   5.168   3.500  0.7234  0.1231 -0.3645
 8491TIP3   OH246887   5.581   4.470  10.264  0.2630 -0.1447 -0.7301
 8491TIP3    H146888   5.560   4.411  10.192  1.6879 -1.4622 -0.1324
 8491TIP3    H246889   5.647   4.530  10.228  1.5312 -1.2707 -0.3851
 8492TIP3   OH246890   6.911   4.747   2.268 -0.8239 -0.4871  0.2370
 8492TIP3    H146891   6.963   4.712   2.340  0.3531 -1.0189 -0.8348
 8492TIP3    H246892   6.944   4.701   2.190 -1.3312  0.8316 -0.7908
 8493TIP3   OH246893   1.558   3.100  14.995 -0.1105  0.1249 -0.8016
 8493TIP3    H146894   1.490   3.048  14.953 -1.0478  0.2998  0.4507
 8493TIP3    H246895   1.573   3.057  15.079  1.7297 -0.2213 -1.2621
 8494TIP3   OH246896   6.497   1.421  11.304 -0.0264  0.3340 -0.2281
 8494TIP3    H146897   6.527   1.425  11.213  0.2392 -0.9778 -0.2109
 8494TIP3    H246898   6.542   1.494  11.347  0.2328  0.6571 -1.0313
 8495TIP3   OH246899   1.906   4.772   2.197 -0.1618 -0.0793 -0.1002
 8495TIP3    H146900   1.992   4.740   2.224 -0.9459 -1.2900  1.1041
 8495TIP3    H246901   1.920   4.808   2.109  1.7496  0.6582  0.4751
 8496TIP3   OH246902   5.370   5.019  15.120  0.4227 -0.1077  0.7716
 8496TIP3    H146903   5.464   5.039  15.120  0.5238 -0.5503  0.5784
 8496TIP3    H246904   5.343   5.032  15.211  0.5125  0.7181  0.6841
 8497TIP3   OH246905   2.859   4.414  14.734  0.2183  0.3852 -0.0686
 8497TIP3    H146906   2.787   4.441  14.676  1.2355  1.6417 -0.7914
 8497TIP3    H246907   2.834   4.449  14.820 -0.6929 -0.4161  0.0198
 8498TIP3   OH246908   2.146   2.532   0.334 -0.5710  0.1536 -0.9660
 8498TIP3    H146909   2.185   2.526   0.421 -0.1117  2.0477 -0.9992
 8498TIP3    H246910   2.062   2.576   0.349 -0.6385  0.1856 -1.4416
 8499TIP3   OH246911   1.765   2.964  14.588 -0.0005 -0.3763  0.5063
 8499TIP3    H146912   1.776   3.039  14.647 -0.8827  0.1671 -0.0114
 8499TIP3    H246913   1.842   2.966  14.532 -0.1713  0.3398  0.2883
 8500TIP3   OH246914   3.955   1.879  11.996 -0.2090 -0.5380 -0.5109
 8500TIP3    H146915   3.899   1.954  12.014 -0.9920 -0.7065 -2.0847
 8500TIP3    H246916   3.938   1.857  11.904  1.5919 -1.3136 -0.7126
 8501TIP3   OH246917   3.097   2.266   0.556 -0.1461  0.6633 -0.1049
 8501TIP3    H146918   3.040   2.200   0.596  2.0447 -1.7614 -0.6998
 8501TIP3    H246919   3.180   2.257   0.602  0.5143  2.3479 -0.8917
 8502TIP3   OH246920   3.161   0.400  12.400 -0.5748  0.1914  0.0317
 8502TIP3    H146921   3.239   0.352  12.429 -1.7737 -1.8557  0.1026
 8502TIP3    H246922   3.125   0.438  12.480 -0.1179  0.4098  0.1352
 8503TIP3   OH246923   3.422   2.999   1.528 -0.3553 -0.2722  0.0058
 8503TIP3    H146924   3.504   3.021   1.483 -1.0777  0.6860 -0.8716
 8503TIP3    H246925   3.413   3.067   1.595  0.4997 -1.4511  1.3959
 8504TIP3   OH246926   1.847   3.132  12.353 -0.1911  0.2325 -0.5020
 8504TIP3    H146927   1.798   3.163  12.276 -0.9614 -1.2934 -0.6558
 8504TIP3    H246928   1.821   3.041  12.363  1.5908 -0.2368  0.2623
 8505TIP3   OH246929   2.475   3.388   0.790 -0.1556  0.0491  0.1054
 8505TIP3    H146930   2.563   3.366   0.761 -0.8617  1.6458 -3.8659
 8505TIP3    H246931   2.429   3.304   0.788  0.8097 -0.5021  0.3218
 8506TIP3   OH246932   3.401   4.623  15.547 -0.8614  0.1074 -0.1065
 8506TIP3    H146933   3.457   4.551  15.578 -0.7156  0.3635  0.2304
 8506TIP3    H246934   3.334   4.632  15.614  0.3065  1.6461  0.9218
 8507TIP3   OH246935   3.894   3.616   0.061  0.3858 -0.3311  0.2894
 8507TIP3    H146936   3.873   3.526   0.036  2.4175 -0.4713 -1.2153
 8507TIP3    H246937   3.931   3.654  -0.019 -0.0634  1.7340  1.0180
 8508TIP3   OH246938   5.874   1.837   4.003 -0.3471  0.1654 -0.3824
 8508TIP3    H146939   5.880   1.857   4.096 -1.8830  2.0132 -0.6130
 8508TIP3    H246940   5.951   1.877   3.964 -1.3154  2.2696 -0.2737
 8509TIP3   OH246941   5.544   2.219  13.450  0.3448 -0.0832 -0.5624
 8509TIP3    H146942   5.453   2.245  13.436  0.6152  0.3533 -1.6140
 8509TIP3    H246943   5.585   2.228  13.364  1.5494  0.3865  0.0412
 8510TIP3   OH246944   6.057   2.055  10.994  0.6870  0.1561  0.4771
 8510TIP3    H146945   5.998   2.057  11.069  1.3723  1.1534  1.0097
 8510TIP3    H246946   6.143   2.040  11.032  0.9189 -0.2818 -0.2083
 8511TIP3   OH246947   6.239   2.520  14.247  0.2495 -0.2548 -0.1054
 8511TIP3    H146948   6.235   2.591  14.310 -0.3184 -0.5236  0.1669
 8511TIP3    H246949   6.155   2.475  14.255  1.0180 -1.6660  0.5648
 8512TIP3   OH246950   5.947   1.572   4.025  0.5715 -0.1719 -0.2961
 8512TIP3    H146951   5.895   1.653   4.027 -0.5330 -0.8473 -0.8637
 8512TIP3    H246952   5.892   1.509   3.979  0.7644 -1.7096  1.4481
 8513TIP3   OH246953   7.063   0.635   2.714 -0.3533 -0.2700  0.2530
 8513TIP3    H146954   7.071   0.604   2.804 -1.3546  0.0092  0.4533
 8513TIP3    H246955   7.153   0.648   2.685 -0.0279  1.1030  1.7263
 8514TIP3   OH246956   0.115   4.908  11.865  0.1046 -0.2591  0.3408
 8514TIP3    H146957   0.197   4.906  11.913 -0.2354 -1.6223  0.9064
 8514TIP3    H246958   0.130   4.971  11.794  1.3904  0.0216  0.8331
 8515TIP3   OH246959   1.951   0.540  10.443  0.0385  0.1427  0.4523
 8515TIP3    H146960   1.961   0.487  10.364  0.4548  0.7222  0.1088
 8515TIP3    H246961   1.857   0.538  10.462 -0.1471  0.4543 -0.3854
 8516TIP3   OH246962   3.446   3.792  11.119  0.1274  0.4444  0.0395
 8516TIP3    H146963   3.511   3.795  11.050  1.2798  0.2145  1.0874
 8516TIP3    H246964   3.405   3.705  11.111 -1.0702  1.1119 -1.4957
 8517TIP3   OH246965   0.686   3.122  11.784 -0.2328  0.0930 -0.0020
 8517TIP3    H146966   0.719   3.059  11.847  1.8067 -0.2812 -1.3485
 8517TIP3    H246967   0.663   3.199  11.836 -0.7852 -0.9848  1.4162
 8518TIP3   OH246968   3.534   0.353  12.688  0.2810 -0.6129 -0.2846
 8518TIP3    H146969   3.621   0.361  12.650 -0.0664 -0.4161 -1.0774
 8518TIP3    H246970   3.480   0.414  12.637 -0.2395 -0.4498  0.4409
 8519TIP3   OH246971   0.861   4.141   2.464  0.2056 -0.1215 -0.5698
 8519TIP3    H146972   0.837   4.190   2.386  1.4310  0.0945 -0.8202
 8519TIP3    H246973   0.941   4.182   2.496 -1.1548  0.9084  1.7982
 8520TIP3   OH246974   2.837   1.821  15.070  0.1098  0.3822 -0.3697
 8520TIP3    H146975   2.919   1.798  15.114 -0.3395  0.1939  0.3720
 8520TIP3    H246976   2.789   1.874  15.133 -0.1521  0.8804 -0.9730
 8521TIP3   OH246977   0.256   5.523  14.823  0.4227  0.6221  0.4339
 8521TIP3    H146978   0.283   5.543  14.734 -0.2621  0.1486  0.1080
 8521TIP3    H246979   0.335   5.491  14.866  1.5156  3.6950  0.9154
 8522TIP3   OH246980   6.660   6.834  13.969  0.4937  0.6405  0.3456
 8522TIP3    H146981   6.569   6.842  13.938  0.5656  1.7918  0.3719
 8522TIP3    H246982   6.693   6.756  13.926 -0.6676 -0.0921  0.7279
 8523TIP3   OH246983   2.947   6.954   4.405  0.4285  0.7437  0.4483
 8523TIP3    H146984   2.887   7.028   4.415 -0.1928  0.0372  2.4784
 8523TIP3    H246985   3.034   6.992   4.415  0.1722  1.3642  0.3328
 8524TIP3   OH246986   1.021   0.053  11.232 -0.5730  0.1900 -0.0719
 8524TIP3    H146987   1.105   0.064  11.187 -0.4777  1.9772  0.4815
 8524TIP3    H246988   0.956   0.085  11.170 -0.5225  1.8384  0.6863
 8525TIP3   OH246989   4.643   3.912   2.405  0.6182 -1.2797  0.1844
 8525TIP3    H146990   4.675   3.849   2.470  3.3804 -0.0379  0.1636
 8525TIP3    H246991   4.672   3.875   2.321  1.0111 -0.6992  0.0605
 8526TIP3   OH246992   4.228   5.288   2.730  0.2898 -0.0280  0.7622
 8526TIP3    H146993   4.143   5.305   2.690 -0.2352 -0.1502  1.7888
 8526TIP3    H246994   4.214   5.306   2.823  1.9538  2.0684  0.6816
 8527TIP3   OH246995   5.036   3.993  10.500  0.3814 -0.2145  0.2066
 8527TIP3    H146996   4.993   3.973  10.416  0.7519  1.6345 -0.4727
 8527TIP3    H246997   5.126   3.963  10.488  0.8164  1.3097 -0.6333
 8528TIP3   OH246998   1.243   4.224   5.768  0.1443 -0.2400  0.2129
 8528TIP3    H146999   1.182   4.169   5.818  0.2631 -0.5208  0.0493
 8528TIP3    H247000   1.252   4.303   5.821 -0.9640  0.1433 -0.1313
 8529TIP3   OH247001   5.740   2.664  11.474 -0.3003  0.4030 -0.4783
 8529TIP3    H147002   5.674   2.731  11.456 -0.6770 -0.7724 -4.1966
 8529TIP3    H247003   5.690   2.584  11.490  0.1994  0.3610  0.9815
 8530TIP3   OH247004   6.488   0.059  11.972 -0.6738 -0.1868  0.3737
 8530TIP3    H147005   6.537   0.140  11.984 -1.1725  0.7192 -2.6681
 8530TIP3    H247006   6.476   0.052  11.877 -2.2204 -2.9072  0.6450
 8531TIP3   OH247007   2.284   7.105   2.699 -0.0653 -0.1490 -0.4768
 8531TIP3    H147008   2.199   7.147   2.704  0.2032  0.2052  2.4072
 8531TIP3    H247009   2.265   7.012   2.686 -0.8445  0.0263 -0.6014
 8532TIP3   OH247010   5.549   6.067   1.572  0.5318 -0.6273 -0.5528
 8532TIP3    H147011   5.619   6.104   1.625 -0.4382 -1.1869  1.1783
 8532TIP3    H247012   5.594   6.014   1.506  1.7406 -1.4509  0.8946
 8533TIP3   OH247013   4.274   0.123  12.028  0.4952  0.6867  0.3361
 8533TIP3    H147014   4.356   0.078  12.049  1.9627  3.1532  0.4180
 8533TIP3    H247015   4.270   0.124  11.933  0.3617  0.2369  0.3366
 8534TIP3   OH247016   5.549   1.145  13.081 -0.4582  0.2032  0.0623
 8534TIP3    H147017   5.554   1.177  12.991  0.7218  3.4269  1.1481
 8534TIP3    H247018   5.469   1.185  13.117 -0.8457 -0.9329  0.5288
 8535TIP3   OH247019   1.076   2.285  11.613  0.8030  0.6148 -0.1577
 8535TIP3    H147020   1.041   2.345  11.679  0.0087  0.4142 -0.3878
 8535TIP3    H247021   1.079   2.337  11.533  1.1562  0.6646 -0.1152
 8536TIP3   OH247022   1.432   3.161   4.450 -0.0546 -0.6786 -0.1024
 8536TIP3    H147023   1.438   3.240   4.504  2.2201 -2.4827  2.5588
 8536TIP3    H247024   1.341   3.131   4.461  0.4276 -1.2562  3.4024
 8537TIP3   OH247025   3.174   3.435   0.659 -0.3059  0.0611  0.3660
 8537TIP3    H147026   3.084   3.401   0.653 -0.0615 -0.6793  0.8054
 8537TIP3    H247027   3.193   3.465   0.570 -1.5805  1.8194  0.6228
 8538TIP3   OH247028   3.862   5.179   4.846  0.3119  0.2059  0.3128
 8538TIP3    H147029   3.926   5.245   4.872  0.2610  0.8744 -1.1616
 8538TIP3    H247030   3.901   5.096   4.874  1.0596  0.7312  0.8794
 8539TIP3   OH247031   5.789   2.513  15.354  0.0235  0.0173 -0.3987
 8539TIP3    H147032   5.878   2.509  15.319  0.0943  0.0327 -0.2252
 8539TIP3    H247033   5.760   2.603  15.337 -0.2555 -0.2142 -1.1632
 8540TIP3   OH247034   0.647   5.758  11.736 -0.3036  0.4700 -0.2962
 8540TIP3    H147035   0.648   5.852  11.749  2.7880  0.5010  0.0274
 8540TIP3    H247036   0.730   5.727  11.773 -1.1353 -2.3698 -0.5116
 8541TIP3   OH247037   1.435   1.060  10.517  0.2433  0.5754 -0.1256
 8541TIP3    H147038   1.482   1.101  10.589 -1.0359  2.4156 -0.2943
 8541TIP3    H247039   1.343   1.064  10.541 -0.1544  0.5874 -1.5354
 8542TIP3   OH247040   3.108   0.460  13.279  0.5415  0.0355 -0.2732
 8542TIP3    H147041   3.040   0.440  13.214  1.6155 -0.5971 -1.2436
 8542TIP3    H247042   3.113   0.555  13.280 -1.5463  0.1826  1.0952
 8543TIP3   OH247043   2.732   2.569  13.082  0.1428 -0.1319 -0.1693
 8543TIP3    H147044   2.640   2.578  13.058  0.0493  0.2376  0.3044
 8543TIP3    H247045   2.775   2.537  13.003  0.0197  1.9637 -1.1526
 8544TIP3   OH247046   0.354   1.457   9.370 -0.0706 -0.0621 -0.5020
 8544TIP3    H147047   0.422   1.427   9.309  0.5595  1.3388 -0.5165
 8544TIP3    H247048   0.385   1.427   9.456 -0.7150 -1.6092 -0.7819
 8545TIP3   OH247049   2.624   2.592  11.793  0.7064  0.5487  0.2092
 8545TIP3    H147050   2.688   2.522  11.784  1.3268  1.3101 -2.2697
 8545TIP3    H247051   2.565   2.580  11.718 -0.1708  1.6971  0.6813
 8546TIP3   OH247052   1.386   2.069  14.500  0.3094  0.1475  0.0385
 8546TIP3    H147053   1.467   2.119  14.488 -0.5500  1.2662 -1.5016
 8546TIP3    H247054   1.413   1.978  14.493  1.4009  0.5119 -0.9544
 8547TIP3   OH247055   1.056   5.827  15.651  0.3485 -0.2647  0.3322
 8547TIP3    H147056   1.047   5.757  15.587 -0.7162  1.9738 -2.1164
 8547TIP3    H247057   1.123   5.885  15.615  0.7818  0.3309  1.9856
 8548TIP3   OH247058   6.399   2.925   3.468  0.0860  0.0420 -0.9877
 8548TIP3    H147059   6.336   2.918   3.540  1.1647 -0.5107 -0.0556
 8548TIP3    H247060   6.362   2.991   3.410 -1.1145  0.0728 -0.2275
 8549TIP3   OH247061   0.096   4.295  11.001 -0.6443  0.1987 -0.3396
 8549TIP3    H147062   0.149   4.266  11.074  1.4206  1.8240 -1.0840
 8549TIP3    H247063   0.112   4.231  10.932  0.7935  0.9471 -0.7208
 8550TIP3   OH247064   0.894   2.981  11.938 -0.0203  0.2223 -0.8915
 8550TIP3    H147065   0.856   2.934  12.012  0.8764 -1.6381 -1.5464
 8550TIP3    H247066   0.943   3.053  11.978 -1.1429  0.4299  0.1744
 8551TIP3   OH247067   4.758   3.259  11.022  0.5389 -0.3576 -0.6792
 8551TIP3    H147068   4.698   3.259  10.948  0.7359 -0.0594 -0.8419
 8551TIP3    H247069   4.720   3.197  11.084 -0.9728  1.1866  0.0338
 8552TIP3   OH247070   5.620   0.000  14.049  0.3753  0.3998 -0.6318
 8552TIP3    H147071   5.671   0.073  14.084 -0.0564  0.6821 -0.5850
 8552TIP3    H247072   5.598  -0.053  14.126 -0.6181  1.0488 -0.4443
 8553TIP3   OH247073   4.373   1.308  14.508 -0.0556 -0.4862 -0.2464
 8553TIP3    H147074   4.431   1.376  14.541 -1.0337 -0.1688  0.8674
 8553TIP3    H247075   4.362   1.247  14.581 -0.2006 -1.1683 -0.8217
 8554TIP3   OH247076   5.443   3.512  11.087  0.3961  0.1571  0.1687
 8554TIP3    H147077   5.532   3.511  11.051  0.2042 -1.5667 -0.3154
 8554TIP3    H247078   5.445   3.447  11.157 -0.2134  0.8854  0.8779
 8555TIP3   OH247079   4.323   2.768  12.587 -0.0958  0.0804  0.5976
 8555TIP3    H147080   4.258   2.700  12.567  0.3375  0.1311 -1.1087
 8555TIP3    H247081   4.390   2.723  12.638  1.0424 -1.2669 -1.9256
 8556TIP3   OH247082   3.092   1.495   0.850  0.0616 -0.1091 -0.1902
 8556TIP3    H147083   3.038   1.557   0.801  0.7951  2.4805  1.9777
 8556TIP3    H247084   3.182   1.519   0.826  0.4352  1.1243  2.0828
 8557TIP3   OH247085   4.544   2.889  13.283  0.2900  0.7787  0.3495
 8557TIP3    H147086   4.513   2.975  13.310  0.6721  0.6509  1.2098
 8557TIP3    H247087   4.479   2.828  13.317 -0.1020  0.7314 -0.4563
 8558TIP3   OH247088   0.113   2.536   0.920  0.6432 -0.1934 -0.0369
 8558TIP3    H147089   0.114   2.460   0.862  0.6439  0.4132 -0.8503
 8558TIP3    H247090   0.025   2.572   0.911  0.3952 -0.5329  0.9383
 8559TIP3   OH247091   4.399   6.436  14.917 -0.7115 -0.1878  0.1465
 8559TIP3    H147092   4.359   6.486  14.988 -0.7522 -0.0854  0.0530
 8559TIP3    H247093   4.331   6.431  14.850 -0.8127 -0.6424  0.2838
 8560TIP3   OH247094   0.672   1.513   3.076 -0.3353 -0.1681 -0.4101
 8560TIP3    H147095   0.694   1.569   3.151  0.6169  1.3240 -1.7511
 8560TIP3    H247096   0.741   1.447   3.075 -0.9039 -0.8154  0.5790
 8561TIP3   OH247097   5.793   6.191   1.260 -0.0156  0.2309  0.6878
 8561TIP3    H147098   5.863   6.230   1.311  0.7370  0.6362 -0.6023
 8561TIP3    H247099   5.763   6.262   1.203 -0.1471 -0.4597 -0.1252
 8562TIP3   OH247100   3.417   1.568   0.573 -0.3867  0.3881  0.1897
 8562TIP3    H147101   3.329   1.604   0.564 -0.5752  0.3971  1.7068
 8562TIP3    H247102   3.415   1.522   0.657  1.1141  0.6167  0.3773
 8563TIP3   OH247103   3.512   6.166  14.913  0.5316  0.0476  0.1652
 8563TIP3    H147104   3.434   6.212  14.944  0.7351  0.8909 -0.5216
 8563TIP3    H247105   3.479   6.083  14.879 -0.0208  0.2523  0.1962
 8564TIP3   OH247106   5.227   4.750  12.322  0.1999  0.2892 -0.4601
 8564TIP3    H147107   5.149   4.751  12.267  0.6723  1.1844 -1.1320
 8564TIP3    H247108   5.300   4.765  12.262  0.7256  1.2669  0.3925
 8565TIP3   OH247109   2.912   5.739   4.626 -0.0487  0.6025  0.4370
 8565TIP3    H147110   2.971   5.797   4.579  1.3160 -1.1730 -0.1510
 8565TIP3    H247111   2.951   5.652   4.617 -3.0335 -0.7940 -0.4577
 8566TIP3   OH247112   3.542   7.028   5.334  0.0454 -0.7226 -0.2006
 8566TIP3    H147113   3.572   7.017   5.425 -0.4999 -4.8263 -0.3402
 8566TIP3    H247114   3.532   7.123   5.324  0.9414 -0.0199  3.7303
 8567TIP3   OH247115   0.049   2.836  14.867 -0.7219  0.7496 -0.0494
 8567TIP3    H147116  -0.032   2.878  14.897 -1.2709 -0.2872 -0.0157
 8567TIP3    H247117   0.116   2.868  14.927 -1.2582  1.0000  0.4336
 8568TIP3   OH247118   4.221   1.981  13.265 -0.5337  0.1652 -0.1832
 8568TIP3    H147119   4.135   1.938  13.267 -0.0623 -0.8514 -1.0908
 8568TIP3    H247120   4.205   2.068  13.302 -2.1564  0.3540 -1.2398
 8569TIP3   OH247121   0.693   6.277   4.472  0.4568 -0.1535 -1.0034
 8569TIP3    H147122   0.709   6.270   4.378  1.8477  1.3467 -0.9380
 8569TIP3    H247123   0.775   6.248   4.513 -0.4876 -1.7906 -0.1863
 8570TIP3   OH247124   7.122   1.468  10.188 -0.9405  0.3661 -0.0644
 8570TIP3    H147125   7.143   1.419  10.108 -0.5059  0.9138 -0.2909
 8570TIP3    H247126   7.207   1.487  10.228 -1.1187  0.7338  0.1437
 8571TIP3   OH247127   2.254   3.276  11.412 -0.0245  0.1008 -0.1012
 8571TIP3    H147128   2.188   3.259  11.345  1.4404 -0.8279 -1.3892
 8571TIP3    H247129   2.266   3.191  11.455  0.0421  0.3534  0.3792
 8572TIP3   OH247130   3.276   1.997   5.458  0.6258  0.1064 -1.2180
 8572TIP3    H147131   3.196   1.977   5.506  2.0974  0.1884  1.4456
 8572TIP3    H247132   3.279   2.093   5.455  0.2165  0.0990 -2.0909
 8573TIP3   OH247133   5.617   1.388   1.938  0.1395 -0.0191 -0.4699
 8573TIP3    H147134   5.636   1.319   1.875 -0.9070  1.1637 -2.1871
 8573TIP3    H247135   5.538   1.431   1.903 -0.8094  0.3656  1.9558
 8574TIP3   OH247136   3.578   2.623   2.795  0.9102  0.1909  0.0531
 8574TIP3    H147137   3.551   2.674   2.871 -1.0157 -1.1777  0.3343
 8574TIP3    H247138   3.564   2.681   2.720 -2.4633 -0.2282  0.2352
 8575TIP3   OH247139   0.060   0.217   1.582 -0.5207  0.4704 -0.0540
 8575TIP3    H147140   0.108   0.294   1.551 -1.4061  0.9370 -0.2952
 8575TIP3    H247141   0.022   0.179   1.503  0.4479 -0.6165 -0.0300
 8576TIP3   OH247142   0.626   5.705   4.376  0.1765 -0.2706 -0.4193
 8576TIP3    H147143   0.625   5.619   4.419 -1.2039 -0.9567 -1.7308
 8576TIP3    H247144   0.566   5.758   4.429  1.7694  0.2449  0.9705
 8577TIP3   OH247145   4.292   1.669  13.844  0.0432  0.0116 -0.4506
 8577TIP3    H147146   4.338   1.708  13.918 -1.4579  3.3230 -1.0851
 8577TIP3    H247147   4.353   1.675  13.771 -0.6394  2.7793 -0.8882
 8578TIP3   OH247148   0.195   5.510  13.421  0.0482 -0.4160 -0.3748
 8578TIP3    H147149   0.128   5.442  13.429 -2.1189  1.7902  2.0896
 8578TIP3    H247150   0.241   5.508  13.504  0.4723  0.6120 -0.5737
 8579TIP3   OH247151   0.905   5.638   4.392  0.2648 -0.2661  0.1114
 8579TIP3    H147152   0.960   5.702   4.437  0.5788  0.0149 -0.6526
 8579TIP3    H247153   0.817   5.676   4.395  0.2508 -0.3369  0.6390
 8580TIP3   OH247154   1.891   0.719  15.354  0.0716  0.2641  0.3011
 8580TIP3    H147155   1.971   0.733  15.405  0.0919  1.3696 -0.0225
 8580TIP3    H247156   1.896   0.782  15.283 -1.0534  0.2874  0.2272
 8581TIP3   OH247157   1.825   1.853  15.441 -0.4911  0.0095  0.1020
 8581TIP3    H147158   1.885   1.888  15.507 -2.7505 -1.0897  2.9211
 8581TIP3    H247159   1.812   1.762  15.466 -1.9086 -0.2864 -1.5303
 8582TIP3   OH247160   2.948   3.530  11.892 -0.5103 -0.4275  0.1731
 8582TIP3    H147161   2.944   3.472  11.815  0.3172 -2.0561  1.2977
 8582TIP3    H247162   3.030   3.507  11.935 -1.1375  0.1624  1.7691
 8583TIP3   OH247163   2.563   1.578   5.233  0.0699 -0.1475 -0.2258
 8583TIP3    H147164   2.495   1.518   5.263  1.2343 -0.7113  1.4098
 8583TIP3    H247165   2.637   1.522   5.211  0.2083  0.4957 -1.5048
 8584TIP3   OH247166   5.601   1.206  12.497 -0.5656  0.5071 -0.1815
 8584TIP3    H147167   5.688   1.202  12.537 -0.0136 -2.5109 -1.4278
 8584TIP3    H247168   5.586   1.118  12.463 -3.5983  1.2780 -1.1619
 8585TIP3   OH247169   7.060   2.054  13.063 -0.3537  0.4541 -0.0349
 8585TIP3    H147170   7.120   1.990  13.025 -1.3334 -0.4034 -0.1753
 8585TIP3    H247171   7.011   2.005  13.129 -1.5397  0.8918 -0.5716
 8586TIP3   OH247172   6.325   2.460  11.900  0.7115  0.3410 -0.0464
 8586TIP3    H147173   6.270   2.522  11.851 -0.4337  0.2750  1.0940
 8586TIP3    H247174   6.291   2.374  11.876  1.4296  0.2037 -0.6055
 8587TIP3   OH247175   3.989   2.515  13.224  0.0577  0.2251  0.3482
 8587TIP3    H147176   3.990   2.610  13.213 -1.4237  0.0647 -1.9645
 8587TIP3    H247177   4.076   2.486  13.195 -0.4874  0.6974 -1.9290
 8588TIP3   OH247178   0.904   1.339  15.650  0.1870  0.3524  0.1305
 8588TIP3    H147179   0.962   1.400  15.604 -0.1364  0.1217 -0.6027
 8588TIP3    H247180   0.960   1.266  15.674  0.5742  0.9176  0.9977
 8589TIP3   OH247181   3.494   6.058  13.055 -0.2494  0.1329 -0.1311
 8589TIP3    H147182   3.547   6.000  13.110  0.6002  1.5995  0.6762
 8589TIP3    H247183   3.428   6.094  13.115 -1.6426 -1.0077 -0.9287
 8590TIP3   OH247184   0.457   1.960   5.142 -0.4136 -0.5604  0.0931
 8590TIP3    H147185   0.395   2.033   5.142  0.5824  0.4415 -2.7382
 8590TIP3    H247186   0.423   1.901   5.075  0.8452 -0.7332 -0.4157
 8591TIP3   OH247187   4.599   1.296  13.224  0.3495  0.1661  0.0639
 8591TIP3    H147188   4.506   1.313  13.239 -0.3942 -1.6672 -1.9935
 8591TIP3    H247189   4.617   1.216  13.273  0.1734 -0.8345 -1.4400
 8592TIP3   OH247190   4.759   1.626   2.572  0.3435 -0.5760  0.2418
 8592TIP3    H147191   4.686   1.626   2.634 -0.0036  0.4405 -0.1416
 8592TIP3    H247192   4.745   1.548   2.518 -1.8912  0.8696 -1.4405
 8593TIP3   OH247193   3.047   5.849   5.207 -0.3149 -0.2594 -0.4313
 8593TIP3    H147194   3.106   5.799   5.263  1.2605 -0.4227 -2.1450
 8593TIP3    H247195   3.056   5.940   5.238  0.7894 -0.2956 -0.5924
 8594TIP3   OH247196   6.041   1.505   5.570  0.0696  0.1217  0.2641
 8594TIP3    H147197   6.130   1.479   5.594 -0.4698 -0.9297  1.2102
 8594TIP3    H247198   6.029   1.590   5.613 -0.1799 -0.8158  2.1484
 8595TIP3   OH247199   2.158   6.740  12.360 -0.3806  0.7051  0.4199
 8595TIP3    H147200   2.118   6.729  12.273 -0.1826 -0.3209  0.4541
 8595TIP3    H247201   2.084   6.755  12.418 -0.4462  2.6960 -0.0937
 8596TIP3   OH247202   5.267   2.026   2.395 -0.2433 -0.0410  0.7476
 8596TIP3    H147203   5.259   1.930   2.396  0.5297 -0.1373 -0.3281
 8596TIP3    H247204   5.360   2.042   2.378 -0.5474  0.8897 -0.1555
 8597TIP3   OH247205   2.197   1.121   1.990  0.2050 -0.2733 -0.3967
 8597TIP3    H147206   2.284   1.119   2.031  0.4063 -0.4808 -0.8333
 8597TIP3    H247207   2.144   1.064   2.046  0.3715 -0.2104 -0.1731
 8598TIP3   OH247208   1.228   2.240   0.042  0.1432 -0.5325 -0.2977
 8598TIP3    H147209   1.206   2.147   0.036 -0.8161 -0.2405 -1.8006
 8598TIP3    H247210   1.324   2.241   0.047  0.1644 -1.6091 -0.1707
 8599TIP3   OH247211   1.975   3.540   3.035  0.1730 -0.0357 -0.3516
 8599TIP3    H147212   1.888   3.565   3.065  0.3216  0.1700 -0.0956
 8599TIP3    H247213   1.959   3.469   2.973 -0.1442 -0.3746  0.1121
 8600TIP3   OH247214   5.559   3.266   1.219  0.1223 -0.0185  0.3817
 8600TIP3    H147215   5.581   3.359   1.214  0.6464 -0.1962 -1.2201
 8600TIP3    H247216   5.622   3.231   1.283  2.2486  0.1523 -1.4868
 8601TIP3   OH247217   6.472   7.102  14.759 -0.2477  0.6144 -0.4838
 8601TIP3    H147218   6.408   7.034  14.740 -1.4987  1.6026  0.0643
 8601TIP3    H247219   6.544   7.055  14.801 -0.5433 -0.5286 -1.1897
 8602TIP3   OH247220   2.800   4.126  15.283 -0.1676  0.1445 -0.1668
 8602TIP3    H147221   2.841   4.157  15.202 -0.3592 -0.4445 -0.4933
 8602TIP3    H247222   2.869   4.079  15.329 -0.4398 -0.8043 -0.6932
 8603TIP3   OH247223   1.410   6.311   0.360 -0.6107  0.2078 -0.0231
 8603TIP3    H147224   1.331   6.339   0.405 -0.8248  0.9748 -0.8579
 8603TIP3    H247225   1.418   6.370   0.285  1.7184  1.3365  1.0003
 8604TIP3   OH247226   1.652   0.916  14.537 -0.3566 -0.1188 -0.0691
 8604TIP3    H147227   1.589   0.925  14.465 -0.4041  3.0469  0.2254
 8604TIP3    H247228   1.730   0.881  14.495 -1.1246 -0.5331 -1.2074
 8605TIP3   OH247229   2.304   3.714  12.689  0.5582  0.4549 -0.1268
 8605TIP3    H147230   2.292   3.759  12.605 -0.7406 -2.7461 -1.8304
 8605TIP3    H247231   2.220   3.674  12.707  0.8622  0.9287  2.7185
 8606TIP3   OH247232   3.596   7.085  10.352 -0.0479  0.3371 -0.3396
 8606TIP3    H147233   3.575   7.178  10.357  1.2046  0.6319 -0.2829
 8606TIP3    H247234   3.691   7.082  10.341 -0.1504 -0.9199 -1.0700
 8607TIP3   OH247235   2.875   4.982  10.720 -0.0700 -0.0381  0.0201
 8607TIP3    H147236   2.889   4.983  10.625  0.6169 -0.9219  0.0991
 8607TIP3    H247237   2.803   4.920  10.733 -0.2686  0.2002  0.0686
 8608TIP3   OH247238   5.472   0.050  10.119 -0.3221 -0.5186  0.6196
 8608TIP3    H147239   5.409   0.106  10.166 -0.9037 -1.4431  0.9693
 8608TIP3    H247240   5.431  -0.036  10.118 -0.3526 -0.5330 -1.6494
 8609TIP3   OH247241   1.935   0.026   3.541  0.1225  0.9883 -0.0339
 8609TIP3    H147242   1.910   0.075   3.463 -0.7891  2.2646  0.9923
 8609TIP3    H247243   1.869   0.050   3.606  0.3220 -0.7441  0.8754
 8610TIP3   OH247244   2.101   2.340   1.791 -0.7690  0.5212 -0.8529
 8610TIP3    H147245   2.107   2.429   1.758 -1.5883  1.0033  0.2078
 8610TIP3    H247246   2.110   2.284   1.714  0.7778  1.4805 -1.3945
 8611TIP3   OH247247   3.517   2.204  12.894 -0.4651 -0.2776  0.1286
 8611TIP3    H147248   3.553   2.293  12.889 -0.5688 -0.3118 -1.6530
 8611TIP3    H247249   3.426   2.218  12.920 -0.6852  0.2129 -0.8456
 8612TIP3   OH247250   4.807   4.954   1.364  0.1336  0.2379 -0.1331
 8612TIP3    H147251   4.848   4.925   1.283 -0.6542  0.4823 -0.6318
 8612TIP3    H247252   4.845   5.040   1.381 -1.5571  1.3358 -1.6490
 8613TIP3   OH247253   0.655   3.090  13.898  0.7256 -0.3255  0.3750
 8613TIP3    H147254   0.588   3.030  13.865  1.0254  0.2601 -1.4607
 8613TIP3    H247255   0.736   3.040  13.895  0.7009 -0.3756  0.5437
 8614TIP3   OH247256   4.104   1.760  10.993 -0.1540 -0.4672 -0.2624
 8614TIP3    H147257   4.026   1.781  10.942 -0.9631 -0.4337  0.9549
 8614TIP3    H247258   4.072   1.704  11.063  0.8611 -0.1863  0.4437
 8615TIP3   OH247259   5.760   2.853  14.404  0.3940  0.2785  0.3586
 8615TIP3    H147260   5.803   2.935  14.430 -0.6440  1.1102 -0.4482
 8615TIP3    H247261   5.810   2.821  14.330  0.6796  0.2939  0.5459
 8616TIP3   OH247262   2.884   4.727  14.431 -0.0685  0.0195  0.0826
 8616TIP3    H147263   2.895   4.772  14.347 -0.4153 -2.1015 -1.1736
 8616TIP3    H247264   2.917   4.639  14.415 -2.9471 -1.3845  1.2459
 8617TIP3   OH247265   2.845   0.537   0.131 -0.0142  0.3696 -0.2677
 8617TIP3    H147266   2.809   0.450   0.145 -2.5167  1.1417 -1.3050
 8617TIP3    H247267   2.879   0.534   0.041  0.3471  0.3272 -0.1302
 8618TIP3   OH247268   0.336   2.030   1.599  0.1305  0.0575  0.4565
 8618TIP3    H147269   0.362   1.941   1.622  0.5574 -0.1789 -0.8664
 8618TIP3    H247270   0.306   2.024   1.508  1.5681  1.5100 -0.1799
 8619TIP3   OH247271   2.190   3.154   1.603 -0.3143 -0.0597 -0.2046
 8619TIP3    H147272   2.106   3.139   1.647  0.8500 -1.5011  1.7040
 8619TIP3    H247273   2.253   3.164   1.675  0.9425  2.6086 -1.5678
 8620TIP3   OH247274   2.260   2.903  12.795 -0.0736 -0.0517  0.3095
 8620TIP3    H147275   2.273   2.848  12.718 -0.5329 -0.8376  0.7876
 8620TIP3    H247276   2.169   2.931  12.790  0.0252  0.2862  0.3251
 8621TIP3   OH247277   2.070   3.742   2.797 -0.5662 -0.0198 -0.6007
 8621TIP3    H147278   2.108   3.821   2.835  1.0292 -0.1585 -1.8444
 8621TIP3    H247279   2.010   3.710   2.865  0.1762  1.2021  0.6843
 8622TIP3   OH247280   4.613   4.531  15.443 -0.1917 -0.2378 -0.6041
 8622TIP3    H147281   4.537   4.555  15.495 -0.0951 -1.1820  0.0048
 8622TIP3    H247282   4.586   4.451  15.397 -0.4434  0.8261 -2.4097
 8623TIP3   OH247283   1.313   6.756   0.108  0.1858  0.1338  0.8223
 8623TIP3    H147284   1.236   6.740   0.162 -0.0330 -0.7466  0.2715
 8623TIP3    H247285   1.288   6.727   0.020  1.5593 -1.3895  0.8916
 8624TIP3   OH247286   4.307   6.351   3.464  0.1250  0.0903  0.6445
 8624TIP3    H147287   4.245   6.390   3.526  1.3401  0.7769  1.4915
 8624TIP3    H247288   4.373   6.309   3.520  0.4030 -0.6641 -0.2242
 8625TIP3   OH247289   4.228   4.660   4.317 -0.7109  0.6885 -0.4446
 8625TIP3    H147290   4.256   4.568   4.317 -0.3115  0.7938 -1.5080
 8625TIP3    H247291   4.256   4.694   4.402 -0.1994  0.0229 -0.3407
 8626TIP3   OH247292   4.565   4.264   4.288 -0.0835  0.0683  0.3705
 8626TIP3    H147293   4.491   4.324   4.287  1.7687  2.5198  0.6109
 8626TIP3    H247294   4.585   4.252   4.381 -0.0120 -0.3684  0.2999
 8627TIP3   OH247295   6.880   6.084   4.771 -0.3623 -0.5590  0.4680
 8627TIP3    H147296   6.931   6.098   4.851  1.5826  0.1173 -0.7949
 8627TIP3    H247297   6.810   6.148   4.776  0.2927  0.1267  1.2023
 8628TIP3   OH247298   3.857   5.207  11.428 -0.5131  0.0730  0.1499
 8628TIP3    H147299   3.846   5.251  11.344 -1.2093 -0.3841 -0.0075
 8628TIP3    H247300   3.860   5.114  11.406 -0.8721 -0.0615  0.6437
 8629TIP3   OH247301   3.751   3.515   5.254  0.3427 -0.0002  0.1245
 8629TIP3    H147302   3.748   3.446   5.321 -0.5618  0.4675  0.5775
 8629TIP3    H247303   3.669   3.562   5.264  0.6605  0.7409 -0.6273
 8630TIP3   OH247304   3.900   6.148   3.433 -0.2198 -0.3427  0.3600
 8630TIP3    H147305   3.970   6.161   3.498 -0.8925 -0.7493  1.1845
 8630TIP3    H247306   3.838   6.219   3.451 -0.0884 -0.0509 -0.2987
 8631TIP3   OH247307   7.124   3.783   4.383  0.3229 -0.0996  0.1354
 8631TIP3    H147308   7.117   3.773   4.478 -0.8385  1.5129  0.2526
 8631TIP3    H247309   7.034   3.784   4.351  0.7144 -1.9149 -1.1784
 8632TIP3   OH247310   4.204   0.641  13.096  0.7261  0.0179 -0.0924
 8632TIP3    H147311   4.186   0.720  13.147  1.0947  0.3105 -0.4154
 8632TIP3    H247312   4.249   0.672  13.018 -1.5502 -0.2049 -1.5723
 8633TIP3   OH247313   1.409   0.375   9.076 -0.3802  0.1799  0.1674
 8633TIP3    H147314   1.389   0.285   9.099 -0.8899 -0.6081 -2.9039
 8633TIP3    H247315   1.325   0.414   9.054  0.0332  0.8341 -0.3006
 8634TIP3   OH247316   0.525   4.317  15.401 -0.3089  0.0661  0.6352
 8634TIP3    H147317   0.466   4.385  15.432 -0.2519  0.1957  0.4608
 8634TIP3    H247318   0.498   4.301  15.310  0.2876  0.5262  0.3746
 8635TIP3   OH247319   4.657   6.202  12.393 -0.4202 -0.4082 -0.4524
 8635TIP3    H147320   4.625   6.178  12.480 -0.1464  0.6838 -0.0283
 8635TIP3    H247321   4.744   6.162  12.388  0.2535  0.8615  0.4550
 8636TIP3   OH247322   3.532   5.021  11.011 -0.0415  0.0512 -0.2082
 8636TIP3    H147323   3.583   4.996  11.088 -1.6134 -1.1666  0.5054
 8636TIP3    H247324   3.545   4.949  10.949  0.4196  0.5409 -0.6849
 8637TIP3   OH247325   0.529   1.335   0.856  0.2847  0.0774 -0.6860
 8637TIP3    H147326   0.465   1.372   0.917  1.4661  0.8633  0.1139
 8637TIP3    H247327   0.609   1.326   0.908  0.8391 -0.8619 -1.6688
 8638TIP3   OH247328   3.315   2.851   1.015  0.3220 -0.0033 -0.6255
 8638TIP3    H147329   3.410   2.858   1.024  0.2382 -0.2595  0.6530
 8638TIP3    H247330   3.281   2.931   1.056 -0.0476 -0.4968  0.0490
 8639TIP3   OH247331   5.462   5.965   2.263  0.3641 -0.3702  0.2228
 8639TIP3    H147332   5.395   5.898   2.273  0.0089 -0.0345  0.1229
 8639TIP3    H247333   5.544   5.921   2.285  0.3405 -1.2520 -1.2885
 8640TIP3   OH247334   1.204   1.116  14.463 -0.6303 -0.9355  0.0897
 8640TIP3    H147335   1.275   1.060  14.431 -0.2907 -0.2768 -0.3287
 8640TIP3    H247336   1.146   1.126  14.387  0.3435  0.8974 -0.4755
 8641TIP3   OH247337   2.389   0.722  10.080  0.3961  0.0303 -0.1593
 8641TIP3    H147338   2.401   0.810  10.116  0.2946  1.5877 -3.5346
 8641TIP3    H247339   2.299   0.698  10.103 -0.9880  2.5795 -2.3230
 8642TIP3   OH247340   0.913   6.208   1.137 -0.3590  0.3501  0.4514
 8642TIP3    H147341   0.945   6.152   1.208 -2.6870 -0.3016  1.0893
 8642TIP3    H247342   0.833   6.248   1.172 -0.4574  1.6299 -1.1041
 8643TIP3   OH247343   0.967   2.531   1.463  0.6803 -0.0688 -0.5266
 8643TIP3    H147344   0.904   2.510   1.532  0.3053 -2.0931 -1.4170
 8643TIP3    H247345   0.959   2.626   1.452 -0.1046  0.1410  1.3572
 8644TIP3   OH247346   6.675   5.052   4.051 -0.4668  0.0348 -0.3035
 8644TIP3    H147347   6.686   5.070   4.145 -2.6064 -2.3117  0.5300
 8644TIP3    H247348   6.588   5.086   4.031 -1.3899 -2.2936 -0.5405
 8645TIP3   OH247349   1.511   5.265  12.515 -0.3292 -0.7564 -0.3237
 8645TIP3    H147350   1.488   5.286  12.605 -1.9255 -1.0360 -0.6378
 8645TIP3    H247351   1.526   5.171  12.515 -0.3871 -0.7652 -0.3645
 8646TIP3   OH247352   6.356   6.187   5.381  0.3839 -0.1035  0.7310
 8646TIP3    H147353   6.335   6.102   5.343  1.5620 -0.5096  0.9681
 8646TIP3    H247354   6.347   6.174   5.476 -3.1197  1.0531  0.7211
 8647TIP3   OH247355   1.590   5.647   3.534  0.5134  0.2981 -1.2620
 8647TIP3    H147356   1.663   5.647   3.473 -0.6316  0.7497 -2.6950
 8647TIP3    H247357   1.614   5.582   3.600  2.5109  0.9552 -1.2679
 8648TIP3   OH247358   1.790   4.198  13.072 -0.1046 -0.1042 -0.0976
 8648TIP3    H147359   1.829   4.271  13.121  1.4701 -1.9754  1.6749
 8648TIP3    H247360   1.718   4.237  13.024  1.1833  2.7658  0.0594
 8649TIP3   OH247361   2.914   6.458   9.711  0.3603  0.0615 -0.0137
 8649TIP3    H147362   2.993   6.413   9.679 -0.2155  0.2457 -1.7771
 8649TIP3    H247363   2.915   6.542   9.666 -1.1959 -0.2097 -0.6009
 8650TIP3   OH247364   3.138   2.057  12.782  0.1817 -0.0479 -0.3017
 8650TIP3    H147365   3.053   2.049  12.826 -0.2871 -1.1258 -1.3448
 8650TIP3    H247366   3.131   1.998  12.706  1.5465  0.5240 -0.8948
 8651TIP3   OH247367   1.551   2.304  11.268  0.0454 -0.1696 -0.1412
 8651TIP3    H147368   1.610   2.288  11.341  1.2421 -1.1721 -1.2857
 8651TIP3    H247369   1.521   2.217  11.241  0.4900  0.0681 -1.5094
 8652TIP3   OH247370   2.756   1.377  15.546  0.4861 -0.1123  0.2262
 8652TIP3    H147371   2.700   1.320  15.599 -0.4691  1.3639  0.8810
 8652TIP3    H247372   2.699   1.450  15.520  1.4900  0.2414 -1.1139
 8653TIP3   OH247373   6.436   5.637  10.714  0.3550  0.2139  0.0331
 8653TIP3    H147374   6.358   5.632  10.769 -1.0593 -2.2289 -1.9719
 8653TIP3    H247375   6.477   5.720  10.738 -0.5614 -0.2930  4.0790
 8654TIP3   OH247376   6.859   6.932   2.227  0.0415 -0.2175  0.3025
 8654TIP3    H147377   6.954   6.931   2.239  0.0343 -0.0848  0.3713
 8654TIP3    H247378   6.826   6.975   2.306 -0.0525  0.0521  0.1149
 8655TIP3   OH247379   3.967   1.493  13.369  0.2532  0.4784 -0.5232
 8655TIP3    H147380   3.983   1.565  13.430  1.5054 -0.7742  0.6993
 8655TIP3    H247381   3.902   1.438  13.412 -1.6105  1.4290 -1.9821
 8656TIP3   OH247382   2.019   6.046   2.292 -0.4563 -0.0788  0.5617
 8656TIP3    H147383   2.013   5.984   2.219 -2.5869  1.4812 -0.6995
 8656TIP3    H247384   1.992   5.995   2.368 -0.2320 -1.2155 -0.0853
 8657TIP3   OH247385   6.004   4.378   2.923  0.2152  0.5538 -0.3143
 8657TIP3    H147386   5.948   4.399   2.848  1.3851  2.9924 -0.6077
 8657TIP3    H247387   6.060   4.307   2.893  0.6633  1.4961 -1.8089
 8658TIP3   OH247388   1.874   2.484  10.183  0.0560 -0.4149 -0.1489
 8658TIP3    H147389   1.792   2.532  10.173  1.9729  3.0720 -0.6395
 8658TIP3    H247390   1.909   2.475  10.095  0.2246 -1.9589  0.0373
 8659TIP3   OH247391   1.066   4.892  13.755  0.4697 -0.6197 -0.6251
 8659TIP3    H147392   1.135   4.951  13.786 -0.0879  0.0657 -0.6726
 8659TIP3    H247393   1.070   4.818  13.815 -0.5287  0.6406  1.0842
 8660TIP3   OH247394   3.377   6.103   5.100 -0.0012 -0.1967 -0.2295
 8660TIP3    H147395   3.297   6.155   5.093 -0.4226 -0.8606 -0.3570
 8660TIP3    H247396   3.435   6.156   5.155 -0.4663  0.3576 -0.2651
 8661TIP3   OH247397   1.564   0.357  11.954 -0.1476  0.2133 -0.2104
 8661TIP3    H147398   1.507   0.343  11.878  2.8976 -0.7228 -2.5426
 8661TIP3    H247399   1.564   0.273  12.000 -1.6364  0.6375  0.6055
 8662TIP3   OH247400   1.377   1.559  14.388  0.4714  0.0372 -0.3860
 8662TIP3    H147401   1.331   1.617  14.327 -1.8542 -1.0061  0.2645
 8662TIP3    H247402   1.423   1.497  14.331 -0.4021  0.0110 -1.0898
 8663TIP3   OH247403   6.618   6.293   2.128 -0.2336  0.3123 -0.2946
 8663TIP3    H147404   6.654   6.268   2.214 -0.2338 -0.3089 -0.4751
 8663TIP3    H247405   6.639   6.386   2.121 -2.3471  1.0128  1.4396
 8664TIP3   OH247406   6.587   2.452  15.091 -0.0686  0.5950  0.3892
 8664TIP3    H147407   6.607   2.392  15.019  2.4535  0.9210  0.7225
 8664TIP3    H247408   6.493   2.442  15.105 -0.3018 -0.8445 -1.7065
 8665TIP3   OH247409   1.507   2.629   0.458  0.0981  0.8739 -0.3628
 8665TIP3    H147410   1.420   2.628   0.498 -0.0505  0.5242 -0.6855
 8665TIP3    H247411   1.567   2.608   0.530 -0.1299  0.6268 -0.2408
 8666TIP3   OH247412   2.910   6.778  13.428  0.9020  0.1596 -0.2526
 8666TIP3    H147413   2.845   6.711  13.449  0.1080  1.4063  1.4651
 8666TIP3    H247414   2.891   6.803  13.337 -0.9020  0.3611  0.1480
 8667TIP3   OH247415   1.188   3.884  14.344 -0.1646  0.1275  0.1546
 8667TIP3    H147416   1.104   3.893  14.389 -1.1091 -0.6887 -1.3599
 8667TIP3    H247417   1.244   3.837  14.406 -0.0920  2.5197  2.0288
 8668TIP3   OH247418   3.642   4.904   9.953  0.1632  0.3243 -0.1247
 8668TIP3    H147419   3.706   4.841   9.984  0.0036  0.1582 -0.1342
 8668TIP3    H247420   3.692   4.963   9.896  0.6251  1.1083  1.0452
 8669TIP3   OH247421   2.806   3.632  13.559 -0.0093 -0.2221  0.0538
 8669TIP3    H147422   2.889   3.679  13.565 -0.1272 -0.0184  0.0911
 8669TIP3    H247423   2.822   3.564  13.494  0.2452 -0.3037  0.2018
 8670TIP3   OH247424   3.760   5.615  14.566 -0.5724 -0.5294  0.4286
 8670TIP3    H147425   3.724   5.703  14.580 -2.0633 -1.0553  0.0393
 8670TIP3    H247426   3.848   5.631  14.531 -0.4321  0.7968  1.3096
 8671TIP3   OH247427   3.582   4.770  13.694 -0.5033 -0.4907 -0.4670
 8671TIP3    H147428   3.517   4.775  13.624 -0.3597 -0.4600 -0.5969
 8671TIP3    H247429   3.661   4.809  13.657 -0.5229 -0.1624 -0.1810
 8672TIP3   OH247430   5.099   4.692  12.754 -0.0012 -0.1729  0.2394
 8672TIP3    H147431   5.186   4.679  12.791 -0.0842  1.5785  1.1267
 8672TIP3    H247432   5.044   4.715  12.829 -1.2072 -1.0279 -0.3406
 8673TIP3   OH247433   0.996   6.513  15.646  0.1826 -0.0169  0.2591
 8673TIP3    H147434   1.043   6.430  15.649 -0.2819 -0.3100 -0.3690
 8673TIP3    H247435   0.923   6.498  15.585  0.4163  1.0042 -0.3095
 8674TIP3   OH247436   6.132   4.904  11.017 -0.1096  0.2082  0.4701
 8674TIP3    H147437   6.052   4.953  11.000  0.4537  0.8331 -0.4306
 8674TIP3    H247438   6.109   4.813  10.999 -0.4975  0.4399 -0.2114
 8675TIP3   OH247439   1.170   6.293  15.197  0.0321  0.0767 -0.0204
 8675TIP3    H147440   1.247   6.237  15.187  0.2695  0.6234 -1.5363
 8675TIP3    H247441   1.098   6.241  15.162  0.2251  0.6233 -1.2771
 8676TIP3   OH247442   6.165   3.007  13.877 -0.4252  0.3756  0.0098
 8676TIP3    H147443   6.191   2.917  13.857  2.0353  1.0280 -0.0911
 8676TIP3    H247444   6.148   3.047  13.791 -1.0201  0.1460  0.0203
 8677TIP3   OH247445   1.483   4.431  10.772  0.2930  0.2470 -0.1081
 8677TIP3    H147446   1.511   4.370  10.703 -1.7616  0.9128 -1.6451
 8677TIP3    H247447   1.483   4.379  10.852  0.9888 -1.0546 -0.9190
 8678TIP3   OH247448   7.011   4.124   5.323  0.2426  0.6326 -0.1056
 8678TIP3    H147449   7.024   4.087   5.235  1.1864  0.3496  0.1366
 8678TIP3    H247450   7.098   4.153   5.349  0.1657 -0.2149  1.1522
 8679TIP3   OH247451   4.626   6.899  10.967  0.1942 -0.0567  0.6508
 8679TIP3    H147452   4.693   6.947  11.014  0.5797  1.5556 -1.4134
 8679TIP3    H247453   4.577   6.965  10.918 -1.0040 -1.4903 -0.2114
 8680TIP3   OH247454   2.057   3.691  12.248 -0.0566  0.4279 -0.1937
 8680TIP3    H147455   1.963   3.686  12.227 -0.0582 -0.6313 -0.0110
 8680TIP3    H247456   2.092   3.606  12.220  0.2535 -0.4070  2.4599
 8681TIP3   OH247457   5.293   3.626  11.498 -0.4164  0.0948 -0.0276
 8681TIP3    H147458   5.224   3.609  11.562 -1.1096  2.1577 -0.1664
 8681TIP3    H247459   5.315   3.719  11.509 -0.0094  0.3140 -2.2336
 8682TIP3   OH247460   2.935   1.269  13.769 -0.5998 -0.7238  0.6842
 8682TIP3    H147461   2.861   1.262  13.708 -1.6266 -1.4782  1.9632
 8682TIP3    H247462   2.897   1.302  13.850  0.8611  0.9228  0.7649
 8683TIP3   OH247463   1.767   6.373  14.936 -0.3769  0.3576  0.2876
 8683TIP3    H147464   1.691   6.343  14.985  0.0295  1.4196  1.6392
 8683TIP3    H247465   1.775   6.466  14.958  0.4739  0.6001 -0.9478
 8684TIP3   OH247466   6.400   4.452   4.822  0.3170  0.0124  0.4359
 8684TIP3    H147467   6.444   4.525   4.867 -1.7679  1.6476 -0.0240
 8684TIP3    H247468   6.441   4.450   4.735 -1.0923  2.2133 -0.3668
 8685TIP3   OH247469   4.367   0.970  12.378 -0.2170  0.5085 -0.1212
 8685TIP3    H147470   4.382   0.883  12.415  0.2913  0.6797  0.0778
 8685TIP3    H247471   4.273   0.972  12.360 -0.5983  0.6441  1.7265
 8686TIP3   OH247472   1.374   6.261  11.906  0.7984  0.2093  0.7088
 8686TIP3    H147473   1.286   6.262  11.869  0.3119 -0.5309  1.7995
 8686TIP3    H247474   1.430   6.235  11.832  0.3915  2.5047 -0.4942
 8687TIP3   OH247475   3.950   0.064  11.402 -0.8597  0.1808 -0.0308
 8687TIP3    H147476   3.949  -0.008  11.338 -0.3505 -0.6229  0.8410
 8687TIP3    H247477   4.041   0.094  11.403 -0.5765 -0.6363  1.1864
 8688TIP3   OH247478   0.367   5.230   2.949 -0.4076 -0.1171 -1.1475
 8688TIP3    H147479   0.418   5.276   3.015 -0.4421  0.4918 -1.5388
 8688TIP3    H247480   0.383   5.279   2.868 -0.3247 -0.8781 -1.6053
 8689TIP3   OH247481   4.473   1.624   4.993 -0.3189 -0.3267  0.4534
 8689TIP3    H147482   4.430   1.703   4.962 -0.0403 -0.8461 -1.3295
 8689TIP3    H247483   4.540   1.605   4.927  0.0059 -1.7271  1.1423
 8690TIP3   OH247484   4.761   4.024  14.097 -0.5788  0.0921  0.1430
 8690TIP3    H147485   4.793   4.062  14.179 -1.5105  1.4952 -0.1080
 8690TIP3    H247486   4.786   4.087  14.030 -1.6212 -0.0294 -0.3738
 8691TIP3   OH247487   0.957   6.011  10.069  0.4451  0.1881  0.4164
 8691TIP3    H147488   0.999   5.934  10.109  0.2167 -0.0371  0.2253
 8691TIP3    H247489   1.019   6.039  10.002 -0.1435 -0.7566 -0.5604
 8692TIP3   OH247490   2.661   6.581  13.423  0.0745 -0.0737 -0.2229
 8692TIP3    H147491   2.620   6.628  13.351  0.2069  0.9161  0.3417
 8692TIP3    H247492   2.615   6.611  13.502  1.3759  0.5153  0.3475
 8693TIP3   OH247493   2.385   5.639  11.808  0.9019  0.3037  0.1803
 8693TIP3    H147494   2.401   5.583  11.732  2.4388  2.9987 -1.6202
 8693TIP3    H247495   2.366   5.577  11.879  0.9783 -2.4013 -1.9857
 8694TIP3   OH247496   1.544   0.722  11.435  0.3086  0.6610 -0.3668
 8694TIP3    H147497   1.570   0.638  11.397 -2.5867 -0.1362 -0.8141
 8694TIP3    H247498   1.495   0.699  11.514  0.0926  1.9953 -0.0821
 8695TIP3   OH247499   6.046   3.243   1.852  0.5863 -0.1752 -0.0062
 8695TIP3    H147500   6.046   3.221   1.758  1.8191 -0.3492  0.0150
 8695TIP3    H247501   5.996   3.324   1.857 -1.2977 -1.2525 -0.5218
 8696TIP3   OH247502   3.809   4.527  12.146  0.3612  0.1418 -0.1987
 8696TIP3    H147503   3.792   4.556  12.056  1.5926  1.9827  0.0994
 8696TIP3    H247504   3.884   4.467  12.137  1.2439  1.2397 -0.3006
 8697TIP3   OH247505   4.385   0.864   4.856  0.0118 -0.2567 -0.1997
 8697TIP3    H147506   4.431   0.834   4.778 -0.7232 -0.8588 -0.4107
 8697TIP3    H247507   4.410   0.956   4.865  1.9533 -0.7784  0.2095
 8698TIP3   OH247508   3.022   0.250  11.645 -0.7347 -0.2767 -0.5997
 8698TIP3    H147509   3.009   0.318  11.711 -1.2257 -0.2266 -0.7491
 8698TIP3    H247510   2.988   0.170  11.686  0.4842 -0.5839 -0.1490
 8699TIP3   OH247511   3.154   2.312   9.834  0.1002  0.6749 -0.1744
 8699TIP3    H147512   3.204   2.310   9.752  0.3115 -1.6903 -0.0542
 8699TIP3    H247513   3.221   2.308   9.902 -0.0967  2.1810  0.1299
 8700TIP3   OH247514   5.032   2.173  14.881  0.0668 -0.6172 -0.3497
 8700TIP3    H147515   5.121   2.199  14.855 -0.7325  0.4759 -2.2376
 8700TIP3    H247516   5.044   2.127  14.964  2.0121  2.7107  1.4568
 8701TIP3   OH247517   6.988   2.952  13.453 -0.2547  0.1002  0.2716
 8701TIP3    H147518   6.941   2.998  13.523 -1.6960  0.4084 -0.8721
 8701TIP3    H247519   7.064   2.914  13.498 -2.0785 -1.3054  2.4010
 8702TIP3   OH247520   0.184   0.025  12.100  0.5082  0.2327  0.5616
 8702TIP3    H147521   0.276  -0.002  12.107  0.5056  0.0664 -0.0288
 8702TIP3    H247522   0.136  -0.058  12.092  0.5146  0.3912 -1.4693
 8703TIP3   OH247523   0.905   0.077  11.906  0.2808 -0.5199  0.5111
 8703TIP3    H147524   0.819   0.074  11.947 -0.4419  0.8664 -0.8149
 8703TIP3    H247525   0.898   0.021  11.829 -0.6636  2.3297 -1.6461
 8704TIP3   OH247526   1.021   1.063  13.986 -0.2427  0.0231 -0.1441
 8704TIP3    H147527   1.059   1.126  14.046  0.5568 -0.3861 -0.2019
 8704TIP3    H247528   0.973   1.116  13.922 -0.4439  0.5007  0.3951
 8705TIP3   OH247529   2.191   1.051  11.591  0.0861 -0.3287 -0.1739
 8705TIP3    H147530   2.178   0.974  11.645  0.2261 -0.0518  0.2635
 8705TIP3    H247531   2.134   1.117  11.629 -0.2647 -0.3012 -0.7306
 8706TIP3   OH247532   3.757   2.206  14.087  0.3411 -0.3742 -0.3349
 8706TIP3    H147533   3.664   2.216  14.069 -0.0817 -1.1700  1.2605
 8706TIP3    H247534   3.800   2.265  14.025 -1.1978 -0.2004 -1.2787
 8707TIP3   OH247535   3.053   0.063   0.599 -0.3955  0.9959  0.3091
 8707TIP3    H147536   3.074  -0.030   0.607 -0.7232  0.9714  0.9592
 8707TIP3    H247537   3.079   0.102   0.682  1.0029  1.7556 -0.4501
 8708TIP3   OH247538   6.055   2.424  10.551  0.1312  0.0084  0.0697
 8708TIP3    H147539   5.973   2.377  10.532 -0.7682  1.4492  0.2165
 8708TIP3    H247540   6.120   2.354  10.562 -1.1076 -1.1967  0.1403
 8709TIP3   OH247541   4.377   6.208  13.849 -0.1282  0.3470 -0.2070
 8709TIP3    H147542   4.408   6.194  13.939 -0.4843 -1.5213 -0.3211
 8709TIP3    H247543   4.446   6.259  13.807  0.5601  0.2980  0.8329
 8710TIP3   OH247544   3.726   6.712  11.955  0.0346  0.4645 -0.2649
 8710TIP3    H147545   3.632   6.727  11.948 -0.0010  0.3636 -0.0337
 8710TIP3    H247546   3.746   6.732  12.046  0.6428  2.6526 -0.8292
 8711TIP3   OH247547   5.295   0.647  12.830  0.4838 -0.3230 -0.2948
 8711TIP3    H147548   5.223   0.610  12.778 -0.0036  0.4100 -0.1485
 8711TIP3    H247549   5.368   0.654  12.769  0.8130 -2.1267 -0.1870
 8712TIP3   OH247550   0.221   1.558  12.068  0.0087 -0.4052 -0.2479
 8712TIP3    H147551   0.262   1.473  12.050  1.3079  0.3206 -0.9241
 8712TIP3    H247552   0.244   1.612  11.991  1.0988  1.2078  1.1283
 8713TIP3   OH247553   4.528   6.873  13.293  0.1731 -0.2287  0.1035
 8713TIP3    H147554   4.579   6.868  13.213 -0.8632 -1.9839 -0.5143
 8713TIP3    H247555   4.518   6.966  13.310 -0.5145  0.2285 -2.4329
 8714TIP3   OH247556   4.502   3.615  12.531  0.0384  0.5406  0.1664
 8714TIP3    H147557   4.567   3.551  12.502  0.3198  0.3339  1.2071
 8714TIP3    H247558   4.466   3.578  12.611 -0.5279  1.2106  0.2324
 8715TIP3   OH247559   0.355   4.011  11.817  0.1380 -0.2422  0.2067
 8715TIP3    H147560   0.329   3.974  11.733 -1.5559  2.1649 -0.4536
 8715TIP3    H247561   0.275   4.008  11.870  0.5030  0.5380  0.8298
 8716TIP3   OH247562   5.806   1.797  13.465  0.1725 -0.7002  0.3587
 8716TIP3    H147563   5.846   1.793  13.551 -1.4464 -0.1974  1.1830
 8716TIP3    H247564   5.728   1.851  13.478 -0.4224 -1.1060 -1.2937
 8717TIP3   OH247565   0.852   1.756  15.466 -0.0872  0.0499 -0.1718
 8717TIP3    H147566   0.848   1.820  15.395  1.1381 -0.2521 -0.5216
 8717TIP3    H247567   0.871   1.808  15.544 -3.4138  0.6701  0.3842
 8718TIP3   OH247568   3.759   0.294   1.955  0.3854 -0.3494 -0.0021
 8718TIP3    H147569   3.775   0.248   1.872  0.8193 -0.6188  0.2273
 8718TIP3    H247570   3.665   0.306   1.958  0.4481  0.5189 -0.9967
 8719TIP3   OH247571   0.243   2.663  12.759  0.0157  0.3465  0.2015
 8719TIP3    H147572   0.329   2.682  12.796  0.8961 -0.6444 -1.2454
 8719TIP3    H247573   0.237   2.567  12.762 -0.4537  0.3296 -0.9547
 8720TIP3   OH247574   5.053   2.393   2.143  0.1217  0.7090 -0.2439
 8720TIP3    H147575   5.030   2.406   2.051  0.5363 -1.8985 -0.8082
 8720TIP3    H247576   4.993   2.450   2.191 -0.2288  1.9972 -2.1033
 8721TIP3   OH247577   0.628   0.095   9.967  0.4869  0.5988  0.5543
 8721TIP3    H147578   0.668   0.023   9.919 -1.6119 -0.8447  0.8451
 8721TIP3    H247579   0.677   0.098  10.050  1.2026  0.1364  0.1588
 8722TIP3   OH247580   4.654   1.231  11.369 -0.1246  0.2189  0.4881
 8722TIP3    H147581   4.569   1.268  11.343  0.3727 -0.0230 -1.7137
 8722TIP3    H247582   4.674   1.168  11.300  2.5539  1.3749  0.0716
 8723TIP3   OH247583   3.696   6.480  13.099 -0.0239  0.0780  0.0998
 8723TIP3    H147584   3.729   6.410  13.155 -1.6440  1.2957  2.7736
 8723TIP3    H247585   3.749   6.557  13.123 -0.5535  0.5573 -0.2446
 8724TIP3   OH247586   6.770   4.121  12.261  0.1511  0.3825  0.1253
 8724TIP3    H147587   6.804   4.054  12.321  0.6603  0.2874 -0.2627
 8724TIP3    H247588   6.835   4.126  12.191 -0.2483  0.7639 -0.2270
 8725TIP3   OH247589   7.020   0.017  14.519 -0.0914  0.0416  0.0525
 8725TIP3    H147590   7.048   0.019  14.427 -2.5187  1.3389 -0.7583
 8725TIP3    H247591   7.027  -0.075  14.545  3.5175  0.0539 -0.3782
 8726TIP3   OH247592   3.176   0.015  15.290  0.1801 -0.1745 -0.0629
 8726TIP3    H147593   3.245   0.002  15.226  0.1751 -0.7004  0.0359
 8726TIP3    H247594   3.165  -0.070  15.332 -0.9206 -0.2434 -0.4644
 8727TIP3   OH247595   1.591   2.552  11.445  0.0131  0.1903 -0.0999
 8727TIP3    H147596   1.604   2.476  11.501  0.1903 -0.0021 -0.3989
 8727TIP3    H247597   1.532   2.609  11.494  0.6161  0.2830  0.5228
 8728TIP3   OH247598   6.944   4.984   3.573 -0.6937 -0.4423  0.3106
 8728TIP3    H147599   6.988   4.943   3.648 -0.9045  1.0223  1.2655
 8728TIP3    H247600   6.937   5.076   3.596 -1.0273 -0.0038 -1.4084
 8729TIP3   OH247601   4.033   6.259  14.101 -0.1399  0.0589 -0.2238
 8729TIP3    H147602   4.073   6.289  14.020  0.9827  0.8207  0.5750
 8729TIP3    H247603   4.103   6.211  14.145  0.0950  1.7570  1.3919
 8730TIP3   OH247604   3.042   3.538   1.247  0.0229 -0.3688 -0.2641
 8730TIP3    H147605   3.023   3.470   1.311  1.8000 -1.5393 -0.9019
 8730TIP3    H247606   3.125   3.577   1.277 -1.1328  1.8366  0.3037
 8731TIP3   OH247607   6.507   1.694   1.578  0.2059 -0.2217  0.0353
 8731TIP3    H147608   6.459   1.632   1.523  0.9703 -2.2854  1.6106
 8731TIP3    H247609   6.463   1.691   1.662 -0.6242  2.5251 -0.1968
 8732TIP3   OH247610   5.561   2.054  14.429  0.2951 -0.1327  0.2754
 8732TIP3    H147611   5.472   2.052  14.465 -0.3598  0.4684 -1.2570
 8732TIP3    H247612   5.576   2.145  14.407  1.0919 -0.3222  0.0148
 8733TIP3   OH247613   0.563   5.949  13.519 -0.9408 -0.5928  0.3532
 8733TIP3    H147614   0.477   5.976  13.489 -0.5282  0.3794  0.0065
 8733TIP3    H247615   0.556   5.942  13.614 -0.9573  1.1469  0.4960
 8734TIP3   OH247616   6.176   4.268   5.626  0.3166  0.1849 -0.2135
 8734TIP3    H147617   6.132   4.339   5.673  0.2562  0.0650 -0.0863
 8734TIP3    H247618   6.149   4.189   5.673 -0.1524  0.0155 -0.7521
 8735TIP3   OH247619   3.587   3.339  15.544 -0.1942 -0.5933  0.4828
 8735TIP3    H147620   3.545   3.351  15.459  0.8336 -1.8641 -0.2444
 8735TIP3    H247621   3.523   3.371  15.607 -1.7041 -1.2207 -0.6618
 8736TIP3   OH247622   1.791   2.688   1.047 -0.3553 -0.0333  0.2603
 8736TIP3    H147623   1.879   2.666   1.079 -0.7483  1.5070  2.6107
 8736TIP3    H247624   1.732   2.637   1.102 -0.9861  0.4912  0.0759
 8737TIP3   OH247625   1.947   2.608   3.786 -0.2410 -0.3341 -0.5486
 8737TIP3    H147626   2.020   2.662   3.814  0.1486 -0.6635 -0.9109
 8737TIP3    H247627   1.881   2.619   3.854 -0.0458  0.3452 -0.4637
 8738TIP3   OH247628   3.527   3.930  12.867 -0.3301 -0.7058  0.5515
 8738TIP3    H147629   3.591   3.999  12.883 -0.0687 -0.8754  0.2327
 8738TIP3    H247630   3.447   3.977  12.842  0.0606 -0.5372 -0.4137
 8739TIP3   OH247631   6.754   0.078   0.372 -0.1764 -0.2627  0.1911
 8739TIP3    H147632   6.715   0.131   0.442  0.5053 -1.5831  1.6380
 8739TIP3    H247633   6.694   0.004   0.363  0.5917 -0.9449  0.5655
 8740TIP3   OH247634   1.142   6.459  12.106 -0.0012  0.4215  0.8643
 8740TIP3    H147635   1.102   6.484  12.023 -0.6558 -2.6587  0.1123
 8740TIP3    H247636   1.069   6.457  12.168 -0.4170 -1.5183  0.3896
 8741TIP3   OH247637   0.235   4.484  12.300 -0.3260 -0.3566 -0.2592
 8741TIP3    H147638   0.241   4.571  12.341 -0.4171 -0.4217 -0.1060
 8741TIP3    H247639   0.142   4.472  12.283 -0.2097  0.0296 -1.2747
 8742TIP3   OH247640   5.758   4.743  11.272 -0.0256  0.1617  0.0321
 8742TIP3    H147641   5.785   4.794  11.348  1.7480  0.1082 -0.5118
 8742TIP3    H247642   5.813   4.776  11.200 -3.0366  1.6842 -1.7856
 8743TIP3   OH247643   1.397   2.965   5.806 -0.0884  1.0590  0.3475
 8743TIP3    H147644   1.367   3.043   5.759 -0.8472  1.2379  1.1130
 8743TIP3    H247645   1.323   2.905   5.803  0.8653 -0.1306 -1.2348
 8744TIP3   OH247646   5.185   0.759   3.015  0.1077  0.1491 -0.1115
 8744TIP3    H147647   5.280   0.751   3.023  0.0574 -0.3499  0.0674
 8744TIP3    H247648   5.166   0.850   3.036  0.2379 -0.4956  3.4334
 8745TIP3   OH247649   0.352   1.523   3.311 -0.3591 -0.0906 -0.3270
 8745TIP3    H147650   0.360   1.432   3.281  0.7336  0.3825 -1.5635
 8745TIP3    H247651   0.430   1.538   3.364 -0.9424 -0.0950  0.5609
 8746TIP3   OH247652   2.515   6.535  11.173  0.4537 -0.2224 -0.0092
 8746TIP3    H147653   2.424   6.562  11.175  0.6613  0.5121  1.5151
 8746TIP3    H247654   2.531   6.507  11.083 -1.2557 -0.3482 -0.2960
 8747TIP3   OH247655   3.689   5.035   5.279 -0.4362  0.6071  0.0890
 8747TIP3    H147656   3.610   5.089   5.285  0.1063  1.6431 -1.3624
 8747TIP3    H247657   3.750   5.075   5.341 -0.9493 -0.0325  1.0175
 8748TIP3   OH247658   3.335   1.836  13.203  0.4230  0.3384 -0.1345
 8748TIP3    H147659   3.323   1.909  13.263  0.7809  0.4395 -0.1822
 8748TIP3    H247660   3.330   1.875  13.115 -2.1988 -0.1197 -0.2448
 8749TIP3   OH247661   6.928   5.122  13.870 -0.1610  0.8876  0.4547
 8749TIP3    H147662   6.866   5.118  13.943 -2.0796  0.6595 -1.1013
 8749TIP3    H247663   6.880   5.084  13.796  1.4768  1.6872 -1.0840
 8750TIP3   OH247664   6.140   2.482   2.472  0.0288 -0.1564  0.0946
 8750TIP3    H147665   6.188   2.542   2.529  0.8214 -0.3499 -0.3641
 8750TIP3    H247666   6.203   2.415   2.448 -0.2804 -0.0706 -1.0349
 8751TIP3   OH247667   6.539   1.843  14.236 -0.4968  0.0396 -0.0152
 8751TIP3    H147668   6.496   1.856  14.151 -0.6061 -0.0478  0.0268
 8751TIP3    H247669   6.496   1.766  14.272 -0.2302 -0.1110 -0.0213
 8752TIP3   OH247670   0.058   6.892   5.283  0.1620  0.0958  0.3884
 8752TIP3    H147671  -0.003   6.832   5.240  1.4933 -0.4844 -0.8163
 8752TIP3    H247672   0.141   6.844   5.282  0.7498  1.0529  1.5137
 8753TIP3   OH247673   0.184   5.535   4.145  0.1469 -0.0986  0.2830
 8753TIP3    H147674   0.168   5.609   4.086 -1.0256 -1.1581 -0.7878
 8753TIP3    H247675   0.140   5.559   4.227  0.9873  0.9761  0.4442
 8754TIP3   OH247676   4.131   6.631  13.951  0.4692  0.3231  0.5279
 8754TIP3    H147677   4.116   6.540  13.925  1.0896 -0.0566  1.4740
 8754TIP3    H247678   4.055   6.653  14.004 -0.0746  0.6270 -0.3537
 8755TIP3   OH247679   1.001   6.184  12.536  0.2451  0.5102  0.5403
 8755TIP3    H147680   0.972   6.239  12.608  1.4750  1.0807  0.6199
 8755TIP3    H247681   1.091   6.210  12.520  0.0138  0.3926 -1.1978
 8756TIP3   OH247682   2.351   1.757   2.834  0.4236 -0.1567 -0.0446
 8756TIP3    H147683   2.407   1.795   2.902 -1.6480  2.1608  0.5306
 8756TIP3    H247684   2.278   1.718   2.882  0.4223 -1.1939 -0.8522
 8757TIP3   OH247685   1.385   2.750   0.216 -0.2641 -0.2891 -0.2476
 8757TIP3    H147686   1.445   2.729   0.287 -0.6920  0.2299  0.2757
 8757TIP3    H247687   1.298   2.748   0.256 -0.3576  2.1512 -0.2189
 8758TIP3   OH247688   0.992   0.648  10.276  0.0147  0.0046 -0.0323
 8758TIP3    H147689   1.004   0.692  10.360  2.6262  0.6054 -0.6191
 8758TIP3    H247690   1.049   0.571  10.281 -0.1589 -0.2008 -1.0848
 8759TIP3   OH247691   5.344   6.097   0.907  0.3072  0.1238  0.1064
 8759TIP3    H147692   5.334   6.181   0.952 -0.7944 -0.6594  1.3985
 8759TIP3    H247693   5.257   6.059   0.908  0.4355 -0.3272 -1.9849
 8760TIP3   OH247694   2.242   5.710  14.669 -0.5323  0.0380  0.6623
 8760TIP3    H147695   2.330   5.747  14.676 -0.0847 -1.0402  0.8975
 8760TIP3    H247696   2.184   5.784  14.685  0.3150  0.8566  0.0845
 8761TIP3   OH247697   1.227   4.022  15.508 -0.2710  0.1274 -0.4510
 8761TIP3    H147698   1.233   4.051  15.599  2.3398 -0.5135 -0.3241
 8761TIP3    H247699   1.200   3.931  15.513 -3.9564  1.0552 -0.6204
 8762TIP3   OH247700   3.454   2.867   0.175 -0.2590 -0.7697  0.3256
 8762TIP3    H147701   3.498   2.872   0.090 -0.3788  0.0212  0.3118
 8762TIP3    H247702   3.409   2.782   0.173  0.5439 -1.2003 -0.0054
 8763TIP3   OH247703   2.217   2.048  10.253  0.0455 -0.2936  0.2372
 8763TIP3    H147704   2.181   2.004  10.176 -0.3761 -0.3228  0.4478
 8763TIP3    H247705   2.240   2.136  10.222  1.1117 -0.7253 -0.2402
 8764TIP3   OH247706   2.657   1.447   4.371  0.0374  0.3874  0.3806
 8764TIP3    H147707   2.591   1.496   4.420 -0.8309  1.5364 -1.8128
 8764TIP3    H247708   2.637   1.355   4.390 -0.1854  0.7771  2.2163
 8765TIP3   OH247709   3.730   2.888   2.821  0.4173 -0.1295 -0.3113
 8765TIP3    H147710   3.692   2.843   2.745  0.8307  1.4610 -1.5158
 8765TIP3    H247711   3.729   2.980   2.796 -2.0652  0.8446  2.7371
 8766TIP3   OH247712   7.036   5.719   3.524 -0.7873 -0.3362 -0.3192
 8766TIP3    H147713   7.095   5.794   3.537  0.4242 -0.9919 -1.8006
 8766TIP3    H247714   7.029   5.679   3.610  0.0130  0.4144  0.1066
 8767TIP3   OH247715   6.431   3.968  10.340 -0.3396  0.3268 -0.1514
 8767TIP3    H147716   6.354   3.989  10.286  0.3245  0.9688 -0.8705
 8767TIP3    H247717   6.489   3.920  10.282 -0.7731 -1.4390  0.7925
 8768TIP3   OH247718   4.821   5.583  10.735 -0.1740  0.1230  0.5211
 8768TIP3    H147719   4.859   5.670  10.720 -3.0281  1.2134 -1.4774
 8768TIP3    H247720   4.771   5.593  10.816 -2.4419  1.2500 -0.9024
 8769TIP3   OH247721   2.201   4.325  15.580 -0.2937  0.0614 -0.0105
 8769TIP3    H147722   2.216   4.393  15.514 -0.4622  0.0675 -0.0414
 8769TIP3    H247723   2.256   4.351  15.654  1.1137 -0.7707 -0.7227
 8770TIP3   OH247724   3.078   2.811  15.047  0.1009  0.0086  0.1086
 8770TIP3    H147725   2.997   2.807  14.996  0.0417  3.1100 -0.2292
 8770TIP3    H247726   3.143   2.767  14.993 -0.8144 -0.2716 -0.7857
 8771TIP3   OH247727   3.613   4.906   1.785 -0.3630  0.0527 -0.4573
 8771TIP3    H147728   3.549   4.891   1.855 -0.7347 -2.7972 -1.2549
 8771TIP3    H247729   3.659   4.823   1.777  0.6399  0.7378 -2.6429
 8772TIP3   OH247730   3.684   6.234  11.746  0.7267 -0.2180  0.3695
 8772TIP3    H147731   3.739   6.281  11.809  1.8852 -1.0997  0.0425
 8772TIP3    H247732   3.650   6.302  11.688  1.5502  0.3396  0.5260
 8773TIP3   OH247733   7.034   7.055  11.709  0.2172  0.4186  0.4516
 8773TIP3    H147734   6.960   7.058  11.770  1.6626 -0.0255  2.2936
 8773TIP3    H247735   7.047   7.145  11.682 -1.6277  0.3789 -0.7431
 8774TIP3   OH247736   4.924   4.446  10.508 -0.4109  0.4044  0.0938
 8774TIP3    H147737   4.925   4.461  10.414 -1.1843  1.9906  0.3120
 8774TIP3    H247738   4.888   4.526  10.546  0.3298 -0.0054  1.7871
 8775TIP3   OH247739   0.257   4.959  13.983 -0.5267  0.2842  0.6496
 8775TIP3    H147740   0.255   5.045  13.940  0.8197 -0.5588 -1.2119
 8775TIP3    H247741   0.299   4.975  14.067 -0.4580  1.4871  0.4048
 8776TIP3   OH247742   2.185   0.800   0.467  0.0897 -0.2754  0.7097
 8776TIP3    H147743   2.128   0.748   0.410 -1.6345  2.9636 -0.7384
 8776TIP3    H247744   2.272   0.789   0.429 -0.3497 -1.3755 -0.0368
 8777TIP3   OH247745   0.024   1.230   2.262 -0.0595 -0.0636  0.0107
 8777TIP3    H147746  -0.004   1.156   2.208  0.3713  0.3883 -0.8337
 8777TIP3    H247747   0.031   1.303   2.201 -1.7742  1.0316  1.0359
 8778TIP3   OH247748   3.831   4.231   3.808 -0.4738  0.1359  0.3665
 8778TIP3    H147749   3.776   4.273   3.742 -0.0775 -0.3320 -0.2694
 8778TIP3    H247750   3.899   4.296   3.827 -0.9004  0.4861  0.7262
 8779TIP3   OH247751   3.374   4.067  13.359  0.9114 -0.7345 -0.0656
 8779TIP3    H147752   3.355   3.974  13.373 -3.3976 -0.5618 -2.8914
 8779TIP3    H247753   3.451   4.067  13.301  1.3293 -2.4442  0.4304
 8780TIP3   OH247754   0.633   1.159  14.743 -0.9736  0.9909 -0.1758
 8780TIP3    H147755   0.557   1.132  14.691 -0.9637  0.6283 -0.0047
 8780TIP3    H247756   0.597   1.184  14.828 -0.9332  1.0957 -0.1893
 8781TIP3   OH247757   4.368   2.092  10.864 -0.1626 -0.3653 -0.0400
 8781TIP3    H147758   4.458   2.093  10.895 -0.2327  0.5380  0.1533
 8781TIP3    H247759   4.352   2.181  10.833 -0.8055 -0.6658 -0.6076
 8782TIP3   OH247760   5.454   4.545   9.859  0.0567  0.2981  0.2989
 8782TIP3    H147761   5.493   4.599   9.790 -0.6995 -0.8288 -1.0623
 8782TIP3    H247762   5.363   4.531   9.830  0.2569 -1.7901  0.5084
 8783TIP3   OH247763   2.679   0.257  13.236 -0.0086  0.3253  0.8516
 8783TIP3    H147764   2.597   0.237  13.282 -1.0509  0.1533 -0.9823
 8783TIP3    H247765   2.679   0.352  13.229  0.5641  0.4191  1.8623
 8784TIP3   OH247766   5.173   3.882  11.118 -0.0064 -0.0778 -0.1906
 8784TIP3    H147767   5.208   3.824  11.051  0.0555  1.9321 -2.0100
 8784TIP3    H247768   5.080   3.858  11.124  0.0006 -0.3264 -0.9579
 8785TIP3   OH247769   6.141   4.267  14.912  0.4568  0.6416  1.0693
 8785TIP3    H147770   6.154   4.354  14.949 -0.0932  0.2392  2.2772
 8785TIP3    H247771   6.117   4.213  14.987 -0.5179 -0.2667  0.1335
 8786TIP3   OH247772   2.662   6.883  11.661 -0.8021  0.2992 -0.0466
 8786TIP3    H147773   2.751   6.867  11.630 -1.0481  1.1465 -1.2840
 8786TIP3    H247774   2.607   6.871  11.583 -1.9251 -1.3818  0.9508
 8787TIP3   OH247775   4.726   6.330   1.319  0.0149  0.0343  0.2531
 8787TIP3    H147776   4.693   6.403   1.267  0.8002  0.5590  0.4810
 8787TIP3    H247777   4.782   6.370   1.385  0.9234 -0.8050  0.0243
 8788TIP3   OH247778   0.011   4.766   1.141 -0.6053  0.5485  0.3208
 8788TIP3    H147779  -0.029   4.680   1.151 -2.4417  1.4277  0.9357
 8788TIP3    H247780   0.105   4.748   1.142 -0.9253 -1.5505 -0.7050
 8789TIP3   OH247781   5.996   3.010   9.605 -0.0347 -0.7094  0.3450
 8789TIP3    H147782   6.078   3.006   9.654  1.1052  0.6252 -1.3350
 8789TIP3    H247783   5.928   3.020   9.673  1.5321  1.9487  1.7123
 8790TIP3   OH247784   4.945   6.256  15.066 -0.1362  0.1430  0.1517
 8790TIP3    H147785   4.913   6.217  15.147  0.5889 -1.3232 -0.2168
 8790TIP3    H247786   4.989   6.183  15.021 -1.9038  0.4909 -2.3073
 8791TIP3   OH247787   5.923   0.949  10.758 -0.0151 -0.2096  0.2197
 8791TIP3    H147788   5.909   0.903  10.675  0.1691  0.3128 -0.1092
 8791TIP3    H247789   5.936   0.879  10.822 -0.7594 -0.6274 -0.0776
 8792TIP3   OH247790   6.939   3.032   1.496 -0.0194  0.2427 -0.0444
 8792TIP3    H147791   6.914   2.941   1.479 -1.7464 -0.1038  3.3538
 8792TIP3    H247792   7.014   3.026   1.554 -0.7554  0.8946  1.0231
 8793TIP3   OH247793   4.247   2.216  11.168 -0.7365  0.0803 -0.4206
 8793TIP3    H147794   4.185   2.222  11.095  0.1793  0.7972 -1.1747
 8793TIP3    H247795   4.328   2.255  11.134  0.0475 -0.5574  0.6245
 8794TIP3   OH247796   1.526   6.037  10.124  0.1902  0.3624 -0.1952
 8794TIP3    H147797   1.490   6.120  10.156  0.6259  0.3442  0.3433
 8794TIP3    H247798   1.604   6.021  10.177  0.1005 -0.4070 -0.2742
 8795TIP3   OH247799   0.550   2.821  13.539  0.0024  0.4938 -0.3278
 8795TIP3    H147800   0.623   2.809  13.478  1.2790  2.2535  0.7650
 8795TIP3    H247801   0.536   2.915  13.542 -0.7683  0.3648  1.2240
 8796TIP3   OH247802   2.313   6.866  11.124  0.4782  0.0518 -0.1777
 8796TIP3    H147803   2.250   6.803  11.158  0.3947  0.1622 -0.1265
 8796TIP3    H247804   2.321   6.932  11.193  0.0761  0.4365 -0.4927
 8797TIP3   OH247805   6.196   6.130  13.878  0.0892  0.1678  0.1954
 8797TIP3    H147806   6.286   6.122  13.846 -0.0075  2.0435 -0.6236
 8797TIP3    H247807   6.202   6.107  13.971  0.7646 -3.1121 -0.5170
 8798TIP3   OH247808   2.474   2.405  11.576  0.1547  0.1076 -0.3982
 8798TIP3    H147809   2.425   2.413  11.494  1.6961 -0.7141 -1.4543
 8798TIP3    H247810   2.559   2.368  11.550  1.0287  0.6667  1.4555
 8799TIP3   OH247811   3.391   0.298   4.794  0.1776  0.1040  0.3338
 8799TIP3    H147812   3.486   0.293   4.782  0.2651 -0.2884  1.1184
 8799TIP3    H247813   3.376   0.260   4.880 -0.5679  1.3206  0.7648
 8800TIP3   OH247814   3.609   4.509  13.844  0.1455  0.1210 -0.0138
 8800TIP3    H147815   3.606   4.579  13.779 -1.2438 -0.5819 -0.7575
 8800TIP3    H247816   3.702   4.494  13.858  0.5406  2.9486  1.1420
 8801TIP3   OH247817   1.611   5.944  13.393 -0.6670 -0.2062 -0.0675
 8801TIP3    H147818   1.641   5.945  13.302  0.2079 -0.7535  0.2003
 8801TIP3    H247819   1.644   5.861  13.428  0.8473  0.9087  1.3228
 8802TIP3   OH247820   2.105   6.838   2.601  0.1047  0.0514  0.4208
 8802TIP3    H147821   2.047   6.913   2.612 -1.1671 -0.6549 -1.1073
 8802TIP3    H247822   2.055   6.763   2.634  2.2837  0.0308  4.3874
 8803TIP3   OH247823   0.310   1.158   9.923  0.2899  0.6527  0.7594
 8803TIP3    H147824   0.263   1.085   9.883  0.6982  1.3928 -1.1699
 8803TIP3    H247825   0.365   1.118   9.990 -0.4849 -0.6372  0.6459
 8804TIP3   OH247826   0.049   3.040  10.490 -0.0360  0.7211  0.5594
 8804TIP3    H147827   0.097   3.026  10.572  0.8894  0.5719  0.0046
 8804TIP3    H247828   0.109   3.012  10.421 -0.2393  2.2264 -0.2743
 8805TIP3   OH247829   4.963   3.319   9.710  0.1077  0.1580 -0.2829
 8805TIP3    H147830   5.032   3.378   9.740  0.9032 -1.1791  0.5516
 8805TIP3    H247831   4.981   3.236   9.753 -1.5009 -0.4768 -0.7676
 8806TIP3   OH247832   5.472   6.640   1.866  0.5069  0.0761  0.2044
 8806TIP3    H147833   5.429   6.613   1.784  0.7565  1.2521 -0.3327
 8806TIP3    H247834   5.565   6.618   1.852  0.1911 -2.1973  1.2513
 8807TIP3   OH247835   4.419   2.128  11.814 -0.1784 -0.4489  0.3583
 8807TIP3    H147836   4.436   2.192  11.745 -1.3238 -0.0567  0.4239
 8807TIP3    H247837   4.505   2.114  11.855  0.7951 -1.5683 -1.8552
 8808TIP3   OH247838   2.467   7.104  14.170  0.0721  0.1919 -1.0871
 8808TIP3    H147839   2.386   7.141  14.133  1.4264  2.8372 -1.6202
 8808TIP3    H247840   2.474   7.145  14.256 -0.7186 -2.4989  0.3615
 8809TIP3   OH247841   4.681   3.675   4.139  0.3143 -0.2102 -0.2758
 8809TIP3    H147842   4.635   3.601   4.100 -0.6621 -0.6354  1.5369
 8809TIP3    H247843   4.614   3.743   4.146  0.6675  0.1192 -0.0577
 8810TIP3   OH247844   1.953   2.688  11.339 -0.1307  0.1322  0.6188
 8810TIP3    H147845   1.886   2.698  11.271  0.1136  0.5921  0.4447
 8810TIP3    H247846   2.032   2.665  11.291  0.0183  0.3575  0.7548
 8811TIP3   OH247847   2.770   2.596  11.476  0.4915  0.3326  0.3116
 8811TIP3    H147848   2.703   2.659  11.500  0.0314 -0.5807  1.5274
 8811TIP3    H247849   2.847   2.649  11.454 -0.3109  1.3504 -0.1055
 8812TIP3   OH247850   0.519   4.024   0.380 -0.2622  0.4709 -0.3301
 8812TIP3    H147851   0.487   4.087   0.444 -0.1563 -1.4390  1.6938
 8812TIP3    H247852   0.469   4.045   0.300 -2.1456  1.4377  1.0126
 8813TIP3   OH247853   0.506   5.505   0.810  0.1657 -0.2146  0.3391
 8813TIP3    H147854   0.589   5.457   0.807  0.3858  0.2138 -1.0536
 8813TIP3    H247855   0.531   5.597   0.796 -0.6496 -0.2645 -1.8523
 8814TIP3   OH247856   0.894   4.311   2.216 -0.3722  0.7438 -0.7202
 8814TIP3    H147857   0.845   4.392   2.200 -3.1500 -0.2435  1.7909
 8814TIP3    H247858   0.849   4.246   2.162  0.0301  0.3601 -0.5902
 8815TIP3   OH247859   3.717   5.704  13.662 -0.4045 -0.7080 -0.5401
 8815TIP3    H147860   3.635   5.660  13.641  0.1690 -1.6506 -0.8607
 8815TIP3    H247861   3.712   5.788  13.617 -1.4727 -0.4576 -0.0044
 8816TIP3   OH247862   6.430   0.476  13.547 -0.0546 -0.3836 -0.0782
 8816TIP3    H147863   6.515   0.501  13.512  0.9859 -1.7468  1.3258
 8816TIP3    H247864   6.406   0.396  13.500 -1.0557  0.5320 -1.1631
 8817TIP3   OH247865   3.539   1.723   3.309  0.5280 -0.2183 -0.0578
 8817TIP3    H147866   3.455   1.756   3.275  0.0077 -2.1588 -0.7979
 8817TIP3    H247867   3.593   1.802   3.319 -0.7667  0.8986 -1.3122
 8818TIP3   OH247868   5.378   1.596  10.522  0.8417 -0.2692  0.4628
 8818TIP3    H147869   5.463   1.637  10.509  0.3143  1.1212  1.2291
 8818TIP3    H247870   5.397   1.516  10.571  1.6299  0.5540  1.5418
 8819TIP3   OH247871   3.540   5.346  14.897 -0.2400  0.3087 -0.6457
 8819TIP3    H147872   3.580   5.356  14.810 -1.0015  1.6814 -0.8686
 8819TIP3    H247873   3.461   5.399  14.893 -0.1912  0.5472  0.9725
 8820TIP3   OH247874   6.415   6.447  12.001  0.5655 -0.0587  0.1976
 8820TIP3    H147875   6.385   6.531  12.033  1.4528 -0.2597  1.6364
 8820TIP3    H247876   6.419   6.391  12.079  3.3729 -0.3970 -0.0878
 8821TIP3   OH247877   4.668   2.909  14.877  0.4496 -0.4964 -0.0968
 8821TIP3    H147878   4.636   2.820  14.891  1.5078 -1.1405 -1.4979
 8821TIP3    H247879   4.746   2.917  14.932  1.4836 -1.1459 -1.4181
 8822TIP3   OH247880   2.455   2.343  12.316  0.0405  0.4621 -0.8060
 8822TIP3    H147881   2.406   2.301  12.244  0.2199  0.7088 -1.0726
 8822TIP3    H247882   2.471   2.432  12.285 -0.4249  0.7614 -0.1989
 8823TIP3   OH247883   6.215   2.657  12.447 -0.0563 -0.2314  0.0070
 8823TIP3    H147884   6.283   2.714  12.411 -0.7782  1.0901  0.6677
 8823TIP3    H247885   6.250   2.568  12.436  1.5145  0.3765 -0.1981
 8824TIP3   OH247886   5.519   1.924  11.900  0.2894 -0.1935 -0.4202
 8824TIP3    H147887   5.582   1.890  11.963 -2.0616 -1.2847  1.4733
 8824TIP3    H247888   5.511   1.855  11.834 -3.4981 -3.2134  2.7232
 8825TIP3   OH247889   5.421   2.625  10.290  0.2518  0.7907  0.0529
 8825TIP3    H147890   5.460   2.591  10.371  1.8610  0.0538 -0.9714
 8825TIP3    H247891   5.481   2.597  10.221 -2.6454 -1.3343 -1.8158
 8826TIP3   OH247892   1.786   0.707   1.249 -0.2037  0.7465 -0.1487
 8826TIP3    H147893   1.790   0.611   1.239  0.5058  0.7854 -0.3123
 8826TIP3    H247894   1.751   0.721   1.337 -1.1189  0.3455 -0.4365
 8827TIP3   OH247895   3.400   0.083   0.093  0.0228 -0.5983  0.2598
 8827TIP3    H147896   3.362   0.067   0.007  0.6137 -0.3058 -0.0638
 8827TIP3    H247897   3.345   0.033   0.154 -0.7120 -0.3774 -0.2223
 8828TIP3   OH247898   6.652   5.633   1.412 -0.4272 -0.1404  0.1722
 8828TIP3    H147899   6.650   5.708   1.352  1.5106 -0.1709  0.0164
 8828TIP3    H247900   6.605   5.564   1.365  0.1688  0.1535 -0.8794
 8829TIP3   OH247901   0.028   2.813   9.387  0.0152  0.1474  0.2288
 8829TIP3    H147902  -0.059   2.780   9.410 -1.4272  1.7252 -2.4443
 8829TIP3    H247903   0.046   2.882   9.451 -0.7610 -0.1196  0.7417
 8830TIP3   OH247904   0.234   2.804   3.413  0.2481 -0.5319 -0.1306
 8830TIP3    H147905   0.152   2.807   3.364  0.8493  1.1692 -1.1386
 8830TIP3    H247906   0.244   2.713   3.439 -1.6732 -0.8677 -0.4718
 8831TIP3   OH247907   1.648   5.826   2.432  0.2617  0.2578 -0.2060
 8831TIP3    H147908   1.688   5.912   2.417 -0.0371  0.1861 -1.4970
 8831TIP3    H247909   1.565   5.829   2.385 -0.3531 -0.3089  0.7994
 8832TIP3   OH247910   1.046   0.266   1.152  0.0439 -0.2372  0.0694
 8832TIP3    H147911   1.037   0.296   1.062 -0.6314 -1.0608 -0.1516
 8832TIP3    H247912   1.133   0.297   1.179 -0.2985  1.1944 -0.3909
 8833TIP3   OH247913   4.615   4.030  11.294  0.3431 -0.2508  0.5139
 8833TIP3    H147914   4.537   4.075  11.324  1.0054  0.5750  1.0436
 8833TIP3    H247915   4.686   4.093  11.307  1.1176 -1.0217  0.1569
 8834TIP3   OH247916   5.375   0.563   5.092  0.1125 -0.2401  0.5911
 8834TIP3    H147917   5.379   0.567   5.188  0.0038  2.6545  0.5771
 8834TIP3    H247918   5.295   0.515   5.073  0.1891 -0.9511  1.9487
 8835TIP3   OH247919   6.508   0.499   3.639 -0.1835 -1.0411 -0.1668
 8835TIP3    H147920   6.483   0.591   3.628  0.2422 -1.0985 -1.8710
 8835TIP3    H247921   6.549   0.495   3.726  2.3948  1.0072 -1.1663
 8836TIP3   OH247922   2.706   3.464   2.885 -0.6742 -0.7652 -0.4758
 8836TIP3    H147923   2.629   3.478   2.830  0.5654  0.0362 -2.0778
 8836TIP3    H247924   2.757   3.397   2.839  0.4378 -0.0164 -0.3720
 8837TIP3   OH247925   1.563   6.223  11.687 -0.7706  0.2739 -0.0013
 8837TIP3    H147926   1.603   6.140  11.661  0.2079  0.5825  0.4619
 8837TIP3    H247927   1.603   6.288  11.630  1.4945  0.9790  2.1904
 8838TIP3   OH247928   4.641   4.220  10.169  0.0309  0.4505 -0.3886
 8838TIP3    H147929   4.601   4.221  10.082  1.4981 -0.3175 -1.0922
 8838TIP3    H247930   4.590   4.285  10.218 -0.3111  1.5019 -2.0408
 8839TIP3   OH247931   4.108   5.670  13.663 -0.1216  0.0692  0.2382
 8839TIP3    H147932   4.032   5.709  13.707  0.6670 -0.1882  1.9139
 8839TIP3    H247933   4.152   5.620  13.731  1.4111 -0.0135 -0.7619
 8840TIP3   OH247934   0.740   0.088  12.151 -0.4076 -0.1095  0.3513
 8840TIP3    H147935   0.738   0.076  12.246 -0.5093  2.7469  0.7851
 8840TIP3    H247936   0.724   0.181  12.137 -0.1050 -0.3703 -2.4811
 8841TIP3   OH247937   1.624   5.877  10.460  0.1613 -0.3400  0.0749
 8841TIP3    H147938   1.611   5.865  10.554 -0.0989 -1.0242 -0.0379
 8841TIP3    H247939   1.542   5.912  10.428  0.1253 -0.4436  0.0520
 8842TIP3   OH247940   6.132   1.250   2.187 -0.1129  0.0994  0.0435
 8842TIP3    H147941   6.093   1.210   2.110  0.0224  0.1880 -0.0722
 8842TIP3    H247942   6.092   1.205   2.261 -0.0042 -0.2046 -0.0837
 8843TIP3   OH247943   4.495   3.359   5.262 -0.0381 -0.4609 -0.4679
 8843TIP3    H147944   4.480   3.396   5.349  0.3438 -0.0786 -0.5583
 8843TIP3    H247945   4.485   3.433   5.202 -2.3772 -1.1007 -0.9838
 8844TIP3   OH247946   3.690   4.123   4.031 -0.1795 -0.5865 -0.3295
 8844TIP3    H147947   3.727   4.145   3.946 -0.4325  0.1681 -0.2439
 8844TIP3    H247948   3.668   4.030   4.024  0.9477 -0.8477 -0.6635
 8845TIP3   OH247949   5.893   3.185  13.453 -0.1123  0.6027 -0.0026
 8845TIP3    H147950   5.822   3.130  13.417 -1.0195  2.2589 -0.8467
 8845TIP3    H247951   5.900   3.157  13.545 -1.4236 -0.0412 -0.0720
 8846TIP3   OH247952   0.751   0.184   3.165 -0.5992  0.2082  0.4628
 8846TIP3    H147953   0.840   0.151   3.176 -0.6285  0.3026  1.0383
 8846TIP3    H247954   0.698   0.128   3.222 -0.8180  0.5237  0.5702
 8847TIP3   OH247955   1.450   6.609  15.154 -0.4253 -0.1930 -0.4551
 8847TIP3    H147956   1.409   6.611  15.067  0.6319 -0.6355 -0.9911
 8847TIP3    H247957   1.446   6.699  15.185  1.8759  0.6346 -2.2947
 8848TIP3   OH247958   4.370   6.728   3.801  0.1372  0.0609 -0.8707
 8848TIP3    H147959   4.330   6.796   3.856  1.6596 -0.0680  0.4425
 8848TIP3    H247960   4.346   6.753   3.712 -1.2170  1.0516 -0.2700
 8849TIP3   OH247961   3.588   0.219   9.429 -0.2173 -0.2179  0.0619
 8849TIP3    H147962   3.594   0.134   9.473  0.0336 -0.7381 -0.9440
 8849TIP3    H247963   3.494   0.233   9.417 -0.5405  1.2843  3.2355
 8850TIP3   OH247964   1.803   0.538  11.845  0.2440 -0.2939  0.0666
 8850TIP3    H147965   1.828   0.595  11.917  0.1416 -0.6636  0.3962
 8850TIP3    H247966   1.739   0.477  11.882 -1.4979  0.8942 -0.8682
 8851TIP3   OH247967   1.035   1.400   6.157  0.1886  0.2149 -0.6836
 8851TIP3    H147968   0.947   1.423   6.127 -0.5954 -0.9413  0.6215
 8851TIP3    H247969   1.021   1.333   6.224  2.0233  0.5721  0.1180
 8852TIP3   OH247970   5.929   2.929   2.136  1.0040 -0.2870 -0.2848
 8852TIP3    H147971   5.881   2.855   2.173  0.2092  0.0203 -0.6937
 8852TIP3    H247972   5.889   3.006   2.176  0.8056 -0.0006 -1.0204
 8853TIP3   OH247973   3.328   2.919   4.242 -0.1881  0.0796  0.1092
 8853TIP3    H147974   3.277   2.911   4.323 -0.0776 -1.7686  0.0342
 8853TIP3    H247975   3.273   2.972   4.184 -1.7374 -1.2691  0.2838
 8854TIP3   OH247976   4.272   1.236   1.975 -0.3269  0.0032 -0.0895
 8854TIP3    H147977   4.334   1.250   2.046  1.9659 -3.2642 -1.2105
 8854TIP3    H247978   4.187   1.226   2.019  0.6265  0.2772  1.9395
 8855TIP3   OH247979   4.895   1.177   2.514  0.0829 -0.1948  0.2644
 8855TIP3    H147980   4.891   1.211   2.604  0.8989 -0.6009  0.4606
 8855TIP3    H247981   4.931   1.089   2.523  4.0737  1.1506 -0.7662
 8856TIP3   OH247982   2.710   5.795  10.135 -0.0005 -0.3902 -0.1760
 8856TIP3    H147983   2.649   5.828  10.200  0.1901 -2.0883  0.9360
 8856TIP3    H247984   2.735   5.872  10.083 -2.0976  0.5405  0.1240
 8857TIP3   OH247985   6.519   3.658   2.033  0.6184  0.1355  1.2046
 8857TIP3    H147986   6.516   3.659   2.129 -0.5957 -0.0643  1.1837
 8857TIP3    H247987   6.593   3.715   2.011  1.1208 -0.0803  2.2583
 8858TIP3   OH247988   1.264   4.889  11.962 -0.0952  0.1323  0.2840
 8858TIP3    H147989   1.316   4.816  11.995  0.1473  0.1610 -0.0349
 8858TIP3    H247990   1.323   4.965  11.964  0.4258 -0.1608 -1.6297
 8859TIP3   OH247991   7.047   3.420  15.173 -0.1552 -0.4248 -0.2132
 8859TIP3    H147992   6.992   3.478  15.226 -1.6386 -1.3336 -0.6890
 8859TIP3    H247993   7.133   3.425  15.214 -0.6842  0.6821  0.8589
 8860TIP3   OH247994   0.912   5.637   4.871  0.1657 -0.1412  0.0701
 8860TIP3    H147995   0.923   5.556   4.823 -1.6030 -0.4896  0.1769
 8860TIP3    H247996   0.871   5.611   4.953  1.1794  0.6850  0.8698
 8861TIP3   OH247997   5.835   7.132  13.207  0.1925 -0.2279 -0.4261
 8861TIP3    H147998   5.879   7.088  13.135 -0.5899 -1.8050  0.0139
 8861TIP3    H247999   5.786   7.063  13.251 -0.2252  0.9037  0.9594
 8862TIP3   OH248000   4.146   0.144   3.849 -0.1493  0.1624  0.2689
 8862TIP3    H148001   4.074   0.166   3.790  0.8434 -1.2571 -1.5401
 8862TIP3    H248002   4.225   0.153   3.796  0.5861 -4.3310  0.2779
 8863TIP3   OH248003   4.419   5.937   2.815  0.6578 -0.3980 -0.3608
 8863TIP3    H148004   4.403   6.017   2.866  0.0300  0.7162 -2.1985
 8863TIP3    H248005   4.513   5.921   2.825  0.8142  0.6316 -0.0357
 8864TIP3   OH248006   4.187   5.811  11.444  0.3073 -0.0648 -0.2941
 8864TIP3    H148007   4.125   5.738  11.436 -0.0553  0.2642 -0.5220
 8864TIP3    H248008   4.150   5.867  11.512  0.7640 -0.2626  0.1270
 8865TIP3   OH248009   4.531   3.860  10.732 -0.0913 -0.4601 -1.0009
 8865TIP3    H148010   4.460   3.795  10.730 -0.0358 -0.5353 -3.5441
 8865TIP3    H248011   4.515   3.915  10.656  2.0027  0.1612 -1.0405
 8866TIP3   OH248012   4.636   4.031  10.515  0.3764 -0.0523  0.2870
 8866TIP3    H148013   4.708   4.091  10.538  0.1373  0.3278  0.0548
 8866TIP3    H248014   4.573   4.086  10.469 -0.2739 -0.2827  0.8861
 8867TIP3   OH248015   3.708   4.436  12.448  0.5957 -0.5953 -0.3777
 8867TIP3    H148016   3.705   4.430  12.352  1.0219 -1.3361 -0.3585
 8867TIP3    H248017   3.764   4.512  12.465  1.3403 -1.0474 -0.7309
 8868TIP3   OH248018   0.861   7.057  14.331 -0.1532  0.2067 -0.0614
 8868TIP3    H148019   0.878   7.142  14.291 -2.4007  0.3644 -0.8467
 8868TIP3    H248020   0.769   7.040  14.312  0.7363 -3.4927 -1.9768
 8869TIP3   OH248021   4.097   0.420  13.179 -0.7184  0.2996 -0.1945
 8869TIP3    H148022   4.004   0.442  13.174 -0.8607 -0.4599 -2.1337
 8869TIP3    H248023   4.142   0.494  13.140 -0.5380  0.4600  0.3089
 8870TIP3   OH248024   0.031   5.321   3.351 -0.1115  0.0439 -0.3040
 8870TIP3    H148025   0.104   5.263   3.332  0.7936  1.2299 -0.4922
 8870TIP3    H248026   0.051   5.357   3.438 -0.6777  0.0635 -0.1778
 8871TIP3   OH248027   1.982   1.592   2.716 -0.1871  0.0229  0.5869
 8871TIP3    H148028   2.049   1.567   2.652 -1.4003 -2.3068  0.0965
 8871TIP3    H248029   2.030   1.641   2.783  2.0869 -1.6519  0.3243
 8872TIP3   OH248030   6.064   6.927  12.615 -0.4675  0.4545 -0.5658
 8872TIP3    H148031   6.025   7.015  12.615 -1.0913  0.2031  1.2596
 8872TIP3    H248032   5.991   6.868  12.626 -0.0241 -0.3194 -1.6128
 8873TIP3   OH248033   4.814   5.295  10.779  0.2071  0.3208  0.3623
 8873TIP3    H148034   4.818   5.351  10.701  0.2191  0.6014  0.5644
 8873TIP3    H248035   4.837   5.354  10.851  0.3717  0.0187  0.5562
 8874TIP3   OH248036   4.774   6.255   0.461  0.2669 -0.2569 -0.1801
 8874TIP3    H148037   4.689   6.211   0.457 -0.6844  1.1258  2.3963
 8874TIP3    H248038   4.814   6.221   0.541  0.7083  1.4636  0.3621
 8875TIP3   OH248039   5.368   6.035   9.543  0.0490  0.6014  0.7190
 8875TIP3    H148040   5.279   6.057   9.568  0.0524  0.6256  0.7097
 8875TIP3    H248041   5.363   5.945   9.510 -0.2639  1.1314 -0.7728
 8876TIP3   OH248042   0.759   7.017  10.447 -0.2499 -0.1949  0.4859
 8876TIP3    H148043   0.800   6.999  10.532  0.8703  0.3593  0.0819
 8876TIP3    H248044   0.817   7.080  10.405 -0.1052 -1.3793 -1.1973
 8877TIP3   OH248045   6.752   4.688   5.144  0.0166  0.0090 -0.0232
 8877TIP3    H148046   6.723   4.747   5.214  0.3054  1.8410 -1.3654
 8877TIP3    H248047   6.832   4.648   5.178  0.1560  0.8744  0.7087
 8878TIP3   OH248048   6.383   6.698  14.106  0.1342 -1.2753  0.3527
 8878TIP3    H148049   6.323   6.671  14.176 -0.2837 -1.0887  0.0668
 8878TIP3    H248050   6.468   6.705  14.150 -0.1296 -1.1233  0.8543
 8879TIP3   OH248051   5.358   4.222   4.409  0.0828 -0.4153  0.3014
 8879TIP3    H148052   5.280   4.273   4.430 -0.3460 -1.4676  1.4317
 8879TIP3    H248053   5.368   4.232   4.315  1.3131  3.4880  0.6711
 8880TIP3   OH248054   1.851   5.745   4.114  0.0737 -0.3805 -0.4823
 8880TIP3    H148055   1.895   5.821   4.075 -0.6927 -0.3058 -1.2496
 8880TIP3    H248056   1.872   5.750   4.207 -0.7553  1.3464 -0.3450
 8881TIP3   OH248057   3.461   4.097  15.450 -0.4959 -0.1744 -0.2418
 8881TIP3    H148058   3.513   4.141  15.383 -2.6663  0.4973 -1.5509
 8881TIP3    H248059   3.428   4.167  15.505 -2.4496 -0.2448 -1.2400
 8882TIP3   OH248060   1.350   5.675   0.442  0.3605 -0.0846 -0.5189
 8882TIP3    H148061   1.392   5.611   0.385  1.4295  0.5650 -0.4889
 8882TIP3    H248062   1.413   5.747   0.448 -1.1931  1.4293 -1.3434
 8883TIP3   OH248063   5.856   5.791   1.200 -0.8175 -0.6616  0.1016
 8883TIP3    H148064   5.803   5.714   1.180 -0.9292 -0.4418 -0.4691
 8883TIP3    H248065   5.888   5.776   1.289 -2.3996 -0.4817  0.7274
 8884TIP3   OH248066   7.077   3.957  14.273 -0.1371  0.4532  0.0915
 8884TIP3    H148067   7.030   4.038  14.293  0.5736  0.6051  1.2366
 8884TIP3    H248068   7.066   3.903  14.351 -1.2872 -0.9185 -0.9653
 8885TIP3   OH248069   2.877   1.928   3.499  0.6977  0.2402  0.2398
 8885TIP3    H148070   2.824   1.879   3.436  0.3913  0.7023  0.1313
 8885TIP3    H248071   2.813   1.968   3.558  0.8617  1.3798 -0.3092
 8886TIP3   OH248072   6.253   6.041   1.911  0.3029  0.4051 -0.3059
 8886TIP3    H148073   6.232   5.971   1.973 -0.6874 -0.4468 -1.5570
 8886TIP3    H248074   6.285   5.995   1.833 -3.5392  1.0118 -2.4522
 8887TIP3   OH248075   6.599   6.685  12.698 -0.1293 -0.0803 -0.3377
 8887TIP3    H148076   6.540   6.760  12.711 -0.3697 -0.5778  1.7424
 8887TIP3    H248077   6.546   6.621  12.651 -1.1605 -0.3474  1.1124
 8888TIP3   OH248078   1.454   6.681  10.440  0.1193  0.3747  0.4731
 8888TIP3    H148079   1.524   6.743  10.419  0.7957 -0.2573  0.8047
 8888TIP3    H248080   1.498   6.596  10.447 -1.2094 -0.8142 -3.1803
 8889TIP3   OH248081   6.530   0.244   4.776  0.0911 -0.0542 -0.5527
 8889TIP3    H148082   6.466   0.286   4.719  0.2680 -1.0381 -1.5139
 8889TIP3    H248083   6.478   0.186   4.832  0.1633 -1.4494 -1.8657
 8890TIP3   OH248084   0.254   0.480  14.535  0.3593  0.3231 -0.1414
 8890TIP3    H148085   0.279   0.452  14.447 -2.1092  2.2077 -1.5670
 8890TIP3    H248086   0.198   0.410  14.568  1.8009 -0.6824  0.2394
 8891TIP3   OH248087   2.887   5.502   0.343 -0.3456  0.1758 -0.3548
 8891TIP3    H148088   2.824   5.450   0.294 -0.0295 -1.7013  1.1173
 8891TIP3    H248089   2.846   5.516   0.429 -0.0030  1.5521 -0.3817
 8892TIP3   OH248090   0.037   3.214  13.671 -0.5494  0.4921 -0.4265
 8892TIP3    H148091  -0.002   3.233  13.586 -0.6054  1.8536 -0.1166
 8892TIP3    H248092  -0.032   3.231  13.734 -0.7002 -1.1127 -0.1233
 8893TIP3   OH248093   2.575   5.877  10.784 -0.2090  0.0721 -0.1625
 8893TIP3    H148094   2.533   5.870  10.698 -0.9070 -1.5404  0.2668
 8893TIP3    H248095   2.669   5.876  10.765 -0.2957 -2.4564 -0.8557
 8894TIP3   OH248096   1.505   1.664   4.428  0.2264 -0.3389 -0.5676
 8894TIP3    H148097   1.412   1.648   4.443  0.7302 -1.8765  1.2230
 8894TIP3    H248098   1.531   1.598   4.364  1.0378 -3.3596  2.5523
 8895TIP3   OH248099   4.860   0.425   4.998 -0.1156 -0.3052  0.0790
 8895TIP3    H148100   4.934   0.459   4.948 -1.1634  1.4226 -0.3857
 8895TIP3    H248101   4.883   0.334   5.016  1.8036 -0.0075 -0.6249
 8896TIP3   OH248102   4.321   6.267   2.656  0.1720  0.0460 -0.6031
 8896TIP3    H148103   4.366   6.231   2.733  0.7812  4.2339  1.2917
 8896TIP3    H248104   4.381   6.251   2.584  0.9629 -1.4694  0.3403
 8897TIP3   OH248105   2.599   3.076  14.895 -0.2697  0.3711 -0.3996
 8897TIP3    H148106   2.515   3.098  14.855 -0.8149 -1.1070 -0.1186
 8897TIP3    H248107   2.580   3.062  14.987  0.5119  1.1391 -0.1002
 8898TIP3   OH248108   5.554   0.924   0.544  0.0576 -0.0860 -0.3021
 8898TIP3    H148109   5.590   0.904   0.631 -0.1451  1.7347  0.2543
 8898TIP3    H248110   5.460   0.911   0.554 -0.2052  1.9926  0.3806
 8899TIP3   OH248111   3.215   4.853  11.168  0.3918 -0.4499 -0.0141
 8899TIP3    H148112   3.197   4.913  11.096 -0.7928  1.3824  1.7017
 8899TIP3    H248113   3.283   4.795  11.134  0.5699  0.9460 -2.2551
 8900TIP3   OH248114   2.021   3.514  15.236 -0.2296 -0.1167  0.1094
 8900TIP3    H148115   2.052   3.449  15.173  0.8084 -0.4444  0.9214
 8900TIP3    H248116   2.028   3.598  15.189  0.0380 -0.4142 -0.3884
 8901TIP3   OH248117   0.499   3.340  13.650  1.2190  0.1187  0.1474
 8901TIP3    H148118   0.419   3.357  13.700  1.6191  1.3825  0.3984
 8901TIP3    H248119   0.491   3.394  13.572  1.2038 -0.8407 -0.5371
 8902TIP3   OH248120   0.436   5.073  12.350  0.0208  0.3269 -0.7463
 8902TIP3    H148121   0.458   5.123  12.271 -1.5940  1.0825 -0.7574
 8902TIP3    H248122   0.520   5.040  12.382  1.1368  2.7267 -0.9724
 8903TIP3   OH248123   4.231   5.068   1.863  0.2106  0.1217  0.0297
 8903TIP3    H148124   4.179   5.043   1.787 -0.7985 -1.8354  1.2938
 8903TIP3    H248125   4.321   5.071   1.831  0.0554 -2.5170 -0.8792
 8904TIP3   OH248126   6.275   4.062  11.647  0.6142 -0.0392 -0.0508
 8904TIP3    H148127   6.286   3.985  11.592 -0.8431 -0.8774  0.7662
 8904TIP3    H248128   6.191   4.049  11.690  0.3641  2.0009  0.1524
 8905TIP3   OH248129   2.731   5.004   2.521 -0.3368 -0.0830  0.0985
 8905TIP3    H148130   2.713   5.064   2.593  2.1158  1.1569 -0.2118
 8905TIP3    H248131   2.782   4.933   2.561  1.0105  0.5963 -0.3370
 8906TIP3   OH248132   2.594   4.411  12.586  0.2178  0.4439 -0.1399
 8906TIP3    H148133   2.632   4.328  12.558  0.2665  0.7055 -0.8652
 8906TIP3    H248134   2.553   4.391  12.670  0.0964 -0.3507 -0.3790
 8907TIP3   OH248135   3.726   6.981  13.296  0.4735  0.1475 -0.2617
 8907TIP3    H148136   3.775   7.059  13.272 -0.8749  1.5459  1.2519
 8907TIP3    H248137   3.723   6.928  13.216 -0.1427  2.5051 -1.8791
 8908TIP3   OH248138   1.428   0.828   4.818  0.2256 -0.3578  0.4287
 8908TIP3    H148139   1.369   0.778   4.762  0.4487 -0.7627  0.5476
 8908TIP3    H248140   1.432   0.915   4.779 -1.3946  0.0523  1.0885
 8909TIP3   OH248141   4.562   2.389  14.133 -0.1819  0.1540  0.1983
 8909TIP3    H148142   4.542   2.356  14.046 -1.9047  0.1081  0.5836
 8909TIP3    H248143   4.658   2.383  14.140 -0.0379 -0.0480 -1.5846
 8910TIP3   OH248144   0.935   3.831  13.471 -0.1163 -0.4326  0.0039
 8910TIP3    H148145   0.926   3.836  13.566 -0.6450 -1.1395 -0.0116
 8910TIP3    H248146   1.011   3.887  13.452  0.3404 -0.7330  0.8913
 8911TIP3   OH248147   1.562   1.035  12.993 -0.3000  0.2258  0.0410
 8911TIP3    H148148   1.619   1.107  12.966  0.1391 -0.2508 -0.3254
 8911TIP3    H248149   1.590   0.961  12.939 -1.6817  0.1427 -0.5944
 8912TIP3   OH248150   5.010   0.785  11.847 -0.3042  0.4089  0.0511
 8912TIP3    H148151   5.087   0.818  11.801  0.0745  0.2967  0.5997
 8912TIP3    H248152   4.951   0.860  11.853 -0.9837  0.0933 -1.8744
 8913TIP3   OH248153   2.315   1.036   9.497  0.2446  0.3594  0.0183
 8913TIP3    H148154   2.283   0.946   9.492 -0.0293  0.2567  2.3145
 8913TIP3    H248155   2.236   1.090   9.500  0.2542  0.3578  2.1967
 8914TIP3   OH248156   1.109   4.295   2.492  0.1436 -0.0549  0.0347
 8914TIP3    H148157   1.183   4.239   2.468  1.8112  2.0790 -0.0948
 8914TIP3    H248158   1.134   4.332   2.576 -0.5035  1.1347 -0.2779
 8915TIP3   OH248159   2.227   0.380  10.786 -0.2393 -0.2442 -0.0853
 8915TIP3    H148160   2.212   0.424  10.869  0.9895 -1.3080  0.7446
 8915TIP3    H248161   2.140   0.370  10.748 -1.3205 -2.5429  2.5776
 8916TIP3   OH248162   6.291   0.582   2.894  0.4089  0.4708 -0.6831
 8916TIP3    H148163   6.363   0.627   2.938  0.1405  0.0318  0.2372
 8916TIP3    H248164   6.327   0.496   2.871  0.0951  0.1225  0.0833
 8917TIP3   OH248165   6.276   2.210  11.374  0.0237  0.1951 -0.1111
 8917TIP3    H148166   6.201   2.267  11.391  0.3818  0.2804  1.2480
 8917TIP3    H248167   6.258   2.173  11.287 -0.5897  1.7500 -0.6706
 8918TIP3   OH248168   0.625   5.384   9.620 -0.0322 -0.2648 -0.1875
 8918TIP3    H148169   0.535   5.355   9.606 -0.0652  0.8875 -2.9733
 8918TIP3    H248170   0.678   5.305   9.611 -0.6607 -0.7650  0.3886
 8919TIP3   OH248171   6.422   3.115   4.027  0.2012  0.0212 -0.2201
 8919TIP3    H148172   6.392   3.031   3.993 -0.5369  0.0570  0.3163
 8919TIP3    H248173   6.498   3.137   3.973 -0.9232  0.0882 -1.8513
 8920TIP3   OH248174   5.884   5.290   1.225 -0.2435 -0.0207 -0.1470
 8920TIP3    H148175   5.841   5.366   1.264  0.2826 -0.4636  1.3391
 8920TIP3    H248176   5.813   5.240   1.185 -0.7904  0.4678  0.1987
 8921TIP3   OH248177   0.390   4.960  14.732 -0.4938  0.3446 -0.2698
 8921TIP3    H148178   0.453   4.968  14.804 -1.3778  0.8113  0.4816
 8921TIP3    H248179   0.345   4.876  14.748  0.2960 -0.2645 -1.1225
 8922TIP3   OH248180   1.144   5.291  15.103 -0.0346  0.3042 -0.0518
 8922TIP3    H148181   1.063   5.306  15.152 -1.3892 -1.2055 -1.7273
 8922TIP3    H248182   1.151   5.366  15.045 -0.9918 -0.2098 -0.8562
 8923TIP3   OH248183   3.626   5.078  12.225  0.1502  0.0507  0.0691
 8923TIP3    H148184   3.682   5.147  12.261 -1.7171  0.8091  1.7065
 8923TIP3    H248185   3.590   5.034  12.302 -0.7302 -1.0509 -0.9350
 8924TIP3   OH248186   2.157   2.108  11.694  0.2173  0.2358  0.2484
 8924TIP3    H148187   2.227   2.146  11.748  0.5220  0.7790 -0.5105
 8924TIP3    H248188   2.136   2.026  11.738  0.1419  0.8695  1.4545
 8925TIP3   OH248189   1.141   0.555  13.174 -0.1891  0.0212  0.0528
 8925TIP3    H148190   1.216   0.505  13.204 -0.0578  0.2924  0.1839
 8925TIP3    H248191   1.140   0.544  13.079 -1.8844 -2.6578  0.2838
 8926TIP3   OH248192   5.312   2.599  15.516  0.4475  0.3685 -0.2755
 8926TIP3    H148193   5.345   2.609  15.427  1.1832  0.0945 -0.0405
 8926TIP3    H248194   5.390   2.586  15.570  0.0589  1.0974  0.4971
 8927TIP3   OH248195   3.857   4.919  11.436  0.2395 -0.4362  0.2524
 8927TIP3    H148196   3.887   4.917  11.527  0.0234 -0.9584  0.3180
 8927TIP3    H248197   3.931   4.888  11.385  0.3916 -0.0540  0.2442
 8928TIP3   OH248198   3.855   4.205   2.545  0.0788 -0.0459 -0.3361
 8928TIP3    H148199   3.890   4.256   2.618  0.1850  1.7011 -1.5545
 8928TIP3    H248200   3.916   4.222   2.473  1.1398 -3.3477 -0.3754
 8929TIP3   OH248201   2.523   4.986   0.843  0.2439  0.5098  0.7970
 8929TIP3    H148202   2.468   4.983   0.765  0.2794 -2.3915  0.7483
 8929TIP3    H248203   2.572   4.903   0.841  1.1492  0.8887  3.2493
 8930TIP3   OH248204   6.133   0.250   1.571 -0.1886  0.1513 -0.0473
 8930TIP3    H148205   6.211   0.301   1.593 -0.1742  0.2062 -0.2236
 8930TIP3    H248206   6.140   0.171   1.624  0.6005 -0.3983 -0.9433
 8931TIP3   OH248207   4.131   4.592  13.143  0.1304  0.8698  0.0283
 8931TIP3    H148208   4.113   4.683  13.120 -2.6434  1.1411  2.5658
 8931TIP3    H248209   4.146   4.548  13.059 -0.4252  3.2839 -1.4323
 8932TIP3   OH248210   6.699   4.897   3.460  0.0711 -0.3118  0.4791
 8932TIP3    H148211   6.647   4.977   3.446 -0.4566 -0.4803  1.4162
 8932TIP3    H248212   6.786   4.929   3.483 -0.2923  0.0201  1.4589
 8933TIP3   OH248213   2.430   1.883  11.443 -0.1582 -0.1090 -0.5229
 8933TIP3    H148214   2.432   1.880  11.539  0.4250 -0.9173 -0.5542
 8933TIP3    H248215   2.340   1.907  11.422 -0.4985 -0.6894  0.2096
 8934TIP3   OH248216   1.673   3.689   9.973 -0.4182  0.0485 -0.6757
 8934TIP3    H148217   1.649   3.780   9.990  1.7201  1.0753 -2.7049
 8934TIP3    H248218   1.735   3.667  10.042 -0.6911  0.2485 -0.3668
 8935TIP3   OH248219   5.972   3.480   9.993 -0.2980  1.0457 -0.1687
 8935TIP3    H148220   5.933   3.418   9.932 -1.6538  1.7800 -0.0750
 8935TIP3    H248221   6.031   3.533   9.939  0.6093 -0.0571 -0.3083
 8936TIP3   OH248222   0.213   4.065   1.290 -0.3738  0.0887  0.6345
 8936TIP3    H148223   0.135   4.102   1.332 -0.6539 -0.6447  0.7655
 8936TIP3    H248224   0.253   4.140   1.245 -1.6802  0.2865 -0.2707
 8937TIP3   OH248225   6.244   3.131  11.006 -0.0397  0.3066 -0.8314
 8937TIP3    H148226   6.262   3.047  10.963 -1.9927  0.2007 -1.5539
 8937TIP3    H248227   6.185   3.109  11.078  0.2179  0.9579 -0.4114
 8938TIP3   OH248228   5.726   0.101  14.671 -0.3550 -0.2977 -0.4792
 8938TIP3    H148229   5.807   0.151  14.666 -0.9025  0.5624 -1.0416
 8938TIP3    H248230   5.661   0.165  14.700 -0.4465 -1.4547  2.1984
 8939TIP3   OH248231   2.120   1.939  11.423 -0.0119 -0.3691  0.3376
 8939TIP3    H148232   2.105   1.986  11.504 -0.5894 -1.0352  0.6273
 8939TIP3    H248233   2.084   1.852  11.439  3.0799 -1.7313  0.6901
 8940TIP3   OH248234   2.134   7.100   0.229 -0.1032 -0.1438  0.3783
 8940TIP3    H148235   2.205   7.154   0.264  1.4178 -1.6070 -0.2593
 8940TIP3    H248236   2.172   7.060   0.150 -1.3522 -1.6156  0.4837
 8941TIP3   OH248237   3.464   3.324  12.934  0.2565  0.1724  0.3874
 8941TIP3    H148238   3.469   3.355  12.843  1.8581 -0.9999  0.0176
 8941TIP3    H248239   3.373   3.299  12.946 -0.3147  1.7884 -0.3892
 8942TIP3   OH248240   5.564   0.108   9.803  0.2051  0.4750 -0.2475
 8942TIP3    H148241   5.586   0.019   9.773 -2.3371 -0.2141 -0.2895
 8942TIP3    H248242   5.525   0.150   9.727 -2.2231  0.2261  0.7693
 8943TIP3   OH248243   2.104   1.690   3.786  0.2320 -0.5232  0.6532
 8943TIP3    H148244   2.106   1.780   3.753  1.4679 -0.4475  0.8921
 8943TIP3    H248245   2.091   1.636   3.708 -0.1880 -0.1645  0.4704
 8944TIP3   OH248246   5.607   4.517  15.339  0.0026  0.5222  0.0510
 8944TIP3    H148247   5.611   4.564  15.422 -0.1120  0.5410  0.0455
 8944TIP3    H248248   5.579   4.429  15.363 -1.3671  0.9019 -0.1172
 8945TIP3   OH248249   2.351   6.536  10.913 -0.2116  0.2039  0.2531
 8945TIP3    H148250   2.440   6.545  10.880 -0.2476  0.6203  0.2670
 8945TIP3    H248251   2.348   6.449  10.952  0.5384  0.6422  1.3133
 8946TIP3   OH248252   7.076   3.622   2.692  0.2997  0.0146 -0.2827
 8946TIP3    H148253   7.004   3.559   2.686  1.0507 -1.0001  0.7790
 8946TIP3    H248254   7.149   3.579   2.649  1.0355 -0.2108  1.1207
 8947TIP3   OH248255   1.938   5.874   9.969  0.0094 -0.2366  0.1073
 8947TIP3    H148256   2.006   5.829   9.917 -2.8366 -2.3192 -2.1566
 8947TIP3    H248257   1.966   5.965   9.970  1.8464 -0.6295 -2.5448
 8948TIP3   OH248258   6.402   4.992   2.438  0.1352 -0.0943 -0.4164
 8948TIP3    H148259   6.364   4.904   2.429 -0.6715  0.3049 -1.0532
 8948TIP3    H248260   6.487   4.977   2.479 -1.5578 -0.8794  3.2612
 8949TIP3   OH248261   1.756   5.265  12.360 -0.2093 -0.0488  0.4114
 8949TIP3    H148262   1.744   5.257  12.454 -0.7013 -0.8761  0.2853
 8949TIP3    H248263   1.788   5.179  12.332 -0.7017 -0.0241 -0.2650
 8950TIP3   OH248264   6.794   3.565  14.595  0.3394  0.2063  0.2727
 8950TIP3    H148265   6.872   3.554  14.650 -0.0251 -0.8519  0.5875
 8950TIP3    H248266   6.774   3.477  14.563 -0.6693  0.4814  0.1121
 8951TIP3   OH248267   2.331   5.457  14.714  0.3129  0.0808 -0.3254
 8951TIP3    H148268   2.314   5.453  14.808  0.5636 -0.8558 -0.3054
 8951TIP3    H248269   2.301   5.543  14.687 -0.3309  0.1238  0.5033
 8952TIP3   OH248270   7.132   3.630  13.774  0.1704 -0.0006 -0.2695
 8952TIP3    H148271   7.173   3.640  13.860  1.7572  0.2950 -1.0128
 8952TIP3    H248272   7.047   3.673  13.783 -0.2693 -1.0905  1.4906
 8953TIP3   OH248273   4.816   3.156  15.609 -0.1911 -0.7640  0.1718
 8953TIP3    H148274   4.809   3.118  15.522 -1.5793  0.5353 -0.3199
 8953TIP3    H248275   4.860   3.240  15.596 -0.0370 -0.7383  0.7884
 8954TIP3   OH248276   0.993   3.298  11.526  0.1322  0.2928 -0.1184
 8954TIP3    H148277   1.047   3.278  11.449  0.0904  1.4224 -0.4613
 8954TIP3    H248278   0.991   3.216  11.576 -0.0961 -0.5695 -1.4760
 8955TIP3   OH248279   4.040   6.778  13.744  0.0246 -0.3171  0.1402
 8955TIP3    H148280   4.094   6.716  13.792  0.2071  0.3310  0.7799
 8955TIP3    H248281   4.102   6.828  13.691  0.0913  0.5294  0.9891
 8956TIP3   OH248282   5.179   4.845   0.456  0.6559  0.0461 -1.2330
 8956TIP3    H148283   5.253   4.818   0.402 -1.1756  0.2497 -4.0572
 8956TIP3    H248284   5.154   4.930   0.420  0.0392  0.7480  0.7605
 8957TIP3   OH248285   2.949   3.211  13.763  0.0282 -0.4811 -0.1243
 8957TIP3    H148286   2.936   3.259  13.845 -0.1284 -1.1436  0.2490
 8957TIP3    H248287   2.860   3.186  13.736  0.0679 -0.1463 -0.5680
 8958TIP3   OH248288   2.423   5.528   9.614  0.0090  0.4652 -0.2022
 8958TIP3    H148289   2.349   5.534   9.675 -0.8320 -0.5828 -1.0606
 8958TIP3    H248290   2.387   5.558   9.530  0.3045 -0.7445 -0.7980
 8959TIP3   OH248291   6.770   1.466  14.646  0.5617  0.1855  0.3582
 8959TIP3    H148292   6.801   1.548  14.608  0.5679  1.0285  2.0610
 8959TIP3    H248293   6.675   1.468  14.632  0.5922  0.3734  0.1678
 8960TIP3   OH248294   6.294   0.728  13.656 -0.0056 -0.4823 -0.6438
 8960TIP3    H148295   6.285   0.636  13.633 -0.8869 -1.4312  2.7871
 8960TIP3    H248296   6.210   0.767  13.632  0.1178 -0.7222 -1.4815
 8961TIP3   OH248297   7.096   2.584  15.507 -0.2897 -0.2542  0.0243
 8961TIP3    H148298   7.113   2.668  15.464 -1.5492  0.6914  1.2903
 8961TIP3    H248299   7.125   2.518  15.443  1.2824  1.1219 -0.7573
 8962TIP3   OH248300   6.749   6.310  11.993 -0.0041 -0.0989  0.0398
 8962TIP3    H148301   6.692   6.234  12.008 -0.3166  0.1819  0.2714
 8962TIP3    H248302   6.759   6.349  12.079  1.3744 -0.7338  0.1900
 8963TIP3   OH248303   6.662   3.399  10.366  0.4858  0.1992 -0.0149
 8963TIP3    H148304   6.691   3.401  10.275  0.8486  2.6814  0.0770
 8963TIP3    H248305   6.690   3.314  10.399  1.6719 -0.1578 -1.8238
 8964TIP3   OH248306   0.058   1.845   3.155  0.0389  0.3143  0.5678
 8964TIP3    H148307   0.086   1.887   3.073 -0.4608  0.5172  0.5029
 8964TIP3    H248308   0.140   1.813   3.193  0.6608  2.6757  1.3712
 8965TIP3   OH248309   4.820   0.062   5.507  0.6340  0.1350 -0.0966
 8965TIP3    H148310   4.803  -0.019   5.556  0.8560 -0.5983 -1.1980
 8965TIP3    H248311   4.831   0.128   5.575 -1.3476 -0.3759  0.7977
 8966TIP3   OH248312   3.071   2.193  10.608 -0.1939  0.3832 -0.7474
 8966TIP3    H148313   3.107   2.282  10.610 -3.2857  1.8010 -1.3287
 8966TIP3    H248314   3.090   2.157  10.695 -0.3475  2.2934  0.1239
 8967TIP3   OH248315   6.824   6.025   1.047  0.3698 -0.7298  0.4679
 8967TIP3    H148316   6.877   5.949   1.069 -0.0285 -1.3044 -0.5152
 8967TIP3    H248317   6.756   5.992   0.989 -1.0848 -0.0116  1.6787
 8968TIP3   OH248318   4.095   5.096   3.741 -0.1727  0.4796  0.0473
 8968TIP3    H148319   4.108   5.187   3.767  0.5805  0.7230 -1.0949
 8968TIP3    H248320   4.154   5.046   3.798 -1.1745  0.5961  1.2247
 8969TIP3   OH248321   2.835   2.314   2.031 -0.0993 -0.0149  0.5847
 8969TIP3    H148322   2.808   2.230   1.991  0.4824 -0.1213  0.4025
 8969TIP3    H248323   2.752   2.360   2.048 -0.3945 -0.2956 -0.0422
 8970TIP3   OH248324   2.978   4.445  14.410  0.1634  0.1336  0.3127
 8970TIP3    H148325   3.025   4.489  14.339  1.6511 -0.7734  0.7010
 8970TIP3    H248326   2.976   4.353  14.384  1.8462 -0.4369  1.9824
 8971TIP3   OH248327   4.526   0.017   4.683  0.4064 -0.1888  0.4649
 8971TIP3    H148328   4.608   0.040   4.726  0.5042  2.1034 -0.7817
 8971TIP3    H248329   4.460   0.072   4.726 -0.4748 -1.8217  1.2831
 8972TIP3   OH248330   5.186   2.858   4.042  0.3772 -0.0910 -0.0819
 8972TIP3    H148331   5.129   2.851   3.966  1.4965 -0.0848 -0.9560
 8972TIP3    H248332   5.127   2.869   4.116 -0.7848 -1.1792 -0.8056
 8973TIP3   OH248333   2.078   1.905   0.198 -0.4098 -0.2697 -0.1247
 8973TIP3    H148334   2.173   1.901   0.209 -0.4245 -0.7667 -0.1660
 8973TIP3    H248335   2.049   1.814   0.208 -1.2386  0.2243  3.1829
 8974TIP3   OH248336   1.668   1.262   4.347 -0.4756 -0.7408  0.4390
 8974TIP3    H148337   1.713   1.264   4.431  0.7403  0.7814 -0.1827
 8974TIP3    H248338   1.647   1.170   4.332  1.0674 -1.3048  1.5013
 8975TIP3   OH248339   6.593   1.753  11.171  0.6218  0.3667  0.0728
 8975TIP3    H148340   6.688   1.743  11.177  0.6464  0.0216 -0.8901
 8975TIP3    H248341   6.567   1.703  11.095 -0.1157  1.9019 -0.7459
 8976TIP3   OH248342   0.882   1.996  10.174 -0.4173  0.6961 -0.0791
 8976TIP3    H148343   0.902   1.903  10.159 -0.8567  0.7768 -1.2670
 8976TIP3    H248344   0.968   2.038  10.179 -0.0841 -0.0941  3.1248
 8977TIP3   OH248345   4.018   1.394   5.195  0.2400 -0.1551 -0.2625
 8977TIP3    H148346   3.987   1.459   5.132 -0.6158 -1.4046 -1.1787
 8977TIP3    H248347   3.938   1.351   5.226  0.7855 -0.7166  0.3890
 8978TIP3   OH248348   1.378   0.779   9.666  0.3234 -0.8309 -0.3897
 8978TIP3    H148349   1.341   0.854   9.619 -0.2169 -1.3147 -0.7531
 8978TIP3    H248350   1.313   0.709   9.655  1.2380 -1.6435 -0.8801
 8979TIP3   OH248351   3.261   1.974   1.826  0.3277 -0.1582  0.1736
 8979TIP3    H148352   3.344   1.927   1.838 -1.0119 -2.2213  2.4119
 8979TIP3    H248353   3.200   1.908   1.795 -1.7076 -0.1846  3.6783
 8980TIP3   OH248354   3.343   3.608   0.822  0.4424 -0.3335  0.0331
 8980TIP3    H148355   3.272   3.558   0.781  0.0202  0.8942 -0.7748
 8980TIP3    H248356   3.301   3.656   0.893  0.2878  0.9676 -0.9079
 8981TIP3   OH248357   3.564   5.852  11.597  0.2281 -0.1783  0.3569
 8981TIP3    H148358   3.563   5.926  11.658  2.3932  0.7266 -0.6291
 8981TIP3    H248359   3.471   5.837  11.577 -0.3640  1.1523  1.8724
 8982TIP3   OH248360   5.266   5.464  10.757 -0.8732 -0.0513  0.4198
 8982TIP3    H148361   5.330   5.478  10.826  0.5932 -0.9330 -0.6961
 8982TIP3    H248362   5.223   5.549  10.747  0.6434  0.7933  0.7067
 8983TIP3   OH248363   1.815   5.160  14.830 -0.5385 -0.1889  0.4997
 8983TIP3    H148364   1.902   5.172  14.867 -0.6991  0.3839  0.7119
 8983TIP3    H248365   1.828   5.170  14.736 -0.5087  0.8462  0.5941
 8984TIP3   OH248366   0.099   5.396   4.764  0.9654 -0.6508  0.0051
 8984TIP3    H148367   0.091   5.492   4.762 -1.5009 -0.8109 -2.0154
 8984TIP3    H248368   0.183   5.378   4.721  0.7933  0.5670 -0.8884
 8985TIP3   OH248369   0.108   3.091   4.135 -0.4300 -0.1555 -0.0567
 8985TIP3    H148370   0.077   3.063   4.049 -1.2772  1.1767 -0.2198
 8985TIP3    H248371   0.124   3.185   4.124 -2.0370  0.3651  1.6317
 8986TIP3   OH248372   1.781   6.483  11.659 -0.0689 -0.3005  0.4006
 8986TIP3    H148373   1.822   6.512  11.578  1.2740  0.1601  1.2210
 8986TIP3    H248374   1.694   6.453  11.632  0.4917 -0.5325 -1.2562
 8987TIP3   OH248375   1.038   3.962  10.542 -0.3622  0.2447  0.7430
 8987TIP3    H148376   1.021   3.878  10.585 -1.0833  0.7927  1.5776
 8987TIP3    H248377   0.959   3.977  10.490  0.7810 -0.7294 -1.3543
 8988TIP3   OH248378   1.250   6.226  13.073  0.0147 -0.4766  0.3978
 8988TIP3    H148379   1.224   6.134  13.076  0.7026 -0.6609  1.6471
 8988TIP3    H248380   1.327   6.231  13.129  0.7502  0.6407 -0.6715
 8989TIP3   OH248381   1.025   0.780  12.962 -0.4132 -0.1362  0.3442
 8989TIP3    H148382   0.954   0.719  12.943 -0.3779 -0.3355  0.8519
 8989TIP3    H248383   1.101   0.725  12.976  0.3470  0.1233 -2.1444
 8990TIP3   OH248384   1.254   0.677  10.490 -0.3218  0.2197  0.5167
 8990TIP3    H148385   1.182   0.733  10.462  1.3599  1.6048 -1.3929
 8990TIP3    H248386   1.214   0.593  10.510 -2.3071  0.3878 -2.1915
 8991TIP3   OH248387   1.131   6.889  13.172  0.0039 -0.6847  0.7588
 8991TIP3    H148388   1.056   6.845  13.131  0.5038 -0.2232 -0.7333
 8991TIP3    H248389   1.093   6.961  13.222 -0.6134 -1.0672  0.8500
 8992TIP3   OH248390   6.253   1.967  14.397 -0.4453 -0.5461 -0.3702
 8992TIP3    H148391   6.178   1.948  14.453  0.5007  0.0049  1.1577
 8992TIP3    H248392   6.327   1.928  14.443  0.6250  1.4160 -0.3200
 8993TIP3   OH248393   5.575   2.752  13.392 -0.6070  0.4150 -0.2141
 8993TIP3    H148394   5.608   2.833  13.352  1.0665 -0.2458 -0.2404
 8993TIP3    H248395   5.554   2.695  13.318  0.8856 -0.1873 -0.1939
 8994TIP3   OH248396   3.350   5.745  12.814  0.7741  0.9649  0.5439
 8994TIP3    H148397   3.409   5.679  12.850 -0.0154 -0.1432 -0.1541
 8994TIP3    H248398   3.311   5.704  12.737 -0.2953  1.9662  0.5212
 8995TIP3   OH248399   0.328   4.883   0.069  0.0574  0.2338 -0.2025
 8995TIP3    H148400   0.256   4.836   0.110  1.4112 -1.5756  0.2501
 8995TIP3    H248401   0.343   4.837  -0.014  0.4747  0.7910 -0.4484
 8996TIP3   OH248402   2.074   0.951  13.243  0.0532  0.3422  0.4941
 8996TIP3    H148403   2.118   0.872  13.211 -0.5630  0.6727 -1.2419
 8996TIP3    H248404   1.988   0.920  13.270  0.0700  0.3016  0.5026
 8997TIP3   OH248405   5.555   5.032  13.058  0.5550 -0.2984  0.1564
 8997TIP3    H148406   5.604   4.967  13.008  1.1131  0.8881 -0.8809
 8997TIP3    H248407   5.544   5.106  12.997 -0.2244  0.5039  1.2374
 8998TIP3   OH248408   0.870   2.179   0.670  0.1664  0.1024 -0.0013
 8998TIP3    H148409   0.855   2.205   0.761 -0.0433 -1.6112  0.4986
 8998TIP3    H248410   0.794   2.212   0.623  0.1314  0.7628  0.5013
 8999TIP3   OH248411   2.250   0.907   2.691  0.1868  0.2425 -0.1532
 8999TIP3    H148412   2.331   0.956   2.701  1.5037 -1.9028  0.2121
 8999TIP3    H248413   2.216   0.899   2.780  1.2896 -1.5693  0.1431
 9000TIP3   OH248414   5.326   7.071   9.800  0.1462 -0.1013 -0.1355
 9000TIP3    H148415   5.400   7.057   9.740  0.0880 -0.4609 -0.1216
 9000TIP3    H248416   5.357   7.140   9.860  0.8951 -1.0390  0.5795
 9001TIP3   OH248417   3.194   6.155  13.708  0.7979  0.4041  0.5628
 9001TIP3    H148418   3.104   6.163  13.739  0.5517 -0.7313  0.2022
 9001TIP3    H248419   3.187   6.168  13.613  0.8222 -0.8563  0.3747
 9002TIP3   OH248420   1.062   7.054   5.366  0.4951 -0.3601  0.0878
 9002TIP3    H148421   1.105   7.136   5.392 -0.9332  0.6173 -0.5265
 9002TIP3    H248422   0.997   7.039   5.434  1.6703 -1.7736  0.9531
 9003TIP3   OH248423   5.746   3.473   0.427  0.1934  0.3646 -0.1787
 9003TIP3    H148424   5.684   3.487   0.355 -0.5174 -0.0036  0.3448
 9003TIP3    H248425   5.754   3.378   0.434 -1.0466  0.3170  1.2711
 9004TIP3   OH248426   2.933   6.404  13.506 -0.0382  0.3267  0.2571
 9004TIP3    H148427   2.896   6.445  13.584  0.9161 -1.5215  1.7850
 9004TIP3    H248428   2.870   6.335  13.484 -0.1955  0.7045 -0.5241
 9005TIP3   OH248429   0.297   1.492  12.640 -0.2252  0.0649 -0.1370
 9005TIP3    H148430   0.277   1.469  12.549 -0.7577  1.3592 -0.3722
 9005TIP3    H248431   0.385   1.458  12.656 -0.5381 -1.0981 -0.7905
 9006TIP3   OH248432   6.924   3.489   3.580  0.0595 -0.2744 -0.2621
 9006TIP3    H148433   6.965   3.509   3.496  1.7163  0.5339  0.6753
 9006TIP3    H248434   6.904   3.574   3.618  0.2493 -0.5843  0.5654
 9007TIP3   OH248435   4.883   0.117  10.953 -0.3029  0.2885  0.5556
 9007TIP3    H148436   4.800   0.154  10.981 -1.1198 -0.4289 -0.8300
 9007TIP3    H248437   4.888   0.033  10.999 -0.6452  0.0531  0.1669
 9008TIP3   OH248438   3.647   1.498  13.244 -0.1180  0.0939  0.2158
 9008TIP3    H148439   3.559   1.526  13.218 -0.4050 -1.7387 -0.9556
 9008TIP3    H248440   3.699   1.578  13.240 -1.3273  0.8750 -0.9516
 9009TIP3   OH248441   5.260   0.602  11.438 -0.1640  0.0478  0.3873
 9009TIP3    H148442   5.196   0.531  11.430 -0.4849  0.1912  1.5055
 9009TIP3    H248443   5.301   0.607  11.351 -3.0017  1.2648 -1.0083
 9010TIP3   OH248444   1.433   6.956  11.433 -0.3261 -0.0163  0.6733
 9010TIP3    H148445   1.436   7.014  11.509  1.3881  1.3394 -0.3388
 9010TIP3    H248446   1.490   6.882  11.456  1.9470  1.4146  0.0312
 9011TIP3   OH248447   0.057   5.436  10.325 -0.2083  0.4243 -0.4352
 9011TIP3    H148448   0.078   5.367  10.262  3.0286  0.1341  0.7781
 9011TIP3    H248449   0.021   5.389  10.401 -0.6930  0.4041 -0.6723
 9012TIP3   OH248450   2.087   3.161   2.813  0.1158 -0.2472  0.2393
 9012TIP3    H148451   2.146   3.207   2.873 -0.0880  0.2170  0.0909
 9012TIP3    H248452   2.014   3.221   2.801 -0.2129 -0.6632  0.1292
 9013TIP3   OH248453   3.801   0.810   1.132  0.0058  0.2725 -0.2007
 9013TIP3    H148454   3.817   0.783   1.223 -0.1069 -0.8997 -0.5199
 9013TIP3    H248455   3.865   0.879   1.117 -0.1470  0.6718  0.8509
 9014TIP3   OH248456   2.867   2.519   2.278 -0.2487  0.3290  0.2423
 9014TIP3    H148457   2.779   2.526   2.241  0.6307  2.3769 -1.7024
 9014TIP3    H248458   2.883   2.425   2.283 -1.9047 -0.0745 -1.0028
 9015TIP3   OH248459   1.158   4.615   9.567 -0.5604  0.3212  0.2585
 9015TIP3    H148460   1.218   4.644   9.635 -1.9394 -0.0687  1.7125
 9015TIP3    H248461   1.116   4.537   9.604 -2.6889  1.1626 -0.2512
 9016TIP3   OH248462   4.172   1.822   0.015  0.3467 -0.7246 -0.1997
 9016TIP3    H148463   4.140   1.797   0.101  2.6061 -0.3738  0.8248
 9016TIP3    H248464   4.157   1.917   0.011  1.0066 -0.5967  0.1871
 9017TIP3   OH248465   5.917   2.667   4.254  0.2500  0.1226  0.6654
 9017TIP3    H148466   5.891   2.708   4.172 -0.0598 -0.7569  0.3141
 9017TIP3    H248467   5.849   2.602   4.272  0.4660  0.0981  1.4657
 9018TIP3   OH248468   3.818   2.990  13.452  0.0624  0.3598 -0.2947
 9018TIP3    H148469   3.789   2.931  13.382 -1.7368 -0.1369  0.8006
 9018TIP3    H248470   3.738   3.033  13.482  0.8927  1.0713  0.9996
 9019TIP3   OH248471   3.127   3.637  15.578 -0.1793 -0.0216  0.0453
 9019TIP3    H148472   3.112   3.696  15.505 -0.0687  0.0356  0.0696
 9019TIP3    H248473   3.205   3.671  15.621  0.9089 -1.1770 -0.9451
 9020TIP3   OH248474   6.018   1.923   0.077 -0.0798 -0.4406  0.2577
 9020TIP3    H148475   5.939   1.940   0.025 -0.8571  1.5957  1.9101
 9020TIP3    H248476   6.043   1.834   0.055 -2.3089 -0.8255 -1.0585
 9021TIP3   OH248477   4.472   6.795   2.660  0.0971  0.6484 -0.0821
 9021TIP3    H148478   4.468   6.827   2.750  1.1462 -0.5350  0.4090
 9021TIP3    H248479   4.412   6.721   2.657  0.2550  0.5252 -0.2812
 9022TIP3   OH248480   5.638   5.807   3.116  0.4891 -0.5389  0.0351
 9022TIP3    H148481   5.579   5.860   3.170  0.5187 -0.1781 -0.2829
 9022TIP3    H248482   5.708   5.867   3.090  1.7279 -1.2960  1.5093
 9023TIP3   OH248483   2.288   3.514  14.784 -0.5324  0.0920  0.6651
 9023TIP3    H148484   2.364   3.486  14.834  0.8928  1.5488 -0.5501
 9023TIP3    H248485   2.317   3.594  14.739 -2.3978  0.0320 -0.7828
 9024TIP3   OH248486   5.010   7.006  15.432  0.3106  0.5065 -0.1255
 9024TIP3    H148487   5.010   6.910  15.436  1.3161  0.4826 -0.5696
 9024TIP3    H248488   5.100   7.032  15.450  0.0008  1.3863  0.2219
 9025TIP3   OH248489   3.687   7.035  10.990 -0.0433  0.5282 -0.3150
 9025TIP3    H148490   3.663   6.943  11.000  0.8583  0.2073 -0.9204
 9025TIP3    H248491   3.667   7.075  11.074  0.5456 -0.4584  0.3099
 9026TIP3   OH248492   2.447   0.072  13.051  0.3492  0.0904  0.6395
 9026TIP3    H148493   2.400   0.017  13.114  1.1000 -0.9315  0.3315
 9026TIP3    H248494   2.517   0.016  13.018 -0.8187  0.1380 -2.1400
 9027TIP3   OH248495   0.968   4.061   0.772 -0.0613  0.1278 -0.2497
 9027TIP3    H148496   0.982   4.013   0.690  0.5980 -0.3365  0.1260
 9027TIP3    H248497   0.964   3.994   0.839  0.2605  0.5614  0.2125
 9028TIP3   OH248498   5.497   4.603   0.919 -0.2936 -0.5104 -0.0121
 9028TIP3    H148499   5.441   4.597   0.842  0.6515 -0.4289 -0.7317
 9028TIP3    H248500   5.437   4.606   0.993 -1.1877 -2.7651 -0.5823
 9029TIP3   OH248501   4.112   4.269  11.609  0.3901 -0.7902  0.1772
 9029TIP3    H148502   4.139   4.178  11.595 -0.0436 -0.9788  0.5514
 9029TIP3    H248503   4.022   4.272  11.577  0.5713 -0.3650 -0.2991
 9030TIP3   OH248504   3.827   6.306   0.593 -0.3365  0.5055 -0.2754
 9030TIP3    H148505   3.780   6.362   0.532 -0.6035  2.0803  1.3101
 9030TIP3    H248506   3.910   6.350   0.608  0.8037 -1.1276 -1.3204
 9031TIP3   OH248507   2.228   2.593  14.905  0.1638 -0.3382  0.4375
 9031TIP3    H148508   2.251   2.630  14.820 -0.5509  0.1623  0.4551
 9031TIP3    H248509   2.300   2.534  14.926  1.3677  1.0645  0.4166
 9032TIP3   OH248510   6.493   1.466  14.656  0.9945  0.0636 -0.7027
 9032TIP3    H148511   6.422   1.524  14.629  1.6496  0.4971 -1.5395
 9032TIP3    H248512   6.449   1.391  14.696  0.0476  0.0930 -1.6555
 9033TIP3   OH248513   4.930   4.873   5.948  0.3073  0.1763 -0.1559
 9033TIP3    H148514   4.862   4.834   5.893 -0.7783 -0.9909  1.9120
 9033TIP3    H248515   4.903   4.964   5.959 -0.0028  0.1547 -0.7035
 9034TIP3   OH248516   7.049   3.696   3.016  0.6057 -0.3870 -0.0160
 9034TIP3    H148517   7.113   3.631   2.988  0.6664 -0.3071 -0.0623
 9034TIP3    H248518   7.066   3.708   3.109  1.8251  0.9267 -0.3661
 9035TIP3   OH248519   2.036   4.694   1.159  0.3830  0.2950  0.0620
 9035TIP3    H148520   1.941   4.688   1.147  0.5586 -2.1087 -0.6359
 9035TIP3    H248521   2.055   4.788   1.151 -1.9290  0.8621  0.4075
 9036TIP3   OH248522   3.976   1.457   1.391 -0.1616  0.2932 -0.5997
 9036TIP3    H148523   4.000   1.469   1.483  0.8816  2.9136 -1.1115
 9036TIP3    H248524   3.893   1.408   1.393 -0.5433  0.9352  1.7527
 9037TIP3   OH248525   6.154   6.321  12.947  0.0746  0.7786 -0.0253
 9037TIP3    H148526   6.126   6.408  12.972 -0.1145  0.8210 -0.3724
 9037TIP3    H248527   6.161   6.325  12.851  1.1688  0.7487  0.0316
 9038TIP3   OH248528   2.576   0.894  13.105 -0.4106 -0.1265 -0.3228
 9038TIP3    H148529   2.623   0.850  13.034  0.3868  0.2645 -0.0484
 9038TIP3    H248530   2.485   0.870  13.091 -0.0988 -1.1401 -0.6908
 9039TIP3   OH248531   2.839   2.164  15.224  0.2799 -0.1810  0.4080
 9039TIP3    H148532   2.898   2.219  15.276  1.3642 -0.0519 -0.8882
 9039TIP3    H248533   2.761   2.219  15.212  0.2355 -0.0021  1.4038
 9040TIP3   OH248534   4.834   2.187  13.415 -0.3727  0.1199 -0.0839
 9040TIP3    H148535   4.829   2.153  13.504  1.0585  2.1594  0.8484
 9040TIP3    H248536   4.891   2.126  13.369  0.1364 -0.1033  0.8329
 9041TIP3   OH248537   5.113   2.473   4.713 -0.1458 -0.3254  0.4257
 9041TIP3    H148538   5.106   2.467   4.617  0.4261  3.5158 -0.0229
 9041TIP3    H248539   5.205   2.454   4.730 -0.0003  0.0003  0.0458
 9042TIP3   OH248540   2.082   1.734  14.930 -0.1510  1.2141 -0.0726
 9042TIP3    H148541   2.172   1.734  14.899  0.2926  1.3177  1.1343
 9042TIP3    H248542   2.054   1.825  14.924  0.4306  1.4942  1.1408
 9043TIP3   OH248543   3.630   4.395   4.052  0.2925 -0.4936 -0.9088
 9043TIP3    H148544   3.652   4.402   3.960  1.4674  0.5908 -0.5734
 9043TIP3    H248545   3.615   4.302   4.067 -1.3439 -0.5274 -2.4865
 9044TIP3   OH248546   0.762   0.186   2.329  0.0459 -0.4328 -0.4096
 9044TIP3    H148547   0.694   0.119   2.329 -1.6599  1.2004  0.5115
 9044TIP3    H248548   0.770   0.213   2.421 -0.1027  1.3542 -0.8838
 9045TIP3   OH248549   6.301   5.514  12.186  0.0337  0.6216 -0.2645
 9045TIP3    H148550   6.217   5.552  12.209  0.2820  1.6750 -1.0034
 9045TIP3    H248551   6.302   5.429  12.230  0.0158  1.9856  2.6499
 9046TIP3   OH248552   3.824   4.483   9.893  0.0795 -0.1785  0.0051
 9046TIP3    H148553   3.822   4.419   9.965  2.7444 -2.7138 -1.9241
 9046TIP3    H248554   3.909   4.469   9.852  0.1899  3.7502 -1.4715
 9047TIP3   OH248555   2.404   1.102   2.453  0.6453 -0.6695  0.1638
 9047TIP3    H148556   2.370   1.022   2.412  0.3321 -0.0263 -0.8449
 9047TIP3    H248557   2.452   1.070   2.530 -0.6615 -1.7374  0.5858
 9048TIP3   OH248558   0.279   5.815   0.527 -0.5177 -0.2288  0.0130
 9048TIP3    H148559   0.225   5.819   0.606 -1.9788 -0.5555 -0.9408
 9048TIP3    H248560   0.247   5.739   0.480  0.2630  0.0339 -0.9676
 9049TIP3   OH248561   3.005   6.176  14.060  0.0424  0.1941 -0.3710
 9049TIP3    H148562   3.003   6.269  14.037 -0.8169 -0.0401 -1.3102
 9049TIP3    H248563   2.988   6.130  13.978 -0.1837 -0.7788  0.2016
 9050TIP3   OH248564   6.269   5.484   2.236 -0.2544  0.1929  0.1180
 9050TIP3    H148565   6.181   5.504   2.205 -0.8463 -1.9709  0.2401
 9050TIP3    H248566   6.275   5.389   2.233  1.0302  0.0822  2.8937
 9051TIP3   OH248567   0.760   1.588  13.304  0.1791 -0.6682  0.4295
 9051TIP3    H148568   0.798   1.515  13.353 -1.2406 -1.4949  0.3495
 9051TIP3    H248569   0.710   1.637  13.370 -1.9670 -1.9409 -0.1576
 9052TIP3   OH248570   1.713   4.263   1.416  0.2508 -0.0129 -0.0508
 9052TIP3    H148571   1.787   4.274   1.356  1.4491 -1.7318  1.0080
 9052TIP3    H248572   1.647   4.218   1.364  0.7376 -0.2478 -0.4769
 9053TIP3   OH248573   2.661   2.674   3.522 -0.6223 -0.3173  0.0043
 9053TIP3    H148574   2.702   2.625   3.450 -1.8675  1.1598 -1.7804
 9053TIP3    H248575   2.678   2.620   3.599  0.8184 -1.9432 -1.3532
 9054TIP3   OH248576   6.926   2.459   2.294 -0.5465 -0.6252  0.3203
 9054TIP3    H148577   6.921   2.553   2.311 -1.9928  0.1453 -3.5060
 9054TIP3    H248578   7.008   2.447   2.247 -1.0492 -0.9799 -0.4918
 9055TIP3   OH248579   4.508   4.863  10.465  0.1443  0.1746  0.0836
 9055TIP3    H148580   4.460   4.808  10.403  0.6457  0.2073 -0.3418
 9055TIP3    H248581   4.578   4.903  10.413 -0.0640  1.0254  0.4384
 9056TIP3   OH248582   2.318   0.611   1.375  0.2685 -0.3093  0.1887
 9056TIP3    H148583   2.281   0.527   1.401 -3.3076  1.4616  1.4062
 9056TIP3    H248584   2.309   0.667   1.452  0.7875  1.7155 -1.1390
 9057TIP3   OH248585   0.558   5.472   6.181 -0.7709  0.1466  0.6080
 9057TIP3    H148586   0.616   5.531   6.228  0.2342 -1.2805  1.2377
 9057TIP3    H248587   0.472   5.513   6.188 -0.3308  0.8937  2.1481
 9058TIP3   OH248588   5.444   4.001   3.869 -0.0507 -0.1031 -0.0814
 9058TIP3    H148589   5.490   3.919   3.851  0.1926 -0.0978  0.5242
 9058TIP3    H248590   5.356   3.987   3.832  0.6546  0.1977 -1.9802
 9059TIP3   OH248591   3.610   3.775   1.944  0.0585  0.2959  0.0592
 9059TIP3    H148592   3.571   3.787   2.031  0.6197  3.0766  0.0205
 9059TIP3    H248593   3.549   3.820   1.885  1.0214  0.7629 -0.5963
 9060TIP3   OH248594   5.631   1.435   2.832 -0.0114 -0.1691  0.1816
 9060TIP3    H148595   5.581   1.500   2.880 -1.1549 -1.0866  0.2765
 9060TIP3    H248596   5.664   1.376   2.899 -0.3043 -0.5717 -0.0235
 9061TIP3   OH248597   6.650   1.077  12.134  0.3399 -0.1138  0.0290
 9061TIP3    H148598   6.557   1.100  12.141  0.3280 -0.1440 -0.0293
 9061TIP3    H248599   6.683   1.132  12.063  0.1043 -0.9198 -0.7263
 9062TIP3   OH248600   4.321   5.665  14.366 -0.3127 -0.5760 -0.6490
 9062TIP3    H148601   4.338   5.707  14.282 -1.2012 -0.7585 -0.9232
 9062TIP3    H248602   4.359   5.577  14.356  0.2823 -0.3305 -0.5750
 9063TIP3   OH248603   6.831   6.451   3.429  0.3076  0.3023  0.6179
 9063TIP3    H148604   6.789   6.520   3.378 -2.0048 -0.1456  1.7836
 9063TIP3    H248605   6.832   6.375   3.371  0.9193  0.7310  0.0607
 9064TIP3   OH248606   6.947   1.492  14.923 -0.1528 -0.2250 -0.0658
 9064TIP3    H148607   6.937   1.401  14.895 -1.7832 -0.3342  0.7756
 9064TIP3    H248608   7.008   1.530  14.860  0.7200 -1.9463 -0.3057
 9065TIP3   OH248609   4.063   4.282  10.537 -0.3825 -0.3900 -0.3650
 9065TIP3    H148610   4.121   4.323  10.473  1.8406 -0.2687  1.6099
 9065TIP3    H248611   3.993   4.347  10.550  0.9731  1.1001 -0.1871
 9066TIP3   OH248612   4.389   4.527   4.804 -0.2760 -0.2523 -1.0071
 9066TIP3    H148613   4.329   4.585   4.756 -0.1273 -0.0130 -0.9073
 9066TIP3    H248614   4.378   4.442   4.762 -0.8441 -0.2629 -0.8517
 9067TIP3   OH248615   4.796   0.127  10.318 -0.0812 -0.0797 -0.0249
 9067TIP3    H148616   4.783   0.205  10.373  1.2930 -0.4605  0.9131
 9067TIP3    H248617   4.854   0.157  10.248  0.5914 -0.2796  0.4351
 9068TIP3   OH248618   5.838   2.905  12.511  0.6219 -0.0677 -0.8005
 9068TIP3    H148619   5.919   2.955  12.516  0.0816  0.7872 -0.2340
 9068TIP3    H248620   5.788   2.947  12.441 -0.3849  1.0621  0.5475
 9069TIP3   OH248621   6.303   4.779   5.350  0.1403 -0.1407  0.0892
 9069TIP3    H148622   6.304   4.683   5.354 -0.0043 -0.2036 -0.9659
 9069TIP3    H248623   6.322   4.807   5.439  1.6105 -1.1475  0.1277
 9070TIP3   OH248624   1.701   3.854   4.219 -0.5022  0.3214  0.3915
 9070TIP3    H148625   1.712   3.937   4.265 -1.2367  0.9168 -0.4510
 9070TIP3    H248626   1.681   3.879   4.129 -0.6574 -0.7770  0.0990
 9071TIP3   OH248627   0.584   4.863  10.172  0.1060 -0.0266 -0.1177
 9071TIP3    H148628   0.574   4.806  10.248  0.7616 -0.3319 -0.2561
 9071TIP3    H248629   0.582   4.804  10.097 -0.5092  0.2715 -0.3352
 9072TIP3   OH248630   6.393   4.915  11.762 -0.3462  0.5791 -0.0321
 9072TIP3    H148631   6.326   4.958  11.709 -1.2250 -2.8320 -2.0406
 9072TIP3    H248632   6.412   4.834  11.714  2.0261 -0.6786  2.7544
 9073TIP3   OH248633   4.425   3.815   0.019  0.4891  0.0015  0.3571
 9073TIP3    H148634   4.487   3.810  -0.054 -0.7708  1.5914 -0.9213
 9073TIP3    H248635   4.478   3.845   0.093  1.3754  0.7118 -0.5310
 9074TIP3   OH248636   7.121   1.733   3.747  0.0442  0.1055  0.0995
 9074TIP3    H148637   7.064   1.808   3.731  0.5476  0.2670 -1.0224
 9074TIP3    H248638   7.198   1.749   3.692  0.5919 -0.7454  0.5978
 9075TIP3   OH248639   5.118   2.068  13.513  0.6426 -0.1484 -0.0661
 9075TIP3    H148640   5.196   2.071  13.458  0.9640  0.9231  0.4138
 9075TIP3    H248641   5.087   2.158  13.514 -1.6749 -0.8357 -1.7191
 9076TIP3   OH248642   3.388   3.577  15.108 -0.5052  0.4209 -0.3389
 9076TIP3    H148643   3.386   3.553  15.015 -2.4245  0.9496 -0.4795
 9076TIP3    H248644   3.296   3.588  15.132 -0.0925 -0.3799  1.8348
 9077TIP3   OH248645   2.235   7.043  12.040  0.4435 -0.3990  0.2411
 9077TIP3    H148646   2.253   6.956  12.004 -1.4494 -1.9783  2.7422
 9077TIP3    H248647   2.292   7.050  12.117 -1.3474 -0.7085  1.6803
 9078TIP3   OH248648   2.478   1.662  11.266 -0.0292 -0.5320 -0.4210
 9078TIP3    H148649   2.453   1.591  11.325 -1.8198  0.3911  0.0112
 9078TIP3    H248650   2.467   1.741  11.318  1.3563  0.1273 -1.0821
 9079TIP3   OH248651   5.231   0.645  14.453 -0.2269  0.1626  0.3282
 9079TIP3    H148652   5.305   0.597  14.491 -0.7955 -1.2762 -0.3066
 9079TIP3    H248653   5.170   0.656  14.526  0.1727  0.4792  0.6216
 9080TIP3   OH248654   0.036   5.109   0.510 -0.2826 -0.8900 -0.2722
 9080TIP3    H148655   0.091   5.074   0.440 -1.7683 -1.9353 -0.9722
 9080TIP3    H248656  -0.045   5.057   0.506 -1.9076  1.4499 -0.1871
 9081TIP3   OH248657   0.367   0.549  11.475  0.2567 -0.5615 -0.4267
 9081TIP3    H148658   0.432   0.511  11.534  1.6647  0.6263 -1.1352
 9081TIP3    H248659   0.413   0.622  11.432 -1.2919 -0.2031 -1.5876
 9082TIP3   OH248660   3.921   5.811   4.670 -0.3720 -0.3629  0.2993
 9082TIP3    H148661   3.858   5.740   4.680 -1.6736  0.0616 -3.2847
 9082TIP3    H248662   4.004   5.768   4.652 -0.7377 -0.9723  0.0479
 9083TIP3   OH248663   4.607   6.435  10.790 -0.1797 -0.2572  0.2884
 9083TIP3    H148664   4.522   6.411  10.754  0.0025 -1.0918  0.4058
 9083TIP3    H248665   4.660   6.356  10.781  0.3224 -0.0097  1.0215
 9084TIP3   OH248666   5.988   6.929  10.171 -0.2528 -0.5719 -0.2532
 9084TIP3    H148667   6.073   6.966  10.147 -0.8539  2.0768  1.2794
 9084TIP3    H248668   5.938   6.928  10.090  0.6926 -0.6396 -0.8543
 9085TIP3   OH248669   0.531   2.468  12.708  0.3907 -0.1110  0.5759
 9085TIP3    H148670   0.616   2.498  12.741  0.2140  0.1830  0.7649
 9085TIP3    H248671   0.499   2.408  12.775  1.7052 -2.4442 -0.7554
 9086TIP3   OH248672   5.886   2.402  10.858 -0.2185 -0.3947 -0.1797
 9086TIP3    H148673   5.896   2.333  10.792 -0.7272  1.5300 -2.3986
 9086TIP3    H248674   5.885   2.355  10.941  0.9725 -2.9074 -1.4685
 9087TIP3   OH248675   1.751   3.752   5.335  0.0948  0.3392 -0.7254
 9087TIP3    H148676   1.690   3.805   5.284  1.0403  2.3446  0.1425
 9087TIP3    H248677   1.764   3.801   5.416 -1.8296 -2.9621  1.9084
 9088TIP3   OH248678   1.305   5.406   9.937  0.0734  0.7344  0.0346
 9088TIP3    H148679   1.221   5.452   9.936 -0.2444  0.1572 -0.7526
 9088TIP3    H248680   1.362   5.460   9.882  1.3259  3.0328  3.2305
 9089TIP3   OH248681   0.215   4.638   2.053  0.3851  0.5333 -0.1190
 9089TIP3    H148682   0.279   4.703   2.023  1.1190  0.3940  1.0763
 9089TIP3    H248683   0.239   4.557   2.007  1.1987  0.4394  0.4476
 9090TIP3   OH248684   1.383   0.344   0.396 -0.6688  0.1435  0.1121
 9090TIP3    H148685   1.392   0.311   0.306  1.1178 -0.0907  0.3332
 9090TIP3    H248686   1.421   0.275   0.451 -2.8583 -0.2628  1.1926
 9091TIP3   OH248687   0.288   1.028  14.094 -0.9070 -0.0594 -0.3735
 9091TIP3    H148688   0.256   1.101  14.040 -1.5810  0.2668  0.4435
 9091TIP3    H248689   0.349   0.981  14.037 -0.0299  1.4563 -0.7394
 9092TIP3   OH248690   5.127   0.554   4.499  0.0447 -0.0446  0.4364
 9092TIP3    H148691   5.222   0.550   4.490 -0.0605 -0.6462 -0.5723
 9092TIP3    H248692   5.108   0.646   4.517  0.8851 -0.0857  1.6308
 9093TIP3   OH248693   5.415   6.722  10.780 -0.4865  0.4604  0.5010
 9093TIP3    H148694   5.502   6.706  10.818 -0.7245  0.2604  0.9799
 9093TIP3    H248695   5.427   6.796  10.722  0.4689 -0.8647 -1.0809
 9094TIP3   OH248696   5.171   5.493   5.503 -0.9156  0.0024 -0.4154
 9094TIP3    H148697   5.178   5.452   5.417  0.6764  1.7273 -1.1971
 9094TIP3    H248698   5.079   5.484   5.528 -0.9263 -2.5833 -1.2010
 9095TIP3   OH248699   1.946   2.258  15.275  0.4936  0.0881 -0.7401
 9095TIP3    H148700   1.901   2.239  15.193 -0.5292 -0.5972 -0.0402
 9095TIP3    H248701   1.907   2.340  15.306 -0.8749 -0.8800  0.2354
 9096TIP3   OH248702   3.475   1.568  14.721  0.0155  0.3800 -0.8427
 9096TIP3    H148703   3.393   1.538  14.683  0.5883 -1.3070 -0.8408
 9096TIP3    H248704   3.517   1.617  14.650 -0.3761  0.0577 -1.3056
 9097TIP3   OH248705   2.679   3.191  10.197  0.2492  0.5064 -0.1945
 9097TIP3    H148706   2.641   3.112  10.236 -0.3177  1.0768  0.4355
 9097TIP3    H248707   2.657   3.185  10.105  0.1525 -0.0366 -0.1408
 9098TIP3   OH248708   5.095   5.789  15.601  0.3618  0.2343  0.7976
 9098TIP3    H148709   5.100   5.796  15.696  0.3592  2.0435  0.6858
 9098TIP3    H248710   5.025   5.849  15.575  0.9120  0.3912 -0.4083
 9099TIP3   OH248711   6.888   3.252  14.473 -0.5983  0.1010 -0.0870
 9099TIP3    H148712   6.819   3.270  14.536 -1.8874  1.8337 -1.8711
 9099TIP3    H248713   6.874   3.161  14.446 -2.1094  0.3860 -0.3156
 9100TIP3   OH248714   1.092   6.196   5.652 -0.2534  0.5095 -0.3311
 9100TIP3    H148715   1.095   6.125   5.716 -1.0684  2.0425  1.5103
 9100TIP3    H248716   1.164   6.177   5.591  1.2714 -0.4429  1.6640
 9101TIP3   OH248717   6.816   0.502  13.994 -0.8208  0.2698  0.1680
 9101TIP3    H148718   6.782   0.468  14.077  1.6550 -0.6251  0.9110
 9101TIP3    H248719   6.858   0.585  14.017  0.2113 -0.1673 -0.0786
 9102TIP3   OH248720   2.522   0.234   4.466  0.0168 -0.2597  0.1900
 9102TIP3    H148721   2.488   0.231   4.555 -0.7795 -2.1935 -0.1144
 9102TIP3    H248722   2.491   0.152   4.426  3.3877 -1.2687 -0.7262
 9103TIP3   OH248723   2.672   5.907   3.193  0.4572  0.8448  0.0727
 9103TIP3    H148724   2.760   5.869   3.191  0.7629  1.3837  1.7207
 9103TIP3    H248725   2.645   5.900   3.285 -1.5016  0.1162 -0.5124
 9104TIP3   OH248726   6.388   0.275  12.420 -0.2737 -0.3609 -0.0338
 9104TIP3    H148727   6.370   0.261  12.512 -0.3795 -0.6590 -0.0988
 9104TIP3    H248728   6.304   0.264  12.377  0.0677 -1.9876 -0.3665
 9105TIP3   OH248729   5.573   5.588  11.686  0.2213  0.1038  0.0235
 9105TIP3    H148730   5.525   5.517  11.727 -1.1077  2.1082  2.1875
 9105TIP3    H248731   5.518   5.616  11.613  0.5597 -0.7613 -0.5854
 9106TIP3   OH248732   2.186   1.608   2.534  0.6145 -0.2815  0.0777
 9106TIP3    H148733   2.257   1.612   2.469  0.8493  2.3425  0.3878
 9106TIP3    H248734   2.115   1.563   2.489  2.0663 -1.9494 -0.6474
 9107TIP3   OH248735   6.938   2.374   3.048 -0.1586 -0.3258 -0.3601
 9107TIP3    H148736   6.879   2.312   3.091  0.9582 -0.5596  0.8838
 9107TIP3    H248737   7.024   2.332   3.053  0.7279  1.5333  1.0147
 9108TIP3   OH248738   5.888   0.773  12.239  0.1492  0.1937  0.4939
 9108TIP3    H148739   5.964   0.726  12.274  1.6200  0.4637 -2.0987
 9108TIP3    H248740   5.848   0.712  12.178  0.5903  1.3376 -1.0132
 9109TIP3   OH248741   4.643   5.669  10.996  0.1773  1.0010 -0.6207
 9109TIP3    H148742   4.563   5.713  10.965  0.1275  0.8813 -0.6612
 9109TIP3    H248743   4.611   5.590  11.039  0.3583  0.1312 -2.0151
 9110TIP3   OH248744   1.970   0.882  11.332 -0.1222  0.0461  0.3613
 9110TIP3    H148745   1.893   0.827  11.347  0.2700 -0.5917  0.0744
 9110TIP3    H248746   1.939   0.952  11.274  0.1548 -1.8687 -2.3088
 9111TIP3   OH248747   5.455   1.070  13.508  0.2417 -0.1335  0.1838
 9111TIP3    H148748   5.368   1.030  13.509  0.0059  0.2386 -1.5845
 9111TIP3    H248749   5.450   1.139  13.574 -1.2500  0.7027 -0.7351
 9112TIP3   OH248750   5.240   2.019  12.762 -0.2880  0.0532  0.0423
 9112TIP3    H148751   5.157   2.002  12.716  0.0235 -1.6356  0.0331
 9112TIP3    H248752   5.239   2.113  12.780 -2.3885  0.0047  0.4029
 9113TIP3   OH248753   6.947   4.403  14.934 -0.5394 -0.2993  0.7525
 9113TIP3    H148754   6.911   4.490  14.952 -0.4701 -0.1059 -0.0421
 9113TIP3    H248755   6.986   4.410  14.848 -2.1062 -1.5971 -0.1295
 9114TIP3   OH248756   3.815   4.371   0.218  0.5148  0.3650  0.4204
 9114TIP3    H148757   3.816   4.420   0.299 -0.6606  0.3816  0.4461
 9114TIP3    H248758   3.743   4.309   0.228 -1.3742  2.0644 -1.5604
 9115TIP3   OH248759   6.992   6.011   3.563  0.3874 -0.4268  0.0912
 9115TIP3    H148760   7.060   6.079   3.573  0.4659 -0.8155  3.7102
 9115TIP3    H248761   6.912   6.060   3.543  0.8854  0.5331  0.3770
 9116TIP3   OH248762   2.387   5.066  10.733  0.0521 -0.0093  0.2785
 9116TIP3    H148763   2.333   4.987  10.735 -1.2578  0.8145 -1.3036
 9116TIP3    H248764   2.439   5.058  10.653 -1.8379  1.8043 -1.2138
 9117TIP3   OH248765   4.951   2.799  14.114 -0.6677 -0.2311  0.2401
 9117TIP3    H148766   5.020   2.767  14.056  0.2688 -1.5305  1.9877
 9117TIP3    H248767   4.920   2.880  14.072  0.6477 -0.5651 -1.5044
 9118TIP3   OH248768   1.174   3.779  15.487 -0.0927  0.5109  0.1567
 9118TIP3    H148769   1.116   3.790  15.563  0.3777  0.2910  0.5570
 9118TIP3    H248770   1.116   3.750  15.417 -0.4104 -0.0756  0.6473
 9119TIP3   OH248771   2.474   1.388  10.981  0.1262 -0.1838 -0.5889
 9119TIP3    H148772   2.461   1.337  11.060 -0.8229 -0.5471 -0.9661
 9119TIP3    H248773   2.566   1.375  10.958  0.6806  0.7093  0.9723
 9120TIP3   OH248774   0.874   1.465   3.917 -0.0995  0.7918 -0.0416
 9120TIP3    H148775   0.798   1.478   3.859 -0.3179  0.8226  0.2496
 9120TIP3    H248776   0.950   1.478   3.860 -0.2824  2.8311  0.1015
 9121TIP3   OH248777   5.743   4.719  10.750  0.5056  0.0745 -0.1334
 9121TIP3    H148778   5.742   4.628  10.779  2.2902 -0.4974 -1.6898
 9121TIP3    H248779   5.735   4.715  10.655 -0.8462  1.6561 -0.1437
 9122TIP3   OH248780   0.189   4.251  13.357  0.0010 -0.0029  0.2039
 9122TIP3    H148781   0.210   4.337  13.320  1.3741 -0.6958 -0.7318
 9122TIP3    H248782   0.189   4.265  13.451  0.0801  1.0476  0.0649
 9123TIP3   OH248783   0.414   1.854  10.252 -0.6565 -0.2467  0.0693
 9123TIP3    H148784   0.478   1.926  10.255 -1.8225  1.0588 -2.6332
 9123TIP3    H248785   0.358   1.868  10.328  0.4760  0.3585  0.8213
 9124TIP3   OH248786   3.996   6.833  13.246 -0.1721 -0.7086 -0.1205
 9124TIP3    H148787   4.037   6.879  13.319  0.4331 -0.9482 -0.3073
 9124TIP3    H248788   4.035   6.746  13.247 -1.0711 -1.1255  0.0307
 9125TIP3   OH248789   1.597   3.817   1.928  0.3781 -0.2365  0.4347
 9125TIP3    H148790   1.527   3.761   1.960 -1.4304  0.8900 -1.3646
 9125TIP3    H248791   1.580   3.903   1.968  0.1759  0.2671 -0.6872
 9126TIP3   OH248792   1.896   2.620  10.648 -0.0671  0.0517  0.3589
 9126TIP3    H148793   1.808   2.585  10.631 -0.0952 -0.4509  1.4424
 9126TIP3    H248794   1.910   2.604  10.742  1.4769 -0.5590  0.0493
 9127TIP3   OH248795   5.471   5.461  10.945 -0.0482  0.4793  0.5398
 9127TIP3    H148796   5.494   5.369  10.934 -3.1176 -0.2582 -0.8769
 9127TIP3    H248797   5.471   5.474  11.040 -0.0397 -1.1452  0.7951
 9128TIP3   OH248798   6.331   6.577  13.849 -0.2626 -0.5637  0.1865
 9128TIP3    H148799   6.357   6.605  13.937  2.2830  2.0961 -1.2149
 9128TIP3    H248800   6.264   6.640  13.823 -2.0098 -2.1634  0.6238
 9129TIP3   OH248801   2.681   2.733  11.167 -0.1211  0.1748  0.1155
 9129TIP3    H148802   2.745   2.784  11.216  0.5028 -2.1407  1.8669
 9129TIP3    H248803   2.714   2.733  11.077  1.7527 -0.0658  0.7740
 9130TIP3   OH248804   1.814   5.092   4.110  0.1893  0.4567 -0.0515
 9130TIP3    H148805   1.856   5.086   4.024 -2.0798  0.4431 -1.2420
 9130TIP3    H248806   1.745   5.025   4.107 -2.1368  2.6702  0.4140
 9131TIP3   OH248807   5.697   5.200   2.951  0.7833  0.0608  0.1247
 9131TIP3    H148808   5.681   5.208   3.045  0.7497  1.1854  0.0301
 9131TIP3    H248809   5.627   5.250   2.910 -0.1256 -1.6952 -0.5821
 9132TIP3   OH248810   2.220   1.038   0.618 -0.3651  0.4620 -0.5560
 9132TIP3    H148811   2.240   1.050   0.711  0.4385 -0.6800 -0.5747
 9132TIP3    H248812   2.187   0.948   0.612  0.9629  0.0261 -1.5951
 9133TIP3   OH248813   5.814   4.069   1.196 -0.5210  0.1342 -0.1378
 9133TIP3    H148814   5.797   4.079   1.290  0.5561  1.3896 -0.0439
 9133TIP3    H248815   5.732   4.036   1.160 -1.4554  1.1142  1.0132
 9134TIP3   OH248816   1.567   3.680  10.888 -0.4598 -0.6713  0.5086
 9134TIP3    H148817   1.480   3.681  10.847 -0.2466  0.8837  0.0390
 9134TIP3    H248818   1.550   3.653  10.979 -1.3015 -1.2975  0.1838
 9135TIP3   OH248819   2.846   1.018  13.987 -0.1599  0.0827  0.0383
 9135TIP3    H148820   2.847   0.994  14.079  0.5402 -1.6626 -0.3759
 9135TIP3    H248821   2.935   1.047  13.968 -0.1430 -0.1240 -0.2116
 9136TIP3   OH248822   6.375   1.824  13.985 -0.1590  0.5231 -0.2787
 9136TIP3    H148823   6.396   1.870  13.904 -1.4705 -1.9296 -2.1297
 9136TIP3    H248824   6.292   1.861  14.014  0.5269  1.7148  0.2916
 9137TIP3   OH248825   3.683   3.118   5.654  0.1168  0.1717  0.4334
 9137TIP3    H148826   3.660   3.058   5.725 -0.1155 -0.7020 -0.3612
 9137TIP3    H248827   3.694   3.203   5.697  1.2908 -0.5856  1.7051
 9138TIP3   OH248828   6.801   0.890  15.020 -0.3908 -0.0660  0.0505
 9138TIP3    H148829   6.721   0.941  15.005  1.2526  2.6405 -0.2957
 9138TIP3    H248830   6.856   0.908  14.944  1.3450 -0.1076  1.2206
 9139TIP3   OH248831   1.442   3.113  14.026  0.9544  0.6832  0.0954
 9139TIP3    H148832   1.408   3.026  14.007 -0.8090  1.3528 -0.0508
 9139TIP3    H248833   1.529   3.098  14.062  0.5769 -1.1512  0.3419
 9140TIP3   OH248834   3.935   5.420   3.242 -0.6013 -0.0187  0.0319
 9140TIP3    H148835   3.973   5.422   3.330 -0.0752  1.6413 -0.1952
 9140TIP3    H248836   3.891   5.505   3.233 -2.0872 -0.8414 -0.7090
 9141TIP3   OH248837   5.285   1.193  10.475  0.1306 -0.1214 -0.1355
 9141TIP3    H148838   5.195   1.213  10.449 -0.7958 -0.7082  2.3130
 9141TIP3    H248839   5.339   1.256  10.427 -1.7110  1.1824 -0.5769
 9142TIP3   OH248840   0.070   4.947  11.219 -0.1269  0.4272 -0.7178
 9142TIP3    H148841   0.152   4.913  11.254  1.3252  4.0308 -0.2466
 9142TIP3    H248842   0.070   4.921  11.127  2.0571  1.1301 -0.9613
 9143TIP3   OH248843   3.308   5.855   2.594  0.1353 -0.3554  0.1806
 9143TIP3    H148844   3.306   5.832   2.501 -1.3914 -0.1427  0.1364
 9143TIP3    H248845   3.329   5.948   2.595 -0.1427 -0.2906  0.0313
 9144TIP3   OH248846   1.385   3.755   1.648  0.1886 -0.2340  0.3825
 9144TIP3    H148847   1.388   3.675   1.701 -0.9077  0.0426  0.9036
 9144TIP3    H248848   1.307   3.744   1.593 -1.6170  1.5966  2.3834
 9145TIP3   OH248849   6.719   2.769  15.420 -0.2689 -0.1820  0.0446
 9145TIP3    H148850   6.658   2.759  15.347 -0.8881 -0.1245  0.5468
 9145TIP3    H248851   6.789   2.824  15.385 -0.9846  0.5527 -0.2482
 9146TIP3   OH248852   4.119   5.064  11.956  0.4651 -0.0860  0.1393
 9146TIP3    H148853   4.030   5.099  11.964  0.3770  0.1640 -1.5024
 9146TIP3    H248854   4.108   4.969  11.953  0.1496 -0.0349 -0.8213
 9147TIP3   OH248855   7.091   0.021   4.290 -0.2992 -0.2200  0.1182
 9147TIP3    H148856   6.997   0.007   4.288 -0.7421  2.3647 -0.9730
 9147TIP3    H248857   7.111   0.039   4.382 -1.1238  0.6634  0.1295
 9148TIP3   OH248858   1.228   5.281   4.049  0.5310  0.2210 -0.5292
 9148TIP3    H148859   1.297   5.347   4.044  2.8560 -2.0741 -0.6322
 9148TIP3    H248860   1.200   5.281   4.140 -0.7484  2.4013 -0.8294
 9149TIP3   OH248861   5.161   2.053   4.845 -0.4451 -0.3433 -0.8219
 9149TIP3    H148862   5.106   2.131   4.852 -0.4924 -0.3123 -1.4986
 9149TIP3    H248863   5.183   2.032   4.936 -0.8809  0.1343 -0.5957
 9150TIP3   OH248864   0.021   5.876  12.324 -0.7442 -0.7028  0.2711
 9150TIP3    H148865   0.064   5.930  12.391  0.3680 -2.2459  0.8381
 9150TIP3    H248866  -0.029   5.811  12.374 -1.9136 -0.3575 -0.4066
 9151TIP3   OH248867   0.461   3.412   2.460  0.3493 -0.3234  0.8142
 9151TIP3    H148868   0.416   3.495   2.444  0.4701 -0.2471  0.8596
 9151TIP3    H248869   0.523   3.433   2.530  0.8405 -0.2893  0.3717
 9152TIP3   OH248870   1.338   3.406  15.249  0.0825 -0.0101  0.4987
 9152TIP3    H148871   1.385   3.403  15.165  0.8059 -0.4613  0.9150
 9152TIP3    H248872   1.406   3.426  15.313 -0.0852 -1.7705  1.2634
 9153TIP3   OH248873   5.629   6.366  14.897  0.3763 -0.6838 -0.0595
 9153TIP3    H148874   5.667   6.321  14.973 -0.2270 -0.8327  0.1624
 9153TIP3    H248875   5.705   6.397  14.847  0.8807 -3.6098 -1.2662
 9154TIP3   OH248876   6.196   2.659   1.443 -0.0082 -0.7281  0.0013
 9154TIP3    H148877   6.255   2.611   1.502  0.3269 -3.3034 -2.2185
 9154TIP3    H248878   6.170   2.594   1.377  0.1137  2.0530 -3.0514
 9155TIP3   OH248879   6.665   0.557   3.883  0.1888 -0.1925  0.2079
 9155TIP3    H148880   6.680   0.463   3.893  0.3423 -0.0364  1.7882
 9155TIP3    H248881   6.750   0.597   3.904 -0.5958  0.4021  2.5016
 9156TIP3   OH248882   1.750   0.831  11.611 -0.3593 -0.2512 -0.4179
 9156TIP3    H148883   1.680   0.796  11.556 -0.2899 -0.0974 -0.6056
 9156TIP3    H248884   1.820   0.766  11.606 -0.0525  0.1288 -1.1333
 9157TIP3   OH248885   1.721   5.202   1.332 -0.2615  0.0604 -0.4060
 9157TIP3    H148886   1.763   5.116   1.337 -1.1044 -0.4000 -0.9508
 9157TIP3    H248887   1.794   5.264   1.321  0.2519 -0.7994 -2.3074
 9158TIP3   OH248888   2.725   2.343   0.564 -0.7540 -0.9222 -0.2280
 9158TIP3    H148889   2.767   2.424   0.592 -0.9394 -1.7034  2.6165
 9158TIP3    H248890   2.762   2.326   0.477  1.0089  0.9955  0.0670
 9159TIP3   OH248891   6.792   2.734  14.963 -0.0128 -0.1164 -0.0098
 9159TIP3    H148892   6.870   2.690  14.929 -0.4429 -1.3904  0.5629
 9159TIP3    H248893   6.724   2.715  14.898 -1.0323 -3.2052  1.7323
 9160TIP3   OH248894   2.790   0.382  11.528 -0.1234  0.5381  0.9202
 9160TIP3    H148895   2.858   0.319  11.553 -1.8758 -1.0887  1.8461
 9160TIP3    H248896   2.791   0.382  11.432  0.9861  0.3610  0.9141
 9161TIP3   OH248897   5.297   2.291  12.716  0.3806 -0.3838  0.1465
 9161TIP3    H148898   5.229   2.336  12.665 -0.4807  0.2990  1.8034
 9161TIP3    H248899   5.379   2.319  12.676 -0.2109  1.1983 -0.0262
 9162TIP3   OH248900   0.090   0.315  14.689  0.2585 -0.3904 -0.1681
 9162TIP3    H148901   0.018   0.377  14.697  0.2066 -0.5445  0.5638
 9162TIP3    H248902   0.121   0.301  14.778  1.4978  0.0266 -0.5109
 9163TIP3   OH248903   4.283   3.867  12.353 -0.6169  0.4832 -0.4365
 9163TIP3    H148904   4.238   3.784  12.369 -1.1904  0.3442 -2.3817
 9163TIP3    H248905   4.365   3.842  12.310 -0.4756  0.8790 -0.3995
 9164TIP3   OH248906   0.354   3.910  14.537 -0.2088  0.0884 -0.1998
 9164TIP3    H148907   0.280   3.871  14.490 -0.2507  0.2882 -0.3043
 9164TIP3    H248908   0.364   3.996  14.496  0.3632 -0.1103 -0.4815
 9165TIP3   OH248909   5.060   1.473  11.331  0.6245  0.8788 -0.6278
 9165TIP3    H148910   5.102   1.503  11.251 -2.0073  2.8272 -1.4154
 9165TIP3    H248911   5.024   1.552  11.370 -0.8597 -0.4369  0.8194
 9166TIP3   OH248912   4.931   4.053  12.520  0.6143 -0.0462  0.2078
 9166TIP3    H148913   4.958   3.991  12.453  0.7305  1.4176 -1.1539
 9166TIP3    H248914   5.011   4.069  12.571  1.0590  0.4175 -0.6228
 9167TIP3   OH248915   2.347   3.277  11.908 -0.3327  0.5668 -0.1550
 9167TIP3    H148916   2.346   3.360  11.954  0.7367 -0.2551  1.4484
 9167TIP3    H248917   2.265   3.275  11.859 -0.8111  2.1316  0.5392
 9168TIP3   OH248918   3.948   4.392  11.862  0.0784  0.1478 -0.0912
 9168TIP3    H148919   3.998   4.398  11.943 -0.0055 -2.0263  0.1673
 9168TIP3    H248920   4.005   4.346  11.801 -0.5287  0.2143 -0.7221
 9169TIP3   OH248921   1.545   3.562   2.527  0.2869  0.0704  0.1630
 9169TIP3    H148922   1.484   3.491   2.512 -0.8043  0.9390  0.3603
 9169TIP3    H248923   1.509   3.636   2.477 -0.5772  1.5050  2.6945
 9170TIP3   OH248924   1.089   4.336   3.199  0.3473 -0.0919 -0.0126
 9170TIP3    H148925   1.012   4.312   3.250  0.4106 -2.1963 -0.7982
 9170TIP3    H248926   1.058   4.403   3.139 -0.8791 -0.8345 -0.2486
 9171TIP3   OH248927   5.715   0.386   1.609 -0.3824  0.2822 -0.4366
 9171TIP3    H148928   5.798   0.350   1.577 -1.5658 -1.3495 -1.8167
 9171TIP3    H248929   5.696   0.459   1.549 -0.0056  0.6059 -0.1690
 9172TIP3   OH248930   5.938   2.745  13.284 -0.1004 -0.1262  0.4229
 9172TIP3    H148931   5.907   2.772  13.370 -0.7104  1.5586 -0.2839
 9172TIP3    H248932   5.869   2.688  13.250  0.0184 -0.5745  0.9109
 9173TIP3   OH248933   6.625   3.713  13.984 -0.0142  0.0727 -0.3247
 9173TIP3    H148934   6.535   3.746  13.976 -0.4045 -0.4081  1.4068
 9173TIP3    H248935   6.637   3.701  14.079  0.8396 -2.6276 -0.6768
 9174TIP3   OH248936   2.335   0.244  11.087 -0.6449  0.0652  0.4379
 9174TIP3    H148937   2.294   0.158  11.081 -2.5811  0.9435  0.6235
 9174TIP3    H248938   2.363   0.250  11.178 -0.9702 -0.1603  0.5561
 9175TIP3   OH248939   6.309   2.068  11.109  0.0105 -0.2033 -0.4210
 9175TIP3    H148940   6.400   2.096  11.112 -0.0053 -0.1685 -0.2834
 9175TIP3    H248941   6.310   1.977  11.139 -0.1097  0.0622  0.4033
 9176TIP3   OH248942   0.121   0.342  12.775  0.2297  0.2334 -0.0477
 9176TIP3    H148943   0.135   0.422  12.825 -0.2605  0.5820 -0.4613
 9176TIP3    H248944   0.194   0.338  12.714  0.9559 -0.3128  0.8403
 9177TIP3   OH248945   1.400   1.800  13.374 -0.1613  0.4819 -0.0164
 9177TIP3    H148946   1.311   1.802  13.409  0.1901  0.1167  0.9053
 9177TIP3    H248947   1.400   1.870  13.308 -0.8993  1.0312  0.5360
 9178TIP3   OH248948   4.701   1.742  14.761  0.9019 -0.1503 -0.6362
 9178TIP3    H148949   4.773   1.794  14.796  0.3706  0.3086 -0.2117
 9178TIP3    H248950   4.714   1.655  14.799 -0.6137  0.7207  2.2119
 9179TIP3   OH248951   6.073   4.198   3.396  0.4782  0.5589 -0.1110
 9179TIP3    H148952   6.072   4.293   3.385  0.3264  0.5469 -0.1929
 9179TIP3    H248953   5.984   4.176   3.423  0.6125  0.4859  0.2826
 9180TIP3   OH248954   3.536   2.848   4.484  0.4380 -0.3930 -0.4685
 9180TIP3    H148955   3.597   2.775   4.469 -0.7884 -1.3364 -0.9626
 9180TIP3    H248956   3.557   2.877   4.573  2.1933 -0.1080 -0.9211
 9181TIP3   OH248957   5.552   6.706   4.742  0.5234  0.1570  0.0020
 9181TIP3    H148958   5.607   6.712   4.821 -0.7204 -0.7654  0.9730
 9181TIP3    H248959   5.547   6.796   4.710  1.5525  0.4512  0.6235
 9182TIP3   OH248960   4.218   1.268  12.141  0.4035 -0.3933 -0.6180
 9182TIP3    H148961   4.157   1.201  12.173  0.9065 -0.7291 -0.3604
 9182TIP3    H248962   4.240   1.320  12.218  1.1701 -0.8510 -0.5234
 9183TIP3   OH248963   2.392   4.290  12.078  0.4018 -0.3697 -0.2482
 9183TIP3    H148964   2.403   4.384  12.095 -0.3680 -0.5873  1.6865
 9183TIP3    H248965   2.477   4.252  12.100  0.2278 -0.3010  0.5978
 9184TIP3   OH248966   5.166   7.065  13.943  0.7765  0.0710  0.8842
 9184TIP3    H148967   5.098   7.003  13.968  0.5214  0.7878  2.0610
 9184TIP3    H248968   5.245   7.012  13.933 -0.2296 -1.0522 -2.1758
 9185TIP3   OH248969   5.595   0.903  10.413 -0.2458  0.7538  0.1195
 9185TIP3    H148970   5.584   0.810  10.433 -1.5384  0.5741 -1.2142
 9185TIP3    H248971   5.689   0.914  10.398 -0.1054 -0.3959  0.0712
 9186TIP3   OH248972   0.603   4.166   1.706 -0.0335 -0.1062  0.2112
 9186TIP3    H148973   0.564   4.130   1.626 -1.9973  0.8196  0.6928
 9186TIP3    H248974   0.544   4.138   1.776  0.6412  0.6529  1.1016
 9187TIP3   OH248975   0.333   1.656  15.106  0.2767  0.0283  0.1144
 9187TIP3    H148976   0.284   1.665  15.187 -1.6454 -0.9389 -0.8861
 9187TIP3    H248977   0.282   1.704  15.041  1.0267 -0.4205 -0.8331
 9188TIP3   OH248978   0.088   1.161   0.933  0.2940 -0.4256 -0.3515
 9188TIP3    H148979   0.115   1.218   0.861 -1.4938 -0.3823 -1.0337
 9188TIP3    H248980   0.057   1.221   1.000 -0.0095 -0.5418 -0.3885
 9189TIP3   OH248981   3.250   1.013  12.112  0.2000  0.6618 -0.4544
 9189TIP3    H148982   3.268   0.942  12.050  0.1657 -0.4532  0.7493
 9189TIP3    H248983   3.265   1.093  12.063  1.6666 -0.1890 -1.4576
 9190TIP3   OH248984   0.322   6.542   9.448  0.5777  0.2172  0.0436
 9190TIP3    H148985   0.316   6.447   9.433  1.5780  0.2389 -0.5584
 9190TIP3    H248986   0.255   6.579   9.390 -0.1388 -0.1394  0.6255
 9191TIP3   OH248987   3.103   1.855   3.972  0.4702 -0.3483  0.1050
 9191TIP3    H148988   3.126   1.792   4.040  0.7500 -0.3808 -0.0156
 9191TIP3    H248989   3.130   1.814   3.890 -0.6758 -0.6846 -0.1190
 9192TIP3   OH248990   3.704   6.245  13.256  0.5581  0.2815 -0.3417
 9192TIP3    H148991   3.658   6.213  13.333 -0.2997  1.3584 -0.3916
 9192TIP3    H248992   3.721   6.166  13.204 -0.8930 -0.1865 -0.1446
 9193TIP3   OH248993   5.128   5.450  12.272  0.0578  0.5915 -0.6387
 9193TIP3    H148994   5.095   5.365  12.242  1.6976 -1.0939  1.9060
 9193TIP3    H248995   5.194   5.474  12.207  1.1637 -1.2740 -0.2919
 9194TIP3   OH248996   0.524   5.135   5.664 -0.3616  0.2126  0.3086
 9194TIP3    H148997   0.573   5.090   5.595 -0.9440  1.0447 -0.6759
 9194TIP3    H248998   0.432   5.114   5.646 -0.5297  0.5658  0.7295
 9195TIP3   OH248999   4.187   5.848  13.965  0.1703  0.6433  0.2401
 9195TIP3    H149000   4.109   5.803  13.933  0.1037  1.1619 -0.3467
 9195TIP3    H249001   4.221   5.791  14.034 -0.4716  0.1922  0.1940
 9196TIP3   OH249002   1.969   2.910   0.991 -0.3345 -0.2119  0.1781
 9196TIP3    H149003   2.008   2.949   1.070  2.0863 -0.1618 -0.9731
 9196TIP3    H249004   1.927   2.830   1.023 -1.3060  0.8888  1.8282
 9197TIP3   OH249005   0.810   5.778  10.345 -0.3634 -0.0116 -0.6474
 9197TIP3    H149006   0.725   5.808  10.313 -0.4973  0.0655 -0.2313
 9197TIP3    H249007   0.873   5.842  10.312 -0.7379  1.2090  0.8952
 9198TIP3   OH249008   2.402   0.977  12.328  0.6069  0.0094 -0.1642
 9198TIP3    H149009   2.489   1.017  12.325  1.0589 -0.9356  0.1394
 9198TIP3    H249010   2.394   0.944  12.417 -0.5514  1.1312  0.1817
 9199TIP3   OH249011   3.932   3.901   4.230 -0.7310  0.7764  0.3999
 9199TIP3    H149012   4.019   3.927   4.257 -0.4134  0.1280  0.0441
 9199TIP3    H249013   3.877   3.914   4.307  0.0908 -0.7455  1.2975
 9200TIP3   OH249014   4.249   4.988   3.943 -0.1754  0.3752  0.4036
 9200TIP3    H149015   4.258   4.895   3.925 -1.1335  0.5136 -0.8969
 9200TIP3    H249016   4.196   4.993   4.023 -0.3899 -0.1888  0.2968
 9201TIP3   OH249017   6.732   1.320   3.933  0.4259 -0.1882 -0.1502
 9201TIP3    H149018   6.681   1.243   3.908  1.1384 -0.9804  0.7663
 9201TIP3    H249019   6.668   1.380   3.971  0.0014 -0.6999 -0.0509
 9202TIP3   OH249020   6.141   3.488  14.225  0.0762  0.0882  0.0119
 9202TIP3    H149021   6.098   3.512  14.143 -0.0092  1.1850  0.3586
 9202TIP3    H249022   6.109   3.552  14.289  1.0087 -0.0489  0.6404
 9203TIP3   OH249023   1.976   4.337  13.655  0.1114 -0.0008  0.0956
 9203TIP3    H149024   1.946   4.413  13.705 -0.9968  0.3348 -1.0401
 9203TIP3    H249025   1.970   4.264  13.717  0.9118  0.7686  1.1107
 9204TIP3   OH249026   3.647   4.802  15.183 -0.4886  0.5647 -0.0742
 9204TIP3    H149027   3.692   4.760  15.257 -2.4980  0.2955  1.0590
 9204TIP3    H249028   3.647   4.895  15.204  0.3259  0.6821 -0.5467
 9205TIP3   OH249029   0.539   4.690  14.896 -0.1025 -0.3017  0.8273
 9205TIP3    H149030   0.601   4.761  14.914  0.0628 -0.4882  1.0024
 9205TIP3    H249031   0.569   4.618  14.951 -0.8571 -0.1846  1.4067
 9206TIP3   OH249032   4.739   3.538  11.822 -0.4157 -0.3895 -0.1790
 9206TIP3    H149033   4.654   3.509  11.857 -0.0992 -0.7800  0.2671
 9206TIP3    H249034   4.754   3.483  11.746 -1.0505  0.3817 -0.8857
 9207TIP3   OH249035   4.612   6.372  13.852  0.8132 -0.8229 -0.2343
 9207TIP3    H149036   4.656   6.297  13.812 -1.1045 -1.0109 -2.2022
 9207TIP3    H249037   4.680   6.416  13.903  2.4073 -2.9069 -0.4533
 9208TIP3   OH249038   0.133   3.630  14.723 -0.5976  0.0060  0.6740
 9208TIP3    H149039   0.182   3.613  14.803  0.0135  0.9289  0.5083
 9208TIP3    H249040   0.185   3.590  14.653 -1.8789 -2.1263  0.8696
 9209TIP3   OH249041   0.387   0.710   2.080 -0.4272 -0.0159  0.1723
 9209TIP3    H149042   0.387   0.655   2.158 -1.7695  0.8921  0.8686
 9209TIP3    H249043   0.476   0.705   2.046  0.2029 -0.3796  1.8035
 9210TIP3   OH249044   3.377   1.553  15.420  0.2781  0.0304 -0.1960
 9210TIP3    H149045   3.427   1.492  15.367 -0.3785 -0.9742  0.3072
 9210TIP3    H249046   3.391   1.638  15.379  0.4963 -0.5865 -1.4361
 9211TIP3   OH249047   6.061   4.823   2.804  0.7777  0.1242 -0.3042
 9211TIP3    H149048   5.983   4.874   2.823  0.9061  0.2745 -0.1761
 9211TIP3    H249049   6.114   4.880   2.748  0.5584 -0.1802 -0.8249
 9212TIP3   OH249050   2.017   4.563  14.554 -0.6394 -0.0237 -0.2759
 9212TIP3    H149051   1.951   4.601  14.613  0.1692  1.3565 -0.2196
 9212TIP3    H249052   2.023   4.471  14.580 -0.5788  0.4629  1.5466
 9213TIP3   OH249053   5.762   3.627   3.942  0.2053 -0.2873 -0.1411
 9213TIP3    H149054   5.712   3.656   4.019 -0.0937  1.2375 -0.8770
 9213TIP3    H249055   5.836   3.578   3.979  0.6030  1.2152  1.1865
 9214TIP3   OH249056   1.967   0.690   5.633 -0.5699  0.8216 -0.3476
 9214TIP3    H149057   2.049   0.675   5.585 -0.2113 -1.8605  0.8831
 9214TIP3    H249058   1.995   0.707   5.723 -1.3120 -0.0086  0.0601
 9215TIP3   OH249059   2.595   4.371  10.979  0.6666 -0.4341  0.7987
 9215TIP3    H149060   2.680   4.415  10.978  0.2064  0.4956  1.1102
 9215TIP3    H249061   2.568   4.367  10.887 -0.4315  2.2921  0.9060
 9216TIP3   OH249062   6.302   0.256   0.400 -0.0930  0.1393  0.3747
 9216TIP3    H149063   6.216   0.216   0.396 -0.9005  1.7799  0.5415
 9216TIP3    H249064   6.355   0.207   0.337 -0.9863 -1.1974  0.6232
 9217TIP3   OH249065   0.416   1.838   4.659 -0.3144  0.1513 -0.2682
 9217TIP3    H149066   0.500   1.815   4.619 -0.6975 -0.5160 -0.6998
 9217TIP3    H249067   0.430   1.926   4.695  0.8715 -0.3525  0.5398
 9218TIP3   OH249068   3.350   6.527  10.020  0.3802  0.4577 -0.4202
 9218TIP3    H149069   3.427   6.470  10.009  0.4328  0.4036  0.2006
 9218TIP3    H249070   3.336   6.564   9.933  0.9120  0.2153 -0.6181
 9219TIP3   OH249071   5.951   3.605  13.967 -0.0010 -0.6206 -0.9103
 9219TIP3    H149072   5.867   3.650  13.982 -0.8843 -0.8908 -4.3120
 9219TIP3    H249073   6.013   3.676  13.950 -0.0269 -0.4973 -0.4986
 9220TIP3   OH249074   2.615   2.294   9.595  0.2259 -0.3735  0.6723
 9220TIP3    H149075   2.646   2.208   9.626  0.3789  0.0360  1.6983
 9220TIP3    H249076   2.691   2.332   9.552  0.2139 -0.6694  0.3828
 9221TIP3   OH249077   5.106   6.744  13.660  0.2371  0.0836  0.2285
 9221TIP3    H149078   5.077   6.796  13.735  1.5193 -0.6180  1.2643
 9221TIP3    H249079   5.031   6.741  13.602 -0.9843  0.2085  1.7437
 9222TIP3   OH249080   1.086   1.379   1.672  0.2181 -0.4747 -0.7744
 9222TIP3    H149081   1.104   1.447   1.737 -3.3103  0.1778 -0.2958
 9222TIP3    H249082   1.094   1.297   1.722 -1.6411 -0.0237  0.3632
 9223TIP3   OH249083   7.070   5.965   0.771  0.4128  0.7523  0.1647
 9223TIP3    H149084   7.101   6.054   0.752 -0.5089  1.0381 -0.0536
 9223TIP3    H249085   7.147   5.910   0.759  1.3962  1.6828  1.7423
 9224TIP3   OH249086   6.779   6.135   1.831 -0.3552  0.7546  0.2704
 9224TIP3    H149087   6.776   6.104   1.740 -0.8323  0.8680  0.2475
 9224TIP3    H249088   6.688   6.133   1.860 -0.4826  2.5092  0.1324
 9225TIP3   OH249089   0.498   3.842  11.003  0.1752  0.7434  0.3005
 9225TIP3    H149090   0.584   3.802  11.016 -0.1275  0.3693  1.3064
 9225TIP3    H249091   0.512   3.935  11.019  0.8287  1.0554 -1.7822
 9226TIP3   OH249092   2.795   1.755   0.489 -0.0023  0.0959  0.5204
 9226TIP3    H149093   2.713   1.803   0.503 -0.6378 -1.1108  1.1114
 9226TIP3    H249094   2.846   1.810   0.429 -0.9726  1.1751  0.6654
 9227TIP3   OH249095   6.529   5.783  13.835 -0.3544 -0.5413 -0.5321
 9227TIP3    H149096   6.498   5.704  13.879  1.9820 -1.2363 -0.0262
 9227TIP3    H249097   6.564   5.752  13.751 -1.0299  0.2244 -1.1173
 9228TIP3   OH249098   2.081   6.365   0.746 -0.1250  0.0614 -0.1841
 9228TIP3    H149099   2.133   6.292   0.781  1.2332  0.6855 -0.8336
 9228TIP3    H249100   2.146   6.425   0.709 -1.0079  2.6097  2.0840
 9229TIP3   OH249101   3.538   1.096   2.412 -0.6919  0.3843 -0.0527
 9229TIP3    H149102   3.597   1.052   2.473  0.1575 -0.7477 -1.6203
 9229TIP3    H249103   3.536   1.187   2.442  0.3237  0.0295  1.1686
 9230TIP3   OH249104   5.753   5.806   0.124 -0.1541 -0.2319  0.3131
 9230TIP3    H149105   5.707   5.751   0.188  0.4148  1.5203  2.3731
 9230TIP3    H249106   5.691   5.876   0.104  0.4229  0.3746  0.5993
 9231TIP3   OH249107   6.200   6.892  11.669  0.3624  0.1636 -0.7392
 9231TIP3    H149108   6.114   6.899  11.628 -0.0179 -1.2541 -0.2454
 9231TIP3    H249109   6.181   6.878  11.762  1.1681  1.1280 -0.4082
 9232TIP3   OH249110   3.537   0.260  12.225  0.6518 -0.0864  0.9888
 9232TIP3    H149111   3.557   0.350  12.249  2.1904 -0.7389  2.3064
 9232TIP3    H249112   3.597   0.240  12.153 -0.9967  0.4915 -0.6298
 9233TIP3   OH249113   5.567   2.513  15.569 -0.0057  0.0678 -0.0331
 9233TIP3    H149114   5.607   2.483  15.488  0.3013  0.8213 -0.1638
 9233TIP3    H249115   5.605   2.457  15.637 -0.7937 -1.0521 -0.4670
 9234TIP3   OH249116   0.767   1.852  12.186 -0.0669  0.1771  0.6577
 9234TIP3    H149117   0.822   1.872  12.110  0.9394 -0.6229  1.1444
 9234TIP3    H249118   0.815   1.783  12.233 -1.5658 -0.6584  1.0328
 9235TIP3   OH249119   0.099   6.917   0.616  0.1520  0.6983 -0.5290
 9235TIP3    H149120   0.012   6.953   0.632  0.5224  0.8840  1.3134
 9235TIP3    H249121   0.088   6.823   0.626  0.0313  0.6499 -1.0645
 9236TIP3   OH249122   5.570   4.313   2.188 -0.4534  0.6132 -0.6839
 9236TIP3    H149123   5.642   4.271   2.234 -1.0267  0.4748  0.1023
 9236TIP3    H249124   5.606   4.397   2.160 -0.5712  1.4642  1.5220
 9237TIP3   OH249125   3.546   0.616  10.661 -0.1418  0.6502 -0.5304
 9237TIP3    H149126   3.462   0.609  10.616  0.5155 -1.4769 -1.5493
 9237TIP3    H249127   3.607   0.644  10.593  0.6701 -1.5939 -0.7858
 9238TIP3   OH249128   0.669   0.418   2.165 -0.1869 -0.0929  0.3118
 9238TIP3    H149129   0.760   0.411   2.192 -0.1901  1.1507  0.7104
 9238TIP3    H249130   0.622   0.358   2.222  0.3864 -0.8181  0.0365
 9239TIP3   OH249131   0.855   5.624  11.948  0.7810 -0.1691 -0.1299
 9239TIP3    H149132   0.875   5.602  12.039  0.7801  0.1133 -0.0618
 9239TIP3    H249133   0.889   5.550  11.898  1.2109 -0.1054  0.0599
 9240TIP3   OH249134   4.548   6.567  14.694 -0.5985  0.1249 -0.5310
 9240TIP3    H149135   4.522   6.495  14.752  1.1121  0.0386  0.1914
 9240TIP3    H249136   4.575   6.637  14.753  0.4827  0.2945 -1.1916
 9241TIP3   OH249137   0.019   6.662  14.265  0.1361 -0.6673 -0.2904
 9241TIP3    H149138  -0.022   6.588  14.311 -2.9321 -0.3537 -2.2146
 9241TIP3    H249139   0.104   6.629  14.239  0.5983 -2.0090  2.4926
 9242TIP3   OH249140   2.534   3.461   3.935 -0.1289  0.3241 -0.0372
 9242TIP3    H149141   2.524   3.387   3.995 -1.2606  0.2739 -0.2709
 9242TIP3    H249142   2.627   3.485   3.942  0.7380 -2.2656 -1.2969
 9243TIP3   OH249143   7.034   0.964   3.734 -0.1009  0.2744 -0.2259
 9243TIP3    H149144   7.020   1.058   3.724  1.2910  0.5150 -0.1142
 9243TIP3    H249145   7.040   0.951   3.829 -1.9317 -0.2155 -0.1347
 9244TIP3   OH249146   6.876   4.519  10.589  0.2389 -0.5571  0.2709
 9244TIP3    H149147   6.918   4.603  10.604  0.5537 -1.0694  2.6720
 9244TIP3    H249148   6.828   4.530  10.507  0.6933  1.7701  0.2563
 9245TIP3   OH249149   6.511   4.084   4.429 -0.2307 -0.5070 -0.2539
 9245TIP3    H149150   6.475   4.135   4.356 -0.7705 -1.5890 -0.7643
 9245TIP3    H249151   6.453   4.104   4.502  0.4214  0.7283 -0.0469
 9246TIP3   OH249152   4.984   4.903  11.866  0.2146 -0.1741 -0.1830
 9246TIP3    H149153   4.908   4.957  11.886 -0.6772 -1.4825  0.0511
 9246TIP3    H249154   4.991   4.904  11.770  0.0568  0.1516 -0.1901
 9247TIP3   OH249155   3.793   2.944  13.039 -0.5456 -0.6602 -0.4642
 9247TIP3    H149156   3.766   2.912  12.953  0.4900  0.0496 -1.0841
 9247TIP3    H249157   3.887   2.923  13.044 -0.7220 -1.2954  0.7853
 9248TIP3   OH249158   6.165   3.044  13.605 -0.0684  0.1098 -0.5847
 9248TIP3    H149159   6.255   3.058  13.633  0.7416 -2.5180 -1.5687
 9248TIP3    H249160   6.150   3.110  13.537  0.8174  1.0661  0.1119
 9249TIP3   OH249161   4.539   0.492   0.564  0.3002  0.2943 -0.0849
 9249TIP3    H149162   4.492   0.574   0.556  0.1258  0.3073  1.0117
 9249TIP3    H249163   4.490   0.431   0.509 -1.7028  0.0160  1.8690
 9250TIP3   OH249164   2.550   1.835   9.860 -0.3592 -0.2083 -0.0884
 9250TIP3    H149165   2.565   1.930   9.854 -1.6379 -0.0199 -0.6535
 9250TIP3    H249166   2.613   1.797   9.799 -0.4251  0.3463 -0.5093
 9251TIP3   OH249167   0.188   6.710   3.455  0.0620  0.2286  0.1151
 9251TIP3    H149168   0.281   6.734   3.456  0.6720 -1.9258  2.0036
 9251TIP3    H249169   0.186   6.624   3.412 -1.2546  0.7757 -0.9866
 9252TIP3   OH249170   2.766   1.675  12.768 -0.0182 -0.5250  0.8763
 9252TIP3    H149171   2.820   1.743  12.808  0.1743 -0.6996  0.9149
 9252TIP3    H249172   2.811   1.655  12.686 -1.6036  1.4267 -0.5436
 9253TIP3   OH249173   3.454   0.913  14.688 -0.3992 -0.3827 -0.4381
 9253TIP3    H149174   3.361   0.902  14.706 -0.7338  1.6776 -0.6867
 9253TIP3    H249175   3.496   0.898  14.773 -1.1634  0.6969  0.1542
 9254TIP3   OH249176   6.218   5.160  11.710  0.0248  0.4290 -0.1066
 9254TIP3    H149177   6.215   5.153  11.806  1.1230 -0.4031 -0.1190
 9254TIP3    H249178   6.127   5.153  11.683 -0.1904 -0.5849  0.8093
 9255TIP3   OH249179   2.301   4.796   5.331  0.8133 -0.4537 -0.1528
 9255TIP3    H149180   2.260   4.808   5.416 -0.4990 -1.2329 -0.6493
 9255TIP3    H249181   2.242   4.840   5.269  1.8439  0.2691 -0.6583
 9256TIP3   OH249182   6.318   2.937  15.577  0.2553  0.2449 -0.3463
 9256TIP3    H149183   6.289   2.856  15.535  3.1929 -0.7966 -0.6393
 9256TIP3    H249184   6.351   2.991  15.505 -2.4311  2.1748 -0.2639
 9257TIP3   OH249185   4.383   5.091   3.065 -0.1789 -0.4326  0.1962
 9257TIP3    H149186   4.394   5.047   3.149 -0.1039 -0.3047  0.2528
 9257TIP3    H249187   4.436   5.170   3.072 -0.6790 -0.0969  0.2657
 9258TIP3   OH249188   4.176   0.215  12.272  0.6390 -0.2632 -0.5850
 9258TIP3    H149189   4.210   0.219  12.183  1.2866 -1.1028 -0.3866
 9258TIP3    H249190   4.181   0.122  12.296 -2.0549 -0.5102 -0.6460
 9259TIP3   OH249191   6.295   2.266   1.932 -0.0785  0.0998 -0.1205
 9259TIP3    H149192   6.311   2.214   1.853  2.9004  1.6733 -0.6755
 9259TIP3    H249193   6.226   2.327   1.907  0.5535  0.3091 -1.4053
 9260TIP3   OH249194   1.028   0.816  11.121  0.0952 -0.1209  0.3767
 9260TIP3    H149195   1.038   0.887  11.058 -1.2329 -0.2410  0.0066
 9260TIP3    H249196   0.933   0.806  11.132  0.2787 -0.1277  2.3682
 9261TIP3   OH249197   1.465   1.285   4.541  0.4030 -0.1252 -0.1296
 9261TIP3    H149198   1.403   1.335   4.488  0.2324  0.9723  1.0595
 9261TIP3    H249199   1.549   1.297   4.496 -0.2348 -1.9625 -1.9800
 9262TIP3   OH249200   1.016   3.702   1.623  0.6006  0.2919 -0.2509
 9262TIP3    H149201   0.976   3.655   1.549 -0.7228  2.6975 -1.1728
 9262TIP3    H249202   1.096   3.738   1.587  0.2440  0.9839 -0.3616
 9263TIP3   OH249203   7.071   0.770   1.978  0.2720 -0.0029 -0.2301
 9263TIP3    H149204   7.112   0.808   1.901 -1.2385 -0.9531 -1.5856
 9263TIP3    H249205   7.007   0.708   1.942 -1.9693  1.0386  1.7452
 9264TIP3   OH249206   2.349   6.940  12.607 -0.1602  0.1232 -0.1755
 9264TIP3    H149207   2.288   6.869  12.626 -1.8173  1.1266 -1.4424
 9264TIP3    H249208   2.314   7.016  12.654  0.9883  0.3893  0.3046
 9265TIP3   OH249209   0.237   6.397   4.934  0.2679 -0.0034 -0.0577
 9265TIP3    H149210   0.230   6.398   5.029 -2.0423 -1.7482 -0.1171
 9265TIP3    H249211   0.302   6.330   4.915 -0.7629 -1.1295  0.2953
 9266TIP3   OH249212   3.546   3.914   1.183 -0.5632 -0.0514 -0.6178
 9266TIP3    H149213   3.610   3.855   1.223 -1.0306  1.1920  2.1999
 9266TIP3    H249214   3.471   3.858   1.163 -1.0545 -0.5531  2.1304
 9267TIP3   OH249215   5.740   6.490   1.189  0.0683  0.0400 -0.0467
 9267TIP3    H149216   5.760   6.483   1.096 -0.7160 -0.8960 -0.1631
 9267TIP3    H249217   5.825   6.481   1.233  0.7595  2.5647 -0.7056
 9268TIP3   OH249218   4.416   1.897  15.432 -0.1709  0.1091  0.1724
 9268TIP3    H149219   4.434   1.864  15.520 -0.9505  0.2369  0.3900
 9268TIP3    H249220   4.378   1.822  15.386  2.3627 -0.6809 -0.8194
 9269TIP3   OH249221   5.969   6.054   9.242  0.1878 -0.7456  0.9827
 9269TIP3    H149222   5.884   6.089   9.217  0.4401  1.2373  2.6373
 9269TIP3    H249223   6.032   6.117   9.208  0.8098 -0.7864  2.0096
 9270TIP3   OH249224   0.023   4.940  13.642 -0.4869 -0.1890  0.1057
 9270TIP3    H149225   0.012   4.928  13.737 -0.9802  0.5417  0.1528
 9270TIP3    H249226   0.083   4.871  13.616  0.0154 -0.1286  1.0387
 9271TIP3   OH249227   2.006   4.363  12.440 -0.4707 -0.1545  0.4375
 9271TIP3    H149228   1.951   4.346  12.364 -0.6907  0.7961  0.3694
 9271TIP3    H249229   2.093   4.377  12.404 -0.2419 -1.3289  0.5143
 9272TIP3   OH249230   3.262   6.521  14.650 -0.4786  0.5990 -0.1267
 9272TIP3    H149231   3.185   6.571  14.622 -1.0716  1.8751  3.3015
 9272TIP3    H249232   3.228   6.439  14.684 -0.2577  0.7509  0.4876
 9273TIP3   OH249233   3.415   2.959  10.201 -0.3890  0.8356 -0.1343
 9273TIP3    H149234   3.499   2.984  10.240 -0.2090 -2.0539  1.6234
 9273TIP3    H249235   3.351   2.974  10.270 -0.6388 -0.8576  0.0415
 9274TIP3   OH249236   1.315   3.531  11.072  0.7513 -0.3893  0.6205
 9274TIP3    H149237   1.347   3.459  11.018  2.2594  1.8122 -1.6277
 9274TIP3    H249238   1.393   3.562  11.119  0.4819  0.7507  0.3326
 9275TIP3   OH249239   4.375   1.827  14.048  0.3510  0.7297  0.3681
 9275TIP3    H149240   4.436   1.798  14.116  0.4523  0.7722  0.2953
 9275TIP3    H249241   4.297   1.854  14.096 -0.3921 -1.2485  0.3548
 9276TIP3   OH249242   5.206   4.019  13.520 -0.0632 -0.3495  0.0290
 9276TIP3    H149243   5.130   3.967  13.494 -1.7356  2.3766 -0.9846
 9276TIP3    H249244   5.264   4.017  13.444  1.6426 -3.4752  1.2496
 9277TIP3   OH249245   6.216   5.241   6.228  0.2940 -0.7572  0.7347
 9277TIP3    H149246   6.182   5.175   6.289 -1.5357 -0.1594  0.4452
 9277TIP3    H249247   6.212   5.199   6.142  0.3789 -0.7224  0.7137
 9278TIP3   OH249248   2.501   1.921  10.865 -0.1083  0.2816  0.1506
 9278TIP3    H149249   2.452   1.995  10.900  0.5738  0.6878  0.2523
 9278TIP3    H249250   2.508   1.860  10.938  0.8270  0.8826  0.5797
 9279TIP3   OH249251   6.036   4.625  10.614  0.0751  0.3416  0.0488
 9279TIP3    H149252   5.969   4.619  10.545  0.1053  0.5221  0.0023
 9279TIP3    H249253   6.019   4.549  10.670 -1.6942  1.6468  1.4004
 9280TIP3   OH249254   0.965   6.152   3.786  0.2338 -0.0221  0.3010
 9280TIP3    H149255   1.042   6.209   3.779  0.7080 -0.3309  2.3371
 9280TIP3    H249256   0.994   6.068   3.752 -0.0081  0.4955 -1.2826
 9281TIP3   OH249257   2.041   0.925  14.161 -0.3290 -0.2934 -0.2605
 9281TIP3    H149258   2.014   1.014  14.185  0.3278 -0.3001  0.5818
 9281TIP3    H249259   1.959   0.875  14.157 -0.5629 -0.0786  1.1812
 9282TIP3   OH249260   4.268   5.382  15.622 -1.0232 -0.0892  0.4735
 9282TIP3    H149261   4.203   5.347  15.560  0.0333  0.0127 -0.7219
 9282TIP3    H249262   4.284   5.309  15.682 -0.4832 -0.9433 -0.6628
 9283TIP3   OH249263   5.097   0.932   3.577 -0.3166  0.0197  0.6547
 9283TIP3    H149264   5.105   0.915   3.670 -0.5784 -0.4830  0.5895
 9283TIP3    H249265   5.119   1.025   3.567  0.0847 -0.0200  1.1601
 9284TIP3   OH249266   3.570   3.861   2.714 -0.0262 -0.3583  0.0704
 9284TIP3    H149267   3.480   3.893   2.712 -0.1623 -0.7619 -0.7345
 9284TIP3    H249268   3.610   3.900   2.636  0.2145 -0.9801 -0.1191
 9285TIP3   OH249269   3.725   1.764  14.808 -0.2962  0.4231  0.7128
 9285TIP3    H149270   3.714   1.774  14.903  0.8546 -0.6589  0.9779
 9285TIP3    H249271   3.676   1.838  14.771 -0.4730  1.0702  2.1517
 9286TIP3   OH249272   4.016   3.378  10.774  0.7038  0.4799 -0.2023
 9286TIP3    H149273   3.924   3.363  10.750 -0.7273  3.3700  2.5996
 9286TIP3    H249274   4.038   3.461  10.733  0.8537  1.4737  1.7522
 9287TIP3   OH249275   2.161   6.232   1.149 -0.6446  0.2139 -0.4217
 9287TIP3    H149276   2.157   6.315   1.103  1.1452 -0.3892 -1.7879
 9287TIP3    H249277   2.255   6.214   1.159 -0.8693 -2.7579 -2.3792
 9288TIP3   OH249278   2.206   1.686  10.322 -0.0034 -0.5988  0.0378
 9288TIP3    H149279   2.143   1.736  10.374  0.9771  1.8103 -0.8976
 9288TIP3    H249280   2.281   1.674  10.380 -0.5493 -1.7666  0.5284
 9289TIP3   OH249281   2.110   0.198   3.675  0.3216  0.1627  0.0891
 9289TIP3    H149282   2.134   0.271   3.618  1.1633  0.2343  0.5197
 9289TIP3    H249283   2.071   0.133   3.616 -4.1218  2.4176  0.1076
 9290TIP3   OH249284   6.880   1.365  12.838  0.3657 -0.1527 -0.0399
 9290TIP3    H149285   6.789   1.340  12.856  1.1899 -1.9771  2.0423
 9290TIP3    H249286   6.877   1.406  12.751 -2.2567 -1.1226 -0.4973
 9291TIP3   OH249287   1.544   3.214   5.462  0.9861 -0.0124 -0.0225
 9291TIP3    H149288   1.588   3.224   5.377  0.1489  3.0459 -0.1877
 9291TIP3    H249289   1.569   3.292   5.512 -0.4754 -0.5586  1.6533
 9292TIP3   OH249290   6.825   2.396  13.692  0.0889  0.1567  0.1377
 9292TIP3    H149291   6.805   2.481  13.731  1.0329 -0.1639  1.3737
 9292TIP3    H249292   6.918   2.403  13.668  0.3033 -0.6857  0.7047
 9293TIP3   OH249293   4.359   4.140  11.427  0.0139  0.1012  0.2423
 9293TIP3    H149294   4.400   4.137  11.514 -0.0257  0.2640  0.2654
 9293TIP3    H249295   4.290   4.073  11.431  0.0177  0.1027  0.3323
 9294TIP3   OH249296   5.981   0.088  14.857 -0.0172  0.1379  0.3778
 9294TIP3    H149297   5.902   0.083  14.911 -2.0547  0.8031 -2.2916
 9294TIP3    H249298   6.002  -0.003  14.836 -0.4270 -0.0246  0.6690
 9295TIP3   OH249299   0.964   6.274  13.129 -0.2511 -0.1084 -0.2633
 9295TIP3    H149300   0.965   6.343  13.196  1.3192 -3.4827  3.6377
 9295TIP3    H249301   1.050   6.280  13.088 -0.0527  0.1305  0.1796
 9296TIP3   OH249302   6.111   3.699  10.965  0.7159  0.3697 -0.3184
 9296TIP3    H149303   6.140   3.775  10.915  1.7103 -0.2785 -0.7569
 9296TIP3    H249304   6.020   3.719  10.988  1.0886  1.8841 -0.0194
 9297TIP3   OH249305   3.202   3.102  15.566  0.2232 -0.5453  0.1304
 9297TIP3    H149306   3.227   3.156  15.641 -0.7622 -0.0080  0.0862
 9297TIP3    H249307   3.119   3.062  15.592  0.4109 -1.2037 -0.2599
 9298TIP3   OH249308   5.803   3.077  13.705 -0.0861 -0.0374 -0.0175
 9298TIP3    H149309   5.738   3.147  13.707 -0.2677 -0.2138  0.2865
 9298TIP3    H249310   5.764   3.006  13.757  0.4390 -0.0649  0.3456
 9299TIP3   OH249311   3.867   4.236  11.481 -0.1379  0.0920 -0.4526
 9299TIP3    H149312   3.847   4.145  11.458 -0.1273 -0.1028  0.2865
 9299TIP3    H249313   3.783   4.275  11.501  0.1128 -0.7364  2.6877
 9300TIP3   OH249314   3.975   5.392  10.153 -0.5016 -0.0580 -0.0563
 9300TIP3    H149315   3.965   5.315  10.208  1.2794 -0.2905 -0.0325
 9300TIP3    H249316   3.954   5.465  10.211 -0.9600 -0.4302  0.2591
 9301TIP3   OH249317   3.283   3.058  11.569 -0.3021 -0.7113 -0.2039
 9301TIP3    H149318   3.195   3.027  11.547 -0.1326 -3.9063  2.8974
 9301TIP3    H249319   3.278   3.082  11.661  2.1126 -1.1949  0.1283
 9302TIP3   OH249320   2.952   2.514  10.745  0.7117 -0.2633 -0.3966
 9302TIP3    H149321   2.897   2.454  10.695  0.7006  0.2042 -0.9540
 9302TIP3    H249322   3.041   2.484  10.730  0.6137 -1.1826  0.7173
 9303TIP3   OH249323   4.345   4.464  13.756 -0.0520 -0.0142 -0.2443
 9303TIP3    H149324   4.257   4.484  13.787  0.0777 -0.2670  0.3062
 9303TIP3    H249325   4.339   4.375  13.721  0.1460 -0.3263  0.4877
 9304TIP3   OH249326   4.274   6.877  12.123 -0.2446  0.5986 -0.4466
 9304TIP3    H149327   4.222   6.941  12.172 -1.1057 -0.2046 -0.2679
 9304TIP3    H249328   4.274   6.909  12.033 -0.0850  1.2114 -0.2299
 9305TIP3   OH249329   6.325   3.918   3.341  0.1376  0.6206  0.9019
 9305TIP3    H149330   6.273   3.878   3.271  2.2799 -0.2131 -0.2814
 9305TIP3    H249331   6.371   3.990   3.300  1.8250 -0.1974  1.2864
 9306TIP3   OH249332   1.284   1.162   4.958 -0.4687  0.7510 -0.1229
 9306TIP3    H149333   1.254   1.082   5.002  0.1841  0.5804  0.0217
 9306TIP3    H249334   1.324   1.131   4.877  0.1260  0.8949  0.1120
 9307TIP3   OH249335   1.229   6.163   5.425  0.6623  0.0068 -0.1677
 9307TIP3    H149336   1.205   6.080   5.384 -0.0394 -0.6591  1.4683
 9307TIP3    H249337   1.325   6.165   5.423  0.7775 -1.6746  1.2068
 9308TIP3   OH249338   1.087   3.260  15.393  0.2145 -0.1037 -0.2375
 9308TIP3    H149339   1.151   3.221  15.452  0.6107 -0.2794 -0.7708
 9308TIP3    H249340   1.102   3.354  15.400  0.4367 -0.1372 -0.2510
 9309TIP3   OH249341   6.953   3.074  10.150 -0.2641  0.3074  0.1045
 9309TIP3    H149342   7.047   3.066  10.132 -0.2049  1.1712 -0.0181
 9309TIP3    H249343   6.916   2.991  10.119  0.5888 -0.4895  1.1406
 9310TIP3   OH249344   3.990   3.415  14.551 -0.0740 -0.1061 -0.0390
 9310TIP3    H149345   3.895   3.405  14.547  0.0806 -1.3965 -2.5674
 9310TIP3    H249346   4.009   3.486  14.489  0.7446 -1.6389 -1.6243
 9311TIP3   OH249347   5.957   6.304  15.411 -0.0451 -0.5325 -0.3222
 9311TIP3    H149348   5.993   6.389  15.385  1.9252 -0.9170  0.9224
 9311TIP3    H249349   5.910   6.322  15.493 -2.2285 -0.1771 -1.5545
 9312TIP3   OH249350   2.691   0.729   5.503 -0.4809 -0.1716  0.3954
 9312TIP3    H149351   2.771   0.781   5.514 -1.8703  1.9509  1.0677
 9312TIP3    H249352   2.622   0.794   5.492 -2.4406 -1.8649  2.0163
 9313TIP3   OH249353   6.108   5.368  15.253  0.1715  0.6323  0.2599
 9313TIP3    H149354   6.143   5.313  15.183  0.3775  1.3678 -0.2256
 9313TIP3    H249355   6.097   5.309  15.328  1.3368  0.1461  0.0584
 9314TIP3   OH249356   5.091   2.839  12.059 -0.3402 -0.1887 -0.0011
 9314TIP3    H149357   5.043   2.768  12.101  0.7389 -0.2627  1.1453
 9314TIP3    H249358   5.142   2.797  11.990  1.5503 -0.8382  1.7014
 9315TIP3   OH249359   5.850   4.631  15.221  0.7291 -0.2213 -0.5503
 9315TIP3    H149360   5.791   4.705  15.235 -1.2882 -1.3831 -2.3464
 9315TIP3    H249361   5.810   4.558  15.268  1.6256 -0.6488 -0.4202
 9316TIP3   OH249362   4.912   2.819   2.493  0.6280  0.1903 -0.2628
 9316TIP3    H149363   4.950   2.764   2.425 -0.7143 -0.5500 -0.4505
 9316TIP3    H249364   4.928   2.909   2.464  0.6788 -0.1211 -1.2173
 9317TIP3   OH249365   3.645   4.322  14.473 -0.3837  0.4357 -0.3023
 9317TIP3    H149366   3.551   4.303  14.468 -0.4698  0.8328 -0.2525
 9317TIP3    H249367   3.653   4.409  14.433 -0.3989  1.5211  1.9114
 9318TIP3   OH249368   5.537   0.096  11.824 -0.1047 -0.8940  0.4318
 9318TIP3    H149369   5.540   0.025  11.889  0.0253 -1.1355  0.1617
 9318TIP3    H249370   5.589   0.166  11.864 -0.6798 -0.7473  0.9371
 9319TIP3   OH249371   1.038   5.843  11.891 -0.4249  0.4289 -0.1584
 9319TIP3    H149372   0.964   5.849  11.951  0.5341  0.3028  1.0961
 9319TIP3    H249373   1.008   5.784  11.822 -1.2317 -0.2397  0.7349
 9320TIP3   OH249374   2.133   3.779   3.148  0.0635 -0.0262 -0.3934
 9320TIP3    H149375   2.076   3.848   3.116  0.1081  0.6363  0.9056
 9320TIP3    H249376   2.087   3.697   3.128 -1.0032  0.4711 -0.0047
 9321TIP3   OH249377   2.522   4.290  12.834  0.3352 -0.2341  0.3187
 9321TIP3    H149378   2.545   4.332  12.917 -1.1110 -0.3872  0.8443
 9321TIP3    H249379   2.576   4.211  12.831 -0.0163 -0.5339  1.4177
 9322TIP3   OH249380   5.364   1.367  10.292 -0.5333  0.7144  0.1767
 9322TIP3    H149381   5.448   1.354  10.247 -0.6153  0.7303  0.0180
 9322TIP3    H249382   5.367   1.459  10.321 -0.5999  0.7908 -0.0510
 9323TIP3   OH249383   1.282   3.191  10.790  0.2540 -0.3577 -0.3484
 9323TIP3    H149384   1.323   3.105  10.782  1.0011 -0.0732  0.3136
 9323TIP3    H249385   1.197   3.181  10.747  0.1195 -1.5754  0.1455
 9324TIP3   OH249386   1.845   3.146   1.949 -0.0368 -0.3302  0.2153
 9324TIP3    H149387   1.929   3.140   1.902  0.7880  3.0219  1.0507
 9324TIP3    H249388   1.869   3.142   2.042 -0.5662  2.1381  0.5040
 9325TIP3   OH249389   2.786   5.657   2.403  0.3713 -0.2525  1.3843
 9325TIP3    H149390   2.775   5.747   2.374  1.3881 -0.3990  0.5256
 9325TIP3    H249391   2.731   5.651   2.482 -0.6395  0.7705  0.7917
 9326TIP3   OH249392   4.544   4.658  12.993 -0.0434  1.0106 -0.2162
 9326TIP3    H149393   4.599   4.593  12.949  2.0062  2.0243  0.6701
 9326TIP3    H249394   4.527   4.620  13.079 -0.4265  0.8596 -0.3570
 9327TIP3   OH249395   0.646   5.885   4.171  0.1062  0.0401 -0.2556
 9327TIP3    H149396   0.646   5.841   4.256 -0.3351  0.1687 -0.1900
 9327TIP3    H249397   0.735   5.919   4.162  0.2473 -0.2560  0.0067
 9328TIP3   OH249398   5.326   6.423   2.378 -0.2473  0.2962 -0.3593
 9328TIP3    H149399   5.341   6.515   2.402  1.8896 -0.0885 -0.0280
 9328TIP3    H249400   5.341   6.420   2.284  0.3671  0.1757 -0.2612
 9329TIP3   OH249401   6.194   4.163   4.401 -0.3332 -0.0466 -0.2859
 9329TIP3    H149402   6.208   4.106   4.326 -1.2829 -1.0330  0.2618
 9329TIP3    H249403   6.102   4.191   4.393 -0.0035  1.0642 -0.3097
 9330TIP3   OH249404   1.978   1.480  14.841 -0.4315  0.2529  0.2772
 9330TIP3    H149405   2.050   1.419  14.850 -0.9850 -0.7444 -1.5239
 9330TIP3    H249406   2.018   1.561  14.808 -0.0281 -0.0257  0.0823
 9331TIP3   OH249407   2.613   3.678   3.149 -0.1401 -0.0630  0.0669
 9331TIP3    H149408   2.542   3.742   3.146 -0.1098 -0.0319  0.0115
 9331TIP3    H249409   2.591   3.621   3.223  0.2962  0.5448  0.6764
 9332TIP3   OH249410   2.862   2.472   4.885  0.2641  0.4895  0.0298
 9332TIP3    H149411   2.796   2.403   4.881  0.1552  0.6153 -0.4482
 9332TIP3    H249412   2.837   2.526   4.959  0.1220  0.2427  0.1619
 9333TIP3   OH249413   1.488   3.361  15.014 -0.6189  0.1125 -0.4765
 9333TIP3    H149414   1.432   3.346  14.938  0.5691  0.2895 -1.4203
 9333TIP3    H249415   1.547   3.286  15.016 -0.7248  0.0366  0.3697
 9334TIP3   OH249416   2.388   2.775  11.994  0.3773 -0.3536  0.0160
 9334TIP3    H149417   2.308   2.820  12.025 -0.0919 -1.5138  0.5394
 9334TIP3    H249418   2.363   2.683  11.988  1.5797 -0.6800 -0.2089
 9335TIP3   OH249419   5.898   6.747  12.701  0.1867 -0.0196 -0.2669
 9335TIP3    H149420   5.829   6.683  12.682 -0.9634  1.2820 -0.6547
 9335TIP3    H249421   5.899   6.754  12.797 -0.4532  0.1986 -0.2756
 9336TIP3   OH249422   1.587   1.633   4.957  0.6671 -0.2202 -0.2759
 9336TIP3    H149423   1.500   1.598   4.938 -1.1180  2.3004  2.4043
 9336TIP3    H249424   1.600   1.703   4.894 -0.7056  1.4335  1.2020
 9337TIP3   OH249425   2.632   3.357  12.939  0.0445 -0.3894  0.1830
 9337TIP3    H149426   2.696   3.292  12.967  1.8333  1.1474 -0.1652
 9337TIP3    H249427   2.661   3.438  12.980 -0.7708  0.6755 -1.2544
 9338TIP3   OH249428   6.529   6.577  15.466 -0.3554 -0.5944  0.2054
 9338TIP3    H149429   6.591   6.507  15.486  1.2903  1.0062  1.1317
 9338TIP3    H249430   6.468   6.577  15.540  0.1091 -0.5991  0.6001
 9339TIP3   OH249431   1.920   1.656   0.241  0.5504  0.3853 -0.0963
 9339TIP3    H149432   1.916   1.690   0.331 -1.3153  0.9437 -0.3535
 9339TIP3    H249433   1.927   1.561   0.252 -0.5264  0.3717  0.6782
 9340TIP3   OH249434   1.804   2.925  13.332  0.1532  0.6325 -0.2567
 9340TIP3    H149435   1.763   2.956  13.251  0.8149 -3.6404 -2.5315
 9340TIP3    H249436   1.896   2.950  13.322 -0.1246  1.8635  0.1818
 9341TIP3   OH249437   0.366   4.498  14.964 -0.7546 -0.0282 -0.4709
 9341TIP3    H149438   0.412   4.415  14.952 -1.5823 -0.5347 -0.2693
 9341TIP3    H249439   0.421   4.563  14.921  1.7296 -0.0693  2.3574
 9342TIP3   OH249440   2.870   3.422  12.638  0.1328  0.0147 -0.2541
 9342TIP3    H149441   2.847   3.416  12.545 -2.2071 -1.8753  0.3719
 9342TIP3    H249442   2.831   3.505  12.666 -0.4140 -0.1158 -0.6194
 9343TIP3   OH249443   2.012   0.075  13.792 -0.6241  0.3009 -0.1281
 9343TIP3    H149444   1.932   0.111  13.755  0.2171  2.1685 -0.2436
 9343TIP3    H249445   2.078   0.142  13.776  0.6841 -0.6299  1.0994
 9344TIP3   OH249446   1.177   0.594  14.711 -0.0704 -0.1121 -0.2233
 9344TIP3    H149447   1.247   0.602  14.777 -1.0142  2.5940  0.6127
 9344TIP3    H249448   1.201   0.657  14.643 -1.3867  0.4517 -0.1917
 9345TIP3   OH249449   5.781   5.289  12.791 -0.0804 -0.2931 -0.2871
 9345TIP3    H149450   5.817   5.215  12.839  0.2041 -0.2615 -0.4537
 9345TIP3    H249451   5.775   5.259  12.700 -0.3374 -0.2495 -0.2862
 9346TIP3   OH249452   1.220   4.224  14.963 -0.4222 -0.1911 -0.4384
 9346TIP3    H149453   1.194   4.132  14.962 -0.8431 -0.2038  2.6295
 9346TIP3    H249454   1.303   4.225  14.916 -0.7818 -1.9806 -1.2151
 9347TIP3   OH249455   0.845   6.690  13.942  0.4115  0.2592  0.0598
 9347TIP3    H149456   0.834   6.746  13.864  0.1224 -0.9733 -0.8155
 9347TIP3    H249457   0.786   6.616  13.926  2.2437 -1.3086  0.2114
 9348TIP3   OH249458   6.243   2.685   0.367 -0.5262  0.0329 -0.2700
 9348TIP3    H149459   6.158   2.668   0.408 -1.0508 -0.5977 -1.5628
 9348TIP3    H249460   6.260   2.778   0.382 -0.7472 -0.1461  1.2395
 9349TIP3   OH249461   3.279   4.057   0.038  0.3795 -0.1647  0.3425
 9349TIP3    H149462   3.309   4.047   0.129  0.2897  1.8585  0.6423
 9349TIP3    H249463   3.329   4.131   0.005  0.1117 -0.6269 -1.1570
 9350TIP3   OH249464   5.092   3.301  15.368  0.0959  0.3812 -0.3487
 9350TIP3    H149465   5.148   3.319  15.292 -2.8095  1.0420 -2.5144
 9350TIP3    H249466   5.096   3.382  15.420  0.0543  0.9728 -1.2390
 9351TIP3   OH249467   1.000   2.784  10.862  0.2155 -0.0517  0.4272
 9351TIP3    H149468   0.914   2.804  10.823  0.2576 -1.7628 -0.6298
 9351TIP3    H249469   0.983   2.714  10.924  0.7328  0.1566  0.8094
 9352TIP3   OH249470   5.350   6.096  12.489 -0.3415 -0.0925 -0.5531
 9352TIP3    H149471   5.272   6.102  12.545 -0.0613 -2.4800  0.2307
 9352TIP3    H249472   5.315   6.095  12.400 -1.1427 -0.1548 -0.2473
 9353TIP3   OH249473   6.647   4.506  14.022 -0.4587 -0.3010  0.5703
 9353TIP3    H149474   6.653   4.469  13.934  0.4193  1.8298 -0.3433
 9353TIP3    H249475   6.652   4.430  14.081  0.6797 -1.6503 -1.1737
 9354TIP3   OH249476   5.769   2.491  12.210 -0.8043 -0.5969 -0.1046
 9354TIP3    H149477   5.677   2.488  12.236 -0.9834  0.1531 -0.6028
 9354TIP3    H249478   5.767   2.475  12.116 -0.2681 -2.1685  0.1287
 9355TIP3   OH249479   2.122   1.814  12.290 -0.2062  0.1706  0.1985
 9355TIP3    H149480   2.083   1.793  12.206  0.1340  0.9912 -0.1716
 9355TIP3    H249481   2.079   1.755  12.352 -0.8670 -0.0400 -0.4507
 9356TIP3   OH249482   6.327   3.464  11.646 -0.1247  0.1405  0.1006
 9356TIP3    H149483   6.272   3.456  11.568 -0.1784 -0.9572  0.2454
 9356TIP3    H249484   6.411   3.426  11.621 -0.0376  0.0801  0.4712
 9357TIP3   OH249485   4.466   1.466  11.708 -0.4281  0.0737 -0.0834
 9357TIP3    H149486   4.556   1.494  11.719 -0.3183  0.6704 -2.1062
 9357TIP3    H249487   4.441   1.429  11.793  1.9368 -0.7971  0.3045
 9358TIP3   OH249488   0.286   3.035  12.332 -0.1369  0.7379 -0.5707
 9358TIP3    H149489   0.362   2.978  12.341 -2.6567 -2.8446  0.5322
 9358TIP3    H249490   0.261   3.029  12.240  0.1749  0.8890 -0.6658
 9359TIP3   OH249491   6.247   2.292   5.228  0.1998  0.2342 -0.4365
 9359TIP3    H149492   6.215   2.217   5.279 -0.0203 -0.4865 -1.6029
 9359TIP3    H249493   6.200   2.367   5.264 -0.0495 -0.2730  0.3290
 9360TIP3   OH249494   4.396   6.903  11.204  0.2752 -0.1190 -0.6301
 9360TIP3    H149495   4.479   6.949  11.206  0.2575 -0.0452 -1.3717
 9360TIP3    H249496   4.360   6.922  11.118 -0.2306 -0.6423 -0.5406
 9361TIP3   OH249497   2.208   5.939  10.695  0.6511 -0.1886 -0.1590
 9361TIP3    H149498   2.250   5.947  10.780  1.2137 -1.4266 -0.2958
 9361TIP3    H249499   2.268   5.983  10.634 -1.3042  3.7501  0.4278
 9362TIP3   OH249500   2.660   1.321  13.296  0.2202  0.3796  0.5889
 9362TIP3    H149501   2.654   1.249  13.360  1.6957 -0.1438  0.1823
 9362TIP3    H249502   2.705   1.391  13.343  1.7337 -0.1738  0.0407
 9363TIP3   OH249503   5.080   3.821   1.108  0.4729  0.2494  0.0299
 9363TIP3    H149504   5.069   3.758   1.179 -0.6340  2.1278  1.6185
 9363TIP3    H249505   5.096   3.767   1.030  0.4880 -1.9226  1.4542
 9364TIP3   OH249506   0.550   0.789  14.239 -0.4925 -0.3835  0.3939
 9364TIP3    H149507   0.576   0.842  14.314  0.0903 -1.3710  0.8961
 9364TIP3    H249508   0.454   0.785  14.245 -0.4111 -1.0358  1.4929
 9365TIP3   OH249509   0.020   6.241   0.742  0.0769  0.1425 -0.7588
 9365TIP3    H149510   0.060   6.327   0.731 -1.1744  0.9390  0.5684
 9365TIP3    H249511  -0.055   6.257   0.800 -0.5966 -1.7241 -1.0612
 9366TIP3   OH249512   5.247   2.857  15.183 -0.8047 -0.1678 -0.0318
 9366TIP3    H149513   5.155   2.873  15.206 -0.8970  0.8719 -1.0396
 9366TIP3    H249514   5.277   2.941  15.147 -0.0218 -1.0576 -1.5125
 9367TIP3   OH249515   0.154   1.315   0.712  0.7269  0.0732 -0.1368
 9367TIP3    H149516   0.247   1.302   0.691  0.6847 -0.1143 -0.2144
 9367TIP3    H249517   0.139   1.409   0.698  0.6616 -0.0686 -1.1397
 9368TIP3   OH249518   5.261   5.823  13.311 -0.6832  0.4565  0.3764
 9368TIP3    H149519   5.315   5.784  13.242 -1.0214  0.2863  0.2048
 9368TIP3    H249520   5.230   5.906  13.275 -0.7277  0.4428  0.3825
 9369TIP3   OH249521   7.071   3.352   3.854 -0.5227 -0.0201  0.0320
 9369TIP3    H149522   6.976   3.361   3.857 -0.5144  1.3417 -1.9142
 9369TIP3    H249523   7.101   3.430   3.807  1.4714 -0.9512 -0.3307
 9370TIP3   OH249524   1.708   5.636  11.629  0.4561 -0.3287 -0.9385
 9370TIP3    H149525   1.735   5.727  11.616 -0.3208 -0.4503 -4.5277
 9370TIP3    H249526   1.650   5.639  11.705  1.2679  1.9883 -0.3373
 9371TIP3   OH249527   6.045   5.135  15.622 -0.6779  0.2624  0.3694
 9371TIP3    H149528   6.100   5.110  15.696 -1.1912 -1.2937  0.2601
 9371TIP3    H249529   6.000   5.214  15.651 -1.7971 -0.9904  2.2317
 9372TIP3   OH249530   1.105   3.009   1.421 -0.0841  0.0741  0.6887
 9372TIP3    H149531   1.013   2.983   1.413 -0.0307  0.0520  0.1125
 9372TIP3    H249532   1.134   2.969   1.503 -0.1274 -1.3260  0.0486
 9373TIP3   OH249533   5.629   6.777  10.954  0.6055 -0.6323 -0.0975
 9373TIP3    H149534   5.680   6.847  10.996  0.3953  2.8890 -4.9006
 9373TIP3    H249535   5.695   6.719  10.917  0.8720 -0.9776  0.8961
 9374TIP3   OH249536   1.310   1.250  11.434 -0.0383 -0.4613  0.0461
 9374TIP3    H149537   1.226   1.282  11.466  0.1661  2.0090 -1.6260
 9374TIP3    H249538   1.295   1.157  11.417 -2.7849  0.0848 -1.1353
 9375TIP3   OH249539   0.335   3.484  15.540  0.6453  0.1686  0.3331
 9375TIP3    H149540   0.407   3.521  15.592  0.9945 -0.8639  0.6045
 9375TIP3    H249541   0.315   3.401  15.582  0.4351 -0.3472 -0.7544
 9376TIP3   OH249542   1.615   4.434  13.922 -0.1526  0.9785 -0.1811
 9376TIP3    H149543   1.577   4.361  13.971  1.9695 -1.2638 -1.6560
 9376TIP3    H249544   1.597   4.511  13.976 -2.3371 -0.5997  1.5539
 9377TIP3   OH249545   6.559   3.594   1.256  0.8998 -0.3722  0.0308
 9377TIP3    H149546   6.494   3.525   1.248 -0.6456  1.1185 -0.9006
 9377TIP3    H249547   6.528   3.649   1.328  1.7064 -0.2170  0.2720
 9378TIP3   OH249548   4.779   5.040   5.745  0.0364 -0.0741  0.4787
 9378TIP3    H149549   4.830   5.117   5.718 -1.0090  0.3340 -0.4124
 9378TIP3    H249550   4.829   4.965   5.711 -0.2007  0.3406 -0.8611
 9379TIP3   OH249551   4.979   4.494   5.237 -0.3157 -0.0794 -0.1759
 9379TIP3    H149552   4.923   4.482   5.314 -1.7376 -0.6940 -1.2618
 9379TIP3    H249553   5.055   4.438   5.254 -1.8296 -2.3352 -0.3345
 9380TIP3   OH249554   0.922   3.787  11.183  0.1671  0.7410 -0.2976
 9380TIP3    H149555   0.969   3.704  11.168 -0.1925 -0.0048  2.2515
 9380TIP3    H249556   0.980   3.837  11.240 -0.3265  1.5952 -0.5289
 9381TIP3   OH249557   3.530   1.538  14.244 -0.6312 -0.3091  0.2866
 9381TIP3    H149558   3.527   1.445  14.265 -0.8452 -0.5928 -0.9244
 9381TIP3    H249559   3.613   1.568  14.282 -1.5095 -0.4980  2.5044
 9382TIP3   OH249560   2.775   3.752  11.119 -0.2421  0.1079  0.2421
 9382TIP3    H149561   2.680   3.748  11.110 -0.4329 -0.5914  2.0743
 9382TIP3    H249562   2.791   3.831  11.170  0.2946  0.9380 -1.1602
 9383TIP3   OH249563   0.746   6.232  15.343 -0.6911 -0.1766  0.0531
 9383TIP3    H149564   0.781   6.222  15.255  0.4322  0.4188  0.4130
 9383TIP3    H249565   0.797   6.303  15.382 -2.9406  1.4156  0.3103
 9384TIP3   OH249566   6.923   1.161  10.165  0.5092  0.2787  0.2503
 9384TIP3    H149567   7.007   1.180  10.207  1.6414  1.4463 -2.3129
 9384TIP3    H249568   6.922   1.066  10.155  0.8012  0.1052  1.6420
 9385TIP3   OH249569   3.566   0.502  12.314  0.0912 -0.2328  0.3519
 9385TIP3    H149570   3.620   0.579  12.295  0.3207 -0.5129 -0.1739
 9385TIP3    H249571   3.522   0.522  12.396  0.2157  0.4245  0.2612
 9386TIP3   OH249572   4.540   1.301   0.743  0.1362 -0.0063 -0.0915
 9386TIP3    H149573   4.608   1.301   0.810 -1.1329  0.4006  1.2495
 9386TIP3    H249574   4.588   1.305   0.660  1.7112  1.2377  0.8321
 9387TIP3   OH249575   3.452   6.049   0.526  0.5644  0.6296  0.1419
 9387TIP3    H149576   3.375   6.003   0.493  1.1162  0.2218 -0.6174
 9387TIP3    H249577   3.423   6.088   0.608 -0.7857  1.4375 -0.6723
 9388TIP3   OH249578   0.792   1.372   4.282 -0.1417 -0.2152  0.1638
 9388TIP3    H149579   0.879   1.354   4.319  0.3670  0.8602 -0.4627
 9388TIP3    H249580   0.731   1.353   4.353  0.4851 -2.2952  0.2000
 9389TIP3   OH249581   0.212   7.077   1.395 -0.4186 -0.1608 -0.1294
 9389TIP3    H149582   0.276   7.110   1.332 -0.7259  0.8418  0.0732
 9389TIP3    H249583   0.144   7.038   1.341  0.2984 -1.1522 -0.3502
 9390TIP3   OH249584   6.251   0.281   2.006  0.1574  0.1514 -0.4592
 9390TIP3    H149585   6.322   0.333   1.968 -1.1526  2.2791 -0.1812
 9390TIP3    H249586   6.176   0.298   1.949 -0.2423 -1.8730 -0.6190
 9391TIP3   OH249587   1.224   3.429  14.129  0.5122  0.7545  0.6015
 9391TIP3    H149588   1.185   3.474  14.054 -2.6363 -2.3323  0.1164
 9391TIP3    H249589   1.293   3.375  14.091 -0.8377 -0.5295 -0.1758
 9392TIP3   OH249590   4.892   6.520  15.115 -0.2580  0.2294  0.4526
 9392TIP3    H149591   4.803   6.508  15.083  0.3272  0.5963 -1.4226
 9392TIP3    H249592   4.937   6.439  15.090 -0.3044 -0.4839  2.4538
 9393TIP3   OH249593   6.859   4.551  10.923 -0.3242 -0.1056  0.8919
 9393TIP3    H149594   6.933   4.607  10.899 -0.7058 -0.2460 -0.7057
 9393TIP3    H249595   6.879   4.522  11.012  0.4032  1.6932  1.3561
 9394TIP3   OH249596   4.434   0.575  12.426  0.2724  0.1371  0.0291
 9394TIP3    H149597   4.373   0.619  12.368  0.2619  0.7138  0.4722
 9394TIP3    H249598   4.457   0.640  12.492  2.9390  0.6559 -1.2436
 9395TIP3   OH249599   0.103   0.630   2.969 -0.0088  0.2032 -0.0765
 9395TIP3    H149600   0.062   0.543   2.964  0.7397 -0.1418 -0.4583
 9395TIP3    H249601   0.130   0.638   3.061 -1.9178  0.9200  0.4634
 9396TIP3   OH249602   3.895   2.876   0.790 -0.2647  0.0420 -0.2415
 9396TIP3    H149603   3.839   2.935   0.739  0.1992  0.8059  0.1282
 9396TIP3    H249604   3.836   2.838   0.855 -0.2433  1.3133  0.5482
 9397TIP3   OH249605   1.340   5.425  13.555 -0.5139 -0.1516  0.4899
 9397TIP3    H149606   1.435   5.435  13.548 -0.2549 -2.1301  0.4425
 9397TIP3    H249607   1.316   5.370  13.480 -1.4608 -0.8655  1.2888
 9398TIP3   OH249608   5.856   0.549   2.557 -0.7887 -0.0034  0.0889
 9398TIP3    H149609   5.926   0.564   2.620  0.1499  1.7857 -1.2854
 9398TIP3    H249610   5.899   0.547   2.472 -1.5216 -5.6323 -0.5574
 9399TIP3   OH249611   3.634   2.329   2.512 -0.0817  0.3766  0.1439
 9399TIP3    H149612   3.657   2.240   2.537 -0.9521  0.4032  1.1264
 9399TIP3    H249613   3.717   2.371   2.490  0.3178 -0.7110 -0.4913
 9400TIP3   OH249614   1.205   1.328  12.184  0.1032  0.0592 -0.0806
 9400TIP3    H149615   1.175   1.238  12.179 -0.1932  0.0963  0.9256
 9400TIP3    H249616   1.126   1.379  12.203  0.2922  0.5188 -0.4943
 9401TIP3   OH249617   1.974   1.691   5.503  0.0001  0.4864 -0.3926
 9401TIP3    H149618   2.014   1.699   5.417 -0.4369  1.5057 -0.5259
 9401TIP3    H249619   2.032   1.634   5.552  1.1002  1.1499 -0.8822
 9402TIP3   OH249620   3.294   2.643   0.209  0.3336 -0.2695 -0.1173
 9402TIP3    H149621   3.259   2.605   0.289  1.0429 -1.3786 -0.3115
 9402TIP3    H249622   3.346   2.573   0.170  1.1415  0.6976 -0.8368
 9403TIP3   OH249623   4.824   5.205  13.772 -0.1771 -0.4302  0.1644
 9403TIP3    H149624   4.780   5.162  13.699 -0.3121  0.4896 -0.3092
 9403TIP3    H249625   4.830   5.137  13.840  0.6115 -1.5219 -0.9557
 9404TIP3   OH249626   6.107   6.559   0.887  0.5846  0.3380  0.3753
 9404TIP3    H149627   6.162   6.481   0.887 -0.8441 -0.7147  0.4255
 9404TIP3    H249628   6.101   6.585   0.795  0.1616 -0.2834  0.2253
 9405TIP3   OH249629   4.569   3.611  14.415 -0.1510  0.1804 -0.1571
 9405TIP3    H149630   4.543   3.519  14.425  3.3328 -0.8274  1.1572
 9405TIP3    H249631   4.545   3.652  14.498  1.8601 -0.6327  0.8830
 9406TIP3   OH249632   6.890   1.974  13.317 -0.3057 -0.1104  0.0962
 9406TIP3    H149633   6.843   2.056  13.306 -0.0074  0.1598  0.7871
 9406TIP3    H249634   6.821   1.908  13.326 -0.5496 -0.0908 -1.3889
 9407TIP3   OH249635   7.039   5.491   9.529 -0.6907  0.0550 -0.1218
 9407TIP3    H149636   7.020   5.431   9.457 -1.1433 -0.1964  0.1973
 9407TIP3    H249637   7.117   5.538   9.502 -1.4505  0.7191 -1.2447
 9408TIP3   OH249638   5.288   1.789  10.851  0.8029 -0.1548 -0.4691
 9408TIP3    H149639   5.306   1.765  10.942 -1.7132  0.4347  0.2673
 9408TIP3    H249640   5.374   1.805  10.812  1.9402 -0.5370  1.7612
 9409TIP3   OH249641   5.707   3.506  10.093 -0.1637  0.1839  0.6654
 9409TIP3    H149642   5.679   3.504  10.002 -3.0075 -0.1318  1.4415
 9409TIP3    H249643   5.802   3.509  10.089 -0.2330  2.1319 -2.3014
 9410TIP3   OH249644   1.984   2.724   4.534 -0.3385 -0.1626  0.1830
 9410TIP3    H149645   1.945   2.738   4.448  0.6003 -0.1872 -0.2665
 9410TIP3    H249646   1.944   2.644   4.566 -1.6911  0.5681  0.3643
 9411TIP3   OH249647   7.011   5.037   3.860 -0.4095 -0.2146  0.4404
 9411TIP3    H149648   7.002   5.107   3.924  1.5599  1.1805 -0.7182
 9411TIP3    H249649   6.954   4.967   3.892  0.1304  0.6128  3.4232
 9412TIP3   OH249650   5.206   5.188   1.238  0.1001 -0.1101 -0.2646
 9412TIP3    H149651   5.156   5.107   1.227 -0.0214  0.0302 -0.7591
 9412TIP3    H249652   5.203   5.230   1.152  1.7751 -0.4915 -0.5457
 9413TIP3   OH249653   3.586   4.901  13.241 -0.5460 -0.0630 -0.1826
 9413TIP3    H149654   3.587   4.834  13.173 -0.1330  0.2253 -0.4584
 9413TIP3    H249655   3.675   4.901  13.276 -0.3130  0.9140 -0.7433
 9414TIP3   OH249656   0.693   5.588   3.020 -0.5959 -0.3558  0.2437
 9414TIP3    H149657   0.735   5.664   3.061 -0.4287 -0.4812  0.3042
 9414TIP3    H249658   0.752   5.565   2.948 -0.9492 -0.0601 -0.1445
 9415TIP3   OH249659   0.814   4.277  10.506 -0.3034  0.2522 -0.1811
 9415TIP3    H149660   0.865   4.213  10.556 -2.9205 -1.2357  0.7495
 9415TIP3    H249661   0.748   4.308  10.568 -0.7232  1.9382 -1.4047
 9416TIP3   OH249662   6.245   6.281  15.224 -0.9450  0.3424  0.2558
 9416TIP3    H149663   6.311   6.214  15.208 -0.5749 -0.0161  2.9199
 9416TIP3    H249664   6.295   6.363  15.229 -0.8551  0.2548  0.9110
 9417TIP3   OH249665   3.080   7.103   2.417  0.2152  0.2838 -0.1344
 9417TIP3    H149666   3.073   7.062   2.503  0.8076 -0.3488 -0.3742
 9417TIP3    H249667   3.009   7.167   2.415 -1.4887 -1.4855 -0.1311
 9418TIP3   OH249668   1.582   2.820   3.208 -0.1811  0.2954 -0.3766
 9418TIP3    H149669   1.522   2.883   3.247  0.6449  0.5894  0.4683
 9418TIP3    H249670   1.577   2.744   3.267  0.4396  0.4142 -0.1678
 9419TIP3   OH249671   4.692   0.473   1.166 -0.3904 -0.7100  0.1319
 9419TIP3    H149672   4.714   0.546   1.108 -2.2625 -0.2612 -0.0753
 9419TIP3    H249673   4.666   0.402   1.108  0.6192 -1.2969  0.3637
 9420TIP3   OH249674   2.958   3.937   3.955  0.1738  0.3054 -0.1936
 9420TIP3    H149675   3.043   3.956   3.994 -0.1606  0.8074  0.3130
 9420TIP3    H249676   2.950   3.841   3.959  0.7360  0.2536 -0.3040
 9421TIP3   OH249677   1.447   5.268   4.522 -0.8892 -0.1141  0.2287
 9421TIP3    H149678   1.532   5.305   4.498 -1.8731  1.2881 -1.3724
 9421TIP3    H249679   1.434   5.195   4.462 -0.9600 -0.0996  0.2258
 9422TIP3   OH249680   1.344   4.059   0.887 -0.6476  0.0265 -0.4066
 9422TIP3    H149681   1.271   4.101   0.842  0.0188 -0.5035 -2.0320
 9422TIP3    H249682   1.412   4.048   0.820  0.2276 -1.1761  0.6171
 9423TIP3   OH249683   4.428   5.285   3.706  0.5141  0.3340 -0.0984
 9423TIP3    H149684   4.342   5.248   3.684  0.2577  2.2584 -2.7352
 9423TIP3    H249685   4.487   5.210   3.702 -0.6315 -0.5725 -0.9088
 9424TIP3   OH249686   2.186   5.982  14.689  0.5234 -0.4481  0.0399
 9424TIP3    H149687   2.102   6.006  14.727  0.5889 -0.5969  0.2802
 9424TIP3    H249688   2.246   5.979  14.763  1.1749  1.4737 -0.3365
 9425TIP3   OH249689   3.697   4.601  14.123  0.5712 -0.3843 -0.3131
 9425TIP3    H149690   3.605   4.592  14.149  0.5990  0.3328  0.0373
 9425TIP3    H249691   3.728   4.510  14.117 -0.1118 -0.6308 -0.2843
 9426TIP3   OH249692   2.990   3.241  12.939  0.2450 -0.7272  0.6940
 9426TIP3    H149693   2.929   3.195  12.998  0.0625 -1.6831 -0.2056
 9426TIP3    H249694   3.070   3.250  12.991 -0.2724 -0.5161  1.4822
 9427TIP3   OH249695   4.655   6.353  13.055 -0.5924  0.2071  0.3317
 9427TIP3    H149696   4.608   6.425  13.014  0.9962  1.2818  0.3155
 9427TIP3    H249697   4.747   6.372  13.039 -0.0902 -1.3548  1.1287
 9428TIP3   OH249698   0.093   5.739   2.390 -0.3872 -0.0525 -0.7239
 9428TIP3    H149699   0.165   5.774   2.337 -1.4963  2.0817 -0.9491
 9428TIP3    H249700   0.027   5.715   2.325 -0.6918  0.0225 -0.4416
 9429TIP3   OH249701   0.260   3.814  11.252 -0.3876  0.2644  0.2175
 9429TIP3    H149702   0.343   3.860  11.245 -0.1767 -0.2114 -0.4917
 9429TIP3    H249703   0.194   3.883  11.260  0.0979  0.6361  1.1361
 9430TIP3   OH249704   5.283   5.211   2.379 -0.2473  0.3608  0.5379
 9430TIP3    H149705   5.345   5.250   2.318 -0.5103  0.8579  0.5889
 9430TIP3    H249706   5.224   5.282   2.403 -0.5178  0.0198  0.8992
 9431TIP3   OH249707   2.068   2.023  12.476 -0.4726 -0.0924  0.3537
 9431TIP3    H149708   1.976   2.033  12.502 -1.1484 -0.2771 -1.7665
 9431TIP3    H249709   2.067   1.954  12.410  1.2388 -0.2757  0.4853
 9432TIP3   OH249710   3.665   3.669  10.848  0.1515  0.0069  0.1369
 9432TIP3    H149711   3.620   3.673  10.764  0.0893  1.2979  0.1989
 9432TIP3    H249712   3.725   3.595  10.841 -0.3706 -0.3453 -0.7682
 9433TIP3   OH249713   3.443   4.721  10.835  0.0251  0.0851 -0.1753
 9433TIP3    H149714   3.395   4.803  10.827 -2.3151 -1.1668  0.3225
 9433TIP3    H249715   3.420   4.688  10.922  2.4393 -0.2300  0.4107
 9434TIP3   OH249716   0.438   6.775  14.932  0.0045 -0.4936  0.0155
 9434TIP3    H149717   0.532   6.763  14.924  0.1363 -1.2949  2.0308
 9434TIP3    H249718   0.415   6.837  14.863  1.8821 -0.7974 -0.9394
 9435TIP3   OH249719   0.245   6.459   9.779  0.5344  0.2501  0.5454
 9435TIP3    H149720   0.157   6.423   9.785  0.7506 -0.3262  0.2717
 9435TIP3    H249721   0.303   6.388   9.808  1.0353  0.0575 -0.8601
 9436TIP3   OH249722   4.858   1.551   1.464  0.3787 -0.2925 -0.0385
 9436TIP3    H149723   4.940   1.547   1.514  0.2954 -0.2056  0.1058
 9436TIP3    H249724   4.868   1.484   1.397  1.6492  1.3922 -1.6336
 9437TIP3   OH249725   2.921   5.107   2.354  0.3475  0.1473  0.0044
 9437TIP3    H149726   2.956   5.181   2.403  0.3349 -0.6068  1.2027
 9437TIP3    H249727   2.871   5.057   2.419 -1.3352  0.1437 -1.2079
 9438TIP3   OH249728   4.685   5.919  10.252 -0.4100  0.3365 -0.4298
 9438TIP3    H149729   4.762   5.863  10.241  0.0845  1.0982 -0.9581
 9438TIP3    H249730   4.693   5.985  10.182 -0.3253  1.7917  0.8896
 9439TIP3   OH249731   3.736   6.286   5.015 -0.2593  0.3256  0.3348
 9439TIP3    H149732   3.698   6.198   5.015 -0.5876  0.4550  1.4227
 9439TIP3    H249733   3.669   6.341   5.055 -0.9725  1.5061 -2.2900
 9440TIP3   OH249734   1.589   4.056   2.027 -0.7310  0.2115  0.1566
 9440TIP3    H149735   1.551   4.129   1.977  0.5665 -0.6339 -2.2497
 9440TIP3    H249736   1.676   4.087   2.053 -0.4629 -0.2089 -0.2343
 9441TIP3   OH249737   2.163   3.031   5.085  0.8551 -0.2209  0.3273
 9441TIP3    H149738   2.182   2.942   5.115  0.0389 -0.3949  0.3697
 9441TIP3    H249739   2.235   3.084   5.119  1.9482 -1.0410 -0.6511
 9442TIP3   OH249740   7.050   5.023   1.763 -0.0773 -0.8354 -0.1413
 9442TIP3    H149741   7.103   5.097   1.793 -0.2556 -0.7649 -0.0013
 9442TIP3    H249742   6.960   5.052   1.774 -0.1489 -1.1400  0.0748
 9443TIP3   OH249743   6.623   1.986   3.002  0.1331  0.2927 -0.2336
 9443TIP3    H149744   6.687   1.926   3.039 -0.4231 -1.5485 -2.0562
 9443TIP3    H249745   6.671   2.067   2.985  1.1576  0.0389  1.3284
 9444TIP3   OH249746   0.778   5.581  13.212  0.0779 -0.1727  0.1347
 9444TIP3    H149747   0.795   5.629  13.294 -0.3687  0.8737 -0.3623
 9444TIP3    H249748   0.823   5.632  13.145 -0.9824 -0.0468 -0.5111
 9445TIP3   OH249749   4.617   3.762   1.855 -0.1222  0.0253 -0.1081
 9445TIP3    H149750   4.616   3.843   1.907 -0.7686  1.5692 -2.4028
 9445TIP3    H249751   4.525   3.735   1.851 -0.1480  0.2322 -0.9240
 9446TIP3   OH249752   0.734   2.283   2.117  0.5541 -0.2505 -0.1459
 9446TIP3    H149753   0.687   2.287   2.034 -0.9350  1.3693  0.7238
 9446TIP3    H249754   0.778   2.368   2.124  1.1393 -0.5935  0.4578
 9447TIP3   OH249755   4.715   3.918  10.982 -0.1507 -0.0690  0.0183
 9447TIP3    H149756   4.679   3.903  10.894  0.7031 -0.6334 -0.2507
 9447TIP3    H249757   4.665   3.991  11.017 -0.4244  0.2345 -0.9869
 9448TIP3   OH249758   0.365   6.966  11.763  0.2619 -0.6495  0.0766
 9448TIP3    H149759   0.333   6.900  11.825 -2.1204 -1.9679 -2.3176
 9448TIP3    H249760   0.310   7.042  11.778 -0.2537 -0.9375 -0.3090
 9449TIP3   OH249761   2.285   1.166  13.071  0.8544 -0.4182 -0.3940
 9449TIP3    H149762   2.317   1.249  13.037  0.6814 -0.5385 -0.8595
 9449TIP3    H249763   2.204   1.150  13.022 -0.8580  0.7167  1.9089
 9450TIP3   OH249764   5.289   3.079  14.321  0.1183  0.0622  0.5049
 9450TIP3    H149765   5.198   3.064  14.349 -0.1432 -1.3975 -0.9622
 9450TIP3    H249766   5.342   3.040  14.390 -0.4050 -0.1892  0.7747
 9451TIP3   OH249767   0.292   0.636   4.114  0.1648  0.2651 -0.7327
 9451TIP3    H149768   0.245   0.719   4.119 -1.7259 -0.8502  1.7733
 9451TIP3    H249769   0.228   0.574   4.079  0.8606 -0.5906 -0.5174
 9452TIP3   OH249770   6.659   2.157  15.497  0.1515 -0.1313 -0.0976
 9452TIP3    H149771   6.753   2.144  15.483  0.3541 -0.9038  1.6315
 9452TIP3    H249772   6.617   2.108  15.427  1.0281 -0.0472 -0.6997
 9453TIP3   OH249773   4.208   0.915  14.826 -0.0859  0.2639  0.4053
 9453TIP3    H149774   4.159   0.887  14.904 -1.1449 -1.9269 -0.9650
 9453TIP3    H249775   4.300   0.906  14.852 -0.4092 -1.3367  1.1501
 9454TIP3   OH249776   2.395   2.139  10.022  0.2072  0.3503 -0.2968
 9454TIP3    H149777   2.343   2.201  10.074  0.8422  0.4477  0.2453
 9454TIP3    H249778   2.335   2.107   9.955 -0.0659  1.7845 -0.7809
 9455TIP3   OH249779   3.735   3.471  10.310 -0.4341  0.0398  0.0764
 9455TIP3    H149780   3.826   3.476  10.280 -0.3460  0.7795  0.4404
 9455TIP3    H249781   3.686   3.442  10.233  0.2307 -1.3424  0.1470
 9456TIP3   OH249782   4.183   4.860  14.769 -0.2612 -0.3853 -0.1958
 9456TIP3    H149783   4.220   4.802  14.836  1.9823  2.7871  1.5983
 9456TIP3    H249784   4.113   4.906  14.813  1.2214  1.7257  0.1197
 9457TIP3   OH249785   0.441   1.665  14.207 -0.0991 -0.2708 -0.5238
 9457TIP3    H149786   0.426   1.673  14.301 -0.6503 -0.2494 -0.6136
 9457TIP3    H249787   0.465   1.573  14.195 -0.0145 -0.2700 -0.3608
 9458TIP3   OH249788   4.306   6.050   1.742  0.0785 -0.2129 -0.0573
 9458TIP3    H149789   4.343   5.966   1.768 -2.3863 -1.3379  0.0778
 9458TIP3    H249790   4.352   6.072   1.661 -0.6048 -2.7394 -1.2272
 9459TIP3   OH249791   5.564   6.653  12.472  0.2877  1.1971 -0.0814
 9459TIP3    H149792   5.609   6.621  12.550  0.8826  3.0906  0.4148
 9459TIP3    H249793   5.602   6.603  12.399  0.0668 -0.2489  0.7551
 9460TIP3   OH249794   2.929   4.161   0.933 -0.2019  0.0382  0.1740
 9460TIP3    H149795   2.923   4.240   0.988  1.6334  0.1787  0.2256
 9460TIP3    H249796   3.007   4.116   0.965 -0.7969 -1.4221 -0.3732
 9461TIP3   OH249797   3.676   6.726   0.034  0.1865  0.4059  0.4129
 9461TIP3    H149798   3.639   6.712  -0.052  0.2447 -2.1690  0.7406
 9461TIP3    H249799   3.628   6.802   0.069 -1.3003  0.1878 -1.0457
 9462TIP3   OH249800   4.442   4.211  10.416 -0.3728  0.4199  0.0667
 9462TIP3    H149801   4.453   4.302  10.442 -0.5256  0.3694  0.3193
 9462TIP3    H249802   4.396   4.171  10.490  0.0267  0.0514  0.1204
 9463TIP3   OH249803   6.751   4.321  14.743  0.2170  0.1877 -0.4135
 9463TIP3    H149804   6.832   4.330  14.793  0.5392  0.2242 -0.9439
 9463TIP3    H249805   6.749   4.229  14.715  0.8934  0.5597 -1.7737
 9464TIP3   OH249806   3.335   3.482   0.414  0.0146  0.1742  0.0184
 9464TIP3    H149807   3.364   3.571   0.395 -1.2218  1.6057  3.7828
 9464TIP3    H249808   3.405   3.444   0.467  0.9421 -1.5565 -2.2859
 9465TIP3   OH249809   6.477   6.284   1.677  0.1096  0.3119 -0.5476
 9465TIP3    H149810   6.391   6.265   1.640  0.9542 -0.8872 -2.0041
 9465TIP3    H249811   6.482   6.231   1.756  0.2959 -1.3331 -1.6112
 9466TIP3   OH249812   4.597   5.980  14.760 -0.7999 -0.1630 -0.5054
 9466TIP3    H149813   4.601   6.071  14.791  0.3804 -0.4055  0.0964
 9466TIP3    H249814   4.688   5.956  14.744 -1.1450 -1.0837 -1.1511
 9467TIP3   OH249815   4.847   4.227  13.919  0.0821  0.1447 -0.0555
 9467TIP3    H149816   4.937   4.257  13.907  0.2178  0.4273  1.5088
 9467TIP3    H249817   4.835   4.160  13.852  2.3155 -1.7640  1.2962
 9468TIP3   OH249818   6.886   1.266  10.508 -0.0980 -0.2171 -0.2131
 9468TIP3    H149819   6.942   1.209  10.456  0.0715 -0.4263  0.2013
 9468TIP3    H249820   6.808   1.214  10.525 -0.0674 -0.2202 -0.0829
 9469TIP3   OH249821   3.574   1.650   2.597  0.2027 -0.4103 -0.0075
 9469TIP3    H149822   3.518   1.590   2.646  0.7312  0.1201  1.2997
 9469TIP3    H249823   3.657   1.651   2.646  1.8616 -2.1296 -2.5569
 9470TIP3   OH249824   0.190   5.151  12.029 -0.3010  0.4010  0.0335
 9470TIP3    H149825   0.185   5.187  12.118  0.6449  1.6858 -0.3998
 9470TIP3    H249826   0.236   5.218  11.979  1.1886 -1.2745 -0.9351
 9471TIP3   OH249827   0.772   5.627  11.267  0.1709  0.3937 -0.8567
 9471TIP3    H149828   0.851   5.572  11.262 -1.2389 -1.9739  0.6862
 9471TIP3    H249829   0.717   5.596  11.195 -1.4241 -1.7922  1.1140
 9472TIP3   OH249830   2.966   0.507  10.476  0.0516  0.0309  0.3434
 9472TIP3    H149831   2.926   0.539  10.395  3.1080  0.0821 -1.3117
 9472TIP3    H249832   3.038   0.568  10.492  0.8438 -1.2386  1.8933
 9473TIP3   OH249833   3.205   4.656   3.809 -0.1153 -0.0178  0.3796
 9473TIP3    H149834   3.268   4.593   3.846 -1.3806 -0.9592  1.0052
 9473TIP3    H249835   3.123   4.636   3.853 -0.9463  0.9524 -0.6772
 9474TIP3   OH249836   0.767   0.804   1.165 -0.1797 -0.6663  0.2284
 9474TIP3    H149837   0.762   0.899   1.169  1.7640 -0.5567  1.6937
 9474TIP3    H249838   0.676   0.775   1.173 -0.6847  1.0380  1.1891
 9475TIP3   OH249839   1.254   4.929  10.901 -0.1432 -0.2245  0.2587
 9475TIP3    H149840   1.225   4.854  10.952  1.7909 -1.3122 -0.1451
 9475TIP3    H249841   1.246   4.901  10.810 -1.2205  0.7863  0.0259
 9476TIP3   OH249842   2.398   4.208  11.421  0.0802  0.1483 -0.5910
 9476TIP3    H149843   2.462   4.213  11.492 -0.1087  2.1693 -0.4928
 9476TIP3    H249844   2.318   4.245  11.459 -0.3412  0.2286 -1.5380
 9477TIP3   OH249845   2.215   1.297   0.301 -0.0081  0.5828 -0.1585
 9477TIP3    H149846   2.270   1.317   0.225 -1.3354 -0.3023 -1.4170
 9477TIP3    H249847   2.169   1.217   0.277  0.3067 -0.3237  2.0469
 9478TIP3   OH249848   5.183   3.198   5.657 -0.3404  0.7371 -0.8310
 9478TIP3    H149849   5.255   3.188   5.719 -0.7839 -0.8466 -0.5242
 9478TIP3    H249850   5.112   3.236   5.710 -1.0915 -1.6239  0.0285
 9479TIP3   OH249851   1.310   1.718   3.899 -0.4046  0.5110  0.3311
 9479TIP3    H149852   1.282   1.628   3.910  0.3906  0.2521  0.3252
 9479TIP3    H249853   1.282   1.762   3.979 -2.9379  0.8501 -0.6727
 9480TIP3   OH249854   4.730   3.791  10.454  0.0184  0.3144 -0.1100
 9480TIP3    H149855   4.801   3.797  10.518  2.1568  2.5892 -2.4475
 9480TIP3    H249856   4.680   3.871  10.466  1.3664  1.5529 -2.1176
 9481TIP3   OH249857   0.505   3.672   1.851 -0.4728  0.5509  0.1320
 9481TIP3    H149858   0.465   3.759   1.848 -0.0816  0.7240 -2.3546
 9481TIP3    H249859   0.543   3.660   1.764  0.9631 -1.4385  0.9518
 9482TIP3   OH249860   0.060   2.313  11.129  0.2251  0.2248 -0.3436
 9482TIP3    H149861  -0.006   2.251  11.100  1.2609 -0.0226 -2.3494
 9482TIP3    H249862   0.021   2.356  11.205 -1.4693 -1.1866 -0.3538
 9483TIP3   OH249863   1.867   5.759  10.512 -0.3238  0.1765  0.4309
 9483TIP3    H149864   1.876   5.667  10.491  0.1936  0.5335 -1.0409
 9483TIP3    H249865   1.783   5.785  10.473 -0.2658  0.4319  0.4736
 9484TIP3   OH249866   5.989   2.357   1.793 -0.2395  0.2239  0.0684
 9484TIP3    H149867   5.949   2.351   1.707 -0.0210 -0.6895  0.0165
 9484TIP3    H249868   6.020   2.447   1.800 -1.7257  0.7644 -0.1425
 9485TIP3   OH249869   5.168   4.981  12.824 -0.1289 -0.2733  0.2496
 9485TIP3    H149870   5.223   4.915  12.866  0.5466  0.9956  1.4383
 9485TIP3    H249871   5.180   4.965  12.730  1.7867 -0.4607  0.4757
 9486TIP3   OH249872   0.806   5.405  10.212 -0.3538  0.1420 -0.2464
 9486TIP3    H149873   0.872   5.450  10.265  0.8452  0.0224 -1.5550
 9486TIP3    H249874   0.855   5.373  10.136 -1.6237 -1.3540 -0.4942
 9487TIP3   OH249875   3.927   0.704   0.703 -0.5121 -0.2094  0.4576
 9487TIP3    H149876   3.999   0.766   0.712 -0.9901  0.2694  1.0501
 9487TIP3    H249877   3.953   0.630   0.757  0.3184 -0.8017 -0.6867
 9488TIP3   OH249878   4.282   3.966  13.864 -0.1260 -0.0507  0.3968
 9488TIP3    H149879   4.340   3.957  13.940  1.3356  1.9349 -0.3964
 9488TIP3    H249880   4.297   3.887  13.812  0.1901 -0.5811  1.2763
 9489TIP3   OH249881   0.560   6.620  14.119  0.4834 -0.0287 -0.7454
 9489TIP3    H149882   0.543   6.662  14.035 -0.0260 -0.6142 -0.9477
 9489TIP3    H249883   0.618   6.680  14.165 -1.8568  1.9221 -0.1460
 9490TIP3   OH249884   0.943   4.652  13.304 -0.2008 -0.8978 -0.4825
 9490TIP3    H149885   0.890   4.583  13.264 -0.7078 -1.4526  1.0861
 9490TIP3    H249886   0.929   4.642  13.398  1.8961 -0.4096 -0.0684
 9491TIP3   OH249887   5.521   3.412  11.333  0.5471  0.5799 -0.0356
 9491TIP3    H149888   5.479   3.379  11.412  3.0542  2.0921  2.1235
 9491TIP3    H249889   5.586   3.345  11.310  0.3162  0.4780 -0.4102
 9492TIP3   OH249890   3.026   3.184  14.276  0.2709  0.1039  0.3788
 9492TIP3    H149891   3.037   3.271  14.313 -0.4637 -0.0171  0.8928
 9492TIP3    H249892   2.936   3.159  14.298 -0.0589 -0.1544 -1.1009
 9493TIP3   OH249893   6.075   3.531   3.586 -0.2885  0.0966 -0.5081
 9493TIP3    H149894   6.005   3.469   3.565 -0.9498  0.7284 -0.2109
 9493TIP3    H249895   6.081   3.588   3.509 -1.1497  0.9790  0.0443
 9494TIP3   OH249896   2.465   1.248  11.228  0.1494 -0.3367  0.0453
 9494TIP3    H149897   2.499   1.294  11.304  0.8585  0.6272 -0.8248
 9494TIP3    H249898   2.396   1.191  11.263  0.8206 -0.3132  1.4652
 9495TIP3   OH249899   1.244   4.082  10.635  0.0429 -0.1088 -0.0646
 9495TIP3    H149900   1.176   4.050  10.576 -0.2855 -0.7759  0.6635
 9495TIP3    H249901   1.235   4.029  10.715  1.2720 -0.0748  0.1304
 9496TIP3   OH249902   0.515   1.575   2.141 -0.0714 -0.5094  0.4861
 9496TIP3    H149903   0.552   1.580   2.053 -0.8876  3.1057  0.1786
 9496TIP3    H249904   0.503   1.667   2.167 -3.0132 -1.4423  2.9992
 9497TIP3   OH249905   5.845   0.631  15.535 -0.2144  0.4092  0.6452
 9497TIP3    H149906   5.830   0.684  15.456 -0.8758 -0.9400 -0.1902
 9497TIP3    H249907   5.778   0.563  15.530  0.2193 -0.1459  1.9973
 9498TIP3   OH249908   4.041   4.445   1.417  0.3159  0.1642  0.0603
 9498TIP3    H149909   4.035   4.404   1.331 -0.9343  1.4482 -0.4916
 9498TIP3    H249910   4.019   4.537   1.402  1.0161  0.6177  1.6039
 9499TIP3   OH249911   4.283   0.118  12.775 -0.1991  0.8775  0.4566
 9499TIP3    H149912   4.292   0.140  12.683  0.5197 -2.7150 -0.4886
 9499TIP3    H249913   4.211   0.174  12.806 -1.8764  0.8024 -2.8391
 9500TIP3   OH249914   2.564   4.294   4.300  0.6311  0.2750  0.0370
 9500TIP3    H149915   2.640   4.262   4.350  1.4152  0.6440 -0.8908
 9500TIP3    H249916   2.518   4.352   4.361 -0.5317 -2.1336  1.5854
 9501TIP3   OH249917   4.129   5.343  14.160 -0.0519 -0.4012 -0.4914
 9501TIP3    H149918   4.070   5.269  14.177  0.2658 -0.6087 -0.2833
 9501TIP3    H249919   4.146   5.380  14.247 -0.7884  0.3686 -0.6629
 9502TIP3   OH249920   6.387   2.285  13.138 -0.4527 -0.2823 -0.9180
 9502TIP3    H149921   6.327   2.298  13.063 -3.4486 -0.3522  1.2690
 9502TIP3    H249922   6.434   2.367  13.146 -0.4506 -0.0909 -2.5596
 9503TIP3   OH249923   0.980   3.407  10.442 -0.4384  0.0312 -0.3543
 9503TIP3    H149924   0.887   3.393  10.456 -0.4361  1.5416  1.6613
 9503TIP3    H249925   1.005   3.341  10.377 -2.5122 -1.6831  0.4614
 9504TIP3   OH249926   0.846   1.293   3.027  0.1725 -0.1396  0.4655
 9504TIP3    H149927   0.842   1.198   3.030 -1.6660 -0.0784  1.1509
 9504TIP3    H249928   0.926   1.316   3.075  2.1634 -1.3659 -2.0019
 9505TIP3   OH249929   0.069   0.372  10.156 -0.1612 -0.3188 -0.5491
 9505TIP3    H149930   0.125   0.355  10.080  0.4859 -1.8866  0.2394
 9505TIP3    H249931   0.050   0.285  10.192  1.0444  0.4443  2.1405
 9506TIP3   OH249932   5.625   5.916   9.961 -0.2893  0.0647  0.4140
 9506TIP3    H149933   5.677   5.940  10.038 -0.4813 -1.5028  1.0685
 9506TIP3    H249934   5.660   5.830   9.935 -1.4472 -0.2498 -0.1370
 9507TIP3   OH249935   1.539   3.383  10.194  0.4856  0.2421 -0.1503
 9507TIP3    H149936   1.603   3.404  10.126  0.4037 -2.6089 -1.2151
 9507TIP3    H249937   1.464   3.438  10.173  1.2335  0.9352 -1.1073
 9508TIP3   OH249938   2.841   2.897  12.498 -0.4469 -0.1003 -1.1809
 9508TIP3    H149939   2.814   2.955  12.426  0.2353  0.0644 -1.3055
 9508TIP3    H249940   2.900   2.834  12.457  2.3049  1.7127 -0.2937
 9509TIP3   OH249941   3.662   0.214   4.713  0.6467  0.2286  0.0256
 9509TIP3    H149942   3.708   0.240   4.793  0.6036 -0.3646  0.2420
 9509TIP3    H249943   3.725   0.230   4.643  0.7182  0.6597  0.1808
 9510TIP3   OH249944   6.386   5.047   1.429  0.0581 -0.3618  0.0009
 9510TIP3    H149945   6.411   5.085   1.513 -2.0525  2.0860 -0.3583
 9510TIP3    H249946   6.454   5.074   1.368  0.8726 -0.9813  0.6093
 9511TIP3   OH249947   1.871   2.103   9.575 -0.1191  0.2589  0.3397
 9511TIP3    H149948   1.827   2.036   9.627  0.4241 -0.4409 -0.0954
 9511TIP3    H249949   1.963   2.096   9.599 -0.1013  1.0804  0.5370
 9512TIP3   OH249950   6.204   3.512   1.465  0.1664  0.2394  0.3519
 9512TIP3    H149951   6.177   3.420   1.461  0.4082  0.2052 -1.5272
 9512TIP3    H249952   6.186   3.546   1.377 -1.5571  2.4825  1.4513
 9513TIP3   OH249953   3.566   0.978   0.602  0.1452  0.5754  0.1881
 9513TIP3    H149954   3.572   1.070   0.626  1.5813  0.3991  0.6186
 9513TIP3    H249955   3.614   0.932   0.672 -0.1656 -0.4469 -0.2502
 9514TIP3   OH249956   5.660   1.784   1.420  0.3190  0.6516  0.3708
 9514TIP3    H149957   5.591   1.753   1.361  0.3049 -0.8114  1.1040
 9514TIP3    H249958   5.717   1.836   1.364 -0.7831  0.9740 -0.4862
 9515TIP3   OH249959   1.764   3.975   1.613 -0.0678  0.0806  0.0470
 9515TIP3    H149960   1.823   3.945   1.682 -0.0593  0.9867  0.4484
 9515TIP3    H249961   1.746   4.066   1.634 -1.5624 -0.1498 -0.1060
 9516TIP3   OH249962   0.780   2.705  13.044  0.1817  0.0372 -0.1223
 9516TIP3    H149963   0.783   2.626  13.097  0.3802 -0.2051 -0.4879
 9516TIP3    H249964   0.860   2.753  13.066 -0.3312  0.5371  0.6988
 9517TIP3   OH249965   5.706   1.393  12.806 -0.0410  0.1687 -0.8529
 9517TIP3    H149966   5.790   1.358  12.835 -0.8261 -0.5080  0.7294
 9517TIP3    H249967   5.728   1.452  12.733  1.7085 -0.5277 -0.9344
 9518TIP3   OH249968   3.036   2.643  14.100  0.1654  0.3024 -0.7302
 9518TIP3    H149969   2.955   2.675  14.061 -0.6553  1.2382  1.5439
 9518TIP3    H249970   3.009   2.611  14.186  2.2104  0.7153  0.1099
 9519TIP3   OH249971   4.585   3.014  14.153 -0.2656  0.2608  0.4872
 9519TIP3    H149972   4.568   3.088  14.095 -1.6862  0.3986  1.0409
 9519TIP3    H249973   4.536   2.941  14.114  0.5281 -0.2184  0.3515
 9520TIP3   OH249974   5.827   6.181  10.371 -0.3894 -0.3790 -0.9737
 9520TIP3    H149975   5.773   6.226  10.436 -1.5403 -0.9745 -1.4889
 9520TIP3    H249976   5.776   6.103  10.347  0.7082 -0.9752 -1.4725
 9521TIP3   OH249977   3.345   1.716  14.427 -0.5938  0.4542  0.2191
 9521TIP3    H149978   3.307   1.777  14.364 -1.4469 -0.4483 -0.1764
 9521TIP3    H249979   3.424   1.684  14.384 -0.7147  0.4850 -0.0323
 9522TIP3   OH249980   0.264   5.833   1.007  1.0506 -0.2098  0.0066
 9522TIP3    H149981   0.326   5.883   1.060  0.5979 -0.5805  0.9245
 9522TIP3    H249982   0.244   5.756   1.061 -0.7791  0.2760  0.1073
 9523TIP3   OH249983   2.170   6.479   1.017  0.3123  0.1992  0.3728
 9523TIP3    H149984   2.133   6.565   1.033 -0.1488  0.4278 -1.6302
 9523TIP3    H249985   2.109   6.437   0.957  2.3273 -0.0593 -1.6659
 9524TIP3   OH249986   0.752   3.343   4.948 -0.6822  0.4683 -0.2562
 9524TIP3    H149987   0.758   3.349   5.043 -0.0292  1.8778 -0.3474
 9524TIP3    H249988   0.835   3.305   4.921 -1.4627 -1.3847 -0.2085
 9525TIP3   OH249989   2.162   1.103   4.704 -0.1697  0.1095 -0.5280
 9525TIP3    H149990   2.091   1.067   4.757  0.8563 -0.7586  0.3112
 9525TIP3    H249991   2.137   1.084   4.614 -1.0312 -0.1200 -0.2538
 9526TIP3   OH249992   2.345   0.844  12.576 -0.2072  0.3627 -0.1394
 9526TIP3    H149993   2.335   0.902  12.652  2.1896  0.6027  0.0729
 9526TIP3    H249994   2.400   0.773  12.608 -1.6892 -1.1955 -0.8758
 9527TIP3   OH249995   3.545   2.020  13.915  0.0557  0.5277  0.4909
 9527TIP3    H149996   3.479   2.087  13.897  1.0138  1.3122 -0.1878
 9527TIP3    H249997   3.622   2.049  13.867  0.8433 -0.4675  1.1244
 9528TIP3   OH249998   4.419   6.624   1.300  0.8642  0.1613  0.5720
 9528TIP3    H149999   4.381   6.549   1.256  1.3639 -0.4892  1.2287
 9528TIP3    H250000   4.391   6.615   1.391  1.2514  0.5579  0.7338
 9529TIP3   OH250001   1.301   0.405   9.905 -0.3619  0.2616 -0.2244
 9529TIP3    H150002   1.336   0.399   9.816 -1.4144 -0.3912 -0.6044
 9529TIP3    H250003   1.271   0.316   9.925  1.6818 -0.0955  1.5643
 9530TIP3   OH250004   6.653   6.238  15.186 -0.4179  0.3232  0.0858
 9530TIP3    H150005   6.635   6.219  15.094  1.3758 -1.3711  0.0410
 9530TIP3    H250006   6.602   6.174  15.235  0.5967 -0.4394  0.1654
 9531TIP3   OH250007   6.002   1.159  15.158  0.0988  0.3830 -0.2264
 9531TIP3    H150008   6.048   1.078  15.139  0.8836  0.8538 -0.3745
 9531TIP3    H250009   5.916   1.131  15.190  0.0610 -0.4843 -1.0445
 9532TIP3   OH250010   1.719   3.394  12.792 -0.1934  0.1880  0.2082
 9532TIP3    H150011   1.683   3.482  12.800 -2.1195 -0.4024 -1.3297
 9532TIP3    H250012   1.769   3.396  12.710 -0.4369 -0.2059  0.0468
 9533TIP3   OH250013   4.916   4.976  12.325  0.0504 -0.5891  0.9304
 9533TIP3    H150014   4.854   5.049  12.334  1.2980  0.4800  1.1099
 9533TIP3    H250015   4.952   4.965  12.413 -0.5338 -1.8177  1.0312
 9534TIP3   OH250016   1.379   2.472  12.062 -0.0118 -0.0405 -0.0833
 9534TIP3    H150017   1.292   2.486  12.024  0.6763 -0.4224 -1.8931
 9534TIP3    H250018   1.432   2.441  11.989  1.5253 -0.3249  1.1116
 9535TIP3   OH250019   4.935   5.863  13.434  0.0260  0.1642  0.0246
 9535TIP3    H150020   4.968   5.787  13.384  0.3797  0.2866  0.0649
 9535TIP3    H250021   4.890   5.916  13.369  1.8777  1.1435 -0.5379
 9536TIP3   OH250022   5.599   5.476   4.841  0.8331  0.0662  0.3758
 9536TIP3    H150023   5.505   5.490   4.826  0.8740 -0.7272 -0.8049
 9536TIP3    H250024   5.629   5.556   4.884 -0.3709  0.3615  0.7030
 9537TIP3   OH250025   5.587   2.577  10.551  0.4742 -0.0987  0.5568
 9537TIP3    H150026   5.555   2.664  10.572  2.0304  0.6168  0.0722
 9537TIP3    H250027   5.680   2.588  10.536  0.6026 -1.7509 -0.0967
 9538TIP3   OH250028   0.431   3.571   0.120 -0.0276  0.4745 -0.0344
 9538TIP3    H150029   0.488   3.636   0.161 -0.4235  0.5856  0.3473
 9538TIP3    H250030   0.489   3.498   0.098  0.7487  1.5780 -1.9224
 9539TIP3   OH250031   2.368   4.061  10.889 -0.0288 -0.1703  0.6828
 9539TIP3    H150032   2.418   4.076  10.969  1.3183  1.7425 -0.4596
 9539TIP3    H250033   2.421   3.999  10.838  0.4474  0.6734  0.1373
 9540TIP3   OH250034   3.377   4.630  11.098 -0.4173 -0.2619  0.4536
 9540TIP3    H150035   3.421   4.606  11.180  2.1411 -0.7387 -0.9672
 9540TIP3    H250036   3.339   4.548  11.066  0.7615 -0.6321 -0.0495
 9541TIP3   OH250037   0.735   4.139   0.520 -0.1876  0.5457 -0.0280
 9541TIP3    H150038   0.663   4.089   0.481  0.5677 -0.4134 -0.2396
 9541TIP3    H250039   0.734   4.114   0.612  1.5734 -1.6697 -0.5319
 9542TIP3   OH250040   6.238   0.004   2.082 -0.2993 -0.2760  0.1649
 9542TIP3    H150041   6.144  -0.007   2.097 -0.3281 -0.4129 -0.1147
 9542TIP3    H250042   6.250   0.099   2.079 -0.7429 -0.2504 -1.7251
 9543TIP3   OH250043   1.891   6.695   0.785 -0.0425 -0.4240 -0.0681
 9543TIP3    H150044   1.866   6.728   0.872  1.9430 -0.9937  0.7775
 9543TIP3    H250045   1.851   6.609   0.780  0.5608 -0.7584  0.6751
 9544TIP3   OH250046   3.297   6.924  11.598 -0.1210  0.2821 -0.4613
 9544TIP3    H150047   3.392   6.923  11.606  0.0873  1.0942 -2.2157
 9544TIP3    H250048   3.274   7.017  11.599 -0.8351  0.1129 -0.4822
 9545TIP3   OH250049   0.131   3.980  11.980 -0.7906 -0.7145 -0.1075
 9545TIP3    H150050   0.164   4.060  12.022  0.1634 -1.8550  1.4424
 9545TIP3    H250051   0.037   3.982  11.997 -0.6952 -0.1780  0.4055
 9546TIP3   OH250052   4.865   3.835   1.677 -0.0643  0.0138  0.1599
 9546TIP3    H150053   4.791   3.795   1.723 -1.2383 -0.6714 -2.1682
 9546TIP3    H250054   4.825   3.885   1.606  1.6857 -0.1113 -0.9778
 9547TIP3   OH250055   7.092   0.746   4.596  0.6026  0.4274  0.0689
 9547TIP3    H150056   7.035   0.793   4.535  1.5803  2.5950  0.7566
 9547TIP3    H250057   7.040   0.737   4.676  0.9085  1.6307  0.4098
 9548TIP3   OH250058   3.260   1.663   1.486 -0.5929  0.3748 -0.0143
 9548TIP3    H150059   3.216   1.601   1.544  0.1472  1.9571  2.4310
 9548TIP3    H250060   3.193   1.689   1.423 -1.7145 -0.7775  0.6466
 9549TIP3   OH250061   5.675   3.399   4.680 -0.4640  0.5034  0.0667
 9549TIP3    H150062   5.691   3.381   4.773 -1.1925 -1.9776 -0.2149
 9549TIP3    H250063   5.749   3.452   4.653  1.3771 -1.2493  1.3865
 9550TIP3   OH250064   2.020   4.438   1.332 -0.4040 -0.8957 -0.1728
 9550TIP3    H150065   2.046   4.369   1.272 -2.0326 -1.1968 -0.5884
 9550TIP3    H250066   2.050   4.519   1.292  0.8933 -1.2906 -0.0315
 9551TIP3   OH250067   6.970   4.545   5.263 -0.5810 -0.3439 -0.3301
 9551TIP3    H150068   7.061   4.516   5.253  0.2203  2.3171 -1.9835
 9551TIP3    H250069   6.943   4.511   5.348  2.7725  0.6213  1.3227
 9552TIP3   OH250070   0.056   6.374  11.689  0.1413 -0.0448  0.0905
 9552TIP3    H150071  -0.019   6.393  11.631  0.7924  1.0413 -0.4235
 9552TIP3    H250072   0.057   6.447  11.751 -0.8807 -1.4623  1.8922
 9553TIP3   OH250073   0.299   5.317   4.559 -0.7162 -0.1475 -0.1957
 9553TIP3    H150074   0.214   5.285   4.528 -0.3803 -1.3206  0.0380
 9553TIP3    H250075   0.345   5.343   4.480 -0.8970 -0.5110 -0.4230
 9554TIP3   OH250076   5.994   0.491   4.346 -0.7567  0.1992  0.5347
 9554TIP3    H150077   6.057   0.527   4.408 -1.7187  1.6820  0.7059
 9554TIP3    H250078   5.947   0.424   4.397  1.7471 -2.2350 -0.0929
 9555TIP3   OH250079   3.368   5.144  14.433 -0.7087  0.5499 -0.1672
 9555TIP3    H150080   3.296   5.203  14.410  0.3521  0.6103 -3.8546
 9555TIP3    H250081   3.326   5.062  14.459 -2.1336  0.7293 -1.8128
 9556TIP3   OH250082   6.745   6.516   9.210 -0.1192  0.0325  0.1721
 9556TIP3    H150083   6.729   6.598   9.257  1.5165  2.2334 -2.6992
 9556TIP3    H250084   6.839   6.500   9.222 -0.3477 -1.2153  0.3664
 9557TIP3   OH250085   1.283   6.832  11.827 -0.0906  0.0088  0.1894
 9557TIP3    H150086   1.289   6.748  11.871 -0.4732 -0.2231 -0.1889
 9557TIP3    H250087   1.250   6.892  11.894 -1.2542 -0.4684  0.0714
 9558TIP3   OH250088   3.365   3.267  15.388  0.0305  0.2555  0.2438
 9558TIP3    H150089   3.309   3.341  15.366  0.6379  0.8806  0.7754
 9558TIP3    H250090   3.310   3.212  15.444 -0.3703  0.3753 -0.0284
 9559TIP3   OH250091   6.315   4.552   2.762  0.1483  0.2635  0.1581
 9559TIP3    H150092   6.363   4.627   2.727 -0.8376  1.5577  1.5266
 9559TIP3    H250093   6.252   4.531   2.693  0.3376  0.7579 -0.1774
 9560TIP3   OH250094   7.086   1.600   4.498  0.2652  0.0133 -0.2568
 9560TIP3    H150095   7.006   1.651   4.516  0.2926 -0.3437  0.9502
 9560TIP3    H250096   7.155   1.648   4.543  0.3817 -0.7820  0.4213
 9561TIP3   OH250097   5.000   6.879   1.267 -0.2242  0.0982  0.3274
 9561TIP3    H150098   4.948   6.803   1.294 -0.0705  0.3017  1.2341
 9561TIP3    H250099   4.973   6.895   1.177 -2.2542  0.6073  0.9772
 9562TIP3   OH250100   2.966   6.368  15.145  0.1349  0.2497 -0.6067
 9562TIP3    H150101   3.021   6.349  15.069  0.0182  1.2773 -0.9632
 9562TIP3    H250102   2.878   6.340  15.119  0.5675 -2.1741  0.2664
 9563TIP3   OH250103   5.044   0.406   2.518  0.0103  0.1380 -0.0229
 9563TIP3    H150104   5.048   0.414   2.422 -0.1303 -2.1053 -0.2608
 9563TIP3    H250105   4.957   0.371   2.536 -0.0650  0.7999  0.9763
 9564TIP3   OH250106   2.249   6.152   0.861  0.1306 -0.6238 -0.4706
 9564TIP3    H150107   2.263   6.179   0.951  0.5341 -0.8624 -0.4578
 9564TIP3    H250108   2.251   6.056   0.864  1.2456 -0.6286 -0.8909
 9565TIP3   OH250109   6.816   5.846   2.188  0.5345  0.4023 -0.0264
 9565TIP3    H150110   6.844   5.810   2.104 -0.2300 -0.8268  0.2173
 9565TIP3    H250111   6.877   5.809   2.251  0.1983  0.1317  0.1397
 9566TIP3   OH250112   2.813   3.100  14.475 -0.2506 -0.3191 -0.6623
 9566TIP3    H150113   2.738   3.151  14.504  0.3629  1.1175 -1.5203
 9566TIP3    H250114   2.871   3.096  14.551 -0.6214 -0.3673 -0.3805
 9567TIP3   OH250115   2.830   1.224   4.767  0.1485  0.2425 -0.4849
 9567TIP3    H150116   2.903   1.197   4.710  0.6341  1.1301 -0.2866
 9567TIP3    H250117   2.755   1.173   4.735  1.3856 -2.7689  1.0304
 9568TIP3   OH250118   0.949   0.143  14.657 -0.1838 -0.4402 -0.1626
 9568TIP3    H150119   0.993   0.212  14.706  1.9080 -1.4270 -0.5379
 9568TIP3    H250120   0.896   0.097  14.722  1.4393 -0.8587  0.9399
 9569TIP3   OH250121   1.245   6.065   4.058  0.0714 -0.3922  0.2860
 9569TIP3    H150122   1.241   6.048   4.152  0.3161 -0.5940  0.2608
 9569TIP3    H250123   1.155   6.057   4.028  0.0273 -0.5612  0.4647
 9570TIP3   OH250124   4.766   6.022  12.830  0.7674 -0.6978  0.3639
 9570TIP3    H150125   4.693   6.050  12.885 -0.2192 -0.9338 -0.7814
 9570TIP3    H250126   4.783   5.931  12.858  1.0896 -0.4175  1.1004
 9571TIP3   OH250127   1.395   1.618   1.447 -0.2461  0.1684  0.6002
 9571TIP3    H150128   1.442   1.535   1.451 -0.5416 -0.0115  0.3412
 9571TIP3    H250129   1.450   1.679   1.497  0.8420  0.2330 -0.6048
 9572TIP3   OH250130   0.347   1.208   3.911  0.2372  0.4341  0.2481
 9572TIP3    H150131   0.362   1.113   3.917 -0.9176  0.3278  2.4305
 9572TIP3    H250132   0.252   1.216   3.905  0.3462  1.4803 -0.3225
 9573TIP3   OH250133   0.406   4.161  12.968  0.0826  0.4189  0.3139
 9573TIP3    H150134   0.416   4.137  13.061  2.2945 -1.0768 -0.2335
 9573TIP3    H250135   0.447   4.089  12.920  0.4674  1.9405 -1.7748
 9574TIP3   OH250136   3.797   2.001   0.296  0.5590  0.2262  0.4220
 9574TIP3    H150137   3.839   2.078   0.259  2.3518 -0.4331  0.9345
 9574TIP3    H250138   3.841   1.989   0.381  1.0293 -1.8876 -0.0708
 9575TIP3   OH250139   0.305   4.558   1.421  0.0919  0.2286 -0.4048
 9575TIP3    H150140   0.271   4.553   1.510  0.5674 -2.3769 -0.2815
 9575TIP3    H250141   0.400   4.552   1.431  0.1294 -0.4322 -1.0774
 9576TIP3   OH250142   5.251   2.383   0.153  0.0321  0.1297  0.1792
 9576TIP3    H150143   5.164   2.363   0.187  0.1535 -0.5936  0.0735
 9576TIP3    H250144   5.235   2.451   0.087 -0.6956 -1.2310 -1.1213
 9577TIP3   OH250145   3.689   1.685  13.817  0.3695 -0.6054  0.4940
 9577TIP3    H150146   3.629   1.742  13.864  0.0899  0.6062 -1.2026
 9577TIP3    H250147   3.732   1.633  13.885  0.0085  1.0335  2.0566
 9578TIP3   OH250148   6.230   1.976  12.394  0.1538 -0.0553 -0.1770
 9578TIP3    H150149   6.282   1.963  12.474  0.0436  0.5175 -0.0108
 9578TIP3    H250150   6.195   1.889  12.375 -2.1468  0.2506  2.0200
 9579TIP3   OH250151   1.875   5.208   2.569  0.2089 -0.4627  0.7664
 9579TIP3    H150152   1.848   5.117   2.582 -0.2443 -0.3722  0.5071
 9579TIP3    H250153   1.835   5.255   2.643  0.4185 -0.4722  0.8842
 9580TIP3   OH250154   2.172   6.141  12.860 -0.4390  0.7079 -0.2427
 9580TIP3    H150155   2.128   6.171  12.940 -0.1065 -2.6260  1.3701
 9580TIP3    H250156   2.129   6.059  12.839  1.8756 -0.3070 -1.3526
 9581TIP3   OH250157   4.678   6.198   2.580 -0.1224  0.1272 -0.0067
 9581TIP3    H150158   4.693   6.156   2.664 -1.9212  0.1109  0.3569
 9581TIP3    H250159   4.678   6.292   2.600  1.4717  0.2300 -0.3814
 9582TIP3   OH250160   6.909   2.889  14.302 -0.2820  0.1349  0.0667
 9582TIP3    H150161   6.933   2.964  14.247 -2.3940  0.9074  0.1221
 9582TIP3    H250162   6.842   2.923  14.361 -0.8938 -1.6702  0.4624
 9583TIP3   OH250163   6.264   5.590   0.762  0.1981 -0.4045 -0.4855
 9583TIP3    H150164   6.227   5.514   0.805  1.7921 -0.7770  0.2979
 9583TIP3    H250165   6.205   5.608   0.689 -0.3490 -2.2309 -0.5346
 9584TIP3   OH250166   5.957   4.582  14.313  0.1312 -0.0356 -0.3362
 9584TIP3    H150167   5.922   4.614  14.396 -1.5935  0.9699 -1.3850
 9584TIP3    H250168   6.038   4.632  14.301  1.2913 -1.3682  1.4613
 9585TIP3   OH250169   4.956   4.955  14.810 -0.2162 -0.1627  0.0871
 9585TIP3    H150170   4.962   4.936  14.716  0.6453  4.0161 -0.9316
 9585TIP3    H250171   5.047   4.967  14.837 -0.5398  0.0781  1.1018
 9586TIP3   OH250172   4.762   5.320   0.723 -0.3035  0.8390  0.3202
 9586TIP3    H150173   4.834   5.324   0.660  0.1299  0.6909  0.8113
 9586TIP3    H250174   4.716   5.404   0.712 -0.2714  0.7919 -0.2340
 9587TIP3   OH250175   2.547   0.574   3.347  0.1788 -0.2500 -0.1951
 9587TIP3    H150176   2.585   0.548   3.263  0.3625  1.5166 -0.6964
 9587TIP3    H250177   2.454   0.586   3.328  0.4754  1.7740 -0.6178
 9588TIP3   OH250178   2.748   2.223   1.568  0.4780  0.8730  0.2302
 9588TIP3    H150179   2.842   2.214   1.582  0.3913 -0.1951  0.1906
 9588TIP3    H250180   2.711   2.138   1.592 -0.5193  1.3715  0.5526
 9589TIP3   OH250181   3.547   1.569  11.405  0.6258  0.5223  0.0483
 9589TIP3    H150182   3.530   1.664  11.405  1.0701  0.6072  0.9515
 9589TIP3    H250183   3.540   1.544  11.497  0.2736 -0.3719 -0.2174
 9590TIP3   OH250184   4.160   6.495  14.314 -0.2011  0.3964 -0.3644
 9590TIP3    H150185   4.147   6.590  14.321 -0.0693  0.3597  0.4532
 9590TIP3    H250186   4.092   6.466  14.253 -0.2517  1.0086 -0.6120
 9591TIP3   OH250187   6.851   1.692  11.767 -0.5553  0.4123 -0.0743
 9591TIP3    H150188   6.926   1.751  11.756 -1.2633  1.5803  1.0725
 9591TIP3    H250189   6.889   1.605  11.770  0.5274  0.7580 -1.9197
 9592TIP3   OH250190   4.779   1.765  13.180  0.1533 -0.1711  0.1002
 9592TIP3    H150191   4.774   1.669  13.181  0.2090 -0.1787  1.1434
 9592TIP3    H250192   4.728   1.792  13.256  1.7254  0.5288  0.9472
 9593TIP3   OH250193   3.014   0.792  12.483 -0.3298 -0.4360  0.4459
 9593TIP3    H150194   3.031   0.840  12.401  0.8578 -2.0983 -0.3329
 9593TIP3    H250195   3.048   0.704  12.467 -2.3819 -1.5706  1.8420
 9594TIP3   OH250196   3.205   0.145   5.842  0.4978  0.3070  0.1922
 9594TIP3    H150197   3.294   0.129   5.812  0.1223 -1.2769 -0.1343
 9594TIP3    H250198   3.161   0.061   5.835 -0.3652  0.4695  2.7128
 9595TIP3   OH250199   3.760   3.668  14.520 -0.2827 -0.0752  0.3975
 9595TIP3    H150200   3.740   3.577  14.499  0.8784 -0.3959  0.6296
 9595TIP3    H250201   3.731   3.717  14.444 -0.3815 -0.6949  0.0281
 9596TIP3   OH250202   6.235   0.611  13.296  0.2745  0.1705 -0.1507
 9596TIP3    H150203   6.308   0.669  13.317 -2.2047  3.2636  0.6542
 9596TIP3    H250204   6.178   0.615  13.373 -2.0644  0.1253 -1.7719
 9597TIP3   OH250205   2.491   3.391  14.956 -0.3296 -0.8150  0.0119
 9597TIP3    H150206   2.463   3.391  15.047  0.9797  0.9852  0.4734
 9597TIP3    H250207   2.587   3.392  14.960 -0.2511 -0.2073 -1.3481
 9598TIP3   OH250208   4.930   0.482  14.984 -0.4019  0.0399  0.3055
 9598TIP3    H150209   4.875   0.410  15.016 -0.3277  1.1594  3.3365
 9598TIP3    H250210   4.868   0.551  14.962 -0.3632  0.1799  0.6237
 9599TIP3   OH250211   1.693   6.748  14.886  0.3374 -0.2292  0.4147
 9599TIP3    H150212   1.689   6.799  14.966 -1.0346 -0.0489  0.2630
 9599TIP3    H250213   1.784   6.721  14.878  0.6597  0.4842  1.5659
 9600TIP3   OH250214   3.726   1.326   5.271 -0.3234 -0.3292 -0.3324
 9600TIP3    H150215   3.652   1.340   5.213 -1.6703 -2.9106  0.6540
 9600TIP3    H250216   3.688   1.294   5.352  1.7897 -0.3861  0.7106
 9601TIP3   OH250217   2.431   6.116  13.551  0.2132  0.4019  0.0905
 9601TIP3    H150218   2.442   6.046  13.616  2.3533  1.9569  1.5467
 9601TIP3    H250219   2.429   6.070  13.467  1.8671 -1.4371  0.9635
 9602TIP3   OH250220   3.533   4.189   3.465 -0.2295 -0.2615 -0.1485
 9602TIP3    H150221   3.510   4.103   3.499  0.4071 -0.4019 -0.0549
 9602TIP3    H250222   3.451   4.224   3.430 -0.2869 -1.3692 -1.2133
 9603TIP3   OH250223   2.124   0.112  15.239 -0.0297  0.0029  0.1473
 9603TIP3    H150224   2.037   0.079  15.261 -0.1786 -0.3857 -0.9499
 9603TIP3    H250225   2.160   0.047  15.180  0.5494  0.7402 -0.3347
 9604TIP3   OH250226   0.434   6.709  12.296 -0.0190 -0.0686 -0.2721
 9604TIP3    H150227   0.357   6.653  12.292 -0.8060  1.0049 -0.9630
 9604TIP3    H250228   0.494   6.674  12.230  0.1282 -0.9412  0.3070
 9605TIP3   OH250229   1.429   4.178  14.755  0.2009  0.5278 -0.2221
 9605TIP3    H150230   1.369   4.105  14.736 -0.9465  1.6079 -0.8787
 9605TIP3    H250231   1.496   4.171  14.688 -0.2035  0.3909 -0.6225
 9606TIP3   OH250232   1.079   2.143  10.995  0.3635  0.3010  0.2545
 9606TIP3    H150233   1.066   2.140  11.090  0.7178  1.6328  0.3616
 9606TIP3    H250234   1.030   2.068  10.962  0.1494 -0.1217  1.4820
 9607TIP3   OH250235   0.201   0.957   3.755  0.3719  0.2155  0.1768
 9607TIP3    H150236   0.157   1.022   3.701  1.5794  0.3355 -0.6944
 9607TIP3    H250237   0.280   0.934   3.706 -0.1231 -2.0805  0.3498
 9608TIP3   OH250238   7.055   3.752  12.990  0.4412 -0.0394  0.2590
 9608TIP3    H150239   7.005   3.713  13.062  0.4957 -2.2399 -0.8190
 9608TIP3    H250240   7.001   3.737  12.912  0.8524  1.3754 -0.3184
 9609TIP3   OH250241   0.550   1.427  14.551 -0.1186  0.2850  0.3894
 9609TIP3    H150242   0.580   1.426  14.642 -0.5214 -0.9406  0.5174
 9609TIP3    H250243   0.598   1.355  14.509  0.7116  1.3594 -0.6029
 9610TIP3   OH250244   4.877   6.185   3.763 -0.3277 -0.2872 -0.1610
 9610TIP3    H150245   4.783   6.183   3.744  0.2767  0.5321 -4.1685
 9610TIP3    H250246   4.894   6.103   3.810 -3.0916  0.0054  1.6145
 9611TIP3   OH250247   6.808   4.178   1.652  0.3169  0.7025  0.2313
 9611TIP3    H150248   6.804   4.163   1.557 -2.3016 -2.9592  0.6980
 9611TIP3    H250249   6.867   4.109   1.684 -3.8340 -2.6678  1.6029
 9612TIP3   OH250250   6.639   1.425  11.794  0.4080  0.1337  0.5293
 9612TIP3    H150251   6.584   1.397  11.720  0.3862  0.9393  0.2303
 9612TIP3    H250252   6.652   1.519  11.779  2.6292 -0.1937  0.0870
 9613TIP3   OH250253   0.138   5.584  13.971 -0.2193 -0.2642  0.6456
 9613TIP3    H150254   0.148   5.649  14.040  1.4465 -0.7299  0.9007
 9613TIP3    H250255   0.209   5.521  13.987 -1.2743 -1.6939 -0.0769
 9614TIP3   OH250256   6.292   5.907  10.185  0.1068 -0.2176 -0.3162
 9614TIP3    H150257   6.335   5.832  10.226 -0.3031 -0.6416 -0.6375
 9614TIP3    H250258   6.326   5.983  10.231 -1.5806 -0.7387  2.0204
 9615TIP3   OH250259   4.938   0.662  13.977 -0.1666 -0.2496 -0.0519
 9615TIP3    H150260   4.865   0.635  14.033 -1.0923 -0.5831 -1.3767
 9615TIP3    H250261   4.962   0.582  13.930 -0.7120  0.4481 -1.5575
 9616TIP3   OH250262   4.445   0.007   3.867 -0.1476  0.6460  0.6267
 9616TIP3    H150263   4.540   0.011   3.880  0.6554 -3.5979 -1.8330
 9616TIP3    H250264   4.431   0.052   3.784  0.2661 -1.0697 -0.4207
 9617TIP3   OH250265   4.964   3.862  15.398 -0.2588  0.3122 -0.3438
 9617TIP3    H150266   4.974   3.769  15.377  0.3197  0.4388 -0.6404
 9617TIP3    H250267   4.975   3.867  15.493 -3.3334 -0.3267  0.1369
 9618TIP3   OH250268   1.366   2.378   4.942  0.0531 -0.2099 -0.0360
 9618TIP3    H150269   1.302   2.320   4.983 -0.5235  0.6353  0.2635
 9618TIP3    H250270   1.354   2.462   4.985  0.2336  0.3910 -1.1281
 9619TIP3   OH250271   5.073   1.358   1.004 -0.5456  0.0049  0.1682
 9619TIP3    H150272   5.150   1.303   1.016 -0.5231  0.0499  0.2336
 9619TIP3    H250273   5.103   1.428   0.946 -0.1776  0.7347  1.2049
 9620TIP3   OH250274   1.216   5.623   1.532 -0.5717  0.6842  0.2916
 9620TIP3    H150275   1.154   5.595   1.465 -0.0532 -0.3221  0.2087
 9620TIP3    H250276   1.301   5.623   1.487 -0.1143 -0.6561  1.0931
 9621TIP3   OH250277   2.853   2.006  12.005  0.0517  0.4036 -0.2135
 9621TIP3    H150278   2.894   2.050  11.931 -0.1013  1.9594  0.5805
 9621TIP3    H250279   2.870   1.913  11.990  0.3106  0.7018 -2.0014
 9622TIP3   OH250280   3.249   1.850  11.342  0.1091  0.2954 -0.3683
 9622TIP3    H150281   3.208   1.921  11.292 -0.5363 -0.7292 -1.3568
 9622TIP3    H250282   3.264   1.781  11.277  3.6534  0.6656 -0.1188
 9623TIP3   OH250283   5.739   1.116  15.215 -0.0062  0.0554  0.1158
 9623TIP3    H150284   5.726   1.073  15.300 -2.0589  2.5731  1.2149
 9623TIP3    H250285   5.651   1.134  15.184  0.7411  1.2691 -1.4320
 9624TIP3   OH250286   4.931   5.471   5.599 -0.3426 -0.2838 -0.0650
 9624TIP3    H150287   4.836   5.465   5.598 -0.2882 -1.3807  0.0346
 9624TIP3    H250288   4.950   5.549   5.650 -1.1853 -0.2295  0.1724
 9625TIP3   OH250289   6.333   6.705  12.092  0.0571 -0.1535  0.1039
 9625TIP3    H150290   6.326   6.773  12.159 -1.3513 -0.4769  0.3216
 9625TIP3    H250291   6.251   6.711  12.043 -0.6038 -2.3691  0.8183
 9626TIP3   OH250292   4.413   1.291   0.413 -0.1867 -0.1030 -0.1283
 9626TIP3    H150293   4.388   1.199   0.421  0.4332 -0.2622 -0.0302
 9626TIP3    H250294   4.501   1.289   0.375  0.3688  0.4089  1.1037
 9627TIP3   OH250295   4.173   5.709   4.616  0.2085 -0.1131 -0.4166
 9627TIP3    H150296   4.221   5.637   4.657  1.5942  0.1749 -1.4500
 9627TIP3    H250297   4.234   5.783   4.618 -0.5216  0.5169 -0.9825
 9628TIP3   OH250298   4.226   5.223  10.715 -0.5044  0.1504  0.2010
 9628TIP3    H150299   4.217   5.145  10.662  0.7480  0.3681 -0.3790
 9628TIP3    H250300   4.268   5.193  10.795 -0.1549  0.1932  0.0371
 9629TIP3   OH250301   1.501   4.947   5.186  0.6225  0.2221  0.2884
 9629TIP3    H150302   1.424   4.897   5.161 -0.3593  1.8615 -0.1346
 9629TIP3    H250303   1.536   4.981   5.103  0.2628  1.5883  0.6670
 9630TIP3   OH250304   5.018   0.011  12.811 -0.1788 -0.5454  0.1217
 9630TIP3    H150305   4.961  -0.044  12.758 -2.8069 -0.7801  2.9361
 9630TIP3    H250306   4.995   0.101  12.786  0.4875 -0.6352 -0.8893
 9631TIP3   OH250307   5.493   3.553   5.636  0.3378  0.2144  0.2913
 9631TIP3    H150308   5.550   3.480   5.610 -1.6116 -1.4669  0.4983
 9631TIP3    H250309   5.458   3.586   5.554  1.1777  0.9101  0.2012
 9632TIP3   OH250310   1.673   4.927   4.672 -0.3101  0.2577 -0.3274
 9632TIP3    H150311   1.637   4.955   4.587 -0.3493 -0.0355 -0.4086
 9632TIP3    H250312   1.729   4.853   4.651  1.2999  1.4270 -0.3525
 9633TIP3   OH250313   2.356   4.571   5.980 -0.6352 -0.4389 -0.1311
 9633TIP3    H150314   2.416   4.528   6.040 -1.0835 -0.2715  0.4382
 9633TIP3    H250315   2.284   4.602   6.035 -0.6543  0.4417 -0.6276
 9634TIP3   OH250316   4.158   0.786   1.450 -0.1431 -0.1625  0.1160
 9634TIP3    H150317   4.220   0.836   1.397 -1.0311  0.2338 -0.5693
 9634TIP3    H250318   4.212   0.722   1.496  0.9747  1.1260  0.6713
 9635TIP3   OH250319   0.463   5.703  12.655 -0.2562  0.5171  0.3948
 9635TIP3    H150320   0.409   5.704  12.576  0.5202 -1.6724 -0.2499
 9635TIP3    H250321   0.448   5.616  12.693  2.5029 -0.0539  0.3721
 9636TIP3   OH250322   3.140   5.192  14.937 -0.0649  0.2211 -0.4103
 9636TIP3    H150323   3.142   5.286  14.954 -2.5667  0.1519  0.7651
 9636TIP3    H250324   3.204   5.155  14.996 -1.5712  0.9281  1.7922
 9637TIP3   OH250325   5.021   4.825  12.132  0.0935 -0.5634 -0.2978
 9637TIP3    H150326   5.009   4.855  12.042 -0.6859  3.0669  0.8772
 9637TIP3    H250327   4.964   4.882  12.185  2.5173 -0.7188  2.7753
 9638TIP3   OH250328   5.458   5.989   3.213 -0.1883  0.2570  0.1392
 9638TIP3    H150329   5.502   6.061   3.168  0.1176 -0.4017 -0.6308
 9638TIP3    H250330   5.381   6.030   3.253 -0.8057  0.7678 -1.4842
 9639TIP3   OH250331   0.917   0.077   3.973 -0.4048  0.4083 -0.1066
 9639TIP3    H150332   0.939   0.160   3.931  0.9744 -0.7017 -1.7422
 9639TIP3    H250333   0.989   0.061   4.034 -1.4166  1.0665  1.3283
 9640TIP3   OH250334   2.950   0.224  13.271  0.0688  0.5074  0.3249
 9640TIP3    H150335   2.867   0.233  13.223 -0.2733 -2.5919  0.1533
 9640TIP3    H250336   2.942   0.140  13.317  3.1434  0.0519  0.2164
 9641TIP3   OH250337   4.780   5.085  11.901 -0.4767 -0.2912  0.1123
 9641TIP3    H150338   4.699   5.136  11.900 -0.8633 -0.9011 -0.4913
 9641TIP3    H250339   4.849   5.150  11.885 -0.6852  0.4503  2.0126
 9642TIP3   OH250340   1.371   7.096   5.211 -0.1939 -0.3653 -0.0781
 9642TIP3    H150341   1.310   7.158   5.251 -0.2022  0.9036 -1.9316
 9642TIP3    H250342   1.445   7.093   5.271  0.6584  2.9505 -0.7442
 9643TIP3   OH250343   3.816   5.863  12.904 -0.1107  0.0890 -0.6726
 9643TIP3    H150344   3.740   5.806  12.910  1.1263 -1.6202 -0.7318
 9643TIP3    H250345   3.815   5.894  12.813  0.0121 -1.0151 -1.0610
 9644TIP3   OH250346   1.620   6.783  12.891 -0.1111  0.0566  0.4834
 9644TIP3    H150347   1.656   6.707  12.937 -1.8899 -0.3464  1.2954
 9644TIP3    H250348   1.614   6.754  12.800 -0.7029 -0.7778  0.7723
 9645TIP3   OH250349   4.463   3.954  10.196 -0.0742  0.0665 -0.1264
 9645TIP3    H150350   4.484   4.046  10.215 -0.0478  0.2232 -0.8962
 9645TIP3    H250351   4.375   3.943  10.232 -0.2003  0.4808 -0.2974
 9646TIP3   OH250352   2.839   4.084  13.644  0.3059 -0.1644  0.1197
 9646TIP3    H150353   2.798   4.116  13.725 -1.7517  1.3730 -1.4260
 9646TIP3    H250354   2.838   4.160  13.585 -0.5943 -1.8535 -2.1895
 9647TIP3   OH250355   3.882   0.341   1.131 -0.0704 -0.3744  0.1650
 9647TIP3    H150356   3.859   0.291   1.052 -3.4896  2.8856 -1.1961
 9647TIP3    H250357   3.910   0.426   1.097  1.9774 -0.0204  2.4856
 9648TIP3   OH250358   7.079   1.957   2.605  0.0852  0.2923 -0.3505
 9648TIP3    H150359   7.023   1.978   2.530 -0.5273  1.2465  0.3476
 9648TIP3    H250360   7.076   1.862   2.612  1.3655  0.0572 -2.4426
 9649TIP3   OH250361   6.850   4.647   1.110 -0.0047 -0.6448  0.1088
 9649TIP3    H150362   6.768   4.630   1.156  0.4229  1.6372  1.8976
 9649TIP3    H250363   6.838   4.734   1.071  1.6598 -0.1225  0.6911
 9650TIP3   OH250364   2.069   4.528  14.155 -0.2921 -0.6368 -0.5666
 9650TIP3    H150365   2.148   4.492  14.195 -0.2677 -0.1612 -0.1841
 9650TIP3    H250366   2.038   4.595  14.217 -0.3487 -0.0160 -1.2525
 9651TIP3   OH250367   0.364   5.002   2.520 -0.7380  0.1246 -0.1085
 9651TIP3    H150368   0.319   5.048   2.591 -0.4140  0.0873  0.1208
 9651TIP3    H250369   0.296   4.991   2.453 -0.8410  0.8974 -0.1503
 9652TIP3   OH250370   0.530   2.027  11.942  0.4024 -0.5259 -0.3657
 9652TIP3    H150371   0.493   1.999  11.858  0.7080  2.0930 -1.4735
 9652TIP3    H250372   0.621   1.999  11.938  0.6545  0.3558 -1.3476
 9653TIP3   OH250373   2.543   5.253  11.278  0.2278 -0.3674 -0.1675
 9653TIP3    H150374   2.517   5.345  11.272 -1.1600 -0.7262  0.0052
 9653TIP3    H250375   2.482   5.207  11.219  0.8393 -1.1868 -0.1733
 9654TIP3   OH250376   6.972   0.369  13.456 -0.1207 -0.1048 -0.4465
 9654TIP3    H150377   6.927   0.442  13.413  1.2113  1.2027  0.3027
 9654TIP3    H250378   6.979   0.302  13.387 -2.9446 -0.3263 -0.6616
 9655TIP3   OH250379   4.327   4.516   9.548  0.1957  0.1789 -0.0465
 9655TIP3    H150380   4.246   4.565   9.534  0.8755  1.6678  0.9561
 9655TIP3    H250381   4.393   4.566   9.501  0.8101 -0.0955  0.5123
 9656TIP3   OH250382   1.227   3.641   3.080  0.2264 -0.2902  0.5081
 9656TIP3    H150383   1.177   3.680   3.008 -1.6837  0.7607  2.3224
 9656TIP3    H250384   1.284   3.712   3.111  1.0947 -0.7610  0.0503
 9657TIP3   OH250385   0.190   4.564  10.701 -0.0791  0.7883 -0.4864
 9657TIP3    H150386   0.180   4.511  10.622 -1.1560  0.8747 -0.4131
 9657TIP3    H250387   0.256   4.518  10.753 -0.9901 -0.4766 -0.4287
 9658TIP3   OH250388   2.663   4.106  15.650  0.4241 -0.7537 -0.4572
 9658TIP3    H150389   2.595   4.059  15.698  0.0893  0.2004  0.0290
 9658TIP3    H250390   2.719   4.037  15.613  0.0602 -1.5213  0.3875
 9659TIP3   OH250391   5.959   3.386   4.701 -0.1461 -0.2676  0.1637
 9659TIP3    H150392   6.007   3.342   4.771  1.3220 -0.1402 -0.7243
 9659TIP3    H250393   5.964   3.325   4.627 -0.9008 -0.0126 -0.1036
 9660TIP3   OH250394   6.716   5.486   2.267 -0.6819  0.2933  0.7424
 9660TIP3    H150395   6.632   5.502   2.223  0.9606 -0.0558 -2.8627
 9660TIP3    H250396   6.731   5.392   2.256  0.8579  0.6137 -0.0024
 9661TIP3   OH250397   3.905   5.879   3.401 -0.0276 -0.2145  0.3381
 9661TIP3    H150398   3.990   5.835   3.410 -0.8640 -2.2534 -0.8940
 9661TIP3    H250399   3.924   5.971   3.418  2.7757 -0.3158 -1.5723
 9662TIP3   OH250400   4.741   5.216   5.163 -0.2441  0.9517  0.2551
 9662TIP3    H150401   4.723   5.193   5.254 -0.9229  0.7370  0.0743
 9662TIP3    H250402   4.655   5.210   5.119  0.2608 -0.1885 -0.6622
 9663TIP3   OH250403   2.227   6.918   1.532  0.3863 -0.2028 -0.0213
 9663TIP3    H150404   2.170   6.988   1.563  0.1431 -0.0885 -0.7295
 9663TIP3    H250405   2.224   6.853   1.602 -0.2205  0.0220  0.1671
 9664TIP3   OH250406   0.871   5.066   5.382  0.1939  0.7910 -0.1157
 9664TIP3    H150407   0.934   5.003   5.419  1.5612  1.0447 -1.8859
 9664TIP3    H250408   0.904   5.151   5.412 -2.5226  0.7973  3.6067
 9665TIP3   OH250409   0.497   0.266  11.317  0.0159 -0.2662 -0.7231
 9665TIP3    H150410   0.425   0.248  11.377 -1.6363 -0.0313 -2.5322
 9665TIP3    H250411   0.572   0.281  11.374 -1.6751  1.0182  1.3298
 9666TIP3   OH250412   5.275   3.763  14.966  0.1769 -0.0153 -0.5424
 9666TIP3    H150413   5.202   3.816  14.998 -0.0965 -0.0599 -1.0821
 9666TIP3    H250414   5.267   3.767  14.871 -0.4843 -1.8915 -0.6044
 9667TIP3   OH250415   2.629   3.517   1.002 -0.3456  0.5745  0.2600
 9667TIP3    H150416   2.543   3.518   0.959 -0.8185  3.4441  1.0714
 9667TIP3    H250417   2.690   3.547   0.935  0.2505 -2.2385 -0.5627
 9668TIP3   OH250418   5.422   1.494  15.371  0.0892  0.1472 -0.1392
 9668TIP3    H150419   5.439   1.556  15.442  0.8220  0.0617 -0.2286
 9668TIP3    H250420   5.439   1.545  15.291 -2.4378  0.7743 -0.3552
 9669TIP3   OH250421   5.518   5.843   0.791  0.1867  0.4444 -0.1448
 9669TIP3    H150422   5.474   5.927   0.780 -0.4035  0.3136  1.0084
 9669TIP3    H250423   5.464   5.780   0.743  1.1651  0.8403 -1.8537
 9670TIP3   OH250424   4.435   1.740  10.856  0.0536  0.2830 -0.4744
 9670TIP3    H150425   4.522   1.752  10.817  0.4171 -0.6002  0.0357
 9670TIP3    H250426   4.428   1.810  10.920  1.1799 -0.7150  0.8124
 9671TIP3   OH250427   3.805   1.480   3.117 -0.2781  0.1373 -0.1754
 9671TIP3    H150428   3.796   1.533   3.038 -1.1745  1.4408  0.7423
 9671TIP3    H250429   3.734   1.511   3.174  2.0646  1.3340  2.2901
 9672TIP3   OH250430   0.386   5.696  15.083  0.4962 -0.5151 -0.1322
 9672TIP3    H150431   0.300   5.737  15.079  0.0808 -1.3674 -0.0605
 9672TIP3    H250432   0.436   5.739  15.013 -0.0439 -0.1621 -0.3063
 9673TIP3   OH250433   3.164   6.273  10.956  0.4731  0.0055 -0.4424
 9673TIP3    H150434   3.239   6.324  10.927  1.6876 -1.0064  0.7514
 9673TIP3    H250435   3.197   6.221  11.029 -1.1809 -1.1123 -0.4194
 9674TIP3   OH250436   5.651   6.370   0.714 -0.1204 -0.3209 -0.0599
 9674TIP3    H150437   5.691   6.434   0.773  1.8858 -0.3503 -1.3218
 9674TIP3    H250438   5.662   6.286   0.757 -1.0309 -0.0776  0.6967
 9675TIP3   OH250439   0.318   3.744   3.150 -0.6283 -0.4797  0.5192
 9675TIP3    H150440   0.398   3.728   3.200 -0.6719  2.1998  1.6533
 9675TIP3    H250441   0.290   3.832   3.178 -1.7056  0.3929 -2.8372
 9676TIP3   OH250442   3.904   6.522   3.138  0.2648  0.6324 -0.3595
 9676TIP3    H150443   3.857   6.501   3.218  0.4286  1.3947 -0.0515
 9676TIP3    H250444   3.882   6.451   3.077  0.6709 -0.3154  0.5713
 9677TIP3   OH250445   4.295   4.961   2.208 -0.1829 -0.4996  0.0942
 9677TIP3    H150446   4.275   4.967   2.301 -0.4083 -0.1036  0.0242
 9677TIP3    H250447   4.219   4.916   2.171 -0.0797 -0.6839  0.1043
 9678TIP3   OH250448   2.180   6.171  11.329  0.1205  0.3344  0.1839
 9678TIP3    H150449   2.257   6.114  11.335 -0.4424 -0.7695 -2.0523
 9678TIP3    H250450   2.111   6.114  11.295 -1.0292  1.8824 -0.1936
 9679TIP3   OH250451   4.984   4.950   1.885  0.0850 -0.6080 -0.1749
 9679TIP3    H150452   4.908   4.924   1.937  0.6807 -1.6628  0.2111
 9679TIP3    H250453   4.972   4.906   1.801 -2.0029  2.8385 -1.8778
 9680TIP3   OH250454   2.368   5.332  13.438  0.4140 -0.2178 -0.4211
 9680TIP3    H150455   2.294   5.355  13.382  1.4772  2.6202 -0.8874
 9680TIP3    H250456   2.357   5.386  13.516  0.9857 -1.2142  0.3727
 9681TIP3   OH250457   6.427   5.694   2.335 -0.2228  0.3306 -0.2586
 9681TIP3    H150458   6.401   5.610   2.298  2.7981 -0.9468  0.2968
 9681TIP3    H250459   6.349   5.725   2.381 -0.7464 -3.4120  1.6960
 9682TIP3   OH250460   5.153   3.530   9.746 -0.4525  0.0656 -0.0489
 9682TIP3    H150461   5.132   3.621   9.725  0.1872  0.4129  0.7392
 9682TIP3    H250462   5.218   3.536   9.816  0.4110 -0.9860 -0.7227
 9683TIP3   OH250463   4.815   1.815   1.381  0.2690  0.0108 -0.2763
 9683TIP3    H150464   4.841   1.728   1.410  0.5481  0.1943  0.0219
 9683TIP3    H250465   4.893   1.851   1.339  0.1542  0.1183 -0.3986
 9684TIP3   OH250466   4.729   0.826   0.766 -0.1311 -0.1700  0.4102
 9684TIP3    H150467   4.707   0.764   0.836  0.1377 -0.8128 -0.0642
 9684TIP3    H250468   4.786   0.891   0.808 -0.4903 -0.1865  0.9327
 9685TIP3   OH250469   6.626   3.102   5.214  0.0617 -0.0007  0.0119
 9685TIP3    H150470   6.623   3.147   5.129  2.2861 -0.3889 -0.3307
 9685TIP3    H250471   6.563   3.030   5.206 -2.3086  1.9229 -0.0327
 9686TIP3   OH250472   3.234   0.521  13.710 -0.2039  0.3926 -0.0947
 9686TIP3    H150473   3.305   0.577  13.676  1.5052 -0.7976  1.3326
 9686TIP3    H250474   3.231   0.447  13.650  3.0878 -1.9117  2.1990
 9687TIP3   OH250475   3.577   6.907  11.273  0.3973 -0.0962 -0.3053
 9687TIP3    H150476   3.625   6.872  11.348  1.8981 -0.8713 -1.5756
 9687TIP3    H250477   3.514   6.838  11.251 -0.5765  0.4442  0.6514
 9688TIP3   OH250478   6.768   4.859   1.492 -0.2725  0.0978 -0.7871
 9688TIP3    H150479   6.857   4.826   1.479  1.0367  3.3998 -1.4011
 9688TIP3    H250480   6.711   4.788   1.464  2.2230 -1.4329 -2.3384
 9689TIP3   OH250481   0.095   2.885   5.287 -0.2469 -0.2121 -0.1549
 9689TIP3    H150482   0.044   2.832   5.348 -1.8072 -0.8366 -1.9095
 9689TIP3    H250483   0.131   2.821   5.225  0.6688  0.4765 -0.3515
 9690TIP3   OH250484   0.960   1.367   4.748 -0.0670 -0.3133  0.2002
 9690TIP3    H150485   0.865   1.365   4.742 -0.1130  2.2509 -3.0505
 9690TIP3    H250486   0.990   1.298   4.689  0.1646 -1.2411  1.3594
 9691TIP3   OH250487   1.772   6.210   5.784 -0.0478  0.9911 -0.3818
 9691TIP3    H150488   1.854   6.166   5.806 -0.0530  0.5003 -1.3225
 9691TIP3    H250489   1.788   6.302   5.805 -0.1953  0.5485  2.0823
 9692TIP3   OH250490   6.905   4.196  15.377  0.8548 -0.1370  0.3237
 9692TIP3    H150491   6.842   4.135  15.340  0.0256  0.4366  0.7663
 9692TIP3    H250492   6.866   4.223  15.460  1.5771  0.4066  0.4965
 9693TIP3   OH250493   2.365   2.906  13.064  0.0512 -0.2098  0.2702
 9693TIP3    H150494   2.326   2.939  12.983 -1.9853 -0.3305  1.1452
 9693TIP3    H250495   2.290   2.882  13.119  1.3757 -0.5035  2.0449
 9694TIP3   OH250496   6.043   0.137  11.920  0.3827 -0.1400  0.4981
 9694TIP3    H150497   5.959   0.173  11.893 -1.2918 -3.2665  1.1504
 9694TIP3    H250498   6.070   0.193  11.994 -0.3249  1.7899 -0.6303
 9695TIP3   OH250499   6.727   2.593   1.590  0.1615 -0.7219 -0.3442
 9695TIP3    H150500   6.714   2.604   1.684 -0.7794  0.7117 -0.6083
 9695TIP3    H250501   6.700   2.503   1.572 -0.8045 -0.6282  0.5845
 9696TIP3   OH250502   3.644   4.676  12.712 -0.3908 -0.3676  0.4881
 9696TIP3    H150503   3.701   4.662  12.636 -1.8803  1.4687 -1.0833
 9696TIP3    H250504   3.689   4.740  12.766  0.1270 -0.7825  0.5576
 9697TIP3   OH250505   0.162   5.797  14.158 -0.3694  0.9327  0.9282
 9697TIP3    H150506   0.100   5.863  14.188  0.6818  1.2276  2.5566
 9697TIP3    H250507   0.243   5.845  14.141 -0.2721  0.4022 -0.2088
 9698TIP3   OH250508   4.762   4.685  10.258 -0.5848 -0.1469  0.5585
 9698TIP3    H150509   4.753   4.780  10.266  1.7336  0.1902 -0.2638
 9698TIP3    H250510   4.839   4.663  10.309 -0.0368 -1.3256 -0.7116
 9699TIP3   OH250511   6.902   4.957  14.859  0.3813  0.1844  0.0011
 9699TIP3    H150512   6.945   5.032  14.900  0.3828  1.4666 -2.1745
 9699TIP3    H250513   6.963   4.929  14.790 -0.3956 -0.7192 -0.3428
 9700TIP3   OH250514   5.963   5.225  10.494 -0.3802  0.3216 -0.5923
 9700TIP3    H150515   6.059   5.226  10.501 -0.4676 -0.5583  1.5857
 9700TIP3    H250516   5.938   5.137  10.523 -1.8640  0.5647 -1.0696
 9701TIP3   OH250517   1.515   1.252   3.503 -0.4016 -0.2414 -0.1357
 9701TIP3    H150518   1.578   1.260   3.431 -1.8599  1.4609 -1.3252
 9701TIP3    H250519   1.527   1.332   3.554 -0.3197 -0.8043  0.7422
 9702TIP3   OH250520   0.840   6.777  10.328 -0.0079  0.0082  0.4473
 9702TIP3    H150521   0.898   6.806  10.258 -0.8397  1.2027  0.2314
 9702TIP3    H250522   0.799   6.857  10.361 -2.1407 -0.8447  0.0291
 9703TIP3   OH250523   6.289   5.367   3.645 -0.4567  0.6656  0.1422
 9703TIP3    H150524   6.322   5.401   3.562  0.9882 -0.6565  0.1302
 9703TIP3    H250525   6.252   5.282   3.623  2.2944 -0.9442  1.1297
 9704TIP3   OH250526   6.371   1.179  14.719 -0.2355  0.1229  0.2541
 9704TIP3    H150527   6.425   1.202  14.795  1.3351  0.9662 -1.0595
 9704TIP3    H250528   6.434   1.147  14.654 -1.4713 -0.0158 -0.9065
 9705TIP3   OH250529   1.770   0.508  14.896  0.3049 -0.0854 -0.1338
 9705TIP3    H150530   1.807   0.570  14.958 -1.8716  0.8071  0.3889
 9705TIP3    H250531   1.675   0.517  14.907 -0.1142 -1.7639 -1.7803
 9706TIP3   OH250532   5.821   1.656  13.937  0.3292  0.8377  0.1808
 9706TIP3    H150533   5.780   1.742  13.934  1.0045  1.2651  1.8555
 9706TIP3    H250534   5.836   1.640  14.031  1.7427 -0.3450 -0.2051
 9707TIP3   OH250535   4.761   3.755  13.771  0.0194 -0.0479 -0.1615
 9707TIP3    H150536   4.765   3.699  13.693  1.5873  0.6856 -0.6502
 9707TIP3    H250537   4.849   3.749  13.809 -0.4373  0.3864  0.9964
 9708TIP3   OH250538   3.136   0.615   1.176  0.2662  0.3352 -0.0427
 9708TIP3    H150539   3.078   0.576   1.111 -0.7643  0.6608  0.6624
 9708TIP3    H250540   3.193   0.544   1.204  2.0860  0.6163 -2.7098
 9709TIP3   OH250541   1.829   7.120   0.933 -0.3291 -0.8002 -0.1458
 9709TIP3    H150542   1.790   7.086   1.014  1.4620 -1.4970  0.4689
 9709TIP3    H250543   1.757   7.121   0.870 -1.6557 -0.7097  1.3015
 9710TIP3   OH250544   4.297   4.250  15.100 -0.1115 -0.3223  0.6640
 9710TIP3    H150545   4.275   4.179  15.160  1.1202  0.1626  1.7411
 9710TIP3    H250546   4.328   4.206  15.021  0.3514 -0.9885  1.2069
 9711TIP3   OH250547   1.352   5.071  12.232 -0.4344 -0.4346 -0.1723
 9711TIP3    H150548   1.331   5.106  12.146  0.2473  0.2231 -0.0783
 9711TIP3    H250549   1.339   5.145  12.291 -1.5188 -1.0399  0.3955
 9712TIP3   OH250550   0.246   3.023   0.177 -0.2903  0.5915 -0.3032
 9712TIP3    H150551   0.241   3.030   0.272  0.2332  2.4913 -0.3707
 9712TIP3    H250552   0.306   2.951   0.160 -2.0107 -1.1637  0.7554
 9713TIP3   OH250553   2.073   6.863   0.620 -0.0851 -0.3610 -0.3984
 9713TIP3    H150554   2.056   6.830   0.708  1.5737  1.0193  0.4940
 9713TIP3    H250555   2.002   6.925   0.603 -0.2505 -0.4208  0.0796
 9714TIP3   OH250556   2.580   6.255   5.689 -0.1160 -0.5641 -0.0558
 9714TIP3    H150557   2.674   6.247   5.703  0.0153  0.3229 -0.3599
 9714TIP3    H250558   2.548   6.165   5.683  1.1513 -0.9494 -2.8415
 9715TIP3   OH250559   5.842   2.913   2.836 -0.3632 -0.6175 -0.1614
 9715TIP3    H150560   5.932   2.894   2.863  0.8407  1.1172 -2.5249
 9715TIP3    H250561   5.844   3.005   2.809 -2.0414 -1.3066 -3.0949
 9716TIP3   OH250562   6.881   2.338   2.566  0.5503 -0.1493 -0.3116
 9716TIP3    H150563   6.877   2.386   2.483 -2.0127  0.2246 -0.0744
 9716TIP3    H250564   6.865   2.247   2.542 -0.5733  0.0116 -0.2340
 9717TIP3   OH250565   4.676   2.896   1.635  0.3536  0.0304 -0.6999
 9717TIP3    H150566   4.686   2.990   1.621  1.8750  0.2188  1.1820
 9717TIP3    H250567   4.737   2.856   1.572  4.5761  0.6939  2.5485
 9718TIP3   OH250568   3.100   1.892  12.551  0.4659  0.1380 -0.1408
 9718TIP3    H150569   3.080   1.829  12.482 -1.5185  0.3994  0.1462
 9718TIP3    H250570   3.136   1.839  12.622 -1.1307 -0.7187  0.0809
 9719TIP3   OH250571   3.559   1.283  15.434  0.1301  0.2624 -0.0446
 9719TIP3    H150572   3.558   1.309  15.342 -2.8739  2.3943  0.4198
 9719TIP3    H250573   3.478   1.232  15.444 -0.1342  0.9524  1.5737
 9720TIP3   OH250574   1.615   7.053   5.478  0.9518  0.0414 -0.8125
 9720TIP3    H150575   1.634   7.131   5.530 -0.7561 -0.0534  0.0434
 9720TIP3    H250576   1.565   6.996   5.537  1.6258 -1.4475 -1.6111
 9721TIP3   OH250577   6.465   3.616   1.758  0.9679  0.0208  0.5616
 9721TIP3    H150578   6.457   3.631   1.852  0.1014 -1.1702  0.7104
 9721TIP3    H250579   6.418   3.534   1.743 -0.8666  1.3095 -1.2517
 9722TIP3   OH250580   6.770   4.369  13.783  0.4404  0.1055  0.6388
 9722TIP3    H150581   6.863   4.385  13.798  0.8960 -2.0548  0.5250
 9722TIP3    H250582   6.756   4.393  13.691  0.7344  0.9800  0.8151
 9723TIP3   OH250583   3.217   3.407  11.140  0.1607  0.0182  0.3529
 9723TIP3    H150584   3.124   3.428  11.132  0.0597 -0.7878 -0.7481
 9723TIP3    H250585   3.224   3.357  11.221 -0.5482 -0.8282 -0.0895
 9724TIP3   OH250586   5.733   0.194  12.955 -0.1805 -0.6599 -0.3424
 9724TIP3    H150587   5.699   0.139  13.025  0.6506 -0.8303 -0.0630
 9724TIP3    H250588   5.749   0.279  12.996  0.6046 -0.8504 -0.2364
 9725TIP3   OH250589   1.436   4.632  12.205  0.7019  0.3882 -0.0194
 9725TIP3    H150590   1.342   4.617  12.199  0.8603 -0.9118  0.2791
 9725TIP3    H250591   1.468   4.617  12.116  0.4761  2.1982 -0.4295
 9726TIP3   OH250592   2.851   5.199   5.582  0.1518  0.4462 -0.5718
 9726TIP3    H150593   2.822   5.168   5.668  0.9226 -0.4984 -0.6370
 9726TIP3    H250594   2.933   5.247   5.601 -0.0675  0.8753 -0.6968
 9727TIP3   OH250595   2.976   4.364   5.178  0.0968 -0.4863  0.0624
 9727TIP3    H150596   3.028   4.286   5.200  0.6416 -0.5554 -1.3612
 9727TIP3    H250597   2.917   4.335   5.108 -0.7990 -0.0120  0.6104
 9728TIP3   OH250598   5.024   3.570  13.174  0.4133  0.0473  0.3520
 9728TIP3    H150599   5.072   3.577  13.257  1.8024  0.9219 -0.4832
 9728TIP3    H250600   5.080   3.515  13.119 -1.2671 -1.9159  0.4734
 9729TIP3   OH250601   5.716   4.687   2.755  0.1454 -0.2036  0.1988
 9729TIP3    H150602   5.656   4.761   2.742  1.3229  0.7655  0.0582
 9729TIP3    H250603   5.736   4.690   2.849  2.4817  1.5835 -0.2406
 9730TIP3   OH250604   3.360   2.044  15.515 -0.3005 -0.3658  0.2790
 9730TIP3    H150605   3.406   1.991  15.581  1.1979  0.5179 -0.0225
 9730TIP3    H250606   3.411   2.032  15.435 -0.6764  0.5340 -0.1046
 9731TIP3   OH250607   6.730   0.555  10.160  0.2469 -0.2195 -0.1616
 9731TIP3    H150608   6.685   0.551  10.075  0.9736  0.5505 -0.5946
 9731TIP3    H250609   6.816   0.515  10.144  1.3631  2.1440 -0.4621
 9732TIP3   OH250610   1.895   4.644   1.828  0.1984 -0.3077 -0.9285
 9732TIP3    H150611   1.895   4.548   1.825  3.4816 -0.6376  2.3060
 9732TIP3    H250612   1.819   4.666   1.881  0.4524 -1.3029 -0.1215
 9733TIP3   OH250613   1.062   1.943   0.691  0.5007  0.7668 -0.9166
 9733TIP3    H150614   1.138   1.993   0.722 -0.0718  0.4854  1.0716
 9733TIP3    H250615   0.991   2.008   0.688 -0.3105  0.1628  1.9263
 9734TIP3   OH250616   4.407   0.450  15.319 -0.3775  0.0175 -0.2603
 9734TIP3    H150617   4.336   0.431  15.380 -0.4317  0.8213 -0.0559
 9734TIP3    H250618   4.386   0.536  15.283 -0.3958 -0.4895 -1.5059
 9735TIP3   OH250619   0.759   1.171   2.475  0.1026  0.2157 -0.0780
 9735TIP3    H150620   0.786   1.209   2.392  0.3514 -0.4027 -0.2864
 9735TIP3    H250621   0.837   1.176   2.531  0.0357  0.3218  0.0069
 9736TIP3   OH250622   0.978   2.010  11.641  0.0152 -0.1676 -0.2487
 9736TIP3    H150623   1.015   1.937  11.591  1.3367  1.3795 -1.6751
 9736TIP3    H250624   1.038   2.083  11.625 -1.3348  1.2951  0.9702
 9737TIP3   OH250625   3.185   5.599  13.533 -0.2171 -0.1014 -0.0186
 9737TIP3    H150626   3.189   5.505  13.517 -0.2600 -0.1682  0.3619
 9737TIP3    H250627   3.167   5.607  13.626 -0.8905  0.2821 -0.1758
 9738TIP3   OH250628   1.743   4.113   4.361  0.3194  0.0266 -0.0435
 9738TIP3    H150629   1.726   4.206   4.375 -1.3452 -0.1101 -1.0176
 9738TIP3    H250630   1.740   4.075   4.449 -2.1939  0.4056  0.0864
 9739TIP3   OH250631   5.090   4.935   1.180 -0.0582 -0.1581  0.5058
 9739TIP3    H150632   5.054   4.856   1.220 -1.0546 -0.3816 -0.7455
 9739TIP3    H250633   5.149   4.902   1.112  1.4439  0.2113  1.5814
 9740TIP3   OH250634   1.616   2.398  13.561  0.4111  0.7512 -0.2196
 9740TIP3    H150635   1.656   2.414  13.647  0.3613  1.0445 -0.2512
 9740TIP3    H250636   1.642   2.473  13.508  1.9393 -0.2911 -1.0103
 9741TIP3   OH250637   2.612   5.739  12.976  0.2216  0.2341 -0.1062
 9741TIP3    H150638   2.613   5.834  12.985 -0.7136  0.3503 -1.0321
 9741TIP3    H250639   2.700   5.711  13.001  0.2642  1.2572  0.9516
 9742TIP3   OH250640   5.658   5.635  12.051 -0.0485  0.2125  0.7295
 9742TIP3    H150641   5.645   5.568  11.984  0.6510 -1.2512  2.0018
 9742TIP3    H250642   5.635   5.717  12.008  1.4001 -0.5306 -1.6258
 9743TIP3   OH250643   4.936   3.144  12.335 -0.3284 -0.3095  0.1960
 9743TIP3    H150644   5.015   3.184  12.298  0.2039 -1.5245 -0.0395
 9743TIP3    H250645   4.917   3.196  12.413  1.5906 -0.8792  1.1022
 9744TIP3   OH250646   3.793   1.389   0.357 -0.6169  0.0223 -0.0236
 9744TIP3    H150647   3.724   1.385   0.291 -0.1662  0.2829 -0.5191
 9744TIP3    H250648   3.751   1.425   0.434 -1.0508  0.1055 -0.2978
 9745TIP3   OH250649   6.123   4.126  14.436 -0.1194  0.0928  0.0538
 9745TIP3    H150650   6.048   4.071  14.416  0.5516 -0.4949 -0.9171
 9745TIP3    H250651   6.177   4.073  14.496 -0.4235  0.4790  0.6812
 9746TIP3   OH250652   2.609   3.971   0.328  0.2470 -0.1110  0.6612
 9746TIP3    H150653   2.701   3.979   0.303  0.2621  0.0562  0.7641
 9746TIP3    H250654   2.597   4.040   0.394 -0.2355  0.6175 -0.1646
 9747TIP3   OH250655   4.527   5.166  11.849 -0.1119  0.7757  0.2376
 9747TIP3    H150656   4.529   5.078  11.811 -1.4774  0.8745 -0.0957
 9747TIP3    H250657   4.478   5.156  11.930  0.7816  1.0194  0.8252
 9748TIP3   OH250658   0.070   4.773  15.027  0.3141  0.2554  0.0903
 9748TIP3    H150659   0.088   4.861  15.062 -0.6750  1.1253 -1.4482
 9748TIP3    H250660   0.137   4.759  14.961  1.3312 -0.7910  1.2879
 9749TIP3   OH250661   5.265   5.345   1.928  0.3723 -0.1821 -1.0978
 9749TIP3    H150662   5.198   5.287   1.891  1.4234 -2.4406  0.2819
 9749TIP3    H250663   5.216   5.417   1.966 -1.2390 -1.4283 -0.7052
 9750TIP3   OH250664   1.514   0.760   3.975  0.0917  0.2791 -0.3912
 9750TIP3    H150665   1.423   0.732   3.974 -0.4990  2.0386 -1.7979
 9750TIP3    H250666   1.548   0.735   3.889  0.5991  0.6209 -0.2994
 9751TIP3   OH250667   3.044   1.526  12.420 -0.4086  0.3405  0.8174
 9751TIP3    H150668   3.116   1.465  12.407 -1.1173  0.0535 -2.5409
 9751TIP3    H250669   3.064   1.600  12.363 -1.3361  1.6369  2.1007
 9752TIP3   OH250670   1.808   7.000   5.765 -0.1026  0.4192  0.2346
 9752TIP3    H150671   1.745   7.072   5.755 -0.4926  0.0783  0.2240
 9752TIP3    H250672   1.836   7.005   5.856 -3.1564 -1.8584  1.4470
 9753TIP3   OH250673   0.446   4.563  13.043 -0.0285 -0.2398 -0.5632
 9753TIP3    H150674   0.380   4.538  12.978 -0.5942 -1.4387  0.4270
 9753TIP3    H250675   0.470   4.653  13.020 -0.7532 -0.3835 -1.9669
 9754TIP3   OH250676   4.290   1.411  12.350  0.1243 -0.2837  0.2196
 9754TIP3    H150677   4.276   1.504  12.368 -1.0648 -0.5986  1.0632
 9754TIP3    H250678   4.267   1.367  12.432 -0.3539 -1.3953 -0.4881
 9755TIP3   OH250679   1.725   2.783  13.566  0.1104 -0.1581 -0.4384
 9755TIP3    H150680   1.802   2.806  13.617 -0.8102  1.5816  0.2534
 9755TIP3    H250681   1.724   2.843  13.492 -0.8600  0.2394 -0.1283
 9756TIP3   OH250682   7.106   6.147  15.384 -0.6070  0.1479  0.4696
 9756TIP3    H150683   7.151   6.070  15.347 -0.1037  0.0601  1.2285
 9756TIP3    H250684   7.150   6.222  15.345 -0.5734  0.0542  0.3273
 9757TIP3   OH250685   4.529   5.971   4.451  0.3259  0.3142 -0.3843
 9757TIP3    H150686   4.570   6.050   4.486  1.9562 -0.3096 -0.8045
 9757TIP3    H250687   4.474   6.002   4.379 -0.8962  1.2961  0.9200
 9758TIP3   OH250688   0.966   5.058   0.610 -0.1205 -0.3294 -0.6405
 9758TIP3    H150689   0.970   5.104   0.694  0.2242 -2.4967  0.6146
 9758TIP3    H250690   1.019   5.111   0.551 -0.6378  1.4285  0.3980
 9759TIP3   OH250691   0.357   5.991  11.685  0.0469  0.5354  0.2627
 9759TIP3    H150692   0.382   5.979  11.593 -0.9704 -0.2931  0.0642
 9759TIP3    H250693   0.364   5.903  11.723 -1.5373  0.4516  0.4258
 9760TIP3   OH250694   6.720   5.492   2.901 -0.0657 -0.3632 -0.3830
 9760TIP3    H150695   6.767   5.567   2.939 -2.0062  1.2167 -0.8850
 9760TIP3    H250696   6.771   5.416   2.927  1.5397  1.0605  0.9103
 9761TIP3   OH250697   2.558   4.715   2.692 -0.0190 -0.3476  0.2845
 9761TIP3    H150698   2.584   4.631   2.730 -0.6053 -0.7960 -0.2774
 9761TIP3    H250699   2.605   4.780   2.743  0.1526 -1.0005  0.9775
 9762TIP3   OH250700   1.537   2.850   2.394  0.5860 -0.5033  0.0832
 9762TIP3    H150701   1.442   2.837   2.404  0.6442 -0.2040  1.2003
 9762TIP3    H250702   1.553   2.840   2.301 -0.7997  0.9321 -0.3623
 9763TIP3   OH250703   6.154   2.269   4.424  0.0742 -0.2332 -0.2792
 9763TIP3    H150704   6.128   2.272   4.332 -1.9976  0.6994  0.2715
 9763TIP3    H250705   6.226   2.332   4.431 -0.3385  0.3532 -1.1196
 9764TIP3   OH250706   3.632   6.506   2.214  0.2872  0.8554 -0.1371
 9764TIP3    H150707   3.636   6.488   2.120  0.7913  0.5745 -0.0663
 9764TIP3    H250708   3.723   6.501   2.244 -0.0102 -0.5224  0.6226
 9765TIP3   OH250709   7.084   5.847  14.420 -0.4258  0.4216 -0.1113
 9765TIP3    H150710   7.008   5.861  14.477  0.5637  2.2801  0.8440
 9765TIP3    H250711   7.070   5.906  14.346 -0.0549  0.5433 -0.0861
 9766TIP3   OH250712   2.740   5.377   2.456  0.3726  0.3245  0.2145
 9766TIP3    H150713   2.716   5.329   2.376  0.1145  0.6982  0.0639
 9766TIP3    H250714   2.783   5.457   2.424 -0.3521  0.8076  0.4286
 9767TIP3   OH250715   0.810   5.147   4.064  0.1551  0.0602 -0.2369
 9767TIP3    H150716   0.803   5.240   4.085  0.8066 -0.0380  0.4675
 9767TIP3    H250717   0.890   5.141   4.012 -0.1516 -0.0416 -0.6999
 9768TIP3   OH250718   1.194   2.870   4.336  0.0977 -0.3126  0.4041
 9768TIP3    H150719   1.147   2.921   4.271  0.4140  1.4028  1.4668
 9768TIP3    H250720   1.286   2.888   4.318  0.1783  0.3708  1.4687
 9769TIP3   OH250721   5.973   6.870  14.549 -0.2449  0.4653  0.0895
 9769TIP3    H150722   5.888   6.902  14.577 -0.1290  0.5243  0.3840
 9769TIP3    H250723   5.955   6.785  14.510 -0.4579  0.5480  0.0065
 9770TIP3   OH250724   6.717   0.933  10.878  0.5139  0.3710  0.0359
 9770TIP3    H150725   6.643   0.874  10.888  0.2693  0.2905 -1.9761
 9770TIP3    H250726   6.684   1.019  10.904 -0.6511  0.5501 -1.9099
 9771TIP3   OH250727   1.545   0.898   1.605  0.3679  0.4973  0.2409
 9771TIP3    H150728   1.478   0.902   1.537 -0.5332 -1.8183  0.9094
 9771TIP3    H250729   1.604   0.971   1.586 -2.6207  3.0057 -0.0353
 9772TIP3   OH250730   2.572   3.550   3.395 -0.1061  0.0068 -0.4665
 9772TIP3    H150731   2.608   3.501   3.469 -0.6053  1.1628  0.5750
 9772TIP3    H250732   2.506   3.607   3.434 -0.3600  0.6634 -1.8013
 9773TIP3   OH250733   6.418   5.137   3.921 -0.0916 -0.2570  0.0095
 9773TIP3    H150734   6.376   5.176   3.844 -0.8088 -1.3177 -0.1505
 9773TIP3    H250735   6.346   5.108   3.976  0.4222 -0.9959  0.3061
 9774TIP3   OH250736   6.246   4.095   0.082 -0.4668 -0.4819 -0.1781
 9774TIP3    H150737   6.167   4.044   0.063 -0.1900 -1.3159  0.8414
 9774TIP3    H250738   6.312   4.060   0.021 -0.4923 -0.7956 -0.0287
 9775TIP3   OH250739   0.422   4.206   2.835  0.0246  0.4407  0.8721
 9775TIP3    H150740   0.410   4.125   2.885 -3.1753  1.3995  1.8761
 9775TIP3    H250741   0.446   4.272   2.900 -2.8927  1.4106  1.1234
 9776TIP3   OH250742   6.097   3.285   0.778  0.0962 -0.5493 -0.0601
 9776TIP3    H150743   6.137   3.371   0.784 -0.6438 -0.1251 -0.8993
 9776TIP3    H250744   6.064   3.267   0.866  0.6325 -0.1646  0.2215
 9777TIP3   OH250745   0.073   6.812  11.779 -0.0719  0.0627  0.3378
 9777TIP3    H150746   0.029   6.878  11.725  1.5022  1.3418  0.5298
 9777TIP3    H250747   0.112   6.863  11.850  2.3231 -0.8665 -0.2298
 9778TIP3   OH250748   2.904   3.134  12.713 -0.9397 -0.3150 -0.1309
 9778TIP3    H150749   2.945   3.203  12.661 -0.6606 -0.4126 -0.0407
 9778TIP3    H250750   2.905   3.167  12.802 -0.5488 -0.5548 -0.0440
 9779TIP3   OH250751   6.207   4.456  14.690  0.3176  0.1896 -0.3701
 9779TIP3    H150752   6.162   4.394  14.748 -0.1729  0.9558  0.0946
 9779TIP3    H250753   6.300   4.444  14.708  0.2313 -0.4705 -0.3529
 9780TIP3   OH250754   0.565   1.731  15.274  0.0670 -0.6111  0.1749
 9780TIP3    H150755   0.479   1.740  15.232  0.7766  0.3092 -1.1459
 9780TIP3    H250756   0.585   1.819  15.307 -1.4041 -1.6315  4.5567
 9781TIP3   OH250757   4.731   1.343  12.499  0.6835 -0.2109  0.0066
 9781TIP3    H150758   4.784   1.279  12.451 -0.7664 -0.0498 -1.9464
 9781TIP3    H250759   4.795   1.395  12.548  2.4519  0.3127 -2.6024
 9782TIP3   OH250760   4.189   1.098   0.846  0.0047  0.5659 -0.2564
 9782TIP3    H150761   4.112   1.120   0.793 -0.8106 -2.2211 -0.3759
 9782TIP3    H250762   4.251   1.061   0.783 -0.6977 -2.1147  0.5257
 9783TIP3   OH250763   3.695   5.958   2.261  0.1392 -0.0172  0.1667
 9783TIP3    H150764   3.735   5.987   2.343 -1.7241 -2.3380  2.0746
 9783TIP3    H250765   3.701   5.862   2.265  1.0882 -0.2024 -3.0668
 9784TIP3   OH250766   6.730   6.242   2.911  0.2497  0.4463 -0.8750
 9784TIP3    H150767   6.638   6.267   2.906 -0.4370 -1.9314 -1.1496
 9784TIP3    H250768   6.760   6.244   2.820  0.2234  0.3799 -0.8853
 9785TIP3   OH250769   0.607   6.677  13.079 -0.3532 -0.6817 -0.7384
 9785TIP3    H150770   0.519   6.691  13.113 -0.5195 -2.7756 -0.2353
 9785TIP3    H250771   0.663   6.733  13.133 -1.1647 -0.6277  0.0606
 9786TIP3   OH250772   1.389   5.576  11.189  0.0360 -0.4258  0.2117
 9786TIP3    H150773   1.400   5.561  11.095 -2.1927 -0.2617 -0.1436
 9786TIP3    H250774   1.474   5.607  11.219  1.4673 -2.6304 -1.2959
 9787TIP3   OH250775   3.705   2.033   1.460 -0.7313  0.1174  0.5235
 9787TIP3    H150776   3.783   2.084   1.481 -0.5685  0.1189 -0.0591
 9787TIP3    H250777   3.691   1.977   1.536 -0.3640  0.3662  0.7748
 9788TIP3   OH250778   1.700   3.890   2.920 -0.4361  0.1378  0.2813
 9788TIP3    H150779   1.786   3.852   2.936 -0.7583 -0.8609 -0.2131
 9788TIP3    H250780   1.707   3.930   2.833 -0.8676 -1.2942 -0.4598
 9789TIP3   OH250781   5.310   6.009   3.850  0.0670  0.0792  0.0612
 9789TIP3    H150782   5.347   6.003   3.761  1.0468  0.6029  0.4234
 9789TIP3    H250783   5.302   5.918   3.878  1.9218 -0.0583  0.2883
 9790TIP3   OH250784   5.474   2.956   4.349 -0.1721 -0.0096 -0.1210
 9790TIP3    H150785   5.402   3.010   4.318  1.2492  1.7141 -0.5961
 9790TIP3    H250786   5.528   3.015   4.402  1.4452 -0.9164 -0.6743
 9791TIP3   OH250787   2.862   6.121   0.911 -0.3074 -0.3920  0.1402
 9791TIP3    H150788   2.896   6.191   0.967 -1.0822 -1.4978  2.1095
 9791TIP3    H250789   2.872   6.154   0.822  2.4935  0.8008  0.7993
 9792TIP3   OH250790   0.813   5.237  11.053 -0.4984 -0.1649  0.3033
 9792TIP3    H150791   0.814   5.153  11.007  0.5410 -0.7071  1.2691
 9792TIP3    H250792   0.721   5.252  11.074 -0.5332 -1.9198  1.6118
 9793TIP3   OH250793   4.368   2.036   4.703  0.6261  0.0186  0.0044
 9793TIP3    H150794   4.459   2.028   4.730  0.4266 -0.7236  0.4977
 9793TIP3    H250795   4.322   1.968   4.752 -0.2290  0.5115 -0.0842
 9794TIP3   OH250796   2.421   2.297   0.551  0.2330  0.8024 -0.0774
 9794TIP3    H150797   2.425   2.280   0.457  0.1992  2.8452 -0.4897
 9794TIP3    H250798   2.509   2.325   0.575  0.2939  0.0976  0.5440
 9795TIP3   OH250799   5.044   2.791  11.701 -0.1091 -0.0913  0.3665
 9795TIP3    H150800   4.974   2.741  11.744 -0.6966 -1.5369 -2.0625
 9795TIP3    H250801   5.060   2.743  11.619  2.5505  1.1819  0.0522
 9796TIP3   OH250802   5.646   0.739   3.313  0.4221 -0.9909  0.0265
 9796TIP3    H150803   5.575   0.681   3.340  0.3641 -0.6146  0.7118
 9796TIP3    H250804   5.653   0.803   3.384  1.3164 -0.9096 -0.1227
 9797TIP3   OH250805   2.108   3.872   0.882 -0.2642 -0.3317  0.0599
 9797TIP3    H150806   2.141   3.961   0.864  0.1249 -0.3357  0.7281
 9797TIP3    H250807   2.177   3.831   0.934 -0.7583 -0.7901  0.3603
 9798TIP3   OH250808   2.286   1.494   1.548 -0.6027 -0.3510 -0.1229
 9798TIP3    H150809   2.195   1.510   1.574 -0.6198  0.2014 -0.5194
 9798TIP3    H250810   2.333   1.483   1.631 -1.2383 -1.9069  0.0782
 9799TIP3   OH250811   4.266   2.121   2.536  0.2107 -0.4685  0.1465
 9799TIP3    H150812   4.362   2.117   2.536  0.3033 -0.0410  3.0300
 9799TIP3    H250813   4.246   2.210   2.507  0.7972  0.1666  1.6319
 9800TIP3   OH250814   6.562   5.144   4.657 -0.2447  0.5891 -0.1997
 9800TIP3    H150815   6.540   5.229   4.694 -0.1744  1.4585 -2.0528
 9800TIP3    H250816   6.526   5.080   4.719 -0.8271  1.9607  0.9126
 9801TIP3   OH250817   1.319   6.244   1.484  0.2005 -0.1187 -0.1123
 9801TIP3    H150818   1.339   6.334   1.510  0.7518 -0.6619  1.4734
 9801TIP3    H250819   1.399   6.213   1.443  0.6008 -0.3925  0.8447
 9802TIP3   OH250820   4.205   0.762  13.765 -0.1176 -0.9994 -0.4820
 9802TIP3    H150821   4.228   0.677  13.725  0.9731 -0.5776 -0.8050
 9802TIP3    H250822   4.118   0.782  13.730  0.4500 -1.0545 -2.0036
 9803TIP3   OH250823   6.587   2.459   5.250 -0.5569 -0.1471 -0.1821
 9803TIP3    H150824   6.587   2.491   5.160  0.4318 -0.6269 -0.3760
 9803TIP3    H250825   6.549   2.530   5.301  0.1418  0.7054 -0.8058
 9804TIP3   OH250826   0.094   3.004  10.093 -0.3938  0.0146  0.1865
 9804TIP3    H150827   0.121   3.058  10.018  0.9984  1.3446  1.5809
 9804TIP3    H250828   0.134   2.919  10.076  0.3080  0.4364 -0.3608
 9805TIP3   OH250829   2.248   1.406   4.183 -0.2640  0.2484  0.6903
 9805TIP3    H150830   2.276   1.478   4.241 -0.5065  3.4988 -2.8420
 9805TIP3    H250831   2.154   1.401   4.196  0.1113 -2.2683  3.6708
 9806TIP3   OH250832   6.328   0.654   0.849  0.0668  0.3494 -0.4345
 9806TIP3    H150833   6.375   0.711   0.910  0.8810  0.2528 -0.9432
 9806TIP3    H250834   6.362   0.566   0.868 -2.6162 -0.3521  1.7149
 9807TIP3   OH250835   3.478   2.268   4.194  0.4256  0.0880 -0.0903
 9807TIP3    H150836   3.428   2.192   4.166  0.5742  0.0882 -0.3535
 9807TIP3    H250837   3.505   2.247   4.284  0.1750 -0.0209 -0.0387
 9808TIP3   OH250838   1.728   4.703  12.734  0.2444 -0.0047 -0.3809
 9808TIP3    H150839   1.657   4.723  12.672 -1.6199 -0.2534  1.5797
 9808TIP3    H250840   1.800   4.674  12.678 -0.9815  0.7726 -2.5057
 9809TIP3   OH250841   4.395   2.146   2.920  0.2788  0.3519  0.5937
 9809TIP3    H150842   4.346   2.183   2.846  0.4764 -1.6573 -0.5835
 9809TIP3    H250843   4.372   2.054   2.921  0.8517  0.1779  2.6283
 9810TIP3   OH250844   6.924   2.385   0.480  0.2754 -0.1278  0.5418
 9810TIP3    H150845   6.959   2.426   0.559  1.3394  0.5914 -0.2614
 9810TIP3    H250846   6.974   2.304   0.471 -0.6653 -0.7945  1.2287
 9811TIP3   OH250847   5.384   5.750   9.413 -0.1938 -0.2811 -0.4291
 9811TIP3    H150848   5.465   5.723   9.370  0.9113 -0.4918  1.6416
 9811TIP3    H250849   5.393   5.717   9.503 -0.9799  2.7036  0.8640
 9812TIP3   OH250850   4.974   2.025   4.290 -0.4271  0.4188 -0.2911
 9812TIP3    H150851   4.997   1.942   4.333  0.3895 -0.1015 -1.6454
 9812TIP3    H250852   4.986   2.007   4.196 -1.8565  1.5798 -0.7429
 9813TIP3   OH250853   6.908   3.396   0.315 -0.2411 -0.2687  1.1467
 9813TIP3    H150854   6.847   3.321   0.309  0.3412 -1.1227  4.0472
 9813TIP3    H250855   6.995   3.356   0.309  0.0684  0.5954 -0.2658
 9814TIP3   OH250856   2.883   3.835   3.134 -0.2697 -0.6923 -0.1309
 9814TIP3    H150857   2.967   3.841   3.180 -0.5518  0.6443  0.2654
 9814TIP3    H250858   2.828   3.900   3.177 -0.4299  0.9299 -2.6036
 9815TIP3   OH250859   1.625   2.540  10.601  0.2527 -0.4520 -0.5557
 9815TIP3    H150860   1.531   2.535  10.620  0.2103 -0.7614 -0.8490
 9815TIP3    H250861   1.638   2.629  10.567  0.1600 -0.2290 -0.0249
 9816TIP3   OH250862   3.658   0.835   3.128  0.0603  0.7666  0.1502
 9816TIP3    H150863   3.693   0.864   3.044  2.4230  0.8270  1.0822
 9816TIP3    H250864   3.566   0.858   3.125  0.0707  0.7260 -2.4241
 9817TIP3   OH250865   6.787   1.611   2.045 -0.0183  0.5530 -0.0604
 9817TIP3    H150866   6.858   1.609   1.980  0.9638 -4.0485  0.8369
 9817TIP3    H250867   6.717   1.560   2.005 -1.7696  2.5554  0.2891
 9818TIP3   OH250868   0.990   6.144   3.418 -0.6889  0.4284  0.1492
 9818TIP3    H150869   0.960   6.137   3.327  0.1208 -3.6926  0.0034
 9818TIP3    H250870   1.085   6.154   3.410 -0.5841 -0.2462  0.5172
 9819TIP3   OH250871   2.730   6.629  15.092 -0.2594  0.2452  0.7248
 9819TIP3    H150872   2.716   6.668  15.178  1.8010  0.4351  1.0293
 9819TIP3    H250873   2.706   6.537  15.102 -2.2125  0.7210  0.8343
 9820TIP3   OH250874   1.528   2.845   2.081 -0.3198 -0.4510 -0.3430
 9820TIP3    H150875   1.458   2.786   2.110 -1.2363 -0.1105 -1.7631
 9820TIP3    H250876   1.488   2.932   2.080  1.2570  0.4352  2.5871
 9821TIP3   OH250877   0.659   3.494  10.963 -0.3818  0.1253  0.0148
 9821TIP3    H150878   0.691   3.419  11.012  0.7695  0.0398 -0.8229
 9821TIP3    H250879   0.728   3.512  10.899 -0.6057  1.9181  0.2152
 9822TIP3   OH250880   3.080   4.756  11.457  0.9569  0.2390 -0.0967
 9822TIP3    H150881   3.010   4.821  11.458  1.4854  0.8934 -1.8271
 9822TIP3    H250882   3.135   4.781  11.382  2.0349 -1.3002  0.1313
 9823TIP3   OH250883   2.335   6.288   5.459  0.1933  0.4555  0.1062
 9823TIP3    H150884   2.357   6.212   5.406  0.8453 -0.3588  1.5009
 9823TIP3    H250885   2.357   6.263   5.549 -1.1556  1.6673  0.8371
 9824TIP3   OH250886   5.641   4.245  12.990  0.2643 -0.2954  0.4241
 9824TIP3    H150887   5.709   4.182  13.012  0.0229 -0.7761 -0.1756
 9824TIP3    H250888   5.586   4.249  13.068 -0.4605 -1.8247  0.0283
 9825TIP3   OH250889   4.147   3.546  12.114 -0.1063 -0.1522 -0.3152
 9825TIP3    H150890   4.153   3.452  12.132  0.7661 -0.1029 -0.2741
 9825TIP3    H250891   4.128   3.585  12.199  0.4625 -0.2171 -0.1551
 9826TIP3   OH250892   5.505   0.648  14.643 -0.1607  0.3713 -0.7141
 9826TIP3    H150893   5.538   0.723  14.594 -2.6801  2.4591  0.5263
 9826TIP3    H250894   5.494   0.579  14.577  1.6241  1.2411 -2.0075
 9827TIP3   OH250895   3.622   1.677   4.282 -0.2548  0.2206  0.4787
 9827TIP3    H150896   3.667   1.686   4.366  0.1574  0.5931  0.2179
 9827TIP3    H250897   3.571   1.596   4.291  2.0459 -1.3851  0.0507
 9828TIP3   OH250898   0.697   1.792  11.162  0.0155 -0.0013  0.5138
 9828TIP3    H150899   0.654   1.730  11.103 -1.2339  0.0955  1.2879
 9828TIP3    H250900   0.725   1.864  11.105 -1.7531  0.4030  0.1161
 9829TIP3   OH250901   6.450   0.424  10.078  0.6776  0.1074 -0.0494
 9829TIP3    H150902   6.505   0.464  10.011  1.8619 -1.4786 -0.0716
 9829TIP3    H250903   6.376   0.387  10.030  1.2722 -0.5969 -0.4341
 9830TIP3   OH250904   5.853   5.848  13.575  0.0224  0.3374  0.0046
 9830TIP3    H150905   5.891   5.906  13.641 -0.3304  1.3421 -0.6473
 9830TIP3    H250906   5.778   5.897  13.540 -0.3905 -0.5818 -0.4529
 9831TIP3   OH250907   2.089   2.972   1.224  0.0978  0.2861  0.3386
 9831TIP3    H150908   2.018   2.924   1.267 -0.7222  0.0356 -1.2297
 9831TIP3    H250909   2.110   3.042   1.285  0.6242 -1.4107  2.2236
 9832TIP3   OH250910   3.509   6.458  14.911  0.3606 -0.3347 -0.1985
 9832TIP3    H150911   3.475   6.374  14.881  1.5717 -0.6147 -0.8603
 9832TIP3    H250912   3.546   6.439  14.997 -3.5885  0.5792  1.9563
 9833TIP3   OH250913   2.963   0.314   0.375  0.0842 -0.0192  0.0790
 9833TIP3    H150914   2.881   0.314   0.326 -0.1092  1.1269  0.3775
 9833TIP3    H250915   2.970   0.225   0.409 -0.9909 -0.1647 -0.0356
 9834TIP3   OH250916   6.583   4.243   3.705  0.2855  0.0269  0.2578
 9834TIP3    H150917   6.633   4.228   3.785 -0.4826 -0.0427  0.7405
 9834TIP3    H250918   6.520   4.311   3.729  0.3609  0.3393 -0.4253
 9835TIP3   OH250919   6.531   7.018  11.324 -0.6020  0.4110  0.2219
 9835TIP3    H150920   6.452   7.047  11.371 -0.5325 -0.9368  1.2324
 9835TIP3    H250921   6.524   7.059  11.238 -1.9406  1.0525  0.6025
 9836TIP3   OH250922   5.483   5.227   5.451 -0.0188  0.3198 -0.6822
 9836TIP3    H150923   5.555   5.171   5.480 -0.0689  1.2059  1.3622
 9836TIP3    H250924   5.410   5.167   5.439  0.5238 -0.3346 -0.8199
 9837TIP3   OH250925   1.009   6.571  11.016  0.5736 -0.1688 -0.1229
 9837TIP3    H150926   0.920   6.537  11.009 -0.0375  1.2745  0.2491
 9837TIP3    H250927   1.042   6.536  11.098  0.0651 -0.1199  0.1055
 9838TIP3   OH250928   2.398   4.791   3.756  0.4264 -0.4895  0.1574
 9838TIP3    H150929   2.484   4.827   3.778  0.0638  0.2620  0.4089
 9838TIP3    H250930   2.343   4.815   3.831 -0.4856  0.8385 -0.8952
 9839TIP3   OH250931   3.267   4.911   2.671  0.0435  0.1349  0.1664
 9839TIP3    H150932   3.306   4.982   2.722 -1.0932  0.2744  0.8741
 9839TIP3    H250933   3.334   4.843   2.667 -0.1415 -0.2595  2.6611
 9840TIP3   OH250934   3.303   5.268   3.710  0.7691  0.2985  0.1552
 9840TIP3    H150935   3.319   5.305   3.624 -0.8620  1.1311  0.1743
 9840TIP3    H250936   3.305   5.343   3.770 -1.5758  0.2967  0.3269
 9841TIP3   OH250937   0.886   0.060  12.660 -0.0674  0.2619  0.1587
 9841TIP3    H150938   0.802   0.014  12.654 -0.0737  0.3535 -0.4851
 9841TIP3    H250939   0.889   0.092  12.750 -0.2750 -0.5841  0.4713
 9842TIP3   OH250940   5.878   5.202  14.869 -0.0531  0.5341 -0.0799
 9842TIP3    H150941   5.924   5.122  14.895 -1.8369 -0.2573  0.8226
 9842TIP3    H250942   5.913   5.269  14.927 -0.6700 -0.2512  1.2530
 9843TIP3   OH250943   1.240   4.684   2.082 -0.0923 -0.6204 -0.3582
 9843TIP3    H150944   1.252   4.731   2.000 -2.1139  0.0929 -0.2921
 9843TIP3    H250945   1.180   4.613   2.060  0.7090 -1.4750  0.1542
 9844TIP3   OH250946   4.163   0.376  15.422 -0.3991 -0.0179 -0.1540
 9844TIP3    H150947   4.183   0.293  15.378  1.6604  0.4441 -0.1876
 9844TIP3    H250948   4.113   0.426  15.357 -1.8822 -1.2754 -0.0491
 9845TIP3   OH250949   3.272   5.920  14.303 -0.8394  0.1379  0.6845
 9845TIP3    H150950   3.346   5.864  14.328 -0.0181  0.7352 -0.3373
 9845TIP3    H250951   3.203   5.897  14.365  0.1147 -0.6190  1.5039
 9846TIP3   OH250952   5.375   6.667  12.227 -0.0174  0.0703  0.6184
 9846TIP3    H150953   5.281   6.674  12.211  0.2481  1.3806 -0.6099
 9846TIP3    H250954   5.382   6.631  12.315 -1.6621 -0.6496  0.4898
 9847TIP3   OH250955   2.029   3.804  14.807 -0.2245 -0.0330 -0.1183
 9847TIP3    H150956   2.035   3.758  14.723  0.4911  0.6642 -0.4600
 9847TIP3    H250957   2.028   3.733  14.872  0.7590 -0.5520 -0.6423
 9848TIP3   OH250958   4.576   6.020  10.729  0.4935  0.3711 -0.2072
 9848TIP3    H150959   4.655   6.074  10.722 -0.2642  1.6648  0.7303
 9848TIP3    H250960   4.541   6.040  10.816 -1.3089  0.4653 -0.9075
 9849TIP3   OH250961   5.933   2.244   0.212 -0.2075 -0.4950  0.2936
 9849TIP3    H150962   5.938   2.280   0.301 -0.2405 -2.2090  1.0223
 9849TIP3    H250963   6.018   2.205   0.197  1.0709  2.6754 -1.8172
 9850TIP3   OH250964   4.468   6.774   5.356 -0.8023  0.2600 -0.4034
 9850TIP3    H150965   4.388   6.758   5.307 -0.5244  0.8398 -1.0675
 9850TIP3    H250966   4.452   6.735   5.442 -0.1400 -3.6261 -1.8386
 9851TIP3   OH250967   4.010   6.948   5.000  0.0168 -0.5114 -0.3605
 9851TIP3    H150968   4.055   7.023   5.037 -1.6587  0.2332  0.2802
 9851TIP3    H250969   3.919   6.957   5.031 -0.5436 -2.0089 -1.4525
 9852TIP3   OH250970   4.073   6.004  10.111 -0.4089 -0.0089 -0.2531
 9852TIP3    H150971   4.124   5.976  10.036 -2.3278 -0.5648 -1.4140
 9852TIP3    H250972   4.004   6.060  10.075 -1.9797 -1.0773  0.9044
 9853TIP3   OH250973   3.965   0.529  15.038  0.5672  0.0353 -0.0602
 9853TIP3    H150974   4.047   0.546  14.990 -0.1255 -1.2089 -1.7759
 9853TIP3    H250975   3.919   0.613  15.038  1.5859  0.6160  0.4661
 9854TIP3   OH250976   4.738   2.770  13.720  0.7759  0.4014 -0.0040
 9854TIP3    H150977   4.826   2.760  13.754  0.7872 -1.6844 -0.5298
 9854TIP3    H250978   4.684   2.789  13.797  1.1182 -2.2018  0.9751
 9855TIP3   OH250979   0.874   3.525   4.002 -0.2244 -0.2111 -0.1705
 9855TIP3    H150980   0.794   3.577   4.004  0.2376  0.5169  2.1366
 9855TIP3    H250981   0.906   3.526   4.092  0.8975 -2.8522 -0.4383
 9856TIP3   OH250982   2.916   0.967   0.013 -0.7125  0.2488  0.5336
 9856TIP3    H150983   2.857   0.919   0.071 -0.2826 -2.4192 -1.0383
 9856TIP3    H250984   2.984   0.903  -0.009  1.3016  2.3851  0.1790
 9857TIP3   OH250985   1.147   6.506  13.728  0.3799  0.0719  0.1243
 9857TIP3    H150986   1.214   6.526  13.793 -1.2837 -0.5207  2.1122
 9857TIP3    H250987   1.159   6.413  13.708  0.8128  0.2247 -0.3535
 9858TIP3   OH250988   3.921   3.893   4.577 -0.3508 -0.0583 -0.1071
 9858TIP3    H150989   3.951   3.806   4.549  0.1626  0.1100 -0.0850
 9858TIP3    H250990   3.996   3.931   4.622  0.8148  1.8911 -3.3663
 9859TIP3   OH250991   1.842   2.900   2.744 -0.3468  0.2356  0.2368
 9859TIP3    H150992   1.900   2.828   2.769  1.0506  1.4796  0.7946
 9859TIP3    H250993   1.856   2.910   2.650 -1.0325 -0.6195  0.0399
 9860TIP3   OH250994   1.729   6.379  14.550 -0.0567  0.4609 -0.0780
 9860TIP3    H150995   1.778   6.319  14.492 -1.5118 -0.5580 -0.2925
 9860TIP3    H250996   1.798   6.426  14.598  1.1571 -0.1242 -1.1570
 9861TIP3   OH250997   3.445   6.935  10.169  0.2640 -0.1578 -0.1685
 9861TIP3    H150998   3.495   7.000  10.217 -2.1275  1.9015 -0.2367
 9861TIP3    H250999   3.417   6.980  10.089 -0.3657 -1.7013 -0.8606
 9862TIP3   OH251000   3.848   0.820   4.431  0.9562 -0.2088  0.6641
 9862TIP3    H151001   3.813   0.824   4.519  2.0361 -1.7613  1.2091
 9862TIP3    H251002   3.933   0.864   4.437  1.0563 -0.3656  0.4249
 9863TIP3   OH251003   3.661   1.177   2.733 -0.1838  0.0050 -0.7223
 9863TIP3    H151004   3.744   1.129   2.734  0.5827  1.1134  2.6732
 9863TIP3    H251005   3.595   1.111   2.755  0.0984 -0.4571 -1.2379
 9864TIP3   OH251006   5.328   1.965   1.309 -0.3931  0.4493  0.1052
 9864TIP3    H151007   5.329   1.982   1.403  4.0528 -1.0030  0.5499
 9864TIP3    H251008   5.382   2.036   1.272  1.0130 -0.9853 -0.7328
 9865TIP3   OH251009   2.720   4.882   4.325 -0.2054 -0.3155 -0.4677
 9865TIP3    H151010   2.665   4.829   4.382 -0.2883 -0.2116 -0.4492
 9865TIP3    H251011   2.698   4.853   4.236 -0.2888 -0.2760 -0.4602
 9866TIP3   OH251012   5.258   5.872  14.948 -0.0200 -0.3812  0.1188
 9866TIP3    H151013   5.352   5.883  14.933  0.1292  0.5423  1.5032
 9866TIP3    H251014   5.218   5.890  14.863  0.8120  3.2940  0.3381
 9867TIP3   OH251015   6.770   4.169  15.649 -0.2685  0.3001 -0.2290
 9867TIP3    H151016   6.705   4.204  15.589 -0.4612 -0.4939 -0.4933
 9867TIP3    H251017   6.754   4.214  15.732  0.1088  1.5292 -0.7974
 9868TIP3   OH251018   4.777   6.734   3.174  0.0212  0.5172 -0.9991
 9868TIP3    H151019   4.732   6.813   3.204  0.2311  1.1352 -2.2422
 9868TIP3    H251020   4.708   6.684   3.129  0.0988  0.4394 -1.0303
 9869TIP3   OH251021   1.797   2.881   3.418  0.6970  0.4525  0.2571
 9869TIP3    H151022   1.797   2.786   3.401  0.2642  0.7046 -1.3040
 9869TIP3    H251023   1.772   2.920   3.334  0.7467  1.9532  0.9178
 9870TIP3   OH251024   5.475   6.300  14.061  0.3455  0.1925  0.1624
 9870TIP3    H151025   5.427   6.230  14.018 -0.4461  0.7112  0.1783
 9870TIP3    H251026   5.502   6.263  14.145  0.8378 -0.4221 -0.2573
 9871TIP3   OH251027   2.219   6.361  10.073  0.1017 -0.0295  0.1581
 9871TIP3    H151028   2.241   6.445  10.033 -2.7989  0.6859 -0.1652
 9871TIP3    H251029   2.190   6.383  10.162  1.3747 -0.9813  0.8455
 9872TIP3   OH251030   0.807   3.003   3.635 -0.1727  0.0142 -0.3331
 9872TIP3    H151031   0.737   2.947   3.668 -0.4879  0.3181 -0.4743
 9872TIP3    H251032   0.765   3.056   3.567  0.5724 -0.9396 -1.5800
 9873TIP3   OH251033   0.383   6.431  11.280 -0.0217  0.0647  0.1740
 9873TIP3    H151034   0.412   6.521  11.262  1.2074 -0.3831 -0.1820
 9873TIP3    H251035   0.440   6.402  11.352 -0.1630 -0.5575  0.0355
 9874TIP3   OH251036   0.139   0.615   5.847  0.2630 -0.4086 -0.7020
 9874TIP3    H151037   0.191   0.592   5.771  1.3464 -0.3782  0.0055
 9874TIP3    H251038   0.126   0.710   5.840 -0.9475 -0.6268 -1.6287
 9875TIP3   OH251039   6.294   0.842   0.254 -0.0648  0.2470  0.1805
 9875TIP3    H151040   6.330   0.771   0.308 -0.2104  0.2624  0.3007
 9875TIP3    H251041   6.317   0.819   0.164  1.1089  0.7604  0.3332
 9876TIP3   OH251042   2.606   0.571  10.485 -0.0519  0.4369 -0.0363
 9876TIP3    H151043   2.631   0.657  10.451 -1.0273  0.8339  0.2189
 9876TIP3    H251044   2.517   0.558  10.454  0.5633 -1.1387 -1.2936
 9877TIP3   OH251045   3.155   6.754  14.250 -0.1377  0.4815 -0.4918
 9877TIP3    H151046   3.241   6.783  14.282  0.3383 -0.1150 -1.1959
 9877TIP3    H251047   3.101   6.749  14.329  1.1495 -1.4535  0.3508
 9878TIP3   OH251048   4.093   5.844   5.643  0.2889  0.3778  0.7687
 9878TIP3    H151049   4.005   5.808   5.630  0.1906  0.6827  0.5964
 9878TIP3    H251050   4.112   5.828   5.736  0.9570 -1.7139  0.3397
 9879TIP3   OH251051   0.863   0.545  14.474 -0.4934  0.5961  0.2012
 9879TIP3    H151052   0.958   0.538  14.463 -0.5318 -0.5727  0.4611
 9879TIP3    H251053   0.835   0.601  14.402  0.2151 -0.2926 -0.7918
 9880TIP3   OH251054   1.606   2.451  12.526 -0.0509 -0.1764  0.2245
 9880TIP3    H151055   1.584   2.389  12.456  3.1221 -0.9080 -0.2572
 9880TIP3    H251056   1.544   2.524  12.513 -1.8444 -1.8130 -1.1096
 9881TIP3   OH251057   3.943   4.402   4.172  0.0532  0.2520  0.0726
 9881TIP3    H151058   3.974   4.312   4.163  1.2980  0.7149 -0.6208
 9881TIP3    H251059   3.931   4.433   4.082 -0.3025  0.7992  0.2977
 9882TIP3   OH251060   5.126   5.570  14.072 -0.0354  0.0957  0.4045
 9882TIP3    H151061   5.200   5.525  14.113  0.4521 -0.9351 -1.4637
 9882TIP3    H251062   5.049   5.519  14.100  0.2454 -0.3874  0.3061
 9883TIP3   OH251063   6.698   0.654  12.312 -0.8911 -0.3062 -0.5457
 9883TIP3    H151064   6.638   0.721  12.279  0.8045 -0.0228 -3.4450
 9883TIP3    H251065   6.668   0.573  12.270  1.3315  0.0638 -3.1755
 9884TIP3   OH251066   4.075   0.822   0.935  0.0386 -0.4233 -0.0359
 9884TIP3    H151067   4.148   0.802   0.877  0.1347 -0.5497  0.1253
 9884TIP3    H251068   4.082   0.915   0.953  0.3831 -0.5097  0.2793
 9885TIP3   OH251069   4.406   5.845  12.230  0.3815  0.9104 -0.0470
 9885TIP3    H151070   4.444   5.910  12.288  0.3041  0.5010  0.4759
 9885TIP3    H251071   4.314   5.870  12.222  0.2814  0.7024  0.3965
 9886TIP3   OH251072   4.881   3.091  14.098  0.1090 -0.2205  0.0247
 9886TIP3    H151073   4.820   3.061  14.165  0.4864 -0.4436  0.2740
 9886TIP3    H251074   4.909   3.178  14.128  0.7672 -0.5894  0.4923
 9887TIP3   OH251075   3.402   0.188   2.401 -0.0163  0.2133 -0.0821
 9887TIP3    H151076   3.374   0.097   2.392  2.2763 -0.6754  1.0275
 9887TIP3    H251077   3.478   0.196   2.344  1.5325  0.5555  1.9162
 9888TIP3   OH251078   1.421   0.701   3.083  0.1081 -0.1800  0.1708
 9888TIP3    H151079   1.461   0.780   3.048 -2.0458  0.9023 -0.0170
 9888TIP3    H251080   1.429   0.710   3.178 -0.6359  0.5729  0.1717
 9889TIP3   OH251081   4.931   3.019  10.747 -0.2256 -0.2123 -0.2505
 9889TIP3    H151082   4.910   2.931  10.717 -2.2599  0.4801 -1.0421
 9889TIP3    H251083   4.894   3.077  10.680  1.0718  1.2734  0.2340
 9890TIP3   OH251084   0.061   1.183   9.700  0.4919 -0.1461  0.3307
 9890TIP3    H151085   0.065   1.094   9.733  0.6018  0.2036  1.2840
 9890TIP3    H251086  -0.012   1.182   9.638 -0.4424 -0.5560  1.4081
 9891TIP3   OH251087   4.911   4.581  11.994  0.3400 -0.2097  0.0043
 9891TIP3    H151088   4.974   4.511  12.011 -0.6563 -1.2469 -0.4309
 9891TIP3    H251089   4.958   4.662  12.015  1.3066 -1.0445  1.1541
 9892TIP3   OH251090   0.436   4.496   0.738 -0.3876  0.2432  0.0357
 9892TIP3    H151091   0.401   4.482   0.651  1.1226  0.1248 -0.5845
 9892TIP3    H251092   0.380   4.444   0.796 -1.3802  0.2947 -0.8526
 9893TIP3   OH251093   2.033   6.757   1.722  0.5646  0.1746  0.4231
 9893TIP3    H151094   1.989   6.808   1.653 -0.6960 -1.5863 -0.1507
 9893TIP3    H251095   2.094   6.700   1.675 -0.5632 -1.2961  0.6691
 9894TIP3   OH251096   1.371   3.684  13.786  0.2721 -0.4827  0.4719
 9894TIP3    H151097   1.300   3.735  13.746  0.1114 -0.6475  0.5465
 9894TIP3    H251098   1.395   3.621  13.718 -1.7563 -2.5069  1.5058
 9895TIP3   OH251099   1.434   0.178   0.118 -0.4110 -0.0486  0.1532
 9895TIP3    H151100   1.482   0.102   0.086 -0.2809  0.0514  0.1096
 9895TIP3    H251101   1.495   0.251   0.108 -0.1671 -0.0988  1.1439
 9896TIP3   OH251102   3.354   1.802  12.802  0.1466 -0.1497  0.2416
 9896TIP3    H151103   3.261   1.780  12.804  0.3585 -1.0794  0.5284
 9896TIP3    H251104   3.363   1.872  12.866 -0.5492  0.8017 -0.6652
 9897TIP3   OH251105   6.633   5.564  12.124 -0.1367 -0.0769 -0.4303
 9897TIP3    H151106   6.598   5.651  12.106 -1.0073  0.2098  2.2232
 9897TIP3    H251107   6.556   5.508  12.130  0.1442 -0.3528  1.0306
 9898TIP3   OH251108   3.174   4.438   5.513  0.5575  0.2292  0.2408
 9898TIP3    H151109   3.198   4.521   5.555  3.8958 -1.4785  2.1800
 9898TIP3    H251110   3.108   4.400   5.571 -2.1154  2.0363 -1.4488
 9899TIP3   OH251111   3.771   4.656  13.044 -0.0400  0.0682 -0.2184
 9899TIP3    H151112   3.794   4.599  12.970 -1.5636  0.5543 -1.1018
 9899TIP3    H251113   3.741   4.737  13.003  0.0959  0.7331  0.9724
 9900TIP3   OH251114   3.953   3.746  15.484 -0.2971 -0.5939 -0.2188
 9900TIP3    H151115   3.947   3.730  15.390 -0.2596 -0.0672 -0.3128
 9900TIP3    H251116   4.032   3.799  15.494 -0.5796 -0.2225  0.0546
 9901TIP3   OH251117   4.460   1.316   3.286  0.4426 -0.0335  0.0340
 9901TIP3    H151118   4.378   1.297   3.332  1.8475  0.4123  2.9614
 9901TIP3    H251119   4.480   1.406   3.311  1.1700  0.3382 -1.7777
 9902TIP3   OH251120   2.093   2.462  12.256 -0.0964  0.2660  0.1438
 9902TIP3    H151121   2.111   2.440  12.165 -1.6320  1.8042 -0.5842
 9902TIP3    H251122   2.073   2.377  12.297  1.3452 -0.5382 -0.7306
 9903TIP3   OH251123   1.055   2.958  11.231  0.2671 -0.2297  0.1639
 9903TIP3    H151124   1.098   3.023  11.286  1.0675  0.6780 -1.4666
 9903TIP3    H251125   1.004   3.010  11.168  0.7541 -1.1657 -1.0383
 9904TIP3   OH251126   4.770   0.722  14.932 -0.1099 -0.2383 -0.3438
 9904TIP3    H151127   4.759   0.817  14.922 -0.9229 -0.0091  2.0365
 9904TIP3    H251128   4.688   0.685  14.900 -0.7865  0.0891  0.9400
 9905TIP3   OH251129   4.154   0.820  15.108 -0.2288  0.0128  0.4011
 9905TIP3    H151130   4.065   0.784  15.102 -0.8317  1.5396 -0.3607
 9905TIP3    H251131   4.207   0.747  15.142 -0.9770 -2.1772 -2.6955
 9906TIP3   OH251132   3.416   6.531  10.616 -0.7408  0.7001  0.3960
 9906TIP3    H151133   3.487   6.580  10.659 -2.3412  2.0628  1.6161
 9906TIP3    H251134   3.409   6.450  10.666  0.5191  0.1099 -0.3166
 9907TIP3   OH251135   5.956   3.082   1.577 -0.3358 -0.2438  0.3914
 9907TIP3    H151136   5.861   3.088   1.580 -0.4249 -1.5937  0.9763
 9907TIP3    H251137   5.974   3.000   1.531  0.5894  0.8021 -1.1919
 9908TIP3   OH251138   6.436   1.123  15.310 -0.2528  0.8650 -0.7895
 9908TIP3    H151139   6.440   1.027  15.313  1.0308  0.9152  2.5620
 9908TIP3    H251140   6.346   1.144  15.335 -0.3730  0.5787 -0.9666
 9909TIP3   OH251141   0.602   2.859   3.782  0.3186 -0.1474  0.2624
 9909TIP3    H151142   0.616   2.769   3.750 -2.6798 -0.2054 -1.2383
 9909TIP3    H251143   0.509   2.862   3.806  1.1414  1.5679  3.9215
 9910TIP3   OH251144   7.064   5.354   1.580 -0.2977  0.2384  0.2581
 9910TIP3    H151145   7.022   5.434   1.549  1.8905  1.2400 -0.3303
 9910TIP3    H251146   7.001   5.284   1.561 -1.8114  1.6821 -0.1972
 9911TIP3   OH251147   3.597   3.636  15.622 -0.0500  0.3278  0.1303
 9911TIP3    H151148   3.602   3.553  15.575 -1.2868  0.1165  0.3395
 9911TIP3    H251149   3.682   3.676  15.608  0.0538 -0.2928 -1.2500
 9912TIP3   OH251150   5.456   5.099   4.686 -0.7696 -0.3523  0.1060
 9912TIP3    H151151   5.406   5.161   4.738  0.0748  0.5648 -0.1425
 9912TIP3    H251152   5.530   5.150   4.653 -1.0861 -0.9798 -1.6990
 9913TIP3   OH251153   1.972   5.199  10.530  0.2360  0.2259  0.3125
 9913TIP3    H151154   2.040   5.134  10.516  0.3897  0.6385 -0.9349
 9913TIP3    H251155   1.922   5.201  10.449  0.8709  2.3792 -0.0939
 9914TIP3   OH251156   1.746   0.888  12.327 -0.1878  0.7638  0.3130
 9914TIP3    H151157   1.728   0.795  12.336  1.5424  0.2817 -0.8035
 9914TIP3    H251158   1.660   0.928  12.313 -0.7721 -0.9139 -1.2397
 9915TIP3   OH251159   2.225   5.170  10.383  0.2349 -0.5488 -0.4461
 9915TIP3    H151160   2.168   5.139  10.311 -0.6687 -0.8582  0.3764
 9915TIP3    H251161   2.201   5.115  10.457  0.2060  0.6488  0.4589
 9916TIP3   OH251162   4.496   0.539  13.918 -0.0616 -0.5695  0.0892
 9916TIP3    H151163   4.458   0.453  13.901 -1.2612 -0.0116 -0.1553
 9916TIP3    H251164   4.424   0.591  13.952  0.5239  0.4869 -0.2218
 9917TIP3   OH251165   5.256   2.240   5.125  0.1443 -0.5858  0.0098
 9917TIP3    H151166   5.203   2.294   5.066  1.8878 -0.1976 -1.2924
 9917TIP3    H251167   5.325   2.299   5.155  2.6951 -2.1934 -2.2270
 9918TIP3   OH251168   3.655   1.606  11.144  0.2376  0.3944  0.3533
 9918TIP3    H151169   3.736   1.655  11.153  1.3594 -1.0856 -1.0516
 9918TIP3    H251170   3.654   1.546  11.219  0.7742 -0.0153  0.0375
 9919TIP3   OH251171   4.905   3.580   9.925  0.2428  0.5658  0.0005
 9919TIP3    H151172   4.885   3.672   9.909  1.2519  1.0244  1.1465
 9919TIP3    H251173   4.993   3.568   9.888  0.6247  0.4113  0.9171
 9920TIP3   OH251174   1.232   3.809  12.353  0.1393  0.0256  0.2494
 9920TIP3    H151175   1.181   3.814  12.271  1.6194 -1.1686 -0.7960
 9920TIP3    H251176   1.247   3.900  12.377 -0.7073  0.4020 -0.5690
 9921TIP3   OH251177   6.256   4.732   3.993  0.9009 -0.5137  0.0745
 9921TIP3    H151178   6.276   4.755   3.903  2.3633 -1.7880  0.0290
 9921TIP3    H251179   6.203   4.805   4.026  1.1648  0.4286 -1.4996
 9922TIP3   OH251180   1.728   0.816   5.960  0.4932 -0.0853  0.4571
 9922TIP3    H151181   1.701   0.728   5.933 -1.6351  1.3387 -2.5527
 9922TIP3    H251182   1.822   0.819   5.940  0.1567 -1.0212 -1.5522
 9923TIP3   OH251183   6.887   6.771   0.701 -0.3164  0.2614  0.4627
 9923TIP3    H151184   6.926   6.743   0.784 -2.1502 -1.2311  0.8991
 9923TIP3    H251185   6.817   6.831   0.726  0.7307  1.8183 -0.2128
 9924TIP3   OH251186   4.356   6.539   0.127  0.0772  0.0131 -0.1463
 9924TIP3    H151187   4.378   6.625   0.092 -1.0273  0.1417 -0.5573
 9924TIP3    H251188   4.343   6.485   0.049 -1.4293  0.0502  0.0502
 9925TIP3   OH251189   4.641   5.671   3.505  0.2566 -0.0718  0.2600
 9925TIP3    H151190   4.625   5.621   3.585  3.3286 -0.2802  0.8693
 9925TIP3    H251191   4.621   5.610   3.434  2.3151 -1.7261  0.9848
 9926TIP3   OH251192   1.762   2.473  12.026 -0.2411  0.2102 -0.4196
 9926TIP3    H151193   1.677   2.497  11.990 -0.8781 -0.2548  0.7144
 9926TIP3    H251194   1.780   2.540  12.091  1.2719  1.4995 -2.0862
 9927TIP3   OH251195   6.824   1.325   2.168  0.4060  0.4916  0.3286
 9927TIP3    H151196   6.875   1.374   2.103  1.5983 -0.1828  0.7249
 9927TIP3    H251197   6.749   1.381   2.187  0.0381  0.7346 -1.5890
 9928TIP3   OH251198   3.094   1.052   1.977 -0.4679  0.1933  0.2877
 9928TIP3    H151199   3.061   0.971   1.939 -3.1929  1.0961  0.4789
 9928TIP3    H251200   3.161   1.082   1.916 -1.1616 -0.9568 -1.0976
 9929TIP3   OH251201   4.301   5.440   4.701 -0.0909 -0.5703  0.8857
 9929TIP3    H151202   4.375   5.489   4.665 -1.4447  0.1564 -1.0987
 9929TIP3    H251203   4.338   5.355   4.723  1.7320  0.3982  1.8099
 9930TIP3   OH251204   4.496   4.869  12.492 -0.2145  0.0398 -0.2573
 9930TIP3    H151205   4.499   4.957  12.530  0.1241  0.2319 -0.7173
 9930TIP3    H251206   4.537   4.813  12.558 -1.4230  0.0371  0.5161
 9931TIP3   OH251207   1.591   6.000   4.312  0.0857 -0.1245 -0.1325
 9931TIP3    H151208   1.645   6.046   4.247 -0.1483 -0.5206 -0.6124
 9931TIP3    H251209   1.508   6.049   4.313  0.6586  0.8815  1.0785
 9932TIP3   OH251210   5.998   4.771   3.722 -0.3548 -0.0576  0.9009
 9932TIP3    H151211   6.076   4.803   3.767  2.0758 -1.6652 -1.8625
 9932TIP3    H251212   5.970   4.845   3.668  2.1641 -0.7768 -1.5919
 9933TIP3   OH251213   1.367   5.812   1.081 -0.2249 -0.1613 -0.1888
 9933TIP3    H151214   1.382   5.724   1.115 -0.1680 -0.7156 -1.5705
 9933TIP3    H251215   1.294   5.801   1.019 -1.6207  1.1622  1.1361
 9934TIP3   OH251216   6.413   5.538   1.804 -0.0431 -0.0648 -0.3154
 9934TIP3    H151217   6.450   5.491   1.729 -0.6682  0.2657 -0.8409
 9934TIP3    H251218   6.405   5.628   1.774  1.2673  0.4277  0.7343
 9935TIP3   OH251219   1.491   3.648  14.254 -0.4511 -0.0133  0.2927
 9935TIP3    H151220   1.428   3.577  14.239 -0.3330 -0.1580  0.4921
 9935TIP3    H251221   1.528   3.665  14.167 -0.1174 -0.5294  0.3326
 9936TIP3   OH251222   3.346   7.015  15.548  0.0427  0.5091  0.4134
 9936TIP3    H151223   3.412   7.055  15.492 -0.2342  0.8600  0.3371
 9936TIP3    H251224   3.321   6.934  15.502 -1.3401  1.5726 -0.7909
 9937TIP3   OH251225   5.041   2.760   2.929 -0.1149 -0.2145  0.4066
 9937TIP3    H151226   5.002   2.845   2.909  1.4614  0.8126  1.5224
 9937TIP3    H251227   5.128   2.764   2.890 -0.6236 -2.0404 -1.0714
 9938TIP3   OH251228   2.685   5.225   0.867  0.3739  0.1095 -0.2100
 9938TIP3    H151229   2.677   5.301   0.926  0.9288 -0.2963  0.4122
 9938TIP3    H251230   2.633   5.157   0.909 -1.9055  0.7281 -1.8531
 9939TIP3   OH251231   4.455   5.392  11.474  0.7280  0.0970  0.2506
 9939TIP3    H151232   4.384   5.406  11.411 -0.6357 -2.2141  1.1401
 9939TIP3    H251233   4.413   5.394  11.559  1.9163 -0.3046  0.8725
 9940TIP3   OH251234   2.892   6.922   2.606  0.4071  0.1233 -0.2877
 9940TIP3    H151235   2.826   6.945   2.540  1.4103  1.2005 -0.9521
 9940TIP3    H251236   2.880   6.988   2.675  0.3020 -0.1373 -0.0535
 9941TIP3   OH251237   6.854   3.152  10.402 -0.3169 -0.3442 -0.1254
 9941TIP3    H151238   6.823   3.077  10.453  1.6172 -1.5156 -0.5471
 9941TIP3    H251239   6.867   3.117  10.313 -1.4024  1.0684 -0.8849
 9942TIP3   OH251240   3.801   6.002  11.997  0.2081  0.1234  0.1736
 9942TIP3    H151241   3.836   5.937  12.058 -0.6288 -2.0626 -1.5395
 9942TIP3    H251242   3.850   6.082  12.017  1.4545 -1.0527  2.2252
 9943TIP3   OH251243   7.020   3.803   1.449  0.3960  0.0030  0.0689
 9943TIP3    H151244   7.011   3.708   1.453  1.0785 -0.0577  0.1863
 9943TIP3    H251245   7.093   3.823   1.507  0.7216  0.5281 -0.5089
 9944TIP3   OH251246   6.775   5.398   0.547  0.1452  0.5093 -0.0728
 9944TIP3    H151247   6.716   5.351   0.605 -0.9086  1.2456 -0.5140
 9944TIP3    H251248   6.817   5.463   0.603  0.5628 -0.0302  0.2469
 9945TIP3   OH251249   5.504   4.753  11.168  0.0027 -0.3765  0.0735
 9945TIP3    H151250   5.517   4.677  11.112  1.8193 -0.8138  1.0122
 9945TIP3    H251251   5.592   4.789  11.182 -0.8399  2.3733 -0.9409
 9946TIP3   OH251252   3.445   6.421   3.591  0.0906 -0.3901  0.0816
 9946TIP3    H151253   3.413   6.508   3.567  0.5653  0.0065  0.8416
 9946TIP3    H251254   3.367   6.365   3.588  0.0393 -0.2973 -1.9418
 9947TIP3   OH251255   0.455   3.919  10.427  0.3729 -0.6196  0.3654
 9947TIP3    H151256   0.422   3.882  10.509  0.4562  0.2864  0.8229
 9947TIP3    H251257   0.529   3.863  10.403 -0.0363 -1.2569  0.5825
 9948TIP3   OH251258   4.310   2.961   0.428 -0.1568 -0.0605  0.2715
 9948TIP3    H151259   4.342   3.050   0.440 -0.1514  0.1846 -1.3962
 9948TIP3    H251260   4.216   2.971   0.412  0.0411 -0.2327 -1.0915
 9949TIP3   OH251261   5.174   3.162   0.464  0.2145 -0.8318 -0.9115
 9949TIP3    H151262   5.105   3.103   0.494  0.5314 -1.4716 -1.3969
 9949TIP3    H251263   5.158   3.172   0.370 -1.1040  1.5945 -0.4987
 9950TIP3   OH251264   1.922   3.381   1.457 -0.0412  0.0966 -0.0231
 9950TIP3    H151265   1.893   3.427   1.535  0.6467  1.3988 -0.4985
 9950TIP3    H251266   1.852   3.319   1.438 -0.6806  0.4683  1.0402
 9951TIP3   OH251267   3.725   5.872  10.877 -0.6547 -1.1485  0.4020
 9951TIP3    H151268   3.774   5.895  10.797  0.3674  0.8718  1.5334
 9951TIP3    H251269   3.637   5.852  10.845 -0.4070  0.0591 -1.2274
 9952TIP3   OH251270   2.166   2.741   1.483 -0.1820 -0.7554 -0.0989
 9952TIP3    H151271   2.155   2.657   1.439  0.8433 -0.4679 -0.9410
 9952TIP3    H251272   2.082   2.787   1.469  0.2575 -0.4878 -2.1855
 9953TIP3   OH251273   0.810   0.184  11.148 -0.5793 -0.0032 -0.6434
 9953TIP3    H151274   0.745   0.171  11.218  0.1633  1.7799  0.4321
 9953TIP3    H251275   0.822   0.278  11.143  1.3764 -0.2436 -1.3444
 9954TIP3   OH251276   6.245   0.890  14.480  0.4656  0.2372 -0.3095
 9954TIP3    H151277   6.158   0.896  14.519  1.0355  1.6340  0.8481
 9954TIP3    H251278   6.240   0.814  14.422 -1.9558  1.1814 -1.4613
 9955TIP3   OH251279   3.807   6.013   1.496 -0.0261 -0.5389  0.2026
 9955TIP3    H151280   3.897   6.026   1.525  0.5651  0.0436 -1.7498
 9955TIP3    H251281   3.753   6.058   1.562  1.1401 -0.3786  1.0679
 9956TIP3   OH251282   4.163   3.411  13.467 -0.1603 -0.3356 -0.5971
 9956TIP3    H151283   4.256   3.413  13.442 -0.0339  0.0754 -0.1049
 9956TIP3    H251284   4.145   3.499  13.500 -1.1665  0.0912 -2.2045
 9957TIP3   OH251285   2.105   6.622  13.432  0.5096 -0.1693 -0.0559
 9957TIP3    H151286   2.160   6.601  13.507  0.4687  1.7140  0.5667
 9957TIP3    H251287   2.031   6.670  13.470 -1.1644 -1.9079 -0.9705
 9958TIP3   OH251288   2.363   0.268   1.247  0.8720  0.0814 -0.1966
 9958TIP3    H151289   2.441   0.241   1.294  1.3720  1.7920  0.0237
 9958TIP3    H251290   2.304   0.302   1.315  0.5762  0.2415 -0.5260
 9959TIP3   OH251291   1.993   6.447   4.588  0.3298 -0.1627 -0.2777
 9959TIP3    H151292   1.954   6.459   4.502  0.8440  0.5151 -0.4257
 9959TIP3    H251293   2.007   6.536   4.621  3.3410 -0.2606 -0.9673
 9960TIP3   OH251294   6.930   2.536  11.080 -0.3176 -0.3728 -1.2446
 9960TIP3    H151295   6.937   2.617  11.030 -0.1821 -0.7688 -1.8802
 9960TIP3    H251296   6.900   2.471  11.017  1.6929 -1.3280 -1.2893
 9961TIP3   OH251297   3.365   5.236   1.130 -0.2078  0.3170  0.0687
 9961TIP3    H151298   3.275   5.265   1.111 -0.5580 -1.2978 -0.9049
 9961TIP3    H251299   3.411   5.247   1.047  0.0868 -0.3226  0.1464
 9962TIP3   OH251300   3.824   1.975   0.571 -0.4447 -0.8644 -0.2075
 9962TIP3    H151301   3.877   2.038   0.619 -1.2683 -0.1284 -0.2257
 9962TIP3    H251302   3.734   1.992   0.600 -1.0172 -0.1991 -2.1704
 9963TIP3   OH251303   1.094   0.902  14.222 -0.2804 -0.1674  0.4569
 9963TIP3    H151304   1.018   0.953  14.252 -0.6062 -0.3284 -0.0815
 9963TIP3    H251305   1.092   0.910  14.126  0.6615  0.2188  0.4595
 9964TIP3   OH251306   0.796   5.456   3.401  0.1090 -0.0588 -0.1918
 9964TIP3    H151307   0.824   5.367   3.378 -0.8681 -0.8372  1.3965
 9964TIP3    H251308   0.700   5.454   3.391  0.1414  1.0835 -0.9338
 9965TIP3   OH251309   3.364   1.748  15.222 -0.0726  0.0734  0.2656
 9965TIP3    H151310   3.382   1.692  15.146  0.9605 -0.4475  0.8846
 9965TIP3    H251311   3.274   1.777  15.208 -0.0774 -0.4173 -0.9052
 9966TIP3   OH251312   4.403   2.070   0.035 -0.4315  0.2513  0.5130
 9966TIP3    H151313   4.407   2.040  -0.056 -2.9880  1.4897 -0.1207
 9966TIP3    H251314   4.463   2.144   0.039  0.4859 -0.4581  0.1347
 9967TIP3   OH251315   3.114   1.133  10.754 -0.1388 -0.0604 -0.3875
 9967TIP3    H151316   3.151   1.221  10.750 -1.2537  0.4637  0.2640
 9967TIP3    H251317   3.180   1.081  10.800  0.0014  0.7329  0.3367
 9968TIP3   OH251318   4.114   4.297   4.473  0.6398 -0.3131  0.2506
 9968TIP3    H151319   4.096   4.390   4.467  0.1087 -0.5173 -2.2803
 9968TIP3    H251320   4.031   4.255   4.452  1.7568 -1.2885 -2.7271
 9969TIP3   OH251321   2.707   2.630  12.753  0.3171 -0.2457 -0.6082
 9969TIP3    H151322   2.768   2.592  12.690  1.4560 -0.9333  0.8627
 9969TIP3    H251323   2.655   2.556  12.784  1.0849 -0.2792  0.6709
 9970TIP3   OH251324   2.043   0.848   1.850 -0.0485  0.3286 -0.3513
 9970TIP3    H151325   2.078   0.760   1.835  3.7233  1.6432 -0.2794
 9970TIP3    H251326   2.027   0.851   1.944 -0.6101 -0.3606 -0.4106
 9971TIP3   OH251327   2.971   3.851   5.666 -0.1962 -0.3334 -0.0114
 9971TIP3    H151328   2.907   3.913   5.702  1.9600  1.9409  0.2382
 9971TIP3    H251329   2.947   3.767   5.705 -2.0687  0.7047  1.2807
 9972TIP3   OH251330   5.992   4.891  15.120  0.0695  0.1180 -0.0687
 9972TIP3    H151331   5.943   4.810  15.130  0.4346 -0.6647 -3.2667
 9972TIP3    H251332   6.078   4.872  15.158 -0.7372  0.1076  1.8687
 9973TIP3   OH251333   1.882   0.177   4.657 -0.7107  0.8248 -0.4363
 9973TIP3    H151334   1.881   0.272   4.644  2.7161  1.5780  2.9812
 9973TIP3    H251335   1.966   0.148   4.621 -1.1319 -0.6833 -0.2699
 9974TIP3   OH251336   0.675   1.863   3.034  0.2108  0.0585 -0.2420
 9974TIP3    H151337   0.758   1.910   3.021  0.1220 -0.0417 -1.2392
 9974TIP3    H251338   0.658   1.821   2.950 -0.1352 -1.0926  0.3813
 9975TIP3   OH251339   5.925   4.091   4.593  0.0943 -0.1260 -0.1339
 9975TIP3    H151340   6.012   4.050   4.592  0.3739  0.3837  1.1969
 9975TIP3    H251341   5.873   4.036   4.651 -0.6290 -0.6887 -1.2859
 9976TIP3   OH251342   6.373   6.130   0.728  0.3483  0.2348 -0.6746
 9976TIP3    H151343   6.336   6.044   0.749 -0.7101  0.4694 -1.4830
 9976TIP3    H251344   6.299   6.190   0.734  1.3154  1.3471  1.1595
 9977TIP3   OH251345   1.625   0.543   9.149  0.8250  0.2643  0.5060
 9977TIP3    H151346   1.545   0.494   9.128  0.6538  0.9136 -0.3654
 9977TIP3    H251347   1.659   0.499   9.227  0.3263 -0.8463  0.1233
 9978TIP3   OH251348   6.224   3.527  13.901 -0.0768  0.1741  0.3139
 9978TIP3    H151349   6.290   3.597  13.896  0.1233 -0.0552 -0.3682
 9978TIP3    H251350   6.144   3.568  13.867 -0.8370  1.0499  2.9295
 9979TIP3   OH251351   7.015   4.738  11.658 -0.0409 -0.3854  0.1951
 9979TIP3    H151352   7.089   4.785  11.620  0.2197 -0.8544  0.1144
 9979TIP3    H251353   6.972   4.695  11.583 -1.4076  1.2389 -0.0092
 9980TIP3   OH251354   5.703   0.607  11.060  0.1170 -0.2763  0.2223
 9980TIP3    H151355   5.705   0.617  11.155  1.7396  1.1186  0.0639
 9980TIP3    H251356   5.733   0.517  11.045 -0.9105 -0.7754  1.0384
 9981TIP3   OH251357   5.738   4.700  14.866  0.3595  0.6805  0.4914
 9981TIP3    H151358   5.686   4.673  14.942 -0.3003  0.8113  0.0956
 9981TIP3    H251359   5.725   4.794  14.860 -0.7663  0.4990 -0.6083
 9982TIP3   OH251360   2.305   2.412  12.878  0.4003  0.7052  0.3395
 9982TIP3    H151361   2.268   2.333  12.917  0.9685  1.5054  2.6611
 9982TIP3    H251362   2.255   2.484  12.916 -1.2191  1.5132 -2.9658
 9983TIP3   OH251363   5.629   6.805  11.570  0.4211  0.4293 -0.2257
 9983TIP3    H151364   5.715   6.773  11.543  0.8005 -1.4858  2.8699
 9983TIP3    H251365   5.574   6.794  11.492  2.2969 -0.9625 -1.4333
 9984TIP3   OH251366   2.820   5.759  10.911 -0.8504  0.1525 -0.2663
 9984TIP3    H151367   2.763   5.755  10.987 -0.1923 -0.8378  0.1887
 9984TIP3    H251368   2.772   5.713  10.842 -0.5116 -0.8880  0.1813
 9985TIP3   OH251369   5.024   1.101  11.064  0.3928 -0.5731 -0.0350
 9985TIP3    H151370   5.010   1.138  11.151 -0.2169 -1.1932  0.1339
 9985TIP3    H251371   4.969   1.023  11.061  0.8111 -0.8544 -0.7893
 9986TIP3   OH251372   2.606   6.145   0.501  0.4825  0.4324 -0.4754
 9986TIP3    H151373   2.581   6.158   0.593  1.0767 -1.0098 -0.0841
 9986TIP3    H251374   2.700   6.128   0.505  0.0048 -2.8107 -0.9747
 9987TIP3   OH251375   0.413   2.133   3.457 -0.2260  0.1413 -0.8851
 9987TIP3    H151376   0.436   2.082   3.380 -0.4737  0.4265 -1.1556
 9987TIP3    H251377   0.436   2.223   3.433 -0.3255  0.2326 -0.6355
 9988TIP3   OH251378   4.565   7.129  13.475 -0.3813 -0.3186  0.1743
 9988TIP3    H151379   4.562   7.219  13.442  0.8440  0.2359  1.5139
 9988TIP3    H251380   4.571   7.138  13.570  1.0848 -1.7815  0.2563
 9989TIP3   OH251381   1.778   2.829   3.692  0.1383 -0.0601  0.1815
 9989TIP3    H151382   1.788   2.852   3.600 -0.3881  0.8126  0.3313
 9989TIP3    H251383   1.840   2.757   3.706  0.2509 -0.1719 -0.8374
 9990TIP3   OH251384   2.161   6.971  13.816  0.4272 -0.3621  0.4457
 9990TIP3    H151385   2.095   6.907  13.843 -0.4239  0.5500  0.5512
 9990TIP3    H251386   2.113   7.053  13.804  1.3165  0.0330 -0.6903
 9991TIP3   OH251387   0.763   3.262   0.338 -0.3939  0.3687 -0.0970
 9991TIP3    H151388   0.755   3.255   0.243 -1.7158  0.4968 -0.0177
 9991TIP3    H251389   0.680   3.301   0.365  0.4100  1.3722  1.0015
 9992TIP3   OH251390   2.761   4.018   9.954  0.0246 -0.1492  0.5074
 9992TIP3    H151391   2.823   3.987  10.020  0.8724 -0.4062 -0.3919
 9992TIP3    H251392   2.749   3.943   9.896 -1.6187 -0.3117  1.0070
 9993TIP3   OH251393   0.665   1.946   9.962  0.5856 -0.4761 -0.0127
 9993TIP3    H151394   0.738   1.978  10.016 -0.7129  0.9900  0.9659
 9993TIP3    H251395   0.658   2.010   9.891  1.8859 -2.0636 -1.6574
 9994TIP3   OH251396   5.520   1.850  10.722 -0.4130  0.3041  0.3078
 9994TIP3    H151397   5.488   1.940  10.711 -0.0263  0.3872 -0.2063
 9994TIP3    H251398   5.546   1.824  10.633  1.4834  0.4472  0.7789
 9995TIP3   OH251399   2.808   2.941  10.681 -0.1113 -0.6574 -0.7136
 9995TIP3    H151400   2.718   2.929  10.653 -0.1244  0.6645 -1.3014
 9995TIP3    H251401   2.835   3.025  10.643  0.8039 -0.1893  0.8658
 9996TIP3   OH251402   3.859   5.148  10.238 -0.9555 -0.0931 -0.5458
 9996TIP3    H151403   3.783   5.101  10.204 -0.2598 -1.5368 -0.1835
 9996TIP3    H251404   3.933   5.089  10.221 -0.3351 -0.1049  1.8722
 9997TIP3   OH251405   2.521   3.435   9.944 -0.3382 -0.0682  0.3247
 9997TIP3    H151406   2.547   3.344   9.954  1.1022  0.0638 -1.7399
 9997TIP3    H251407   2.457   3.434   9.872  0.3001  0.6339 -0.2619
 9998TIP3   OH251408   4.456   3.140  15.068 -0.2035 -0.2714 -0.4518
 9998TIP3    H151409   4.405   3.061  15.051  2.3558 -1.9576 -0.7714
 9998TIP3    H251410   4.446   3.155  15.162  1.2852 -2.5594  0.1578
 9999TIP3   OH251411   5.516   3.916   0.545  0.4210  0.1155 -0.4899
 9999TIP3    H151412   5.447   3.912   0.611  1.8928  2.7095  1.3702
 9999TIP3    H251413   5.469   3.922   0.462 -1.5391 -0.5005  0.5048
10000TIP3   OH251414   1.507   6.564  10.883 -0.0918  1.0513  0.1291
10000TIP3    H151415   1.421   6.522  10.880  0.3172  0.0809  1.2009
10000TIP3    H251416   1.517   6.593  10.974  1.1128  0.2368  0.2900
10001TIP3   OH251417   0.710   6.590   2.369  0.6036 -0.3006  0.5437
10001TIP3    H151418   0.671   6.581   2.281  0.6672  0.2988  0.4462
10001TIP3    H251419   0.779   6.654   2.357  0.5186 -0.1117  1.0648
10002TIP3   OH251420   6.247   5.779  15.504  0.6767 -0.2563  0.8472
10002TIP3    H151421   6.272   5.797  15.594  0.8122 -0.9787  0.9602
10002TIP3    H251422   6.330   5.768  15.458  0.7300  2.5535  0.0659
10003TIP3   OH251423   3.473   3.924  12.198  1.2059 -0.0825 -0.1455
10003TIP3    H151424   3.535   3.996  12.209  0.9389  0.0226  0.7015
10003TIP3    H251425   3.529   3.846  12.191  1.5625  0.3122 -2.3892
10004TIP3   OH251426   4.850   5.606   0.575  0.1594 -0.8957 -0.1791
10004TIP3    H151427   4.761   5.602   0.610 -0.4963  0.6680 -1.5310
10004TIP3    H251428   4.907   5.596   0.652 -1.1819 -1.0958  0.8148
10005TIP3   OH251429   2.986   0.302   3.428 -0.0102 -0.1564  0.2205
10005TIP3    H151430   3.018   0.381   3.472 -0.0929 -0.8666  1.6061
10005TIP3    H251431   2.897   0.325   3.400 -0.0415  0.2469  0.6274
10006TIP3   OH251432   4.384   0.369  11.684  0.3028 -0.1214  0.1149
10006TIP3    H151433   4.408   0.461  11.671  1.7961 -0.5924 -0.7779
10006TIP3    H251434   4.392   0.354  11.778  2.5320  0.0649  0.0004
10007TIP3   OH251435   1.148   4.656   0.771 -0.3272  0.2557  0.2886
10007TIP3    H151436   1.213   4.607   0.821 -0.7219 -0.6666 -0.0945
10007TIP3    H251437   1.083   4.591   0.746 -1.3680  1.1571  0.6004
10008TIP3   OH251438   4.359   2.283  12.272 -0.4093 -0.4418 -0.1845
10008TIP3    H151439   4.271   2.245  12.273 -0.9356  0.7155  0.6693
10008TIP3    H251440   4.391   2.271  12.362  0.1355 -0.4646 -0.3773
10009TIP3   OH251441   2.134   3.217  12.323  0.0050 -0.1380  0.1684
10009TIP3    H151442   2.053   3.168  12.308  0.0635 -0.9307  2.1443
10009TIP3    H251443   2.200   3.150  12.341  0.3725  0.5956  1.7112
10010TIP3   OH251444   6.973   0.479   1.241  0.3338  0.0499  0.2160
10010TIP3    H151445   6.969   0.573   1.259  0.1507  0.3883 -1.3862
10010TIP3    H251446   7.013   0.473   1.154 -1.5350 -1.2151 -0.6261
10011TIP3   OH251447   5.040   3.905  11.555 -0.0499 -0.4566  0.2868
10011TIP3    H151448   4.964   3.853  11.527 -0.3857  0.2327 -0.1210
10011TIP3    H251449   5.093   3.914  11.476 -0.5848  0.7983  0.0389
10012TIP3   OH251450   1.004   2.526  12.595  0.1087  0.2940  0.1792
10012TIP3    H151451   0.943   2.540  12.668 -0.0354  0.8194 -0.0413
10012TIP3    H251452   1.021   2.613  12.560 -0.5945 -0.0281 -1.0466
10013TIP3   OH251453   0.188   1.064  10.206 -0.2918  0.4211  0.1247
10013TIP3    H151454   0.215   0.998  10.142 -1.7634 -0.8113  0.7378
10013TIP3    H251455   0.242   1.141  10.184  0.7589 -0.6419 -1.2197
10014TIP3   OH251456   0.389   2.940   5.239  0.1969 -0.0538  0.0031
10014TIP3    H151457   0.401   3.013   5.300 -1.1407  0.7029 -0.5983
10014TIP3    H251458   0.306   2.900   5.265  0.3118 -0.6053 -0.4512
10015TIP3   OH251459   2.054   6.273   5.272 -0.5039  0.1068  0.2105
10015TIP3    H151460   1.996   6.198   5.287 -0.2149 -0.1660 -0.0416
10015TIP3    H251461   2.082   6.299   5.360 -1.2654  0.4495  0.3615
10016TIP3   OH251462   4.280   0.893  15.528  0.4928 -0.0425  0.5295
10016TIP3    H151463   4.311   0.948  15.600  1.6393 -1.0939  0.8646
10016TIP3    H251464   4.199   0.854  15.561  0.5066  0.2216  0.8803
10017TIP3   OH251465   6.451   1.079   0.083 -0.5992  0.1949 -0.3895
10017TIP3    H151466   6.432   1.098   0.174  2.8579 -0.5742  0.6257
10017TIP3    H251467   6.377   1.025   0.054 -1.2450 -0.5072  2.3022
10018TIP3   OH251468   3.665   3.329  13.341 -0.1096  0.2816  0.5612
10018TIP3    H151469   3.753   3.301  13.366  0.0843 -0.4727 -0.8641
10018TIP3    H251470   3.677   3.374  13.257 -0.8257  2.0733  1.3718
10019TIP3   OH251471   7.036   2.257  15.047 -0.2768 -0.1187  0.4688
10019TIP3    H151472   7.025   2.213  14.963  0.5135  2.4871 -1.1332
10019TIP3    H251473   6.946   2.274  15.077 -0.5797 -0.0519 -0.4494
10020TIP3   OH251474   6.238   6.890   1.211  0.0394 -0.5366  0.1942
10020TIP3    H151475   6.225   6.933   1.126  1.0968 -0.2536  0.1628
10020TIP3    H251476   6.197   6.804   1.201  1.0021 -0.8931 -0.9575
10021TIP3   OH251477   4.819   4.985  14.202  0.3544 -0.3220  0.5195
10021TIP3    H151478   4.758   4.969  14.273  0.4545 -1.0374  0.4619
10021TIP3    H251479   4.848   4.897  14.176  0.8051 -0.0353  0.0280
10022TIP3   OH251480   3.919   2.803   3.324  0.2148  0.1456  0.5151
10022TIP3    H151481   3.930   2.814   3.229  1.7112  1.2469  0.7703
10022TIP3    H251482   3.952   2.885   3.361 -0.3793 -0.2551  1.9950
10023TIP3   OH251483   1.362   1.303   5.646  0.5951 -0.2420 -0.2892
10023TIP3    H151484   1.307   1.321   5.722  1.8533  0.3128  0.5337
10023TIP3    H251485   1.326   1.358   5.577  0.0660  0.0470  0.2052
10024TIP3   OH251486   1.008   0.270  14.985 -0.1634  0.5008  0.3485
10024TIP3    H151487   0.975   0.328  15.054 -1.3617  0.7293 -0.3920
10024TIP3    H251488   0.989   0.316  14.903 -0.9319 -0.8118 -0.2424
10025TIP3   OH251489   0.389   2.477   3.798 -0.1294  0.5318 -0.4017
10025TIP3    H151490   0.480   2.445   3.795 -0.8050 -1.9311  1.6653
10025TIP3    H251491   0.362   2.481   3.706  1.8811  0.8119 -1.0250
10026TIP3   OH251492   4.794   2.970   3.910  0.8378  0.2513  0.5267
10026TIP3    H151493   4.863   2.935   3.854 -1.6459 -0.4261 -2.3748
10026TIP3    H251494   4.770   2.896   3.967  0.8897 -0.2899 -0.1374
10027TIP3   OH251495   5.940   1.224  10.513  0.5159 -0.4228  0.3706
10027TIP3    H151496   5.989   1.223  10.595  1.2487  0.1897 -0.0471
10027TIP3    H251497   5.961   1.309  10.474 -0.7449 -0.2150  0.0882
10028TIP3   OH251498   4.293   4.247   9.916  0.4244 -0.4035 -0.4296
10028TIP3    H151499   4.254   4.164   9.889 -1.0061  0.0219  0.2327
10028TIP3    H251500   4.307   4.238  10.011  0.4918  0.0308 -0.3945
10029TIP3   OH251501   2.762   2.360  10.519  0.1372  0.2683 -0.1071
10029TIP3    H151502   2.843   2.394  10.480 -0.6101  0.0198 -1.9593
10029TIP3    H251503   2.697   2.428  10.505 -0.9813 -1.1313 -2.4608
10030TIP3   OH251504   2.101   0.678  15.043  0.1132  0.2604  0.3698
10030TIP3    H151505   2.101   0.773  15.052 -0.6811  0.3525 -0.4773
10030TIP3    H251506   2.144   0.646  15.123  0.1582  1.3127  0.7792
10031TIP3   OH251507   0.151   2.026  11.028 -0.2941 -0.2215  0.1205
10031TIP3    H151508   0.121   1.999  10.942 -0.1240 -2.8803  0.7953
10031TIP3    H251509   0.071   2.029  11.081 -0.1961 -0.4558  0.2855
10032TIP3   OH251510   0.795   3.194   2.271  0.4114 -0.1545  0.0135
10032TIP3    H151511   0.701   3.202   2.256  0.3247 -0.5146  0.3432
10032TIP3    H251512   0.811   3.247   2.349  0.7819  1.3349 -1.0355
10033TIP3   OH251513   1.326   4.443  15.088  0.5295  0.1723  0.1210
10033TIP3    H151514   1.290   4.361  15.053  0.7853  0.3194 -0.4992
10033TIP3    H251515   1.250   4.500  15.096  0.3903 -0.0345  0.3076
10034TIP3   OH251516   7.009   2.208  10.133 -1.0396 -0.0534 -0.8783
10034TIP3    H151517   7.102   2.228  10.121  0.0885 -2.3466  2.4167
10034TIP3    H251518   6.979   2.179  10.047  2.0662 -1.7192 -1.5570
10035TIP3   OH251519   5.408   6.343   3.529 -0.3057  0.3966 -0.0205
10035TIP3    H151520   5.469   6.383   3.467  2.7063 -0.5700  2.0642
10035TIP3    H251521   5.363   6.417   3.570 -0.7972  1.1360 -1.8186
10036TIP3   OH251522   6.350   1.721  13.529 -0.4427 -0.2321  0.8773
10036TIP3    H151523   6.378   1.780  13.599  0.3426  1.8487 -1.0775
10036TIP3    H251524   6.407   1.644  13.538  0.2074  0.3564  1.9931
10037TIP3   OH251525   1.900   4.469  13.887  0.3116  0.0092  0.3275
10037TIP3    H151526   1.937   4.468  13.975  1.3270  0.8518 -0.0724
10037TIP3    H251527   1.808   4.447  13.900  0.3669  0.4388  1.6401
10038TIP3   OH251528   5.834   3.057   4.308  0.2261 -0.2928  0.2626
10038TIP3    H151529   5.896   3.029   4.241  0.1388  0.4664 -0.1518
10038TIP3    H251530   5.762   3.097   4.259 -0.3804 -0.7615  0.7566
10039TIP3   OH251531   5.653   6.895   9.406 -0.0498  0.1302  0.2978
10039TIP3    H151532   5.661   6.817   9.461  1.8661  0.2982  0.3142
10039TIP3    H251533   5.562   6.893   9.375 -1.4286  0.3341  3.8838
10040TIP3   OH251534   6.212   6.114   1.409  0.1420  0.5524 -0.3335
10040TIP3    H151535   6.177   6.197   1.442  1.8836  0.7999  1.0317
10040TIP3    H251536   6.159   6.047   1.451 -0.4028  0.9441 -0.3839
10041TIP3   OH251537   5.900   0.552  12.519  0.0801 -0.1115 -0.3942
10041TIP3    H151538   5.961   0.577  12.449  0.7943  0.6509  0.4755
10041TIP3    H251539   5.884   0.634  12.566  0.4195 -0.8096  0.9587
10042TIP3   OH251540   2.334   6.397   4.397 -0.7772 -0.7347 -0.0041
10042TIP3    H151541   2.325   6.344   4.318 -0.7784  0.3974 -0.7875
10042TIP3    H251542   2.288   6.347   4.464  0.9518 -2.7052 -0.2006
10043TIP3   OH251543   1.444   4.329   0.940  0.1188 -0.1316 -0.5419
10043TIP3    H151544   1.425   4.361   0.852 -1.3614  0.8800  0.0913
10043TIP3    H251545   1.366   4.279   0.965  0.9482 -1.2791 -0.1664
10044TIP3   OH251546   0.765   5.066  12.113  0.1104 -0.1418  0.5908
10044TIP3    H151547   0.680   5.047  12.153  0.3204  0.5242  1.3987
10044TIP3    H251548   0.813   4.984  12.118 -0.2226 -0.3233  0.8280
10045TIP3   OH251549   6.189   5.391   5.024  0.2242 -0.0259 -0.2650
10045TIP3    H151550   6.283   5.373   5.020  0.2062  0.0855 -1.8112
10045TIP3    H251551   6.164   5.408   4.933 -1.7570 -2.3924 -0.2694
10046TIP3   OH251552   3.482   5.564  13.599 -0.4395  0.2473 -0.1812
10046TIP3    H151553   3.391   5.594  13.591 -0.6451 -0.1941  0.4193
10046TIP3    H251554   3.485   5.484  13.546 -0.7674 -0.4811  0.8531
10047TIP3   OH251555   6.896   0.540   2.044 -0.2331  0.1289  0.0082
10047TIP3    H151556   6.891   0.578   2.131 -0.6920 -0.6803  0.3441
10047TIP3    H251557   6.806   0.543   2.011 -0.2346 -0.4184 -0.0580
10048TIP3   OH251558   3.713   3.734  12.252  0.2667  0.1817 -0.0359
10048TIP3    H151559   3.785   3.752  12.312 -0.0902  0.0030  0.4581
10048TIP3    H251560   3.754   3.720  12.167  0.7280  1.1162  0.0254
10049TIP3   OH251561   3.201   2.440  13.728 -0.4237 -0.4794  0.4210
10049TIP3    H151562   3.172   2.373  13.790 -0.0278 -1.2781 -0.2347
10049TIP3    H251563   3.145   2.516  13.745 -1.5592 -1.3219  0.5036
10050TIP3   OH251564   4.763   0.060   3.875 -0.3214  0.1218  0.2459
10050TIP3    H151565   4.795   0.018   3.796 -1.5898 -2.8295  1.1585
10050TIP3    H251566   4.776   0.154   3.860 -0.5706 -0.3013 -3.4336
10051TIP3   OH251567   0.097   6.428   1.851  0.0289 -0.5392  0.1212
10051TIP3    H151568   0.109   6.491   1.780  2.0562 -1.8155 -0.7980
10051TIP3    H251569   0.027   6.370   1.820 -1.3545  0.7877  0.6649
10052TIP3   OH251570   0.277   1.252  11.394  0.0508  0.3539 -0.8232
10052TIP3    H151571   0.281   1.334  11.445  0.9383 -0.2090  0.0448
10052TIP3    H251572   0.187   1.221  11.407 -0.0743  0.8152 -0.5494
10053TIP3   OH251573   5.402   1.860   0.634  0.1252  0.1491  0.3569
10053TIP3    H151574   5.462   1.868   0.560 -1.3393  1.0484 -0.7986
10053TIP3    H251575   5.390   1.950   0.665 -1.7409  0.1983 -0.3926
10054TIP3   OH251576   0.275   6.659   2.377  0.2047 -0.1217  0.0593
10054TIP3    H151577   0.256   6.568   2.357 -1.1965  0.0762  0.4267
10054TIP3    H251578   0.337   6.655   2.450 -0.5371 -0.7836  0.6742
10055TIP3   OH251579   2.326   3.165  10.178  0.1652  0.4610 -0.0123
10055TIP3    H151580   2.332   3.253  10.217  1.7097  0.4880 -0.2758
10055TIP3    H251581   2.357   3.176  10.088  0.9595 -0.4634  0.1349
10056TIP3   OH251582   1.735   2.623   1.448 -0.3204  0.1424 -0.0952
10056TIP3    H151583   1.717   2.571   1.369  1.0788  0.0930 -0.4151
10056TIP3    H251584   1.774   2.561   1.509 -1.0694  0.2619  0.5187
10057TIP3   OH251585   3.191   6.854  13.726 -0.2645  0.3568 -0.0129
10057TIP3    H151586   3.141   6.773  13.715  0.1325  0.1112 -0.0362
10057TIP3    H251587   3.251   6.855  13.651  0.3681  0.2049  0.4864
10058TIP3   OH251588   1.421   4.287  12.467  0.8520 -0.0878  0.1075
10058TIP3    H151589   1.344   4.273  12.521  1.1558  0.5779  0.7395
10058TIP3    H251590   1.495   4.274  12.526  1.2206 -0.5487 -0.4477
10059TIP3   OH251591   5.407   5.140  12.635  0.4280  0.1117  0.0760
10059TIP3    H151592   5.322   5.183  12.630  0.1422 -0.3176  1.0875
10059TIP3    H251593   5.389   5.049  12.612  0.8571  0.2832 -1.0320
10060TIP3   OH251594   6.609   6.371  14.405 -0.6329  0.0083  0.0900
10060TIP3    H151595   6.699   6.343  14.392  0.1269  2.0629  0.5429
10060TIP3    H251596   6.579   6.398  14.318 -0.2739  0.7198  0.1753
10061TIP3   OH251597   2.636   1.500  14.762 -0.6566 -0.3279  0.2333
10061TIP3    H151598   2.661   1.478  14.852 -0.0972 -1.0975 -0.1030
10061TIP3    H251599   2.619   1.416  14.720 -0.8565  0.0198 -0.3965
10062TIP3   OH251600   4.534   0.351   4.853 -0.0282  0.2316  0.3980
10062TIP3    H151601   4.579   0.427   4.814 -0.8692  0.4482 -0.1841
10062TIP3    H251602   4.599   0.281   4.851  0.7731  0.9304  0.9585
10063TIP3   OH251603   1.926   6.510   5.565 -0.4836 -0.1764  1.1723
10063TIP3    H151604   1.932   6.593   5.518  2.1902 -1.7194 -1.5812
10063TIP3    H251605   1.840   6.475   5.540 -0.3839  0.4228 -0.0740
10064TIP3   OH251606   4.076   2.189   4.983  0.4713 -0.3148  0.0049
10064TIP3    H151607   4.030   2.149   5.057 -0.2374 -0.9230 -0.7503
10064TIP3    H251608   4.022   2.264   4.959  0.1799 -0.6780 -0.4983
10065TIP3   OH251609   2.609   6.707  10.206  0.0909  0.0505  0.8765
10065TIP3    H151610   2.648   6.693  10.292  2.9536  2.0770  0.0692
10065TIP3    H251611   2.560   6.789  10.215 -1.5124 -0.8803  1.0677
10066TIP3   OH251612   4.236   3.303   0.366 -0.5113  0.2817  0.0535
10066TIP3    H151613   4.209   3.365   0.299  3.0765  1.2121 -0.7131
10066TIP3    H251614   4.192   3.333   0.445 -1.5674  1.6638 -0.9925
10067TIP3   OH251615   3.255   4.162  12.391 -0.2235  0.0471 -0.1903
10067TIP3    H151616   3.205   4.155  12.309 -0.4423  0.6550 -0.1103
10067TIP3    H251617   3.218   4.238  12.435 -0.7208 -0.7956  0.8905
10068TIP3   OH251618   6.813   4.767   1.994  0.3355  0.4525 -0.2247
10068TIP3    H151619   6.761   4.717   2.056  0.3991  0.1971 -0.3773
10068TIP3    H251620   6.803   4.721   1.911 -1.3344  1.8784 -0.8843
10069TIP3   OH251621   3.130   2.665  11.856 -0.0021 -0.3797 -0.2379
10069TIP3    H151622   3.111   2.758  11.869 -1.4056 -0.7668  0.6746
10069TIP3    H251623   3.099   2.647  11.767  2.1054  0.4437 -1.1829
10070TIP3   OH251624   3.346   2.347  11.747  0.0605  0.2899  0.1940
10070TIP3    H151625   3.253   2.359  11.768  0.0598  2.3640 -0.7670
10070TIP3    H251626   3.345   2.294  11.667 -0.3456  0.8479 -0.1810
10071TIP3   OH251627   6.138   1.293  14.507 -0.7271 -0.0084 -0.3296
10071TIP3    H151628   6.130   1.296  14.412 -1.9173 -1.7438 -0.3570
10071TIP3    H251629   6.224   1.254  14.523 -0.9350 -0.6695 -0.7530
10072TIP3   OH251630   7.036   0.576   3.332 -0.6870  0.3152  0.0222
10072TIP3    H151631   7.045   0.588   3.427  0.1665 -0.4972  0.0521
10072TIP3    H251632   7.124   0.587   3.297 -0.8271 -0.3146 -0.5618
10073TIP3   OH251633   6.030   3.608  10.563 -0.2384  0.4315  0.3336
10073TIP3    H151634   6.024   3.513  10.552 -0.4585  0.2400  1.8785
10073TIP3    H251635   6.104   3.634  10.508  2.4455 -1.2339  2.8063
10074TIP3   OH251636   3.352   1.835  13.742 -0.6090 -0.3201 -0.0335
10074TIP3    H151637   3.377   1.771  13.675 -2.1765 -1.2045  0.1746
10074TIP3    H251638   3.425   1.896  13.745 -0.0653 -0.7999 -1.8684
10075TIP3   OH251639   6.691   3.693  14.271 -0.4481 -0.1678 -0.1757
10075TIP3    H151640   6.615   3.645  14.304 -1.9116  1.4631 -0.9981
10075TIP3    H251641   6.697   3.770  14.327  1.7452 -1.0905  1.0001
10076TIP3   OH251642   3.113   5.262   0.551 -0.5873 -0.0383  0.2642
10076TIP3    H151643   3.026   5.250   0.590 -0.5212 -3.0613 -0.2434
10076TIP3    H251644   3.096   5.264   0.457 -0.1852  0.5118  0.1992
10077TIP3   OH251645   5.002   0.301  11.209 -0.0783 -0.0850 -0.0692
10077TIP3    H151646   5.001   0.379  11.154  0.6866 -0.2660 -0.3469
10077TIP3    H251647   5.059   0.240  11.163 -0.1593 -0.5747  0.4725
10078TIP3   OH251648   0.049   3.917   3.241  0.0635 -0.2539 -0.1307
10078TIP3    H151649   0.104   3.941   3.166  0.9265 -0.0490  0.5467
10078TIP3    H251650   0.014   4.001   3.272  0.5743 -0.2134  0.3444
10079TIP3   OH251651   2.266   2.871   3.278  0.3281  0.5399  0.1635
10079TIP3    H151652   2.301   2.892   3.192  0.1678  0.8186  0.1663
10079TIP3    H251653   2.340   2.831   3.325  0.6397  1.1004  0.1607
10080TIP3   OH251654   4.469   2.719   1.687  0.1162  0.5992 -0.2184
10080TIP3    H151655   4.522   2.655   1.735  0.3518  0.0944 -1.1333
10080TIP3    H251656   4.532   2.778   1.648  0.0428 -0.0071 -1.3192
10081TIP3   OH251657   4.292   4.394   4.298  0.4002  0.5085 -0.1102
10081TIP3    H151658   4.295   4.345   4.216  0.8292 -0.1396  0.2844
10081TIP3    H251659   4.236   4.342   4.355 -0.1476  1.1161 -0.0854
10082TIP3   OH251660   3.782   6.732  11.227  0.4193 -0.3361 -0.1284
10082TIP3    H151661   3.807   6.783  11.150 -1.8252 -1.1956 -1.5334
10082TIP3    H251662   3.852   6.668  11.238  0.6602 -0.3692 -1.6346
10083TIP3   OH251663   5.037   3.368   0.020 -0.0065 -0.4400  0.2720
10083TIP3    H151664   5.001   3.363   0.109 -0.4649  1.9441  0.2663
10083TIP3    H251665   5.084   3.285   0.009 -1.4969 -1.5867  2.0306
10084TIP3   OH251666   6.681   1.850   0.950 -0.0659 -0.1908 -0.7224
10084TIP3    H151667   6.619   1.876   1.018  0.5413 -1.7245  0.4740
10084TIP3    H251668   6.656   1.902   0.873 -0.7066  1.6728  0.6856
10085TIP3   OH251669   1.807   5.625   1.492  0.0909  0.5434 -0.1145
10085TIP3    H151670   1.825   5.595   1.581  0.6929  1.5447  0.1197
10085TIP3    H251671   1.875   5.691   1.475  0.4040 -0.1204 -1.5735
10086TIP3   OH251672   4.528   6.665   0.307  0.2804 -0.0454  0.0391
10086TIP3    H151673   4.575   6.613   0.372  2.3924  1.1309 -0.4631
10086TIP3    H251674   4.512   6.604   0.234  3.1566  0.0105 -0.7550
10087TIP3   OH251675   5.078   2.481  15.525 -0.4709  0.1250  0.8821
10087TIP3    H151676   5.039   2.508  15.441 -0.4834 -0.0587  0.8283
10087TIP3    H251677   5.151   2.542  15.538  1.5160 -1.7243 -0.7961
10088TIP3   OH251678   1.449   6.449  10.120 -0.2637  0.7006  0.4268
10088TIP3    H151679   1.527   6.424  10.169 -1.2007 -1.3640  0.9410
10088TIP3    H251680   1.463   6.413  10.032 -0.9961 -0.4809  0.7729
10089TIP3   OH251681   5.972   2.401  13.774 -0.2741 -0.1756 -0.2416
10089TIP3    H151682   6.034   2.441  13.714 -0.0493  0.3256  0.3227
10089TIP3    H251683   5.913   2.351  13.717 -0.1473  0.3972 -0.8863
10090TIP3   OH251684   4.948   5.624  14.644 -0.6124  0.4021 -0.2127
10090TIP3    H151685   4.855   5.600  14.634  0.1608 -2.6330 -1.4945
10090TIP3    H251686   4.978   5.571  14.717  0.1920  1.1035 -0.0308
10091TIP3   OH251687   1.474   1.350   2.493  0.1108 -0.2054 -0.5753
10091TIP3    H151688   1.395   1.378   2.446  0.1889 -0.3975 -0.8251
10091TIP3    H251689   1.445   1.337   2.583 -0.6095 -2.2345 -1.0619
10092TIP3   OH251690   4.428   3.077  12.818 -0.8027 -0.0113 -0.1789
10092TIP3    H151691   4.415   3.162  12.776  0.1708  0.1959 -0.0857
10092TIP3    H251692   4.347   3.062  12.867 -0.1853  1.9093  1.5904
10093TIP3   OH251693   5.958   1.779   2.214  0.1696 -0.4398  0.5464
10093TIP3    H151694   6.045   1.759   2.249  1.1580  2.1829 -0.2277
10093TIP3    H251695   5.951   1.874   2.219 -2.1126 -0.4778 -0.7354
10094TIP3   OH251696   6.243   1.096   0.329  0.7479 -0.2285 -0.4139
10094TIP3    H151697   6.279   1.009   0.311 -0.8929 -1.2255  0.8399
10094TIP3    H251698   6.266   1.113   0.420 -1.2176 -0.5635  0.1877
10095TIP3   OH251699   4.325   5.856  14.573  0.7425 -0.8613  0.4270
10095TIP3    H151700   4.275   5.925  14.531  2.2320  0.4175  0.6727
10095TIP3    H251701   4.340   5.791  14.504 -0.8245 -1.0572  0.2420
10096TIP3   OH251702   5.064   0.704   6.068  0.1623 -0.3533  0.4398
10096TIP3    H151703   5.016   0.787   6.068  0.7602  0.0132  1.9985
10096TIP3    H251704   5.154   0.728   6.091  0.8855 -1.1791 -1.2751
10097TIP3   OH251705   3.690   5.439   9.821  0.4130  0.1422  0.2670
10097TIP3    H151706   3.705   5.410   9.731  0.0883  0.9400 -0.0557
10097TIP3    H251707   3.770   5.416   9.867  1.0767  0.8339 -0.5161
10098TIP3   OH251708   5.203   6.897   1.456 -0.7919  0.1974  0.0025
10098TIP3    H151709   5.134   6.876   1.393 -1.4160 -1.3945  1.1531
10098TIP3    H251710   5.177   6.982   1.491 -0.5218  1.0360 -1.7194
10099TIP3   OH251711   7.037   3.924   4.039  0.3452 -0.7479 -0.4319
10099TIP3    H151712   7.124   3.900   4.008  0.9399  0.3576  0.2933
10099TIP3    H251713   7.053   3.966   4.124 -0.7411  0.7319 -0.9220
10100TIP3   OH251714   1.319   2.732  11.735  0.0161 -0.6319  0.4492
10100TIP3    H151715   1.310   2.817  11.693  0.3484 -1.0136 -0.4291
10100TIP3    H251716   1.267   2.738  11.815  0.5123  0.5781  0.6843
10101TIP3   OH251717   1.614   4.347  13.644 -0.3165  0.2848  1.1786
10101TIP3    H151718   1.693   4.294  13.634 -1.2943 -1.1423  0.5585
10101TIP3    H251719   1.614   4.376  13.735  1.1487  0.7328  1.0561
10102TIP3   OH251720   6.604   4.065   5.147 -0.1596 -0.3006 -0.3697
10102TIP3    H151721   6.651   4.148   5.141 -0.2780 -0.2606 -0.8579
10102TIP3    H251722   6.670   4.002   5.176  0.4932 -0.4586 -2.0362
10103TIP3   OH251723   0.154   4.914  13.146 -0.6644  0.3927 -0.5127
10103TIP3    H151724   0.072   4.875  13.175 -0.1592  0.1602  0.6664
10103TIP3    H251725   0.133   5.006  13.131 -0.6234  0.9642  2.3137
10104TIP3   OH251726   3.467   5.382   1.879 -0.1940 -0.5892 -0.0144
10104TIP3    H151727   3.375   5.384   1.903 -0.3926 -0.9053 -0.7111
10104TIP3    H251728   3.467   5.368   1.784  0.5643 -0.0512 -0.1028
10105TIP3   OH251729   1.214   5.099  10.611  0.3058  0.8108  0.0508
10105TIP3    H151730   1.201   5.006  10.627 -1.1955  1.0582  0.4269
10105TIP3    H251731   1.136   5.141  10.647  0.6366  2.1548 -0.7138
10106TIP3   OH251732   3.537   6.656   2.596 -0.1993  0.5674  0.5933
10106TIP3    H151733   3.631   6.650   2.582 -0.4837 -0.4548 -1.0838
10106TIP3    H251734   3.501   6.577   2.556 -1.9860  2.0455 -0.9211
10107TIP3   OH251735   0.698   3.300  12.495  0.4586 -0.2540  0.8408
10107TIP3    H151736   0.771   3.263  12.545 -0.8761 -0.1500  2.9969
10107TIP3    H251737   0.655   3.360  12.556 -0.2786  1.2046 -1.0317
10108TIP3   OH251738   2.280   6.659  15.572  0.4650  0.0776 -0.0503
10108TIP3    H151739   2.229   6.600  15.518 -3.1776  1.8168  1.1473
10108TIP3    H251740   2.300   6.609  15.651 -0.4079 -0.3167 -0.0742
10109TIP3   OH251741   5.344   3.542   1.673  0.0064  0.1766 -0.0600
10109TIP3    H151742   5.273   3.594   1.635 -1.3351 -0.4930  1.4173
10109TIP3    H251743   5.314   3.451   1.663  0.6303 -0.1136  0.6482
10110TIP3   OH251744   6.073   2.094   4.206 -0.8912  0.0772  0.0437
10110TIP3    H151745   6.070   2.051   4.121  2.5818 -1.4681  0.5429
10110TIP3    H251746   6.051   2.024   4.268  1.7649 -0.2925  0.6685
10111TIP3   OH251747   2.997   3.941  14.169 -0.1898 -0.3227  0.1333
10111TIP3    H151748   3.009   4.017  14.111  0.6049 -0.2129  0.4247
10111TIP3    H251749   2.903   3.927  14.172 -0.2484 -0.4626 -1.3706
10112TIP3   OH251750   2.837   5.779   3.570 -0.2924 -0.3080  0.0339
10112TIP3    H151751   2.850   5.874   3.564 -0.0428 -0.3245  0.3096
10112TIP3    H251752   2.925   5.742   3.575 -0.2087 -0.7974 -3.1089
10113TIP3   OH251753   5.819   0.122   3.514 -0.1615  0.4815  0.3384
10113TIP3    H151754   5.857   0.044   3.473  0.5195  1.1467 -0.3441
10113TIP3    H251755   5.780   0.090   3.596  2.9086 -0.1145  1.7251
10114TIP3   OH251756   2.738   2.913   3.648 -0.1300  0.9640  0.1691
10114TIP3    H151757   2.695   2.844   3.598 -0.1386  1.9926 -1.2969
10114TIP3    H251758   2.818   2.872   3.682 -0.4119  0.0817 -0.2036
10115TIP3   OH251759   6.102   1.860   2.599  0.2097 -0.2804  0.2145
10115TIP3    H151760   6.137   1.791   2.542 -1.1034 -1.4836  0.7814
10115TIP3    H251761   6.086   1.815   2.682 -0.2465  0.8426  0.7503
10116TIP3   OH251762   3.005   6.883   5.284 -0.1888 -0.4598 -0.6666
10116TIP3    H151763   3.052   6.919   5.359 -1.9146 -2.0329  1.3016
10116TIP3    H251764   2.943   6.951   5.258  0.0468 -0.1023 -0.2896
10117TIP3   OH251765   3.538   1.432  15.208  0.1477  0.0020 -0.1784
10117TIP3    H151766   3.479   1.469  15.143 -1.4817  1.2119  1.8888
10117TIP3    H251767   3.624   1.466  15.183 -0.4905  0.7679 -1.4613
10118TIP3   OH251768   4.666   3.460   2.574  0.0691  0.2437 -0.1853
10118TIP3    H151769   4.703   3.393   2.631  1.1298  0.5326 -0.5080
10118TIP3    H251770   4.717   3.453   2.493  0.6842  1.9006  0.0281
10119TIP3   OH251771   0.183   4.331  11.719 -0.1586  0.3175  0.1571
10119TIP3    H151772   0.117   4.264  11.733  0.2898  0.2473  2.0823
10119TIP3    H251773   0.267   4.286  11.726  0.1554  0.6112 -1.2134
10120TIP3   OH251774   1.589   5.297  10.850 -0.1345  0.6152  0.4291
10120TIP3    H151775   1.576   5.249  10.768  0.0626  0.4971  0.4650
10120TIP3    H251776   1.678   5.331  10.843 -0.2017  0.8010  0.4941
10121TIP3   OH251777   1.349   3.261   1.459  0.6303 -0.4785 -0.2515
10121TIP3    H151778   1.367   3.262   1.365  1.7633 -1.6938 -0.0744
10121TIP3    H251779   1.389   3.180   1.491  0.3112 -0.0725  1.2916
10122TIP3   OH251780   5.630   6.753  14.776 -0.4614 -0.1886  0.5366
10122TIP3    H151781   5.694   6.819  14.749 -1.6711  1.3334  1.1959
10122TIP3    H251782   5.666   6.716  14.857 -0.3319  0.5722  0.8373
10123TIP3   OH251783   5.318   2.062   0.390 -0.0337  0.1579  0.5974
10123TIP3    H151784   5.258   1.988   0.381 -1.3876  1.2978 -0.2762
10123TIP3    H251785   5.405   2.025   0.375 -0.6814 -1.2421  0.1695
10124TIP3   OH251786   4.928   2.754  10.312 -0.3524 -0.1677 -0.0387
10124TIP3    H151787   4.835   2.730  10.302  0.0287 -0.8054 -2.7961
10124TIP3    H251788   4.968   2.728  10.230  2.5415 -0.9086  1.4921
10125TIP3   OH251789   4.104   4.123   2.104  0.3380 -0.1212  0.8430
10125TIP3    H151790   4.176   4.153   2.048  1.4134  1.5519  2.9498
10125TIP3    H251791   4.090   4.032   2.079  2.2231 -0.0693 -0.6237
10126TIP3   OH251792   3.901   4.007   4.888 -0.5917 -0.3056 -0.3688
10126TIP3    H151793   3.888   4.007   4.982 -1.5118  3.6651 -0.2877
10126TIP3    H251794   3.994   3.987   4.876  0.0641  1.2623  1.5966
10127TIP3   OH251795   4.336   1.164  13.474  0.4409 -0.6436 -0.2678
10127TIP3    H151796   4.251   1.178  13.432  0.8738  0.5407 -0.8006
10127TIP3    H251797   4.324   1.196  13.563  0.3717 -0.3066 -0.3957
10128TIP3   OH251798   0.513   4.995   3.973 -0.1900  0.7901 -0.3239
10128TIP3    H151799   0.491   5.018   3.883  1.1394  3.4913 -0.0684
10128TIP3    H251800   0.603   5.027   3.985 -0.0547 -0.1914  1.7253
10129TIP3   OH251801   5.787   5.273  11.403 -0.7607  0.4952 -0.2980
10129TIP3    H151802   5.756   5.357  11.435 -1.5345 -0.1253  0.6228
10129TIP3    H251803   5.708   5.220  11.394 -0.3230 -0.0309 -1.1980
10130TIP3   OH251804   5.440   0.300   0.338  0.5224  0.4194  0.1512
10130TIP3    H151805   5.507   0.232   0.332  0.4313  0.2453  1.0286
10130TIP3    H251806   5.469   0.368   0.276  1.3854  0.2457  0.3602
10131TIP3   OH251807   0.622   1.974  15.382  0.4552 -0.0064 -0.2971
10131TIP3    H151808   0.555   2.041  15.397  0.2471  0.0935 -1.5551
10131TIP3    H251809   0.704   2.016  15.408  0.2388  0.4996 -0.4174
10132TIP3   OH251810   4.090   6.765  14.219  0.7480  0.4834  0.2412
10132TIP3    H151811   4.024   6.782  14.286  1.1589 -0.7230  0.9857
10132TIP3    H251812   4.048   6.793  14.137 -0.3251  0.6248  0.8153
10133TIP3   OH251813   5.636   2.859   3.816  0.0527  0.5478 -0.2725
10133TIP3    H151814   5.669   2.774   3.845 -0.1401  0.3554 -0.6003
10133TIP3    H251815   5.675   2.871   3.730 -0.1021  0.6846 -0.3240
10134TIP3   OH251816   4.860   3.647   2.932  0.3348 -0.2480  0.0234
10134TIP3    H151817   4.819   3.733   2.932  0.2495 -0.2399  2.1995
10134TIP3    H251818   4.793   3.589   2.894 -0.3162  0.3575  0.2143
10135TIP3   OH251819   5.608   4.545   2.486  0.3395 -0.2879 -1.1779
10135TIP3    H151820   5.525   4.532   2.441  0.8454  0.1410 -2.2725
10135TIP3    H251821   5.583   4.569   2.575 -0.6735 -2.2192 -0.9007
10136TIP3   OH251822   2.505   2.600  12.272 -0.0744  0.7746  0.3331
10136TIP3    H151823   2.571   2.590  12.204 -0.4692 -0.0838  0.0728
10136TIP3    H251824   2.542   2.666  12.331 -0.0519  2.0852 -1.0871
10137TIP3   OH251825   0.446   4.010   3.503 -0.1993  0.4852 -0.2270
10137TIP3    H151826   0.419   4.043   3.589 -1.0742  2.0514 -1.0650
10137TIP3    H251827   0.395   3.930   3.491  0.4989 -0.1818  1.0060
10138TIP3   OH251828   5.671   7.013   9.963 -0.2065  0.0440  0.3105
10138TIP3    H151829   5.748   6.960   9.943  1.2546  2.0746  0.1366
10138TIP3    H251830   5.606   6.951   9.996  0.8446 -2.0036 -1.2474
10139TIP3   OH251831   2.726   5.700  15.119 -0.2370 -0.2041  0.4587
10139TIP3    H151832   2.786   5.661  15.056 -0.7787  1.1613 -0.9630
10139TIP3    H251833   2.782   5.737  15.187  0.9980  3.8221 -2.3356
10140TIP3   OH251834   0.750   4.281  15.579  0.3016 -0.1239 -0.1722
10140TIP3    H151835   0.680   4.258  15.517  0.2036  2.3847 -1.1261
10140TIP3    H251836   0.704   4.309  15.658  0.2577  0.0260 -0.2483
10141TIP3   OH251837   4.972   2.317   9.756  0.3286  0.6682  0.7498
10141TIP3    H151838   4.925   2.258   9.815  0.1214 -0.0099 -0.0544
10141TIP3    H251839   5.061   2.282   9.753  0.5597  1.2012  1.3021
10142TIP3   OH251840   6.023   4.531   4.930 -0.0103  0.4481 -0.4697
10142TIP3    H151841   5.978   4.502   4.850  0.6446  0.5276 -0.8788
10142TIP3    H251842   6.068   4.452   4.961  0.0654  0.5153 -0.4088
10143TIP3   OH251843   4.543   0.215   2.632 -0.1090 -0.1345 -0.2215
10143TIP3    H151844   4.493   0.294   2.613 -0.1362 -0.2839 -0.7897
10143TIP3    H251845   4.495   0.173   2.703 -0.0356  0.4084  0.1550
10144TIP3   OH251846   4.762   5.189   1.765  0.4672  0.5237  0.2175
10144TIP3    H151847   4.674   5.168   1.734 -0.2079  1.9071  1.0723
10144TIP3    H251848   4.756   5.180   1.860  1.3009  0.4598  0.2678
10145TIP3   OH251849   1.950   5.981   5.108 -0.4112  0.1791 -0.3935
10145TIP3    H151850   1.944   5.907   5.169 -0.1088  1.1705  0.8820
10145TIP3    H251851   1.864   6.022   5.112 -0.7029 -0.3074 -1.3959
10146TIP3   OH251852   0.788   2.042   2.273 -0.2700  0.0487 -0.1327
10146TIP3    H151853   0.754   2.104   2.209 -2.0422  1.3668  1.9496
10146TIP3    H251854   0.867   2.083   2.308  0.3023 -0.3486 -0.9306
10147TIP3   OH251855   3.149   0.785  15.646 -0.0941  0.4986  0.1993
10147TIP3    H151856   3.190   0.698  15.652  2.3305  1.6560  1.8198
10147TIP3    H251857   3.181   0.821  15.563 -2.6935 -0.7689 -1.5190
10148TIP3   OH251858   6.047   3.239   9.346  0.1318  0.0143  0.5457
10148TIP3    H151859   6.100   3.319   9.347  0.0009  0.0992  1.3141
10148TIP3    H251860   6.078   3.191   9.270 -0.3910  1.1890 -0.4400
10149TIP3   OH251861   2.954   5.953  13.222 -0.0002  0.5655  0.2019
10149TIP3    H151862   2.985   5.863  13.236  0.0982  0.1437 -2.2086
10149TIP3    H251863   2.859   5.947  13.228 -0.0890 -0.0365 -1.2250
10150TIP3   OH251864   1.726   1.234   2.602  0.8697 -0.2064  0.8073
10150TIP3    H151865   1.633   1.216   2.615  0.9112 -0.9432  0.1359
10150TIP3    H251866   1.751   1.288   2.677  0.2753 -1.3489  1.8548
10151TIP3   OH251867   6.659   1.970   4.680 -0.3348  0.1476  0.2890
10151TIP3    H151868   6.594   1.905   4.654 -0.6936  1.0282 -1.1067
10151TIP3    H251869   6.688   2.009   4.597  0.7810  0.9033  1.0141
10152TIP3   OH251870   4.101   0.738  14.620 -0.8295 -0.2092  0.1974
10152TIP3    H151871   4.103   0.807  14.552 -0.6994 -0.7008 -0.3082
10152TIP3    H251872   4.126   0.784  14.700  2.4676 -0.1999 -0.6558
10153TIP3   OH251873   3.219   3.807   3.176  0.6193  0.0690  0.1753
10153TIP3    H151874   3.224   3.797   3.271  0.2620  0.0670  0.1971
10153TIP3    H251875   3.257   3.727   3.141  0.0063 -0.2958  0.3272
10154TIP3   OH251876   1.001   0.277   0.477  0.6170  0.2123 -0.4844
10154TIP3    H151877   0.954   0.360   0.484  0.2477  0.0639 -1.1222
10154TIP3    H251878   1.037   0.277   0.388 -2.6857 -1.9809 -2.0733
10155TIP3   OH251879   0.899   6.646   2.126  0.1187  0.6738  0.2099
10155TIP3    H151880   0.914   6.560   2.087 -0.5320 -0.3652  2.1506
10155TIP3    H251881   0.846   6.692   2.062  0.7783 -0.2145 -1.0230
10156TIP3   OH251882   1.023   3.505  15.555 -0.2047  0.0639 -0.5599
10156TIP3    H151883   0.941   3.503  15.605 -0.1622 -0.2325 -0.5012
10156TIP3    H251884   0.999   3.548  15.472  0.2224  2.6759  0.5807
10157TIP3   OH251885   0.506   1.092  15.629  0.3303  0.1248 -0.0443
10157TIP3    H151886   0.536   1.061  15.544  0.6382  0.6724 -0.1441
10157TIP3    H251887   0.425   1.140  15.611  0.8767  1.0303 -0.1695
10158TIP3   OH251888   2.989   0.230   4.436 -0.4198  0.0371  0.4084
10158TIP3    H151889   2.922   0.164   4.419 -1.2498  0.8384  0.5188
10158TIP3    H251890   3.045   0.192   4.504 -1.8536  0.0922  1.6664
10159TIP3   OH251891   5.140   2.160   1.155 -0.3165 -0.1525  0.2542
10159TIP3    H151892   5.227   2.140   1.119 -0.2280 -0.7330  0.7755
10159TIP3    H251893   5.152   2.244   1.200  0.2551 -0.7423  1.2346
10160TIP3   OH251894   1.676   0.680   9.467  0.5334 -0.5186  0.3674
10160TIP3    H151895   1.663   0.600   9.417  0.5228 -0.0867 -0.3427
10160TIP3    H251896   1.710   0.651   9.551 -0.6307 -1.3466  0.5738
10161TIP3   OH251897   0.345   6.392  15.186  0.5260  0.5602 -0.5187
10161TIP3    H151898   0.320   6.481  15.161 -0.2758  0.4998  0.0340
10161TIP3    H251899   0.412   6.367  15.122  0.7032  1.5269 -0.7245
10162TIP3   OH251900   1.267   4.805  10.640  0.4637 -0.4467  0.3766
10162TIP3    H151901   1.360   4.813  10.619  0.3825 -0.2917  0.0808
10162TIP3    H251902   1.230   4.755  10.567  0.5146 -1.4636  1.0254
10163TIP3   OH251903   6.931   2.079  10.618 -0.1969 -0.5830  0.1293
10163TIP3    H151904   6.945   2.174  10.618 -0.6430 -0.5087 -0.2431
10163TIP3    H251905   6.856   2.067  10.560 -1.2649 -1.0003  1.5492
10164TIP3   OH251906   4.862   2.417   2.905  1.2677 -0.1591 -0.0792
10164TIP3    H151907   4.942   2.370   2.882  1.4699 -0.4871  1.2279
10164TIP3    H251908   4.819   2.362   2.970  0.7338  0.7382  0.3503
10165TIP3   OH251909   1.134   2.399  10.898 -0.2250  0.4869  0.3803
10165TIP3    H151910   1.117   2.305  10.892 -1.4224  0.7506 -0.5991
10165TIP3    H251911   1.181   2.409  10.981 -1.9826 -0.7209  1.5910
10166TIP3   OH251912   2.820   5.932   2.369 -0.6360 -0.3832  0.1522
10166TIP3    H151913   2.819   5.911   2.462  1.5533 -2.6846 -0.2123
10166TIP3    H251914   2.854   6.022   2.365  1.8586 -1.1543  1.5758
10167TIP3   OH251915   2.339   2.154   2.900 -0.6641  0.1507  0.2033
10167TIP3    H151916   2.370   2.231   2.853 -0.2671 -0.1337 -0.0095
10167TIP3    H251917   2.312   2.093   2.831 -0.2529 -0.1957  0.3384
10168TIP3   OH251918   0.094   6.979   4.117  0.0422  0.0486 -0.1597
10168TIP3    H151919   0.033   7.038   4.162 -1.6561 -1.7779  0.0735
10168TIP3    H251920   0.151   6.947   4.186 -1.8056 -1.8373  0.5898
10169TIP3   OH251921   4.769   4.824  11.655 -0.2176 -0.5788 -0.1697
10169TIP3    H151922   4.830   4.895  11.635 -0.4658  0.0558  1.1745
10169TIP3    H251923   4.765   4.772  11.575  3.7770 -1.9357  0.3471
10170TIP3   OH251924   2.965   2.511   0.598 -0.0209 -0.3129  0.1825
10170TIP3    H151925   3.030   2.445   0.573  1.7272  1.3886 -0.0207
10170TIP3    H251926   3.002   2.552   0.676 -0.5580  1.1050 -0.2800
10171TIP3   OH251927   4.216   0.520  14.968 -0.4232 -0.0077 -0.0881
10171TIP3    H151928   4.300   0.560  14.944 -0.8787 -1.1195 -4.2847
10171TIP3    H251929   4.237   0.428  14.984 -0.5221  0.2410  1.6744
10172TIP3   OH251930   0.125   2.351  12.777  0.0321 -0.4555  0.1010
10172TIP3    H151931   0.105   2.350  12.683  0.7606 -0.0907 -0.0644
10172TIP3    H251932   0.040   2.335  12.819 -0.7899  1.7055 -0.5585
10173TIP3   OH251933   0.335   2.653  13.546  0.0630  0.5685 -0.3596
10173TIP3    H151934   0.250   2.691  13.564 -0.3923  0.9952 -3.0209
10173TIP3    H251935   0.396   2.727  13.552 -0.1527  0.8056 -0.9886
10174TIP3   OH251936   1.751   0.931  12.796 -0.4790  0.2547 -0.1534
10174TIP3    H151937   1.702   0.851  12.781  0.3452 -0.7720  2.1226
10174TIP3    H251938   1.835   0.916  12.752 -0.4943  0.0678 -0.1203
10175TIP3   OH251939   1.429   0.649   9.910  0.5723  0.5056 -0.4028
10175TIP3    H151940   1.372   0.574   9.893 -0.4613  1.3237 -0.7079
10175TIP3    H251941   1.415   0.706   9.834 -0.5830  2.1350  0.9587
10176TIP3   OH251942   0.185   4.017  13.815 -0.1729  0.3545 -0.2836
10176TIP3    H151943   0.126   3.973  13.753  1.0811 -2.8266  0.5839
10176TIP3    H251944   0.238   3.946  13.851  1.7261  2.6176  1.6435
10177TIP3   OH251945   6.883   5.732  13.137  0.6661 -0.2544  0.6419
10177TIP3    H151946   6.883   5.809  13.194  0.8425 -1.1857  1.9527
10177TIP3    H251947   6.975   5.714  13.120  0.6018  0.5904 -0.8003
10178TIP3   OH251948   0.194   3.024  12.086  0.0504  0.7091  0.0265
10178TIP3    H151949   0.101   3.003  12.097  0.0054  1.3633  1.0866
10178TIP3    H251950   0.201   3.057  11.997 -0.5111 -0.4069 -0.4582
10179TIP3   OH251951   0.741   3.456   2.849  0.7121 -0.8709 -1.0456
10179TIP3    H151952   0.766   3.518   2.780  0.2514 -0.4496 -0.8348
10179TIP3    H251953   0.776   3.494   2.929 -0.0529 -0.5913 -0.8358
10180TIP3   OH251954   2.461   5.735  14.059 -0.2632 -0.0502 -0.5031
10180TIP3    H151955   2.498   5.660  14.106 -1.7927 -0.5506 -0.0223
10180TIP3    H251956   2.438   5.797  14.129  0.3619  0.5752 -0.8468
10181TIP3   OH251957   5.371   1.715  12.293  1.0352  0.3159  0.0023
10181TIP3    H151958   5.311   1.642  12.279  1.1759 -0.3528  2.3896
10181TIP3    H251959   5.314   1.790  12.311  0.8627 -0.0208  0.9459
10182TIP3   OH251960   4.217   6.725   5.310  0.0280  0.8902  0.3179
10182TIP3    H151961   4.200   6.694   5.221 -0.7129 -0.9969  1.0532
10182TIP3    H251962   4.177   6.811   5.314 -1.2613  0.3750 -0.7595
10183TIP3   OH251963   5.267   3.958  10.383  0.1062 -0.2382 -0.6718
10183TIP3    H151964   5.284   4.028  10.446  0.3553 -0.3266 -0.6384
10183TIP3    H251965   5.240   4.004  10.304  0.0251 -0.1151 -0.5729
10184TIP3   OH251966   4.258   1.900   2.325 -0.2345  0.1983 -0.0882
10184TIP3    H151967   4.186   1.948   2.286 -0.4341  0.4381  0.5677
10184TIP3    H251968   4.294   1.959   2.391 -0.9219 -0.7932  1.2211
10185TIP3   OH251969   3.580   0.420  14.429  0.0197  0.4804  0.0482
10185TIP3    H151970   3.511   0.364  14.395  0.2997  0.7445 -0.9851
10185TIP3    H251971   3.543   0.460  14.507  0.2898 -2.2085  1.6647
10186TIP3   OH251972   1.013   4.618  11.598  0.0373 -0.7124  0.5006
10186TIP3    H151973   1.011   4.523  11.588  1.8426 -0.5894 -1.9275
10186TIP3    H251974   1.082   4.634  11.662 -0.3860 -1.0364  1.0392
10187TIP3   OH251975   3.516   0.465   2.375 -0.1262 -0.2902  0.1166
10187TIP3    H151976   3.448   0.531   2.389  1.3315  0.8306  2.7046
10187TIP3    H251977   3.495   0.396   2.438 -0.8077 -1.6468 -1.5500
10188TIP3   OH251978   5.063   4.299  12.382  0.0384 -0.0548 -0.5025
10188TIP3    H151979   5.018   4.350  12.449  0.5324  1.5502 -1.3235
10188TIP3    H251980   5.152   4.287  12.416 -0.4154 -1.5493  0.2585
10189TIP3   OH251981   6.920   5.970  13.624 -0.3801 -0.7467 -0.2089
10189TIP3    H151982   6.920   5.907  13.696  0.7852  0.6903  1.1411
10189TIP3    H251983   7.013   5.977  13.599 -0.8531 -1.8855 -2.5289
10190TIP3   OH251984   0.783   5.981   2.249 -0.6538 -0.1369 -0.8487
10190TIP3    H151985   0.857   5.928   2.219 -0.6169 -0.0162 -0.9741
10190TIP3    H251986   0.816   6.024   2.329 -0.8617 -0.7102 -0.4516
10191TIP3   OH251987   5.015   3.175  10.981  0.3319 -0.5869  0.1507
10191TIP3    H151988   5.016   3.121  10.902  0.3963 -1.4994  0.7607
10191TIP3    H251989   4.926   3.213  10.983  0.5895  0.1063 -0.7777
10192TIP3   OH251990   5.476   6.749   4.132  0.5774 -0.4227  0.3676
10192TIP3    H151991   5.549   6.734   4.073 -1.2317 -1.6142 -1.7328
10192TIP3    H251992   5.443   6.836   4.109  0.4235 -0.5169  0.2241
10193TIP3   OH251993   2.700   3.061   5.616  0.0263  0.1666  0.8501
10193TIP3    H151994   2.789   3.034   5.590  0.1284  0.1959  1.1692
10193TIP3    H251995   2.714   3.136   5.674 -0.3046  2.4440 -1.7679
10194TIP3   OH251996   3.605   6.950   2.952  0.0134  0.0576  0.2182
10194TIP3    H151997   3.526   6.963   3.005 -1.1014 -0.0908 -1.3514
10194TIP3    H251998   3.630   7.037   2.922 -0.4988 -0.0639 -0.5833
10195TIP3   OH251999   1.495   3.731   2.791 -0.4030  0.3661  0.1110
10195TIP3    H152000   1.520   3.774   2.710  1.9255 -0.2764  0.4049
10195TIP3    H252001   1.544   3.779   2.859 -0.6523 -0.4359  0.8697
10196TIP3   OH252002   0.737   5.384   0.748  0.3507  0.4071 -0.7373
10196TIP3    H152003   0.780   5.467   0.728 -2.4559  2.3494  0.6809
10196TIP3    H252004   0.807   5.329   0.783  2.3041  2.1260 -1.7206
10197TIP3   OH252005   5.869   3.731  15.156  0.3271 -0.1986 -0.2885
10197TIP3    H152006   5.941   3.772  15.205  0.3348 -2.1001  1.3934
10197TIP3    H252007   5.836   3.663  15.214 -1.0117 -1.2335 -2.1676
10198TIP3   OH252008   0.037   4.486   0.849 -0.1430 -0.1293  0.3584
10198TIP3    H152009   0.025   4.467   0.756  1.1366  1.2536 -0.1265
10198TIP3    H252010   0.028   4.581   0.856  1.1249 -0.0536  1.4059
10199TIP3   OH252011   3.833   5.641  14.850  0.0054  0.2904  0.1125
10199TIP3    H152012   3.777   5.695  14.795 -2.8586  0.7937  3.2084
10199TIP3    H252013   3.870   5.703  14.913  1.9041 -0.5031 -0.1617
10200TIP3   OH252014   5.898   1.590   1.148  0.7031 -0.1374  0.4396
10200TIP3    H152015   5.975   1.647   1.153 -0.6573  1.9032 -0.6428
10200TIP3    H252016   5.824   1.646   1.172 -0.7121 -1.4790 -0.5380
10201TIP3   OH252017   0.177   1.947   5.413  0.4869 -0.5075  0.0152
10201TIP3    H152018   0.168   1.939   5.318  1.0974  0.8431 -0.1924
10201TIP3    H252019   0.109   1.891   5.450  0.4629 -1.3087 -1.2088
10202TIP3   OH252020   3.831   1.127  13.464 -0.2402  0.1521  0.7258
10202TIP3    H152021   3.814   1.130  13.558 -1.4725  1.3098  0.5058
10202TIP3    H252022   3.766   1.187  13.426  0.3326 -0.1672 -0.8472
10203TIP3   OH252023   3.330   4.808   4.514  0.2784 -0.0477  0.1778
10203TIP3    H152024   3.361   4.898   4.527 -0.1990  0.0297  0.7864
10203TIP3    H252025   3.399   4.767   4.461 -0.2963  1.1650 -1.6309
10204TIP3   OH252026   1.162   2.915  14.309  0.1328 -0.5033  0.3678
10204TIP3    H152027   1.086   2.858  14.317 -0.5221  0.2047 -0.5702
10204TIP3    H252028   1.124   3.003  14.300  1.1097  0.1159  1.8531
10205TIP3   OH252029   1.223   1.774   0.052  0.1953  0.4483 -0.2077
10205TIP3    H152030   1.269   1.834   0.110 -0.1160  1.3313 -0.8479
10205TIP3    H252031   1.262   1.789  -0.034  0.7073 -0.8966 -0.2317
10206TIP3   OH252032   1.836   5.329  10.750  0.2673  0.4416 -0.0633
10206TIP3    H152033   1.861   5.284  10.669 -1.8749  2.2727 -1.8888
10206TIP3    H252034   1.918   5.364  10.785  1.1931  0.0172 -1.7163
10207TIP3   OH252035   1.280   2.773   2.433  0.3417 -0.1273  0.3364
10207TIP3    H152036   1.249   2.764   2.343 -0.4434  2.2426  0.3074
10207TIP3    H252037   1.223   2.714   2.483 -0.3290 -0.2051 -0.4869
10208TIP3   OH252038   4.886   7.061  13.427  0.2971 -0.0495  0.1767
10208TIP3    H152039   4.807   7.107  13.455  0.3246 -0.2258  0.5625
10208TIP3    H252040   4.865   7.027  13.340 -0.2013 -0.4320  0.4373
10209TIP3   OH252041   0.858   0.616  11.965 -0.2749  0.3218  0.6800
10209TIP3    H152042   0.814   0.693  11.929  0.5283  0.6218  0.3151
10209TIP3    H252043   0.938   0.650  12.004 -0.4011 -0.2066  1.4140
10210TIP3   OH252044   0.178   4.759   5.345  0.0250  0.4426 -0.0454
10210TIP3    H152045   0.130   4.729   5.422  0.7421  1.2063  0.7191
10210TIP3    H252046   0.171   4.687   5.282 -1.7568  0.3775  0.1930
10211TIP3   OH252047   2.119   3.931  14.179 -0.6286 -0.3755 -0.2070
10211TIP3    H152048   2.151   4.021  14.191 -0.4083 -0.3067 -1.2748
10211TIP3    H252049   2.036   3.929  14.227 -0.5844  0.3695 -0.0849
10212TIP3   OH252050   6.200   4.170  12.079 -0.6155  0.1828 -0.4564
10212TIP3    H152051   6.129   4.107  12.063 -0.8559 -0.4978  2.5856
10212TIP3    H252052   6.280   4.123  12.057 -0.9459 -0.0661 -1.1481
10213TIP3   OH252053   5.401   1.269   5.073  0.7304 -0.3165  0.0215
10213TIP3    H152054   5.324   1.325   5.061  0.8515  0.1837  1.3547
10213TIP3    H252055   5.385   1.223   5.155  2.2686  0.5471  0.8479
10214TIP3   OH252056   3.131   6.906   1.079 -0.0388  0.0928 -0.3890
10214TIP3    H152057   3.091   6.967   1.141  0.3540  0.8878 -0.9031
10214TIP3    H252058   3.121   6.820   1.120  0.2072  0.6009  0.7811
10215TIP3   OH252059   7.056   1.428   1.604  0.3474  0.2347  0.6307
10215TIP3    H152060   6.990   1.359   1.605 -1.3927  1.7961 -0.1470
10215TIP3    H252061   7.137   1.384   1.628 -1.1294 -1.5647  2.7328
10216TIP3   OH252062   5.856   0.265   4.460  0.0140 -0.5802  0.1229
10216TIP3    H152063   5.891   0.188   4.416 -0.1183  0.1532 -1.3405
10216TIP3    H252064   5.797   0.304   4.395  0.7356  1.2160  0.4906
10217TIP3   OH252065   0.883   0.947   2.069 -0.1291 -0.2400  0.6372
10217TIP3    H152066   0.865   0.866   2.022  0.0858 -0.8702  1.6267
10217TIP3    H252067   0.797   0.974   2.103 -0.0161 -0.6531  1.2542
10218TIP3   OH252068   0.510   5.776   0.677  0.2058  0.0378  0.6805
10218TIP3    H152069   0.513   5.872   0.680 -0.1796  0.0950 -0.3404
10218TIP3    H252070   0.432   5.756   0.626  0.7412 -0.8092  0.1724
10219TIP3   OH252071   0.928   2.296   5.237 -0.1237  0.1862  0.3654
10219TIP3    H152072   0.892   2.238   5.303 -0.3182 -0.3609 -0.2064
10219TIP3    H252073   0.960   2.372   5.285  2.7193 -1.5660  1.4845
10220TIP3   OH252074   1.107   4.929  12.333  0.1854 -0.3609 -0.3072
10220TIP3    H152075   1.196   4.911  12.303  0.1695 -0.0256 -0.5498
10220TIP3    H252076   1.114   5.011  12.381  0.9502 -2.5401  3.8058
10221TIP3   OH252077   2.894   6.465  13.766 -0.2953 -1.1910  0.3873
10221TIP3    H152078   2.981   6.467  13.805 -0.3707 -0.4010  0.5278
10221TIP3    H252079   2.839   6.515  13.826 -0.3710  0.2382 -0.8023
10222TIP3   OH252080   3.292   1.294   2.905  0.1804  0.3529  0.0554
10222TIP3    H152081   3.271   1.372   2.956 -1.4119  0.2422 -0.3879
10222TIP3    H252082   3.210   1.246   2.898  0.3874  0.1897 -2.3096
10223TIP3   OH252083   6.760   6.080  14.940 -0.2898  0.6913 -0.2606
10223TIP3    H152084   6.737   6.169  14.916 -0.1795  0.1527 -2.6906
10223TIP3    H252085   6.676   6.033  14.943 -0.1686  0.3171 -1.7926
10224TIP3   OH252086   3.814   1.731   0.102 -0.8286  0.6993  0.0374
10224TIP3    H152087   3.749   1.661   0.093 -0.4742  0.4602 -0.7392
10224TIP3    H252088   3.825   1.765   0.013  1.0665 -0.1548 -0.1031
10225TIP3   OH252089   2.051   2.024   1.952  0.7949  0.4789 -0.0091
10225TIP3    H152090   2.016   1.994   1.868 -0.2859 -1.5621  1.0865
10225TIP3    H252091   2.143   1.998   1.951  0.1957 -1.9340  0.3723
10226TIP3   OH252092   5.672   1.884   2.713 -0.0341  0.3695 -1.0186
10226TIP3    H152093   5.621   1.804   2.723 -0.7662  1.0868  2.8081
10226TIP3    H252094   5.615   1.953   2.748  1.4558  2.1824 -1.9479
10227TIP3   OH252095   0.979   4.532  10.833  0.1184 -0.2355  0.2547
10227TIP3    H152096   1.044   4.477  10.876 -0.1805 -1.1004 -0.3646
10227TIP3    H252097   1.022   4.566  10.755  0.9344  2.0068  1.5925
10228TIP3   OH252098   1.386   1.919  13.121 -0.0996 -0.5460 -0.2438
10228TIP3    H152099   1.341   1.922  13.037  1.0359 -0.7166 -0.8778
10228TIP3    H252100   1.447   1.993  13.119 -1.8162  1.0149  1.4975
10229TIP3   OH252101   4.370   3.874  13.135 -0.4536  0.0123  0.0803
10229TIP3    H152102   4.289   3.825  13.148 -0.4757 -0.4922 -1.7152
10229TIP3    H252103   4.423   3.817  13.079  0.3971  1.1299 -0.2752
10230TIP3   OH252104   5.679   6.505  14.633 -0.5720  0.2745 -0.9398
10230TIP3    H152105   5.748   6.557  14.674  0.0726 -1.6515  0.5632
10230TIP3    H252106   5.598   6.538  14.672 -0.3379  1.1688 -1.1854
10231TIP3   OH252107   0.054   6.908   0.314 -0.5553  0.4759 -0.2013
10231TIP3    H152108   0.056   6.833   0.254  0.6805 -0.0089  0.4129
10231TIP3    H252109   0.097   6.876   0.393 -0.5651  1.6603  0.2956
10232TIP3   OH252110   4.693   5.601   2.589 -0.1628  0.1783 -0.9229
10232TIP3    H152111   4.614   5.644   2.556 -0.0850  0.4969 -0.6924
10232TIP3    H252112   4.765   5.643   2.542  0.1373  2.0891  1.0767
10233TIP3   OH252113   5.690   3.684  13.980 -0.0291 -0.7064 -0.0006
10233TIP3    H152114   5.650   3.614  14.032 -0.8039 -2.6415 -2.9850
10233TIP3    H252115   5.617   3.719  13.928  1.0881 -0.3692 -1.3750
10234TIP3   OH252116   2.806   3.739   9.846  0.1566  0.5158 -0.0903
10234TIP3    H152117   2.872   3.679   9.880 -0.0142  0.0081 -0.6287
10234TIP3    H252118   2.819   3.737   9.751 -1.0695 -0.1235 -0.2617
10235TIP3   OH252119   6.995   3.679   0.215  0.3717  0.7341 -0.0270
10235TIP3    H152120   7.049   3.612   0.173 -0.2954  0.0585  0.1761
10235TIP3    H252121   6.905   3.648   0.206  0.1408  1.0025  1.1234
10236TIP3   OH252122   4.057   5.090   3.472 -0.1711  0.5208  0.3178
10236TIP3    H152123   4.068   5.095   3.567 -0.5733  0.4635  0.3686
10236TIP3    H252124   4.065   5.180   3.442  1.0747  0.4209  0.2724
10237TIP3   OH252125   5.507   0.301   0.908 -0.3899  0.2592  0.4650
10237TIP3    H152126   5.599   0.306   0.881 -0.4257  1.1122  0.4695
10237TIP3    H252127   5.510   0.260   0.994  0.0811  1.1435  0.8849
10238TIP3   OH252128   4.272   7.035   5.788  0.5456  0.5028  0.1098
10238TIP3    H152129   4.261   6.940   5.797  0.6476  0.5178  0.3999
10238TIP3    H252130   4.365   7.046   5.766  0.3656  0.4864 -0.6916
10239TIP3   OH252131   5.057   0.223   1.264 -0.3395  0.5196 -0.1283
10239TIP3    H152132   5.010   0.290   1.314  0.3756  1.1396 -0.2727
10239TIP3    H252133   5.149   0.233   1.291 -0.1905 -0.2423 -0.3310
10240TIP3   OH252134   1.790   5.996  11.369 -0.2549 -0.4223 -0.2099
10240TIP3    H152135   1.738   5.936  11.422  1.1493 -0.6437  0.9971
10240TIP3    H252136   1.760   6.083  11.395 -0.5236 -0.5644 -0.0378
10241TIP3   OH252137   3.106   3.762   4.315 -0.0936 -0.3938 -0.1164
10241TIP3    H152138   3.178   3.820   4.341 -0.0631  0.2205 -1.4381
10241TIP3    H252139   3.138   3.674   4.334  1.1627 -0.1579 -0.9613
10242TIP3   OH252140   2.094   2.721   2.126  0.0471 -0.1141  0.3257
10242TIP3    H152141   2.121   2.798   2.177  0.2131 -0.7147  1.1655
10242TIP3    H252142   1.999   2.729   2.120  0.2801  2.0607 -2.7290
10243TIP3   OH252143   0.772   1.315   0.697  0.4340 -0.4821 -0.3697
10243TIP3    H152144   0.766   1.386   0.761  1.5023 -0.1680 -0.5874
10243TIP3    H252145   0.724   1.243   0.737  0.7039 -0.1521  0.5893
10244TIP3   OH252146   3.475   5.175   0.850 -0.0135 -0.2960  0.0578
10244TIP3    H152147   3.468   5.232   0.773 -1.1671 -0.8699 -0.2854
10244TIP3    H252148   3.393   5.125   0.850 -0.0522 -0.2706  1.6941
10245TIP3   OH252149   1.680   1.834  11.809 -0.0019 -0.0398 -0.0722
10245TIP3    H152150   1.642   1.748  11.828 -0.6110  0.3253  0.3871
10245TIP3    H252151   1.640   1.860  11.726 -0.5783  0.2281  0.2810
10246TIP3   OH252152   0.811   1.295  14.183  0.2266 -0.4748 -0.2043
10246TIP3    H152153   0.781   1.310  14.273 -0.9373  1.2335 -0.8214
10246TIP3    H252154   0.742   1.242  14.143 -1.7779  2.6888 -1.3570
10247TIP3   OH252155   6.065   3.049  12.477  0.0459  0.1009 -0.4426
10247TIP3    H152156   6.096   2.990  12.408 -0.8559  0.6911 -1.3833
10247TIP3    H252157   6.038   3.128  12.430  0.0741  0.7841  0.6717
10248TIP3   OH252158   2.418   3.951   1.030 -0.2766 -0.4403  0.7511
10248TIP3    H152159   2.419   3.929   0.937 -0.6213 -0.2429  0.7013
10248TIP3    H252160   2.412   4.046   1.032 -1.1466 -0.4974  0.9776
10249TIP3   OH252161   2.422   3.984   2.267  0.4218 -0.2334 -0.3201
10249TIP3    H152162   2.408   4.036   2.188  1.3925 -0.0010 -0.3594
10249TIP3    H252163   2.501   4.022   2.306 -0.0141 -0.3854  0.7311
10250TIP3   OH252164   1.066   4.822   2.844  0.4434  0.2174  0.6908
10250TIP3    H152165   0.975   4.791   2.836  0.7976 -1.5574  2.5391
10250TIP3    H252166   1.113   4.776   2.775  0.2987 -0.5909  1.1169
10251TIP3   OH252167   6.227   3.977   0.510 -0.0848  0.0007 -0.0517
10251TIP3    H152168   6.225   4.026   0.593 -2.4998  0.4929 -0.3216
10251TIP3    H252169   6.286   4.028   0.454  0.6702  0.3029  0.9883
10252TIP3   OH252170   0.337   2.916   2.075  0.0174 -0.1516  0.1423
10252TIP3    H152171   0.313   2.902   2.166 -0.0795  0.3785  0.2021
10252TIP3    H252172   0.415   2.862   2.062  0.0732 -0.1758  0.5590
10253TIP3   OH252173   2.482   0.146  13.429 -0.8168 -0.6450  0.1972
10253TIP3    H152174   2.401   0.153  13.479 -1.3010 -0.9722 -0.5391
10253TIP3    H252175   2.546   0.194  13.482 -1.4481 -0.5034  0.8537
10254TIP3   OH252176   2.856   2.809   5.751 -0.0634 -0.0337  0.0213
10254TIP3    H152177   2.907   2.728   5.747  0.8252  0.5560 -1.6949
10254TIP3    H252178   2.918   2.878   5.723 -1.7300  0.7105 -2.1207
10255TIP3   OH252179   0.464   6.741   1.826 -0.0777  0.1612  0.0147
10255TIP3    H152180   0.413   6.690   1.762 -2.9288  0.9426  1.5204
10255TIP3    H252181   0.434   6.831   1.815  0.6278  0.5848  1.3197
10256TIP3   OH252182   6.472   5.643  14.963 -0.3888 -0.2453  0.0403
10256TIP3    H152183   6.544   5.634  15.025 -0.4147 -0.8811 -0.0199
10256TIP3    H252184   6.456   5.554  14.930 -0.8476 -0.0295 -0.3420
10257TIP3   OH252185   6.260   6.710  14.741 -0.6890 -0.4575  0.8609
10257TIP3    H152186   6.327   6.747  14.684 -0.7867  0.0962  1.1039
10257TIP3    H252187   6.270   6.615  14.731 -1.0082 -0.3750 -0.4299
10258TIP3   OH252188   4.518   2.000  11.429 -0.1132  0.0368  0.0185
10258TIP3    H152189   4.493   1.965  11.515 -3.2294  1.9173  0.0252
10258TIP3    H252190   4.538   2.093  11.446 -0.1602  0.2839 -1.2027
10259TIP3   OH252191   2.599   3.425  15.346 -0.4201  0.4453 -0.1497
10259TIP3    H152192   2.545   3.429  15.267 -0.2780 -0.9829 -0.3482
10259TIP3    H252193   2.536   3.417  15.417 -0.5130 -1.0842 -0.3693
10260TIP3   OH252194   2.517   1.179   1.717 -0.0823 -0.0444  0.1121
10260TIP3    H152195   2.528   1.104   1.775 -0.1365 -1.5124 -1.6736
10260TIP3    H252196   2.439   1.224   1.750  0.6459 -0.0414  1.9284
10261TIP3   OH252197   2.500   4.107  11.108  0.0855  0.3995 -0.1976
10261TIP3    H152198   2.536   4.073  11.190  1.0068 -1.6613 -1.3832
10261TIP3    H252199   2.577   4.121  11.052 -0.7106 -2.1166 -2.0767
10262TIP3   OH252200   1.898   3.758   0.706  0.0122 -0.1592 -0.5886
10262TIP3    H152201   1.871   3.849   0.713  2.5677  0.6838 -0.5614
10262TIP3    H252202   1.990   3.758   0.733  0.7149 -2.3677 -2.5708
10263TIP3   OH252203   3.546   0.885  12.712  0.6581 -0.6773 -0.4599
10263TIP3    H152204   3.597   0.955  12.751  0.6058 -1.2832  0.7294
10263TIP3    H252205   3.546   0.905  12.618 -0.2063  1.4486 -0.0650
10264TIP3   OH252206   2.530   4.072   3.235 -0.2374  0.4980  0.1530
10264TIP3    H152207   2.495   3.992   3.195  1.6086  1.1874 -3.2547
10264TIP3    H252208   2.488   4.143   3.186  1.1823  1.4691  0.2959
10265TIP3   OH252209   5.405   0.548   4.541 -0.3467  0.6383 -0.4788
10265TIP3    H152210   5.422   0.604   4.617 -0.4568  1.1564 -0.8296
10265TIP3    H252211   5.439   0.598   4.467 -0.0927  0.0652 -0.7539
10266TIP3   OH252212   2.532   6.484   5.875  0.4101  0.3472  0.0653
10266TIP3    H152213   2.527   6.438   5.959 -1.0010  0.4889  0.0875
10266TIP3    H252214   2.533   6.414   5.810 -0.9260  0.2443  0.1280
10267TIP3   OH252215   0.700   0.265   0.307 -0.3107  0.2353  0.7617
10267TIP3    H152216   0.624   0.215   0.277 -0.5142 -0.4775  2.3962
10267TIP3    H252217   0.765   0.253   0.238 -0.7745 -1.3299  0.5675
10268TIP3   OH252218   2.862   3.624   5.185 -0.5213  0.4456  0.0318
10268TIP3    H152219   2.827   3.629   5.273 -0.6892  1.1970 -0.0703
10268TIP3    H252220   2.837   3.707   5.144  3.0896  2.0348  0.6024
10269TIP3   OH252221   1.758   0.003   5.267  0.6072  0.2089 -0.0742
10269TIP3    H152222   1.713  -0.015   5.349 -0.4954  1.7593 -0.2990
10269TIP3    H252223   1.742  -0.075   5.214  1.2444 -0.7637  1.1115
10270TIP3   OH252224   2.004   5.013   0.118  0.0518 -0.0791  0.0903
10270TIP3    H152225   2.005   4.925   0.082 -1.0893 -0.6094  1.2865
10270TIP3    H252226   2.071   5.012   0.187  0.5076  0.2158 -0.3313
10271TIP3   OH252227   4.469   2.221   3.901  0.0590  0.0998 -0.0984
10271TIP3    H152228   4.456   2.139   3.948  0.9588 -0.5564 -0.9657
10271TIP3    H252229   4.512   2.196   3.819 -0.8776  1.2953 -0.9904
10272TIP3   OH252230   6.819   6.106  10.870 -0.4801  0.2215  0.5254
10272TIP3    H152231   6.858   6.035  10.920 -0.2835  1.4065  2.1322
10272TIP3    H252232   6.799   6.173  10.935 -1.5612  1.2497 -0.8055
10273TIP3   OH252233   4.585   1.432   3.909  0.4611  0.7064  0.0868
10273TIP3    H152234   4.645   1.389   3.969 -1.3873 -3.6267 -0.8181
10273TIP3    H252235   4.504   1.442   3.959 -0.0107  0.4293 -0.6046
10274TIP3   OH252236   3.082   2.915   1.595 -0.4690 -0.7357  0.6805
10274TIP3    H152237   3.022   2.849   1.559  0.4426 -1.6497  0.7867
10274TIP3    H252238   3.046   2.934   1.682  0.6267 -3.0655  1.7550
10275TIP3   OH252239   4.672   6.625   1.923 -0.0920 -0.4566 -0.6074
10275TIP3    H152240   4.643   6.587   2.005 -1.9416  1.9487 -0.0005
10275TIP3    H252241   4.663   6.720   1.936  0.7855  0.0692 -3.1514
10276TIP3   OH252242   0.117   2.470   4.337 -0.5590 -0.1251  0.0718
10276TIP3    H152243   0.149   2.417   4.410 -1.2497 -1.7518 -0.7692
10276TIP3    H252244   0.186   2.536   4.324  0.2000 -0.6399  1.3035
10277TIP3   OH252245   5.850   3.966  11.472  0.2935 -0.2204  0.2483
10277TIP3    H152246   5.935   3.926  11.492 -0.3882 -2.3873 -0.8811
10277TIP3    H252247   5.798   3.952  11.551 -0.2398 -2.5912 -0.4403
10278TIP3   OH252248   1.395   0.770   1.796 -0.1433  0.1236 -0.3093
10278TIP3    H152249   1.441   0.834   1.741 -0.9559  0.9920  0.0067
10278TIP3    H252250   1.341   0.721   1.735  1.7820 -1.5144 -0.8322
10279TIP3   OH252251   2.757   3.854   5.094  0.1885  0.1315  0.6425
10279TIP3    H152252   2.835   3.886   5.049 -0.9307 -0.1733 -1.6888
10279TIP3    H252253   2.733   3.925   5.154  0.8290  1.3235 -0.4541
10280TIP3   OH252254   3.458   0.254  11.487 -0.4595  0.0357  0.0823
10280TIP3    H152255   3.389   0.304  11.443  0.5055  1.6636  0.3488
10280TIP3    H252256   3.538   0.304  11.472 -0.0690  0.8160  3.7550
10281TIP3   OH252257   3.290   4.506   5.284  0.2705  0.4343  0.1143
10281TIP3    H152258   3.247   4.457   5.355 -0.4344  0.9466  0.0489
10281TIP3    H252259   3.378   4.523   5.317  0.2290 -0.0876  0.5099
10282TIP3   OH252260   6.566   4.734  10.559  0.0588  0.2459 -0.3315
10282TIP3    H152261   6.485   4.732  10.611 -0.1296 -0.2534 -0.6375
10282TIP3    H252262   6.571   4.647  10.520  1.1154  0.0260  0.2489
10283TIP3   OH252263   3.564   3.538  12.394  0.5151  0.0980  0.4669
10283TIP3    H152264   3.619   3.581  12.328 -0.4508 -0.5278 -0.8143
10283TIP3    H252265   3.493   3.601  12.411  1.0588  0.4855  1.3431
10284TIP3   OH252266   6.522   5.161   0.550 -0.1268  0.1203  0.5754
10284TIP3    H152267   6.537   5.131   0.640  1.8165 -0.7283  0.0016
10284TIP3    H252268   6.500   5.254   0.559  1.2687  0.3580  1.8524
10285TIP3   OH252269   4.776   6.620  13.110  0.1646 -0.4858 -0.0094
10285TIP3    H152270   4.818   6.685  13.054  1.6114 -0.3729  1.1378
10285TIP3    H252271   4.694   6.599  13.066  0.1336  1.3647 -0.9183
10286TIP3   OH252272   4.343   2.991   3.998 -0.0023 -0.6791 -0.3876
10286TIP3    H152273   4.316   2.958   3.912 -1.3445  0.3216 -0.3827
10286TIP3    H252274   4.434   3.020   3.985 -0.8264  1.3777 -2.0613
10287TIP3   OH252275   5.511   6.455   1.453  0.2361  0.3676  0.3025
10287TIP3    H152276   5.485   6.491   1.368 -1.5462  1.0159  1.0677
10287TIP3    H252277   5.599   6.490   1.468  0.9473 -0.4813 -1.6389
10288TIP3   OH252278   6.343   1.846   0.542  0.4552  0.3241 -0.0950
10288TIP3    H152279   6.258   1.802   0.543  1.0500 -0.9164  2.0251
10288TIP3    H252280   6.329   1.929   0.588  0.1105  0.7836 -1.0024
10289TIP3   OH252281   1.749   2.386   0.220  0.1940  0.0641  0.5084
10289TIP3    H152282   1.805   2.311   0.201  0.0759 -0.2282  1.2719
10289TIP3    H252283   1.714   2.368   0.308 -1.3135  0.1068 -0.0544
10290TIP3   OH252284   5.873   6.278  12.171 -0.1287  0.2616 -0.0102
10290TIP3    H152285   5.791   6.303  12.130 -0.2941  0.1698  0.2651
10290TIP3    H252286   5.917   6.361  12.190 -0.6704  0.3608  0.8908
10291TIP3   OH252287   4.976   4.191   4.632 -0.2222  0.4046 -0.2640
10291TIP3    H152288   5.014   4.250   4.697  0.8841  2.1896 -2.3894
10291TIP3    H252289   5.019   4.107   4.648 -0.3791  0.6397  1.6014
10292TIP3   OH252290   2.774   5.554  10.021 -0.2627  0.7425 -0.2264
10292TIP3    H152291   2.753   5.581   9.932  0.7397  0.6980 -0.4841
10292TIP3    H252292   2.747   5.628  10.075 -3.9854 -0.4787 -0.1392
10293TIP3   OH252293   0.890   0.687  12.682  0.3035 -0.4118  0.6699
10293TIP3    H152294   0.848   0.608  12.715  2.5888 -1.3938  1.4464
10293TIP3    H252295   0.835   0.715  12.609 -2.1796 -1.0008  2.2158
10294TIP3   OH252296   0.094   6.642   1.686  0.3229 -0.0274  0.1630
10294TIP3    H152297   0.052   6.694   1.754 -0.5723 -0.7608  0.1902
10294TIP3    H252298   0.069   6.684   1.603 -1.8323 -1.3345  0.0716
10295TIP3   OH252299   0.070   5.215   1.070 -0.0708 -0.1180 -0.4820
10295TIP3    H152300   0.158   5.176   1.072  0.2870  0.6890  1.6573
10295TIP3    H252301   0.014   5.150   1.112 -0.2214  0.0306 -0.4512
10296TIP3   OH252302   2.350   0.288  11.362  0.1404  0.1553  0.4282
10296TIP3    H152303   2.279   0.231  11.390 -0.6721  0.6602 -0.5560
10296TIP3    H252304   2.322   0.376  11.387  0.6207  0.3171  0.4148
10297TIP3   OH252305   1.066   0.960   0.278  0.2436  0.0063 -1.1872
10297TIP3    H152306   1.030   1.018   0.212  0.7098  1.3474 -0.3014
10297TIP3    H252307   1.085   1.017   0.353  1.2702 -1.1805 -0.4960
10298TIP3   OH252308   1.142   3.907   4.580 -0.2611 -0.1434 -0.3158
10298TIP3    H152309   1.213   3.872   4.633 -0.6521  0.5830  0.7332
10298TIP3    H252310   1.170   3.996   4.558 -0.2154 -0.3540 -1.1134
10299TIP3   OH252311   5.599   3.618  15.594 -0.8912 -0.3549  0.4721
10299TIP3    H152312   5.694   3.624  15.610 -0.3108  1.6039 -2.6549
10299TIP3    H252313   5.561   3.682  15.654  0.0349  0.2908  0.4006
10300TIP3   OH252314   6.898   5.873  14.118 -0.1869 -0.6634 -0.0563
10300TIP3    H152315   6.899   5.779  14.097  0.2254 -0.5772 -0.4351
10300TIP3    H252316   6.847   5.879  14.199 -0.9117 -1.1241 -0.4666
10301TIP3   OH252317   6.362   5.177   4.412 -0.0855  0.0915 -0.1000
10301TIP3    H152318   6.300   5.167   4.485 -0.8232 -0.4198 -0.7741
10301TIP3    H252319   6.441   5.132   4.442  0.1526  1.1610  0.9690
10302TIP3   OH252320   5.780   1.250  13.909 -0.3031  0.1427  0.0486
10302TIP3    H152321   5.737   1.165  13.921  1.1414 -0.4026  1.6038
10302TIP3    H252322   5.707   1.312  13.904 -1.3408 -1.0101  0.2153
10303TIP3   OH252323   5.370   0.945  12.856  0.3391  0.6880  0.2388
10303TIP3    H152324   5.333   0.859  12.836  2.3806 -0.5551  1.5512
10303TIP3    H252325   5.384   0.985  12.770 -2.4952  0.6230 -0.3532
10304TIP3   OH252326   6.560   2.977   0.388  0.0323 -0.5043 -0.4180
10304TIP3    H152327   6.642   3.022   0.368 -0.4239  0.3571 -0.4082
10304TIP3    H252328   6.566   2.894   0.340  1.0669 -0.6223 -0.1083
10305TIP3   OH252329   6.633   3.310  15.046 -0.3518  0.0728  0.1181
10305TIP3    H152330   6.717   3.330  15.006 -0.1283 -0.1289  0.4728
10305TIP3    H252331   6.607   3.226  15.007 -0.3503  0.0992  0.0617
10306TIP3   OH252332   2.237   0.373  14.858  0.1964 -0.6130  0.0176
10306TIP3    H152333   2.240   0.460  14.898  2.2324 -0.1421 -1.0620
10306TIP3    H252334   2.247   0.312  14.931 -0.6219  0.0602  0.7091
10307TIP3   OH252335   6.977   7.046   0.614  0.5261  0.3493  0.7506
10307TIP3    H152336   6.913   6.977   0.599 -0.5536  0.5470  3.8742
10307TIP3    H252337   6.927   7.128   0.609  1.2742  0.7687 -0.2913
10308TIP3   OH252338   0.908   3.288   1.724  0.4774  0.0855 -0.0489
10308TIP3    H152339   0.898   3.309   1.631  0.2443  1.2519  0.2216
10308TIP3    H252340   0.840   3.339   1.767  1.5311  0.7228  0.9034
10309TIP3   OH252341   4.700   1.244   5.410  0.0857  0.3405  0.9222
10309TIP3    H152342   4.768   1.178   5.396 -0.1208 -0.4858  3.3000
10309TIP3    H252343   4.740   1.308   5.469 -0.6215  0.8605  0.8534
10310TIP3   OH252344   7.027   2.111   2.157 -0.1615  0.6675 -0.4429
10310TIP3    H152345   7.021   2.055   2.234  0.8614  1.2429  0.0783
10310TIP3    H252346   6.980   2.064   2.088 -0.1426 -0.3622  0.2359
10311TIP3   OH252347   2.819   6.812   4.721 -0.2226 -0.8257 -0.0819
10311TIP3    H152348   2.822   6.864   4.801  0.5062  0.6860 -1.0465
10311TIP3    H252349   2.905   6.826   4.679 -1.1375 -0.2901 -1.8889
10312TIP3   OH252350   4.646   6.779   1.542 -0.2940  0.4810  0.0673
10312TIP3    H152351   4.554   6.756   1.541  0.0346 -0.8963 -0.6710
10312TIP3    H252352   4.647   6.874   1.529 -1.6176  0.6294  0.9491
10313TIP3   OH252353   2.211   0.788  11.435  0.4899  0.2479  0.2267
10313TIP3    H152354   2.198   0.819  11.525 -0.6758  0.2646  0.0697
10313TIP3    H252355   2.143   0.833  11.384  1.9643  1.2585 -0.9154
10314TIP3   OH252356   0.725   5.916  12.808  0.0977  0.3697 -0.6470
10314TIP3    H152357   0.773   5.964  12.876  0.9102  0.9177 -1.5872
10314TIP3    H252358   0.729   5.973  12.731  0.9433 -1.1062 -1.7514
10315TIP3   OH252359   4.581   4.782   2.429  0.3368 -0.0770  0.3400
10315TIP3    H152360   4.602   4.767   2.521  2.6257  0.1454 -0.0883
10315TIP3    H252361   4.644   4.728   2.380 -0.3778  0.3247 -1.1000
10316TIP3   OH252362   1.134   1.883  12.268 -0.2117  0.3427 -0.3986
10316TIP3    H152363   1.066   1.825  12.299 -0.4202  0.9014  0.2243
10316TIP3    H252364   1.161   1.847  12.184 -0.4206 -0.5703 -0.0825
10317TIP3   OH252365   1.987   3.369   2.125 -0.0414 -0.0589 -0.3959
10317TIP3    H152366   2.042   3.376   2.204 -1.7305  2.3202  0.7074
10317TIP3    H252367   1.915   3.430   2.141 -0.6419  0.2760 -3.6748
10318TIP3   OH252368   4.465   3.521  11.958 -0.7248  0.0660  0.7870
10318TIP3    H152369   4.432   3.608  11.984 -0.5368  0.0352  1.1370
10318TIP3    H252370   4.399   3.488  11.896 -0.4976  0.7088  0.1850
10319TIP3   OH252371   1.654   2.673  15.595  0.0919  0.7328  0.2105
10319TIP3    H152372   1.646   2.661  15.689 -3.2206  0.1724 -0.0339
10319TIP3    H252373   1.747   2.693  15.581  0.6157  1.1920  3.5822
10320TIP3   OH252374   0.581   0.104   0.891 -0.1529  0.0904  0.0185
10320TIP3    H152375   0.599   0.010   0.884 -0.8010 -0.2487  2.0284
10320TIP3    H252376   0.488   0.112   0.869 -0.0188  0.3196 -0.4739
10321TIP3   OH252377   0.023   5.027   4.515  0.0562 -0.3515 -0.0868
10321TIP3    H152378  -0.009   5.055   4.601  0.5309  0.4055 -0.1452
10321TIP3    H252379   0.041   5.109   4.469 -0.4554 -0.7452 -1.0178
10322TIP3   OH252380   2.617   4.548   3.746  0.1082 -0.0245 -0.0881
10322TIP3    H152381   2.546   4.484   3.754 -0.2339  0.4189  0.5398
10322TIP3    H252382   2.693   4.496   3.719 -0.1841 -0.6811  0.3245
10323TIP3   OH252383   0.496   1.538   4.996 -0.3776  0.6422 -0.4011
10323TIP3    H152384   0.470   1.464   4.940  1.6242 -0.7979  0.4460
10323TIP3    H252385   0.588   1.520   5.018 -1.0697  0.9742  3.5039
10324TIP3   OH252386   6.149   6.352   1.526 -0.0612  0.3861  0.2530
10324TIP3    H152387   6.183   6.352   1.615 -0.1109  0.4941  0.2722
10324TIP3    H252388   6.186   6.431   1.486  0.7178 -0.1505 -0.1148
10325TIP3   OH252389   5.104   2.189   1.887 -0.2853  0.4988 -0.1795
10325TIP3    H152390   5.069   2.278   1.890  2.4074  1.6559 -0.1440
10325TIP3    H252391   5.152   2.179   1.969  0.0316 -0.7325 -0.4935
10326TIP3   OH252392   5.247   3.620  12.014  0.2205  0.2110 -0.1706
10326TIP3    H152393   5.159   3.659  12.020 -0.8356 -2.1811  1.2700
10326TIP3    H252394   5.261   3.607  11.920 -1.2441  0.0827 -0.3987
10327TIP3   OH252395   0.159   6.694  15.409  0.0679 -0.1425 -0.1007
10327TIP3    H152396   0.126   6.614  15.366 -0.3097  1.0336 -2.1347
10327TIP3    H252397   0.147   6.678  15.502 -1.3124 -1.8988 -0.5319
10328TIP3   OH252398   5.533   6.095   1.875  0.0568 -0.0357  0.4118
10328TIP3    H152399   5.552   6.133   1.961 -1.3858  0.6404  0.4540
10328TIP3    H252400   5.522   6.171   1.817 -2.0595 -0.3584  0.3128
10329TIP3   OH252401   6.512   0.808  12.165  0.6264 -0.3691  0.2733
10329TIP3    H152402   6.524   0.903  12.170  0.7717 -0.3924  0.3576
10329TIP3    H252403   6.456   0.795  12.088  1.0891 -0.2568 -0.0868
10330TIP3   OH252404   3.351   6.960  10.966 -0.4855 -0.0914  0.3611
10330TIP3    H152405   3.369   7.054  10.971 -0.1313 -0.1654  0.4844
10330TIP3    H252406   3.299   6.941  11.044 -1.9479  0.3046 -0.4811
10331TIP3   OH252407   1.001   6.340   0.897  0.4751  0.2400  0.2352
10331TIP3    H152408   0.975   6.298   0.979  1.7999  1.1607  1.1770
10331TIP3    H252409   1.077   6.290   0.867  0.4910  0.3967  0.0079
10332TIP3   OH252410   3.298   4.097  13.028  0.8542 -0.5790 -0.3864
10332TIP3    H152411   3.273   4.110  13.119  0.8099  0.0438 -0.4813
10332TIP3    H252412   3.387   4.064  13.032  0.0310 -2.9391 -0.0356
10333TIP3   OH252413   6.042   4.693   1.846 -0.2073  0.1341  0.3567
10333TIP3    H152414   5.983   4.745   1.901  0.7118 -0.1745  1.6799
10333TIP3    H252415   5.993   4.612   1.829 -0.2818 -0.0211  1.2426
10334TIP3   OH252416   1.756   0.163   2.542  0.0603 -0.0556 -0.5404
10334TIP3    H152417   1.735   0.253   2.518 -0.6455  0.0667  0.5084
10334TIP3    H252418   1.680   0.132   2.591  0.5820 -1.0043 -0.3030
10335TIP3   OH252419   2.839   2.559  12.505  0.3065 -0.5449  0.7482
10335TIP3    H152420   2.915   2.612  12.479  2.1964 -2.0533  2.8146
10335TIP3    H252421   2.859   2.472  12.472 -1.6721 -0.5667 -0.5873
10336TIP3   OH252422   5.325   0.604  11.169 -0.4029  0.0406 -0.6524
10336TIP3    H152423   5.404   0.647  11.137 -0.0876  0.3969  0.5573
10336TIP3    H252424   5.322   0.521  11.122  1.2797 -0.4536  0.0405
10337TIP3   OH252425   5.666   3.691  11.832  0.1241  0.4396 -0.4432
10337TIP3    H152426   5.602   3.756  11.861  0.7766  1.2091 -0.6613
10337TIP3    H252427   5.615   3.625  11.785 -0.7902 -0.1475  1.2841
10338TIP3   OH252428   5.665   1.397   5.105 -0.1578 -0.3105  0.1959
10338TIP3    H152429   5.572   1.418   5.113 -0.3270 -0.8986 -0.2182
10338TIP3    H252430   5.688   1.359   5.190  0.2647  1.8926  1.1394
10339TIP3   OH252431   4.643   7.131  10.100  0.3371  0.1161 -0.1277
10339TIP3    H152432   4.612   7.216  10.067  1.7104  1.4448  1.8008
10339TIP3    H252433   4.653   7.144  10.194  1.4315 -1.9462  0.0915
10340TIP3   OH252434   6.113   2.012   3.936  0.1948 -0.3283 -0.2704
10340TIP3    H152435   6.081   2.043   3.851 -2.5726 -0.5027  0.6005
10340TIP3    H252436   6.191   1.961   3.915 -1.6817 -2.3754 -3.0951
10341TIP3   OH252437   3.129   2.821   3.981  0.2331 -0.1007  0.1997
10341TIP3    H152438   3.135   2.760   4.054 -0.0321 -0.2316  0.1131
10341TIP3    H252439   3.062   2.784   3.924  1.3876 -0.7190 -0.7989
10342TIP3   OH252440   4.695   0.312   0.708  0.0939 -0.0195  0.5600
10342TIP3    H152441   4.729   0.243   0.651 -2.3363 -2.2200  1.5475
10342TIP3    H252442   4.630   0.358   0.655  1.5312  1.4276 -0.0147
10343TIP3   OH252443   5.505   3.044  12.771 -0.4800 -0.6366 -0.1209
10343TIP3    H152444   5.591   3.001  12.776  0.6287  1.2031 -1.8789
10343TIP3    H252445   5.473   3.022  12.683 -1.0854 -0.0632 -0.0471
10344TIP3   OH252446   6.503   0.876  14.555  0.5256  0.1459  0.1740
10344TIP3    H152447   6.526   0.785  14.535  0.9540 -0.0365  1.4147
10344TIP3    H252448   6.408   0.879  14.548  0.4477 -0.5774  0.8124
10345TIP3   OH252449   6.030   0.017  10.438  0.1812  0.0506  0.2608
10345TIP3    H152450   6.097   0.081  10.463  0.8689 -0.7181  0.4150
10345TIP3    H252451   6.008   0.039  10.348  2.3578 -1.1147 -0.6301
10346TIP3   OH252452   6.761   5.698   0.026 -0.1149  0.0197 -0.0113
10346TIP3    H152453   6.809   5.638   0.083  0.0242 -0.8320 -0.9931
10346TIP3    H252454   6.827   5.731  -0.035  0.2267  2.6922  1.6741
10347TIP3   OH252455   0.681   1.218  14.424  0.2170  0.3140  0.5629
10347TIP3    H152456   0.636   1.147  14.378  3.4418  0.1778 -2.8797
10347TIP3    H252457   0.749   1.174  14.475  2.1001  0.7355 -1.4298
10348TIP3   OH252458   3.309   4.197   4.410 -0.3509 -0.1727  0.1557
10348TIP3    H152459   3.370   4.185   4.338 -1.9300 -1.3728 -1.0408
10348TIP3    H252460   3.297   4.292   4.416 -0.2931 -0.0685 -1.2474
10349TIP3   OH252461   5.801   4.121   2.341  0.0237  0.5276 -0.0501
10349TIP3    H152462   5.851   4.041   2.321 -0.6794  0.2256 -0.6360
10349TIP3    H252463   5.772   4.109   2.431 -0.9295 -0.3602 -0.4535
10350TIP3   OH252464   3.278   3.903   4.863  0.0545 -0.4148 -0.1906
10350TIP3    H152465   3.349   3.842   4.880  0.6823  0.1968 -0.5812
10350TIP3    H252466   3.306   3.952   4.786  0.5661  1.8559  1.3323
10351TIP3   OH252467   4.680   6.590   3.521  0.6643 -0.3422  0.2439
10351TIP3    H152468   4.655   6.570   3.611  0.6972 -1.2677  0.0537
10351TIP3    H252469   4.602   6.631   3.484 -0.2907 -2.3192 -0.0529
10352TIP3   OH252470   2.167   6.924   1.936  0.1058  0.1627  0.3839
10352TIP3    H152471   2.109   6.921   1.859  1.9641  3.0052 -1.3169
10352TIP3    H252472   2.108   6.926   2.011 -1.8977  0.2928 -1.1191
10353TIP3   OH252473   6.060   2.077   3.690 -0.1834 -0.0871 -0.2916
10353TIP3    H152474   6.099   2.152   3.644  0.5380 -0.3085 -0.0612
10353TIP3    H252475   6.039   2.015   3.620  1.4790 -0.6782 -0.3060
10354TIP3   OH252476   6.367   3.708  14.306  0.6616  0.1805 -0.1020
10354TIP3    H152477   6.275   3.687  14.322  0.0126  3.7013  1.8474
10354TIP3    H252478   6.415   3.665  14.376  0.4706 -1.0194 -0.6748
10355TIP3   OH252479   3.617   3.933   0.226 -0.0834 -0.5306  0.1564
10355TIP3    H152480   3.646   3.999   0.289  3.0088 -1.5403 -0.0342
10355TIP3    H252481   3.634   3.971   0.141 -2.0851 -0.0913 -0.1088
10356TIP3   OH252482   0.853   3.194  14.464  0.3372  0.5279 -0.1734
10356TIP3    H152483   0.924   3.130  14.462 -0.5467 -0.5047  0.4576
10356TIP3    H252484   0.779   3.150  14.423 -1.2533 -0.1721  3.0574
10357TIP3   OH252485   2.206   6.671   4.474  0.2180 -0.1640  0.4638
10357TIP3    H152486   2.213   6.575   4.478  1.2435 -0.1564 -0.4543
10357TIP3    H252487   2.287   6.698   4.432 -0.2079  1.0984  0.4291
10358TIP3   OH252488   2.527   1.204  12.485  0.5955 -0.0264  0.2327
10358TIP3    H152489   2.476   1.254  12.549 -0.7187 -1.0151 -0.0052
10358TIP3    H252490   2.581   1.146  12.538 -0.0828 -0.4550  0.4557
10359TIP3   OH252491   5.823   3.922   3.233 -1.2428  0.2005  0.0701
10359TIP3    H152492   5.885   3.887   3.297 -1.2821  1.2443  0.6863
10359TIP3    H252493   5.856   3.889   3.149  0.0027  0.5230  0.4114
10360TIP3   OH252494   1.304   5.548  15.347  0.2646  0.8985  0.3208
10360TIP3    H152495   1.252   5.525  15.270  0.7250  0.5438  0.1081
10360TIP3    H252496   1.300   5.644  15.351 -3.2890  0.8302  2.3400
10361TIP3   OH252497   4.867   0.752  13.044  0.6078 -0.1133  0.2795
10361TIP3    H152498   4.920   0.726  12.969  0.3736 -0.3091  0.1820
10361TIP3    H252499   4.801   0.683  13.052 -1.3639  1.4560 -1.2969
10362TIP3   OH252500   3.652   4.938   1.098 -0.0187 -0.0040  0.6377
10362TIP3    H152501   3.703   5.018   1.112 -0.8979  0.6790  0.0392
10362TIP3    H252502   3.653   4.926   1.003  0.1876 -0.7610  0.7317
10363TIP3   OH252503   3.255   2.945   2.934  0.3812 -0.3486 -0.6635
10363TIP3    H152504   3.311   3.023   2.928  0.3697 -0.3476 -0.7547
10363TIP3    H252505   3.313   2.872   2.912  0.2497 -0.3091 -1.1446
10364TIP3   OH252506   2.010   5.167   1.369 -0.0230 -0.1696 -0.8047
10364TIP3    H152507   2.096   5.166   1.410 -0.9882  1.6661  1.4540
10364TIP3    H252508   1.980   5.257   1.378 -2.0993 -0.7028 -1.7845
10365TIP3   OH252509   0.389   2.147  10.939  0.0566  0.4488 -0.1018
10365TIP3    H152510   0.310   2.112  10.980  0.1714  0.7362  0.3765
10365TIP3    H252511   0.410   2.085  10.869 -0.6101  0.3926 -0.2527
10366TIP3   OH252512   0.954   6.727   0.591  0.1810 -0.2452 -0.4362
10366TIP3    H152513   1.023   6.763   0.535  0.1560 -0.6756 -0.7526
10366TIP3    H252514   0.883   6.705   0.531 -0.2063  0.1331 -0.1199
10367TIP3   OH252515   6.845   6.572  12.663  0.1499  1.0538  0.0032
10367TIP3    H152516   6.750   6.579  12.676  0.4446  1.8256  2.0970
10367TIP3    H252517   6.872   6.660  12.638  0.2888  0.7511 -0.9396
10368TIP3   OH252518   6.357   1.810   3.331  0.1914 -0.4920  0.3462
10368TIP3    H152519   6.327   1.766   3.251 -2.0789  1.4996 -0.0017
10368TIP3    H252520   6.332   1.751   3.402 -0.4067 -0.9684 -0.2478
10369TIP3   OH252521   3.207   0.189  13.118  0.7257 -0.1125  0.3254
10369TIP3    H152522   3.220   0.098  13.142  3.4396  0.3101  0.7781
10369TIP3    H252523   3.141   0.221  13.180 -1.0602 -1.9705 -0.5248
10370TIP3   OH252524   6.544   1.400   2.224  0.3256 -0.1655 -0.0267
10370TIP3    H152525   6.546   1.360   2.311  0.4210  0.3785  0.2275
10370TIP3    H252526   6.497   1.338   2.170 -0.5105 -0.1056  0.6186
10371TIP3   OH252527   6.107   4.435   5.918 -0.1867 -0.4247 -0.0044
10371TIP3    H152528   6.023   4.439   5.964 -0.0026 -1.2907  0.4336
10371TIP3    H252529   6.145   4.521   5.930 -0.7386 -0.2221  0.3348
10372TIP3   OH252530   0.359   4.831  15.460  0.2780  0.4818 -0.0915
10372TIP3    H152531   0.367   4.768  15.388 -0.2591  1.1804 -0.7771
10372TIP3    H252532   0.282   4.883  15.438  0.5588  1.2075  0.5927
10373TIP3   OH252533   4.149   3.935   4.724  0.6075 -0.0766 -0.4511
10373TIP3    H152534   4.188   3.848   4.710 -1.0082 -0.4933 -3.0966
10373TIP3    H252535   4.223   3.994   4.731  1.7496 -1.3803 -1.0668
10374TIP3   OH252536   1.725   1.805  12.963 -0.3154 -0.1693 -0.3804
10374TIP3    H152537   1.804   1.784  13.012  0.4536  0.1013 -1.4805
10374TIP3    H252538   1.661   1.739  12.991  0.8075 -1.4345 -0.7091
10375TIP3   OH252539   4.332   5.195  12.046  0.2251  0.4692 -0.6333
10375TIP3    H152540   4.266   5.134  12.012  0.1162  0.1724  0.0967
10375TIP3    H252541   4.285   5.245  12.113  1.1162 -0.7571  0.9528
10376TIP3   OH252542   2.083   0.498   2.181 -0.3680  0.5568  0.8405
10376TIP3    H152543   2.112   0.564   2.243 -2.1411  1.8509  0.3694
10376TIP3    H252544   1.988   0.510   2.175 -0.3998 -0.2114 -1.3424
10377TIP3   OH252545   5.340   0.825   4.079 -0.1575 -0.1603  0.6177
10377TIP3    H152546   5.277   0.754   4.065  0.5932 -0.7571  0.1558
10377TIP3    H252547   5.396   0.794   4.150 -1.4038  1.0960  2.2078
10378TIP3   OH252548   0.921   3.127  10.009  0.6012  0.2180 -0.5638
10378TIP3    H152549   0.861   3.189   9.967  0.9761  0.9138 -0.0903
10378TIP3    H252550   0.884   3.041   9.989 -0.3694  0.6170 -0.5648
10379TIP3   OH252551   1.176   0.554   1.075 -0.1961 -0.0465  0.6931
10379TIP3    H152552   1.137   0.495   1.010 -0.2627  0.2450  0.4630
10379TIP3    H252553   1.101   0.593   1.119 -0.1696  0.4203  0.3363
10380TIP3   OH252554   4.658   3.868   0.811  0.6292  0.8519  0.2302
10380TIP3    H152555   4.689   3.871   0.902  1.6745  3.4425 -0.1350
10380TIP3    H252556   4.566   3.893   0.816  0.7583  1.2739  0.5509
10381TIP3   OH252557   4.760   3.802  12.519  0.3780  0.0171  0.8233
10381TIP3    H152558   4.696   3.809  12.448 -0.3695 -0.0598  1.4728
10381TIP3    H252559   4.839   3.844  12.485  0.9293 -2.2824 -1.0536
10382TIP3   OH252560   6.036   6.904  11.275  0.0020 -0.5269  0.1753
10382TIP3    H152561   6.061   6.897  11.183  0.4321  0.4690  0.2029
10382TIP3    H252562   6.089   6.838  11.319  0.4380 -0.4136 -0.1727
10383TIP3   OH252563   0.405   6.738   1.159  0.2334 -0.3047 -0.0404
10383TIP3    H152564   0.497   6.754   1.177  0.2973 -3.1001  3.2644
10383TIP3    H252565   0.404   6.697   1.072  1.7750  1.5067 -0.9838
10384TIP3   OH252566   5.062   0.257   0.068  0.5221  0.1637 -0.0792
10384TIP3    H152567   5.016   0.326   0.116  0.1649  0.0970 -0.3231
10384TIP3    H252568   5.092   0.197   0.136  1.0940  0.7073  0.1621
10385TIP3   OH252569   4.113   3.491   0.212 -0.3638 -0.1081  0.2070
10385TIP3    H152570   4.181   3.508   0.146  0.0833 -3.2885 -0.3236
10385TIP3    H252571   4.032   3.519   0.170  0.0567 -1.0119 -1.2978
10386TIP3   OH252572   3.448   1.579  12.269  0.6780  0.0786 -0.0026
10386TIP3    H152573   3.484   1.491  12.280  0.4082  0.0463  0.6247
10386TIP3    H252574   3.524   1.637  12.279  0.5911  0.0003  1.1523
10387TIP3   OH252575   7.048   5.562   3.773 -0.2372 -0.6788 -0.2760
10387TIP3    H152576   7.045   5.646   3.818  0.7342  0.2111 -1.7948
10387TIP3    H252577   7.086   5.502   3.838  0.4568  0.3902  0.3396
10388TIP3   OH252578   4.516   1.213   3.648 -0.2538  0.2632 -0.3224
10388TIP3    H152579   4.593   1.229   3.593  0.6170  0.6069  0.9701
10388TIP3    H252580   4.517   1.284   3.712 -0.2657 -1.0714  1.2090
10389TIP3   OH252581   3.793   4.934  13.598 -0.5548  0.2644  0.3353
10389TIP3    H152582   3.780   5.022  13.634  1.7057  0.5415  0.6247
10389TIP3    H252583   3.882   4.910  13.626  0.3358 -0.5879 -2.8394
10390TIP3   OH252584   3.252   0.867  10.573  0.3314 -0.0660 -0.6211
10390TIP3    H152585   3.178   0.885  10.515  0.1726 -0.7285 -0.6320
10390TIP3    H252586   3.263   0.947  10.624  0.8520  0.7543 -1.9790
10391TIP3   OH252587   2.216   0.471   3.880 -0.6847  0.0701 -0.1753
10391TIP3    H152588   2.227   0.497   3.971 -0.7638  1.3506 -0.5023
10391TIP3    H252589   2.280   0.402   3.866  0.6945  1.1792  0.3579
10392TIP3   OH252590   2.438   6.848   2.627 -0.5653  0.2264 -0.1134
10392TIP3    H152591   2.403   6.849   2.716 -0.8610 -0.0482 -0.2264
10392TIP3    H252592   2.369   6.808   2.574  0.8201 -2.5399  0.0232
10393TIP3   OH252593   5.048   5.072   3.694 -0.5665 -0.3268  0.3865
10393TIP3    H152594   4.975   5.073   3.756 -1.3631 -0.8609 -0.5228
10393TIP3    H252595   5.007   5.061   3.609  0.5260  0.2878 -0.2385
10394TIP3   OH252596   3.353   5.352  10.669  0.6370  0.0858 -0.1401
10394TIP3    H152597   3.337   5.339  10.763 -3.2466 -1.2724 -0.7943
10394TIP3    H252598   3.418   5.286  10.647  0.3123 -0.7814  1.3230
10395TIP3   OH252599   5.934   0.353   3.432  0.3254 -0.8911 -0.9093
10395TIP3    H152600   5.927   0.265   3.469  0.7508 -0.2233  0.8537
10395TIP3    H252601   5.999   0.398   3.487 -0.1986  0.6533 -1.4877
10396TIP3   OH252602   1.326   5.537   4.429 -0.0880 -0.5002  0.5812
10396TIP3    H152603   1.405   5.495   4.461 -0.1209 -1.3348 -0.3981
10396TIP3    H252604   1.271   5.546   4.507 -0.0454 -2.2150  0.8504
10397TIP3   OH252605   1.498   0.806  15.220 -0.4094 -0.1610  0.5791
10397TIP3    H152606   1.449   0.789  15.140 -1.0112  1.5892  0.5159
10397TIP3    H252607   1.436   0.853  15.276  0.1179 -1.0329  1.9413
10398TIP3   OH252608   2.973   5.701   0.687 -0.4236  0.2327  0.3331
10398TIP3    H152609   2.974   5.704   0.783 -1.5823  0.9828  0.3424
10398TIP3    H252610   2.889   5.740   0.663  0.2860  0.9823 -1.0196
10399TIP3   OH252611   0.476   0.982   1.039 -0.0358 -0.3016 -0.6582
10399TIP3    H152612   0.398   1.015   0.994  0.8441  1.9788 -0.6844
10399TIP3    H252613   0.442   0.927   1.109 -1.6237 -0.0370 -1.1695
10400TIP3   OH252614   6.610   3.707  11.576  0.2007  0.1789  0.2070
10400TIP3    H152615   6.570   3.717  11.489 -1.7881  0.6234  1.1334
10400TIP3    H252616   6.677   3.639  11.563  0.9769  1.2458 -1.9698
10401TIP3   OH252617   6.153   3.989   5.456 -0.1061 -0.5826  0.6298
10401TIP3    H152618   6.103   3.970   5.535 -0.4050 -1.4007  0.2551
10401TIP3    H252619   6.244   3.993   5.485 -0.2810 -0.1447  1.1334
10402TIP3   OH252620   6.828   4.841   5.677 -0.4423  0.4880 -0.4212
10402TIP3    H152621   6.776   4.920   5.660 -0.2487  0.9813  1.1420
10402TIP3    H252622   6.849   4.846   5.770  0.4033 -0.9245 -0.5155
10403TIP3   OH252623   1.703   1.942   9.726 -0.3225 -0.3812  0.0077
10403TIP3    H152624   1.708   1.884   9.650 -0.5385 -0.9388  0.4138
10403TIP3    H252625   1.614   1.930   9.759  0.3476 -1.5918  1.4835
10404TIP3   OH252626   3.918   0.120  15.338  0.7437 -1.1516 -0.1791
10404TIP3    H152627   3.988   0.065  15.303  1.2167 -1.1345  0.7003
10404TIP3    H252628   3.927   0.113  15.433  0.8498  0.4742 -0.0307
10405TIP3   OH252629   4.773   3.131   2.037  0.2020  0.1631 -0.0957
10405TIP3    H152630   4.739   3.122   2.126 -0.0832  1.4480 -0.0562
10405TIP3    H252631   4.825   3.052   2.023 -1.5423 -1.1423  0.4061
10406TIP3   OH252632   1.714   6.227   5.265  0.4910 -0.4730  0.0032
10406TIP3    H152633   1.750   6.310   5.231  0.8690 -0.8102 -0.4420
10406TIP3    H252634   1.765   6.210   5.344  0.2330 -0.1459  0.2403
10407TIP3   OH252635   4.718   5.390  11.388  0.2933 -0.3398 -0.4928
10407TIP3    H152636   4.769   5.455  11.436 -1.7175  0.6047  0.4954
10407TIP3    H252637   4.628   5.404  11.416 -0.6146 -1.6436 -2.4697
10408TIP3   OH252638   6.452   2.179  11.716  0.4569  0.0202  0.4312
10408TIP3    H152639   6.361   2.185  11.745  0.2787  0.1210 -0.1248
10408TIP3    H252640   6.503   2.178  11.796 -0.0999 -1.4040  0.7924
10409TIP3   OH252641   0.851   1.613   1.302 -0.2003  0.2663 -0.8503
10409TIP3    H152642   0.901   1.694   1.298  2.0067 -0.9576  0.1049
10409TIP3    H252643   0.913   1.545   1.274 -1.8343 -1.1445 -1.2033
10410TIP3   OH252644   1.817   4.785   1.394  0.4826  0.5996 -0.1201
10410TIP3    H152645   1.729   4.820   1.401  0.5240  0.4269  1.7657
10410TIP3    H252646   1.811   4.718   1.325 -0.2624  2.1959 -1.6879
10411TIP3   OH252647   2.688   0.507  11.760  0.2251  0.7908 -0.0379
10411TIP3    H152648   2.719   0.457  11.684 -2.3114  0.6172 -1.0433
10411TIP3    H252649   2.738   0.472  11.834  0.4805 -1.3143 -1.1225
10412TIP3   OH252650   5.986   4.720   0.619  0.3540 -0.0336 -0.1142
10412TIP3    H152651   5.984   4.646   0.680  1.0263  0.8373  1.0148
10412TIP3    H252652   5.895   4.750   0.616 -0.0168 -1.1698 -0.9514
10413TIP3   OH252653   3.701   5.962  13.569  0.3929 -0.6307  0.3683
10413TIP3    H152654   3.763   6.026  13.604 -0.4116  0.7748 -0.6298
10413TIP3    H252655   3.628   6.016  13.537 -0.2793 -2.0673 -0.5936
10414TIP3   OH252656   3.238   6.095  11.691 -0.7772  0.9569 -0.7710
10414TIP3    H152657   3.237   6.186  11.662 -0.2743  1.6714  1.2648
10414TIP3    H252658   3.318   6.087  11.743 -1.4203 -0.3005  0.0938
10415TIP3   OH252659   6.126   6.096   9.714 -0.0329  0.3452  0.1482
10415TIP3    H152660   6.145   6.181   9.752  0.9976  0.0815  0.2589
10415TIP3    H252661   6.045   6.109   9.665 -0.2710  1.2034  0.7398
10416TIP3   OH252662   2.188   4.881  14.098 -0.4654 -0.2594 -0.1199
10416TIP3    H152663   2.151   4.832  14.024 -1.1934 -1.1357  0.8035
10416TIP3    H252664   2.130   4.957  14.106 -0.4705 -0.2362 -0.3542
10417TIP3   OH252665   0.912   5.429   5.131 -0.1827 -0.0818  0.0243
10417TIP3    H152666   0.910   5.411   5.037 -0.8224  0.8632 -0.1549
10417TIP3    H252667   0.969   5.361   5.167  1.2962  0.4304 -1.2453
10418TIP3   OH252668   6.699   6.497   1.168 -0.3043  0.0716 -0.5809
10418TIP3    H152669   6.794   6.489   1.176 -0.3016  0.6861  0.1376
10418TIP3    H252670   6.675   6.437   1.097  0.4944 -0.8384 -0.0960
10419TIP3   OH252671   6.857   3.199   3.308  0.0544 -1.2213 -0.1607
10419TIP3    H152672   6.807   3.117   3.307 -1.8416 -0.1642  1.7365
10419TIP3    H252673   6.818   3.251   3.237  0.6576 -1.5769 -0.7714
10420TIP3   OH252674   1.032   0.694   1.255 -0.4710 -0.2209 -0.5018
10420TIP3    H152675   1.039   0.770   1.313  0.3590 -1.5441  1.2398
10420TIP3    H252676   0.938   0.678   1.247 -0.7268  1.6409 -1.8716
10421TIP3   OH252677   3.420   5.342  15.520  0.1925 -0.5456 -0.5237
10421TIP3    H152678   3.370   5.350  15.439 -1.2465  0.1683  0.3887
10421TIP3    H252679   3.506   5.379  15.500 -0.3741  0.2573 -1.5300
10422TIP3   OH252680   0.914   4.296   5.899 -0.0157  0.3523 -0.4996
10422TIP3    H152681   0.927   4.215   5.948 -0.8222  1.7108  2.1425
10422TIP3    H252682   0.995   4.346   5.912 -0.5425  1.0545  0.1667
10423TIP3   OH252683   6.764   4.290   5.152 -0.1535 -0.3497 -0.1887
10423TIP3    H152684   6.848   4.245   5.162  1.3682  1.8504 -1.9814
10423TIP3    H252685   6.754   4.340   5.232  0.3925 -0.4115 -0.0792
10424TIP3   OH252686   4.828   2.152   4.652  0.2283 -0.0517 -0.4957
10424TIP3    H152687   4.911   2.198   4.666 -0.5043  1.4010 -0.7030
10424TIP3    H252688   4.764   2.203   4.702 -0.1619 -2.6558  1.9052
10425TIP3   OH252689   4.317   5.674   2.842  0.1922  0.8171  0.0966
10425TIP3    H152690   4.367   5.735   2.789  0.7673 -0.0864 -0.4362
10425TIP3    H252691   4.225   5.697   2.825  0.4111  1.9183  0.3935
10426TIP3   OH252692   6.997   1.320  12.486  0.1002 -0.3479  0.3023
10426TIP3    H152693   7.034   1.304  12.400  0.5556  0.2024  0.3925
10426TIP3    H252694   7.071   1.311  12.546 -0.0251  0.1989  0.5428
10427TIP3   OH252695   2.677   1.943   1.667  0.7449  0.1915  0.3189
10427TIP3    H152696   2.759   1.950   1.714  0.8205  0.2991  0.1714
10427TIP3    H252697   2.616   1.904   1.730  0.6911  0.8666  0.6914
10428TIP3   OH252698   6.272   5.840  11.147  0.2570 -0.6873  0.3880
10428TIP3    H152699   6.208   5.835  11.076  0.7779 -0.8076 -0.0839
10428TIP3    H252700   6.320   5.757  11.141 -0.7324 -1.4086  1.8998
10429TIP3   OH252701   3.463   0.063   6.069 -0.0716 -0.2389  0.1551
10429TIP3    H152702   3.487   0.147   6.032  0.1562 -0.8697 -1.1986
10429TIP3    H252703   3.396   0.028   6.009 -0.5450 -0.7939  0.9785
10430TIP3   OH252704   0.793   4.901   6.101 -0.2713 -0.0418 -0.1864
10430TIP3    H152705   0.875   4.914   6.053  0.1751 -1.7056  0.0530
10430TIP3    H252706   0.783   4.980   6.154  0.8110  0.4781 -0.7284
10431TIP3   OH252707   6.562   2.240   5.439 -0.3588 -0.4639  0.7154
10431TIP3    H152708   6.553   2.278   5.351  2.2410 -1.2367  0.0342
10431TIP3    H252709   6.525   2.306   5.497  0.8387  1.5883 -0.7160
10432TIP3   OH252710   1.694   5.400   2.781 -0.6293 -0.6384 -0.3817
10432TIP3    H152711   1.629   5.418   2.849 -0.0162  1.1308 -0.2111
10432TIP3    H252712   1.665   5.451   2.706  0.6193  0.2818 -0.2567
10433TIP3   OH252713   1.723   1.636   3.787  0.5060 -0.6291 -0.4913
10433TIP3    H152714   1.787   1.564   3.786 -0.5306 -1.5730 -1.1491
10433TIP3    H252715   1.728   1.671   3.876  3.4855  0.7831 -1.0914
10434TIP3   OH252716   4.366   0.300   3.237  0.4322 -0.0302  0.3601
10434TIP3    H152717   4.352   0.225   3.179 -2.6280  0.3946  0.3977
10434TIP3    H252718   4.457   0.325   3.222  0.4493 -1.4073 -2.4924
10435TIP3   OH252719   1.242   2.129   4.488 -0.3643  0.3452 -0.4465
10435TIP3    H152720   1.179   2.092   4.425  1.2398 -1.0103 -1.3310
10435TIP3    H252721   1.326   2.128   4.441  0.5484  1.0420  1.1011
10436TIP3   OH252722   4.364   5.425  13.099  0.5429 -0.2766 -0.3340
10436TIP3    H152723   4.450   5.441  13.059 -0.4076 -0.1847 -2.4528
10436TIP3    H252724   4.330   5.512  13.119  0.8667 -0.3093  0.4104
10437TIP3   OH252725   5.300   0.289   2.427 -0.3454 -0.4162 -0.1808
10437TIP3    H152726   5.213   0.316   2.456 -1.3418 -0.8162 -2.5600
10437TIP3    H252727   5.286   0.252   2.340  2.0458 -1.6585 -0.1188
10438TIP3   OH252728   2.681   0.941  13.755  0.0644 -0.1114 -0.1646
10438TIP3    H152729   2.754   0.892  13.716 -0.3328 -0.4075 -0.5541
10438TIP3    H252730   2.719   0.987  13.829  0.8384  0.4616 -0.9090
10439TIP3   OH252731   4.414   3.393   3.685 -0.1124  0.1018 -0.4655
10439TIP3    H152732   4.496   3.443   3.688 -0.3989  0.6661 -1.5147
10439TIP3    H252733   4.355   3.447   3.634 -0.0956 -1.7653 -2.6407
10440TIP3   OH252734   6.945   5.768  15.220 -0.2594  0.0067  0.2440
10440TIP3    H152735   6.962   5.858  15.194 -0.3182  0.3149  1.2418
10440TIP3    H252736   6.986   5.715  15.151 -0.2327  0.7849 -0.3542
10441TIP3   OH252737   0.346   2.683   0.966 -0.0154  0.2979 -0.2555
10441TIP3    H152738   0.299   2.609   0.928 -0.0420  1.4128 -2.5758
10441TIP3    H252739   0.285   2.757   0.958  1.7000  1.6014 -2.6006
10442TIP3   OH252740   6.558   2.274   1.025  0.2852  0.1756  0.1072
10442TIP3    H152741   6.608   2.217   0.967  0.9870  0.5296  0.3397
10442TIP3    H252742   6.504   2.326   0.966 -1.9693 -2.1325 -0.0109
10443TIP3   OH252743   3.852   0.858  15.286 -0.2119  0.2541  0.1627
10443TIP3    H152744   3.824   0.943  15.320  0.9548  0.2305  1.2693
10443TIP3    H252745   3.859   0.802  15.364 -0.1702 -0.6285 -0.4556
10444TIP3   OH252746   3.080   1.769  15.223  0.3900  0.0068  0.1977
10444TIP3    H152747   3.052   1.690  15.268  0.0836 -0.3113 -0.5350
10444TIP3    H252748   3.076   1.838  15.290 -0.5521 -0.3541  0.5162
10445TIP3   OH252749   0.793   0.608  13.473 -0.0127 -0.2168  0.5867
10445TIP3    H152750   0.725   0.547  13.503 -1.5225  0.8027 -0.6099
10445TIP3    H252751   0.769   0.691  13.514 -0.4283  0.5166 -1.0817
10446TIP3   OH252752   3.599   4.327   2.439 -0.2556  0.0930  0.3021
10446TIP3    H152753   3.680   4.294   2.478  0.6689  0.6622 -1.0730
10446TIP3    H252754   3.560   4.381   2.507  1.0114  0.5885  0.6617
10447TIP3   OH252755   1.342   3.972   2.844  0.1458 -0.6031 -0.1729
10447TIP3    H152756   1.374   3.891   2.805  0.7457 -0.5541  0.2016
10447TIP3    H252757   1.393   4.041   2.803 -1.5850 -0.2198 -1.8096
10448TIP3   OH252758   1.883   3.215   3.921  0.3872  0.3441  0.0183
10448TIP3    H152759   1.966   3.178   3.893 -1.2661 -1.2556 -3.2779
10448TIP3    H252760   1.870   3.292   3.865 -0.4600  0.4088  0.2811
10449TIP3   OH252761   3.306   0.788  11.074  0.2436  0.3769  0.6245
10449TIP3    H152762   3.342   0.704  11.045  0.9791  0.4982  1.1627
10449TIP3    H252763   3.333   0.795  11.166 -0.8707  0.6338  0.9421
10450TIP3   OH252764   0.383   2.646   4.313 -0.3470  0.3775  0.4254
10450TIP3    H152765   0.448   2.667   4.247 -0.1464 -1.9439 -0.2134
10450TIP3    H252766   0.376   2.725   4.366  1.7751  1.2398 -0.4696
10451TIP3   OH252767   1.352   4.300  14.030 -0.2249  0.2775  0.5795
10451TIP3    H152768   1.271   4.314  14.081 -1.5096  0.8306 -1.4990
10451TIP3    H252769   1.385   4.388  14.012 -0.8928  0.2155 -1.1520
10452TIP3   OH252770   6.654   5.535   4.176 -0.2558  0.0347  0.8267
10452TIP3    H152771   6.706   5.477   4.231  1.1309 -0.1075 -0.5555
10452TIP3    H252772   6.595   5.580   4.236 -0.0986 -1.4578  2.1649
10453TIP3   OH252773   0.051   2.251   1.365  0.2887  0.0892  0.1828
10453TIP3    H152774   0.094   2.336   1.379 -3.8357  2.5516 -0.3764
10453TIP3    H252775   0.020   2.226   1.451 -0.0974  0.1096  0.0485
10454TIP3   OH252776   2.671   4.525  10.691  0.2866  0.3856 -0.4652
10454TIP3    H152777   2.612   4.501  10.619 -0.5055 -2.0633  0.9128
10454TIP3    H252778   2.723   4.447  10.707  3.2157  2.1069 -0.8560
10455TIP3   OH252779   0.251   3.561   3.938 -0.0269  0.5302  0.1668
10455TIP3    H152780   0.251   3.564   3.843  0.5941  0.8275  0.1757
10455TIP3    H252781   0.186   3.627   3.964  0.1982  0.8301 -0.0369
10456TIP3   OH252782   2.492   5.443   0.313  0.1074 -0.1084 -0.0264
10456TIP3    H152783   2.545   5.364   0.323  1.4751  0.7921  0.0828
10456TIP3    H252784   2.412   5.424   0.363  0.2995 -1.4930 -0.1913
10457TIP3   OH252785   2.314   6.546   3.260 -0.1491  0.1327  0.0106
10457TIP3    H152786   2.221   6.565   3.245 -0.2783 -1.3848 -1.4406
10457TIP3    H252787   2.314   6.489   3.337 -0.3041  0.9224  0.6141
10458TIP3   OH252788   1.185   5.415  14.614  0.4873  0.0687 -0.7326
10458TIP3    H152789   1.212   5.334  14.657  0.1442 -0.2562 -1.1213
10458TIP3    H252790   1.263   5.446  14.568  0.3401 -0.6033 -1.4526
10459TIP3   OH252791   3.345   3.914  13.966 -0.0858 -0.2377  0.1380
10459TIP3    H152792   3.380   3.929  13.878  1.4912 -0.9159  0.6254
10459TIP3    H252793   3.268   3.971  13.971  0.2501  0.3924 -1.3979
10460TIP3   OH252794   4.674   1.993  13.571  0.3874  0.3278 -0.1056
10460TIP3    H152795   4.638   1.982  13.660  1.7715  0.9323  0.5514
10460TIP3    H252796   4.705   1.906  13.548 -0.6385  0.0016 -0.3117
10461TIP3   OH252797   1.270   5.242  13.357 -0.0985  1.0536  0.1722
10461TIP3    H152798   1.254   5.309  13.291 -2.5482  0.8466  0.4664
10461TIP3    H252799   1.267   5.159  13.309  2.5064  1.0577 -0.1218
10462TIP3   OH252800   2.963   0.833   4.577 -0.7485  0.5359  0.2529
10462TIP3    H152801   2.915   0.752   4.565 -1.6132  1.1238 -0.3507
10462TIP3    H252802   3.011   0.821   4.659  0.7039 -1.3337 -0.7758
10463TIP3   OH252803   2.859   6.354   4.574 -0.1296  0.5482 -0.0555
10463TIP3    H152804   2.822   6.435   4.539  1.9701  2.1489  1.2341
10463TIP3    H252805   2.876   6.373   4.666  3.7632 -0.0165 -0.4981
10464TIP3   OH252806   0.255   1.520   1.557 -0.6594 -0.4917 -0.0948
10464TIP3    H152807   0.320   1.471   1.507 -0.0835 -0.0510  0.2122
10464TIP3    H252808   0.202   1.564   1.490 -0.1004 -0.1661 -0.3367
10465TIP3   OH252809   1.821   0.138  14.018 -0.1675  0.0041  0.2427
10465TIP3    H152810   1.916   0.145  14.026  0.1305 -1.9611 -0.9289
10465TIP3    H252811   1.803   0.162  13.927 -0.6692 -0.4128  0.2250
10466TIP3   OH252812   6.800   5.389   9.940  0.0942 -0.2035 -0.3377
10466TIP3    H152813   6.889   5.354   9.952  0.2031 -0.3006 -1.3826
10466TIP3    H252814   6.768   5.346   9.861 -0.1687  1.2403 -1.0514
10467TIP3   OH252815   0.825   0.583   3.618 -0.1156  0.0641  0.2782
10467TIP3    H152816   0.753   0.572   3.680  1.1867 -0.2451  1.7929
10467TIP3    H252817   0.816   0.509   3.558 -1.6637  0.6227 -0.2388
10468TIP3   OH252818   5.058   0.785   4.875  0.5332  0.1986  0.9421
10468TIP3    H152819   5.096   0.872   4.864 -1.9545  1.2495  0.0058
10468TIP3    H252820   4.996   0.794   4.947 -2.3695  0.2542 -1.3841
10469TIP3   OH252821   0.353   7.113  13.321  0.6488  0.3896 -0.3860
10469TIP3    H152822   0.401   7.056  13.261 -1.0974 -1.3472 -0.2093
10469TIP3    H252823   0.272   7.066  13.341  0.2428  1.8224  1.7437
10470TIP3   OH252824   0.942   2.611   2.327  0.1468 -0.0658 -0.3293
10470TIP3    H152825   0.890   2.689   2.348 -0.4662 -0.6241  0.2704
10470TIP3    H252826   0.932   2.600   2.233 -0.8223 -0.1626 -0.2180
10471TIP3   OH252827   5.785   0.221   3.800 -0.4764 -0.0830 -0.0554
10471TIP3    H152828   5.764   0.227   3.893  1.3873 -2.3181  0.5939
10471TIP3    H252829   5.742   0.141   3.771  0.0067 -0.0722 -0.8139
10472TIP3   OH252830   2.398   4.691   1.444  1.0923 -0.3183  0.1885
10472TIP3    H152831   2.408   4.631   1.370  3.3127 -1.2861  1.1768
10472TIP3    H252832   2.466   4.757   1.430 -1.1517  1.9799 -0.7544
10473TIP3   OH252833   4.877   5.292   3.800 -0.2343  0.3672  0.0013
10473TIP3    H152834   4.961   5.276   3.756  1.1076 -1.4280  2.8496
10473TIP3    H252835   4.895   5.366   3.858 -0.6707  0.1275  0.4488
10474TIP3   OH252836   1.118   4.183   4.261 -0.0432 -0.1472 -0.4811
10474TIP3    H152837   1.175   4.260   4.265 -1.1972  0.7172  0.7659
10474TIP3    H252838   1.174   4.112   4.230  1.6251  0.7211  0.3953
10475TIP3   OH252839   3.137   2.377  12.115  0.4021 -0.2508 -0.6869
10475TIP3    H152840   3.144   2.386  12.020 -1.7482 -0.0647 -0.8861
10475TIP3    H252841   3.051   2.413  12.136  0.1664 -1.7299  1.1323
10476TIP3   OH252842   1.988   5.551   2.874  0.5644  0.3476  1.1372
10476TIP3    H152843   2.079   5.531   2.894  0.0218 -2.5501  1.1749
10476TIP3    H252844   1.954   5.591   2.954  1.2677 -0.6041  1.9377
10477TIP3   OH252845   0.902   6.242  11.818 -0.1956  0.3675  0.1281
10477TIP3    H152846   0.824   6.288  11.787 -0.3120  0.4127  0.4838
10477TIP3    H252847   0.975   6.283  11.772 -0.6456 -2.0577 -3.0872
10478TIP3   OH252848   2.604   6.909   4.540  0.4725 -0.1818  0.0982
10478TIP3    H152849   2.635   6.866   4.460  3.3063  0.6857  0.6313
10478TIP3    H252850   2.666   6.882   4.607 -2.5826 -1.9792  2.4723
10479TIP3   OH252851   2.180   6.517  12.760  0.2161 -0.0255 -0.5040
10479TIP3    H152852   2.146   6.485  12.844  2.3048 -1.5996 -0.1704
10479TIP3    H252853   2.259   6.566  12.783  0.0102  0.7844 -1.4668
10480TIP3   OH252854   3.754   2.512   1.500 -0.2438  0.1257 -0.2018
10480TIP3    H152855   3.712   2.470   1.425 -0.1856  0.1859 -0.2674
10480TIP3    H252856   3.684   2.517   1.566 -0.0291 -0.8497  0.1198
10481TIP3   OH252857   5.735   3.182  13.094 -0.6072 -0.3745  0.0646
10481TIP3    H152858   5.691   3.253  13.047 -1.0717  0.4168  1.6234
10481TIP3    H252859   5.827   3.188  13.066 -0.0780  2.4743  1.9057
10482TIP3   OH252860   2.852   5.194   0.634 -0.5906  0.5711 -0.1600
10482TIP3    H152861   2.871   5.105   0.604  0.8457  0.5433  0.7526
10482TIP3    H252862   2.809   5.182   0.719 -1.0844  0.7526 -0.3767
10483TIP3   OH252863   2.670   4.350  13.224  0.1831  0.3840  0.1124
10483TIP3    H152864   2.731   4.278  13.209  0.0664  0.4469 -0.6865
10483TIP3    H252865   2.594   4.308  13.264  0.2848  0.1263  0.0427
10484TIP3   OH252866   4.456   1.038  12.125 -0.0189 -0.5452  0.1839
10484TIP3    H152867   4.433   1.123  12.163  0.6133  0.1642 -0.9433
10484TIP3    H252868   4.432   0.974  12.192 -2.4810  0.3322  0.2521
10485TIP3   OH252869   4.043   0.160   1.291  0.4622 -0.2630 -0.1740
10485TIP3    H152870   4.035   0.071   1.257  0.4320 -0.5635  0.6020
10485TIP3    H252871   3.981   0.211   1.240 -0.0355 -0.8331 -0.1477
10486TIP3   OH252872   6.793   1.224   4.339 -0.0849  0.3553  0.5805
10486TIP3    H152873   6.806   1.294   4.403 -0.7218  0.3662  0.7117
10486TIP3    H252874   6.831   1.146   4.380 -2.6914 -0.2385  2.1683
10487TIP3   OH252875   1.951   4.309  12.189 -0.5478  0.4132 -0.2152
10487TIP3    H152876   2.010   4.260  12.132  1.2628 -0.6738  2.3571
10487TIP3    H252877   1.958   4.399  12.160  3.3895  0.5570  0.5809
10488TIP3   OH252878   0.952   6.483   1.590 -0.6664 -0.8945  0.2965
10488TIP3    H152879   0.861   6.457   1.605 -1.0457 -0.1873 -0.6941
10488TIP3    H252880   0.989   6.410   1.540 -1.3127 -0.2652 -1.1739
10489TIP3   OH252881   0.913   0.316   3.802  0.2077  0.2706  1.1339
10489TIP3    H152882   0.948   0.263   3.730 -0.4654 -2.3818  2.6287
10489TIP3    H252883   0.879   0.394   3.759  0.3616 -0.9196 -1.3531
10490TIP3   OH252884   3.112   3.265   1.141 -0.2851  0.0718 -0.0672
10490TIP3    H152885   3.116   3.172   1.165  0.8441 -0.3585 -1.6914
10490TIP3    H252886   3.034   3.298   1.185 -1.0770 -1.8105  0.0447
10491TIP3   OH252887   1.555   0.381   3.526 -0.6122  0.7452  0.4826
10491TIP3    H152888   1.650   0.376   3.531 -0.6078  0.1543 -0.0660
10491TIP3    H252889   1.524   0.298   3.561 -0.8454  0.1250 -1.0882
10492TIP3   OH252890   6.275   2.060   3.279  0.2505  0.1037  0.4630
10492TIP3    H152891   6.293   1.974   3.316 -0.8671  0.1913  1.2794
10492TIP3    H252892   6.302   2.053   3.188  2.6257 -0.2798  1.1113
10493TIP3   OH252893   4.567   2.091   0.944  0.0161 -0.4981 -0.4344
10493TIP3    H152894   4.650   2.045   0.934  0.7004  0.4878  0.5401
10493TIP3    H252895   4.548   2.086   1.037 -0.5473  0.1138 -0.5111
10494TIP3   OH252896   4.943   0.462   6.093 -0.3103  0.4880 -0.0168
10494TIP3    H152897   4.996   0.431   6.020 -0.9857 -0.6628 -0.0385
10494TIP3    H252898   4.977   0.550   6.111  1.8533 -0.3253  0.2063
10495TIP3   OH252899   0.664   6.786   2.021 -0.3461  0.3242  0.4050
10495TIP3    H152900   0.644   6.708   2.073  0.1226  0.5722  0.9667
10495TIP3    H252901   0.605   6.781   1.946 -1.4743  0.2687  1.2664
10496TIP3   OH252902   5.054   1.606   4.764  0.0089 -0.0890  0.4792
10496TIP3    H152903   5.041   1.654   4.846 -2.5490 -1.8089  1.1967
10496TIP3    H252904   5.010   1.660   4.698 -0.6853 -0.2035  0.8356
10497TIP3   OH252905   0.399   6.226   4.389  0.1936  0.7387 -0.7513
10497TIP3    H152906   0.434   6.244   4.476  0.5198  0.6218 -0.8559
10497TIP3    H252907   0.304   6.219   4.402  0.0211  2.5555 -0.7105
10498TIP3   OH252908   2.881   3.739  14.474  0.6929  0.1454  0.0038
10498TIP3    H152909   2.819   3.675  14.509  0.8073  1.1514  2.2442
10498TIP3    H252910   2.835   3.780  14.401 -0.1925 -1.0001 -0.1181
10499TIP3   OH252911   2.342   3.821  14.325  0.7740 -0.3324 -0.2158
10499TIP3    H152912   2.293   3.841  14.245 -0.0471  1.0694  0.5973
10499TIP3    H252913   2.294   3.748  14.365 -0.4415  0.7329  0.3450
10500TIP3   OH252914   3.139   6.620   5.336 -0.2475  0.0995 -0.5711
10500TIP3    H152915   3.210   6.684   5.347  0.6930 -1.0323  0.2676
10500TIP3    H252916   3.059   6.670   5.351  0.3744  1.3566 -1.2646
10501TIP3   OH252917   4.154   0.687   4.610  0.1342  0.4983 -0.0962
10501TIP3    H152918   4.129   0.744   4.537  0.3137  1.0027  0.2303
10501TIP3    H252919   4.247   0.704   4.622  0.0314  0.6701  0.4709
10502TIP3   OH252920   3.617   5.373  10.222  0.5784  0.4341  0.0568
10502TIP3    H152921   3.562   5.448  10.197 -0.3360  0.1056  1.0503
10502TIP3    H252922   3.702   5.413  10.241  0.8814  0.8907 -1.9538
10503TIP3   OH252923   1.256   0.674   3.979 -0.3251  0.2411  0.6727
10503TIP3    H152924   1.163   0.658   3.995  0.0371 -2.1352  0.8047
10503TIP3    H252925   1.257   0.730   3.901 -1.8808 -1.1023 -0.4115
10504TIP3   OH252926   5.379   5.950  15.288 -0.7018 -0.1951  0.1205
10504TIP3    H152927   5.464   5.930  15.249 -0.1035  1.3382  0.5529
10504TIP3    H252928   5.387   6.042  15.315 -2.5543  0.0219  0.0254
10505TIP3   OH252929   6.165   3.287   2.139 -0.1442 -0.6936 -0.4925
10505TIP3    H152930   6.105   3.279   2.065  1.4971  2.1842 -2.3135
10505TIP3    H252931   6.242   3.236   2.113 -0.6221 -2.0020  0.5568
10506TIP3   OH252932   3.502   4.204   5.177 -0.2085 -0.4417  0.3798
10506TIP3    H152933   3.488   4.242   5.091 -1.5224 -0.4367  0.5778
10506TIP3    H252934   3.434   4.136   5.185  0.2772 -0.8542  1.1669
10507TIP3   OH252935   5.855   2.321  14.859  0.5126 -1.0440 -0.1214
10507TIP3    H152936   5.876   2.234  14.826 -1.5058 -1.6937  0.2011
10507TIP3    H252937   5.880   2.319  14.951 -1.7578 -2.1763  0.5433
10508TIP3   OH252938   6.286   3.543   4.691 -0.3388  0.5659 -0.1058
10508TIP3    H152939   6.371   3.573   4.660 -1.0964  2.1215 -0.7827
10508TIP3    H252940   6.245   3.501   4.615  0.9765 -3.1125  0.9818
10509TIP3   OH252941   1.893   3.109   4.590 -0.1617 -0.0474 -0.0601
10509TIP3    H152942   1.838   3.187   4.590  0.8953  0.7178  0.2754
10509TIP3    H252943   1.860   3.056   4.662 -1.1827 -0.1396 -0.5812
10510TIP3   OH252944   4.157   6.992   4.348  0.1230  0.0921  0.2479
10510TIP3    H152945   4.181   7.013   4.438  0.5500 -0.7821  0.3555
10510TIP3    H252946   4.241   6.986   4.301  0.1057 -1.9276  0.3810
10511TIP3   OH252947   1.568   0.047   2.710  0.3904  0.1236  0.1764
10511TIP3    H152948   1.475   0.023   2.700  0.6703 -0.1085 -2.3973
10511TIP3    H252949   1.575   0.074   2.802 -2.3129  0.5543  0.3478
10512TIP3   OH252950   5.298   3.142   4.180 -0.6382  0.2926  0.0154
10512TIP3    H152951   5.327   3.198   4.108 -2.7776  0.7433 -0.5906
10512TIP3    H252952   5.224   3.093   4.143 -0.9515 -0.4345  1.5370
10513TIP3   OH252953   0.060   6.810   5.589  0.3640 -0.2962  0.3900
10513TIP3    H152954   0.147   6.796   5.626  0.4579  0.4411  0.4730
10513TIP3    H252955   0.076   6.844   5.501  0.2263  1.9553  1.1688
10514TIP3   OH252956   1.872   5.411  12.763 -0.0563 -0.0270  0.9370
10514TIP3    H152957   1.932   5.439  12.694 -0.3173  0.6305  0.9679
10514TIP3    H252958   1.786   5.442  12.734 -0.5913 -1.9729  0.3145
10515TIP3   OH252959   1.076   1.338  15.132 -0.4303 -0.2368  0.3329
10515TIP3    H152960   1.135   1.414  15.138 -0.4314 -0.2018 -0.0547
10515TIP3    H252961   1.121   1.278  15.073 -1.0376  0.0300 -0.4161
10516TIP3   OH252962   0.383   4.615   3.594 -0.0629 -0.5911 -0.1577
10516TIP3    H152963   0.328   4.692   3.605 -1.3457 -1.4303 -0.4780
10516TIP3    H252964   0.394   4.606   3.499  0.6166 -0.4476 -0.0989
10517TIP3   OH252965   3.872   4.598   1.178  0.0596  0.0985 -0.5231
10517TIP3    H152966   3.955   4.554   1.162  0.9272  2.0578 -1.7601
10517TIP3    H252967   3.885   4.644   1.262 -0.2089 -0.5207 -0.1349
10518TIP3   OH252968   0.253   2.762  14.147  0.4260 -0.4296 -0.2752
10518TIP3    H152969   0.293   2.809  14.075  1.7621 -0.7967  0.1967
10518TIP3    H252970   0.178   2.816  14.173 -0.6930 -0.7669 -2.5258
10519TIP3   OH252971   5.531   4.824   4.732  0.3174  0.0875  0.5267
10519TIP3    H152972   5.446   4.786   4.754  1.3899 -1.8919  1.5529
10519TIP3    H252973   5.518   4.918   4.742 -1.6903 -0.1626  0.8368
10520TIP3   OH252974   0.109   3.990   2.978  0.7669 -0.1931  0.2289
10520TIP3    H152975   0.099   3.957   2.888  0.5562  0.2459  0.0915
10520TIP3    H252976   0.036   4.050   2.990  1.8373  1.1874  0.0534
10521TIP3   OH252977   4.503   0.403   3.554  0.9821 -0.5301 -0.3951
10521TIP3    H152978   4.512   0.435   3.644 -1.3235 -1.2068  0.1534
10521TIP3    H252979   4.528   0.477   3.499  2.3150 -0.0692  0.7759
10522TIP3   OH252980   5.297   0.418   5.532 -0.1560 -0.1295  0.1781
10522TIP3    H152981   5.235   0.344   5.528  1.9962 -1.9792 -2.0216
10522TIP3    H252982   5.365   0.389   5.592  1.4577 -0.6787 -1.7995
10523TIP3   OH252983   5.883   4.560  12.504 -0.5799 -0.2399  0.6198
10523TIP3    H152984   5.959   4.566  12.562 -0.1272 -0.9900  0.1331
10523TIP3    H252985   5.900   4.481  12.452  0.3315  1.7419 -2.3403
10524TIP3   OH252986   2.114   6.293  14.466  0.3335  0.9553  0.4918
10524TIP3    H152987   2.140   6.366  14.410 -2.5193  1.2706 -0.5685
10524TIP3    H252988   2.056   6.240  14.411 -0.0639 -0.4657  2.1931
10525TIP3   OH252989   6.591   5.917   0.184 -0.5286  0.4387 -0.0381
10525TIP3    H152990   6.665   5.857   0.174 -0.2411  0.4195  1.9179
10525TIP3    H252991   6.625   6.002   0.156  0.2569  0.4297  0.8434
10526TIP3   OH252992   3.182   4.746   5.186 -0.3230 -0.5401 -0.2460
10526TIP3    H152993   3.240   4.674   5.208  1.3077  0.8521  0.2409
10526TIP3    H252994   3.201   4.813   5.251 -1.4769  0.5011 -0.9285
10527TIP3   OH252995   4.980   4.693   4.623  0.2961  0.6323 -0.1210
10527TIP3    H152996   4.912   4.638   4.663 -0.2528  1.4950  0.1508
10527TIP3    H252997   4.947   4.709   4.534  1.4504 -1.1747 -0.9532
10528TIP3   OH252998   6.430   7.118   0.912  0.3999  0.4268  0.1653
10528TIP3    H152999   6.467   7.147   0.995 -0.4763 -0.3850  0.8632
10528TIP3    H253000   6.391   7.197   0.874 -0.9655  0.4374  1.4977
10529TIP3   OH253001   4.051   3.025   3.452  0.3045 -0.1806 -0.1425
10529TIP3    H153002   4.121   3.065   3.400 -0.4162 -0.0719 -1.0477
10529TIP3    H253003   3.977   3.084   3.443 -0.2814 -0.9037 -0.2010
10530TIP3   OH253004   0.048   4.427  10.154  0.0509 -0.3416  0.3352
10530TIP3    H153005   0.002   4.448  10.074 -1.2789  1.4750  1.5038
10530TIP3    H253006   0.126   4.380  10.125  0.2756  1.3489 -2.1057
10531TIP3   OH253007   5.914   1.075   0.514  0.5056 -0.1251 -0.3546
10531TIP3    H153008   5.960   1.014   0.456  0.0841 -0.4145 -0.3887
10531TIP3    H253009   5.865   1.020   0.574  2.2966  0.1311  1.4490
10532TIP3   OH253010   1.209   2.341   0.801  0.2910 -0.3075  0.7489
10532TIP3    H153011   1.174   2.352   0.713  1.2094 -1.9921  0.1259
10532TIP3    H253012   1.134   2.353   0.859 -0.2934  0.9892 -0.2282
10533TIP3   OH253013   6.601   4.516  12.499  0.0468 -0.2707 -0.2018
10533TIP3    H153014   6.543   4.498  12.425  0.1543 -3.3092  0.3035
10533TIP3    H253015   6.683   4.472  12.477 -0.4075 -2.5915  2.2323
10534TIP3   OH253016   5.387   3.788   4.794  0.0234 -0.0863  0.2845
10534TIP3    H153017   5.399   3.695   4.816 -0.3691 -0.1181  0.3739
10534TIP3    H253018   5.407   3.834   4.875 -0.3964 -0.1353  0.4177
10535TIP3   OH253019   4.918   6.759  11.627  0.8415 -0.0784  0.6597
10535TIP3    H153020   4.931   6.709  11.546 -1.5118  1.2041 -0.6371
10535TIP3    H253021   4.957   6.845  11.608 -0.0797  0.3605  0.6798
10536TIP3   OH253022   5.507   0.741   4.284 -0.2660 -0.0900 -0.0945
10536TIP3    H153023   5.598   0.717   4.272 -0.0858  0.3994  0.2640
10536TIP3    H253024   5.509   0.814   4.346 -0.9188 -0.2601  0.1330
10537TIP3   OH253025   2.572   1.851  12.555 -0.7725  0.0583  0.0546
10537TIP3    H153026   2.504   1.820  12.615  1.1548 -0.1706  2.2391
10537TIP3    H253027   2.646   1.791  12.569  0.4888  1.3000 -0.9851
10538TIP3   OH253028   0.880   6.957   2.180  0.2737 -0.2760 -0.6221
10538TIP3    H153029   0.808   7.009   2.217 -0.0264 -0.6163 -0.7261
10538TIP3    H253030   0.838   6.878   2.148  0.5478 -0.0357 -1.6025
10539TIP3   OH253031   2.879   1.154  10.019 -0.3727 -0.4697 -0.3220
10539TIP3    H153032   2.972   1.139  10.001  0.2350  0.2934  1.8133
10539TIP3    H253033   2.874   1.247  10.041 -1.6967 -0.4463 -0.6518
10540TIP3   OH253034   3.025   0.678   1.757 -0.0662  0.5116  0.1831
10540TIP3    H153035   3.014   0.583   1.745 -0.3421  0.6836 -1.1129
10540TIP3    H253036   3.120   0.691   1.758  0.0570 -0.0453  3.0292
10541TIP3   OH253037   0.754   2.834  12.153  0.3154  0.0780 -0.2597
10541TIP3    H153038   0.788   2.866  12.236  0.0175  1.3287 -0.5926
10541TIP3    H253039   0.659   2.839  12.162  0.2423 -1.3188 -0.1117
10542TIP3   OH253040   7.090   3.503   0.010 -0.3695 -0.1821  0.3091
10542TIP3    H153041   7.035   3.561  -0.042 -0.5779 -0.2775  0.4217
10542TIP3    H253042   7.178   3.512  -0.028 -0.5634 -0.4164 -0.1970
10543TIP3   OH253043   3.099   6.810   1.568  0.1992 -0.1142  0.7172
10543TIP3    H153044   3.085   6.718   1.589  2.1369 -0.3399  1.1766
10543TIP3    H253045   3.018   6.853   1.595 -0.9723 -1.7321 -0.0316
10544TIP3   OH253046   2.617   6.531   3.444  0.3424  0.3555 -0.0108
10544TIP3    H153047   2.647   6.455   3.396 -0.7157 -0.0930  0.0084
10544TIP3    H253048   2.547   6.498   3.500  0.0894  1.2765  0.2374
10545TIP3   OH253049   5.210   1.568  13.398 -0.3161 -0.6928  0.2131
10545TIP3    H153050   5.242   1.502  13.461  3.6493  1.0648  0.3287
10545TIP3    H253051   5.194   1.646  13.451 -0.0493 -0.1096 -0.5490
10546TIP3   OH253052   0.167   0.857   4.922  0.4581 -0.0632 -0.1068
10546TIP3    H153053   0.170   0.826   4.832 -1.5484 -2.0453  0.4093
10546TIP3    H253054   0.074   0.871   4.939  0.9708  2.6947  0.9483
10547TIP3   OH253055   1.612   1.864   3.659 -0.2656  0.8626  0.4581
10547TIP3    H153056   1.563   1.829   3.585  0.7589  0.9067 -0.2685
10547TIP3    H253057   1.642   1.786   3.707 -0.3084  0.8136  0.4049
10548TIP3   OH253058   1.185   1.469  14.164 -0.0516 -0.2786  0.1266
10548TIP3    H153059   1.206   1.560  14.142 -2.0061  0.1233 -0.3187
10548TIP3    H253060   1.132   1.439  14.090  0.6274 -1.8214  0.2378
10549TIP3   OH253061   6.821   5.536   2.006  0.3216  0.0504  0.4577
10549TIP3    H153062   6.824   5.546   2.101  1.4500 -0.5435  0.4960
10549TIP3    H253063   6.729   5.554   1.983 -0.0384 -0.1154  1.6903
10550TIP3   OH253064   4.124   6.516   2.478 -0.3231 -0.0105 -0.0883
10550TIP3    H153065   4.070   6.549   2.406  0.4440 -0.3494 -0.8307
10550TIP3    H253066   4.208   6.560   2.468  0.1707 -0.9375 -0.0964
10551TIP3   OH253067   1.990   5.278  15.222 -0.5873 -0.1111 -0.4140
10551TIP3    H153068   2.052   5.206  15.234  0.1155  0.5979  0.2940
10551TIP3    H253069   1.983   5.288  15.127  1.5260  0.7315 -0.5249
10552TIP3   OH253070   1.272   5.434   2.571 -1.1651  0.2003  0.0539
10552TIP3    H153071   1.212   5.505   2.595 -1.7779 -0.4148  0.3797
10552TIP3    H253072   1.219   5.355   2.577 -0.5440 -0.2716 -0.5085
10553TIP3   OH253073   1.026   5.129   4.701 -0.2374 -0.2411 -0.0140
10553TIP3    H153074   0.968   5.054   4.689 -0.4202  0.2874 -3.0357
10553TIP3    H253075   1.098   5.115   4.640  0.1798  1.6232 -0.0183
10554TIP3   OH253076   6.032   3.964   1.427 -0.0733 -0.1325 -0.3489
10554TIP3    H153077   5.971   4.036   1.446 -0.5834 -0.6204 -0.0834
10554TIP3    H253078   5.982   3.884   1.448  1.0738 -0.5210  1.1561
10555TIP3   OH253079   0.744   1.822  14.479 -0.2700  0.1537  0.1485
10555TIP3    H153080   0.753   1.749  14.418 -0.1072  0.7156 -0.5132
10555TIP3    H253081   0.785   1.792  14.559  1.2275  0.0843 -0.6158
10556TIP3   OH253082   6.697   1.563  15.053 -0.1896  0.1338 -0.0264
10556TIP3    H153083   6.788   1.556  15.022 -0.5352 -0.2970 -1.0026
10556TIP3    H253084   6.676   1.475  15.084 -0.7540 -0.1900 -1.2557
10557TIP3   OH253085   4.824   0.213  14.064 -0.0987 -0.3160  0.0505
10557TIP3    H153086   4.915   0.188  14.077  0.1238  0.7250  0.6100
10557TIP3    H253087   4.776   0.168  14.133  0.2367  0.4193  0.7800
10558TIP3   OH253088   6.465   4.496   4.545 -0.4946 -0.0302 -0.3177
10558TIP3    H153089   6.394   4.557   4.525 -0.4837  0.0478 -0.1161
10558TIP3    H253090   6.537   4.524   4.488 -0.4151  0.2819 -0.0647
10559TIP3   OH253091   3.665   2.391  14.617 -0.1511 -0.7273 -0.8954
10559TIP3    H153092   3.720   2.423  14.689 -1.3882 -0.7396  0.0973
10559TIP3    H253093   3.726   2.375  14.545  1.2664 -1.5551  0.4260
10560TIP3   OH253094   0.707   4.958  13.108 -0.5619  0.1878 -0.1065
10560TIP3    H153095   0.626   4.947  13.159 -0.4881 -2.7031 -0.4154
10560TIP3    H253096   0.775   4.921  13.163 -0.3189 -2.0706 -1.7652
10561TIP3   OH253097   1.717   6.796  10.432  0.1214  0.4596  0.1098
10561TIP3    H153098   1.706   6.793  10.527 -1.6765 -0.0643 -0.0896
10561TIP3    H253099   1.797   6.746  10.416 -0.0293 -0.1921  1.2666
10562TIP3   OH253100   4.566   5.567   2.916 -0.8324  0.1292 -0.0829
10562TIP3    H153101   4.484   5.582   2.870 -1.4772  0.1376  1.0337
10562TIP3    H253102   4.624   5.529   2.850 -1.6831  0.2535 -0.9200
10563TIP3   OH253103   4.432   4.050   4.687 -0.1327  0.7333  0.0787
10563TIP3    H153104   4.503   4.067   4.749  0.2642  0.2928 -0.2406
10563TIP3    H253105   4.474   3.999   4.617 -0.5705  1.1937 -0.5344
10564TIP3   OH253106   5.034   2.859   3.789 -0.6724  0.0981  0.1380
10564TIP3    H153107   5.046   2.777   3.741 -1.2031 -0.7091  1.3520
10564TIP3    H253108   5.096   2.920   3.748 -1.0400 -0.5759 -1.5009
10565TIP3   OH253109   1.239   3.273   4.817  1.0243  0.0283  0.1001
10565TIP3    H153110   1.228   3.178   4.824 -0.7386  0.0186 -1.7635
10565TIP3    H253111   1.176   3.310   4.879  0.9736 -0.0262  0.0806
10566TIP3   OH253112   0.160   0.677   3.243  0.2366  0.7300  0.4026
10566TIP3    H153113   0.223   0.611   3.271 -1.3087 -0.4724  1.2092
10566TIP3    H253114   0.175   0.751   3.301 -0.2531 -0.2270  1.7835
10567TIP3   OH253115   3.234   5.288  13.998  0.4169 -0.2111  0.0931
10567TIP3    H153116   3.292   5.335  13.938 -0.9544 -1.2402 -2.2058
10567TIP3    H253117   3.246   5.330  14.082  1.6080  2.1258 -1.1540
10568TIP3   OH253118   2.408   4.390  11.161  0.1963  0.4220  0.0490
10568TIP3    H153119   2.387   4.302  11.192 -0.3211  1.0451  1.5388
10568TIP3    H253120   2.494   4.380  11.119  0.0247 -0.8342 -0.0564
10569TIP3   OH253121   0.912   0.961   0.807  0.0725  0.0578 -0.4875
10569TIP3    H153122   0.922   0.932   0.716 -0.7696 -0.6256 -0.3659
10569TIP3    H253123   0.935   0.884   0.860 -2.0565 -0.4059 -0.1616
10570TIP3   OH253124   3.888   6.551   2.278 -0.1401  0.0527 -0.3555
10570TIP3    H153125   3.917   6.630   2.234  0.0531  0.5028  0.5497
10570TIP3    H253126   3.872   6.578   2.368 -0.2680 -0.8913 -0.0803
10571TIP3   OH253127   0.635   0.708   2.691  0.1065 -0.2689 -0.0060
10571TIP3    H153128   0.706   0.766   2.663 -0.0269  0.4284  1.0061
10571TIP3    H253129   0.565   0.768   2.718 -1.6100 -0.9257 -2.6342
10572TIP3   OH253130   5.797   3.638  14.708 -0.2769 -0.7192 -0.3799
10572TIP3    H153131   5.852   3.623  14.631 -2.8783 -0.0911 -2.5403
10572TIP3    H253132   5.766   3.729  14.698 -0.5363 -0.5585  1.5381
10573TIP3   OH253133   6.475   4.848   4.564 -0.8399  0.4478 -0.2841
10573TIP3    H153134   6.517   4.844   4.478 -0.1378  1.1845  0.0116
10573TIP3    H253135   6.401   4.787   4.557  0.4062 -1.0788 -0.7216
10574TIP3   OH253136   6.465   3.689  11.313 -0.0215  0.1156 -0.3544
10574TIP3    H153137   6.401   3.618  11.323 -0.0607  0.1883 -0.0978
10574TIP3    H253138   6.540   3.648  11.270 -0.1266 -0.0338 -0.3961
10575TIP3   OH253139   1.915   6.728   5.408  0.1969  0.0251 -0.2604
10575TIP3    H153140   1.903   6.802   5.468 -0.1743  0.0993 -0.4261
10575TIP3    H253141   1.995   6.750   5.359 -1.2459  1.5477 -2.0875
10576TIP3   OH253142   6.928   1.994   4.482  0.1097 -0.1356  0.7886
10576TIP3    H153143   6.868   2.040   4.424 -1.1882  0.0287  2.2105
10576TIP3    H253144   7.011   2.040   4.471 -0.1349 -0.0134 -0.7927
10577TIP3   OH253145   3.552   5.590  12.534  0.9683  0.5347  0.2875
10577TIP3    H153146   3.615   5.617  12.600  0.5069  0.7296  0.6542
10577TIP3    H253147   3.528   5.672  12.490 -0.4962  0.7756  1.4557
10578TIP3   OH253148   3.554   1.848   5.023  0.1557  0.0002  0.3849
10578TIP3    H153149   3.608   1.806   4.956 -1.5428  1.0464 -1.7636
10578TIP3    H253150   3.482   1.787   5.036 -1.1685  1.1476 -1.1451
10579TIP3   OH253151   3.406   3.304   1.522  0.5830 -0.5304 -0.2049
10579TIP3    H153152   3.480   3.361   1.501 -0.2701  0.2352 -1.3243
10579TIP3    H253153   3.329   3.360   1.508 -0.2100 -1.2487  1.0917
10580TIP3   OH253154   1.292   4.836   1.762  0.4268  0.1282  0.1877
10580TIP3    H153155   1.295   4.882   1.677  1.5497 -0.1684  0.0483
10580TIP3    H253156   1.199   4.834   1.784  0.1377  0.4836 -0.8889
10581TIP3   OH253157   1.465   6.556   0.227 -0.3536  0.2996  0.2564
10581TIP3    H153158   1.470   6.600   0.311 -1.8995 -0.3297  0.6940
10581TIP3    H253159   1.424   6.620   0.168 -0.2450  0.3591  0.2450
10582TIP3   OH253160   3.513   2.327   5.162  0.4482  0.0363  0.2176
10582TIP3    H153161   3.444   2.356   5.221  1.1514 -0.4627  1.3422
10582TIP3    H253162   3.563   2.263   5.214  1.0309 -0.5002 -0.9648
10583TIP3   OH253163   2.004   6.292  12.166 -0.3015  0.5825 -0.0937
10583TIP3    H153164   2.099   6.297  12.177 -0.3286  0.5581  0.1588
10583TIP3    H253165   1.985   6.350  12.092 -0.2698  1.8242  0.8456
10584TIP3   OH253166   4.446   5.097  14.818 -0.0535  0.6500  0.1735
10584TIP3    H153167   4.379   5.078  14.752  1.3877 -1.4305 -0.8114
10584TIP3    H253168   4.444   5.021  14.876  1.6878  0.3334 -0.1266
10585TIP3   OH253169   1.750   0.084  12.084 -0.5210 -0.0547 -0.0356
10585TIP3    H153170   1.719   0.027  12.155  1.1089 -0.7565  0.1606
10585TIP3    H253171   1.690   0.067  12.012 -0.9050 -0.9806  0.4844
10586TIP3   OH253172   6.460   6.126   4.739  0.7396  0.4120  0.0005
10586TIP3    H153173   6.544   6.169   4.725  0.4042  1.0688 -0.0148
10586TIP3    H253174   6.406   6.153   4.665  0.8231 -0.8148 -0.5363
10587TIP3   OH253175   2.463   0.749  15.531 -0.6139  0.5559  0.1614
10587TIP3    H153176   2.527   0.701  15.479  0.2649  1.4705  0.3630
10587TIP3    H253177   2.428   0.685  15.592 -1.6952 -0.5631 -1.5248
10588TIP3   OH253178   3.610   0.861   0.192 -0.0425  0.2823 -0.0386
10588TIP3    H153179   3.591   0.847   0.099  2.0269 -0.9248 -0.3445
10588TIP3    H253180   3.682   0.924   0.192 -1.1653  1.6292  0.8646
10589TIP3   OH253181   4.127   6.133   3.077  0.6102  0.2769  0.1357
10589TIP3    H153182   4.137   6.204   3.140 -2.4778  0.0742  1.0107
10589TIP3    H253183   4.177   6.061   3.115  0.2320  0.6921  1.4704
10590TIP3   OH253184   3.809   5.879   0.249  0.0494 -0.5243 -0.3906
10590TIP3    H153185   3.738   5.819   0.224 -0.6722 -0.2715  0.9181
10590TIP3    H253186   3.779   5.917   0.332  0.2175  2.0708 -1.4255
10591TIP3   OH253187   6.938   5.858   4.622  0.2152  0.3601  0.0773
10591TIP3    H153188   6.917   5.943   4.660 -2.3138 -0.5709  0.9681
10591TIP3    H253189   6.919   5.868   4.528 -2.5398  0.1849  0.5301
10592TIP3   OH253190   2.862   6.073   0.503 -0.4026 -0.5426  0.1017
10592TIP3    H153191   2.923   6.000   0.490 -0.0469 -0.4765  1.2738
10592TIP3    H253192   2.917   6.150   0.514 -0.7225 -0.3554  0.4258
10593TIP3   OH253193   6.883   1.346   3.430 -0.1065 -0.6724  0.0168
10593TIP3    H153194   6.845   1.432   3.413 -1.9932 -1.3456  0.4885
10593TIP3    H253195   6.938   1.328   3.355 -2.2855 -0.4011 -1.7538
10594TIP3   OH253196   3.891   2.971   4.676 -0.4593 -0.0100 -0.3185
10594TIP3    H153197   3.950   2.963   4.602  1.1137  0.3998  0.8317
10594TIP3    H253198   3.866   2.880   4.697  0.9441 -0.3285  0.0656
10595TIP3   OH253199   4.488   5.505   0.930 -0.4081 -0.1183 -0.0448
10595TIP3    H153200   4.541   5.507   1.010 -0.6318 -0.6406  0.1234
10595TIP3    H253201   4.398   5.518   0.961 -0.4529  0.1071 -0.2615
10596TIP3   OH253202   4.109   6.069  13.298  0.2553  0.4203  0.3513
10596TIP3    H153203   4.047   6.064  13.225  0.5678 -0.4073  0.1230
10596TIP3    H253204   4.195   6.069  13.256  0.4477 -0.3950  0.7103
10597TIP3   OH253205   2.122   3.386   4.494 -0.4854  0.0018  0.0208
10597TIP3    H153206   2.089   3.330   4.564  0.2700  0.7794  1.0196
10597TIP3    H253207   2.098   3.474   4.521  0.3867  0.3673 -0.3738
10598TIP3   OH253208   6.442   2.063   3.590 -0.3635 -0.2072 -0.7421
10598TIP3    H153209   6.506   2.133   3.587  2.0761 -2.1912  1.0388
10598TIP3    H253210   6.414   2.052   3.499  1.2338  1.2497 -1.4485
10599TIP3   OH253211   1.088   4.133  13.706 -0.1664  0.2002  0.0629
10599TIP3    H153212   1.147   4.058  13.711  0.4809  0.6790 -0.2204
10599TIP3    H253213   1.082   4.165  13.796 -0.8115 -0.4617  0.2617
10600TIP3   OH253214   2.034   0.592   1.734 -0.1908 -0.7095 -0.3496
10600TIP3    H153215   2.100   0.572   1.800  0.6669  0.7866 -0.6943
10600TIP3    H253216   1.954   0.550   1.765  0.8403 -2.3378  0.2258
10601TIP3   OH253217   2.223   7.063   4.429  0.6453 -0.2177 -0.2268
10601TIP3    H153218   2.211   6.993   4.494 -2.4006 -0.6234 -1.0614
10601TIP3    H253219   2.186   7.141   4.471  0.7234  0.0386 -0.6369
10602TIP3   OH253220   1.780   0.518   5.019  0.0112 -0.0319 -0.2347
10602TIP3    H153221   1.763   0.479   5.104 -1.5002  0.9896 -0.0177
10602TIP3    H253222   1.700   0.567   4.999  1.1772  1.5778 -1.2138
10603TIP3   OH253223   0.935   1.036  13.509 -0.1150  0.2798 -0.0758
10603TIP3    H153224   0.952   1.126  13.538  0.3191 -0.3981  1.9699
10603TIP3    H253225   0.937   1.040  13.414  0.8096  2.2726 -0.0128
10604TIP3   OH253226   4.581   1.862  15.171  0.0491 -0.0085 -0.0104
10604TIP3    H153227   4.613   1.938  15.220 -3.0318  1.0651  0.5522
10604TIP3    H253228   4.581   1.791  15.236  1.4989 -0.1198 -0.1140
10605TIP3   OH253229   4.942   4.231  12.878  0.1617 -0.1726 -0.4785
10605TIP3    H153230   4.849   4.245  12.896  0.5414  1.1734  0.5689
10605TIP3    H253231   4.961   4.286  12.802 -0.0513 -1.0507 -1.1850
10606TIP3   OH253232   4.114   4.805   5.639  0.2059  0.1155 -0.3221
10606TIP3    H153233   4.135   4.866   5.568  0.4252  0.0258 -0.3357
10606TIP3    H253234   4.030   4.767   5.614 -1.0920  2.0916  0.7887
10607TIP3   OH253235   5.579   3.708  11.297 -0.3868  0.2170 -0.0580
10607TIP3    H153236   5.552   3.616  11.294  0.7399 -0.1104 -0.7891
10607TIP3    H253237   5.578   3.736  11.205  0.0459  0.6971  0.0801
10608TIP3   OH253238   5.091   1.007   1.376 -0.0855 -0.0609 -0.0490
10608TIP3    H153239   5.003   1.046   1.370 -0.1726 -0.4182 -1.7120
10608TIP3    H253240   5.144   1.075   1.418 -1.2363 -0.0263  1.4381
10609TIP3   OH253241   0.764   4.846   3.756  0.7056  0.0965 -0.9432
10609TIP3    H153242   0.732   4.918   3.701  0.9642  0.7130 -0.3039
10609TIP3    H253243   0.695   4.780   3.753  0.1663  0.6543 -1.0071
10610TIP3   OH253244   3.010   0.083   0.046 -0.1566  0.2814 -0.0898
10610TIP3    H153245   3.074   0.030   0.093 -0.4091  1.5858  1.8272
10610TIP3    H253246   3.061   0.127  -0.022  1.3702  2.3568  2.2408
10611TIP3   OH253247   0.455   4.770   2.420 -0.0521  0.3773  0.3939
10611TIP3    H153248   0.365   4.739   2.412  0.0788  0.1080 -0.1332
10611TIP3    H253249   0.447   4.865   2.431 -0.4395  0.2243  1.5464
10612TIP3   OH253250   2.434   4.116  11.808  0.0759 -0.1590 -0.0663
10612TIP3    H153251   2.503   4.076  11.861  1.3700 -0.3803 -1.8142
10612TIP3    H253252   2.375   4.155  11.872  3.0615  2.1670  1.5463
10613TIP3   OH253253   6.508   1.181   2.848 -1.0290 -0.0724  0.8186
10613TIP3    H153254   6.547   1.135   2.922 -3.0607 -0.7199  1.5569
10613TIP3    H253255   6.547   1.269   2.851 -1.1105 -0.0548  2.7262
10614TIP3   OH253256   2.360   0.595   5.359  0.2011 -0.1983  0.4313
10614TIP3    H153257   2.408   0.546   5.292 -0.5568  0.9800 -1.0268
10614TIP3    H253258   2.303   0.530   5.400  1.0557 -1.0429  0.3300
10615TIP3   OH253259   7.037   0.770   1.688 -0.4122  0.5907 -0.4164
10615TIP3    H153260   7.094   0.698   1.718  0.5244  1.2569 -0.5408
10615TIP3    H253261   6.986   0.732   1.617 -1.9043 -0.7204  1.2529
10616TIP3   OH253262   1.458   4.061  12.286 -0.6031 -0.6698 -0.0418
10616TIP3    H153263   1.442   4.113  12.365 -0.1102  0.9987 -1.0024
10616TIP3    H253264   1.382   4.078  12.231 -1.0517 -2.0095  0.1276
10617TIP3   OH253265   1.116   6.619  10.035  0.0164 -0.0660 -0.6144
10617TIP3    H153266   1.181   6.589   9.971  0.6797  1.4751 -0.7039
10617TIP3    H253267   1.145   6.581  10.118  1.0333  0.5747 -0.6617
10618TIP3   OH253268   2.422   3.738  15.148  0.4200 -0.1361  0.0743
10618TIP3    H153269   2.454   3.821  15.184  0.3643 -0.3506  0.6253
10618TIP3    H253270   2.401   3.758  15.056  0.4067  0.4555  0.2041
10619TIP3   OH253271   4.957   4.995  11.596  0.4828 -0.1837 -0.0184
10619TIP3    H153272   4.898   5.070  11.608 -0.1606 -0.4908 -1.1233
10619TIP3    H253273   5.043   5.035  11.584 -0.0434  0.4963 -1.9198
10620TIP3   OH253274   2.966   0.851  14.640 -0.1924  0.2050 -0.0464
10620TIP3    H153275   3.040   0.793  14.625  0.7855  1.6375 -1.1897
10620TIP3    H253276   2.894   0.813  14.590 -0.6540 -1.8391  2.0181
10621TIP3   OH253277   5.642   7.051   0.670 -0.2627 -0.2042 -0.3304
10621TIP3    H153278   5.583   6.979   0.693  0.5241 -0.4201  1.0982
10621TIP3    H253279   5.605   7.128   0.715  1.1432 -0.5770  1.5600
10622TIP3   OH253280   0.217   7.107  14.105  0.2063 -0.6693 -0.2357
10622TIP3    H153281   0.274   7.184  14.109 -2.2743  1.2301  1.4751
10622TIP3    H253282   0.197   7.097  14.012 -0.5735  1.7362 -0.4018
10623TIP3   OH253283   3.346   3.786  13.412 -0.2095 -0.8391  0.5161
10623TIP3    H153284   3.309   3.702  13.440  0.1591 -1.2925 -0.3137
10623TIP3    H253285   3.426   3.763  13.365  0.5494  0.0607  1.3189
10624TIP3   OH253286   1.389   3.214  14.364 -0.0216  0.2250 -0.0785
10624TIP3    H153287   1.482   3.224  14.383 -0.2619  2.7124  0.2127
10624TIP3    H253288   1.375   3.120  14.358  1.9342 -0.3699  2.7947
10625TIP3   OH253289   5.922   4.104  13.403  0.5497 -0.2196 -0.6357
10625TIP3    H153290   5.943   4.178  13.460 -0.2245  0.1579 -0.8224
10625TIP3    H253291   6.000   4.049  13.406  0.5597 -0.1624  0.6987
10626TIP3   OH253292   3.977   7.132  14.699 -0.3087 -0.3232 -0.0727
10626TIP3    H153293   3.964   7.066  14.631 -3.1017  0.2165 -0.1742
10626TIP3    H253294   4.011   7.208  14.653 -0.2881 -0.6008 -0.5249
10627TIP3   OH253295   5.487   1.499  11.404  0.7818 -0.2821  0.1942
10627TIP3    H153296   5.533   1.574  11.366 -0.8669  0.3064 -0.7666
10627TIP3    H253297   5.474   1.523  11.496 -0.4840  1.0453 -0.2921
10628TIP3   OH253298   2.957   2.464  15.594 -0.0251 -0.0199 -0.7604
10628TIP3    H153299   2.981   2.518  15.518 -1.9436  0.6125 -0.9825
10628TIP3    H253300   2.919   2.385  15.555  0.6292 -0.4969 -0.4379
10629TIP3   OH253301   1.725   0.995   4.354 -0.0281  0.3108  0.2209
10629TIP3    H153302   1.727   0.944   4.435 -0.2620  1.2688  0.8478
10629TIP3    H253303   1.676   0.940   4.292  1.7367 -1.2447  0.1282
10630TIP3   OH253304   6.125   1.211   4.841  0.5648 -0.2136  0.3701
10630TIP3    H153305   6.143   1.204   4.934  1.4580 -0.7594  0.1671
10630TIP3    H253306   6.170   1.291   4.813  0.4552 -0.1510  0.3742
10631TIP3   OH253307   2.991   0.455  15.259  0.5361 -0.1338 -0.1584
10631TIP3    H153308   3.078   0.451  15.299  1.3353  1.3606 -1.6038
10631TIP3    H253309   2.990   0.382  15.197  1.0385  0.2049 -0.5852
10632TIP3   OH253310   4.137   2.461   4.688  0.5420 -0.4842  0.1190
10632TIP3    H153311   4.194   2.420   4.752 -0.1455 -2.2471 -0.3305
10632TIP3    H253312   4.196   2.500   4.624  1.2549 -1.5388  0.1099
10633TIP3   OH253313   4.018   4.315   3.243  0.5735 -0.2188 -0.2795
10633TIP3    H153314   4.103   4.355   3.256  0.3247 -0.1037  1.0935
10633TIP3    H253315   3.972   4.374   3.183  0.2916  1.5021  1.5205
10634TIP3   OH253316   6.057   5.463  14.829 -0.2126 -1.1006  0.1764
10634TIP3    H153317   5.988   5.488  14.890  0.5532  0.9570  0.2884
10634TIP3    H253318   6.122   5.417  14.883 -0.0786 -0.3077  0.7169
10635TIP3   OH253319   2.177   1.990   3.757  0.1808 -0.3680  0.4195
10635TIP3    H153320   2.125   2.068   3.775 -0.5759 -0.9758  0.9680
10635TIP3    H253321   2.239   1.985   3.830  0.8247  0.1938 -0.0788
10636TIP3   OH253322   0.754   5.559   0.058 -0.1580  0.3267 -0.5941
10636TIP3    H153323   0.664   5.533   0.040  0.0009  0.7283 -2.1334
10636TIP3    H253324   0.753   5.587   0.149 -1.2250 -1.1516 -0.1097
10637TIP3   OH253325   2.445   2.628   3.347 -0.7881 -0.1622  0.1805
10637TIP3    H153326   2.404   2.585   3.422 -0.0682 -0.6163  0.3277
10637TIP3    H253327   2.511   2.686   3.386 -0.6439 -0.1463 -0.0856
10638TIP3   OH253328   6.632   1.570  15.383 -0.8860 -0.0504 -0.0542
10638TIP3    H153329   6.619   1.543  15.292 -0.1314  0.4578 -0.3209
10638TIP3    H253330   6.543   1.579  15.418 -1.1820 -0.4862 -0.6657
10639TIP3   OH253331   6.926   1.488   4.024  0.3084 -0.3856 -0.2124
10639TIP3    H153332   6.979   1.501   3.945  0.4429  2.2918  0.2473
10639TIP3    H253333   6.858   1.426   3.997  1.3550 -0.8588 -1.9138
10640TIP3   OH253334   1.965   3.316  13.157 -0.0821  0.3749  0.3823
10640TIP3    H153335   1.930   3.385  13.100 -0.7625 -0.1280  0.1723
10640TIP3    H253336   2.008   3.363  13.228 -0.8823  1.0238  0.4545
10641TIP3   OH253337   5.137   2.453  10.349 -0.3121  0.1880 -0.6121
10641TIP3    H153338   5.042   2.442  10.357 -0.3699  1.0554  0.1457
10641TIP3    H253339   5.162   2.501  10.428  1.0309 -1.5672  0.1004
10642TIP3   OH253340   1.139   7.020   5.088 -0.3801 -0.2722  0.2107
10642TIP3    H153341   1.224   7.028   5.130  1.0283 -2.1692 -2.0121
10642TIP3    H253342   1.077   7.060   5.149  2.1095  1.4292  1.7700
10643TIP3   OH253343   6.434   4.802   1.921  0.0518 -0.1404 -0.4682
10643TIP3    H153344   6.353   4.795   1.971  0.3761  1.4372  0.3235
10643TIP3    H253345   6.465   4.711   1.913  0.0919 -0.4726  2.3983
10644TIP3   OH253346   5.059   0.433  13.884  0.8776  0.2673 -0.5877
10644TIP3    H153347   5.013   0.351  13.902  0.5212  0.5180 -0.3472
10644TIP3    H253348   5.151   0.408  13.879  0.7318 -0.2138 -0.9216
10645TIP3   OH253349   1.549   1.032  12.024  0.0067 -0.2190  0.1404
10645TIP3    H153350   1.586   1.095  12.085 -0.0640  1.2102 -1.2115
10645TIP3    H253351   1.510   1.086  11.955  0.1951 -1.7447 -1.2262
10646TIP3   OH253352   3.218   5.723   5.018 -0.0408  0.2452 -0.0308
10646TIP3    H153353   3.280   5.791   5.043 -1.4641  1.7739 -0.4262
10646TIP3    H253354   3.136   5.749   5.061 -0.8192 -0.8009 -0.8343
10647TIP3   OH253355   3.757   4.341  15.028 -0.2036 -0.0853 -0.0123
10647TIP3    H153356   3.772   4.295  14.945  0.4297  1.3971 -0.7694
10647TIP3    H253357   3.699   4.414  15.004 -0.4613  0.0383  0.9698
10648TIP3   OH253358   1.355   6.659  12.898  0.7460 -0.1041 -0.3389
10648TIP3    H153359   1.410   6.586  12.872 -0.0656 -0.2980 -1.5685
10648TIP3    H253360   1.401   6.737  12.867  2.1987  0.0749  1.9750
10649TIP3   OH253361   4.588   0.968  11.030  0.0340 -0.2195  0.5179
10649TIP3    H153362   4.542   0.941  10.950 -0.2164  0.1868  0.5195
10649TIP3    H253363   4.556   1.057  11.047  0.3161 -0.1883  0.9007
10650TIP3   OH253364   6.369   2.453   4.510  0.7461  0.1054  0.3597
10650TIP3    H153365   6.355   2.532   4.562  0.6180 -0.7348  1.6769
10650TIP3    H253366   6.399   2.484   4.425 -1.0060  1.6501  0.2341
10651TIP3   OH253367   4.075   6.304   5.783  0.3448 -0.4372 -0.3741
10651TIP3    H153368   4.114   6.381   5.743  0.8803 -1.6705 -2.3459
10651TIP3    H253369   3.993   6.292   5.736  0.2536 -1.0648 -0.0592
10652TIP3   OH253370   6.453   0.396  15.180 -0.1011  0.1608  0.1479
10652TIP3    H153371   6.391   0.455  15.223 -0.1877 -1.2561  2.0767
10652TIP3    H253372   6.537   0.413  15.224  0.1672 -0.1911 -0.2193
10653TIP3   OH253373   0.301   5.169  15.343 -0.1872  0.3734 -0.0310
10653TIP3    H153374   0.263   5.095  15.390  0.3903  0.8881  1.3216
10653TIP3    H253375   0.388   5.180  15.382  0.4027  0.7054 -1.3937
10654TIP3   OH253376   2.453   5.787  14.380 -0.8286  0.7003  0.3616
10654TIP3    H153377   2.453   5.835  14.463 -0.1296  1.1877  0.0834
10654TIP3    H253378   2.460   5.695  14.406  0.0204  0.8882  0.8292
10655TIP3   OH253379   1.821   3.358  11.150  0.1284  0.3651 -0.3637
10655TIP3    H153380   1.732   3.360  11.184  0.2658  1.5579 -0.0060
10655TIP3    H253381   1.833   3.444  11.108  1.1517  0.2925 -0.2569
10656TIP3   OH253382   4.968   3.071  12.010  0.0622 -0.0177  0.2345
10656TIP3    H153383   4.927   3.049  11.926  1.9301  0.6125 -0.9119
10656TIP3    H253384   5.025   2.997  12.029  0.6900  0.4596  0.2334
10657TIP3   OH253385   3.759   3.958   2.950  0.0219 -0.0588  0.2941
10657TIP3    H153386   3.776   4.020   3.021 -0.0127  0.8507 -0.4604
10657TIP3    H253387   3.823   3.981   2.883 -0.9070  0.0922 -0.5679
10658TIP3   OH253388   3.937   6.656   5.209 -0.4996  0.7423  0.0825
10658TIP3    H153389   3.868   6.718   5.230 -0.4475  0.6096  0.6600
10658TIP3    H253390   3.946   6.601   5.287 -0.2121  0.3190 -0.2381
10659TIP3   OH253391   3.072   4.165  12.188 -0.5080 -0.0797 -0.0815
10659TIP3    H153392   3.016   4.145  12.113  0.9795  0.9519 -1.5294
10659TIP3    H253393   3.114   4.248  12.166  0.5945 -0.1548  1.5372
10660TIP3   OH253394   4.025   6.754   2.187 -0.1157 -0.2094  0.3035
10660TIP3    H153395   3.999   6.818   2.121  2.0273  0.4028 -0.0219
10660TIP3    H253396   4.057   6.806   2.260 -0.4521 -0.9164  0.9787
10661TIP3   OH253397   1.547   4.708   5.792  0.6845 -0.8720 -0.2069
10661TIP3    H153398   1.525   4.786   5.741  2.3401  0.2843  0.7210
10661TIP3    H253399   1.563   4.640   5.727 -0.7932 -0.4625 -1.0376
10662TIP3   OH253400   0.321   0.030   3.423  0.7918  0.4915  0.1917
10662TIP3    H153401   0.299  -0.056   3.387  0.2330  1.1457 -1.0994
10662TIP3    H253402   0.402   0.055   3.378  1.0899  0.5470  0.7469
10663TIP3   OH253403   6.903   6.652  12.162  0.4777 -0.0585 -0.1425
10663TIP3    H153404   6.893   6.694  12.247 -1.0701  0.2771 -0.4578
10663TIP3    H253405   6.899   6.724  12.099 -0.3088 -0.4833 -0.5904
10664TIP3   OH253406   3.213   3.466  11.889 -0.3172 -0.0171 -0.4037
10664TIP3    H153407   3.252   3.454  11.803 -0.6120 -1.2900 -0.3848
10664TIP3    H253408   3.218   3.560  11.905  1.4288  0.0234 -0.9958
10665TIP3   OH253409   0.821   2.569   2.053  0.0301  0.0931  0.2233
10665TIP3    H153410   0.773   2.651   2.066  0.6034  0.4932 -0.1616
10665TIP3    H253411   0.786   2.533   1.972 -0.6246 -0.3421  0.6810
10666TIP3   OH253412   0.434   0.566  11.783 -0.4348 -0.1206  0.4267
10666TIP3    H153413   0.511   0.522  11.749 -0.1234  0.2251  0.6696
10666TIP3    H253414   0.399   0.614  11.708 -0.7165 -0.6937  0.1882
10667TIP3   OH253415   1.540   4.105   1.283 -0.3861 -0.8676 -0.3622
10667TIP3    H153416   1.498   4.133   1.364 -1.0260 -0.6383 -0.7762
10667TIP3    H253417   1.471   4.060   1.234 -0.1137 -0.6288 -0.9716
10668TIP3   OH253418   0.715   5.176   1.498 -0.0297  0.3144  0.3719
10668TIP3    H153419   0.632   5.204   1.536 -0.0698  1.4984 -0.5113
10668TIP3    H253420   0.692   5.141   1.412  0.2318 -0.8255  0.7511
10669TIP3   OH253421   5.155   3.859  13.739  0.0042 -0.8994 -0.8684
10669TIP3    H153422   5.249   3.871  13.755 -0.4205  0.7711  0.6951
10669TIP3    H253423   5.136   3.917  13.666 -0.3197  1.2414  0.8087
10670TIP3   OH253424   5.587   2.263   3.394 -0.4428  0.3797  0.1633
10670TIP3    H153425   5.550   2.198   3.334  0.1063  0.0202  0.2081
10670TIP3    H253426   5.594   2.343   3.342 -4.4865  1.5417  1.0176
10671TIP3   OH253427   3.716   3.148   5.060  0.2060 -0.1398 -0.5071
10671TIP3    H153428   3.806   3.130   5.084  1.1164  1.4754 -2.4117
10671TIP3    H253429   3.664   3.090   5.115  2.4634 -2.4049 -0.5788
10672TIP3   OH253430   0.869   4.459  13.536  0.1262  0.0236  0.2265
10672TIP3    H153431   0.791   4.441  13.588 -0.6411  0.2234 -0.8175
10672TIP3    H253432   0.902   4.372  13.513 -0.1061 -0.0666  0.2276
10673TIP3   OH253433   1.016   0.819  10.485 -0.4044  0.2078 -0.1668
10673TIP3    H153434   1.019   0.887  10.418  1.2811  0.3253 -0.0304
10673TIP3    H253435   0.977   0.861  10.561  3.4247  2.1836  1.0013
10674TIP3   OH253436   0.855   5.404   3.930 -0.3213  0.1947 -0.5149
10674TIP3    H153437   0.844   5.448   4.014  0.6601  0.0370 -0.2943
10674TIP3    H253438   0.888   5.473   3.871  0.0362  0.0570 -0.4823
10675TIP3   OH253439   2.992   2.448  15.310 -0.3082  0.2164 -0.9942
10675TIP3    H153440   3.019   2.448  15.218  0.6763 -0.0939 -0.7128
10675TIP3    H253441   3.073   2.462  15.359 -0.7174 -0.3004 -0.1461
10676TIP3   OH253442   6.313   0.388  14.877  0.1387  0.1237 -0.0935
10676TIP3    H153443   6.268   0.339  14.809 -2.3538  0.3921  1.2436
10676TIP3    H253444   6.323   0.326  14.950 -2.1484  1.1729  1.2360
10677TIP3   OH253445   2.406   5.874   2.338  0.0320 -0.5136  0.5551
10677TIP3    H153446   2.434   5.854   2.248 -0.4148  1.9421 -0.1840
10677TIP3    H253447   2.321   5.831   2.346  1.5462 -3.7515  1.1103
10678TIP3   OH253448   7.017   6.912   2.783  0.3517 -0.6713 -0.2292
10678TIP3    H153449   7.017   7.008   2.780 -0.2618 -0.6745 -0.6396
10678TIP3    H253450   7.083   6.886   2.720 -1.4039 -0.5282 -2.2442
10679TIP3   OH253451   0.545   0.909  13.406  0.5356 -0.1168 -0.6076
10679TIP3    H153452   0.453   0.901  13.433  0.9309  0.5865  1.1296
10679TIP3    H253453   0.543   0.899  13.311 -1.6640  2.3544 -0.9426
10680TIP3   OH253454   4.829   5.074   4.506 -0.4325  0.1536  0.9109
10680TIP3    H153455   4.821   4.994   4.455 -1.2014  0.2909  0.8013
10680TIP3    H253456   4.842   5.143   4.441  1.4223 -0.0094  1.0648
10681TIP3   OH253457   6.581   0.228   1.315 -0.0512 -0.1295  0.5949
10681TIP3    H153458   6.521   0.154   1.324 -0.5144  0.3728  2.0106
10681TIP3    H253459   6.573   0.275   1.398 -0.3494  1.9470 -0.5420
10682TIP3   OH253460   4.725   0.595   1.944 -0.8919 -0.2962 -0.3255
10682TIP3    H153461   4.663   0.659   1.910 -0.3178 -0.1087 -1.0359
10682TIP3    H253462   4.709   0.594   2.038 -0.7432  1.0885 -0.2665
10683TIP3   OH253463   0.573   6.818   0.118  0.3114 -0.2145 -0.2570
10683TIP3    H153464   0.551   6.897   0.068 -2.7933  1.1624  2.8370
10683TIP3    H253465   0.669   6.820   0.125  0.4742  2.2574 -1.8415
10684TIP3   OH253466   5.090   3.693   1.668 -0.0153  0.0161 -0.1331
10684TIP3    H153467   5.009   3.744   1.671 -0.7742 -1.0690 -1.0074
10684TIP3    H253468   5.107   3.669   1.760 -3.0365 -3.1828 -0.2147
10685TIP3   OH253469   1.004   6.394   2.041 -0.0202  0.0968 -0.5041
10685TIP3    H153470   1.005   6.360   2.130 -1.1121 -2.1438 -1.2536
10685TIP3    H253471   1.089   6.438   2.031 -0.1437  0.9898  1.7885
10686TIP3   OH253472   4.194   6.361  10.430  0.1318  0.0412  0.2495
10686TIP3    H153473   4.131   6.300  10.468  1.0595 -0.4639  1.0077
10686TIP3    H253474   4.218   6.322  10.346 -0.9044  0.4727 -0.2591
10687TIP3   OH253475   2.031   3.410  10.837  0.6982  0.1268  0.0530
10687TIP3    H153476   1.998   3.320  10.833  1.7513 -0.2351 -2.1264
10687TIP3    H253477   1.952   3.464  10.845 -0.2896 -0.8615 -2.1335
10688TIP3   OH253478   3.064   1.702   2.461  0.0730 -0.4974 -0.2992
10688TIP3    H153479   3.138   1.672   2.409  0.4008  0.3972 -0.3772
10688TIP3    H253480   3.008   1.747   2.398  0.8845  1.3400  0.2170
10689TIP3   OH253481   5.422   0.810   4.939 -0.7376  0.0766 -0.0642
10689TIP3    H153482   5.444   0.718   4.955  0.1596  0.5476  1.7014
10689TIP3    H253483   5.390   0.841   5.024  0.8530  1.8871 -0.0644
10690TIP3   OH253484   1.318   6.853  15.245 -0.3384  0.0092 -1.0473
10690TIP3    H153485   1.294   6.874  15.154 -1.8612  0.9822 -0.4562
10690TIP3    H253486   1.366   6.930  15.276 -0.4155 -0.0394 -0.8080
10691TIP3   OH253487   2.747   5.786   4.861 -0.0321 -0.1663 -0.5574
10691TIP3    H153488   2.664   5.802   4.815 -0.1108  2.9081  0.4312
10691TIP3    H253489   2.810   5.770   4.791 -1.1056 -0.8786 -1.4074
10692TIP3   OH253490   4.896   3.459   0.835  0.4714 -0.4177  0.3744
10692TIP3    H153491   4.811   3.419   0.855  0.9871 -1.9364 -0.3404
10692TIP3    H253492   4.938   3.398   0.775  2.4186 -0.1273  1.3464
10693TIP3   OH253493   1.423   4.774   6.047  0.3069  0.4976  0.1106
10693TIP3    H153494   1.467   4.727   5.976  0.1337  1.1299 -0.4238
10693TIP3    H253495   1.461   4.861   6.046 -0.3892  0.8080  0.1614
10694TIP3   OH253496   0.334   3.896   5.319  0.1529  0.0399  0.6732
10694TIP3    H153497   0.240   3.879   5.317  0.3049 -1.4981  2.7244
10694TIP3    H253498   0.363   3.862   5.404  2.4312  1.2590  0.4782
10695TIP3   OH253499   6.240   4.417  12.506  0.4002 -0.1944 -0.7627
10695TIP3    H153500   6.282   4.336  12.479  2.1836 -0.3009  1.9331
10695TIP3    H253501   6.168   4.390  12.563 -0.4803  0.1022 -1.7079
10696TIP3   OH253502   3.988   3.552   2.106  0.6929 -0.1706  0.0237
10696TIP3    H153503   3.973   3.550   2.201  1.2361 -3.2200  0.1453
10696TIP3    H253504   4.080   3.527   2.096  0.5793 -0.1078 -1.3117
10697TIP3   OH253505   6.543   3.278   2.724  0.2542  0.0303 -0.0698
10697TIP3    H153506   6.557   3.233   2.641  1.3435 -0.9608  0.6018
10697TIP3    H253507   6.498   3.359   2.702 -0.1132 -0.5560 -1.5348
10698TIP3   OH253508   2.324   1.541   2.281  0.4433  0.3528  0.1931
10698TIP3    H153509   2.292   1.455   2.256  0.2964  1.0044 -2.1274
10698TIP3    H253510   2.285   1.601   2.218 -0.3237  2.3165  2.3579
10699TIP3   OH253511   6.634   3.779   5.030 -0.2325  0.0749  0.0907
10699TIP3    H153512   6.700   3.821   5.086  1.3124  0.0012 -1.5769
10699TIP3    H253513   6.643   3.823   4.945 -0.5679 -1.6616 -0.8925
10700TIP3   OH253514   2.400   5.594   0.550  0.5312  0.3190  0.5913
10700TIP3    H153515   2.425   5.502   0.560 -2.7178 -0.8633 -0.7031
10700TIP3    H253516   2.327   5.592   0.488  1.7052  4.0432 -1.1721
10701TIP3   OH253517   2.676   0.753  12.857 -0.4616 -0.1506  0.5356
10701TIP3    H153518   2.609   0.694  12.820  1.4587 -1.2729 -1.3403
10701TIP3    H253519   2.735   0.771  12.785  0.1002  2.6505  1.5603
10702TIP3   OH253520   0.513   3.603   3.300  0.1780 -0.3719  0.1785
10702TIP3    H153521   0.555   3.639   3.378  0.6394  0.6888 -0.5470
10702TIP3    H253522   0.446   3.543   3.335 -1.9545  2.5635  1.5576
10703TIP3   OH253523   6.225   4.161  12.961 -0.3970 -0.0942 -0.2734
10703TIP3    H153524   6.258   4.110  13.034 -1.0831  0.8961  0.7547
10703TIP3    H253525   6.208   4.248  12.997 -1.4669  0.2102 -1.4108
10704TIP3   OH253526   5.745   2.630   4.767  0.7160  0.5810  0.2944
10704TIP3    H153527   5.800   2.579   4.708 -1.3703  1.5349 -2.7078
10704TIP3    H253528   5.747   2.718   4.732 -2.0555  0.8129  0.4851
10705TIP3   OH253529   5.683   1.471   0.204  0.2213  0.2388  0.5644
10705TIP3    H153530   5.698   1.559   0.169  1.2494  0.2050  0.8702
10705TIP3    H253531   5.597   1.446   0.171  0.7501  0.5788 -1.1892
10706TIP3   OH253532   4.973   3.214   1.016  0.1287 -0.4232  0.8227
10706TIP3    H153533   4.914   3.138   1.016  0.2946 -0.5645 -0.1885
10706TIP3    H253534   5.012   3.214   0.929  1.1381  0.0596  1.2625
10707TIP3   OH253535   4.317   5.668  12.662 -0.0480  0.0004 -0.0728
10707TIP3    H153536   4.230   5.666  12.702  0.0315 -0.0011  0.0997
10707TIP3    H253537   4.378   5.667  12.736  0.1051 -0.5485 -0.1951
10708TIP3   OH253538   0.851   2.357   3.361 -0.3847  0.0229  0.2948
10708TIP3    H153539   0.757   2.377   3.368 -1.2528 -3.2327 -0.4902
10708TIP3    H253540   0.885   2.422   3.300 -1.8286  1.9725  1.4343
10709TIP3   OH253541   2.412   4.742   4.733 -0.0419  0.2065 -0.7350
10709TIP3    H153542   2.450   4.782   4.812 -0.6422  0.7909 -0.7306
10709TIP3    H253543   2.469   4.771   4.662  0.9731 -0.9786 -0.4377
10710TIP3   OH253544   0.519   0.223   5.284 -0.6933  0.2719 -0.6709
10710TIP3    H153545   0.507   0.257   5.373  0.7043 -0.5555 -0.1411
10710TIP3    H253546   0.601   0.175   5.287  0.0130  1.2174 -2.7344
10711TIP3   OH253547   2.692   2.311   3.949 -0.1336 -0.0763  0.0260
10711TIP3    H153548   2.713   2.280   4.037  0.9520  2.2018  0.6383
10711TIP3    H253549   2.603   2.281   3.933  0.6572 -3.1618  0.6143
10712TIP3   OH253550   0.073   1.345   4.419 -0.0540  0.3870  0.0249
10712TIP3    H153551   0.019   1.400   4.475 -1.4346 -0.3786 -0.5079
10712TIP3    H253552   0.153   1.395   4.406 -1.2038  2.2187 -0.3441
10713TIP3   OH253553   1.298   6.913   3.600 -0.0894  0.3216 -0.1975
10713TIP3    H153554   1.314   6.843   3.537 -1.3944  1.4536 -1.8952
10713TIP3    H253555   1.385   6.949   3.619  0.3350  0.0604 -1.5240
10714TIP3   OH253556   2.689   2.277   0.970  0.1900  0.4039  0.2361
10714TIP3    H153557   2.604   2.316   0.948  0.9939  2.2744  0.2150
10714TIP3    H253558   2.708   2.309   1.058  0.6293 -0.4776  0.4730
10715TIP3   OH253559   1.503   0.558   3.731  0.4555 -0.2400  0.5543
10715TIP3    H153560   1.530   0.498   3.662  0.2709  2.6452 -2.2883
10715TIP3    H253561   1.421   0.522   3.764  1.6555 -2.8588  0.9129
10716TIP3   OH253562   3.129   3.372   4.789  0.0774 -0.1617  0.7878
10716TIP3    H153563   3.062   3.432   4.823  0.2333  0.6337 -0.2776
10716TIP3    H253564   3.082   3.313   4.730  0.1678 -0.2089  0.7617
10717TIP3   OH253565   0.827   3.262  12.908  0.3060  0.0261  0.4335
10717TIP3    H153566   0.771   3.220  12.974  0.8627 -0.2702  0.7234
10717TIP3    H253567   0.889   3.314  12.958 -0.1572  0.9268  0.0855
10718TIP3   OH253568   1.102   4.424   5.475  0.2817 -0.7690  0.1469
10718TIP3    H153569   1.065   4.510   5.458  3.1008  1.0807  2.5553
10718TIP3    H253570   1.046   4.387   5.543  0.1170 -0.0502  0.4083
10719TIP3   OH253571   7.126   0.018   5.290  0.3181 -0.1465  0.1224
10719TIP3    H153572   7.205   0.013   5.344  0.5883 -1.2474 -0.3412
10719TIP3    H253573   7.104  -0.074   5.272 -2.2596  0.0190  1.9352
10720TIP3   OH253574   4.534   3.045   1.108  0.3077 -0.4388 -0.6556
10720TIP3    H153575   4.525   2.994   1.028  0.8544  0.6815 -1.4547
10720TIP3    H253576   4.508   3.134   1.083 -2.1885 -0.5687  1.0812
10721TIP3   OH253577   6.924   1.232  13.869 -0.3982  0.1867  0.2216
10721TIP3    H153578   6.908   1.141  13.843 -1.9664  0.4318  0.2062
10721TIP3    H253579   6.848   1.255  13.923 -1.2650  2.1853 -1.6900
10722TIP3   OH253580   4.200   4.948  15.216 -0.1705  0.7464  0.3903
10722TIP3    H153581   4.153   4.879  15.263 -0.6146  2.0676  1.9745
10722TIP3    H253582   4.136   5.019  15.210  0.6349  1.4287 -0.2390
10723TIP3   OH253583   5.849   4.453   2.700  0.7417  0.2851  0.4834
10723TIP3    H153584   5.788   4.525   2.683 -1.5757 -1.6473 -0.0291
10723TIP3    H253585   5.836   4.393   2.626 -0.0277 -2.2480  2.5286
10724TIP3   OH253586   5.189   4.536  15.530  0.1048  0.1457 -0.1434
10724TIP3    H153587   5.156   4.621  15.559 -0.0707  0.3658 -0.9452
10724TIP3    H253588   5.199   4.546  15.435 -0.6537 -0.9713 -0.3672
10725TIP3   OH253589   6.602   5.927   4.116 -0.1662 -0.1460  0.6090
10725TIP3    H153590   6.614   6.011   4.072  1.2572 -0.3205  0.6201
10725TIP3    H253591   6.569   5.950   4.203  2.0226  0.5756  1.3128
10726TIP3   OH253592   0.104   3.811  13.330  0.9811  0.0290  0.3087
10726TIP3    H153593   0.068   3.884  13.279  1.0310  0.2216  0.5484
10726TIP3    H253594   0.198   3.814  13.313  1.1261  0.6835  1.1560
10727TIP3   OH253595   1.333   3.898   3.625  0.0739  0.0349 -0.2838
10727TIP3    H153596   1.366   3.971   3.572 -1.5637  0.4708 -0.7603
10727TIP3    H253597   1.398   3.829   3.613  1.6045  1.3457  0.0685
10728TIP3   OH253598   0.650   3.631   5.777 -0.4369  0.1207 -0.1314
10728TIP3    H153599   0.662   3.699   5.844  0.6529  0.4527 -0.6422
10728TIP3    H253600   0.561   3.644   5.745 -0.4993  0.8259  0.3052
10729TIP3   OH253601   6.930   5.488  11.113  0.7721 -0.1027 -0.0001
10729TIP3    H153602   6.981   5.509  11.191 -1.4826  0.5653  1.3896
10729TIP3    H253603   6.852   5.445  11.146 -1.0364  1.6468 -1.6909
10730TIP3   OH253604   0.452   6.391   1.202  0.1967  0.0330  0.3844
10730TIP3    H153605   0.391   6.327   1.167 -0.4544  0.2182  1.1543
10730TIP3    H253606   0.430   6.398   1.295  2.0063 -0.5855  0.9041
10731TIP3   OH253607   7.121   5.877   0.415  0.0452  0.0112 -0.0171
10731TIP3    H153608   7.193   5.819   0.440 -0.0786  0.5199  1.5952
10731TIP3    H253609   7.143   5.903   0.325  1.3874 -0.5714  0.1074
10732TIP3   OH253610   3.532   1.208  11.446 -0.4282  0.3715  0.0956
10732TIP3    H153611   3.578   1.208  11.363  2.6266 -3.6577  1.4167
10732TIP3    H253612   3.597   1.240  11.509 -1.9233  1.3129  1.2035
10733TIP3   OH253613   1.693   6.423   4.742 -0.5624  0.3827 -0.0767
10733TIP3    H153614   1.776   6.415   4.790 -0.4480  1.8446  0.0103
10733TIP3    H253615   1.626   6.409   4.809 -0.4103 -1.1693 -0.2158
10734TIP3   OH253616   5.348   4.226   5.788 -0.5038 -0.5513 -0.0937
10734TIP3    H153617   5.390   4.146   5.820  0.0540 -0.0715  0.4062
10734TIP3    H253618   5.329   4.208   5.696 -0.5375 -1.3167  0.0568
10735TIP3   OH253619   4.360   0.641  14.547  0.3370  0.0269 -0.2937
10735TIP3    H153620   4.266   0.649  14.563  0.4403 -0.8724  0.9173
10735TIP3    H253621   4.400   0.663  14.631  1.0505 -2.3109  0.0454
10736TIP3   OH253622   2.641   0.176  14.333  0.1462  0.2445 -0.2093
10736TIP3    H153623   2.697   0.102  14.310  0.7312  0.9577 -1.1292
10736TIP3    H253624   2.652   0.185  14.428 -0.6890 -1.4335  0.0848
10737TIP3   OH253625   4.060   1.826  10.500 -0.0100  0.7948 -0.5671
10737TIP3    H153626   4.126   1.869  10.555  1.0573 -0.5498 -0.7604
10737TIP3    H253627   4.105   1.809  10.417 -1.0776  1.2175 -1.2504
10738TIP3   OH253628   3.364   3.471  11.645 -0.0558  0.1566  0.1560
10738TIP3    H153629   3.339   3.529  11.572 -0.7811 -0.7249 -0.3163
10738TIP3    H253630   3.460   3.468  11.641 -0.0337  0.8852 -0.1525
10739TIP3   OH253631   1.262   6.445   5.214  0.4584 -0.6155  0.3767
10739TIP3    H153632   1.175   6.430   5.178 -1.0904  2.5539  2.3915
10739TIP3    H253633   1.262   6.398   5.298  0.9143 -1.0900  0.1132
10740TIP3   OH253634   0.491   6.707   3.182 -0.3214  0.7243  0.0332
10740TIP3    H153635   0.491   6.625   3.132 -2.4370 -0.3695  1.6961
10740TIP3    H253636   0.563   6.697   3.244 -0.0090  0.5093 -0.3586
10741TIP3   OH253637   4.624   1.165   1.818 -0.0315 -0.1341 -0.6003
10741TIP3    H153638   4.703   1.207   1.783 -0.6284 -0.0222 -1.8618
10741TIP3    H253639   4.657   1.107   1.886  1.0846  0.3586 -0.6885
10742TIP3   OH253640   4.210   2.582  15.014  0.6653 -0.1569 -0.3240
10742TIP3    H153641   4.229   2.566  14.921  1.0448  3.3033 -0.9763
10742TIP3    H253642   4.284   2.542  15.061  1.8605  0.2888 -1.7421
10743TIP3   OH253643   5.326   0.236  14.727  0.2870  0.0188  0.3762
10743TIP3    H153644   5.284   0.174  14.787  0.1511  0.6510  0.9503
10743TIP3    H253645   5.283   0.320  14.745  0.4364  0.2767 -0.4188
10744TIP3   OH253646   6.387   3.974   4.969  0.6720 -0.2126 -0.1615
10744TIP3    H153647   6.454   3.918   5.009  0.7870 -0.0790 -0.1670
10744TIP3    H253648   6.387   4.054   5.023  1.9010  0.6077 -1.3323
10745TIP3   OH253649   0.933   4.560  14.129 -0.6333 -0.5211  0.4186
10745TIP3    H153650   0.909   4.599  14.213 -0.1656 -1.0688  0.8084
10745TIP3    H253651   0.850   4.547  14.083 -0.8661  0.0293  0.6832
10746TIP3   OH253652   0.274   2.350   3.094 -0.3509 -0.3529  0.0546
10746TIP3    H153653   0.228   2.338   3.177 -0.3110  0.7568  0.2621
10746TIP3    H253654   0.286   2.262   3.059  0.9549 -0.9766  1.9371
10747TIP3   OH253655   4.239   1.890   3.474  0.3916  0.2755 -0.7186
10747TIP3    H153656   4.240   1.934   3.559 -0.4790  1.9386 -1.5375
10747TIP3    H253657   4.331   1.884   3.449  0.5682  1.0377 -0.2871
10748TIP3   OH253658   2.829   3.878   3.558  0.1776 -0.2571 -0.5451
10748TIP3    H153659   2.873   3.953   3.598  0.2198  0.0165 -1.0953
10748TIP3    H253660   2.744   3.874   3.601  0.4357 -0.3135 -0.0296
10749TIP3   OH253661   3.016   6.223  10.349 -0.1846  0.1707  0.3378
10749TIP3    H153662   3.077   6.270  10.405  0.1952  0.2902 -0.1772
10749TIP3    H253663   3.024   6.264  10.263  0.4516 -1.0768 -0.2268
10750TIP3   OH253664   5.338   0.508  13.684 -0.2172 -0.2238 -0.1431
10750TIP3    H153665   5.431   0.512  13.706  0.2184 -1.4855 -1.5569
10750TIP3    H253666   5.318   0.593  13.646  0.0693  0.4488  1.1758
10751TIP3   OH253667   1.094   0.331   0.209  0.4694  0.2941 -0.4249
10751TIP3    H153668   1.135   0.417   0.213 -0.4031  0.7246 -0.4538
10751TIP3    H253669   1.012   0.346   0.161  0.5588 -0.6546 -0.8929
10752TIP3   OH253670   6.395   6.041   5.010 -0.0617  0.1065  0.2558
10752TIP3    H153671   6.476   5.992   5.025  0.0346  0.2270  0.1269
10752TIP3    H253672   6.397   6.064   4.917 -0.8008 -0.8890 -0.0152
10753TIP3   OH253673   6.256   4.210  11.051 -0.2052 -0.4888 -0.1714
10753TIP3    H153674   6.307   4.132  11.029 -1.9293 -2.0103  0.9337
10753TIP3    H253675   6.283   4.231  11.140  0.6172  0.5386 -0.6361
10754TIP3   OH253676   2.056   2.034  15.381 -0.6600  0.1551  0.2054
10754TIP3    H153677   2.006   2.108  15.348 -0.6890  0.0027 -0.0973
10754TIP3    H253678   2.013   2.011  15.463 -0.2306  0.8983  0.6475
10755TIP3   OH253679   2.218   1.682  11.808  0.1580  0.2293 -0.0460
10755TIP3    H153680   2.219   1.596  11.766  1.1920  0.2249 -0.0417
10755TIP3    H253681   2.232   1.664  11.901  0.8638  0.4202 -0.1070
10756TIP3   OH253682   5.785   1.683   2.020 -0.4914  0.6977 -0.5336
10756TIP3    H153683   5.764   1.742   1.948 -1.0715 -0.6668 -1.5328
10756TIP3    H253684   5.879   1.692   2.033 -0.6098  2.0303 -0.4653
10757TIP3   OH253685   2.665   4.326   4.914  0.1435  1.2592 -0.1570
10757TIP3    H153686   2.601   4.262   4.946 -1.5645  4.5890  4.1267
10757TIP3    H253687   2.613   4.406   4.900  2.6926  2.8229 -1.3181
10758TIP3   OH253688   3.130   2.981  12.744  0.3112  0.0269 -0.2471
10758TIP3    H153689   3.044   3.020  12.726 -0.3253  0.0037  2.3708
10758TIP3    H253690   3.112   2.913  12.808  2.0228 -1.6133 -1.4143
10759TIP3   OH253691   6.153   0.864   2.942 -0.5839 -0.3559  0.2309
10759TIP3    H153692   6.156   0.849   2.848  0.7476 -0.8245  0.3251
10759TIP3    H253693   6.080   0.811   2.973  1.2613 -3.2733 -0.0704
10760TIP3   OH253694   1.687   6.499   3.107 -0.0308  0.0348  0.3155
10760TIP3    H153695   1.594   6.492   3.085 -0.2936  0.9208  1.0792
10760TIP3    H253696   1.709   6.415   3.147 -0.8888  0.3514  1.4894
10761TIP3   OH253697   4.158   1.912  13.877  0.3804  0.0171  0.0433
10761TIP3    H153698   4.219   1.839  13.879  0.0810 -0.2974 -1.2019
10761TIP3    H253699   4.100   1.892  13.803  0.0711  1.3252 -0.0855
10762TIP3   OH253700   0.085   4.561   4.929  0.3431  0.1141 -0.2998
10762TIP3    H153701  -0.003   4.526   4.914  0.9744 -2.0130  0.5464
10762TIP3    H253702   0.090   4.638   4.873 -1.3613 -0.8658 -1.9239
10763TIP3   OH253703   4.023   5.774   1.026  0.2142 -0.4395  0.3721
10763TIP3    H153704   4.021   5.723   0.945  2.0003 -0.4125  0.2821
10763TIP3    H253705   4.003   5.863   0.998 -1.8369 -0.8331  0.3807
10764TIP3   OH253706   1.167   7.001   1.100  0.0457  0.7721 -0.3188
10764TIP3    H153707   1.107   6.944   1.149  0.1573  1.0309  0.1265
10764TIP3    H253708   1.139   6.993   1.009 -0.6598  0.8748 -0.1214
10765TIP3   OH253709   4.729   5.111  13.539 -0.2872 -0.4640 -0.6231
10765TIP3    H153710   4.671   5.184  13.518 -0.6329 -0.7344 -0.6272
10765TIP3    H253711   4.724   5.054  13.463 -1.1102 -1.1737 -0.0558
10766TIP3   OH253712   0.197   6.003  10.751 -0.0474 -0.3362 -0.1015
10766TIP3    H153713   0.180   6.013  10.844  0.1754 -1.2363  0.0459
10766TIP3    H253714   0.290   6.023  10.741 -0.2685  0.6429 -0.2792
10767TIP3   OH253715   2.831   0.629   2.196  0.1699  0.0859 -0.8000
10767TIP3    H153716   2.775   0.552   2.187  1.2226 -0.8248  0.1087
10767TIP3    H253717   2.782   0.699   2.153 -2.5603 -0.2044  1.4809
10768TIP3   OH253718   5.465   5.175   5.100  0.3548 -0.0191 -0.5172
10768TIP3    H153719   5.453   5.159   5.193  1.4721 -1.9440 -0.6600
10768TIP3    H253720   5.488   5.268   5.094  0.4161  0.0956  1.1132
10769TIP3   OH253721   3.021   2.949  14.106  0.3558  0.4020 -0.2983
10769TIP3    H153722   3.036   3.038  14.137  0.2074  0.4686 -0.4118
10769TIP3    H253723   3.068   2.893  14.168  0.0614  0.5312  0.0470
10770TIP3   OH253724   3.352   5.417   4.793 -0.3779 -0.1794  0.7565
10770TIP3    H153725   3.441   5.406   4.825 -0.0359  0.3021 -0.0160
10770TIP3    H253726   3.298   5.416   4.873  0.0727 -2.5015  1.1091
10771TIP3   OH253727   2.509   5.050  14.424 -0.3465 -0.6357  0.2906
10771TIP3    H153728   2.467   5.110  14.486 -2.6756 -2.6149  0.8223
10771TIP3    H253729   2.503   5.094  14.340  1.7937  1.5970  1.2072
10772TIP3   OH253730   3.899   0.704  13.151  0.0575 -0.5716  0.1027
10772TIP3    H153731   3.806   0.698  13.131 -0.2528 -0.1713  1.3988
10772TIP3    H253732   3.942   0.701  13.065 -1.0807 -1.7356 -0.4616
10773TIP3   OH253733   0.597   3.041  14.437  0.1678  0.2456 -0.6100
10773TIP3    H153734   0.576   3.049  14.530  1.8297  2.3056 -0.3372
10773TIP3    H253735   0.597   2.946  14.421 -3.6501 -0.1492  0.5429
10774TIP3   OH253736   4.333   5.799   0.180  1.0130 -0.2167  0.0753
10774TIP3    H153737   4.403   5.801   0.116  0.4795  0.1150 -0.5123
10774TIP3    H253738   4.358   5.864   0.246  1.0453  0.2157 -0.3589
10775TIP3   OH253739   6.125   4.053   9.985 -0.1083  0.0464 -0.0340
10775TIP3    H153740   6.080   4.042  10.069  1.8336  1.9226  1.3603
10775TIP3    H253741   6.213   4.020  10.000  0.5171  1.1380 -1.0631
10776TIP3   OH253742   1.929   3.975   3.958 -0.4430  0.3292  0.6863
10776TIP3    H153743   1.906   3.993   3.867  0.3548 -0.0406  0.4073
10776TIP3    H253744   1.918   3.881   3.967  0.5412  0.2107  0.6694
10777TIP3   OH253745   1.960   6.298  15.504  0.5416  0.1233 -0.3036
10777TIP3    H153746   1.930   6.317  15.593 -0.4305  0.2734 -0.6553
10777TIP3    H253747   1.891   6.244  15.466  0.7875  0.3435 -1.0815
10778TIP3   OH253748   0.339   7.020   0.172 -0.5018  0.0555  0.7891
10778TIP3    H153749   0.287   6.949   0.135 -3.1692  1.1415  2.1677
10778TIP3    H253750   0.348   6.998   0.265 -0.1796  0.8249  0.9503
10779TIP3   OH253751   5.260   0.909  11.833  0.0384 -0.0026  0.2930
10779TIP3    H153752   5.236   0.962  11.909 -0.2830  1.2228 -0.6344
10779TIP3    H253753   5.287   0.972  11.767  0.0478 -1.0292 -0.7200
10780TIP3   OH253754   1.755   4.457   3.447 -0.6362 -0.9231 -0.3049
10780TIP3    H153755   1.700   4.471   3.525  0.0188 -0.1822  0.0456
10780TIP3    H253756   1.795   4.543   3.431  1.3923 -1.7106  0.2092
10781TIP3   OH253757   3.823   3.319   3.606 -0.2592  0.3478  0.2677
10781TIP3    H153758   3.906   3.366   3.613  0.8758 -0.9606 -2.8170
10781TIP3    H253759   3.841   3.233   3.644 -1.0345  0.8535  1.8876
10782TIP3   OH253760   6.238   4.921  12.765 -0.3550  0.1449 -0.2683
10782TIP3    H153761   6.333   4.918  12.750 -0.5683  0.4349 -1.9260
10782TIP3    H253762   6.217   5.014  12.766 -0.8738  0.0875 -2.0429
10783TIP3   OH253763   0.371   2.462   1.720 -0.6451 -0.4902 -0.4309
10783TIP3    H153764   0.350   2.445   1.812  1.9702  0.1509  0.3643
10783TIP3    H253765   0.411   2.380   1.689  0.3974 -0.0282 -0.3423
10784TIP3   OH253766   2.893   2.944  11.251  0.2568 -0.1132 -0.2775
10784TIP3    H153767   2.948   3.021  11.236  0.4426 -0.3189 -0.6628
10784TIP3    H253768   2.808   2.980  11.275  0.5717  0.2081  0.3992
10785TIP3   OH253769   4.908   0.085  13.838 -0.1710  0.1278  0.1809
10785TIP3    H153770   4.894   0.037  13.920 -0.6540  0.4807  0.3101
10785TIP3    H253771   4.830   0.138  13.828 -0.3541 -0.3073 -0.7907
10786TIP3   OH253772   5.359   6.607   3.610  0.1149 -0.2369 -0.1005
10786TIP3    H153773   5.342   6.692   3.569  0.1957 -0.4348 -0.5524
10786TIP3    H253774   5.303   6.606   3.688 -2.4218 -1.0672 -1.7814
10787TIP3   OH253775   0.576   5.020  14.530  0.2007  0.1014 -0.0975
10787TIP3    H153776   0.644   4.958  14.557 -0.7135 -1.5104 -1.3481
10787TIP3    H253777   0.504   5.003  14.591 -0.6508 -1.2780 -1.4012
10788TIP3   OH253778   4.941   5.556   0.950 -0.1022  0.0198 -0.3577
10788TIP3    H153779   4.983   5.571   1.034 -0.8228  0.5079 -0.0665
10788TIP3    H253780   4.859   5.511   0.971 -0.6522  0.8133 -0.6989
10789TIP3   OH253781   4.336   4.886  11.026  0.0715  0.2525 -0.2674
10789TIP3    H153782   4.317   4.944  11.100 -0.2484 -1.2689  0.8906
10789TIP3    H253783   4.431   4.881  11.023  0.0812 -0.1419  0.4449
10790TIP3   OH253784   1.365   6.763   3.156 -0.0684  0.5436  0.0627
10790TIP3    H153785   1.304   6.729   3.091 -0.0960 -1.4556  1.0548
10790TIP3    H253786   1.435   6.802   3.104  1.3798 -3.4848 -1.4708
10791TIP3   OH253787   5.910   4.598  13.452  0.2271 -0.3440  0.1920
10791TIP3    H153788   5.973   4.660  13.415 -2.3141  1.6596 -1.0658
10791TIP3    H253789   5.919   4.608  13.547  0.9369  0.8006  0.0223
10792TIP3   OH253790   6.694   0.689   0.244 -0.8144 -0.2007  0.1091
10792TIP3    H153791   6.707   0.779   0.214 -1.1269 -0.3255 -0.4212
10792TIP3    H253792   6.633   0.651   0.180 -2.0485 -0.2692  1.2925
10793TIP3   OH253793   2.857   6.153  11.530 -0.0534  0.2861 -0.3984
10793TIP3    H153794   2.788   6.087  11.529  0.1894  0.0336 -1.2544
10793TIP3    H253795   2.828   6.217  11.594 -1.1572  0.2583 -0.8471
10794TIP3   OH253796   2.874   2.716   0.466  0.5890  0.3109 -0.0126
10794TIP3    H153797   2.886   2.645   0.529 -0.3762  1.7579  1.9472
10794TIP3    H253798   2.839   2.674   0.388  0.8248 -1.4594  0.7920
10795TIP3   OH253799   6.184   1.986  10.377  0.1350  0.2055  0.1441
10795TIP3    H153800   6.172   1.894  10.398 -0.0742  0.0684 -0.5608
10795TIP3    H253801   6.107   2.009  10.324  0.3104  0.7167  0.1078
10796TIP3   OH253802   5.789   3.104   1.919 -0.5420 -0.1553  0.0715
10796TIP3    H153803   5.873   3.144   1.897 -0.0507 -0.4977  1.2184
10796TIP3    H253804   5.770   3.137   2.007 -0.5829 -1.6675  0.6626
10797TIP3   OH253805   2.753   3.854  12.480 -0.1068  0.8067 -0.2825
10797TIP3    H153806   2.845   3.877  12.466 -0.0288  0.3588 -0.5297
10797TIP3    H253807   2.724   3.820  12.396 -0.2748  0.2184  0.0050
10798TIP3   OH253808   3.329   0.219   0.646  0.2616  0.0542  0.7080
10798TIP3    H153809   3.348   0.126   0.633  0.0012  0.1621 -0.6073
10798TIP3    H253810   3.298   0.249   0.560  0.6235  1.4274  1.0415
10799TIP3   OH253811   0.380   3.413  10.720 -0.1045 -0.4078 -0.6756
10799TIP3    H153812   0.408   3.471  10.790 -0.3006  0.4586 -1.3058
10799TIP3    H253813   0.285   3.408  10.729 -0.1312 -0.2820 -0.9003
10800TIP3   OH253814   5.391   6.274   3.944 -0.6362 -0.0705  0.1254
10800TIP3    H153815   5.456   6.288   4.013 -2.1032  0.8532  1.3875
10800TIP3    H253816   5.391   6.179   3.931 -0.4453 -0.2924  1.5420
10801TIP3   OH253817   0.814   6.019  14.641 -0.3388 -0.4232 -0.3035
10801TIP3    H153818   0.890   6.075  14.628  0.2426 -0.9017  0.8708
10801TIP3    H253819   0.756   6.039  14.568  0.4648  0.6878 -0.6548
10802TIP3   OH253820   3.592   3.100   4.279 -0.1456  0.3682  0.0996
10802TIP3    H153821   3.577   3.006   4.284  0.4551  0.3075  0.9402
10802TIP3    H253822   3.661   3.117   4.344 -0.0251  1.3350 -0.2670
10803TIP3   OH253823   1.560   3.862   4.470  0.2420 -0.0711  0.4700
10803TIP3    H153824   1.609   3.803   4.413  0.9747  0.3495  0.6481
10803TIP3    H253825   1.469   3.852   4.442  0.4166 -0.8955  0.1562
10804TIP3   OH253826   0.079   2.751   1.416  0.3002  0.1351  0.1036
10804TIP3    H153827   0.073   2.732   1.322  0.6396  2.9391 -0.5774
10804TIP3    H253828   0.025   2.684   1.457 -0.4127 -0.7784 -2.1498
10805TIP3   OH253829   3.227   6.238   5.381 -0.1352 -0.0562 -0.2240
10805TIP3    H153830   3.259   6.224   5.470 -0.8490  0.1599  0.0734
10805TIP3    H253831   3.260   6.325   5.358 -0.9575  0.4001  0.2900
10806TIP3   OH253832   1.246   6.912   4.659  0.3940  0.1488 -0.0034
10806TIP3    H153833   1.193   6.977   4.704  0.4575  0.1935  0.0077
10806TIP3    H253834   1.229   6.928   4.566 -1.8950 -1.7266 -0.0014
10807TIP3   OH253835   5.560   0.985  15.387  0.1916 -0.1916 -0.6535
10807TIP3    H153836   5.473   1.017  15.367 -0.3328 -1.1839 -0.0442
10807TIP3    H253837   5.560   0.894  15.358  1.2468 -0.0211 -1.2530
10808TIP3   OH253838   0.594   6.018  12.075  0.5009  0.2815  0.3846
10808TIP3    H153839   0.525   5.956  12.053 -0.6530  1.4400  0.5882
10808TIP3    H253840   0.632   5.985  12.156 -1.3808  0.7954  1.5469
10809TIP3   OH253841   0.958   0.663  14.220  0.0927  0.2560  0.3387
10809TIP3    H153842   0.962   0.758  14.231  2.5113  0.4643 -1.5119
10809TIP3    H253843   1.048   0.634  14.229 -0.5203 -1.7991  0.2076
10810TIP3   OH253844   2.871   0.309  12.480 -0.0652  0.4774 -0.5591
10810TIP3    H153845   2.944   0.356  12.441  1.4198 -1.1902  0.0919
10810TIP3    H253846   2.796   0.328  12.423  0.7999  2.3648 -1.1396
10811TIP3   OH253847   0.711   5.936   1.918  0.9269 -0.3308 -0.0807
10811TIP3    H153848   0.653   5.989   1.973  1.8586 -1.9246  2.6103
10811TIP3    H253849   0.798   5.974   1.931  1.3827 -1.6217  0.7579
10812TIP3   OH253850   2.761   4.720  13.183  0.0728  0.3629  0.0006
10812TIP3    H153851   2.820   4.648  13.206  2.7241  3.1009  2.7960
10812TIP3    H253852   2.704   4.730  13.260  0.4751  1.8284  0.1427
10813TIP3   OH253853   1.907   1.790   0.827  0.4077  0.2589  0.3177
10813TIP3    H153854   1.971   1.738   0.876  0.1824 -0.1667  0.1633
10813TIP3    H253855   1.945   1.878   0.823  0.7311  0.1372  0.6916
10814TIP3   OH253856   4.525   5.039  15.394 -0.0956  0.2175  0.2082
10814TIP3    H153857   4.562   5.039  15.482 -0.1942 -0.9152  0.2596
10814TIP3    H253858   4.449   4.982  15.399 -0.2060  0.2798 -0.5752
10815TIP3   OH253859   3.373   0.146   5.009  0.7198  0.2556  0.0520
10815TIP3    H153860   3.449   0.167   5.064  0.4670  0.5186  0.3041
10815TIP3    H253861   3.315   0.097   5.066  0.1702  1.0804  0.2114
10816TIP3   OH253862   3.110   5.205   5.088 -0.0339 -0.4755 -0.3529
10816TIP3    H153863   3.058   5.183   5.011  0.8042 -0.3353 -0.9646
10816TIP3    H253864   3.156   5.286   5.064  1.0616 -1.0165 -0.1111
10817TIP3   OH253865   0.606   0.676   3.774 -0.2958 -0.0096 -0.4771
10817TIP3    H153866   0.587   0.582   3.768 -0.4806  0.1230 -2.7094
10817TIP3    H253867   0.623   0.691   3.867  3.5726 -3.0197 -0.4320
10818TIP3   OH253868   2.479   1.177  14.297  0.0393 -0.0005 -0.6051
10818TIP3    H153869   2.494   1.180  14.202  1.6110  0.9848 -0.3763
10818TIP3    H253870   2.545   1.237  14.333 -2.3492  1.9243  0.9230
10819TIP3   OH253871   6.905   0.915  11.305  0.0893 -0.2332  0.1201
10819TIP3    H153872   6.951   0.890  11.385  3.6262 -0.1803 -1.7112
10819TIP3    H253873   6.862   0.834  11.276  3.2698 -1.8187 -0.6116
10820TIP3   OH253874   5.180   6.753   4.007  0.0649  0.3558 -0.0037
10820TIP3    H153875   5.208   6.684   3.947 -0.9474  1.3668 -1.7377
10820TIP3    H253876   5.174   6.710   4.092 -0.4755 -1.6744 -1.0035
10821TIP3   OH253877   3.814   3.959   1.920 -0.2493  1.0636  0.3864
10821TIP3    H153878   3.883   3.910   1.964 -0.9138  0.2054  0.5044
10821TIP3    H253879   3.734   3.908   1.936 -0.6487  1.1536 -1.1112
10822TIP3   OH253880   2.037   0.938  15.189 -0.5221  0.1662  0.0408
10822TIP3    H153881   1.972   0.989  15.141 -0.4417  0.8632  0.6525
10822TIP3    H253882   2.090   1.004  15.235  1.1070 -0.3335 -1.0472
10823TIP3   OH253883   0.221   0.110   5.778  0.3225  0.1543  0.3006
10823TIP3    H153884   0.194   0.178   5.841 -1.1484 -0.1906  0.0811
10823TIP3    H253885   0.281   0.156   5.719 -2.2453  1.9012 -1.1240
10824TIP3   OH253886   3.781   3.500   3.356  0.1039  0.5546  0.3937
10824TIP3    H153887   3.763   3.438   3.427 -2.0794  0.6104 -0.0468
10824TIP3    H253888   3.866   3.536   3.378 -0.0572 -0.1614  2.4615
10825TIP3   OH253889   3.614   2.600  13.883  0.0638 -0.5563 -0.0158
10825TIP3    H153890   3.648   2.591  13.794  1.3744 -1.2339  0.5230
10825TIP3    H253891   3.563   2.520  13.898 -0.7229 -0.1364 -0.3681
10826TIP3   OH253892   4.777   7.068  13.184 -0.2317  0.2935 -0.3108
10826TIP3    H153893   4.709   7.075  13.117 -0.8471 -0.7020  0.1764
10826TIP3    H253894   4.848   7.020  13.141 -0.4838 -0.0390 -0.3642
10827TIP3   OH253895   0.933   5.737   1.874 -0.5791 -0.1081  0.2087
10827TIP3    H153896   0.910   5.740   1.967  1.7979 -2.3792  0.9790
10827TIP3    H253897   0.984   5.817   1.859 -1.3132  0.4689  0.7357
10828TIP3   OH253898   4.650   5.653   1.139  0.2957 -0.1267 -0.4825
10828TIP3    H153899   4.608   5.734   1.168  1.0779 -0.2211  1.0247
10828TIP3    H253900   4.744   5.671   1.146  0.5191 -1.7918  1.9890
10829TIP3   OH253901   2.194   2.628   4.154  0.4325 -0.0793 -0.0326
10829TIP3    H153902   2.283   2.651   4.181  0.8655 -0.4293 -1.0930
10829TIP3    H253903   2.138   2.682   4.210  1.3177  0.4590  0.3717
10830TIP3   OH253904   3.410   6.840   2.777 -0.4727 -0.3886 -0.2285
10830TIP3    H153905   3.483   6.881   2.821  0.2294 -1.8937  0.0705
10830TIP3    H253906   3.450   6.790   2.706 -1.1497 -1.6041  0.2224
10831TIP3   OH253907   4.101   0.087   5.905  0.2481 -0.3122  0.3078
10831TIP3    H153908   4.158   0.038   5.846 -0.3980 -0.0034 -0.5994
10831TIP3    H253909   4.159   0.118   5.975  0.9855 -0.8665 -0.0454
10832TIP3   OH253910   5.258   5.769   4.377 -0.1289 -0.5072  0.4946
10832TIP3    H153911   5.276   5.734   4.290  2.4297 -1.1117  1.1572
10832TIP3    H253912   5.236   5.693   4.430  0.8408 -0.5191  0.9062
10833TIP3   OH253913   2.013   1.226   3.350  0.2912  0.0263  0.3852
10833TIP3    H153914   2.099   1.250   3.315 -0.3589  1.3406 -0.3807
10833TIP3    H253915   1.978   1.307   3.387 -1.2441 -0.1091 -0.6634
10834TIP3   OH253916   4.366   2.465   1.834 -0.2026 -0.4248 -0.3212
10834TIP3    H153917   4.396   2.450   1.923  1.1701  0.3110 -0.6206
10834TIP3    H253918   4.306   2.539   1.841 -0.1873 -0.4422  0.0065
10835TIP3   OH253919   2.000   0.800   1.014 -0.1063  0.1887  0.2365
10835TIP3    H153920   2.042   0.745   0.947  0.9647  1.6599 -0.3507
10835TIP3    H253921   1.906   0.789   0.998  0.0995 -0.7541 -0.4413
10836TIP3   OH253922   6.515   0.907   2.111  0.4806 -0.2108  0.3612
10836TIP3    H153923   6.507   0.965   2.187  0.4478  0.9109 -0.4625
10836TIP3    H253924   6.431   0.915   2.066  0.1287 -1.6632  0.7433
10837TIP3   OH253925   1.029   6.728   3.540 -0.1505  0.2126 -0.6644
10837TIP3    H153926   0.963   6.740   3.608 -0.6681 -0.1574 -1.0953
10837TIP3    H253927   1.016   6.803   3.482 -0.9025 -0.4175 -1.3244
10838TIP3   OH253928   4.900   0.731   2.290 -0.5524 -0.3547  0.1512
10838TIP3    H153929   4.894   0.817   2.247 -0.2771  0.4827  1.7375
10838TIP3    H253930   4.827   0.681   2.253 -1.9673  1.2468  0.6632
10839TIP3   OH253931   4.102   0.424   2.640 -0.5782 -0.5616 -0.5547
10839TIP3    H153932   4.093   0.515   2.668  0.7043  0.0617 -2.0503
10839TIP3    H253933   4.166   0.386   2.699 -2.1475 -0.9578  0.9897
10840TIP3   OH253934   0.283   2.527   3.512 -0.0172 -0.8725  0.7694
10840TIP3    H153935   0.250   2.442   3.482 -1.7313 -0.1311  0.4252
10840TIP3    H253936   0.214   2.559   3.571  0.1041  0.7230  0.0950
10841TIP3   OH253937   3.566   4.219   1.635  0.1512 -0.2019  0.6083
10841TIP3    H153938   3.545   4.180   1.550  0.7244 -1.7167  1.1297
10841TIP3    H253939   3.647   4.268   1.619  0.0691 -0.1939  0.2027
10842TIP3   OH253940   0.511   5.737   3.390  0.0069 -0.7522 -0.5415
10842TIP3    H153941   0.446   5.726   3.320 -1.6198  2.5657  0.2572
10842TIP3    H253942   0.576   5.795   3.353 -0.3302  0.2093  0.3259
10843TIP3   OH253943   0.057   0.253   1.165 -0.2669 -0.0142  0.1685
10843TIP3    H153944   0.025   0.210   1.086  0.2231  0.8710 -0.5279
10843TIP3    H253945   0.151   0.259   1.153 -0.1873  0.1258  0.8240
10844TIP3   OH253946   3.221   2.979   3.464  0.2483 -0.4359  0.4605
10844TIP3    H153947   3.226   2.897   3.414 -2.6013  0.5015 -1.6064
10844TIP3    H253948   3.165   2.958   3.539 -0.9279 -0.2807 -0.3593
10845TIP3   OH253949   0.115   0.643   4.381 -0.1503  0.4264  0.1963
10845TIP3    H153950   0.045   0.665   4.443 -0.0040 -0.1802  0.5907
10845TIP3    H253951   0.168   0.578   4.428 -1.3822 -1.8594 -1.4476
10846TIP3   OH253952   2.598   2.165   3.006 -0.2849  0.0476 -0.0220
10846TIP3    H153953   2.503   2.159   2.999 -0.4944  0.4018  1.8935
10846TIP3    H253954   2.612   2.220   3.083  1.4813  0.8414 -0.8598
10847TIP3   OH253955   2.199   0.767  10.493 -0.0198  0.2239 -0.2890
10847TIP3    H153956   2.161   0.745  10.578 -1.3045 -0.6602 -1.0653
10847TIP3    H253957   2.124   0.787  10.437  0.6164 -1.3202 -1.8061
10848TIP3   OH253958   2.791   3.363   4.904 -0.0663 -0.0608  0.0944
10848TIP3    H153959   2.831   3.446   4.879  0.2266  0.2523  1.5205
10848TIP3    H253960   2.697   3.383   4.912  0.1344  0.4131  1.4565
10849TIP3   OH253961   0.002   4.583  11.238 -0.4404  0.6661  0.4344
10849TIP3    H153962   0.086   4.627  11.254 -0.1035  0.0430  0.3930
10849TIP3    H253963  -0.002   4.573  11.143 -0.3421  0.2750  0.4689
10850TIP3   OH253964   3.150   0.776   1.454 -0.1211 -0.3112 -0.5022
10850TIP3    H153965   3.180   0.699   1.502 -1.6152  0.0081  1.0340
10850TIP3    H253966   3.190   0.767   1.367  1.3477 -1.7547  0.2730
10851TIP3   OH253967   4.146   3.213  14.676 -0.1850  0.5318  0.7417
10851TIP3    H153968   4.137   3.258  14.760 -0.5951  1.1656  0.3628
10851TIP3    H253969   4.113   3.275  14.611 -1.8409 -0.7292  0.3063
10852TIP3   OH253970   0.177   1.855   0.940 -0.2827 -0.3721  0.2704
10852TIP3    H153971   0.235   1.779   0.929 -1.3668 -1.2751  0.6863
10852TIP3    H253972   0.095   1.829   0.898 -0.2588  1.0807 -0.7346
10853TIP3   OH253973   7.027   6.078   3.913  0.2087 -0.4282  0.2942
10853TIP3    H153974   6.955   6.102   3.854  0.8507  0.0249 -0.3212
10853TIP3    H253975   7.007   6.125   3.995  1.0999  1.8298 -0.6845
10854TIP3   OH253976   6.037   2.837   4.422  1.0323  0.4014 -0.0630
10854TIP3    H153977   5.972   2.800   4.362  2.6287 -0.6803 -1.2240
10854TIP3    H253978   6.120   2.831   4.374  1.8507  2.7925  0.9087
10855TIP3   OH253979   4.233   3.639  10.334  0.4360  0.0782  0.0455
10855TIP3    H153980   4.175   3.660  10.261  0.1611  0.5930  0.4036
10855TIP3    H253981   4.298   3.710  10.335  0.3690  0.1391  0.3706
10856TIP3   OH253982   2.299   3.431   4.981  0.0437  0.1779 -0.0313
10856TIP3    H153983   2.330   3.381   4.905 -0.9496 -1.1245  0.3977
10856TIP3    H253984   2.274   3.516   4.944 -0.1476 -0.3286 -1.1160
10857TIP3   OH253985   2.059   6.787   3.765 -0.3604  0.0310 -0.1087
10857TIP3    H153986   2.001   6.778   3.841 -0.2039 -0.1047 -0.0067
10857TIP3    H253987   2.077   6.881   3.759 -0.1090  0.0027  0.2165
10858TIP3   OH253988   4.456   3.109   3.580 -0.4147  0.2974 -0.5052
10858TIP3    H153989   4.452   3.053   3.657 -1.2743 -0.1143 -0.8320
10858TIP3    H253990   4.435   3.197   3.612 -0.4981  0.1738 -0.2240
10859TIP3   OH253991   0.192   3.217   2.729 -0.4537 -0.0379 -0.0147
10859TIP3    H153992   0.120   3.213   2.791 -0.5546 -1.0191 -0.1801
10859TIP3    H253993   0.231   3.303   2.743 -1.0552  0.1213  0.7429
10860TIP3   OH253994   6.562   4.256  15.482  0.4266  0.5738 -0.2303
10860TIP3    H153995   6.503   4.332  15.485  0.0077  0.2829 -0.8258
10860TIP3    H253996   6.535   4.208  15.404 -1.6089 -2.0091  1.8707
10861TIP3   OH253997   3.722   6.406   1.679 -0.2698 -0.4177 -0.6148
10861TIP3    H153998   3.633   6.413   1.646 -0.3069  0.6012 -0.3336
10861TIP3    H253999   3.773   6.466   1.625 -0.1691  0.6302  0.5924
10862TIP3   OH254000   4.269   5.195   4.311  0.2356 -0.3166  0.1212
10862TIP3    H154001   4.336   5.145   4.265  0.0557 -0.1374 -0.3422
10862TIP3    H254002   4.206   5.219   4.244  0.0741  0.1251  0.4204
10863TIP3   OH254003   0.022   4.630   4.161  0.5159  0.4129  0.0136
10863TIP3    H154004   0.015   4.686   4.238  2.1005 -0.0147  0.5114
10863TIP3    H254005   0.116   4.614   4.152  0.6028  1.9795 -3.1316
10864TIP3   OH254006   6.565   3.052  12.714  0.2886  0.0670  0.4911
10864TIP3    H154007   6.548   2.972  12.664  0.1098 -0.1707  0.9300
10864TIP3    H254008   6.610   3.110  12.652 -1.5116  0.4795 -0.5056
10865TIP3   OH254009   3.946   1.556  11.502 -0.3517  0.1802  0.3342
10865TIP3    H154010   3.878   1.598  11.553 -0.5713  1.1010 -0.6705
10865TIP3    H254011   4.009   1.626  11.483 -0.4472 -0.0374 -0.8988
10866TIP3   OH254012   2.995   2.073   5.933 -0.0602  0.3151 -0.4826
10866TIP3    H154013   2.903   2.098   5.943  0.3870  1.2109  2.4453
10866TIP3    H254014   3.006   2.000   5.994  1.5597  1.4978  0.7165
10867TIP3   OH254015   0.540   7.030  15.330 -0.3114 -0.7645 -0.4154
10867TIP3    H154016   0.516   6.957  15.387 -0.4938 -0.6913 -0.3984
10867TIP3    H254017   0.501   7.107  15.372 -1.2136 -0.8253 -1.1227
10868TIP3   OH254018   6.948   0.265   9.789 -0.5247 -0.2103 -0.1745
10868TIP3    H154019   6.991   0.345   9.818 -0.3024 -0.5401  0.4283
10868TIP3    H254020   6.908   0.288   9.706 -1.9675  1.0505  0.8106
10869TIP3   OH254021   4.926   2.693  14.916 -0.2139  0.5069 -0.0375
10869TIP3    H154022   4.922   2.733  14.829 -2.4602 -0.9837 -0.7029
10869TIP3    H254023   4.893   2.604  14.903  1.8918 -0.6819  1.9020
10870TIP3   OH254024   4.612   3.351   0.866  0.2709  0.3313 -0.6446
10870TIP3    H154025   4.602   3.293   0.791 -0.1475 -0.8003  0.2552
10870TIP3    H254026   4.537   3.331   0.922  0.6041  1.1105  0.1077
10871TIP3   OH254027   2.254   1.255   1.763  0.0837 -0.6066 -0.2492
10871TIP3    H154028   2.179   1.228   1.710 -0.6368  1.6640 -0.4823
10871TIP3    H254029   2.248   1.201   1.842 -0.2900 -2.2467 -1.3366
10872TIP3   OH254030   3.578   2.084   4.840 -0.3614  0.2443  0.3472
10872TIP3    H154031   3.554   2.015   4.901  0.6238 -0.8921 -0.5001
10872TIP3    H254032   3.571   2.043   4.754  0.8936  0.9946 -0.1365
10873TIP3   OH254033   6.893   6.492   2.637  0.0378 -0.0259 -0.0790
10873TIP3    H154034   6.801   6.516   2.634  0.4299  1.5198 -0.7944
10873TIP3    H254035   6.921   6.493   2.545  0.5456 -1.5059  0.0267
10874TIP3   OH254036   0.418   1.436  11.578 -0.8321 -0.1975  0.7432
10874TIP3    H154037   0.501   1.405  11.543 -2.5781 -0.7774 -3.4834
10874TIP3    H254038   0.422   1.531  11.570  0.1807 -0.0267  2.7347
10875TIP3   OH254039   2.488   2.888   2.485  0.1122  0.7900  0.1899
10875TIP3    H154040   2.572   2.849   2.460 -0.3344  0.1049 -0.2568
10875TIP3    H254041   2.436   2.887   2.405  0.0347  2.2105  0.1941
10876TIP3   OH254042   3.315   4.935   3.326  0.6645 -0.1056 -0.3480
10876TIP3    H154043   3.329   4.963   3.236 -0.8308 -0.7604 -0.8182
10876TIP3    H254044   3.314   5.016   3.377 -0.0093  0.4055 -1.1512
10877TIP3   OH254045   3.412   1.929   3.786 -0.2836 -0.1672 -0.5024
10877TIP3    H154046   3.350   1.896   3.851  0.7186  0.4974  0.8384
10877TIP3    H254047   3.464   1.994   3.833  1.3292 -0.5801 -1.6129
10878TIP3   OH254048   5.139   5.337   4.989  0.1258 -0.0931  0.0911
10878TIP3    H154049   5.047   5.348   5.012 -0.0384  0.3650 -0.7406
10878TIP3    H254050   5.171   5.427   4.974  0.6331 -0.2651  0.1205
10879TIP3   OH254051   1.791   4.351  10.440  0.8604 -0.0010 -0.7385
10879TIP3    H154052   1.826   4.370  10.353 -0.0430  0.3973 -1.0295
10879TIP3    H254053   1.702   4.319  10.424  0.5438  0.4349  0.0476
10880TIP3   OH254054   1.409   0.422   1.380 -0.0526 -0.1061  0.0945
10880TIP3    H154055   1.322   0.444   1.413  0.0039 -0.5070  0.5323
10880TIP3    H254056   1.452   0.380   1.454  0.5418  0.1579 -0.0963
10881TIP3   OH254057   6.421   0.999  10.359 -0.2499  0.7056  0.1903
10881TIP3    H154058   6.473   1.077  10.377  0.0080  0.9873 -1.5741
10881TIP3    H254059   6.349   1.003  10.421 -0.1952  2.3030  0.1941
10882TIP3   OH254060   1.989   1.968  14.857  0.2767 -0.2350  0.1296
10882TIP3    H154061   1.905   2.013  14.851  1.4012  2.2719  1.5688
10882TIP3    H254062   2.019   1.961  14.766 -0.5608  0.7019 -0.2357
10883TIP3   OH254063   2.730   3.948  14.247 -0.0800 -0.1873 -0.0507
10883TIP3    H154064   2.657   3.888  14.265 -1.2069  1.3212  0.6049
10883TIP3    H254065   2.697   4.034  14.273  1.9082  0.5583  0.1304
10884TIP3   OH254066   3.881   2.927   4.051 -0.2973 -0.2603 -0.1987
10884TIP3    H154067   3.932   3.006   4.032 -0.1003 -0.4857 -0.6222
10884TIP3    H254068   3.922   2.859   3.998 -2.2869 -0.0260 -2.1624
10885TIP3   OH254069   0.342   2.418   4.731 -0.1842  0.3665 -0.2658
10885TIP3    H154070   0.323   2.397   4.822 -2.7173 -1.6089 -1.1307
10885TIP3    H254071   0.290   2.496   4.712  1.3175  1.5464  0.2303
10886TIP3   OH254072   5.736   2.759   2.237  0.0460 -0.2892 -0.2150
10886TIP3    H154073   5.672   2.690   2.221 -1.1432  0.9858 -1.1868
10886TIP3    H254074   5.718   2.788   2.327 -1.8475  1.1027 -0.9832
10887TIP3   OH254075   6.139   3.461  12.917 -0.0017  0.1204  0.0769
10887TIP3    H154076   6.206   3.509  12.869 -0.2476 -0.0653 -0.4561
10887TIP3    H254077   6.066   3.522  12.926 -0.1089  0.0255 -0.1364
10888TIP3   OH254078   5.443   5.480   5.381 -0.4736  0.0455  0.7878
10888TIP3    H154079   5.488   5.400   5.407  1.1543  0.8218  0.5158
10888TIP3    H254080   5.350   5.457   5.380 -0.0774 -1.6842  1.1907
10889TIP3   OH254081   6.757   5.651   4.557 -0.0753  0.2229 -0.3137
10889TIP3    H154082   6.798   5.728   4.597 -0.0090  0.5956 -1.0807
10889TIP3    H254083   6.737   5.593   4.631  2.7308 -0.4263  0.0671
10890TIP3   OH254084   1.825   2.196  13.616 -0.0358 -0.0119  0.1088
10890TIP3    H154085   1.759   2.264  13.600  0.9732  0.7252 -1.1043
10890TIP3    H254086   1.889   2.208  13.546  0.6471 -1.6492  0.4104
10891TIP3   OH254087   6.897   4.059   1.381 -0.0623  0.4942 -0.5873
10891TIP3    H154088   6.897   3.966   1.403 -0.7913  0.3019 -1.3637
10891TIP3    H254089   6.899   4.061   1.285  3.5637  1.2997 -0.6353
10892TIP3   OH254090   5.380   1.621  14.470  0.7551 -0.0037 -0.0693
10892TIP3    H154091   5.435   1.691  14.507 -0.0932  0.0030  1.2413
10892TIP3    H254092   5.296   1.629  14.516 -0.2557 -0.2419 -1.7568
10893TIP3   OH254093   0.037   2.539   2.098 -0.6201 -0.1481  0.4395
10893TIP3    H154094   0.088   2.591   2.160 -3.2937  1.1311  1.7148
10893TIP3    H254095   0.038   2.591   2.017  0.2129 -0.2317  0.3880
10894TIP3   OH254096   3.705   5.174   0.190  0.3109  0.3943  0.0745
10894TIP3    H154097   3.744   5.171   0.103  0.0790  0.5432 -0.0360
10894TIP3    H254098   3.765   5.125   0.245  0.5448  0.4417 -0.1369
10895TIP3   OH254099   0.479   3.447  13.403 -0.1677 -0.8239 -0.3268
10895TIP3    H154100   0.438   3.522  13.359 -1.5150 -1.7358 -0.7101
10895TIP3    H254101   0.554   3.424  13.348  0.0195 -0.0123 -0.4205
10896TIP3   OH254102   4.800   6.969   3.543 -0.0689  0.7665 -0.4368
10896TIP3    H154103   4.709   6.997   3.553  0.1845  1.0147  1.7994
10896TIP3    H254104   4.851   7.049   3.551  0.4133  0.3763  0.6622
10897TIP3   OH254105   5.459   4.822   5.056 -0.3827 -0.0880  0.3910
10897TIP3    H154106   5.372   4.861   5.050 -0.1598  0.6960  1.9459
10897TIP3    H254107   5.461   4.758   4.984 -1.8588  0.5878 -0.2965
10898TIP3   OH254108   3.555   1.613  15.650 -0.0506 -0.1267 -0.3639
10898TIP3    H154109   3.497   1.570  15.587 -1.0266  1.3826 -0.5562
10898TIP3    H254110   3.577   1.697  15.609 -0.4827  0.7794  1.1757
10899TIP3   OH254111   3.110   3.973  12.624 -0.6241 -0.0375 -0.0330
10899TIP3    H154112   3.123   4.068  12.624  0.8579 -0.2168  0.4944
10899TIP3    H254113   3.167   3.941  12.554  1.2130 -0.7901  1.7296
10900TIP3   OH254114   6.755   5.298   3.906 -0.6788  0.1456 -0.2461
10900TIP3    H154115   6.697   5.371   3.928  0.0929  0.6303  0.2525
10900TIP3    H254116   6.790   5.270   3.991 -1.1594 -0.9807 -0.4019
10901TIP3   OH254117   6.489   3.898   4.143  0.6311  0.3440 -0.5869
10901TIP3    H154118   6.551   3.827   4.160  0.3294 -0.1995 -1.6801
10901TIP3    H254119   6.414   3.877   4.199 -0.0370 -1.0035 -1.9034
10902TIP3   OH254120   3.237   4.537   0.681 -0.0331  0.0327 -0.3745
10902TIP3    H154121   3.265   4.549   0.772 -1.6454  0.3455  0.1147
10902TIP3    H254122   3.246   4.442   0.667 -2.4567 -0.5200  1.1205
10903TIP3   OH254123   6.723   2.662  11.219 -0.4743 -0.1799 -0.1649
10903TIP3    H154124   6.764   2.747  11.232 -1.8658  0.8279 -1.8940
10903TIP3    H254125   6.794   2.606  11.187  0.6410  0.0359  1.7610
10904TIP3   OH254126   3.557   0.995  10.366  0.4558 -0.0598 -0.0912
10904TIP3    H154127   3.467   0.973  10.341  0.5831 -1.8157  0.8704
10904TIP3    H254128   3.547   1.039  10.451  0.5264 -0.6168  0.2072
10905TIP3   OH254129   4.037   6.587  13.133  0.3321 -0.7436 -0.1622
10905TIP3    H154130   4.082   6.503  13.126  0.3282 -0.6826 -1.1244
10905TIP3    H254131   4.031   6.618  13.042 -0.3979 -0.0961  0.0950
10906TIP3   OH254132   5.193   5.207   3.212  0.6000  0.2168  0.2859
10906TIP3    H154133   5.267   5.170   3.261  1.1111  0.7743 -0.0617
10906TIP3    H254134   5.227   5.220   3.124  0.4860  1.6985  0.4474
10907TIP3   OH254135   0.554   0.303   9.443  0.3579 -0.2546 -0.2421
10907TIP3    H154136   0.499   0.336   9.372  1.0289  0.9941 -0.2071
10907TIP3    H254137   0.609   0.378   9.468  2.2881 -1.5064 -0.4911
10908TIP3   OH254138   3.947   0.884  10.440  0.3705 -0.3738 -0.2810
10908TIP3    H154139   3.984   0.802  10.407  1.9972 -0.0040  0.5195
10908TIP3    H254140   3.986   0.952  10.386  1.2715  0.0578  0.8784
10909TIP3   OH254141   5.198   6.019  14.686  0.3646  0.0979  0.0095
10909TIP3    H154142   5.164   5.964  14.615 -2.1803  1.1050  0.3654
10909TIP3    H254143   5.216   6.103  14.645  1.1868 -0.0152  0.1141
10910TIP3   OH254144   0.852   0.800  10.079 -0.4164  0.1311 -0.0897
10910TIP3    H154145   0.788   0.729  10.088 -0.5284  0.1285 -0.8862
10910TIP3    H254146   0.915   0.784  10.150  1.7182 -3.0194 -2.3961
10911TIP3   OH254147   5.601   2.332   3.971 -0.3373 -0.1691 -0.1235
10911TIP3    H154148   5.617   2.422   3.998 -0.6316 -0.2859  0.4496
10911TIP3    H254149   5.688   2.295   3.956 -0.1990  0.0830  0.0535
10912TIP3   OH254150   1.221   3.717   0.159 -0.7912  0.8311  0.2557
10912TIP3    H154151   1.130   3.694   0.178 -0.2582 -0.1649  1.8299
10912TIP3    H254152   1.216   3.781   0.088 -2.5708 -1.1935 -1.5682
10913TIP3   OH254153   0.913   6.894  11.007 -0.1047  0.2325  0.7283
10913TIP3    H154154   0.984   6.836  11.035 -0.6653 -0.6952  0.2566
10913TIP3    H254155   0.955   6.979  10.997  0.8616 -0.2113  0.8504
10914TIP3   OH254156   6.498   6.233  13.484 -0.5606 -0.5482  0.3942
10914TIP3    H154157   6.574   6.274  13.442 -1.4099 -1.8999 -2.8388
10914TIP3    H254158   6.431   6.301  13.485  0.2062  0.2167  1.8911
10915TIP3   OH254159   1.599   2.028   0.209  0.2031 -0.1087  0.0141
10915TIP3    H154160   1.612   1.944   0.164  0.6573 -1.2443  2.1381
10915TIP3    H254161   1.632   2.013   0.297  0.6357  2.4534  0.3524
10916TIP3   OH254162   0.734   1.740   3.300 -0.4565  0.2671  0.8373
10916TIP3    H154163   0.781   1.781   3.373 -0.4889 -0.0199  1.0206
10916TIP3    H254164   0.724   1.810   3.236  1.4878  0.0189  0.1784
10917TIP3   OH254165   3.211   5.587  13.799  0.3538  0.4125 -0.1776
10917TIP3    H154166   3.274   5.644  13.842 -0.0200  0.6276  0.0923
10917TIP3    H254167   3.255   5.502  13.794  0.3639  0.3575  0.7364
10918TIP3   OH254168   4.004   1.575  10.272 -0.1157 -0.2563 -0.2972
10918TIP3    H154169   4.062   1.499  10.266  1.1693  0.5473  1.2244
10918TIP3    H254170   4.040   1.638  10.210  0.4437  0.1015  0.3780
10919TIP3   OH254171   2.447   0.708   2.105 -0.3538  0.0600  0.2957
10919TIP3    H154172   2.405   0.750   2.180 -2.9575  1.1977 -1.6625
10919TIP3    H254173   2.532   0.751   2.099 -0.5173  0.6946  1.9365
10920TIP3   OH254174   2.742   5.995  14.605  0.2550 -0.1106 -0.0156
10920TIP3    H154175   2.715   6.058  14.538  1.3063  0.8494  0.4094
10920TIP3    H254176   2.750   6.048  14.685  0.4269 -0.9409  0.5283
10921TIP3   OH254177   6.570   4.188  13.167 -0.1726 -0.3648 -0.0951
10921TIP3    H154178   6.595   4.153  13.252 -0.8528  0.4252  0.4450
10921TIP3    H254179   6.508   4.258  13.187 -1.0355 -0.7609 -1.2856
10922TIP3   OH254180   7.091   4.688  10.317 -0.0974  0.1730 -0.0113
10922TIP3    H154181   7.136   4.682  10.233 -0.4749 -2.2734 -0.1352
10922TIP3    H254182   7.108   4.776  10.348  1.9267  0.4159 -1.6225
10923TIP3   OH254183   5.597   6.979   0.183  0.4315  0.3395 -0.1802
10923TIP3    H154184   5.644   7.000   0.264 -0.2335  1.1563  0.0122
10923TIP3    H254185   5.506   6.964   0.212  0.5030 -0.9770 -0.5684
10924TIP3   OH254186   2.700   3.220  14.210 -0.5567  0.3281 -0.1148
10924TIP3    H154187   2.619   3.271  14.209 -1.2844 -0.7921 -1.4443
10924TIP3    H254188   2.684   3.152  14.275 -0.9399 -0.2697 -0.8266
10925TIP3   OH254189   0.552   6.055   0.155 -0.1903  0.3239 -0.3888
10925TIP3    H154190   0.609   5.994   0.201  0.7772 -0.2049 -2.2152
10925TIP3    H254191   0.581   6.142   0.184  0.3116  0.0020  0.0696
10926TIP3   OH254192   4.034   4.306  12.613 -0.7414 -0.2728 -0.0332
10926TIP3    H154193   4.090   4.243  12.567 -1.5010 -0.7131 -0.3826
10926TIP3    H254194   3.997   4.360  12.543 -1.8876 -0.9286  0.0511
10927TIP3   OH254195   7.068   6.174   6.276  0.1983 -0.0848  0.2693
10927TIP3    H154196   7.107   6.095   6.314 -0.1484  0.1735  1.2015
10927TIP3    H254197   7.136   6.210   6.219 -0.2237 -1.9362 -1.4902
10928TIP3   OH254198   3.104   0.144   4.661 -0.2246  0.2237 -0.9364
10928TIP3    H154199   3.063   0.153   4.747  0.0700  2.5841 -0.9843
10928TIP3    H254200   3.187   0.100   4.679 -0.2809  0.4591 -0.0457
10929TIP3   OH254201   6.153   1.878   1.349 -0.5011 -0.0967  0.0562
10929TIP3    H154202   6.230   1.840   1.391 -1.6199 -1.2578  1.1985
10929TIP3    H254203   6.114   1.805   1.300 -0.6257  0.5871 -0.8826
10930TIP3   OH254204   4.115   4.857   0.084  0.0690 -0.1330 -0.7003
10930TIP3    H154205   4.129   4.805   0.005  0.8419  0.9631 -1.3067
10930TIP3    H254206   4.053   4.806   0.135 -0.1512 -1.0513 -1.8396
10931TIP3   OH254207   2.136   5.448   2.341  1.5744  0.2814 -0.3826
10931TIP3    H154208   2.171   5.376   2.394 -1.8635 -2.1267 -1.0184
10931TIP3    H254209   2.049   5.465   2.377  0.7960  1.4855 -2.6071
10932TIP3   OH254210   4.431   4.214  12.517  0.0016  0.1593  0.8637
10932TIP3    H154211   4.521   4.214  12.549  0.1579  0.7656  0.4573
10932TIP3    H254212   4.416   4.305  12.488  0.4411 -0.6427 -2.3067
10933TIP3   OH254213   0.275   0.461  13.030 -0.2323  0.2206 -0.0282
10933TIP3    H154214   0.205   0.519  12.999 -0.6285 -0.1618  0.1279
10933TIP3    H254215   0.313   0.506  13.105 -0.0881  0.5888 -0.3229
10934TIP3   OH254216   2.819   0.059  13.109  0.1931  0.2110  0.3009
10934TIP3    H154217   2.752   0.103  13.162 -1.0609 -1.1591 -0.0653
10934TIP3    H254218   2.864   0.000  13.171  1.1424  1.1878  0.5628
10935TIP3   OH254219   2.405   6.872  13.411  0.4689 -0.2443  0.2899
10935TIP3    H154220   2.401   6.803  13.477 -3.1991 -0.2832  0.2667
10935TIP3    H254221   2.410   6.953  13.462 -2.2302 -0.2794  0.7520
10936TIP3   OH254222   2.451   2.851   0.460  0.2827 -0.2011 -1.0919
10936TIP3    H154223   2.520   2.902   0.417 -0.0948 -0.4404 -1.9984
10936TIP3    H254224   2.386   2.836   0.392 -1.5648  1.5414  0.1725
10937TIP3   OH254225   3.571   1.220   0.738 -0.2768 -0.6759 -0.5528
10937TIP3    H154226   3.618   1.201   0.819 -0.4479  0.4319 -0.1718
10937TIP3    H254227   3.586   1.314   0.723  0.9479 -1.1148 -2.5843
10938TIP3   OH254228   6.446   4.081  11.888 -0.0083  0.3948  0.2301
10938TIP3    H154229   6.527   4.075  11.838 -0.2418  3.5807 -0.7500
10938TIP3    H254230   6.376   4.075  11.823 -0.6274 -1.7861  1.0038
10939TIP3   OH254231   3.225   7.090   4.857  0.2127  0.6728 -0.0055
10939TIP3    H154232   3.272   7.147   4.917 -1.1755  3.2693 -1.2285
10939TIP3    H254233   3.294   7.039   4.814  1.4547  0.8961  1.6085
10940TIP3   OH254234   1.214   5.159  12.493 -0.0651  0.2444 -0.1583
10940TIP3    H154235   1.140   5.185  12.549  0.3900 -1.9400  1.6252
10940TIP3    H254236   1.288   5.208  12.528  0.1110 -0.7220  0.9149
10941TIP3   OH254237   7.086   2.107   4.032  0.3386 -0.0562 -0.6284
10941TIP3    H154238   7.067   2.146   3.947  0.8042 -0.8247 -1.1051
10941TIP3    H254239   7.182   2.102   4.036  0.3952  1.2495  0.5538
10942TIP3   OH254240   3.769   1.476   2.290 -0.5006 -0.6695  0.0170
10942TIP3    H154241   3.737   1.404   2.234 -0.2448  0.0379 -1.0809
10942TIP3    H254242   3.851   1.504   2.248  0.6044 -1.2120  1.7157
10943TIP3   OH254243   1.189   0.735   3.274 -0.0955 -0.1805 -0.5215
10943TIP3    H154244   1.137   0.815   3.267  1.9232  1.1072 -1.7640
10943TIP3    H254245   1.176   0.691   3.190  1.0429  0.3287 -0.9824
10944TIP3   OH254246   4.244   0.882  13.229 -0.0823  0.9570 -0.0012
10944TIP3    H154247   4.253   0.942  13.155 -1.4895 -0.6419 -1.5854
10944TIP3    H254248   4.156   0.898  13.263 -0.5961 -0.3334 -0.6378
10945TIP3   OH254249   6.683   1.965  14.977 -0.5303 -0.7314 -0.2906
10945TIP3    H154250   6.714   1.908  14.906  0.8914  0.8724 -1.0578
10945TIP3    H254251   6.588   1.956  14.975 -0.3771 -2.9500 -0.4344
10946TIP3   OH254252   4.946   1.824   2.558  0.1529  0.0922  0.1157
10946TIP3    H154253   4.879   1.756   2.565 -0.0838  0.3683  0.6181
10946TIP3    H254254   4.908   1.889   2.499  0.1886  0.0109  0.0022
10947TIP3   OH254255   6.869   4.458  11.754 -0.4682 -0.5189  0.6950
10947TIP3    H154256   6.945   4.446  11.697 -0.6438 -0.0975  0.3709
10947TIP3    H254257   6.808   4.388  11.727 -1.2217  0.6428 -0.7554
10948TIP3   OH254258   1.065   1.058   3.778 -0.6675  0.1010  0.3575
10948TIP3    H154259   1.102   0.976   3.810 -0.5578 -0.0136 -0.0616
10948TIP3    H254260   0.984   1.033   3.733  0.1969  0.0128 -1.2333
10949TIP3   OH254261   0.998   0.125   1.486 -0.5179  0.4025  0.1234
10949TIP3    H154262   1.088   0.118   1.452 -0.4474  0.4500  0.2985
10949TIP3    H254263   1.009   0.137   1.580 -0.6788  1.1776  0.0574
10950TIP3   OH254264   5.104   3.574  15.503 -0.3996 -0.4133 -0.3580
10950TIP3    H154265   5.098   3.525  15.585 -0.2902  1.3308  0.7367
10950TIP3    H254266   5.198   3.577  15.483 -0.3693 -0.3043 -0.2006
10951TIP3   OH254267   6.503   2.513   4.950  0.4723  0.7751 -0.4401
10951TIP3    H154268   6.564   2.473   4.888 -0.8781 -0.7315 -0.8655
10951TIP3    H254269   6.493   2.604   4.920  0.1925  0.2027 -2.1932
10952TIP3   OH254270   3.255   4.885  14.513 -0.6752 -0.2115 -0.2898
10952TIP3    H154271   3.245   4.805  14.565  0.8677 -1.1324 -1.3112
10952TIP3    H254272   3.210   4.866  14.430 -0.9640  0.2800 -0.2482
10953TIP3   OH254273   6.036   3.900   1.131 -0.7185 -0.6488  0.3208
10953TIP3    H154274   6.091   3.949   1.192 -1.5040  1.2042 -0.3970
10953TIP3    H254275   5.950   3.942   1.138 -1.0000 -0.8544 -1.5298
10954TIP3   OH254276   3.453   2.057   6.007 -0.4087  0.1240  0.8174
10954TIP3    H154277   3.500   2.137   5.983 -0.2468 -0.7049 -1.9784
10954TIP3    H254278   3.362   2.084   6.016 -0.3919  0.5990 -0.3445
10955TIP3   OH254279   0.370   2.395  15.644  0.4921 -0.0577  0.2616
10955TIP3    H154280   0.279   2.395  15.674 -0.3381  0.5629 -2.0562
10955TIP3    H254281   0.416   2.449  15.708 -0.8962  0.1947  1.0961
10956TIP3   OH254282   4.751   4.192   1.216  0.0411 -0.3725  0.1440
10956TIP3    H154283   4.725   4.110   1.259  1.3268 -0.2455  1.2264
10956TIP3    H254284   4.784   4.165   1.131  0.4475 -0.9889  0.4914
10957TIP3   OH254285   3.120   1.519  15.326 -0.1754 -0.2086 -0.3439
10957TIP3    H154286   3.137   1.455  15.257  0.7527 -0.1246 -0.1948
10957TIP3    H254287   3.205   1.535  15.367 -0.3675  1.1913 -0.4443
10958TIP3   OH254288   1.419   5.559   1.193  0.2386  0.0770  0.0527
10958TIP3    H154289   1.371   5.494   1.142  1.6642 -0.0322 -1.2184
10958TIP3    H254290   1.475   5.508   1.251 -0.4871  0.2086  0.9043
10959TIP3   OH254291   5.956   2.480  15.601  0.3763  0.6479  0.1928
10959TIP3    H154292   5.930   2.536  15.674  0.3506  1.1260 -0.1757
10959TIP3    H254293   5.890   2.496  15.534  0.9253  0.9281 -0.2887
10960TIP3   OH254294   2.216   6.660  11.286  0.5790 -0.0466 -0.0506
10960TIP3    H154295   2.279   6.615  11.343  1.3452  0.2238 -0.6695
10960TIP3    H254296   2.163   6.589  11.248  1.0162 -0.3431 -0.1184
10961TIP3   OH254297   0.736   5.857  13.326  0.3144 -0.4728 -0.1172
10961TIP3    H154298   0.668   5.895  13.383  0.5390  0.3740 -0.3986
10961TIP3    H254299   0.700   5.866  13.238  0.9962  0.4516 -0.3147
10962TIP3   OH254300   5.463   3.783  13.806  0.0948  0.5943  0.3607
10962TIP3    H154301   5.430   3.695  13.788 -0.8903  1.0067  0.0565
10962TIP3    H254302   5.520   3.803  13.731  2.0103 -0.5582  1.4370
10963TIP3   OH254303   5.169   2.735   2.016 -0.5449 -0.4598 -0.0972
10963TIP3    H154304   5.183   2.649   1.977 -2.5130 -0.5527 -0.6998
10963TIP3    H254305   5.143   2.791   1.943  1.4622  0.9221  0.1316
10964TIP3   OH254306   1.326   2.730   3.020 -0.1003  0.0800 -0.4067
10964TIP3    H154307   1.362   2.656   3.069 -0.9559  0.3751  0.7099
10964TIP3    H254308   1.400   2.790   3.009 -0.0914  0.4563  1.4123
10965TIP3   OH254309   3.925   5.265  12.616 -0.1460 -0.1681 -0.0205
10965TIP3    H154310   3.893   5.300  12.699  0.0707 -0.0425  0.0103
10965TIP3    H254311   3.869   5.305  12.550  0.8448  1.1729 -0.0859
10966TIP3   OH254312   0.235   4.320   4.564  0.5552 -0.4534  0.1360
10966TIP3    H154313   0.172   4.379   4.523  3.2303  0.7063 -2.6652
10966TIP3    H254314   0.267   4.368   4.641 -0.9998 -0.5526  0.8748
10967TIP3   OH254315   0.831   1.606  11.710  0.0248  0.4398 -0.2931
10967TIP3    H154316   0.821   1.523  11.663  0.4879  1.0705 -1.5716
10967TIP3    H254317   0.806   1.586  11.800  0.4071 -1.1491 -0.5072
10968TIP3   OH254318   3.228   0.054   2.853 -0.1236  0.0607  0.2865
10968TIP3    H154319   3.213  -0.035   2.820  1.6611 -0.3330  0.4504
10968TIP3    H254320   3.233   0.108   2.775 -0.0236 -0.1814  0.1242
10969TIP3   OH254321   6.651   5.711  15.166  0.0322 -0.1969 -0.1547
10969TIP3    H154322   6.596   5.785  15.191  1.0745  0.3815  0.4964
10969TIP3    H254323   6.734   5.726  15.211  0.3794 -1.5946 -0.2769
10970TIP3   OH254324   1.877   3.355   3.464  0.3145 -1.1184 -0.1303
10970TIP3    H154325   1.822   3.391   3.533  0.0652  0.6757 -1.1867
10970TIP3    H254326   1.931   3.429   3.436 -0.2507 -1.5184 -2.4855
10971TIP3   OH254327   0.668   0.084  12.397 -0.3927 -0.2323 -0.0003
10971TIP3    H154328   0.681   0.091  12.492  0.6477  0.3889 -0.1701
10971TIP3    H254329   0.575   0.062  12.387 -0.4695 -0.5139  1.1649
10972TIP3   OH254330   4.391   4.112   1.589  0.1177  0.5273 -0.5011
10972TIP3    H154331   4.485   4.123   1.599  0.4918 -1.0643 -1.8881
10972TIP3    H254332   4.380   4.074   1.502 -1.6583 -0.9563  0.2972
10973TIP3   OH254333   5.794   0.467  14.540  0.6518  0.2056  0.0698
10973TIP3    H154334   5.875   0.415  14.537  0.6017  0.0915  0.6200
10973TIP3    H254335   5.732   0.412  14.589 -0.0558 -0.1149 -1.1288
10974TIP3   OH254336   1.017   5.657  10.673 -0.1765  0.5910 -0.0586
10974TIP3    H154337   1.010   5.679  10.766 -0.4936  1.0275 -0.1827
10974TIP3    H254338   0.995   5.563  10.669 -0.8924  0.7404  0.2170
10975TIP3   OH254339   3.202   1.951  10.505 -0.0539 -0.4652 -0.1006
10975TIP3    H154340   3.166   1.904  10.429 -0.0022  1.4952 -1.4238
10975TIP3    H254341   3.130   2.005  10.536 -0.4490 -2.1455  2.1011
10976TIP3   OH254342   5.483   2.490   4.547  0.5048 -0.5821  0.0928
10976TIP3    H154343   5.441   2.572   4.522  0.6652 -0.6621 -0.4445
10976TIP3    H254344   5.474   2.434   4.470 -0.5239 -1.4388  0.7857
10977TIP3   OH254345   4.368   5.451   4.042  0.1287  0.2565  0.0262
10977TIP3    H154346   4.375   5.513   4.115 -0.1903  0.1240  0.1733
10977TIP3    H254347   4.311   5.381   4.076  0.3875 -0.0555 -0.1775
10978TIP3   OH254348   2.354   0.220   1.860  1.1761 -0.0430  0.0853
10978TIP3    H154349   2.448   0.224   1.876  1.1518  0.9910  0.0310
10978TIP3    H254350   2.316   0.193   1.943  1.3183  2.1750  0.9529
10979TIP3   OH254351   4.062   2.375  14.070  0.4684  0.1970 -0.1363
10979TIP3    H154352   4.126   2.306  14.048 -1.4086 -2.5067  2.0923
10979TIP3    H254353   4.001   2.376  13.996  0.0423 -1.2361  0.1621
10980TIP3   OH254354   1.886   5.235   2.943  0.2656  0.1671 -0.2525
10980TIP3    H154355   1.939   5.284   3.005  0.4384 -0.0746 -0.2049
10980TIP3    H254356   1.820   5.297   2.914 -0.9646 -0.2094  1.5541
10981TIP3   OH254357   6.704   0.102   9.535 -0.6267  0.1039 -0.7923
10981TIP3    H154358   6.782   0.158   9.532 -0.4831 -0.0530 -0.1554
10981TIP3    H254359   6.738   0.014   9.547 -0.9186  0.1028  0.0763
10982TIP3   OH254360   5.663   0.277   3.329  0.0333  0.1090 -0.4992
10982TIP3    H154361   5.744   0.266   3.379 -0.0627  1.7099  0.0744
10982TIP3    H254362   5.627   0.360   3.361 -1.6357 -0.3796 -1.0312
10983TIP3   OH254363   4.855   5.882  10.645 -0.3040 -0.2514 -0.0947
10983TIP3    H154364   4.895   5.933  10.716 -2.7983  0.5499  0.8631
10983TIP3    H254365   4.865   5.938  10.567  1.0430 -0.4154 -0.0586
10984TIP3   OH254366   6.158   0.857  14.064 -0.0583 -0.5312  0.4376
10984TIP3    H154367   6.140   0.951  14.064 -0.1092 -0.5335 -0.7854
10984TIP3    H254368   6.239   0.848  14.014 -0.6383 -1.2419 -0.3924
10985TIP3   OH254369   1.592   0.678   2.651  0.1157  0.4446 -0.0335
10985TIP3    H154370   1.611   0.588   2.677  0.5431  0.9526  1.5233
10985TIP3    H254371   1.505   0.696   2.686  0.5481  1.0295  0.7715
10986TIP3   OH254372   1.520   6.939  13.892  0.0602 -0.1550  0.2215
10986TIP3    H154373   1.551   6.849  13.884 -1.3889 -0.7940  1.2677
10986TIP3    H254374   1.526   6.975  13.804  2.6476 -0.5506  0.1641
10987TIP3   OH254375   1.743   3.942  11.105  0.3971 -0.4111 -0.3618
10987TIP3    H154376   1.686   3.868  11.127 -0.9505  0.5721 -0.4861
10987TIP3    H254377   1.815   3.901  11.056 -0.9983 -1.5154 -1.6116
10988TIP3   OH254378   2.631   2.222  11.397 -0.1448 -0.1571  0.1779
10988TIP3    H154379   2.693   2.278  11.351 -0.5964  1.5901  1.5612
10988TIP3    H254380   2.599   2.161  11.331 -0.4093  1.9115 -1.7038
10989TIP3   OH254381   3.361   4.278  14.471  0.0006  0.2114 -0.4134
10989TIP3    H154382   3.393   4.188  14.463 -0.6515 -0.0983  0.2805
10989TIP3    H254383   3.270   4.274  14.444 -0.3321  0.4458  0.6109
10990TIP3   OH254384   0.347   0.448   4.848  0.5215 -0.1207 -0.6251
10990TIP3    H154385   0.326   0.359   4.822  0.2334  0.4195 -2.3942
10990TIP3    H254386   0.434   0.442   4.886  1.3848 -0.8997 -2.5808
10991TIP3   OH254387   4.310   3.561   0.024  0.0107  0.7522  0.5232
10991TIP3    H154388   4.327   3.546  -0.069  0.1361  0.4585  0.5926
10991TIP3    H254389   4.330   3.654   0.038  0.7180  0.6207  0.4188
10992TIP3   OH254390   3.418   1.426  12.936  0.3250 -0.4149  0.8067
10992TIP3    H154391   3.474   1.348  12.945  0.8004 -0.4493 -1.6708
10992TIP3    H254392   3.330   1.393  12.953  0.5367 -1.5124 -0.0178
10993TIP3   OH254393   2.262   6.945  10.448  0.0199 -0.5730 -0.0318
10993TIP3    H154394   2.318   6.988  10.512 -0.8245  0.4227  0.0561
10993TIP3    H254395   2.231   7.015  10.391 -2.0862 -0.9018  0.6436
10994TIP3   OH254396   0.141   3.235   4.945  0.1312 -0.0621 -0.5841
10994TIP3    H154397   0.096   3.285   4.876 -0.5191 -1.2177 -1.0164
10994TIP3    H254398   0.216   3.196   4.901 -0.5174 -1.1447 -0.7641
10995TIP3   OH254399   6.565   1.184   4.173  0.5378  0.0628 -0.3037
10995TIP3    H154400   6.481   1.217   4.205  1.6507  0.8819  2.0002
10995TIP3    H254401   6.629   1.218   4.236  2.5207 -1.0878 -1.6173
10996TIP3   OH254402   0.842   4.854   3.066 -0.2947 -0.1306  0.1683
10996TIP3    H154403   0.856   4.797   2.991  1.9687 -0.6165  0.8713
10996TIP3    H254404   0.857   4.942   3.033 -2.0137 -0.0465 -0.5093
10997TIP3   OH254405   4.418   6.588   5.036  0.1468 -0.1076  0.0962
10997TIP3    H154406   4.331   6.627   5.025  0.0686  0.2988  1.8670
10997TIP3    H254407   4.409   6.500   4.999 -1.5303 -0.6666  1.6799
10998TIP3   OH254408   1.193   6.144  12.774 -0.3471  0.4705 -0.1947
10998TIP3    H154409   1.154   6.226  12.805 -0.6085  0.5596 -0.7433
10998TIP3    H254410   1.282   6.167  12.748 -0.8521  0.8810 -1.6306
10999TIP3   OH254411   2.424   6.552  15.117 -0.5882  0.2273 -0.1799
10999TIP3    H154412   2.473   6.543  15.198  0.4754  0.6815 -0.7455
10999TIP3    H254413   2.422   6.464  15.080 -0.5005  0.1370  0.0295
11000TIP3   OH254414   3.268   2.434   2.897  0.1845  0.0346  0.8427
11000TIP3    H154415   3.319   2.434   2.816 -0.3561 -0.7294  0.4847
11000TIP3    H254416   3.199   2.369   2.882 -1.7341  1.9730  0.8010
11001TIP3   OH254417   0.685   5.255  12.304 -0.3391  0.1466  0.0277
11001TIP3    H154418   0.723   5.217  12.383  1.5469  0.3831 -0.7098
11001TIP3    H254419   0.741   5.223  12.233 -2.5820 -0.9057 -1.3810
11002TIP3   OH254420   2.654   6.201  10.845  0.4414  0.0525 -0.3299
11002TIP3    H154421   2.692   6.123  10.804 -2.3853 -1.1852 -0.8635
11002TIP3    H254422   2.643   6.263  10.773  2.6570  1.0144  0.0884
11003TIP3   OH254423   5.854   1.999   0.361 -0.0614  0.0447 -0.8725
11003TIP3    H154424   5.898   2.084   0.354 -0.9680  0.4738 -1.6352
11003TIP3    H254425   5.894   1.947   0.291  0.2497 -0.0483 -0.6282
11004TIP3   OH254426   0.786   2.075   6.003  0.2107  0.2414  0.0830
11004TIP3    H154427   0.852   2.047   5.940  0.9630 -0.2498  1.0634
11004TIP3    H254428   0.822   2.155   6.043 -0.5071  0.8591 -0.4832
11005TIP3   OH254429   4.804   1.672  12.359 -0.0952  0.3429  0.3521
11005TIP3    H154430   4.710   1.691  12.357 -0.2823 -0.3979  1.2197
11005TIP3    H254431   4.814   1.593  12.305  0.3439  1.5236 -1.3763
11006TIP3   OH254432   6.842   3.709  10.981 -0.2076  0.4933 -0.1078
11006TIP3    H154433   6.919   3.747  11.023  2.6848 -2.6133 -2.0980
11006TIP3    H254434   6.877   3.663  10.905 -4.2531 -0.2230 -1.7643
11007TIP3   OH254435   5.252   4.511  11.209  0.0141  0.2717 -0.1553
11007TIP3    H154436   5.345   4.491  11.207  0.4760  2.1831  0.4700
11007TIP3    H254437   5.220   4.468  11.289  0.3960 -0.1586 -0.2269
11008TIP3   OH254438   4.442   3.538   3.419 -0.5391  0.4427  0.5742
11008TIP3    H154439   4.512   3.473   3.413 -0.3360  0.6577  0.5606
11008TIP3    H254440   4.361   3.489   3.406 -0.4466  0.0541  1.4370
11009TIP3   OH254441   6.728   1.100   2.046 -0.2411 -0.3462  0.9630
11009TIP3    H154442   6.647   1.090   2.096 -1.6733  2.6486 -0.5082
11009TIP3    H254443   6.762   1.186   2.072 -1.4787  1.7787 -3.4747
11010TIP3   OH254444   6.024   5.275  11.257  0.3744  0.0575 -0.0932
11010TIP3    H154445   5.946   5.270  11.313  0.6308  3.3575  0.8114
11010TIP3    H254446   6.094   5.238  11.311 -0.0985 -0.3984  0.2129
11011TIP3   OH254447   4.602   6.469  12.337 -0.0347 -0.1785  0.5917
11011TIP3    H154448   4.636   6.383  12.360 -0.1571 -0.3298  0.2154
11011TIP3    H254449   4.657   6.499  12.264 -1.0048 -0.6423 -0.3526
11012TIP3   OH254450   6.886   0.075  14.058 -0.0621  0.4352 -0.2147
11012TIP3    H154451   6.934   0.037  14.131 -0.9415  0.3508  0.3342
11012TIP3    H254452   6.952   0.091  13.991  0.5578 -0.6930  0.1048
11013TIP3   OH254453   1.395   0.863   6.023  0.0236 -0.0865  0.2260
11013TIP3    H154454   1.486   0.891   6.032 -0.0585 -0.2685  1.9611
11013TIP3    H254455   1.399   0.791   5.960  1.0732 -0.0527  0.2349
11014TIP3   OH254456   2.406   5.349  12.848  0.0110 -0.7678  0.2781
11014TIP3    H154457   2.326   5.349  12.796 -0.2381  0.3141  0.6238
11014TIP3    H254458   2.400   5.271  12.902 -0.5998 -0.9279 -0.0125
11015TIP3   OH254459   2.747   5.856   5.126  0.2943  0.0850 -0.3739
11015TIP3    H154460   2.749   5.845   5.031  0.1575  2.2439 -0.6626
11015TIP3    H254461   2.836   5.837   5.154  0.3547 -0.4980 -0.9194
11016TIP3   OH254462   5.587   3.708  10.234 -0.2550 -0.2567  0.5557
11016TIP3    H154463   5.599   3.628  10.183 -0.6339  0.3617 -0.5248
11016TIP3    H254464   5.668   3.758  10.222  0.6270 -1.1077  2.4624
11017TIP3   OH254465   0.750   6.635   5.222  0.4374  0.0037 -0.6551
11017TIP3    H154466   0.821   6.631   5.286  0.3354  1.0434 -0.4507
11017TIP3    H254467   0.670   6.624   5.273  0.4514 -1.5574 -0.9373
11018TIP3   OH254468   6.291   7.056  12.123 -0.5309  0.8844 -0.0747
11018TIP3    H154469   6.328   7.048  12.210  1.1890  0.6787 -0.7914
11018TIP3    H254470   6.353   7.110  12.075  0.3325 -1.6826 -2.0803
11019TIP3   OH254471   5.255   0.886  15.363 -0.3566 -0.4305  0.1565
11019TIP3    H154472   5.227   0.797  15.342  2.0697 -0.9920 -1.0344
11019TIP3    H254473   5.217   0.940  15.294  0.1340 -0.9161 -0.4999
11020TIP3   OH254474   4.486   1.013   3.849  1.2483  0.9263 -0.0268
11020TIP3    H154475   4.492   1.069   3.772  0.5947  2.2760  0.8802
11020TIP3    H254476   4.576   0.999   3.876  1.4899  0.4059 -1.0312
11021TIP3   OH254477   0.724   6.432   1.210  0.2161 -0.0379  0.6830
11021TIP3    H154478   0.748   6.498   1.275  0.1167 -1.2946  2.0500
11021TIP3    H254479   0.628   6.434   1.208  0.2375  0.4787  0.0530
11022TIP3   OH254480   4.997   3.160   3.078  0.0053  1.0170 -0.2512
11022TIP3    H154481   5.042   3.129   3.000 -0.2538  0.8571 -0.3408
11022TIP3    H254482   4.998   3.255   3.071  1.8792  1.1015  0.6258
11023TIP3   OH254483   4.579   1.442   1.151  0.0124  0.2608  0.0897
11023TIP3    H154484   4.613   1.479   1.232 -0.6236 -0.9383  0.9244
11023TIP3    H254485   4.600   1.349   1.156  0.5227  0.2730 -1.4157
11024TIP3   OH254486   3.779   0.091   3.495  0.3191  0.0392  0.6143
11024TIP3    H154487   3.784  -0.005   3.488  0.4309  0.0911 -0.1637
11024TIP3    H254488   3.688   0.111   3.473  0.8794  0.2738 -1.7661
11025TIP3   OH254489   3.600   4.179  14.842 -0.1778  0.6842 -0.3616
11025TIP3    H154490   3.594   4.240  14.768  1.5076  0.1864 -0.9719
11025TIP3    H254491   3.588   4.093  14.803  1.4073  0.3633 -0.2215
11026TIP3   OH254492   6.208   4.285   2.717 -0.3240  0.3977  0.0429
11026TIP3    H154493   6.270   4.343   2.673  1.0465 -0.7647  0.3508
11026TIP3    H254494   6.261   4.210   2.744 -2.0698 -1.1539 -0.6093
11027TIP3   OH254495   4.976   0.381   4.045 -0.1738 -0.5581  0.1006
11027TIP3    H154496   4.933   0.415   4.124 -0.1249  0.7331 -0.4068
11027TIP3    H254497   4.916   0.316   4.010 -0.4832 -0.6832  0.8573
11028TIP3   OH254498   3.068   7.081   3.902  0.4750  0.3181 -0.8240
11028TIP3    H154499   3.097   7.171   3.887  0.5440  0.0353 -2.7080
11028TIP3    H254500   3.143   7.036   3.940 -0.4393  1.6650  2.9971
11029TIP3   OH254501   0.872   0.553   0.762  0.0296  0.5084  0.0085
11029TIP3    H154502   0.791   0.583   0.804  0.3803  0.7623  0.5234
11029TIP3    H254503   0.858   0.568   0.668 -0.4721  0.6696  0.1078
11030TIP3   OH254504   0.925   4.082   2.970 -0.3938 -0.3772  0.2292
11030TIP3    H154505   0.857   4.045   2.915  0.0855 -0.3274 -0.4062
11030TIP3    H254506   0.879   4.143   3.028 -0.7759  0.4362 -0.8908
11031TIP3   OH254507   2.590   5.151   1.641  0.4770 -0.6380  0.0781
11031TIP3    H154508   2.644   5.112   1.572  0.9240  0.9927 -0.5413
11031TIP3    H254509   2.636   5.132   1.722  0.5386 -1.5902 -0.1580
11032TIP3   OH254510   1.995   0.862   5.900  0.0308 -0.2116 -0.3138
11032TIP3    H154511   1.971   0.949   5.867  1.8084  0.0266 -1.0622
11032TIP3    H254512   2.077   0.875   5.946 -0.7190 -1.1695  1.3787
11033TIP3   OH254513   0.535   5.918   2.226  0.0462 -0.0824 -0.1621
11033TIP3    H154514   0.622   5.949   2.251 -0.1645  0.1234  0.3355
11033TIP3    H254515   0.538   5.824   2.241  0.4184 -0.1883 -0.8640
11034TIP3   OH254516   3.742   4.224   1.874  0.1516  0.2210  0.0217
11034TIP3    H154517   3.816   4.279   1.851 -0.5005  0.4626 -1.5760
11034TIP3    H254518   3.782   4.144   1.910  1.1868  0.3462 -0.8164
11035TIP3   OH254519   0.725   4.543   4.509 -0.1909 -0.0492 -0.2925
11035TIP3    H154520   0.705   4.552   4.602  0.3286  0.5780 -0.2334
11035TIP3    H254521   0.806   4.491   4.507 -0.3590 -0.3067 -0.4063
11036TIP3   OH254522   1.266   1.004  15.306 -0.0305 -0.0144 -0.0609
11036TIP3    H154523   1.174   1.019  15.282  0.3752  0.3336 -1.4916
11036TIP3    H254524   1.306   1.090  15.303  0.9555 -0.4784 -2.2860
11037TIP3   OH254525   6.341   6.769   4.057  0.3529  0.0921  0.2698
11037TIP3    H154526   6.336   6.696   3.995 -0.7175  0.2473  0.1691
11037TIP3    H254527   6.318   6.846   4.005  2.8676  0.7763 -0.0026
11038TIP3   OH254528   1.511   2.785   4.934  0.3272  0.2198 -0.0547
11038TIP3    H154529   1.481   2.860   4.883 -2.6385  0.3167  1.6569
11038TIP3    H254530   1.546   2.725   4.868  1.0755  2.2448 -1.6525
11039TIP3   OH254531   6.834   3.857  12.404  0.3857 -1.1022 -0.3620
11039TIP3    H154532   6.877   3.786  12.357  1.1077 -0.7590 -0.2334
11039TIP3    H254533   6.906   3.911  12.438 -0.1353 -0.7905  0.2805
11040TIP3   OH254534   0.895   5.896   0.501  0.1784  0.2236  0.1375
11040TIP3    H154535   0.965   5.901   0.566  0.2442  1.4517  0.0007
11040TIP3    H254536   0.924   5.954   0.431 -1.1699  1.0984  0.2753
11041TIP3   OH254537   2.659   0.234   2.522 -0.4187 -0.0374  0.3299
11041TIP3    H154538   2.622   0.152   2.556 -1.0066  0.2336  0.3471
11041TIP3    H254539   2.688   0.282   2.600 -1.6139  0.5101  0.4562
11042TIP3   OH254540   7.009   4.559   3.952  0.2707 -0.5359  0.3918
11042TIP3    H154541   7.055   4.576   4.035 -1.2285 -3.4218  1.9746
11042TIP3    H254542   6.920   4.538   3.979 -1.2569  1.7433 -2.3234
11043TIP3   OH254543   0.878   4.100   1.165  0.0164  0.1684 -0.6162
11043TIP3    H154544   0.884   4.023   1.110  0.7825 -0.7391  0.6858
11043TIP3    H254545   0.800   4.085   1.219  0.1050  0.3595 -0.4325
11044TIP3   OH254546   7.072   6.905  15.101 -0.5623 -0.3804 -0.4912
11044TIP3    H154547   7.083   6.810  15.095 -0.1561 -0.2886 -1.3189
11044TIP3    H254548   7.108   6.928  15.186 -0.3766 -0.9254 -0.4170
11045TIP3   OH254549   2.510   7.114   1.253 -0.2665  0.0715 -0.3494
11045TIP3    H154550   2.550   7.109   1.340 -0.4860  1.7124 -0.1217
11045TIP3    H254551   2.584   7.105   1.192 -0.0119 -0.2968  0.0092
11046TIP3   OH254552   2.917   3.437  10.587  0.2601  0.0149 -0.0258
11046TIP3    H154553   2.897   3.517  10.538  1.6191  0.5280  0.2005
11046TIP3    H254554   2.939   3.467  10.675  2.2197 -0.3998 -0.3133
11047TIP3   OH254555   0.801   1.016   1.677  0.0669 -0.3291 -0.0252
11047TIP3    H154556   0.853   0.970   1.743  0.9758 -1.7074 -1.6415
11047TIP3    H254557   0.740   1.069   1.728  2.2872  0.5060  1.9420
11048TIP3   OH254558   5.901   0.470  13.930 -0.2442  0.4135  0.0075
11048TIP3    H154559   5.872   0.411  13.861  0.6238  1.6119 -1.4365
11048TIP3    H254560   5.831   0.536  13.937 -1.2600 -0.7473  1.6861
11049TIP3   OH254561   0.544   5.151   0.912 -0.4459  0.0263 -0.3054
11049TIP3    H154562   0.622   5.206   0.917 -0.9938  0.9072 -1.0109
11049TIP3    H254563   0.569   5.081   0.851 -0.4189  0.7014 -1.0943
11050TIP3   OH254564   4.942   3.267   5.002  0.0749  0.5509 -0.9265
11050TIP3    H154565   5.023   3.259   5.052  0.7625 -0.0502 -2.0919
11050TIP3    H254566   4.873   3.237   5.062  0.2106  3.8872  1.1831
11051TIP3   OH254567   6.166   7.054   4.720 -0.0466 -0.0330 -0.1146
11051TIP3    H154568   6.081   7.032   4.684  0.0024  1.6079 -1.3470
11051TIP3    H254569   6.201   7.122   4.662  0.8640  1.3807  1.9362
11052TIP3   OH254570   0.839   7.122   5.132 -0.2686 -0.0480 -0.5429
11052TIP3    H154571   0.778   7.062   5.090 -0.1181 -1.0861  0.6576
11052TIP3    H254572   0.825   7.108   5.226  0.7560  0.7919 -0.2495
11053TIP3   OH254573   5.073   1.759  12.190 -0.3686  0.1867 -0.5427
11053TIP3    H154574   5.066   1.676  12.235  2.3371 -1.1000 -2.1998
11053TIP3    H254575   5.022   1.748  12.110 -0.6308  0.4060 -0.4071
11054TIP3   OH254576   6.760   0.163  13.136  0.6117  0.1380  0.4273
11054TIP3    H154577   6.683   0.217  13.119  0.8325  1.1582  2.2784
11054TIP3    H254578   6.726   0.075  13.147 -0.1424  0.3735  0.0529
11055TIP3   OH254579   4.843   1.786  12.630 -0.4080  0.0066  0.0690
11055TIP3    H154580   4.916   1.735  12.665  0.2740  0.7534 -0.2551
11055TIP3    H254581   4.822   1.743  12.547 -0.3048 -0.1728  0.1346
11056TIP3   OH254582   0.749   3.998   4.377 -0.6966 -0.2068  0.4137
11056TIP3    H154583   0.813   3.961   4.437 -0.4533 -1.1561 -0.4049
11056TIP3    H254584   0.673   4.016   4.431 -0.8820 -2.0626  0.8265
11057TIP3   OH254585   1.516   1.023   1.062 -0.4703 -0.0329  0.1458
11057TIP3    H154586   1.501   0.935   1.028 -1.1980 -1.0215  2.7886
11057TIP3    H254587   1.607   1.023   1.092 -0.1595  0.4693 -0.7743
11058TIP3   OH254588   5.005   0.765  10.305 -0.4928  0.0744 -0.1523
11058TIP3    H154589   5.023   0.817  10.384 -1.4054  0.8381 -0.4358
11058TIP3    H254590   5.087   0.719  10.288 -0.4167 -0.5225  1.5430
11059TIP3   OH254591   1.993   3.153  10.800  0.0587  0.6296  0.3272
11059TIP3    H154592   1.953   3.099  10.732 -1.1048  1.7781  0.0632
11059TIP3    H254593   2.086   3.129  10.798  0.3302  1.5557 -2.6132
11060TIP3   OH254594   5.174   0.985   0.288  0.0038 -0.1694  0.6717
11060TIP3    H154595   5.106   0.919   0.299  0.6457 -0.8747  0.4719
11060TIP3    H254596   5.227   0.979   0.368  0.7139 -0.6715  0.1759
11061TIP3   OH254597   6.716   4.181   2.653 -0.0706  0.4208  0.3599
11061TIP3    H154598   6.701   4.275   2.666  0.9857  0.5309  0.8842
11061TIP3    H254599   6.765   4.153   2.731  0.1347 -0.4355 -0.0624
11062TIP3   OH254600   1.578   4.952  11.440  0.0647 -0.0792 -0.5664
11062TIP3    H154601   1.644   4.942  11.371  0.9713 -0.2674  0.2953
11062TIP3    H254602   1.495   4.934  11.397  0.6555 -0.6461 -1.5061
11063TIP3   OH254603   0.336   2.410  14.492  0.8519 -0.0022 -0.5116
11063TIP3    H154604   0.343   2.320  14.459 -0.2411 -1.2762  2.3700
11063TIP3    H254605   0.297   2.459  14.420 -1.6178 -2.6028 -1.1115
11064TIP3   OH254606   0.271   2.216  13.191 -0.8132 -0.6184  0.1498
11064TIP3    H154607   0.286   2.247  13.281  0.6956 -3.1888  0.9164
11064TIP3    H254608   0.195   2.264  13.161 -0.3661  1.5465  2.2000
11065TIP3   OH254609   6.595   1.969   0.708  0.2361  0.2975  0.3586
11065TIP3    H154610   6.625   2.000   0.622  0.6924  2.6027  1.2903
11065TIP3    H254611   6.527   2.031   0.733 -0.5483 -0.8908  1.3004
11066TIP3   OH254612   4.143   2.014   1.336  0.1870 -0.1817  0.6113
11066TIP3    H154613   4.153   2.072   1.260  0.2344 -0.5712  0.3162
11066TIP3    H254614   4.090   2.065   1.398 -0.1050  0.0253  0.2000
11067TIP3   OH254615   3.650   3.067   3.931  0.2880 -0.3536  0.0779
11067TIP3    H154616   3.634   3.148   3.979  0.4264 -0.2375 -0.0672
11067TIP3    H254617   3.692   3.009   3.994 -1.0242 -0.7958  0.5688
11068TIP3   OH254618   5.103   1.669  12.668  0.8503  0.6372  0.2313
11068TIP3    H154619   5.169   1.710  12.613 -0.2370  0.5745 -1.1805
11068TIP3    H254620   5.143   1.663  12.755  1.5821  3.3059  0.1339
11069TIP3   OH254621   3.295   6.934   1.750  0.0011  0.1386  0.0711
11069TIP3    H154622   3.236   7.001   1.785 -0.6735 -0.6096  0.3894
11069TIP3    H254623   3.239   6.878   1.697  0.8748  0.8346 -1.6588
11070TIP3   OH254624   6.507   5.864  14.545 -0.5539  0.3093 -0.1842
11070TIP3    H154625   6.475   5.914  14.620  0.5942  1.2354 -0.2770
11070TIP3    H254626   6.485   5.918  14.469  0.9826  0.8855 -0.2584
11071TIP3   OH254627   0.944   3.737   3.211 -0.2338  0.0062 -0.0544
11071TIP3    H154628   0.943   3.696   3.298  1.1242  1.8574  0.9107
11071TIP3    H254629   0.929   3.830   3.229  0.6067  0.5025 -1.7334
11072TIP3   OH254630   1.987   6.024  12.125 -0.4009 -0.4893 -0.0723
11072TIP3    H154631   1.997   5.989  12.214 -1.6708  1.0789  0.7398
11072TIP3    H254632   1.995   6.119  12.135 -1.4442 -0.2120 -1.4855
11073TIP3   OH254633   4.550   0.081  13.125 -0.0937 -0.0190 -0.6457
11073TIP3    H154634   4.493   0.156  13.146 -1.9504 -1.6563  0.4700
11073TIP3    H254635   4.605   0.071  13.202 -1.3905 -1.1055  0.1909
11074TIP3   OH254636   4.538   4.479  12.434  0.3443 -0.2476  0.0237
11074TIP3    H154637   4.542   4.528  12.517  0.6204 -1.6460  0.8720
11074TIP3    H254638   4.623   4.493  12.393 -0.3212  1.7062 -0.8122
11075TIP3   OH254639   6.004   5.109   4.319  0.1323  0.0734 -0.3348
11075TIP3    H154640   5.979   5.140   4.406 -0.7024  1.1288 -0.9266
11075TIP3    H254641   6.001   5.014   4.326 -0.7121  0.1493  0.5694
11076TIP3   OH254642   4.858   4.571   6.064  0.1229 -0.1072 -0.1764
11076TIP3    H154643   4.796   4.642   6.048 -0.0867  0.2817  2.0470
11076TIP3    H254644   4.942   4.615   6.078  0.3049 -0.4057 -0.3308
11077TIP3   OH254645   5.566   4.139   1.622 -0.0346 -0.5684  0.4621
11077TIP3    H154646   5.564   4.177   1.710 -0.5220 -2.0559  1.1377
11077TIP3    H254647   5.482   4.162   1.583 -0.0546 -0.3980  0.6089
11078TIP3   OH254648   1.485   3.896  11.272 -0.4546 -0.1211  0.2325
11078TIP3    H154649   1.551   3.859  11.331 -0.9130  0.0664  0.8733
11078TIP3    H254650   1.513   3.987  11.260 -0.9802  0.1652  1.0855
11079TIP3   OH254651   3.318   3.963   5.254 -0.3199 -0.1032 -0.2289
11079TIP3    H154652   3.276   4.043   5.286  0.0966  0.3215 -0.7139
11079TIP3    H254653   3.246   3.901   5.241 -0.4742 -0.4999  2.0267
11080TIP3   OH254654   2.923   4.861   4.145 -0.1170 -0.3464 -0.0819
11080TIP3    H154655   2.916   4.957   4.146  1.7643 -0.1815  0.4053
11080TIP3    H254656   2.888   4.834   4.229  1.5538  0.1441  0.8140
11081TIP3   OH254657   4.661   6.801  15.167 -0.4403 -0.1901 -0.6419
11081TIP3    H154658   4.603   6.855  15.221 -0.9565 -0.7630 -0.6021
11081TIP3    H254659   4.638   6.711  15.191  1.3055 -0.4357  0.2703
11082TIP3   OH254660   2.050   7.057  12.354  0.2159  0.2525 -0.4011
11082TIP3    H154661   2.132   7.013  12.374  0.2577  0.1544 -0.7798
11082TIP3    H254662   2.071   7.150  12.362  0.8316  0.2969 -2.1883
11083TIP3   OH254663   6.610   0.192  14.891 -0.1299  0.3236 -0.0833
11083TIP3    H154664   6.554   0.141  14.832 -0.8217  0.0752  0.7633
11083TIP3    H254665   6.656   0.253  14.834 -1.6374  0.8782 -0.7672
11084TIP3   OH254666   0.582   2.456  11.559 -0.0472  0.4458  0.1073
11084TIP3    H154667   0.667   2.414  11.550 -0.4753 -0.1023 -1.6248
11084TIP3    H254668   0.590   2.539  11.511 -0.2547  0.7850  0.6370
11085TIP3   OH254669   2.495   5.520   3.737 -0.0069 -0.7691 -0.0102
11085TIP3    H154670   2.417   5.484   3.780 -1.7327  2.8495  0.2920
11085TIP3    H254671   2.562   5.520   3.804 -0.7734 -0.8932  0.7786
11086TIP3   OH254672   2.807   6.809  10.032 -0.3058  0.9819  0.1851
11086TIP3    H154673   2.814   6.734   9.972 -1.2034  1.0023  0.0391
11086TIP3    H254674   2.738   6.784  10.093  1.3832  0.4651  1.9765
11087TIP3   OH254675   4.669   0.810   1.408  0.7714 -0.1355 -0.0480
11087TIP3    H154676   4.749   0.786   1.455 -0.4907  0.0558  2.2952
11087TIP3    H254677   4.630   0.880   1.460 -1.1606 -0.5196 -0.8923
11088TIP3   OH254678   2.175   5.597  10.710 -0.0138  0.4898  0.5629
11088TIP3    H154679   2.095   5.644  10.731 -0.7095 -0.9191  1.2169
11088TIP3    H254680   2.210   5.570  10.795  0.6517  0.2752  0.2334
11089TIP3   OH254681   3.055   3.941  14.549 -0.2121 -0.7177  1.0368
11089TIP3    H154682   2.994   3.890  14.495  0.4805 -1.9927  1.4107
11089TIP3    H254683   3.120   3.877  14.579  1.9361  0.7298 -0.1862
11090TIP3   OH254684   3.356   6.041   1.691  0.0723 -0.0552  0.3298
11090TIP3    H154685   3.311   6.046   1.775  0.5008  0.1335  0.5514
11090TIP3    H254686   3.390   5.952   1.687 -0.8585 -0.4018 -0.1238
11091TIP3   OH254687   3.334   1.077  14.967 -0.2793  0.4074  0.1324
11091TIP3    H154688   3.280   1.153  14.946 -0.9583  0.1639  0.9460
11091TIP3    H254689   3.328   1.069  15.062  0.5879 -0.0776  0.1532
11092TIP3   OH254690   4.710   5.636  12.410  0.4140  0.3524 -0.9756
11092TIP3    H154691   4.717   5.680  12.495 -1.0345 -2.1881  0.5852
11092TIP3    H254692   4.625   5.591  12.414  0.4550 -0.0967 -3.6754
11093TIP3   OH254693   3.427   4.250  15.041 -0.0450  0.3293 -0.7070
11093TIP3    H154694   3.467   4.198  15.110  1.1957  0.0630 -1.5933
11093TIP3    H254695   3.489   4.245  14.968 -1.3002  0.6318 -1.8333
11094TIP3   OH254696   2.355   4.229   2.081  0.4129 -0.5788 -0.3704
11094TIP3    H154697   2.318   4.297   2.025  2.1387  0.7827  0.0336
11094TIP3    H254698   2.376   4.274   2.163  2.7909 -1.2242 -0.5425
11095TIP3   OH254699   5.009   2.931  14.376  0.6955  0.2081  0.1480
11095TIP3    H154700   4.977   2.880  14.302  1.0537  2.1285 -1.4186
11095TIP3    H254701   5.070   2.873  14.422  1.9549 -0.4232 -2.1960
11096TIP3   OH254702   3.454   5.356   1.616 -0.5009 -0.2020 -0.3784
11096TIP3    H154703   3.479   5.411   1.542 -0.0211  1.6880  1.1103
11096TIP3    H254704   3.365   5.327   1.595 -0.0151 -0.5831 -2.1305
11097TIP3   OH254705   5.938   6.634  14.742  0.7571  0.0434  0.2915
11097TIP3    H154706   5.920   6.688  14.819  0.0444 -0.8917  0.7970
11097TIP3    H254707   6.003   6.684  14.693 -0.3784  1.7030  0.3856
11098TIP3   OH254708   6.054   3.131  12.739  0.5215  0.5057  0.1841
11098TIP3    H154709   6.051   3.223  12.714 -0.4368  0.3844 -0.2080
11098TIP3    H254710   6.063   3.084  12.656 -0.6699  0.1859  0.2222
11099TIP3   OH254711   5.959   3.222  10.077  0.0628  0.0255 -0.2284
11099TIP3    H154712   5.983   3.203   9.987 -0.3825  1.5858 -0.7077
11099TIP3    H254713   5.946   3.317  10.079  1.6655  0.2756  1.8690
11100TIP3   OH254714   6.747   6.977   2.495 -0.1222  0.0913 -0.5027
11100TIP3    H154715   6.768   6.943   2.582 -1.5131  1.3026  0.3693
11100TIP3    H254716   6.722   7.068   2.511 -0.2425  0.3888 -2.2073
11101TIP3   OH254717   2.999   0.772   9.531  0.3443  0.0963  0.0870
11101TIP3    H154718   3.049   0.845   9.570 -1.5272  0.6419  1.6694
11101TIP3    H254719   2.922   0.814   9.494  0.0185 -0.9297 -0.4155
11102TIP3   OH254720   2.647   0.329  12.284  0.5103  0.2225  0.6622
11102TIP3    H154721   2.582   0.365  12.225 -0.2444 -2.4669 -0.2634
11102TIP3    H254722   2.671   0.244  12.246  0.5860 -1.2785  3.7408
11103TIP3   OH254723   3.685   2.726  11.609  0.1867 -0.7359 -0.5664
11103TIP3    H154724   3.738   2.800  11.638  1.8009 -1.3907 -1.7099
11103TIP3    H254725   3.696   2.660  11.677  0.0593 -0.5054 -0.3248
11104TIP3   OH254726   0.553   4.324   0.146  0.0836  0.1658  0.0904
11104TIP3    H154727   0.492   4.299   0.216 -1.5525  1.1281 -0.9308
11104TIP3    H254728   0.584   4.411   0.172  0.8626 -0.2100  0.4706
11105TIP3   OH254729   4.950   0.185  14.790  0.1740 -0.1957  0.6716
11105TIP3    H154730   4.996   0.211  14.870 -1.8529 -0.4185  1.9992
11105TIP3    H254731   4.859   0.174  14.818 -0.7883  0.6140 -1.8784
11106TIP3   OH254732   2.094   1.663  15.495  0.1581  0.6166  0.2660
11106TIP3    H154733   2.101   1.694  15.405 -0.8133  0.3766  0.0977
11106TIP3    H254734   2.007   1.622  15.500  0.3764  0.2366  1.1878
11107TIP3   OH254735   3.929   1.948  14.027 -0.0293  0.2259  0.5126
11107TIP3    H154736   3.988   1.957  13.952  0.3249 -0.0892  0.7505
11107TIP3    H254737   3.850   1.997  14.002  0.2633  0.4978  0.1225
11108TIP3   OH254738   1.245   0.753  14.450  0.2380  0.2371  0.2068
11108TIP3    H154739   1.169   0.794  14.408 -0.7988 -2.0729 -0.3376
11108TIP3    H254740   1.258   0.672  14.401  1.7911 -0.4072  1.6033
11109TIP3   OH254741   3.941   4.590   2.324  0.0998 -0.2672 -0.0827
11109TIP3    H154742   4.004   4.551   2.264 -2.9101 -0.1967 -3.6489
11109TIP3    H254743   3.907   4.516   2.375 -0.7558 -1.2723 -2.0207
11110TIP3   OH254744   1.543   5.052  14.797  0.3293 -0.3359  0.6049
11110TIP3    H154745   1.592   4.979  14.834  0.6226 -0.2076  0.4704
11110TIP3    H254746   1.610   5.117  14.773  0.3255 -1.1298 -1.7939
11111TIP3   OH254747   3.291   7.001   5.588 -0.3856  0.0315 -0.0595
11111TIP3    H154748   3.265   6.968   5.674 -1.1636  0.6768 -0.0328
11111TIP3    H254749   3.217   7.056   5.561 -0.7802 -1.2329 -1.7286
11112TIP3   OH254750   6.448   1.116   1.418  0.2293  0.1563 -0.2055
11112TIP3    H154751   6.421   1.032   1.382  0.3032  0.6881 -1.5617
11112TIP3    H254752   6.367   1.166   1.426  0.3336  0.3754 -0.5254
11113TIP3   OH254753   2.221   6.828  10.756  0.2076  0.5208 -0.0339
11113TIP3    H154754   2.265   6.883  10.821  0.0032  1.7187 -0.8902
11113TIP3    H254755   2.290   6.769  10.725  0.5499  0.6076  0.5417
11114TIP3   OH254756   5.110   1.076  15.161 -0.1240 -0.4909  0.0797
11114TIP3    H154757   5.115   1.147  15.225  2.1611 -2.7654  2.6590
11114TIP3    H254758   5.030   1.028  15.184 -0.2006 -0.3493  0.1110
11115TIP3   OH254759   2.377   4.693   0.843  0.6557 -0.1913 -0.1003
11115TIP3    H154760   2.421   4.713   0.760  0.9730  0.0308  0.1194
11115TIP3    H254761   2.340   4.776   0.872 -0.7723 -0.5659 -0.7700
11116TIP3   OH254762   2.459   7.017  11.313 -0.0884  0.3239 -0.4890
11116TIP3    H154763   2.428   7.081  11.376 -2.7761 -1.2816 -0.0337
11116TIP3    H254764   2.546   7.048  11.288 -0.4811  3.0338  1.1385
11117TIP3   OH254765   6.566   3.147  10.247  0.0944  0.5371  0.5358
11117TIP3    H154766   6.513   3.073  10.275 -1.0243  0.5528 -1.3434
11117TIP3    H254767   6.596   3.123  10.159 -0.1962  2.2355 -0.0705
11118TIP3   OH254768   3.162   0.608  12.210  0.2154 -0.2207 -0.4029
11118TIP3    H154769   3.153   0.540  12.277  0.7998 -1.0161 -1.1262
11118TIP3    H254770   3.216   0.569  12.142 -1.2744  0.1860 -1.8697
11119TIP3   OH254771   6.230   6.037   3.744 -0.4898 -0.0594 -0.0521
11119TIP3    H154772   6.257   6.093   3.817 -1.5129 -0.0762  0.3615
11119TIP3    H254773   6.282   5.958   3.754  1.9978  1.3009 -1.4530
11120TIP3   OH254774   6.965   5.415   5.854  0.1756 -0.1576 -0.5799
11120TIP3    H154775   7.030   5.485   5.859  1.3235 -1.1374 -1.2816
11120TIP3    H254776   6.885   5.458   5.823 -0.0793  1.4078  1.9635
11121TIP3   OH254777   2.374   6.110  14.543  0.3785 -0.1516 -0.4344
11121TIP3    H154778   2.303   6.058  14.581  0.2255 -0.0491 -0.5772
11121TIP3    H254779   2.332   6.158  14.472  0.8852 -1.1532 -1.4388
11122TIP3   OH254780   5.166   4.140  11.164  0.6399 -0.5802  0.6362
11122TIP3    H154781   5.158   4.045  11.165 -2.1582 -0.4899 -1.6216
11122TIP3    H254782   5.229   4.159  11.095 -1.7658 -0.8146 -1.7588
11123TIP3   OH254783   0.269   3.179   1.863 -0.0980  0.1406  0.5369
11123TIP3    H154784   0.212   3.233   1.808  1.7671  0.0793 -1.6265
11123TIP3    H254785   0.211   3.143   1.930 -1.5526  4.6541  2.1298
11124TIP3   OH254786   3.675   0.380   1.304 -0.1240 -0.0110  0.3670
11124TIP3    H154787   3.749   0.368   1.244 -0.4144  0.7117 -0.1597
11124TIP3    H254788   3.636   0.293   1.312 -0.2138 -0.0814 -0.6849
11125TIP3   OH254789   2.439   4.284   5.153 -0.3082 -0.6935  0.5209
11125TIP3    H154790   2.498   4.318   5.220 -1.5858  2.4654  0.2354
11125TIP3    H254791   2.416   4.196   5.183  0.9914 -0.2879  2.9583
11126TIP3   OH254792   4.626   3.979   2.049 -0.8577  0.4846  0.1143
11126TIP3    H154793   4.667   4.052   2.095 -2.0889  0.0798  1.9811
11126TIP3    H254794   4.673   3.902   2.080 -0.3837  0.3704 -0.8768
11127TIP3   OH254795   6.299   2.140   0.514 -0.7680 -0.0897 -0.2608
11127TIP3    H154796   6.296   2.075   0.443  1.2453 -1.2344  0.5947
11127TIP3    H254797   6.349   2.213   0.478 -1.3909  0.1586 -0.6232
11128TIP3   OH254798   5.803   4.254   3.922  0.5030  0.3681 -0.4304
11128TIP3    H154799   5.857   4.262   4.001  0.0668  0.2142 -0.1097
11128TIP3    H254800   5.866   4.249   3.850  0.8878  1.2938 -0.1657
11129TIP3   OH254801   4.424   3.254   1.637 -0.0870 -0.3084  0.0032
11129TIP3    H154802   4.431   3.160   1.653  1.9859 -0.4321 -1.3657
11129TIP3    H254803   4.434   3.293   1.724  1.5810 -1.2691  0.2803
11130TIP3   OH254804   3.966   2.429   1.311  0.4979  0.5806  0.0676
11130TIP3    H154805   4.049   2.462   1.275  0.9713 -0.2771  0.3323
11130TIP3    H254806   3.937   2.497   1.371  1.0987  0.8268  0.0869
11131TIP3   OH254807   5.680   4.240  11.922  0.0011 -0.0937  0.0532
11131TIP3    H154808   5.611   4.303  11.900  1.0372  0.2779 -2.5844
11131TIP3    H254809   5.761   4.290  11.915  0.6568 -0.9034  1.4879
11132TIP3   OH254810   3.984   6.887   0.809  0.4410  0.1466  0.0132
11132TIP3    H154811   4.038   6.948   0.857  1.7807 -0.1448 -1.0594
11132TIP3    H254812   3.899   6.889   0.853  0.1570  3.3815 -0.4749
11133TIP3   OH254813   1.426   4.794   4.215  0.0570 -0.2820  0.1936
11133TIP3    H154814   1.452   4.710   4.252 -1.3628 -1.2754 -0.9410
11133TIP3    H254815   1.353   4.773   4.156  0.4600  1.5797 -1.0583
11134TIP3   OH254816   6.225   5.754   4.331  0.5720  0.3114 -0.7867
11134TIP3    H154817   6.156   5.795   4.383  0.2943  0.9973 -1.6594
11134TIP3    H254818   6.252   5.823   4.270  2.2331  0.1496 -0.2760
11135TIP3   OH254819   2.430   1.437   5.660 -0.0628  0.0612 -0.3187
11135TIP3    H154820   2.449   1.344   5.643 -1.0332 -0.5725  1.7551
11135TIP3    H254821   2.510   1.483   5.632  1.1115 -1.5812  0.1644
11136TIP3   OH254822   5.856   6.719   4.483  0.1159  0.4264  0.4969
11136TIP3    H154823   5.785   6.659   4.460  0.6389 -0.0296  0.0528
11136TIP3    H254824   5.913   6.719   4.406  0.5101  0.9231  0.7827
11137TIP3   OH254825   1.934   2.406  13.975 -0.0513  0.4693 -0.7328
11137TIP3    H154826   1.891   2.431  13.893 -0.2752  1.6195 -0.2775
11137TIP3    H254827   1.985   2.483  14.000  0.3660 -0.0278 -0.0060
11138TIP3   OH254828   4.264   3.293   5.551  0.0732  0.2376  0.7770
11138TIP3    H154829   4.212   3.289   5.470 -0.1468 -0.1113  0.9355
11138TIP3    H254830   4.312   3.376   5.544 -1.2089  1.0254  1.0553
11139TIP3   OH254831   4.320   1.656   2.547  0.2058 -0.1401 -0.5013
11139TIP3    H154832   4.414   1.677   2.551  0.5509 -1.0556 -2.2647
11139TIP3    H254833   4.295   1.682   2.458 -1.2510  0.1805 -0.0084
11140TIP3   OH254834   0.643   2.895  13.213 -0.3981  0.2070 -0.1249
11140TIP3    H154835   0.731   2.887  13.249 -1.4044  0.5730  2.5865
11140TIP3    H254836   0.606   2.807  13.219 -1.0998  0.5700  1.3020
11141TIP3   OH254837   6.752   7.105  15.270 -0.0385  0.0559 -0.9675
11141TIP3    H154838   6.790   7.183  15.309  0.5357 -0.4992 -0.3770
11141TIP3    H254839   6.775   7.109  15.178  0.5974  0.2230 -0.8024
11142TIP3   OH254840   0.647   1.146   1.865  0.0691  0.2659 -0.2851
11142TIP3    H154841   0.641   1.239   1.840  0.5976  0.0693 -1.2084
11142TIP3    H254842   0.656   1.147   1.960 -0.5374  1.1348 -0.2286
11143TIP3   OH254843   5.904   1.543   5.153 -0.4716  0.0014 -0.0887
11143TIP3    H154844   5.905   1.607   5.225  1.0856  0.8689 -0.8505
11143TIP3    H254845   5.811   1.525   5.139 -1.0565  2.9616 -0.5712
11144TIP3   OH254846   4.119   4.050  14.257 -0.0068  0.2052  0.1173
11144TIP3    H154847   4.129   4.021  14.167 -1.2251  0.2287 -0.0334
11144TIP3    H254848   4.026   4.065  14.268  0.0807 -0.0570  1.4595
11145TIP3   OH254849   1.172   2.698  14.818  0.0252  0.5001 -0.5002
11145TIP3    H154850   1.153   2.649  14.738  0.1520 -2.2517  1.0161
11145TIP3    H254851   1.209   2.633  14.877 -0.6139  2.2827  2.0185
11146TIP3   OH254852   1.645   6.548   1.388  0.3229 -0.3572  0.1565
11146TIP3    H154853   1.672   6.636   1.362 -0.8573  0.2363  0.8290
11146TIP3    H254854   1.726   6.498   1.391  1.1229  0.9027  0.4606
11147TIP3   OH254855   3.182   2.647  11.585  0.4373 -0.5883 -0.1759
11147TIP3    H154856   3.157   2.672  11.496  1.6682 -2.7683 -1.2231
11147TIP3    H254857   3.266   2.692  11.599 -0.2453  0.5615  0.3042
11148TIP3   OH254858   1.505   6.294  12.184  0.0604 -0.2953  0.1738
11148TIP3    H154859   1.551   6.370  12.147 -0.8920 -0.1572 -0.7714
11148TIP3    H254860   1.541   6.220  12.136 -0.8239 -0.1656 -0.7198
11149TIP3   OH254861   3.467   2.177  12.601 -0.5948 -0.3414 -0.1328
11149TIP3    H154862   3.480   2.177  12.696  1.1537 -1.2383 -0.3288
11149TIP3    H254863   3.380   2.214  12.588 -0.9700 -0.4586  1.8330
11150TIP3   OH254864   4.482   2.729   2.456 -0.5851  0.2282 -0.1383
11150TIP3    H154865   4.418   2.799   2.467 -1.6927 -0.5799 -1.1165
11150TIP3    H254866   4.553   2.769   2.407 -0.8545  0.8702 -0.0087
11151TIP3   OH254867   5.509   3.351   2.329  0.0133  0.1368  0.1312
11151TIP3    H154868   5.500   3.341   2.234  1.7460  0.2303 -0.0856
11151TIP3    H254869   5.578   3.416   2.339  0.2208 -0.2600  1.4441
11152TIP3   OH254870   2.958   4.064   3.714 -0.1472  0.0676  0.2350
11152TIP3    H154871   2.930   4.039   3.802 -0.2397  0.1879  0.2410
11152TIP3    H254872   3.019   4.136   3.728  2.1892 -1.8303  0.3731
11153TIP3   OH254873   3.928   0.103  12.728  0.1240  0.3219 -0.4223
11153TIP3    H154874   3.979   0.124  12.806  2.8349 -0.4304 -1.8575
11153TIP3    H254875   3.891   0.186  12.700 -0.1151  0.7642  1.1057
11154TIP3   OH254876   5.307   2.033   9.586 -0.6386  0.4139 -0.3874
11154TIP3    H154877   5.252   1.991   9.652  0.0218  1.1052  0.6347
11154TIP3    H254878   5.397   2.017   9.617 -0.3419  1.2715 -0.7900
11155TIP3   OH254879   5.389   7.112  12.592 -0.1989  0.1322 -0.2373
11155TIP3    H154880   5.396   7.019  12.570 -2.4983 -0.1487  0.0302
11155TIP3    H254881   5.392   7.114  12.687  0.8968  0.4720 -0.2623
11156TIP3   OH254882   6.749   3.198  13.883  0.1886 -0.0189  0.0289
11156TIP3    H154883   6.803   3.274  13.906  0.5914  0.3814 -2.0976
11156TIP3    H254884   6.679   3.234  13.829  0.2992 -1.1226 -0.8788
11157TIP3   OH254885   1.629   4.056   3.291  0.6601  0.4494 -0.1229
11157TIP3    H154886   1.543   4.096   3.301 -0.8995 -2.3400 -1.2525
11157TIP3    H254887   1.647   4.061   3.197  1.0113 -0.2844 -0.1022
11158TIP3   OH254888   2.278   2.732  13.363  0.2863  0.3589 -0.1418
11158TIP3    H154889   2.299   2.765  13.450 -0.5758 -2.1327  1.0955
11158TIP3    H254890   2.207   2.790  13.332  1.2122  1.8215  0.3703
11159TIP3   OH254891   6.534   0.607   0.016  0.3645 -0.0462  0.0663
11159TIP3    H154892   6.581   0.668  -0.041 -1.8337  0.3363 -1.4249
11159TIP3    H254893   6.481   0.554  -0.043 -1.2303 -0.3170  1.6663
11160TIP3   OH254894   5.261   3.212   2.063  0.1453  0.2509  0.5611
11160TIP3    H154895   5.223   3.214   1.975 -1.4099 -0.6216  1.1820
11160TIP3    H254896   5.247   3.123   2.094  1.4043  0.3171  1.4157
11161TIP3   OH254897   2.446   2.476   3.071 -0.0109 -0.3571  0.4777
11161TIP3    H154898   2.513   2.545   3.068  0.5428 -0.8605  1.0614
11161TIP3    H254899   2.401   2.490   3.154 -0.9976  0.3007 -0.1450
11162TIP3   OH254900   1.713   0.419  13.371  0.1922 -0.1629 -0.1699
11162TIP3    H154901   1.762   0.365  13.309  1.3179 -1.2093  1.5301
11162TIP3    H254902   1.622   0.388  13.363  0.6539 -1.6681  0.0590
11163TIP3   OH254903   3.583   3.072   0.297  0.6481 -0.2270 -0.5716
11163TIP3    H154904   3.516   3.119   0.346  0.4518 -0.4674 -0.6068
11163TIP3    H254905   3.539   2.992   0.267  0.9924 -0.4576 -0.4669
11164TIP3   OH254906   0.774   0.567   4.443  0.6419 -0.1962 -0.3305
11164TIP3    H154907   0.823   0.628   4.499  1.1033 -0.9428  0.0975
11164TIP3    H254908   0.701   0.538   4.498  0.3143  0.1145 -0.6016
11165TIP3   OH254909   0.386   0.019  14.893  0.1810 -0.4068  0.2385
11165TIP3    H154910   0.304  -0.024  14.915 -0.1603  0.2040  0.1695
11165TIP3    H254911   0.443   0.002  14.968 -0.9103  1.5099  1.5852
11166TIP3   OH254912   5.436   5.057   4.119  0.3646  0.5637 -0.0842
11166TIP3    H154913   5.467   5.024   4.203  0.1523  0.7897  0.0841
11166TIP3    H254914   5.357   5.006   4.101  0.6157  0.2546 -0.3288
11167TIP3   OH254915   5.365   1.604   5.148 -0.0078 -0.1413  0.2911
11167TIP3    H154916   5.345   1.586   5.056  2.3686 -3.1020  0.2044
11167TIP3    H254917   5.449   1.649   5.147 -0.2171  0.2866  0.9995
11168TIP3   OH254918   4.974   1.735   1.641 -0.4339 -0.1372 -0.2468
11168TIP3    H154919   5.014   1.815   1.609 -1.8056  0.5234 -0.4079
11168TIP3    H254920   4.909   1.765   1.705 -0.3409 -1.1817  0.3595
11169TIP3   OH254921   5.560   2.012   4.141  0.0338 -0.0548  0.2282
11169TIP3    H154922   5.487   2.065   4.175 -0.3054 -0.1872 -0.2790
11169TIP3    H254923   5.633   2.074   4.133 -0.5461  0.5102 -0.9742
11170TIP3   OH254924   5.225   6.184  10.282  0.2204 -0.0261  0.2975
11170TIP3    H154925   5.170   6.223  10.215  0.0325 -0.9997 -0.1218
11170TIP3    H254926   5.240   6.255  10.345  1.4985  1.3125 -1.4188
11171TIP3   OH254927   0.906   6.580  11.651  0.3023  0.2936  0.0360
11171TIP3    H154928   0.834   6.643  11.662 -1.4543 -1.0700 -2.4841
11171TIP3    H254929   0.901   6.555  11.558  2.2690 -1.9705  0.4593
11172TIP3   OH254930   0.949   1.139   0.484 -0.5186 -0.3486  0.0866
11172TIP3    H154931   0.888   1.164   0.554 -2.3492 -2.5465 -0.6310
11172TIP3    H254932   0.939   1.208   0.419  0.0570  0.9094  1.2742
11173TIP3   OH254933   6.867   1.908   3.682  0.2640  0.4728  0.4277
11173TIP3    H154934   6.847   1.994   3.720  2.8667  1.0250  0.7207
11173TIP3    H254935   6.826   1.846   3.742 -1.0188  1.4727  0.6338
11174TIP3   OH254936   4.056   1.755   3.743 -0.2713 -0.3184  0.5838
11174TIP3    H154937   4.022   1.795   3.823 -0.7715  1.4762 -0.4579
11174TIP3    H254938   4.139   1.800   3.727 -1.9465  2.2406 -1.8837
11175TIP3   OH254939   2.509   6.815   1.024  0.0308 -0.2540  0.0431
11175TIP3    H154940   2.565   6.883   1.062 -0.9413  1.3869 -1.3305
11175TIP3    H254941   2.570   6.746   0.996  1.1577  0.5907  0.3553
11176TIP3   OH254942   0.719   3.865   3.462 -0.5123 -0.0845 -0.3817
11176TIP3    H154943   0.668   3.937   3.499 -0.8354 -0.1548 -0.6797
11176TIP3    H254944   0.701   3.791   3.520 -0.1306  0.0906 -0.0402
11177TIP3   OH254945   2.173   0.285   2.354  0.5437 -0.5487 -0.4731
11177TIP3    H154946   2.177   0.347   2.427  1.7619  0.1664 -1.0978
11177TIP3    H254947   2.133   0.335   2.282  0.5252 -0.8283 -0.6584
11178TIP3   OH254948   4.365   3.749   3.865  0.2600 -0.4178  0.8691
11178TIP3    H154949   4.389   3.755   3.772 -0.0605  0.2925  0.8193
11178TIP3    H254950   4.388   3.835   3.901  1.6545 -1.1451  1.7679
11179TIP3   OH254951   0.915   5.006  15.093 -0.2009  0.1570 -0.4686
11179TIP3    H154952   1.007   4.980  15.082 -0.3084  0.4675 -2.5374
11179TIP3    H254953   0.920   5.096  15.127  0.2881  0.3382 -0.9985
11180TIP3   OH254954   4.095   6.767   3.336  0.1315 -0.9634 -0.3152
11180TIP3    H154955   4.014   6.727   3.302 -0.6466  0.1239  0.2108
11180TIP3    H254956   4.065   6.837   3.394  1.3737  1.6654 -2.6106
11181TIP3   OH254957   5.654   6.424   4.664  0.0216  0.3709 -0.0274
11181TIP3    H154958   5.599   6.381   4.598 -0.6015 -0.5066  1.0358
11181TIP3    H254959   5.620   6.514   4.667 -0.4419  0.2173 -0.3643
11182TIP3   OH254960   3.418   3.317   2.317  0.2014  0.0958 -0.0806
11182TIP3    H154961   3.378   3.233   2.340  0.2816 -0.0363 -0.4120
11182TIP3    H254962   3.500   3.294   2.275  2.4936  0.4032  3.7755
11183TIP3   OH254963   4.430   1.008   5.138 -0.0534  0.9872  0.1294
11183TIP3    H154964   4.430   1.003   5.042  0.6077  0.6694  0.1439
11183TIP3    H254965   4.345   1.048   5.159 -0.9739 -0.5538 -0.4962
11184TIP3   OH254966   3.703   1.861   3.020 -0.2996 -0.1561 -0.4040
11184TIP3    H154967   3.669   1.928   3.079  0.9672  0.7198 -0.6409
11184TIP3    H254968   3.627   1.807   2.999 -1.2028  0.7959  0.3261
11185TIP3   OH254969   4.650   1.027   2.360 -0.1664 -0.7128  0.0499
11185TIP3    H154970   4.582   1.059   2.300  0.5123  0.0029 -0.3519
11185TIP3    H254971   4.607   1.027   2.446 -0.2569  1.1982  0.0558
11186TIP3   OH254972   5.116   4.544  10.002  0.3708 -0.0335 -0.1425
11186TIP3    H154973   5.038   4.532   9.948  0.4788 -1.3432 -0.0403
11186TIP3    H254974   5.147   4.455  10.019  1.4733  0.4436  0.4241
11187TIP3   OH254975   0.663   3.629   3.585 -0.4863  0.5371  0.4165
11187TIP3    H154976   0.699   3.553   3.631 -1.6891 -1.1360 -1.2622
11187TIP3    H254977   0.575   3.641   3.622 -0.5705  0.6425  0.1899
11188TIP3   OH254978   6.566   1.742  12.453  0.0863  0.1050  0.2001
11188TIP3    H154979   6.494   1.740  12.515  0.7786 -0.6396  0.9980
11188TIP3    H254980   6.583   1.651  12.432  0.1990  0.3222 -0.7026
11189TIP3   OH254981   4.818   6.272   4.322 -0.1533  0.2276 -0.1213
11189TIP3    H154982   4.725   6.285   4.339 -0.7578 -1.2296 -1.9895
11189TIP3    H254983   4.858   6.358   4.338 -2.0743  1.3316 -0.9781
11190TIP3   OH254984   0.162   4.826  11.497 -0.3933 -0.0586 -0.1519
11190TIP3    H154985   0.136   4.891  11.562 -1.2544 -0.2691 -0.2745
11190TIP3    H254986   0.237   4.866  11.452  0.9316 -0.3794  1.6740
11191TIP3   OH254987   5.941   6.589  11.572  0.0839  0.0436  0.0384
11191TIP3    H154988   6.023   6.621  11.534  0.1993 -2.3789 -2.0453
11191TIP3    H254989   5.876   6.601  11.502 -0.2047 -2.5110 -0.2319
11192TIP3   OH254990   1.381   0.368  14.987  0.0562 -0.1146  0.9328
11192TIP3    H154991   1.413   0.449  14.946  1.8355 -0.4778  1.4853
11192TIP3    H254992   1.295   0.390  15.021 -0.6346  0.7644 -1.2462
11193TIP3   OH254993   6.171   5.213  13.843 -0.2515 -0.7024 -0.2209
11193TIP3    H154994   6.126   5.128  13.846 -0.2500 -0.6875  0.2163
11193TIP3    H254995   6.113   5.268  13.791 -0.7033 -0.7085  0.2705
11194TIP3   OH254996   4.048   5.760   2.790 -0.2568  0.4387 -0.0263
11194TIP3    H154997   4.030   5.852   2.810 -0.0415  0.6988 -0.9631
11194TIP3    H254998   4.006   5.745   2.705  0.6924  0.0100 -0.4397
11195TIP3   OH254999   0.471   1.089  12.909  0.2619  0.8489 -0.3121
11195TIP3    H155000   0.437   1.086  12.998  0.3849 -0.3562 -0.2828
11195TIP3    H255001   0.512   1.003  12.896 -0.9214  0.4896 -1.9700
11196TIP3   OH255002   6.120   1.445   2.456  0.6204  0.1403 -0.5703
11196TIP3    H155003   6.153   1.432   2.544  1.3046 -0.0637 -0.8531
11196TIP3    H255004   6.150   1.367   2.408 -0.7856 -0.3701 -0.6834
11197TIP3   OH255005   6.058   3.828  13.847 -0.6067 -0.0202 -0.2852
11197TIP3    H155006   5.984   3.886  13.831 -0.0241  0.6853 -0.4703
11197TIP3    H255007   6.129   3.886  13.875  0.1180 -0.5805 -0.9120
11198TIP3   OH255008   6.041   4.931  12.983  0.1168 -0.3313 -0.0633
11198TIP3    H155009   5.962   4.878  12.980  0.3279 -0.7431  1.3101
11198TIP3    H255010   6.098   4.892  12.916 -1.1854  0.6255 -1.8419
11199TIP3   OH255011   0.305   1.155  13.503 -0.6965 -0.1572 -0.7241
11199TIP3    H155012   0.300   1.113  13.589 -1.9947 -0.3412 -0.8808
11199TIP3    H255013   0.399   1.173  13.492 -0.4333 -0.6465  0.4716
11200TIP3   OH255014   2.931   6.190  13.750  0.4864  0.0688 -0.0616
11200TIP3    H155015   2.920   6.285  13.758  0.9357  0.2954 -1.7387
11200TIP3    H255016   2.894   6.169  13.664  0.5138 -1.2681  0.2309
11201TIP3   OH255017   2.065   1.696   5.246 -0.0720 -0.1923  0.5430
11201TIP3    H155018   2.035   1.740   5.167 -1.3412 -1.8612  0.0380
11201TIP3    H255019   2.159   1.712   5.249 -0.1495  0.6186 -0.8287
11202TIP3   OH255020   2.405   5.386   5.199  0.4295 -0.6133  0.0831
11202TIP3    H155021   2.461   5.342   5.136 -1.1480 -0.8480 -1.2372
11202TIP3    H255022   2.316   5.371   5.166 -0.3252  1.0091  1.2558
11203TIP3   OH255023   1.022   5.232   3.330  0.5957  0.5229  0.1438
11203TIP3    H155024   1.049   5.151   3.373 -2.4443 -0.4228  0.5147
11203TIP3    H255025   1.098   5.258   3.278  2.4232 -1.3468  1.7236
11204TIP3   OH255026   7.046   2.562  14.906 -0.2121 -0.2155 -0.1763
11204TIP3    H155027   7.017   2.517  14.827 -3.0541  1.8468 -0.4806
11204TIP3    H255028   7.091   2.640  14.874  0.6352 -0.4909  0.3051
11205TIP3   OH255029   2.364   3.978   5.766  0.1729  0.1678 -0.0670
11205TIP3    H155030   2.429   3.913   5.793 -0.7977 -1.9533 -2.4095
11205TIP3    H255031   2.281   3.943   5.797 -0.2977  0.6598 -0.7466
11206TIP3   OH255032   0.761   4.169  13.969  0.7631 -0.0612  0.4523
11206TIP3    H155033   0.713   4.235  13.919 -0.5697 -1.1390  0.2428
11206TIP3    H255034   0.821   4.219  14.024  0.6059  1.2558 -0.5307
11207TIP3   OH255035   0.310   1.831  12.179 -0.0676  0.2833 -0.1569
11207TIP3    H155036   0.322   1.761  12.243 -1.5434 -0.4541 -0.6370
11207TIP3    H255037   0.378   1.895  12.200 -1.0015  0.4638  2.6847
11208TIP3   OH255038   0.267   3.467   5.016  0.0775  0.0762 -0.1900
11208TIP3    H155039   0.308   3.443   5.099 -0.0378 -0.8999 -0.4026
11208TIP3    H255040   0.196   3.404   5.004  0.4208 -0.1388 -1.2718
11209TIP3   OH255041   4.344   2.847  12.246  0.6027  0.2562 -0.0255
11209TIP3    H155042   4.315   2.756  12.247  2.2659 -0.3114 -0.0055
11209TIP3    H255043   4.408   2.851  12.175 -1.1156  2.0023 -1.5549
11210TIP3   OH255044   3.485   6.648   0.309 -0.4224  0.1337  0.2991
11210TIP3    H155045   3.487   6.598   0.227  2.2259  0.1934  0.2380
11210TIP3    H255046   3.526   6.732   0.287  1.1517 -0.1660  1.8138
11211TIP3   OH255047   0.668   0.156  11.765  0.2682 -0.1947  0.0967
11211TIP3    H155048   0.729   0.222  11.798  0.5294 -0.5068  0.2480
11211TIP3    H255049   0.582   0.195  11.775  0.4659  0.4506 -0.5618
11212TIP3   OH255050   4.300   3.120  10.802  0.0535  0.2434  0.5462
11212TIP3    H155051   4.212   3.095  10.774 -0.0352  0.3018  0.7747
11212TIP3    H255052   4.287   3.193  10.863  0.2189 -0.1928  1.1122
11213TIP3   OH255053   4.611   0.054  14.678  0.0967  0.4007 -0.2677
11213TIP3    H155054   4.679  -0.010  14.658  0.8823  1.4315 -1.0175
11213TIP3    H255055   4.637   0.092  14.762 -1.2948 -1.4219  1.0644
11214TIP3   OH255056   5.168   0.388   5.083 -0.7192  0.0314 -0.4231
11214TIP3    H155057   5.163   0.398   4.988 -0.6000  0.0107 -0.4315
11214TIP3    H255058   5.144   0.296   5.099 -0.1491 -0.1286 -0.4808
11215TIP3   OH255059   2.885   4.843   2.685  0.0673 -0.0970  0.3033
11215TIP3    H155060   2.956   4.850   2.622 -2.4043 -0.7601 -2.8259
11215TIP3    H255061   2.901   4.760   2.730  1.0057 -0.4863 -0.6978
11216TIP3   OH255062   1.262   2.795   1.290  0.1182 -0.5580 -0.1182
11216TIP3    H155063   1.207   2.849   1.346 -0.6645 -2.6814  1.2492
11216TIP3    H255064   1.313   2.859   1.239 -2.3135  1.4836 -0.2273
11217TIP3   OH255065   6.684   0.014   3.420  0.0070  0.5704  0.2533
11217TIP3    H155066   6.759   0.046   3.369 -0.7560 -1.1307 -2.0838
11217TIP3    H255067   6.611   0.069   3.393 -0.3674 -0.2370 -0.4367
11218TIP3   OH255068   6.820   0.053  11.428 -0.6707  0.7106  0.2864
11218TIP3    H155069   6.841  -0.008  11.358  1.5147  0.7195  0.8548
11218TIP3    H255070   6.835   0.003  11.509 -0.8733  1.3864  0.7540
11219TIP3   OH255071   1.114   6.343  11.695  0.3434 -0.1227 -0.1734
11219TIP3    H155072   1.137   6.436  11.703 -1.0058  0.2403 -0.2715
11219TIP3    H255073   1.160   6.313  11.617  0.9239  0.4074 -0.0473
11220TIP3   OH255074   6.566   2.929  12.162 -0.1089  0.4477  0.0955
11220TIP3    H155075   6.655   2.926  12.197 -0.5058 -1.3697  1.0664
11220TIP3    H255076   6.576   2.970  12.076  1.2458  2.7595  1.2581
11221TIP3   OH255077   3.261   6.673   1.970  0.0560  0.4640 -0.5894
11221TIP3    H155078   3.276   6.683   2.064  0.7969 -0.9220 -0.5247
11221TIP3    H255079   3.349   6.661   1.934 -0.0700  2.5045 -1.7047
11222TIP3   OH255080   5.532   4.435  13.536  0.3409 -0.1268 -0.3109
11222TIP3    H155081   5.480   4.515  13.545 -0.0117 -0.4155  0.2693
11222TIP3    H255082   5.547   4.406  13.626  2.4094  0.4999 -0.3993
11223TIP3   OH255083   4.022   2.869  14.350  0.3515  0.3071  0.1396
11223TIP3    H155084   4.101   2.887  14.401  1.0213  1.1347 -1.1339
11223TIP3    H255085   3.984   2.955  14.333 -0.2609 -0.0115 -0.1527
11224TIP3   OH255086   3.147   6.981   5.814  0.0221 -1.4522  0.1321
11224TIP3    H155087   3.076   6.979   5.878 -2.4487 -0.5215 -2.4060
11224TIP3    H255088   3.191   6.897   5.824 -2.2015 -2.5755  1.0240
11225TIP3   OH255089   2.511   3.268   4.107  0.2127  0.0679 -0.3945
11225TIP3    H155090   2.581   3.282   4.171  0.8773 -1.7454 -0.6770
11225TIP3    H255091   2.436   3.241   4.160 -0.2142  1.7008 -0.1213
11226TIP3   OH255092   2.782   6.744  11.044 -0.4532 -0.3069 -0.2547
11226TIP3    H155093   2.787   6.649  11.034  0.2245 -0.3915  0.8009
11226TIP3    H255094   2.689   6.762  11.058 -0.4349 -0.9687  0.8341
11227TIP3   OH255095   3.784   0.597   4.281 -0.3463 -0.1977  0.1238
11227TIP3    H155096   3.811   0.671   4.334 -1.8159  2.0635 -2.0930
11227TIP3    H255097   3.690   0.608   4.268 -0.3249 -1.5049 -1.6163
11228TIP3   OH255098   2.705   6.865   5.679  0.2408 -0.2445 -0.1562
11228TIP3    H155099   2.646   6.849   5.752 -1.2763  2.2617 -0.7040
11228TIP3    H255100   2.655   6.923   5.620  2.8587  1.1755 -1.1549
11229TIP3   OH255101   5.025   0.361   3.030  0.0116  0.3828  0.0174
11229TIP3    H155102   5.023   0.451   3.064 -2.2945  0.9238 -1.3306
11229TIP3    H255103   4.980   0.367   2.946 -2.3790 -2.4159  0.9418
11230TIP3   OH255104   1.476   1.313   1.146  1.0003 -0.2721  0.0645
11230TIP3    H155105   1.563   1.324   1.107  1.2641 -1.5325  0.2603
11230TIP3    H255106   1.493   1.266   1.228  0.0889 -0.8201 -0.0565
11231TIP3   OH255107   6.578   3.726  12.057  0.3867  0.2208 -0.0319
11231TIP3    H155108   6.558   3.705  11.966  1.8245 -1.2157 -0.0630
11231TIP3    H255109   6.673   3.736  12.060  0.1696  3.2386  0.7757
11232TIP3   OH255110   6.134   6.473   4.476  0.7291 -0.2932 -0.1184
11232TIP3    H155111   6.172   6.545   4.526  0.0635  0.4663 -0.6945
11232TIP3    H255112   6.173   6.479   4.389  0.8998 -0.8185 -0.0856
11233TIP3   OH255113   6.271   5.470   4.356  0.4507 -0.5467  0.6763
11233TIP3    H155114   6.321   5.429   4.285 -0.2638  0.7753 -0.6624
11233TIP3    H255115   6.278   5.564   4.338  0.7427 -0.1433  2.7325
11234TIP3   OH255116   5.807   5.531  11.054  0.2234 -0.8186 -0.0079
11234TIP3    H155117   5.716   5.561  11.051 -1.0025 -3.7148  2.7305
11234TIP3    H255118   5.849   5.588  11.118 -0.6302 -1.5176  1.2128
11235TIP3   OH255119   2.812   7.093  14.284  0.3806 -0.3105 -0.1212
11235TIP3    H155120   2.907   7.097  14.298  0.1921 -1.0220  1.6307
11235TIP3    H255121   2.802   7.039  14.206  1.4259 -0.1702 -0.3730
11236TIP3   OH255122   6.872   4.399  12.810 -0.3140  0.0182 -0.3195
11236TIP3    H155123   6.810   4.327  12.822  0.7004 -0.7135  0.8328
11236TIP3    H255124   6.866   4.422  12.718 -1.1301 -1.1004 -0.5605
11237TIP3   OH255125   0.039   0.240  13.022  0.0543  0.6855 -0.2998
11237TIP3    H155126   0.037   0.269  12.931 -0.0191  1.5953 -0.0164
11237TIP3    H255127   0.129   0.255  13.051  0.2538 -0.2216 -0.4053
11238TIP3   OH255128   1.257   3.672   2.388 -0.1088  0.4661  0.4541
11238TIP3    H155129   1.197   3.746   2.396 -0.9179 -0.1800  0.5343
11238TIP3    H255130   1.200   3.595   2.382  0.5354  0.0779 -3.1580
11239TIP3   OH255131   0.265   2.437  11.683 -0.7709  0.4532  0.1553
11239TIP3    H155132   0.305   2.389  11.755 -0.0587 -0.7152 -0.9700
11239TIP3    H255133   0.327   2.428  11.610 -2.3495 -0.1063 -1.1861
11240TIP3   OH255134   5.714   2.875  13.113 -0.1816  0.4905 -0.1371
11240TIP3    H155135   5.656   2.931  13.062 -1.4357  0.0523  0.7574
11240TIP3    H255136   5.765   2.935  13.167  0.0812  0.8642 -0.7818
11241TIP3   OH255137   4.588   3.964   5.392  0.0494  0.2480  0.3422
11241TIP3    H155138   4.683   3.962   5.402  0.1111  0.4032 -0.1895
11241TIP3    H255139   4.559   3.876   5.416  0.6543 -0.8870 -2.6713
11242TIP3   OH255140   0.556   1.784   5.630  1.1050 -0.4188  0.4684
11242TIP3    H155141   0.577   1.842   5.703 -0.2422  0.9099 -0.1416
11242TIP3    H255142   0.485   1.729   5.663  0.9501 -0.2740  0.3783
11243TIP3   OH255143   2.599   3.391   0.437  0.2114 -0.4770  0.5000
11243TIP3    H155144   2.627   3.458   0.501  2.9218 -0.5812 -0.4479
11243TIP3    H255145   2.607   3.435   0.353 -0.2482 -1.3104  0.0192
11244TIP3   OH255146   3.603   4.956   3.094 -0.6237 -0.6760 -0.1665
11244TIP3    H155147   3.538   5.023   3.072 -1.6701 -0.7484  2.3475
11244TIP3    H255148   3.658   4.949   3.016 -1.8646  1.4678 -1.3280
11245TIP3   OH255149   3.988   0.196   5.672  0.3889  0.0047 -0.3152
11245TIP3    H155150   4.001   0.201   5.766 -1.6376 -0.7861  0.0610
11245TIP3    H255151   3.998   0.286   5.641 -0.0695  0.4589  0.8321
11246TIP3   OH255152   6.500   4.728  13.463  0.2564 -0.3619 -0.2250
11246TIP3    H155153   6.496   4.720  13.368 -0.5077 -2.2156 -0.0805
11246TIP3    H255154   6.566   4.795  13.479 -1.0209  1.4810 -2.0892
11247TIP3   OH255155   5.658   5.291  13.161 -0.2573 -0.0451 -0.6624
11247TIP3    H155156   5.611   5.224  13.212 -0.0820 -1.7727 -2.6095
11247TIP3    H255157   5.692   5.243  13.085  1.2520  1.9797 -1.3533
11248TIP3   OH255158   2.580   4.362   2.388  0.1360 -0.5494 -0.5094
11248TIP3    H155159   2.629   4.444   2.398 -0.3528 -0.2955 -0.1513
11248TIP3    H255160   2.631   4.297   2.436  0.8649 -0.5982 -1.3399
11249TIP3   OH255161   0.975   2.291  13.024  0.6586  0.1698 -0.2235
11249TIP3    H155162   1.020   2.375  13.011 -0.1424  0.5582 -0.5377
11249TIP3    H255163   0.965   2.284  13.119  2.1203 -0.3260 -0.0845
11250TIP3   OH255164   3.239   3.445   5.125  0.7465  0.7622 -0.7889
11250TIP3    H155165   3.152   3.411   5.143  1.0585  1.3032  2.4171
11250TIP3    H255166   3.295   3.367   5.119  0.4373  0.4749 -0.0722
11251TIP3   OH255167   3.549   2.253  13.266  0.2852 -0.2530 -0.2672
11251TIP3    H155168   3.642   2.255  13.240  0.1051 -1.5092 -1.1104
11251TIP3    H255169   3.501   2.274  13.186 -0.1780 -0.5393 -0.0704
11252TIP3   OH255170   2.458   2.844  15.345 -0.1835  0.6986 -0.2605
11252TIP3    H155171   2.474   2.912  15.280  1.6707 -0.3255 -0.9402
11252TIP3    H255172   2.502   2.766  15.310  0.3886 -0.0324  1.9263
11253TIP3   OH255173   0.144   2.180  10.309 -0.0894 -0.0340 -0.6432
11253TIP3    H155174   0.121   2.145  10.223 -2.0649  0.0750 -0.1963
11253TIP3    H255175   0.231   2.217  10.297  0.7201 -2.1617 -1.9746
11254TIP3   OH255176   1.952   3.172   5.002  0.4134  0.1218 -0.1536
11254TIP3    H155177   2.036   3.137   5.032  1.7295  3.4855  0.5399
11254TIP3    H255178   1.887   3.130   5.059  2.0358  0.0681  1.7847
11255TIP3   OH255179   4.643   2.863  11.641  0.2079 -1.0236 -0.3962
11255TIP3    H155180   4.558   2.890  11.676 -0.4030 -2.4393 -0.7062
11255TIP3    H255181   4.706   2.892  11.706 -0.6835 -1.4852  0.7139
11256TIP3   OH255182   6.973   3.619  14.814 -0.5452 -0.5074  0.1020
11256TIP3    H155183   7.069   3.618  14.809 -0.3914 -1.6794  2.1814
11256TIP3    H255184   6.951   3.712  14.815  0.5607 -0.2149 -0.2880
11257TIP3   OH255185   4.949   4.751  12.967 -0.1324 -0.0900 -0.0931
11257TIP3    H155186   4.929   4.659  12.985 -0.6051  0.1268  0.5189
11257TIP3    H255187   4.976   4.787  13.052  0.2784  0.2759 -0.3767
11258TIP3   OH255188   4.078   1.786   5.309  0.1697  0.6565 -0.5677
11258TIP3    H155189   4.015   1.808   5.378  0.5464  0.3214 -0.1086
11258TIP3    H255190   4.146   1.852   5.317  1.6339 -0.9444  1.2400
11259TIP3   OH255191   1.171   5.888   0.599  0.0597  0.1784  0.1678
11259TIP3    H155192   1.202   5.973   0.627 -1.6968  1.4871 -1.5545
11259TIP3    H255193   1.211   5.874   0.513  0.5495 -0.8896  0.5452
11260TIP3   OH255194   5.277   3.949   0.695 -0.0894  0.3999  0.3079
11260TIP3    H155195   5.228   3.867   0.692 -0.4300  0.6334 -0.5744
11260TIP3    H255196   5.225   4.011   0.644  0.7725  0.8450 -0.0517
11261TIP3   OH255197   5.501   2.403  11.845  0.3242  0.1056 -0.0232
11261TIP3    H155198   5.457   2.328  11.804 -1.1993  2.2027 -2.5506
11261TIP3    H255199   5.574   2.365  11.893 -0.1038 -2.9535 -1.5650
11262TIP3   OH255200   0.833   2.068   0.240  0.2607  0.0073 -0.1399
11262TIP3    H155201   0.743   2.093   0.258  0.8744  2.0542  0.2978
11262TIP3    H255202   0.866   2.035   0.324 -0.0025 -0.5030 -0.2360
11263TIP3   OH255203   6.584   0.769   2.832 -0.0522  0.1677 -0.1869
11263TIP3    H155204   6.626   0.709   2.771  1.0051 -1.4125  1.9730
11263TIP3    H255205   6.654   0.826   2.863  0.8322 -2.6442  3.6279
11264TIP3   OH255206   3.520   3.440   4.729 -0.3668 -0.3584 -0.3350
11264TIP3    H155207   3.605   3.444   4.772 -0.5772 -0.8858  0.1367
11264TIP3    H255208   3.536   3.474   4.641  0.4285 -0.8839 -0.3983
11265TIP3   OH255209   2.936   1.863   9.847 -0.5172 -0.1955 -0.1604
11265TIP3    H155210   3.014   1.808   9.840 -0.8253 -0.5206 -1.2683
11265TIP3    H255211   2.865   1.808   9.813 -0.9306  0.6845 -0.7614
11266TIP3   OH255212   1.452   0.341  10.981 -0.0914 -0.1870  0.4664
11266TIP3    H155213   1.453   0.417  10.923 -0.7206 -0.3435  0.2418
11266TIP3    H255214   1.427   0.376  11.066 -2.3695 -0.4016 -0.0620
11267TIP3   OH255215   4.591   1.693   3.474  0.2206  0.0647  0.4547
11267TIP3    H155216   4.551   1.745   3.543  0.8358 -0.6660  1.3917
11267TIP3    H255217   4.519   1.642   3.437 -0.3284  1.2936 -0.2571
11268TIP3   OH255218   5.119   6.285   2.536  0.5687  0.1254 -0.5721
11268TIP3    H155219   5.130   6.259   2.627 -1.9700 -0.1134 -0.2748
11268TIP3    H255220   5.120   6.381   2.538  0.1438  0.1259 -0.2253
11269TIP3   OH255221   2.501   6.379   1.402  0.0242  0.4776 -0.0841
11269TIP3    H155222   2.561   6.406   1.471  2.4113  1.3157 -2.3118
11269TIP3    H255223   2.479   6.459   1.356 -1.5698 -0.0522 -0.3128
11270TIP3   OH255224   0.339   2.820  14.515  0.2149 -0.0307  0.8717
11270TIP3    H155225   0.411   2.873  14.552  0.7026 -0.5210  0.6422
11270TIP3    H255226   0.379   2.775  14.441 -0.6674  0.6720 -0.0514
11271TIP3   OH255227   6.133   6.950  11.010 -0.1204  0.4593 -0.3131
11271TIP3    H155228   6.151   7.022  10.949 -0.9856 -0.3848 -1.6147
11271TIP3    H255229   6.211   6.896  11.008 -0.2988  0.2215 -0.9953
11272TIP3   OH255230   3.939   2.209  13.573 -0.8759 -0.8890 -0.1505
11272TIP3    H155231   3.894   2.286  13.538 -0.8428 -0.1990  1.2558
11272TIP3    H255232   4.000   2.183  13.503  1.0877  2.0279  0.2817
11273TIP3   OH255233   2.047   3.813  11.247  0.5175 -0.3900  0.0038
11273TIP3    H155234   2.067   3.725  11.215  0.6609 -0.4872  0.3544
11273TIP3    H255235   2.124   3.866  11.223  1.2580 -0.7757  1.4036
11274TIP3   OH255236   0.317   5.702  12.416 -0.6820 -0.3237  0.2448
11274TIP3    H155237   0.236   5.715  12.368 -0.7375 -1.1939  0.0791
11274TIP3    H255238   0.353   5.620  12.382 -0.9960 -1.2602  2.0316
11275TIP3   OH255239   6.107   5.797   5.628 -0.1691 -0.0037  0.0813
11275TIP3    H155240   6.169   5.766   5.562 -1.0519 -2.2472  0.1999
11275TIP3    H255241   6.036   5.733   5.626 -0.3088 -0.0955  3.0610
11276TIP3   OH255242   4.235   4.725   5.029 -0.1621  0.1441  0.4951
11276TIP3    H155243   4.249   4.636   4.996 -3.6809 -0.5513  0.5365
11276TIP3    H255244   4.253   4.719   5.123 -0.1251 -0.4366  0.4518
11277TIP3   OH255245   1.612   2.119   3.489  0.1782 -0.3096  0.4046
11277TIP3    H155246   1.517   2.131   3.489  0.1204 -0.7042 -0.1993
11277TIP3    H255247   1.625   2.027   3.509  0.5354  0.1817  2.7527
11278TIP3   OH255248   0.817   4.747  11.894 -0.5321  0.5643  0.2663
11278TIP3    H155249   0.885   4.791  11.946  0.5963  0.3141 -0.9332
11278TIP3    H255250   0.752   4.719  11.958 -0.1703  1.9908  1.3121
11279TIP3   OH255251   0.768   1.222  13.003  0.0714 -0.1462 -0.0020
11279TIP3    H155252   0.697   1.160  13.018 -1.7304  1.7933  0.0025
11279TIP3    H255253   0.736   1.304  13.042  1.1773  1.4686 -2.2616
11280TIP3   OH255254   1.798   2.357   1.278  0.6053  0.1770  0.4808
11280TIP3    H155255   1.871   2.363   1.217 -1.9742 -4.2762 -3.7510
11280TIP3    H255256   1.728   2.409   1.237 -0.7768 -1.7963  0.1866
11281TIP3   OH255257   5.910   2.256  13.018  0.0795 -0.3093  0.6664
11281TIP3    H155258   5.821   2.289  13.030  0.2237  0.5694 -0.4593
11281TIP3    H255259   5.903   2.197  12.942  0.5838  0.4060  0.0458
11282TIP3   OH255260   2.911   6.946  15.616  0.0749 -0.4932 -0.3446
11282TIP3    H155261   2.923   6.875  15.679  2.2318 -1.0644 -1.3256
11282TIP3    H255262   2.919   7.026  15.668  1.2014 -0.9602  0.2165
11283TIP3   OH255263   4.415   5.429  14.263 -0.1742 -0.8513 -0.1558
11283TIP3    H155264   4.501   5.466  14.284 -0.9186 -0.1164  1.8238
11283TIP3    H255265   4.432   5.335  14.252  0.7682 -0.8852  1.2182
11284TIP3   OH255266   1.549   3.929   2.302  0.3530  0.2247 -0.0566
11284TIP3    H155267   1.620   3.983   2.266  0.0538 -0.3659 -1.6205
11284TIP3    H255268   1.527   3.868   2.231 -1.0299 -0.2746  0.7602
11285TIP3   OH255269   4.721   4.830  14.858 -0.0733 -0.3190 -0.6489
11285TIP3    H155270   4.813   4.855  14.845 -0.1115 -0.0373 -0.3800
11285TIP3    H255271   4.679   4.847  14.774 -0.1289  0.6544 -0.4394
11286TIP3   OH255272   1.732   1.190  12.475  0.0493  0.4643  0.3071
11286TIP3    H155273   1.817   1.147  12.489  0.0730  0.3244 -0.2358
11286TIP3    H255274   1.685   1.177  12.557  0.1645 -0.3647  0.2549
11287TIP3   OH255275   7.113   3.174  14.783 -0.2075  0.2484  0.1292
11287TIP3    H155276   7.052   3.101  14.770 -2.4154  2.1803 -1.1514
11287TIP3    H255277   7.126   3.177  14.878  0.7102 -2.3030  0.1664
11288TIP3   OH255278   6.869   2.804  10.955  0.0388 -0.2054  0.7023
11288TIP3    H155279   6.946   2.823  11.010  0.6583 -0.4913 -0.0555
11288TIP3    H255280   6.807   2.874  10.977  0.8999  0.6157  0.5913
11289TIP3   OH255281   6.997   3.136   2.062 -0.2377 -0.4007  0.2029
11289TIP3    H155282   7.053   3.059   2.070 -0.3500 -0.3964  1.2102
11289TIP3    H255283   7.019   3.190   2.139 -1.4988 -0.3301  0.5339
11290TIP3   OH255284   1.855   6.737  11.169  0.3425  0.3411  0.7247
11290TIP3    H155285   1.895   6.678  11.105 -0.0556 -0.5003  1.2377
11290TIP3    H255286   1.841   6.819  11.121 -0.7226 -0.5296 -0.5054
11291TIP3   OH255287   6.262   6.902  13.109  0.7384  0.9894  0.2721
11291TIP3    H155288   6.167   6.887  13.103  0.3997  2.8246  0.4179
11291TIP3    H255289   6.286   6.870  13.196 -0.4590  3.5683  1.6771
11292TIP3   OH255290   5.875   4.426  11.990  0.2761  0.5449  0.3984
11292TIP3    H155291   5.950   4.451  11.936  0.3709 -0.6614 -0.0471
11292TIP3    H255292   5.905   4.441  12.080  1.3179 -0.5570  0.2685
11293TIP3   OH255293   2.119   6.664  12.064 -0.4763  0.3052 -0.8826
11293TIP3    H155294   2.088   6.603  11.997 -0.4675 -0.7311  0.0311
11293TIP3    H255295   2.039   6.701  12.102 -0.4747  1.4920 -1.9630
11294TIP3   OH255296   3.612   6.701   5.439  0.2897  0.1805 -0.0230
11294TIP3    H155297   3.583   6.652   5.362  1.1848  1.2529 -1.0857
11294TIP3    H255298   3.664   6.638   5.490  1.6929  0.0639 -1.5211
11295TIP3   OH255299   3.771   1.903   3.346 -0.3891  0.6432 -0.4330
11295TIP3    H155300   3.803   1.812   3.338 -0.9427  0.1225  2.2320
11295TIP3    H255301   3.849   1.952   3.373 -0.7016  0.3303  1.1319
11296TIP3   OH255302   2.956   0.891   5.476 -0.4328 -0.0789  0.1902
11296TIP3    H155303   2.960   0.945   5.555  2.2423  0.1588 -0.0319
11296TIP3    H255304   2.987   0.805   5.503  1.0567  0.1529 -0.6641
11297TIP3   OH255305   2.581   2.998   5.927 -0.6924  0.0301  0.5351
11297TIP3    H155306   2.529   3.036   5.999 -0.0105 -2.2736  2.3729
11297TIP3    H255307   2.669   2.989   5.963 -0.1619 -0.5557 -0.8422
11298TIP3   OH255308   2.212   0.237   5.282  0.1115  0.0315 -0.0699
11298TIP3    H155309   2.224   0.304   5.349  2.2098 -0.3576  0.0035
11298TIP3    H255310   2.191   0.158   5.332  1.2845 -0.1717  0.1115
11299TIP3   OH255311   6.242   5.796  13.293 -0.2282  0.4931 -1.1386
11299TIP3    H155312   6.171   5.855  13.319 -0.5686 -0.5434  0.4271
11299TIP3    H255313   6.265   5.824  13.205 -1.9338  1.4752 -1.3199
11300TIP3   OH255314   3.137   3.547   4.531  0.3804  0.4932 -0.1742
11300TIP3    H155315   3.111   3.455   4.526  1.4068  0.1964 -0.2308
11300TIP3    H255316   3.120   3.572   4.622 -1.8031  0.8536 -0.6229
11301TIP3   OH255317   5.456   3.222  11.015  0.4113 -0.2773  0.5455
11301TIP3    H155318   5.532   3.224  10.958  0.2889 -0.9668  0.3556
11301TIP3    H255319   5.457   3.135  11.054 -1.3265 -0.9973 -0.8942
11302TIP3   OH255320   2.952   2.490   1.400  0.3751 -0.2535 -0.5268
11302TIP3    H155321   3.005   2.470   1.478  4.3534  1.0648 -2.6309
11302TIP3    H255322   2.963   2.415   1.343  2.2282  1.0478 -2.0029
11303TIP3   OH255323   6.641   6.411  12.986 -0.6933 -0.3307 -0.0910
11303TIP3    H155324   6.593   6.455  13.055 -2.1125 -1.9247  0.0161
11303TIP3    H255325   6.637   6.471  12.911 -0.9038  0.5150  0.5864
11304TIP3   OH255326   4.977   2.409   3.451  0.1094 -0.1954 -0.1918
11304TIP3    H155327   5.016   2.372   3.372  0.2315  0.2521 -0.3400
11304TIP3    H255328   5.040   2.387   3.520  0.0812 -0.4441 -0.2428
11305TIP3   OH255329   4.961   5.229  12.819 -0.0973  0.2283 -0.1275
11305TIP3    H155330   5.006   5.145  12.829 -0.6278  0.0446  0.8838
11305TIP3    H255331   4.869   5.209  12.832 -0.5405  0.5616 -2.4310
11306TIP3   OH255332   2.633   3.094   0.666  0.4482 -0.9678 -0.1722
11306TIP3    H155333   2.675   3.110   0.751 -0.8184 -0.4021  0.3649
11306TIP3    H255334   2.549   3.054   0.688 -1.6463  2.5995 -0.8497
11307TIP3   OH255335   1.410   0.119  10.057  0.2613  0.3957  0.2841
11307TIP3    H155336   1.359   0.082   9.986  1.7447  0.5153 -0.9100
11307TIP3    H255337   1.383   0.071  10.135  0.7384 -1.8950 -0.8838
11308TIP3   OH255338   7.072   2.692   0.704 -0.1730  0.4511 -0.1209
11308TIP3    H155339   7.009   2.718   0.637 -0.0390  0.8146 -0.1112
11308TIP3    H255340   7.060   2.598   0.714 -1.1769  0.6122  0.3555
11309TIP3   OH255341   2.426   3.855  10.320 -0.1563  0.0421 -0.4098
11309TIP3    H155342   2.476   3.869  10.240  1.1302 -0.4010  0.2927
11309TIP3    H255343   2.445   3.764  10.345  1.7448  0.9785  1.8928
11310TIP3   OH255344   6.874   4.413   4.625  0.1770 -0.6098 -0.4153
11310TIP3    H155345   6.816   4.385   4.554  0.3683 -0.6257 -0.5649
11310TIP3    H255346   6.822   4.399   4.705 -0.2064 -0.1654 -0.5793
11311TIP3   OH255347   6.529   4.365  10.430  0.1519 -0.0615 -0.0007
11311TIP3    H155348   6.606   4.333  10.382  0.0577 -1.5891  0.8197
11311TIP3    H255349   6.564   4.393  10.515 -0.2295 -1.2076  0.5566
11312TIP3   OH255350   6.788   4.731  14.013  0.2943 -0.3187 -0.2916
11312TIP3    H155351   6.709   4.776  13.981 -0.2822 -1.4217 -0.4549
11312TIP3    H255352   6.759   4.642  14.031  1.2727 -0.4640  0.6507
11313TIP3   OH255353   6.989   6.834  12.944 -0.5376 -0.1755 -0.0094
11313TIP3    H155354   7.019   6.835  12.853 -0.1973 -2.4194  0.0234
11313TIP3    H255355   6.907   6.784  12.942 -0.3359 -0.5776  0.9444
11314TIP3   OH255356   0.998   2.125   3.227 -0.3206  0.3302 -0.1685
11314TIP3    H155357   0.979   2.219   3.219  1.4427  0.6188 -1.6171
11314TIP3    H255358   1.046   2.117   3.309 -1.1602  0.5442  0.3624
11315TIP3   OH255359   5.500   5.827   5.396 -0.0943 -0.0931  0.2515
11315TIP3    H155360   5.411   5.796   5.410 -0.3748  0.8545  0.6876
11315TIP3    H255361   5.556   5.752   5.416 -0.8146 -0.9993 -0.9997
11316TIP3   OH255362   5.875   6.550   5.791 -0.6756 -0.0728 -0.1678
11316TIP3    H155363   5.885   6.630   5.740  1.0473 -0.6850 -0.8441
11316TIP3    H255364   5.798   6.507   5.753  0.6179 -0.5681 -2.3862
11317TIP3   OH255365   6.872   5.754  11.392  0.0464 -0.0444  0.5275
11317TIP3    H155366   6.784   5.780  11.363  0.4020  0.5665 -0.0147
11317TIP3    H255367   6.865   5.660  11.407 -0.8489  0.0856  1.0183
11318TIP3   OH255368   0.566   1.489  13.656  0.1890 -0.2412  0.3056
11318TIP3    H155369   0.611   1.409  13.628  2.8346  1.1944  0.1537
11318TIP3    H255370   0.601   1.508  13.742  0.9465  1.6674 -0.3700
11319TIP3   OH255371   5.746   6.119   0.261  0.6987 -0.2699  0.0074
11319TIP3    H155372   5.696   6.080   0.333 -1.9459  0.6669 -1.1744
11319TIP3    H255373   5.725   6.064   0.185  1.4751  0.1532 -0.5224
11320TIP3   OH255374   0.241   3.483  14.472  0.5191  0.1664 -0.5510
11320TIP3    H155375   0.168   3.426  14.497  1.2868 -0.0126  1.4106
11320TIP3    H255376   0.294   3.428  14.414  1.2193 -1.1499  1.2726
11321TIP3   OH255377   6.065   4.460  11.377 -0.2161  0.2215 -0.0942
11321TIP3    H155378   6.018   4.433  11.299  0.4263 -0.0940 -0.3829
11321TIP3    H255379   6.089   4.551  11.361 -0.9924  0.4875  0.1942
11322TIP3   OH255380   3.327   6.118   1.382  0.1853  0.1286 -0.1324
11322TIP3    H155381   3.337   6.080   1.469  1.9194 -1.7966 -1.0598
11322TIP3    H255382   3.342   6.212   1.394 -1.7120  0.2360  1.9002
11323TIP3   OH255383   0.821   5.196   3.535 -0.4330  0.3488 -0.1476
11323TIP3    H155384   0.764   5.120   3.539 -0.5731  0.4588 -0.0649
11323TIP3    H255385   0.893   5.169   3.477 -0.1230 -0.0795  0.4235
11324TIP3   OH255386   4.252   6.410  10.049 -0.0369 -0.0548  0.3802
11324TIP3    H155387   4.226   6.377   9.963 -2.3924  0.5937  0.7574
11324TIP3    H255388   4.271   6.331  10.100  2.1001 -0.4229 -0.8690
11325TIP3   OH255389   3.708   3.008   3.142  0.3436 -0.1730  0.1701
11325TIP3    H155390   3.657   2.941   3.188  0.9346 -0.5874  0.2410
11325TIP3    H255391   3.767   2.958   3.084  0.8160  0.2797  0.2484
11326TIP3   OH255392   5.198   6.655   2.228  0.4862  0.2690  0.2300
11326TIP3    H155393   5.133   6.695   2.170  0.6801  0.5704  0.2156
11326TIP3    H255394   5.171   6.563   2.235 -1.3076  0.8436  2.0799
11327TIP3   OH255395   0.210   5.451  15.531 -0.8615  0.2694  0.2048
11327TIP3    H155396   0.151   5.450  15.455  0.7380 -0.8722 -1.0956
11327TIP3    H255397   0.276   5.516  15.510 -0.7942  0.4525  0.9541
11328TIP3   OH255398   3.937   6.493  12.232 -0.1154 -0.1687 -0.4171
11328TIP3    H155399   4.015   6.545  12.212  1.1628 -1.4715  1.0182
11328TIP3    H255400   3.865   6.545  12.195  1.1953  2.0447 -0.0682
11329TIP3   OH255401   0.302   5.435   0.214  0.9890 -0.5103 -0.6229
11329TIP3    H155402   0.220   5.404   0.252  1.0713 -1.2454 -1.0171
11329TIP3    H255403   0.329   5.364   0.155  2.0655 -0.4299 -0.2530
11330TIP3   OH255404   3.223   0.028   0.930 -0.0907 -0.5720 -0.1394
11330TIP3    H155405   3.214  -0.055   0.977 -2.6211 -1.4322 -1.9370
11330TIP3    H255406   3.134   0.060   0.921  0.2822 -0.2256 -3.8744
11331TIP3   OH255407   6.116   7.088  15.607  0.1716 -0.0688  0.2967
11331TIP3    H155408   6.026   7.085  15.576  0.1484 -1.9020  0.4397
11331TIP3    H255409   6.168   7.054  15.533  0.6665  0.2363  0.4965
11332TIP3   OH255410   1.240   6.164   0.617  0.5510  0.4839  0.6420
11332TIP3    H155411   1.249   6.157   0.712  1.7432  1.3615  0.6242
11332TIP3    H255412   1.256   6.257   0.598 -0.5299  0.4899 -0.3403
11333TIP3   OH255413   4.262   6.317  15.609  1.0795  0.2105 -0.2690
11333TIP3    H155414   4.292   6.263  15.536 -0.7554 -1.8156  0.3735
11333TIP3    H255415   4.284   6.267  15.687  0.7831  1.1567  0.4372
11334TIP3   OH255416   1.249   2.647  13.320  0.0206  0.0442 -0.1273
11334TIP3    H155417   1.215   2.614  13.404  1.0301 -0.7530 -0.0082
11334TIP3    H255418   1.344   2.640  13.329  0.1413 -0.0158 -1.3310
11335TIP3   OH255419   4.490   3.206  12.233  0.2483  0.1549 -0.2881
11335TIP3    H155420   4.443   3.216  12.316 -1.5201 -1.5491 -1.0068
11335TIP3    H255421   4.558   3.142  12.250  0.8698  0.9186  0.1810
11336TIP3   OH255422   1.111   3.054   3.009  0.1841 -0.0005 -0.3891
11336TIP3    H155423   1.078   3.131   3.055 -0.7992 -1.0232  0.7021
11336TIP3    H255424   1.189   3.085   2.963  0.5386  1.3518  1.0309
11337TIP3   OH255425   4.504   1.831   3.683  0.1838 -0.7559 -0.0065
11337TIP3    H155426   4.459   1.796   3.760  2.0873 -0.7509  1.1544
11337TIP3    H255427   4.555   1.904   3.716  1.6667 -1.2433 -1.1183
11338TIP3   OH255428   5.438   5.301   0.403 -0.3643 -0.0532  0.4972
11338TIP3    H155429   5.409   5.390   0.384  0.5185  0.4393  1.3732
11338TIP3    H255430   5.528   5.297   0.373 -0.9068 -1.2304 -1.1557
11339TIP3   OH255431   0.677   6.574   0.356 -0.0133 -0.1799 -0.5266
11339TIP3    H155432   0.592   6.572   0.311 -0.4311 -0.4590  0.2431
11339TIP3    H255433   0.703   6.666   0.354 -0.4749 -0.0447 -0.5329
11340TIP3   OH255434   5.879   3.797  10.126  0.1119 -0.3178 -0.2333
11340TIP3    H155435   5.959   3.751  10.152 -0.2860 -0.5599  0.6070
11340TIP3    H255436   5.891   3.886  10.159 -0.5734 -0.7347  1.2147
11341TIP3   OH255437   1.026   4.676  13.032 -0.1244  0.0686  0.0525
11341TIP3    H155438   1.033   4.682  13.128 -1.8041  2.3880  0.1360
11341TIP3    H255439   0.986   4.591  13.016  0.9649 -0.7198  1.3348
11342TIP3   OH255440   4.343   0.563   1.163 -0.1357 -0.2781 -0.1020
11342TIP3    H155441   4.369   0.501   1.094 -0.3054 -0.9132  0.3879
11342TIP3    H255442   4.258   0.531   1.192 -0.6432  0.7257 -0.4509
11343TIP3   OH255443   0.858   1.515   2.244 -0.1041  0.2644  0.9904
11343TIP3    H155444   0.770   1.482   2.228 -0.3574  1.0350  0.7868
11343TIP3    H255445   0.846   1.606   2.270  0.6775  0.5941  0.2621
11344TIP3   OH255446   5.225   6.564   2.947 -0.3956 -0.7207 -0.5366
11344TIP3    H155447   5.150   6.564   3.008 -0.5414 -1.2953 -0.7124
11344TIP3    H255448   5.241   6.472   2.930  1.5728 -0.7179  0.9765
11345TIP3   OH255449   6.190   7.016   5.326 -0.5278 -0.0398  0.0403
11345TIP3    H155450   6.107   7.063   5.321  0.2289  1.3275  0.0088
11345TIP3    H255451   6.195   6.969   5.242 -1.7445 -1.0244  0.4746
11346TIP3   OH255452   5.838   1.438   4.873  0.2950 -0.3718  0.3178
11346TIP3    H155453   5.849   1.358   4.823 -1.8276 -1.3447  1.2644
11346TIP3    H255454   5.797   1.410   4.955 -0.0182  1.6108  0.9082
11347TIP3   OH255455   2.251   3.085   0.359  0.4024  0.0880  0.4722
11347TIP3    H155456   2.288   3.057   0.275 -0.2136 -0.9559  0.5261
11347TIP3    H255457   2.177   3.025   0.373  0.6163  0.1291  1.8493
11348TIP3   OH255458   5.527   0.405  12.198 -0.1915 -0.4617  0.2521
11348TIP3    H155459   5.570   0.421  12.114  1.3031 -0.1144  1.0330
11348TIP3    H255460   5.434   0.400  12.177  0.0694  0.4040 -1.3096
11349TIP3   OH255461   4.334   3.377  11.740  0.0123  0.2356 -0.1495
11349TIP3    H155462   4.265   3.317  11.768 -1.5476  2.3637  0.8410
11349TIP3    H255463   4.379   3.330  11.670 -0.9956 -2.1317  0.6801
11350TIP3   OH255464   4.890   5.056  11.339  0.3833 -0.6017  0.3712
11350TIP3    H155465   4.939   4.973  11.340  0.1854 -0.7194  1.1763
11350TIP3    H255466   4.819   5.042  11.401 -0.8039 -0.4933 -0.9108
11351TIP3   OH255467   2.864   0.969   4.354 -0.3570  0.4549  0.4606
11351TIP3    H155468   2.901   0.939   4.437  2.3375 -0.9886 -1.1295
11351TIP3    H255469   2.866   0.892   4.297 -2.7225  1.2453 -0.8203
11352TIP3   OH255470   5.615   2.526   2.342  0.4446  0.0186 -0.0241
11352TIP3    H155471   5.639   2.444   2.301 -0.3152 -0.5326  0.5997
11352TIP3    H255472   5.520   2.534   2.328  0.3654  0.3612  0.6455
11353TIP3   OH255473   3.458   4.582   5.613 -0.2958 -0.1106  0.8340
11353TIP3    H155474   3.474   4.541   5.527 -1.0231  1.0581  0.1185
11353TIP3    H255475   3.417   4.513   5.665  1.8670 -1.4435  0.9009
11354TIP3   OH255476   2.146   6.372   1.448 -0.1895  0.1957 -0.7363
11354TIP3    H155477   2.232   6.331   1.437 -0.0397 -0.4433  1.9360
11354TIP3    H255478   2.092   6.301   1.484 -1.0403  1.2810  0.1836
11355TIP3   OH255479   2.678   5.300   5.766  0.1708  0.1085 -0.1429
11355TIP3    H155480   2.631   5.367   5.814 -0.5785 -1.7839  1.9102
11355TIP3    H255481   2.767   5.302   5.802 -0.9458 -2.8714  3.3462
11356TIP3   OH255482   5.114   2.941   0.775  0.6540 -0.0539 -0.1939
11356TIP3    H155483   5.131   2.869   0.836  0.1291 -0.1451 -0.1514
11356TIP3    H255484   5.035   2.914   0.728  1.6856 -0.5345 -1.7522
11357TIP3   OH255485   2.044   6.466   3.876  0.0813 -0.3226 -0.8703
11357TIP3    H155486   2.038   6.562   3.882 -2.3742 -0.4729  0.1727
11357TIP3    H255487   2.015   6.445   3.788  1.9257 -0.0886 -1.5819
11358TIP3   OH255488   2.756   4.887   5.223  0.0209  0.0782  0.2488
11358TIP3    H155489   2.734   4.794   5.226 -0.4454  0.2098  1.9025
11358TIP3    H255490   2.797   4.899   5.138 -0.4654 -1.5126 -0.2494
11359TIP3   OH255491   1.025   3.068   2.378 -0.2558 -0.7743  0.1366
11359TIP3    H155492   1.041   2.996   2.317 -2.5604 -1.4474  0.2157
11359TIP3    H255493   0.956   3.120   2.335  1.8657  1.9331 -0.3067
11360TIP3   OH255494   4.967   0.224  10.137 -0.0355  0.6556 -0.5130
11360TIP3    H155495   4.944   0.254  10.049  1.0495 -0.2449 -1.1331
11360TIP3    H255496   5.008   0.301  10.178 -0.6255  1.1065 -0.7561
11361TIP3   OH255497   4.984   5.520  11.328 -0.3127 -0.5523 -0.3434
11361TIP3    H155498   4.972   5.479  11.414  0.3775 -1.6001 -0.7363
11361TIP3    H255499   4.994   5.447  11.267 -1.9541  0.1479 -1.5243
11362TIP3   OH255500   2.822   1.056   5.243 -0.4417 -0.3861  0.0434
11362TIP3    H155501   2.868   0.994   5.300 -0.1435 -0.9348 -0.7735
11362TIP3    H255502   2.779   1.117   5.303  0.1306 -0.7558  0.8460
11363TIP3   OH255503   3.284   6.401   1.427  0.4860 -0.1019  0.2644
11363TIP3    H155504   3.206   6.434   1.381 -0.4795 -0.9864  1.2188
11363TIP3    H255505   3.329   6.480   1.457  0.0002  0.4283 -0.3551
11364TIP3   OH255506   2.659   4.851  11.922  0.1331  0.0636  0.8586
11364TIP3    H155507   2.674   4.912  11.850  2.3663  0.7916  1.8469
11364TIP3    H255508   2.564   4.837  11.923  0.0548 -0.5881 -2.6669
11365TIP3   OH255509   3.743   2.836   2.055 -0.3105 -0.1662  0.5436
11365TIP3    H155510   3.745   2.846   2.150 -0.9093  1.0272  0.4505
11365TIP3    H255511   3.699   2.915   2.023 -0.7318 -0.8606 -0.6783
11366TIP3   OH255512   5.314   2.405   2.242 -0.1758  0.4961 -0.0542
11366TIP3    H155513   5.231   2.394   2.195  0.3997 -1.0298 -0.7564
11366TIP3    H255514   5.288   2.449   2.324 -1.5839  0.6304 -0.5377
11367TIP3   OH255515   5.433   4.042   0.262  0.5898 -0.1439 -0.1112
11367TIP3    H155516   5.505   3.994   0.221  2.4141  1.9306  0.4093
11367TIP3    H255517   5.422   4.119   0.207 -0.8938 -0.1525  0.1416
11368TIP3   OH255518   5.720   3.667   1.027 -0.3553 -0.2966  0.5462
11368TIP3    H155519   5.640   3.631   0.988 -0.1494 -0.8845  0.6513
11368TIP3    H255520   5.708   3.762   1.023 -0.0314 -0.2878 -1.6213
11369TIP3   OH255521   3.456   3.073   3.709 -0.0419  0.5497  0.7188
11369TIP3    H155522   3.420   2.988   3.682 -0.3164  0.5898  0.9467
11369TIP3    H255523   3.470   3.063   3.803  1.3302  0.2592  0.4992
11370TIP3   OH255524   0.037   0.629  10.662  0.2887  0.4173 -0.0918
11370TIP3    H155525   0.063   0.579  10.584 -0.2525  0.2899 -0.1966
11370TIP3    H255526   0.065   0.718  10.643 -2.1985  0.9696 -1.6415
11371TIP3   OH255527   2.818   2.892  12.172 -0.1430 -0.5823 -0.3865
11371TIP3    H155528   2.746   2.847  12.129  0.6385 -0.9072 -1.4019
11371TIP3    H255529   2.890   2.828  12.171  0.1251 -0.3349  0.7561
11372TIP3   OH255530   3.409   5.084  13.533  0.4389  0.4772 -0.2856
11372TIP3    H155531   3.429   5.113  13.444 -0.4179  0.1161 -0.6051
11372TIP3    H255532   3.386   4.991  13.524  1.0363  0.2502  0.4143
11373TIP3   OH255533   1.078   6.615   5.071 -0.2568  0.1795 -0.0762
11373TIP3    H155534   1.150   6.584   5.016  1.5978  3.0288  0.5074
11373TIP3    H255535   1.031   6.536   5.096  2.2351 -1.7813 -1.0878
11374TIP3   OH255536   1.056   0.574   9.957  0.2294  0.7476 -0.1620
11374TIP3    H155537   1.041   0.628  10.034 -0.2845  0.1600  0.1663
11374TIP3    H255538   1.141   0.532   9.974 -0.9494 -1.2442  1.2617
11375TIP3   OH255539   1.351   3.879   3.180 -0.3810  0.5084  0.5058
11375TIP3    H155540   1.347   3.958   3.233  3.5936  0.9276  0.5019
11375TIP3    H255541   1.350   3.910   3.090 -0.3956  0.4110  0.4720
11376TIP3   OH255542   1.026   3.196  10.250 -0.4576  0.2538  0.5617
11376TIP3    H155543   0.966   3.159  10.186 -2.5146  2.2399  1.1961
11376TIP3    H255544   1.069   3.268  10.205 -0.4872  0.4596  0.8573
11377TIP3   OH255545   1.857   0.515   0.806  0.1415 -0.0012 -0.0469
11377TIP3    H155546   1.935   0.568   0.791  0.3035 -0.3672 -0.5261
11377TIP3    H255547   1.881   0.455   0.877  0.7017 -0.9046 -0.9742
11378TIP3   OH255548   5.521   5.455   5.102  0.7535 -0.4066 -0.0244
11378TIP3    H155549   5.610   5.481   5.126  0.1235  1.0998  0.8787
11378TIP3    H255550   5.468   5.477   5.179 -1.0091  2.4899 -1.8592
11379TIP3   OH255551   2.521   6.839  14.170  0.0640  0.0518 -0.1695
11379TIP3    H155552   2.430   6.830  14.142 -0.1800  0.1711  0.5759
11379TIP3    H255553   2.533   6.933  14.185  0.3317  0.0446 -0.3246
11380TIP3   OH255554   4.414   5.743   3.787 -0.1048 -0.7045 -0.5864
11380TIP3    H155555   4.357   5.779   3.855 -0.6096 -0.5638 -1.0723
11380TIP3    H255556   4.409   5.806   3.715  0.0912 -1.0532 -0.9140
11381TIP3   OH255557   4.666   2.057  14.563  0.5678 -1.1708 -0.0566
11381TIP3    H155558   4.625   2.017  14.486 -0.5111 -1.1557  0.4850
11381TIP3    H255559   4.592   2.091  14.614  1.4069  0.8318 -0.1062
11382TIP3   OH255560   5.228   1.752   0.143  0.4694  0.6466  1.0286
11382TIP3    H155561   5.237   1.723   0.234 -2.2124 -1.5084  0.7316
11382TIP3    H255562   5.134   1.760   0.130  0.7644  0.6073 -1.6677
11383TIP3   OH255563   5.585   5.047   2.576 -0.0246 -0.0813  0.0320
11383TIP3    H155564   5.666   5.010   2.541  0.8956 -0.3478  2.2497
11383TIP3    H255565   5.606   5.139   2.591 -0.8050  0.3177 -1.1619
11384TIP3   OH255566   1.461   0.551  10.812  0.4008 -0.3980 -0.1061
11384TIP3    H155567   1.421   0.637  10.818 -0.8401 -0.9905  0.6138
11384TIP3    H255568   1.523   0.557  10.740  0.3835  1.1082 -0.0108
11385TIP3   OH255569   1.852   5.955   0.949  0.1281  0.6735 -0.2907
11385TIP3    H155570   1.770   5.907   0.961  1.1096 -0.7431  1.1947
11385TIP3    H255571   1.836   6.012   0.874 -2.9219  1.9689  1.1683
11386TIP3   OH255572   2.209   5.365   6.144 -0.0193 -0.1996 -0.2590
11386TIP3    H155573   2.244   5.454   6.153 -0.2956 -0.0128 -0.9399
11386TIP3    H255574   2.163   5.366   6.060  0.0270 -1.0090 -0.3013
11387TIP3   OH255575   3.889   2.038   4.325  0.2976 -0.6000 -0.1536
11387TIP3    H155576   3.893   2.060   4.418  1.5067  1.6825 -0.6755
11387TIP3    H255577   3.968   2.077   4.287 -0.8319 -0.2901 -2.3563
11388TIP3   OH255578   0.887   0.186  10.366 -0.0726  0.1120  0.4148
11388TIP3    H155579   0.887   0.201  10.271 -1.5660  0.0976  0.3888
11388TIP3    H255580   0.828   0.252  10.401 -0.2997 -0.5113  1.2266
11389TIP3   OH255581   4.638   6.253  14.868 -0.3456  0.2038  0.5368
11389TIP3    H155582   4.629   6.220  14.958 -0.7495 -0.9244  0.1049
11389TIP3    H255583   4.553   6.292  14.849  0.1057  1.4786  1.0198
11390TIP3   OH255584   7.073   0.650   5.164  0.4055  0.2208 -0.2885
11390TIP3    H155585   7.011   0.638   5.092 -0.2633  0.8391  0.1804
11390TIP3    H255586   7.087   0.562   5.198  1.9803 -0.3377 -2.1767
11391TIP3   OH255587   4.870   3.921   3.597 -0.4612  0.3362  0.4039
11391TIP3    H155588   4.941   3.955   3.543  0.0147 -0.3412  0.5845
11391TIP3    H255589   4.905   3.839   3.634 -0.8968  0.6038  1.4509
11392TIP3   OH255590   0.723   2.961  14.856  0.2663  0.3334  0.2092
11392TIP3    H155591   0.690   2.954  14.766  2.6497  0.7002 -0.7816
11392TIP3    H255592   0.663   3.022  14.899 -0.0959  1.3217 -1.5920
11393TIP3   OH255593   0.363   1.778   1.204 -0.3413  1.1201 -0.5182
11393TIP3    H155594   0.355   1.750   1.113 -1.1142 -0.1847 -0.0788
11393TIP3    H255595   0.440   1.731   1.237 -0.5385  0.9479 -0.2924
11394TIP3   OH255596   1.606   5.907  11.567 -0.1005 -0.5299 -0.1187
11394TIP3    H155597   1.598   5.911  11.662 -3.0447  0.6467 -0.3355
11394TIP3    H255598   1.527   5.861  11.538 -0.7614  1.7094 -2.1233
11395TIP3   OH255599   6.700   0.922   4.306 -0.2422 -0.0142  0.2984
11395TIP3    H155600   6.674   0.989   4.243 -2.2029  0.3509  1.4248
11395TIP3    H255601   6.648   0.845   4.283  0.2574 -0.4122  0.4718
11396TIP3   OH255602   5.772   2.185   3.768 -0.4943 -0.2260  0.0846
11396TIP3    H155603   5.861   2.150   3.772 -0.7177 -1.2949 -2.3848
11396TIP3    H255604   5.718   2.118   3.811 -0.3703 -0.6688 -0.4476
11397TIP3   OH255605   3.816   5.455  14.095 -0.5108 -0.0802  0.4307
11397TIP3    H155606   3.835   5.441  14.188  0.0476 -2.7482  0.0018
11397TIP3    H255607   3.903   5.463  14.054 -0.6903 -0.3308 -0.0092
11398TIP3   OH255608   3.960   0.465   5.128  1.1025  0.6618  0.0181
11398TIP3    H155609   4.015   0.392   5.156  0.2066 -0.9655 -2.1896
11398TIP3    H255610   3.908   0.487   5.206  2.1417 -0.3330  1.0299
11399TIP3   OH255611   4.487   2.340   3.331  0.4646 -0.2587  0.4601
11399TIP3    H155612   4.566   2.290   3.313  0.4520 -0.2092  0.2712
11399TIP3    H255613   4.509   2.394   3.407  1.1055  0.8840 -0.5094
11400TIP3   OH255614   4.303   6.647  10.951  0.0221  0.0346  0.1245
11400TIP3    H155615   4.242   6.588  10.996  0.7474  0.4103  1.6740
11400TIP3    H255616   4.388   6.628  10.990  0.8471 -0.1598 -1.6871
11401TIP3   OH255617   0.900   1.415   5.875 -0.2760 -0.0133  0.2045
11401TIP3    H155618   0.907   1.511   5.871  0.1499 -0.0697 -0.9638
11401TIP3    H255619   0.813   1.396   5.842 -0.2218 -0.0497  0.0837
11402TIP3   OH255620   6.235   4.599   0.858  0.5645 -0.6165  0.0306
11402TIP3    H155621   6.150   4.627   0.893  0.0406  0.1177 -1.7054
11402TIP3    H255622   6.223   4.506   0.839 -0.1108 -0.3636 -0.8540
11403TIP3   OH255623   2.857   1.970   4.674 -0.8442  0.0182  0.2197
11403TIP3    H155624   2.838   1.877   4.664 -0.0447 -0.4838  2.7540
11403TIP3    H255625   2.945   1.980   4.638 -0.2407 -0.6004  1.4567
11404TIP3   OH255626   3.366   1.873   0.101 -0.1026 -0.4495  0.3485
11404TIP3    H155627   3.374   1.779   0.082 -0.3491 -0.5535  0.7327
11404TIP3    H255628   3.285   1.880   0.152  1.0716 -0.3594  2.3346
11405TIP3   OH255629   2.789   3.140   1.869 -0.7871 -0.8668 -0.3231
11405TIP3    H155630   2.823   3.117   1.955 -0.0542 -0.7011 -0.5636
11405TIP3    H255631   2.769   3.056   1.828  0.1210 -1.0080 -0.4902
11406TIP3   OH255632   3.218   3.082   4.803 -0.1779 -0.0902  0.2570
11406TIP3    H155633   3.134   3.104   4.844  0.4850  0.5654  1.3255
11406TIP3    H255634   3.204   2.996   4.764 -1.2033 -0.2068  0.8445
11407TIP3   OH255635   6.560   3.303  14.099  0.0352 -0.2689  0.2098
11407TIP3    H155636   6.619   3.378  14.100  2.5836 -2.1407  0.8541
11407TIP3    H255637   6.521   3.304  14.011  0.4698  1.4035 -0.0015
11408TIP3   OH255638   1.235   5.039   3.448 -0.3772 -0.1363  0.3470
11408TIP3    H155639   1.329   5.047   3.436 -0.6350  0.9746 -1.1507
11408TIP3    H255640   1.218   4.945   3.442  0.7526 -0.4584  1.7912
11409TIP3   OH255641   6.196   1.218   1.474 -0.2478 -0.0886  0.2950
11409TIP3    H155642   6.192   1.201   1.568 -0.2416 -0.1145  0.2905
11409TIP3    H255643   6.105   1.232   1.448 -0.0690  2.6251  0.8124
11410TIP3   OH255644   1.662   2.930  11.039 -0.2311 -0.1518 -0.0224
11410TIP3    H155645   1.675   2.910  11.131 -1.8488 -0.6898  0.1311
11410TIP3    H255646   1.635   2.847  11.000  0.4836  0.0567 -0.9977
11411TIP3   OH255647   5.848   6.321  10.095  0.1864 -0.4753  0.0772
11411TIP3    H155648   5.943   6.313  10.104  0.0514 -1.7390  0.6021
11411TIP3    H255649   5.812   6.279  10.174 -0.7944  1.3832  0.6758
11412TIP3   OH255650   1.740   3.628   2.119  0.0674 -0.1374 -0.2481
11412TIP3    H155651   1.648   3.644   2.139 -0.0180 -1.5505  0.6681
11412TIP3    H255652   1.754   3.670   2.034 -1.2644  0.5733 -0.1475
11413TIP3   OH255653   1.453   6.965   0.601  0.1928  0.4228  0.1769
11413TIP3    H155654   1.363   6.988   0.580  0.3490  0.4927 -0.4313
11413TIP3    H255655   1.446   6.882   0.648 -0.2207  0.6657  0.5490
11414TIP3   OH255656   2.287   4.733  14.627 -0.6996  0.1568 -0.0096
11414TIP3    H155657   2.376   4.738  14.661 -0.1791 -1.9433 -0.8779
11414TIP3    H255658   2.290   4.777  14.543 -0.8485  1.3038  0.5705
11415TIP3   OH255659   6.756   4.109   5.476  0.3999 -0.6596 -0.2902
11415TIP3    H155660   6.845   4.119   5.440  0.1478 -0.3037 -0.8265
11415TIP3    H255661   6.766   4.046   5.547  1.3697  0.5733  0.7048
11416TIP3   OH255662   3.141   1.536   4.363  0.0429  0.1584 -1.0704
11416TIP3    H155663   3.168   1.454   4.322 -2.9439  0.2723 -3.6053
11416TIP3    H255664   3.077   1.509   4.428  0.5018  0.3990 -0.5091
11417TIP3   OH255665   0.254   1.990   1.334  0.3378  0.5737  0.5099
11417TIP3    H155666   0.194   2.044   1.282  0.6517 -0.0458 -0.5213
11417TIP3    H255667   0.275   1.915   1.277 -1.4142 -1.5726  2.4879
11418TIP3   OH255668   1.505   0.981   2.299  0.1050 -0.1560 -0.6132
11418TIP3    H155669   1.508   0.968   2.393  1.1464  0.5217 -0.5351
11418TIP3    H255670   1.412   0.970   2.276 -0.2730  0.3536  0.5917
11419TIP3   OH255671   5.683   7.097   3.734  0.2356  0.0753  0.0490
11419TIP3    H155672   5.707   7.082   3.825  0.8257 -0.5587 -0.2026
11419TIP3    H255673   5.621   7.028   3.713  0.3517  0.0233 -0.1259
11420TIP3   OH255674   3.838   3.720  12.013  0.1841 -0.1601  0.0842
11420TIP3    H155675   3.918   3.758  11.977 -0.4602  0.2597 -0.9307
11420TIP3    H255676   3.775   3.722  11.941 -0.3107 -1.8402  0.4181
11421TIP3   OH255677   7.121   6.537   4.929 -0.1158 -1.0142  0.1857
11421TIP3    H155678   7.107   6.538   4.834  0.7655  0.1639  0.0474
11421TIP3    H255679   7.203   6.490   4.941 -0.6505 -1.9184  0.4583
11422TIP3   OH255680   5.312   0.378   1.202 -0.7243  0.2579  0.2283
11422TIP3    H155681   5.407   0.366   1.212 -0.9012 -1.4313  0.1891
11422TIP3    H255682   5.303   0.468   1.172  0.6858  1.3977  2.8451
11423TIP3   OH255683   0.474   1.967   2.556 -0.0541 -0.6806  0.3348
11423TIP3    H155684   0.551   1.910   2.557 -0.9401 -1.9540 -0.9173
11423TIP3    H255685   0.487   2.026   2.630  2.0755 -0.9187  0.2068
11424TIP3   OH255686   4.064   1.829   3.993 -0.1721 -0.4106 -0.5502
11424TIP3    H155687   4.002   1.768   4.032 -2.8968  2.1026 -0.5808
11424TIP3    H255688   4.118   1.858   4.067  0.6123 -2.1252 -0.3976
11425TIP3   OH255689   2.797   5.705   9.563  0.8560 -0.2875  0.1669
11425TIP3    H155690   2.881   5.689   9.606  0.2419  1.7971  2.4070
11425TIP3    H255691   2.806   5.792   9.525 -0.3943  0.1815  0.8715
11426TIP3   OH255692   0.429   3.142   3.006 -0.2713  0.6241 -0.1397
11426TIP3    H155693   0.421   3.114   3.097 -0.0098  1.3355  0.1102
11426TIP3    H255694   0.523   3.154   2.993 -0.1622 -0.8500 -0.9387
11427TIP3   OH255695   1.943   2.086   5.234  0.0440 -0.7227 -0.4764
11427TIP3    H155696   2.016   2.138   5.266  0.3673 -1.1085 -0.5673
11427TIP3    H255697   1.865   2.133   5.261  0.3306 -0.0075 -0.8756
11428TIP3   OH255698   5.271   4.958   2.445  0.2523  0.5257  0.8657
11428TIP3    H155699   5.177   4.938   2.437  0.4035 -1.1973  2.7776
11428TIP3    H255700   5.274   5.053   2.448 -1.3494  0.6547 -0.0260
11429TIP3   OH255701   3.018   0.862  11.069  0.7448 -0.2975  0.8951
11429TIP3    H155702   3.018   0.952  11.036 -0.9658 -0.4885  0.2295
11429TIP3    H255703   3.100   0.825  11.039  0.0554  0.0856 -1.7396
11430TIP3   OH255704   5.601   5.056  13.773  0.2430  0.8099 -0.6033
11430TIP3    H155705   5.564   5.126  13.720 -2.3634 -0.5742 -0.7931
11430TIP3    H255706   5.609   4.982  13.713 -2.1210 -0.5758  0.6403
11431TIP3   OH255707   6.757   1.576   3.695  0.3142  0.4275  0.1146
11431TIP3    H155708   6.754   1.630   3.774 -2.1087  2.5665 -1.2604
11431TIP3    H255709   6.666   1.575   3.664  0.9853 -1.2984 -2.0346
11432TIP3   OH255710   4.670   5.566  11.650 -0.4246 -0.0513  0.2115
11432TIP3    H155711   4.651   5.645  11.598 -3.6809 -0.6290  0.3229
11432TIP3    H255712   4.585   5.539  11.684  1.0705 -1.7805  2.9153
11433TIP3   OH255713   5.072   1.666  11.632 -0.2884 -0.2776  0.5916
11433TIP3    H155714   5.004   1.673  11.566 -0.0596  1.0764  0.4621
11433TIP3    H255715   5.116   1.584  11.613 -0.8512 -0.3794 -0.3252
11434TIP3   OH255716   1.952   5.613  10.132 -0.8712 -0.7733  0.4542
11434TIP3    H155717   1.968   5.521  10.110 -0.3701 -0.6964  0.4935
11434TIP3    H255718   2.039   5.651  10.142 -1.0287  0.1118 -1.2395
11435TIP3   OH255719   1.832   3.393  15.353 -0.8303 -0.1908 -0.9050
11435TIP3    H155720   1.911   3.422  15.307 -0.6744 -0.3192 -0.7202
11435TIP3    H255721   1.790   3.473  15.383 -0.2048 -0.1659 -0.0687
11436TIP3   OH255722   3.611   4.663   1.201 -0.0870 -0.1509 -0.0403
11436TIP3    H155723   3.686   4.604   1.194 -0.0071  0.0899 -1.3536
11436TIP3    H255724   3.640   4.743   1.159 -1.1435 -0.1111 -0.7133
11437TIP3   OH255725   4.246   1.245   4.933 -0.0942 -0.4342  0.6174
11437TIP3    H155726   4.286   1.256   5.019  0.1988 -0.4179  0.4785
11437TIP3    H255727   4.255   1.331   4.891  0.1465 -0.5606  0.4077
11438TIP3   OH255728   3.473   3.026  13.153 -0.3858 -0.3734 -0.6406
11438TIP3    H155729   3.525   3.091  13.104 -0.0054 -0.6583 -0.6242
11438TIP3    H255730   3.482   2.945  13.103  0.3165 -0.7643  0.0855
11439TIP3   OH255731   0.902   2.321   0.939  0.5962 -0.2508  0.2107
11439TIP3    H155732   0.898   2.383   1.012  2.6015 -0.0808  0.2279
11439TIP3    H255733   0.932   2.239   0.978  3.1673  0.2202 -0.5382
11440TIP3   OH255734   6.795   3.800  15.138 -0.3045 -0.5005 -0.1425
11440TIP3    H155735   6.739   3.757  15.073  0.1772 -1.5503  0.1064
11440TIP3    H255736   6.845   3.728  15.177  0.5523  0.3048  0.2794
11441TIP3   OH255737   1.934   1.602   4.690 -0.0009  0.1721  0.2483
11441TIP3    H155738   1.901   1.585   4.779 -1.2921 -1.9564 -0.5552
11441TIP3    H255739   2.011   1.545   4.682 -0.6877 -0.6900 -0.4171
11442TIP3   OH255740   3.095   0.363   5.081  0.1602  0.0370 -0.1637
11442TIP3    H155741   3.035   0.289   5.084 -0.5109  0.5924  0.8188
11442TIP3    H255742   3.131   0.362   4.993  0.4532 -1.6822 -0.0562
11443TIP3   OH255743   2.170   1.851  13.044  0.2086 -0.4870 -0.6043
11443TIP3    H155744   2.077   1.870  13.061 -0.0100  1.0688 -3.0630
11443TIP3    H255745   2.211   1.857  13.130 -1.6618  0.7610  0.2752
11444TIP3   OH255746   0.125   2.586  12.062  0.4531 -0.6956  0.1657
11444TIP3    H155747   0.217   2.608  12.051  0.3327 -0.5026 -0.5209
11444TIP3    H255748   0.081   2.631  11.989  0.1552 -2.9290 -1.1146
11445TIP3   OH255749   2.328   2.699   0.195  0.4121  0.1757  0.8100
11445TIP3    H155750   2.366   2.619   0.159  0.2463  1.5007 -2.6618
11445TIP3    H255751   2.277   2.669   0.271 -0.0278 -3.0652 -0.6053
11446TIP3   OH255752   1.120   5.263   0.420  0.0048 -0.7938  0.3936
11446TIP3    H155753   1.080   5.270   0.333  1.2710 -0.7652 -0.1996
11446TIP3    H255754   1.108   5.349   0.459  1.4254 -0.0778 -0.6618
11447TIP3   OH255755   0.025   6.425   4.296  0.2607 -0.6204  0.3086
11447TIP3    H155756   0.116   6.420   4.266  0.3987  0.6331  0.4389
11447TIP3    H255757  -0.005   6.511   4.266 -0.0451  0.0913  2.4663
11448TIP3   OH255758   2.776   6.250  13.246  0.2863 -0.0936 -0.0993
11448TIP3    H155759   2.802   6.238  13.337  2.7723  2.7451 -0.2693
11448TIP3    H255760   2.853   6.221  13.195  0.3622  1.6750 -1.0605
11449TIP3   OH255761   2.874   2.788   2.122 -0.0962  0.0051 -0.5473
11449TIP3    H155762   2.829   2.734   2.057  0.6421  1.0942 -2.0209
11449TIP3    H255763   2.889   2.729   2.195  0.2092 -1.6543 -1.8755
11450TIP3   OH255764   4.322   6.863  12.544  0.1357  0.0606  0.6386
11450TIP3    H155765   4.297   6.776  12.515  0.8993 -1.1099  3.2064
11450TIP3    H255766   4.416   6.868  12.529  0.6812 -0.8436  3.3135
11451TIP3   OH255767   1.100   4.613   2.634  0.0621  0.0473 -0.0814
11451TIP3    H155768   1.127   4.528   2.667  0.0944  1.0551  2.8360
11451TIP3    H255769   1.053   4.595   2.553 -0.0732 -2.7444  0.5435
11452TIP3   OH255770   1.492   6.150   0.807 -0.4130 -0.0421  0.1988
11452TIP3    H155771   1.555   6.158   0.879 -0.5229 -1.7771  0.5242
11452TIP3    H255772   1.415   6.110   0.847  0.0680 -2.5102 -1.1338
11453TIP3   OH255773   5.910   4.037  10.718  0.4308 -0.0377 -0.4365
11453TIP3    H155774   5.815   4.032  10.721  0.5069 -1.4665  1.6798
11453TIP3    H255775   5.934   4.002  10.632 -0.9090 -0.5501 -0.6124
11454TIP3   OH255776   4.181   3.933  15.523 -0.0754  0.5356  0.1806
11454TIP3    H155777   4.246   3.869  15.551 -1.5613 -0.9595  0.3647
11454TIP3    H255778   4.156   3.979  15.603  0.4201  0.8141  0.1810
11455TIP3   OH255779   0.668   2.953   0.648 -0.1308 -0.0419  0.0136
11455TIP3    H155780   0.581   2.954   0.687 -0.2565 -0.5346 -0.2403
11455TIP3    H255781   0.684   2.860   0.629 -1.0450  0.3451 -3.2271
11456TIP3   OH255782   1.812   4.297   3.887 -0.2528 -0.1759  0.1655
11456TIP3    H155783   1.763   4.219   3.863 -1.6966  0.9528 -0.7292
11456TIP3    H255784   1.768   4.330   3.966  0.7594 -0.5966  0.9295
11457TIP3   OH255785   3.330   5.974   3.851  0.5952 -0.0590  0.3115
11457TIP3    H155786   3.368   6.020   3.926  0.1083 -0.8592  1.0770
11457TIP3    H255787   3.245   5.943   3.883 -0.0529  0.4025 -0.8792
11458TIP3   OH255788   2.782   4.583   9.897 -0.0186 -0.0510 -0.1439
11458TIP3    H155789   2.727   4.640   9.951  4.2913  2.4657  2.1089
11458TIP3    H255790   2.757   4.606   9.807 -1.2784  2.4315  0.7225
11459TIP3   OH255791   1.536   0.868   0.806  0.0386 -0.7197 -0.0518
11459TIP3    H155792   1.586   0.811   0.865  2.5149  1.9819  0.6955
11459TIP3    H255793   1.447   0.865   0.840  0.8265 -1.4330  2.1290
11460TIP3   OH255794   4.600   1.114   4.141  0.3475 -0.8931 -0.1601
11460TIP3    H155795   4.627   1.030   4.103 -1.7493 -1.3933 -0.6982
11460TIP3    H255796   4.514   1.131   4.102  0.8818  1.7365 -0.3874
11461TIP3   OH255797   2.230   5.691   3.829 -0.1480 -0.0576 -0.0934
11461TIP3    H155798   2.252   5.640   3.907  1.4124 -1.5033 -1.4144
11461TIP3    H255799   2.232   5.782   3.859 -1.6722 -0.6510  2.0079
11462TIP3   OH255800   3.573   1.483   4.622  0.2160  0.0380 -0.6292
11462TIP3    H155801   3.511   1.490   4.549 -2.4460  1.8679  1.6170
11462TIP3    H255802   3.562   1.393   4.653 -0.2241 -0.1028 -1.1662
11463TIP3   OH255803   4.176   0.288   5.248  0.2309  0.1703  0.7416
11463TIP3    H155804   4.193   0.376   5.283  1.6562 -0.0216  0.5803
11463TIP3    H255805   4.167   0.233   5.326 -1.0069  0.4854  0.8528
11464TIP3   OH255806   4.703   5.975  12.053 -0.3602 -0.3541  0.2668
11464TIP3    H155807   4.736   5.952  12.140 -2.9541  3.0788  2.4052
11464TIP3    H255808   4.745   6.059  12.033 -0.7555 -0.4864 -1.2036
11465TIP3   OH255809   2.933   6.993   1.278 -0.2496  0.0166 -0.7728
11465TIP3    H155810   2.937   6.948   1.362 -0.6694 -0.3359 -0.9351
11465TIP3    H255811   2.950   7.085   1.299 -0.4448 -0.0545 -0.2863
11466TIP3   OH255812   1.775   1.524  13.549  0.4359 -0.1743 -0.1735
11466TIP3    H155813   1.827   1.473  13.611  1.0916  0.1266 -0.4636
11466TIP3    H255814   1.704   1.466  13.522  0.3958 -0.4547  0.5304
11467TIP3   OH255815   6.323   6.121   5.980 -0.4530 -0.0518 -0.3279
11467TIP3    H155816   6.286   6.204   6.010  0.5321 -0.1262  1.2488
11467TIP3    H255817   6.411   6.143   5.951  0.1243 -0.6332  0.8957
11468TIP3   OH255818   4.024   3.598   3.096  0.2223  0.2067  0.2119
11468TIP3    H155819   4.047   3.680   3.052  1.2993 -0.3711 -0.3407
11468TIP3    H255820   3.933   3.581   3.070 -0.2521  1.5832  0.9143
11469TIP3   OH255821   6.327   3.502   0.119 -0.2379  0.4373 -0.0796
11469TIP3    H155822   6.323   3.465   0.207 -1.6930 -1.4868 -0.8912
11469TIP3    H255823   6.395   3.451   0.075 -1.8262 -0.9118 -1.0288
11470TIP3   OH255824   0.021   3.324  14.540  0.0165  0.1367  0.0683
11470TIP3    H155825   0.011   3.303  14.633 -1.1987  0.0757 -0.0570
11470TIP3    H255826  -0.059   3.291  14.499 -0.1902  1.5478 -0.7536
11471TIP3   OH255827   1.726   5.956   4.804 -0.4602 -0.1531  0.5483
11471TIP3    H155828   1.672   6.013   4.859 -0.9322  0.8188 -0.8837
11471TIP3    H255829   1.666   5.920   4.739  0.2032 -0.8356  0.2914
11472TIP3   OH255830   2.108   1.024   0.270  0.2424 -0.3549  0.1786
11472TIP3    H155831   2.043   0.963   0.235  0.7934 -1.6046  1.2663
11472TIP3    H255832   2.130   0.989   0.356  0.3276  1.5911  0.9849
11473TIP3   OH255833   4.994   3.960   1.373 -1.0204 -0.5641  0.1330
11473TIP3    H155834   4.900   3.956   1.359 -1.4125  0.7764  2.0756
11473TIP3    H255835   5.024   4.033   1.318 -1.0920 -0.9727 -0.4608
11474TIP3   OH255836   6.613   1.306   1.257 -0.5143  1.1444 -0.0245
11474TIP3    H155837   6.709   1.305   1.256 -0.5110  1.1708 -1.1068
11474TIP3    H255838   6.589   1.224   1.301  0.0231  0.3425 -1.1617
11475TIP3   OH255839   1.864   4.111   2.078  0.3096 -0.4391 -0.6394
11475TIP3    H155840   1.902   4.027   2.105 -1.7179 -1.2000  0.0335
11475TIP3    H255841   1.898   4.174   2.141 -0.6215 -1.3569  0.8520
11476TIP3   OH255842   3.389   0.885   3.205 -0.1815 -0.2569 -0.2836
11476TIP3    H155843   3.366   0.797   3.236  1.1168 -1.1022 -1.6159
11476TIP3    H255844   3.407   0.934   3.285  1.1600 -1.8189  0.4338
11477TIP3   OH255845   4.499   0.157   0.499 -0.1308 -1.0054 -0.7419
11477TIP3    H155846   4.408   0.180   0.480  0.3239 -0.1614 -2.0224
11477TIP3    H255847   4.492   0.084   0.561 -1.6396  0.2606  0.6641
11478TIP3   OH255848   5.219   0.029   1.538 -0.9333 -0.0796 -0.3351
11478TIP3    H155849   5.208   0.122   1.518 -1.9000  0.2345  1.4249
11478TIP3    H255850   5.311   0.020   1.562 -0.9688  0.5798  0.0866
11479TIP3   OH255851   2.750   3.707   1.338 -0.2976 -0.0167 -0.3586
11479TIP3    H155852   2.777   3.623   1.377  0.5740  1.0190  1.3830
11479TIP3    H255853   2.655   3.707   1.346 -0.3526 -1.0277 -0.8081
11480TIP3   OH255854   1.396   4.824  11.182 -0.3062 -0.1714 -0.3619
11480TIP3    H155855   1.304   4.815  11.160 -0.4705  0.1557  0.1522
11480TIP3    H255856   1.433   4.879  11.112 -0.1969 -1.3882 -1.2841
11481TIP3   OH255857   1.640   2.014  12.781 -0.1362  0.0368 -0.5293
11481TIP3    H155858   1.654   2.102  12.816 -0.4765 -0.3118  0.5445
11481TIP3    H255859   1.649   1.957  12.857  0.1300 -0.8676 -1.2222
11482TIP3   OH255860   0.797   3.345  11.153 -0.9489 -0.1208 -0.1256
11482TIP3    H155861   0.782   3.334  11.247  1.4606  1.1192  0.4739
11482TIP3    H255862   0.760   3.266  11.113 -0.0123 -1.7512  2.0888
11483TIP3   OH255863   0.731   3.037  10.274 -0.0374  0.0189  0.5230
11483TIP3    H155864   0.770   2.961  10.317  0.6715  0.6789  1.0593
11483TIP3    H255865   0.676   2.999  10.205  1.5607 -0.9582 -0.2942
11484TIP3   OH255866   6.843   3.815   2.186 -0.0280 -0.2762 -0.3604
11484TIP3    H155867   6.822   3.909   2.186 -0.8215 -0.4362  0.4682
11484TIP3    H255868   6.825   3.787   2.276 -0.5439 -1.3800 -0.7970
11485TIP3   OH255869   5.103   4.390   4.847 -0.0170 -0.7713 -0.2146
11485TIP3    H155870   5.174   4.330   4.823  0.2534 -1.3893  1.8668
11485TIP3    H255871   5.146   4.458   4.899 -0.9969 -1.7273  1.9943
11486TIP3   OH255872   1.990   5.951  13.604  0.1929  0.1500  0.3478
11486TIP3    H155873   1.924   6.020  13.612  1.5892  1.7159 -0.9499
11486TIP3    H255874   2.057   5.975  13.669  1.8355  1.4850 -1.6953
11487TIP3   OH255875   0.206   3.539   2.617 -0.1455  0.2407 -0.4393
11487TIP3    H155876   0.261   3.590   2.676  2.3610 -2.4372 -0.2644
11487TIP3    H255877   0.220   3.579   2.531  0.5984  0.7248 -0.0999
11488TIP3   OH255878   6.424   1.046  13.843  0.1889 -0.2298  0.3091
11488TIP3    H155879   6.496   1.018  13.787 -0.8148 -1.2122 -0.5420
11488TIP3    H255880   6.397   0.967  13.889 -2.0714 -0.5624 -1.4070
11489TIP3   OH255881   3.679   2.169   2.791  0.8055  0.1353 -0.0943
11489TIP3    H155882   3.626   2.100   2.751  0.5427  0.7516 -0.8493
11489TIP3    H255883   3.749   2.185   2.727  1.0397  0.3479  0.2135
11490TIP3   OH255884   5.085   4.295  10.140  0.0860 -0.4324 -0.4370
11490TIP3    H155885   5.048   4.211  10.164 -1.0910  0.7443  2.1721
11490TIP3    H255886   5.014   4.341  10.096  0.3571 -0.3341 -0.7811
11491TIP3   OH255887   6.154   0.477   3.595 -0.0531  0.6165  0.0352
11491TIP3    H155888   6.161   0.383   3.611 -1.8054  0.5083  0.3675
11491TIP3    H255889   6.213   0.517   3.660  2.7281 -0.2714 -1.7677
11492TIP3   OH255890   3.599   5.827   0.903 -0.6193  0.0868  0.0477
11492TIP3    H155891   3.603   5.735   0.880  0.6068 -0.3807  1.9323
11492TIP3    H255892   3.672   5.840   0.964 -0.7104  2.3223 -0.2263
11493TIP3   OH255893   4.995   6.125   1.222  0.0984  0.3088 -0.6185
11493TIP3    H155894   5.028   6.139   1.311 -2.9561  0.1603  0.6439
11493TIP3    H255895   5.052   6.057   1.186  1.6469  0.6478  1.0282
11494TIP3   OH255896   6.659   0.134  10.830  0.0601  0.3668  0.0101
11494TIP3    H155897   6.627   0.147  10.741 -2.8888  0.7895  1.0101
11494TIP3    H255898   6.731   0.197  10.840 -0.8625  1.7374 -1.4911
11495TIP3   OH255899   7.007   4.968   2.060 -0.2502 -0.8225  0.2818
11495TIP3    H155900   6.940   4.902   2.075 -1.2465  0.3750  1.2932
11495TIP3    H255901   6.964   5.034   2.006  0.8858 -1.2164 -1.1480
11496TIP3   OH255902   6.668   0.113   4.520 -0.5287  0.2337  0.2579
11496TIP3    H155903   6.578   0.122   4.489 -1.4747 -2.4905  1.8248
11496TIP3    H255904   6.666   0.146   4.610 -0.1087 -0.2891  0.4666
11497TIP3   OH255905   1.145   2.456  11.176 -0.0983 -0.1878 -0.1387
11497TIP3    H155906   1.229   2.464  11.221  1.0611  1.1379 -2.3583
11497TIP3    H255907   1.112   2.546  11.170 -1.4159 -0.6269  0.1875
11498TIP3   OH255908   5.140   5.429  15.230 -0.0371 -0.4078 -0.1066
11498TIP3    H155909   5.050   5.407  15.257 -0.2301 -2.6934 -2.2640
11498TIP3    H255910   5.129   5.497  15.164 -0.1315 -0.3022  0.0166
11499TIP3   OH255911   0.100   6.843   2.668  0.1663  0.4142  0.0043
11499TIP3    H155912   0.167   6.909   2.683  0.0093  0.5209  0.2501
11499TIP3    H255913   0.148   6.762   2.651  0.3513  0.3403  0.8677
11500TIP3   OH255914   1.139   2.719   4.551  0.2191  0.0336 -0.3062
11500TIP3    H155915   1.224   2.675   4.555  0.9137  1.4166  1.1338
11500TIP3    H255916   1.138   2.760   4.464  1.0820  0.1065 -0.2916
11501TIP3   OH255917   6.497   3.818  12.302  0.3779 -0.4843 -0.1764
11501TIP3    H155918   6.520   3.810  12.209 -0.4959 -1.8355 -0.2943
11501TIP3    H255919   6.577   3.850  12.344  0.5149  1.0903 -1.5125
11502TIP3   OH255920   1.582   7.111   0.808  0.1722 -0.2423 -0.6251
11502TIP3    H155921   1.522   7.090   0.737 -0.7311 -0.2697  0.1326
11502TIP3    H255922   1.550   7.194   0.844 -0.2572 -0.9356  0.6688
11503TIP3   OH255923   5.006   4.829  11.269 -0.8316 -0.1197 -0.0289
11503TIP3    H155924   5.004   4.734  11.259 -0.6004 -0.0303 -1.1436
11503TIP3    H255925   5.097   4.848  11.292 -1.0925 -0.2344  1.1354
11504TIP3   OH255926   5.211   3.550  11.245 -0.2350 -0.0568  0.2848
11504TIP3    H155927   5.277   3.541  11.176 -1.7004 -0.0055 -1.1832
11504TIP3    H255928   5.261   3.576  11.323  1.1559  3.0066 -1.4680
11505TIP3   OH255929   7.028   6.601   4.691  0.4558 -0.3817  0.9322
11505TIP3    H155930   6.972   6.646   4.754  0.5975 -0.7005  1.2862
11505TIP3    H255931   7.089   6.669   4.661  1.1982 -0.5152  2.0735
11506TIP3   OH255932   4.032   4.942  10.215  0.1013 -0.0579 -0.1297
11506TIP3    H155933   4.126   4.941  10.233  0.2033  0.3746 -0.6026
11506TIP3    H255934   4.009   4.850  10.205  0.8282 -0.1079 -1.6998
11507TIP3   OH255935   0.378   0.738  14.538  0.2949  0.6164 -0.4581
11507TIP3    H155936   0.316   0.674  14.574  0.9004 -0.6555 -1.6064
11507TIP3    H255937   0.329   0.783  14.468 -0.2394  1.7027  0.5667
11508TIP3   OH255938   4.411   5.332   5.353  0.1035  0.5606  0.3710
11508TIP3    H155939   4.438   5.279   5.428  1.4382  1.8417  0.8574
11508TIP3    H255940   4.479   5.400   5.347 -0.9358  1.5284 -0.9139
11509TIP3   OH255941   5.296   2.315  15.429  0.1340 -0.1023 -0.3382
11509TIP3    H155942   5.214   2.319  15.479  1.9588 -2.0374  3.1896
11509TIP3    H255943   5.350   2.384  15.467  1.2274 -0.9275 -0.3543
11510TIP3   OH255944   1.816   3.335   4.822 -0.3858 -0.7453  0.6192
11510TIP3    H155945   1.865   3.416   4.839  0.6281 -0.9579 -1.0794
11510TIP3    H255946   1.852   3.272   4.885 -0.3057 -0.2102  1.1186
11511TIP3   OH255947   1.716   0.748  11.060  0.4312  0.1680 -0.7159
11511TIP3    H155948   1.650   0.764  10.992 -1.4688 -0.5931  0.8385
11511TIP3    H255949   1.738   0.656  11.051  0.0223  0.0144 -0.2085
11512TIP3   OH255950   2.525   3.948  11.331 -0.5576 -1.1655  0.4641
11512TIP3    H155951   2.506   3.858  11.355 -0.4314 -0.8540  1.7786
11512TIP3    H255952   2.442   3.994  11.342 -1.1417 -1.4630 -2.1001
11513TIP3   OH255953   4.447   6.893   4.709 -0.4949  0.1178  0.1694
11513TIP3    H155954   4.353   6.894   4.730 -0.7748 -0.7891 -0.9394
11513TIP3    H255955   4.475   6.984   4.723 -1.6574  0.5195  0.0358
11514TIP3   OH255956   4.889   0.303  14.445 -0.0661 -0.6715 -0.5545
11514TIP3    H155957   4.931   0.363  14.384 -2.5084  0.1469 -1.5728
11514TIP3    H255958   4.890   0.349  14.529  0.4726 -0.4006 -0.7067
11515TIP3   OH255959   4.780   1.483  10.321 -0.1685 -0.1940  0.3796
11515TIP3    H155960   4.726   1.562  10.315  0.8391  0.3931 -1.8895
11515TIP3    H255961   4.847   1.494  10.254  0.9984 -2.2591  1.1079
11516TIP3   OH255962   3.546   2.806   3.994 -0.1891  0.8439 -1.1574
11516TIP3    H155963   3.549   2.886   3.941  0.8508  1.1215 -0.7052
11516TIP3    H255964   3.609   2.747   3.953  3.0174  2.1568  1.3796
11517TIP3   OH255965   3.798   1.010   1.737  0.0407  0.0486 -0.2079
11517TIP3    H155966   3.779   1.040   1.649  0.2470  4.6645  1.0617
11517TIP3    H255967   3.713   1.009   1.781 -0.0174 -1.9218 -0.2729
11518TIP3   OH255968   5.378   6.916  10.139  0.1478  0.3533 -0.4200
11518TIP3    H155969   5.381   6.892  10.232  0.4332  0.1298 -0.4848
11518TIP3    H255970   5.437   6.853  10.096  1.9278  1.9420 -0.4433
11519TIP3   OH255971   2.202   2.436  15.354 -0.0209 -0.2933  1.0286
11519TIP3    H155972   2.171   2.505  15.295 -0.0620 -1.7484 -0.7511
11519TIP3    H255973   2.123   2.391  15.382  0.1478 -1.8573 -0.7766
11520TIP3   OH255974   5.241   3.447  10.016  0.5007  0.4570  0.0778
11520TIP3    H155975   5.316   3.468   9.962  1.3986 -0.4691  0.9147
11520TIP3    H255976   5.233   3.352  10.010 -1.3229  0.6363 -0.8964
11521TIP3   OH255977   6.982   0.303   3.248  0.1729  0.1857 -0.1484
11521TIP3    H155978   6.947   0.385   3.283 -0.9183 -0.4882  0.3765
11521TIP3    H255979   7.075   0.321   3.232 -0.4373  2.1645 -1.9920
11522TIP3   OH255980   4.954   6.445   0.145 -0.1985  0.0252 -0.3003
11522TIP3    H155981   4.883   6.431   0.083  0.4710  0.5033 -1.1935
11522TIP3    H255982   5.032   6.411   0.101 -0.0404 -1.7569  1.2014
11523TIP3   OH255983   5.621   6.538   2.979 -0.2650 -0.6828 -0.2890
11523TIP3    H155984   5.697   6.588   3.010 -0.5927  0.0432 -0.6395
11523TIP3    H255985   5.608   6.470   3.046 -1.1278  1.0326  1.3624
11524TIP3   OH255986   0.668   1.352   1.302 -0.6140 -0.0030  0.4190
11524TIP3    H155987   0.704   1.409   1.234  0.5737  0.1036  1.1105
11524TIP3    H255988   0.743   1.302   1.334 -1.3396 -0.7854  0.9594
11525TIP3   OH255989   5.526   3.299  12.293 -0.2322  0.2047 -0.1879
11525TIP3    H155990   5.466   3.322  12.222  1.0178 -3.2785 -2.6750
11525TIP3    H255991   5.612   3.326  12.261  0.2266 -0.5364  0.3865
11526TIP3   OH255992   2.694   4.626   2.350  0.2549 -0.3561  0.2683
11526TIP3    H155993   2.726   4.607   2.438  0.6002  2.0182  0.7193
11526TIP3    H255994   2.764   4.679   2.310 -2.0129  3.0660  0.4723
11527TIP3   OH255995   5.069   4.007  14.819 -0.4967 -0.0006  0.6339
11527TIP3    H155996   5.135   3.952  14.777  1.1216  1.5542  1.0308
11527TIP3    H255997   5.035   3.953  14.891  0.3386 -0.8269  0.4276
11528TIP3   OH255998   5.620   5.654   0.335  0.2418  0.1258 -0.2661
11528TIP3    H155999   5.528   5.631   0.342  0.8299 -3.4106 -2.1345
11528TIP3    H256000   5.667   5.579   0.372  2.3672  0.5290 -1.9454
11529TIP3   OH256001   7.131   5.064  12.700 -0.1178  0.0652 -0.4018
11529TIP3    H156002   7.057   5.006  12.684  0.8951 -1.5468  0.3751
11529TIP3    H256003   7.196   5.038  12.634  1.0988 -1.1742  1.1655
11530TIP3   OH256004   2.879   1.345   1.284 -0.2221  0.3126 -0.2813
11530TIP3    H156005   2.892   1.326   1.191 -1.6661  0.7374 -0.5955
11530TIP3    H256006   2.785   1.358   1.292 -0.1265  0.1760  1.2717
11531TIP3   OH256007   6.891   5.154  10.652 -0.6333 -0.0312  0.8292
11531TIP3    H156008   6.810   5.187  10.613  0.2783  1.9601  0.4961
11531TIP3    H256009   6.935   5.232  10.687  0.0515 -1.3357  3.1279
11532TIP3   OH256010   0.810   6.896  10.704  0.3935 -0.0366  1.0085
11532TIP3    H156011   0.850   6.809  10.694  2.1956  0.6689  1.8624
11532TIP3    H256012   0.785   6.900  10.796  0.8127  0.5663  1.0945
11533TIP3   OH256013   0.451   2.097   2.106 -0.0137  0.5219 -0.3748
11533TIP3    H156014   0.358   2.074   2.112 -0.2675  1.4302 -0.6749
11533TIP3    H256015   0.453   2.191   2.121  0.9923  0.3440  0.7180
11534TIP3   OH256016   1.195   6.427   0.518  0.0263 -0.2260  0.4054
11534TIP3    H156017   1.201   6.481   0.596  0.7176  0.1096  0.1244
11534TIP3    H256018   1.107   6.443   0.485  0.6374  1.7766 -0.4069
11535TIP3   OH256019   6.731   2.881   9.635 -0.0121 -0.7236 -0.2753
11535TIP3    H156020   6.645   2.918   9.652  0.2515 -0.2001 -0.0725
11535TIP3    H256021   6.779   2.891   9.717  0.8849  0.7698 -0.9460
11536TIP3   OH256022   2.354   4.717  15.374  0.3054 -0.3364  0.3388
11536TIP3    H156023   2.330   4.750  15.287 -0.9069 -1.5692  0.1662
11536TIP3    H256024   2.447   4.738  15.382  0.2076  0.6887 -0.8439
11537TIP3   OH256025   6.564   1.920  10.794  0.1479 -0.3716 -0.0321
11537TIP3    H156026   6.542   1.886  10.707 -0.2206 -0.8324  0.2370
11537TIP3    H256027   6.505   1.994  10.807  0.9415  0.3962 -0.6131
11538TIP3   OH256028   4.488   6.340   1.499 -0.3317  0.5177  0.3215
11538TIP3    H156029   4.430   6.280   1.452  0.4162  0.4583 -0.5644
11538TIP3    H256030   4.563   6.352   1.440  1.1726 -0.4022  1.9355
11539TIP3   OH256031   7.074   3.227  12.140 -0.6354 -0.5091 -0.2822
11539TIP3    H156032   7.043   3.317  12.149  0.0197 -0.0378 -2.2687
11539TIP3    H256033   7.123   3.211  12.220 -0.4400  1.0302 -0.0603
11540TIP3   OH256034   1.933   1.876  11.791  0.7570  0.4209  0.1345
11540TIP3    H156035   1.842   1.854  11.809  0.6876  0.7166  0.1412
11540TIP3    H256036   1.960   1.929  11.866  1.4570 -1.0914  1.0127
11541TIP3   OH256037   6.986   2.588  14.574 -0.2399  0.2407  0.3331
11541TIP3    H156038   6.950   2.578  14.486  0.2358  0.0999  0.1508
11541TIP3    H256039   7.080   2.603  14.560  0.4901 -2.9085  0.8888
11542TIP3   OH256040   0.632   5.687  10.581  0.1539 -0.4752 -0.1041
11542TIP3    H156041   0.660   5.600  10.553 -0.6367 -0.6331 -0.4434
11542TIP3    H256042   0.642   5.742  10.503 -1.7206 -0.8381 -0.6575
11543TIP3   OH256043   2.100   0.764  14.476  0.5425 -0.2200 -0.4767
11543TIP3    H156044   2.121   0.678  14.438 -0.0818 -0.6955  0.2168
11543TIP3    H256045   2.185   0.805  14.491  0.8261 -0.3553 -1.6027
11544TIP3   OH256046   0.622   3.147   3.837 -0.4859 -0.1382 -0.3221
11544TIP3    H156047   0.563   3.072   3.835  0.6713 -1.1221  0.8796
11544TIP3    H256048   0.649   3.159   3.746 -0.2740 -1.5329 -0.4603
11545TIP3   OH256049   4.117   7.080   2.663  0.0464 -0.1542 -0.5073
11545TIP3    H156050   4.107   7.010   2.727  3.2929  0.0906  0.4463
11545TIP3    H256051   4.056   7.148   2.693  0.0027 -0.8632  1.1428
11546TIP3   OH256052   3.818   5.189   1.164  0.5749 -0.0470 -0.1718
11546TIP3    H156053   3.829   5.166   1.256  0.5812 -1.9930 -0.6212
11546TIP3    H256054   3.879   5.262   1.150  0.9011 -0.0224  1.2557
11547TIP3   OH256055   0.950   3.659   2.398  0.0636 -0.0497 -0.0815
11547TIP3    H156056   1.006   3.734   2.419  0.3702 -0.0282 -0.9606
11547TIP3    H256057   0.871   3.673   2.451  0.4257  0.4971  0.3286
11548TIP3   OH256058   1.154   0.456   2.200 -0.0468  0.2202 -0.0412
11548TIP3    H156059   1.173   0.488   2.288  1.4615  0.5073 -0.4527
11548TIP3    H256060   1.238   0.459   2.154 -0.5373 -1.1766 -1.0985
11549TIP3   OH256061   6.029   2.048  12.181 -0.4552 -0.1823 -0.0829
11549TIP3    H156062   6.075   2.022  12.261  0.3848  1.1470 -0.1115
11549TIP3    H256063   6.094   2.040  12.112 -0.5865  0.6001 -0.3091
11550TIP3   OH256064   4.224   0.666   5.005  0.2343  0.1100 -0.0341
11550TIP3    H156065   4.301   0.701   4.959  2.4771 -0.9202  2.6045
11550TIP3    H256066   4.218   0.575   4.976  1.4192 -0.4294  1.2498
11551TIP3   OH256067   1.338   4.685   5.507  0.3764  0.8236  0.2450
11551TIP3    H156068   1.250   4.687   5.543  0.0840  2.8681 -0.4415
11551TIP3    H256069   1.327   4.704   5.414  1.4198 -0.7287 -0.2444
11552TIP3   OH256070   5.234   4.826   0.981  0.2808  0.2359  0.0337
11552TIP3    H156071   5.262   4.863   0.898  0.6023  0.9777  0.4615
11552TIP3    H256072   5.208   4.736   0.960  0.1803  0.4697 -0.8931
11553TIP3   OH256073   0.126   2.523   2.501 -0.6092  0.3408  0.1683
11553TIP3    H156074   0.053   2.521   2.564 -0.4506 -0.2768  0.3343
11553TIP3    H256075   0.181   2.449   2.526 -0.5005  0.1443 -0.6459
11554TIP3   OH256076   3.066   2.723   1.292  0.0818 -0.1521  0.1042
11554TIP3    H156077   2.994   2.666   1.317 -1.0532  0.7784 -0.9150
11554TIP3    H256078   3.133   2.663   1.258 -0.0868 -1.0497  1.2865
11555TIP3   OH256079   2.299   1.168   0.877 -0.3077  0.3824 -0.1181
11555TIP3    H156080   2.389   1.193   0.854  0.2149 -0.6610  0.6838
11555TIP3    H256081   2.278   1.222   0.953 -0.0886  0.1468  0.1150
11556TIP3   OH256082   2.247   3.970  15.550  0.1368  0.1662 -0.2001
11556TIP3    H156083   2.328   3.948  15.597 -0.3569 -1.6417 -0.1055
11556TIP3    H256084   2.196   4.022  15.613  0.4257 -0.3317  0.4581
11557TIP3   OH256085   3.117   0.626   5.029  0.0073 -0.1334 -0.1559
11557TIP3    H156086   3.170   0.590   4.958 -0.6857  0.3060 -0.9292
11557TIP3    H256087   3.083   0.550   5.075 -0.4990 -0.4606 -1.0506
11558TIP3   OH256088   5.965   2.664  12.578  0.4609 -0.6930 -0.1516
11558TIP3    H156089   6.043   2.667  12.523  0.9657 -0.8412  0.5421
11558TIP3    H256090   5.904   2.725  12.536  1.4718  0.5401  0.0928
11559TIP3   OH256091   3.571   3.584   1.191  0.4481 -0.1052 -0.1588
11559TIP3    H156092   3.626   3.543   1.124  1.3156  0.6227  0.0809
11559TIP3    H256093   3.502   3.520   1.208  0.0480 -0.1902 -1.9309
11560TIP3   OH256094   0.471   3.890  15.226  0.1641  0.0372  0.2670
11560TIP3    H156095   0.488   3.930  15.141 -0.6435 -0.3647 -0.0878
11560TIP3    H256096   0.516   3.806  15.222 -2.6457 -1.5138 -1.0834
11561TIP3   OH256097   6.460   3.734   2.560  0.1340  0.6845 -0.3685
11561TIP3    H156098   6.481   3.826   2.573 -0.6913  0.6521  1.7210
11561TIP3    H256099   6.413   3.709   2.640  1.8329 -2.0018 -0.0608
11562TIP3   OH256100   0.125   5.375  13.100  0.5978  0.9384  0.4114
11562TIP3    H156101   0.195   5.381  13.165  0.4644 -0.2637  0.6982
11562TIP3    H256102   0.091   5.286  13.110 -0.2213  1.1311 -0.4969
11563TIP3   OH256103   2.975   3.147   3.871 -0.1996  0.3669 -0.7031
11563TIP3    H156104   2.901   3.143   3.933  0.3659 -0.6734 -0.0600
11563TIP3    H256105   2.940   3.192   3.795 -0.5520  2.9720  0.8661
11564TIP3   OH256106   4.744   1.321   3.530 -0.4371 -0.5557  0.0403
11564TIP3    H156107   4.733   1.274   3.447 -0.9465 -0.3339 -0.0189
11564TIP3    H256108   4.804   1.393   3.509 -1.4165  0.1554 -0.4028
11565TIP3   OH256109   6.629   1.277  10.619  0.1154 -0.3736 -0.6317
11565TIP3    H156110   6.538   1.292  10.647  0.3551 -1.1748  0.7037
11565TIP3    H256111   6.654   1.357  10.574 -0.7451  0.4952  0.3727
11566TIP3   OH256112   2.410   3.850   2.824 -0.3516  0.1628 -0.4850
11566TIP3    H156113   2.432   3.842   2.732 -0.2637  0.0893 -0.4572
11566TIP3    H256114   2.376   3.940   2.833  0.9953  0.6650 -0.2969
11567TIP3   OH256115   1.861   4.190   3.398  0.4966  0.2142 -0.7474
11567TIP3    H156116   1.771   4.175   3.428  1.3223  0.0119  1.8846
11567TIP3    H256117   1.859   4.279   3.361 -0.1381  1.7481  2.5593
11568TIP3   OH256118   5.372   3.070  10.469 -0.1447 -0.2546  0.0362
11568TIP3    H156119   5.291   3.021  10.459 -0.0681 -0.4351  0.2673
11568TIP3    H256120   5.383   3.116  10.386 -0.9029  0.4088  0.2921
11569TIP3   OH256121   5.179   2.822   0.230  0.4108 -0.3652 -0.1134
11569TIP3    H156122   5.087   2.808   0.206  0.0267  0.4211  0.8452
11569TIP3    H256123   5.178   2.829   0.325  1.3839  0.3017 -0.1394
11570TIP3   OH256124   5.698   1.715   0.112 -0.4765 -0.0508  0.0184
11570TIP3    H156125   5.626   1.770   0.144 -2.0854 -1.2569 -1.2886
11570TIP3    H256126   5.726   1.757   0.031 -0.0252  0.1712  0.2909
11571TIP3   OH256127   0.765   0.528  11.006 -0.2036 -0.8204 -0.3726
11571TIP3    H156128   0.707   0.567  11.071 -0.7606 -2.0490 -0.0891
11571TIP3    H256129   0.707   0.473  10.953  0.3024 -0.0667 -1.7187
11572TIP3   OH256130   0.657   7.019   4.472  0.2231 -0.3012  0.2319
11572TIP3    H156131   0.645   6.957   4.544 -3.1799  1.0389  0.9828
11572TIP3    H256132   0.595   6.990   4.405  0.8247  0.5249 -0.7134
11573TIP3   OH256133   6.766   2.196   2.859  0.6932  0.4213 -0.3073
11573TIP3    H156134   6.855   2.205   2.827  0.7997 -0.0310 -0.1394
11573TIP3    H256135   6.724   2.279   2.837  1.4045  0.9870  0.3953
11574TIP3   OH256136   5.140   6.575   2.578 -0.3790 -0.6204 -0.1627
11574TIP3    H156137   5.188   6.656   2.562  2.6211 -2.1301  0.6008
11574TIP3    H256138   5.116   6.544   2.490 -0.2545  0.2966 -0.5345
11575TIP3   OH256139   3.575   0.495  12.923 -0.2345  0.2840 -0.7222
11575TIP3    H156140   3.566   0.436  12.998 -0.2374  0.2464 -0.7525
11575TIP3    H256141   3.539   0.446  12.849 -1.5040  0.8382 -0.4866
11576TIP3   OH256142   0.425   6.964   2.526 -0.6173  0.4487  0.4180
11576TIP3    H156143   0.455   7.021   2.597  1.4787 -0.7450  0.5419
11576TIP3    H256144   0.429   6.876   2.562  0.9061 -0.2349 -1.2610
11577TIP3   OH256145   3.335   0.323   4.510  0.3429  0.2699 -0.1639
11577TIP3    H156146   3.420   0.369   4.508 -0.5151  1.9386 -0.1687
11577TIP3    H256147   3.317   0.312   4.604  2.0282 -3.0770 -0.0933
11578TIP3   OH256148   0.672   3.693   1.533  0.3885  0.3474 -0.4686
11578TIP3    H156149   0.721   3.715   1.613 -0.2231 -0.1275  0.0508
11578TIP3    H256150   0.647   3.778   1.497  2.2876  0.6379 -1.2088
11579TIP3   OH256151   0.255   6.588   0.182 -0.1043  0.3370  0.2280
11579TIP3    H156152   0.166   6.586   0.216  0.4879 -0.0472  1.8534
11579TIP3    H256153   0.268   6.501   0.144 -0.7635  0.7596 -0.9992
11580TIP3   OH256154   2.783   2.459   0.276 -0.3174 -0.0872  0.2298
11580TIP3    H156155   2.807   2.519   0.206  1.2382  1.6268  2.1117
11580TIP3    H256156   2.860   2.403   0.287 -0.7489 -0.6890  0.2628
11581TIP3   OH256157   3.551   3.441   0.574  0.3456  0.2382 -0.4934
11581TIP3    H156158   3.556   3.481   0.661 -0.5993  2.9009 -1.5652
11581TIP3    H256159   3.631   3.389   0.567  0.4861  0.0110  1.8977
11582TIP3   OH256160   3.691   5.755  12.325 -0.1810 -0.5689 -0.3200
11582TIP3    H156161   3.785   5.741  12.316  0.3295  2.4853 -1.0063
11582TIP3    H256162   3.655   5.732  12.239  0.3248  0.4927 -0.8317
11583TIP3   OH256163   6.522   0.248  12.818 -0.6172 -0.5257 -0.2403
11583TIP3    H156164   6.452   0.234  12.754  0.0792 -0.8872 -0.9432
11583TIP3    H256165   6.600   0.260  12.765 -0.3004  0.8467  0.5119
11584TIP3   OH256166   1.913   4.043  13.847 -0.4467 -0.2679 -0.6058
11584TIP3    H156167   1.851   4.068  13.915 -0.8747 -2.8658  0.0534
11584TIP3    H256168   1.998   4.072  13.880 -0.9572  0.9386 -0.2821
11585TIP3   OH256169   5.398   5.008   4.416  0.0090  0.3371  0.3471
11585TIP3    H156170   5.424   5.006   4.508 -0.5360  1.0960  0.5217
11585TIP3    H256171   5.354   4.924   4.401  0.5763 -0.0177  0.6243
11586TIP3   OH256172   7.068   4.885  13.880  0.1708  0.0609 -0.2896
11586TIP3    H156173   7.021   4.965  13.857  0.7588  0.1097 -1.3846
11586TIP3    H256174   7.003   4.829  13.922 -0.1740  1.2319  0.7891
11587TIP3   OH256175   0.758   2.227  13.564  0.3853  0.4675 -0.9794
11587TIP3    H156176   0.684   2.166  13.564  0.8729 -0.1491 -0.1884
11587TIP3    H256177   0.835   2.171  13.555  0.7171  1.2137 -3.2919
11588TIP3   OH256178   6.128   3.531  15.564  0.4781  0.5301  0.1061
11588TIP3    H156179   6.153   3.523  15.656  1.9919 -1.9284 -0.4276
11588TIP3    H256180   6.208   3.560  15.520  0.0176  0.7986 -0.5674
11589TIP3   OH256181   5.407   0.681   1.598 -0.4041 -0.1457  1.0263
11589TIP3    H156182   5.358   0.727   1.530  0.3440  2.1240  1.9630
11589TIP3    H256183   5.498   0.681   1.567 -0.3338 -0.7197  1.2097
11590TIP3   OH256184   5.578   1.736   4.097 -0.0292  0.0785  0.0117
11590TIP3    H156185   5.672   1.717   4.105  0.0612 -0.0233 -1.1807
11590TIP3    H256186   5.572   1.831   4.097  0.5794  0.3140 -4.2846
11591TIP3   OH256187   5.201   4.594  15.284  0.2102  0.3261 -0.3244
11591TIP3    H156188   5.152   4.671  15.313  0.2769  0.4327 -0.4936
11591TIP3    H256189   5.248   4.623  15.206 -0.8719 -0.2657 -1.2288
11592TIP3   OH256190   0.205   0.451   1.442  0.1361 -0.1337 -0.2150
11592TIP3    H156191   0.274   0.394   1.477  1.1264  1.7568  1.0988
11592TIP3    H256192   0.238   0.478   1.356  0.8659  0.4405  0.2357
11593TIP3   OH256193   6.474   3.184   1.012 -0.1313  0.3034  0.3856
11593TIP3    H156194   6.536   3.153   0.946 -0.9969 -0.7398  0.0481
11593TIP3    H256195   6.393   3.199   0.964 -0.4279  0.6760  1.0016
11594TIP3   OH256196   6.401   4.899  10.121 -0.5114 -0.1572 -0.2787
11594TIP3    H156197   6.455   4.965  10.077  2.1747 -1.2569  1.1249
11594TIP3    H256198   6.339   4.950  10.173  0.4990  1.2480 -0.3856
11595TIP3   OH256199   5.334   4.240  15.033  0.0863  0.2521 -0.3537
11595TIP3    H156200   5.425   4.270  15.032  0.4418 -0.7656 -1.2955
11595TIP3    H256201   5.320   4.210  15.123  1.2778 -1.1776 -0.5871
11596TIP3   OH256202   4.278   4.405   1.069 -0.0689  0.0224  0.0283
11596TIP3    H156203   4.236   4.484   1.103 -1.7478 -0.5900 -0.5321
11596TIP3    H256204   4.349   4.387   1.130 -0.8444  0.9060  1.2328
11597TIP3   OH256205   2.217   0.517   1.026 -0.0594  0.4253  0.3191
11597TIP3    H156206   2.287   0.458   0.998 -2.0958 -2.6507  1.2072
11597TIP3    H256207   2.187   0.482   1.109 -2.2867  1.9387  0.2633
11598TIP3   OH256208   1.225   1.315   3.495 -0.0052 -0.4109 -0.2156
11598TIP3    H156209   1.263   1.350   3.415 -3.0501  0.6356 -1.3695
11598TIP3    H256210   1.228   1.220   3.483  0.8647 -0.3122 -0.8879
11599TIP3   OH256211   5.433   6.244  15.340 -0.7714  0.1717  0.4378
11599TIP3    H156212   5.514   6.282  15.307 -0.2532 -0.7719  0.6045
11599TIP3    H256213   5.372   6.252  15.266 -0.1754 -0.2005 -0.1100
11600TIP3   OH256214   6.438   3.774  13.307 -0.6615 -0.0675  0.4522
11600TIP3    H156215   6.498   3.704  13.331 -0.4857  0.0508  0.3585
11600TIP3    H256216   6.360   3.729  13.273 -1.2988 -0.2689  2.0906
11601TIP3   OH256217   6.916   6.254   0.892  0.4249 -0.3403 -0.5994
11601TIP3    H156218   6.871   6.177   0.928 -0.2697 -0.4638 -1.6734
11601TIP3    H256219   6.910   6.319   0.961  1.8478 -1.5222  0.7069
11602TIP3   OH256220   1.632   1.313  10.490  0.3519 -0.3437  0.0424
11602TIP3    H156221   1.653   1.364  10.412  1.0195 -0.3248  0.2268
11602TIP3    H256222   1.681   1.231  10.479  0.4892 -0.3192  0.4628
11603TIP3   OH256223   6.418   4.841   5.106 -0.2464 -0.3937  0.0809
11603TIP3    H156224   6.479   4.768   5.105  0.7297  0.3485  1.4185
11603TIP3    H256225   6.381   4.840   5.195 -0.3180  0.6438  0.0771
11604TIP3   OH256226   1.663   3.018  11.842  0.0700  0.2510  0.2001
11604TIP3    H156227   1.724   3.049  11.776 -1.2814  1.1258 -0.6970
11604TIP3    H256228   1.576   3.031  11.803 -0.7060 -0.8971  1.4347
11605TIP3   OH256229   2.272   5.200   1.518 -0.1213  0.1238  0.4335
11605TIP3    H156230   2.313   5.129   1.568 -0.0857 -0.2183 -0.0740
11605TIP3    H256231   2.345   5.251   1.483 -0.1484  0.7679  1.2860
11606TIP3   OH256232   1.583   6.319   3.420 -0.3047  0.1061 -0.2184
11606TIP3    H156233   1.662   6.356   3.381  0.3771 -1.3240 -0.2414
11606TIP3    H256234   1.615   6.258   3.486 -1.4025 -0.0512  0.1852
11607TIP3   OH256235   1.813   4.749  13.851 -0.6741 -0.1060  0.5532
11607TIP3    H156236   1.862   4.667  13.855  2.4015  1.6139  1.2623
11607TIP3    H256237   1.832   4.784  13.764 -1.3026  0.2474  0.5501
11608TIP3   OH256238   7.055   4.700   2.515 -0.4565 -0.5477 -0.4999
11608TIP3    H156239   6.987   4.643   2.550 -1.1939  0.5074 -0.1587
11608TIP3    H256240   7.120   4.706   2.584  0.2437 -1.9310 -1.0008
11609TIP3   OH256241   3.090   4.178  14.398 -0.0742  0.0256 -0.3237
11609TIP3    H156242   3.058   4.121  14.328 -0.4036  0.7005 -0.7278
11609TIP3    H256243   3.070   4.129  14.478 -1.9282  0.2946 -0.5681
11610TIP3   OH256244   5.808   2.635  14.572 -0.3603  0.4640  0.2151
11610TIP3    H156245   5.750   2.585  14.515  1.8476 -0.2345 -1.5635
11610TIP3    H256246   5.834   2.711  14.519 -0.6950  1.5018  1.4875
11611TIP3   OH256247   6.231   3.801  11.986 -0.2147  0.2479 -0.2164
11611TIP3    H156248   6.309   3.749  11.967 -0.0902 -0.1390  1.2677
11611TIP3    H256249   6.226   3.862  11.913 -0.3177 -1.7472 -1.9880
11612TIP3   OH256250   1.832   0.924   5.132  0.0149 -0.1666 -0.2321
11612TIP3    H156251   1.910   0.873   5.151  0.6488  1.4468  1.8776
11612TIP3    H256252   1.858   1.015   5.148 -1.8049  0.5897 -1.2171
11613TIP3   OH256253   3.431   6.894   6.070  0.3007  0.2044  0.0903
11613TIP3    H156254   3.437   6.822   6.133 -1.3858  1.5110  1.8693
11613TIP3    H256255   3.469   6.969   6.116  0.0808  0.9422 -0.9112
11614TIP3   OH256256   5.342   6.742   2.451 -0.0758 -0.5439  0.1681
11614TIP3    H156257   5.281   6.753   2.378  0.4365  0.3726 -0.1276
11614TIP3    H256258   5.345   6.828   2.493  1.4555 -0.4081 -0.1660
11615TIP3   OH256259   2.260   5.281   3.281  0.0971 -0.1993  0.0485
11615TIP3    H156260   2.334   5.220   3.269  0.2150 -0.2049  0.7162
11615TIP3    H256261   2.288   5.337   3.353  0.6364  1.6838 -1.5603
11616TIP3   OH256262   5.223   3.786  12.560 -0.0774 -0.2106 -0.4289
11616TIP3    H156263   5.198   3.841  12.634  0.2467  3.7857 -2.9633
11616TIP3    H256264   5.312   3.758  12.579 -0.0006  0.7426  0.7433
11617TIP3   OH256265   2.099   5.686   5.690 -0.5699 -0.0854  0.3637
11617TIP3    H156266   2.024   5.634   5.663  0.0323 -0.3928 -0.7872
11617TIP3    H256267   2.095   5.764   5.634  0.0662 -0.2010  0.1433
11618TIP3   OH256268   6.240   1.808  11.161 -0.1347  0.1734 -0.0236
11618TIP3    H156269   6.240   1.793  11.255  0.5477 -2.5637 -0.3998
11618TIP3    H256270   6.158   1.769  11.130  0.7826 -1.1766 -0.8329
11619TIP3   OH256271   3.747   2.704  13.515 -0.2195  0.0338 -0.1409
11619TIP3    H156272   3.685   2.744  13.576  1.7735  1.4804  1.1079
11619TIP3    H256273   3.772   2.775  13.457 -0.0994 -0.6550 -0.9455
11620TIP3   OH256274   0.011   5.291  14.016  0.0701  0.3701  0.4098
11620TIP3    H156275  -0.035   5.222  13.968 -3.1552  0.8163  2.5409
11620TIP3    H256276   0.102   5.261  14.021 -0.5363 -2.0795 -1.5022
11621TIP3   OH256277   2.843   2.054  10.471  0.0415  0.1666  0.1362
11621TIP3    H156278   2.757   2.094  10.482  0.1630  0.6066 -0.4382
11621TIP3    H256279   2.900   2.102  10.532  0.2189  0.9928 -0.6607
11622TIP3   OH256280   1.592   2.775   5.879 -0.2435 -0.1886 -0.1913
11622TIP3    H156281   1.521   2.839   5.865  0.5819  1.3018  1.9625
11622TIP3    H256282   1.569   2.732   5.961  0.3880 -1.0884 -0.4753
11623TIP3   OH256283   6.997   6.304  11.245  0.4974 -0.0104  0.2728
11623TIP3    H156284   7.052   6.353  11.306 -0.5562  1.8048 -0.1633
11623TIP3    H256285   7.057   6.280  11.174  1.3198 -0.5322  1.1162
11624TIP3   OH256286   1.388   2.283   3.915  0.4270  0.9200  0.1433
11624TIP3    H156287   1.350   2.345   3.853 -0.5041  0.5976  0.3742
11624TIP3    H256288   1.345   2.200   3.895  1.6593  0.3382 -0.1643
11625TIP3   OH256289   3.150   1.293   2.401  0.3430  0.7972 -0.0187
11625TIP3    H156290   3.180   1.283   2.311  0.9172 -0.0838  0.2534
11625TIP3    H256291   3.170   1.209   2.442 -0.3590  1.0165  0.8029
11626TIP3   OH256292   4.158   5.212   1.146 -0.1176  0.1689 -0.3528
11626TIP3    H156293   4.093   5.261   1.096  1.3898  0.6814 -1.9190
11626TIP3    H256294   4.212   5.168   1.080  0.8181 -0.6511  0.8992
11627TIP3   OH256295   0.834   3.242  14.766 -0.3933 -0.2707  0.4695
11627TIP3    H156296   0.810   3.270  14.677  1.3015  3.0557  0.8857
11627TIP3    H256297   0.768   3.281  14.822 -0.0801 -0.2702  0.8388
11628TIP3   OH256298   3.658   1.861  15.549  0.1988  0.1276  0.6000
11628TIP3    H156299   3.679   1.942  15.595  1.5077  0.4236 -0.4377
11628TIP3    H256300   3.626   1.890  15.463 -2.0516 -0.4125  1.1946
11629TIP3   OH256301   4.550   2.380  12.971  0.2226 -0.5359  0.1117
11629TIP3    H156302   4.603   2.328  12.911  0.3245 -1.8344  1.2941
11629TIP3    H256303   4.461   2.346  12.960 -0.2683  1.0002 -1.1735
11630TIP3   OH256304   1.253   4.971   1.541 -0.3759  0.6933 -0.0529
11630TIP3    H156305   1.160   4.987   1.554 -0.6150 -1.0293  0.5919
11630TIP3    H256306   1.258   4.929   1.455  0.1004  2.7955 -1.1289
11631TIP3   OH256307   3.697   0.140  11.282  0.0280 -0.0283  0.1477
11631TIP3    H156308   3.690   0.189  11.200  1.7723 -1.3049 -0.8400
11631TIP3    H256309   3.791   0.136  11.300 -0.3012  0.3640  2.3483
11632TIP3   OH256310   3.967   3.205  13.735 -0.0345  0.6956  0.3720
11632TIP3    H156311   4.047   3.257  13.745  0.5062  0.0852 -0.6956
11632TIP3    H256312   3.957   3.162  13.820 -0.3033  2.2210  1.1682
11633TIP3   OH256313   3.479   3.589   5.158  0.0461  0.3532 -0.3895
11633TIP3    H156314   3.395   3.549   5.134 -0.2270  1.8821 -2.2354
11633TIP3    H256315   3.503   3.642   5.082  1.0697  2.5382  1.3312
11634TIP3   OH256316   4.740   5.633   2.282 -0.3166 -0.1788  0.2306
11634TIP3    H156317   4.669   5.695   2.294 -0.5991 -0.5844  0.7082
11634TIP3    H256318   4.699   5.556   2.243 -0.3121 -0.7352  1.2846
11635TIP3   OH256319   3.937   4.502   2.032  0.3746  0.0630 -0.0071
11635TIP3    H156320   3.887   4.431   2.072  0.0319  0.6945  0.7143
11635TIP3    H256321   3.979   4.462   1.956 -0.3284 -0.7505  0.0180
11636TIP3   OH256322   4.641   3.443   1.254  0.1183 -0.5556  0.5098
11636TIP3    H156323   4.672   3.506   1.320  0.9330  0.0086 -0.3797
11636TIP3    H256324   4.546   3.455   1.253  0.2393  0.5490  0.4795
11637TIP3   OH256325   3.177   3.471  12.433 -0.3630  0.0721  0.1840
11637TIP3    H156326   3.195   3.392  12.483 -1.7537 -0.1339  0.4159
11637TIP3    H256327   3.145   3.439  12.348  0.4683  0.4061 -0.2625
11638TIP3   OH256328   0.377   1.780   1.714 -0.2572 -0.0561 -0.6010
11638TIP3    H156329   0.367   1.695   1.672  3.1332 -0.0597 -1.7084
11638TIP3    H256330   0.435   1.763   1.788 -1.2715  0.9960  0.4798
11639TIP3   OH256331   6.991   3.797   0.781 -0.0996 -0.0687 -1.0166
11639TIP3    H156332   7.002   3.746   0.701 -0.2974 -0.7608 -0.6175
11639TIP3    H256333   6.919   3.753   0.828  1.3400 -0.9816  0.4895
11640TIP3   OH256334   4.380   1.987  12.271 -0.0709 -0.3157 -0.3937
11640TIP3    H156335   4.326   1.910  12.290 -1.9611  1.1264  0.3705
11640TIP3    H256336   4.340   2.026  12.194 -0.0341  0.6876  0.0769
11641TIP3   OH256337   2.713   0.416   1.823 -0.2616 -0.1186 -0.0464
11641TIP3    H156338   2.622   0.390   1.841 -1.4196  2.2930 -1.8311
11641TIP3    H256339   2.705   0.498   1.773  2.9074 -0.0055 -0.5631
11642TIP3   OH256340   4.213   2.111  14.341  0.0773 -0.2457 -0.1473
11642TIP3    H156341   4.142   2.154  14.294  1.0874 -0.0111 -1.5233
11642TIP3    H256342   4.287   2.171  14.333  1.6854 -2.3278 -2.5204
11643TIP3   OH256343   3.227   2.204   6.027  0.0936 -0.5734  0.1431
11643TIP3    H156344   3.142   2.170   6.001  0.1825  1.5328 -3.6126
11643TIP3    H256345   3.221   2.299   6.015  3.0417 -0.3727 -0.7287
11644TIP3   OH256346   6.501   6.881   0.509 -0.4042  0.4716  0.5257
11644TIP3    H156347   6.552   6.955   0.542  0.0873 -0.0671  1.0095
11644TIP3    H256348   6.503   6.817   0.581  0.9841 -0.8826 -0.6543
11645TIP3   OH256349   1.233   4.569   4.873 -0.0885 -0.6909  0.0899
11645TIP3    H156350   1.275   4.630   4.812  0.8535 -1.7214 -0.3218
11645TIP3    H256351   1.298   4.500   4.886 -1.1256 -1.6090  0.5487
11646TIP3   OH256352   3.900   2.642   0.359 -0.1767 -0.1999 -0.0823
11646TIP3    H156353   3.966   2.709   0.339  0.8111 -1.0288  0.3355
11646TIP3    H256354   3.949   2.560   0.362 -1.2077 -0.8175  0.4024
11647TIP3   OH256355   3.688   2.506  14.155  0.4026  0.2634  0.1041
11647TIP3    H156356   3.751   2.434  14.153 -0.4788 -0.5523 -2.5079
11647TIP3    H256357   3.671   2.526  14.063 -3.0969  0.4492  0.6521
11648TIP3   OH256358   5.217   3.989   4.662 -0.5394 -0.5502  0.0198
11648TIP3    H156359   5.202   3.912   4.716  0.2461  0.4135  1.6729
11648TIP3    H256360   5.268   3.956   4.588 -0.9092 -1.7462  0.2714
11649TIP3   OH256361   3.830   7.009   4.630  0.4045  0.0189 -0.1690
11649TIP3    H156362   3.862   6.923   4.657 -2.1765 -1.0858 -0.4016
11649TIP3    H256363   3.891   7.071   4.671  1.7732 -1.8653  0.7785
11650TIP3   OH256364   1.724   1.241  14.496 -0.0989 -0.1499  0.0030
11650TIP3    H156365   1.749   1.306  14.430  1.3210  0.0649  0.6990
11650TIP3    H256366   1.629   1.250  14.505 -0.2189  0.2561 -1.5298
11651TIP3   OH256367   5.643   3.612   2.729 -0.6556 -0.6361 -0.1652
11651TIP3    H156368   5.581   3.657   2.671 -1.5082 -1.1626  0.3089
11651TIP3    H256369   5.651   3.669   2.805 -1.0845 -0.8679  0.0622
11652TIP3   OH256370   2.526   4.770   0.625  0.2698 -0.0587  0.1441
11652TIP3    H156371   2.554   4.829   0.555  0.5448 -0.1399  0.1836
11652TIP3    H256372   2.582   4.693   0.615 -0.0293 -0.2777  0.1476
11653TIP3   OH256373   4.900   5.217   2.694 -0.1382  0.8684 -0.4366
11653TIP3    H156374   4.919   5.206   2.601 -0.6993  0.0944 -0.4674
11653TIP3    H256375   4.905   5.129   2.730 -0.4955  1.0852  0.1598
11654TIP3   OH256376   3.288   5.344  11.859  0.3646  0.1465 -0.2624
11654TIP3    H156377   3.332   5.286  11.922 -0.4914 -0.6066 -0.3320
11654TIP3    H256378   3.220   5.289  11.821 -1.6543  1.6917  0.9557
11655TIP3   OH256379   2.932   0.997  13.198  0.0304 -0.1452 -0.2453
11655TIP3    H156380   3.022   0.967  13.203 -0.3214 -1.0492  1.2882
11655TIP3    H256381   2.920   1.022  13.106  1.7158 -0.3321 -0.5475
11656TIP3   OH256382   6.354   0.401   4.652  0.3066 -0.4550 -0.5189
11656TIP3    H156383   6.296   0.441   4.718 -0.7915 -2.4434 -0.2073
11656TIP3    H256384   6.326   0.439   4.569 -1.3865 -1.2515 -0.3512
11657TIP3   OH256385   2.197   0.406  11.644 -0.8118 -0.1361  0.4829
11657TIP3    H156386   2.129   0.338  11.651 -0.3557 -0.4076  3.2776
11657TIP3    H256387   2.184   0.461  11.721  0.8469  1.0948 -0.0622
11658TIP3   OH256388   3.358   3.121  14.185  0.0739 -0.0722 -0.4606
11658TIP3    H156389   3.419   3.049  14.198  0.7391  0.5070 -0.3408
11658TIP3    H256390   3.292   3.109  14.254  0.0616 -0.6721 -0.5664
11659TIP3   OH256391   4.914   0.082   1.855  0.1971  0.0494 -0.7076
11659TIP3    H156392   4.916   0.001   1.804  0.9500 -1.0450  0.9592
11659TIP3    H256393   4.950   0.149   1.797  0.1069 -0.9372 -1.9233
11660TIP3   OH256394   3.103   3.428   1.628 -0.3896  0.0449  0.6190
11660TIP3    H156395   3.155   3.414   1.707 -0.9321 -0.2797  0.9249
11660TIP3    H256396   3.013   3.435   1.660 -0.6777 -0.6499 -0.0242
11661TIP3   OH256397   1.003   5.928   2.765  0.0042 -0.1246  0.1053
11661TIP3    H156398   1.034   5.918   2.675 -0.5635 -2.6338  0.1056
11661TIP3    H256399   1.077   5.965   2.813  0.2350  1.4789 -1.3944
11662TIP3   OH256400   5.235   3.837  14.687  0.3175 -0.2223 -0.0724
11662TIP3    H156401   5.297   3.842  14.615  0.4099 -1.2237 -0.0685
11662TIP3    H256402   5.193   3.752  14.677 -0.1924 -0.0613  0.6319
11663TIP3   OH256403   0.550   1.923   1.443 -0.1372  0.6389  0.0201
11663TIP3    H156404   0.475   1.879   1.403 -1.1338  0.3776  2.0055
11663TIP3    H256405   0.613   1.853   1.460  0.5724  0.8522 -1.6153
11664TIP3   OH256406   2.659   3.641  12.970  0.2265  0.1199  0.5272
11664TIP3    H156407   2.739   3.643  12.917 -0.5766  2.5024 -0.7129
11664TIP3    H256408   2.588   3.629  12.907 -0.5228 -1.0122  1.5280
11665TIP3   OH256409   1.661   1.803  11.116 -0.5874 -0.0917  0.2987
11665TIP3    H156410   1.636   1.850  11.195  0.9456  1.0445  0.1396
11665TIP3    H256411   1.674   1.871  11.050  3.4028 -0.4531  0.5165
11666TIP3   OH256412   6.247   1.578  14.972 -0.4076 -0.0496 -0.4410
11666TIP3    H156413   6.240   1.524  15.051 -0.9100  1.6214  0.6954
11666TIP3    H256414   6.189   1.535  14.909 -1.3134 -0.4643  0.6482
11667TIP3   OH256415   7.132   1.701   4.875 -0.2656  0.2579 -0.3796
11667TIP3    H156416   7.125   1.712   4.970 -0.5535 -1.4368 -0.1885
11667TIP3    H256417   7.067   1.763   4.839  1.8160  3.0685  0.3334
11668TIP3   OH256418   3.772   0.764  13.869 -1.0468  0.0623 -0.5632
11668TIP3    H156419   3.710   0.692  13.872 -1.3690  0.3404 -0.5016
11668TIP3    H256420   3.721   0.839  13.838 -0.4581 -0.0025 -1.7473
11669TIP3   OH256421   4.052   2.300  10.900  0.0327  0.7229 -0.1455
11669TIP3    H156422   3.979   2.240  10.919  0.6808  0.2679  1.0178
11669TIP3    H256423   4.036   2.375  10.957  0.5842  0.5208  0.2814
11670TIP3   OH256424   4.091   0.744   2.323  0.0774 -0.1754 -0.4700
11670TIP3    H156425   4.026   0.812   2.306  0.8064  0.8188  0.5538
11670TIP3    H256426   4.117   0.713   2.237 -1.6105 -0.4783 -0.9075
11671TIP3   OH256427   6.129   0.750  14.730 -0.0291  0.3101 -0.2909
11671TIP3    H156428   6.045   0.745  14.684 -0.1084  1.8514 -0.3628
11671TIP3    H256429   6.194   0.752  14.661 -0.1904  3.5247 -0.4794
11672TIP3   OH256430   1.384   5.551  14.436  0.0692  0.0648  0.0057
11672TIP3    H156431   1.441   5.592  14.501 -1.2175  1.1906  0.4593
11672TIP3    H256432   1.435   5.557  14.354  1.9512 -1.9063  0.9230
11673TIP3   OH256433   3.799   1.759  10.491 -0.0120  0.2663 -0.0783
11673TIP3    H156434   3.890   1.788  10.493  0.0155  0.1677  0.8665
11673TIP3    H256435   3.750   1.830  10.534 -0.0726 -0.5975  1.3708
11674TIP3   OH256436   2.676   0.587   1.611  0.1911 -0.2472  0.1690
11674TIP3    H156437   2.589   0.548   1.614  0.0208  0.1657  0.8128
11674TIP3    H256438   2.669   0.667   1.662  0.5091  0.7262 -1.2470
11675TIP3   OH256439   6.639   5.270  15.618  0.3982  0.4979  0.0763
11675TIP3    H156440   6.636   5.276  15.714  1.4005 -3.2093  0.4913
11675TIP3    H256441   6.726   5.300  15.594 -0.1031  2.1436  0.1613
11676TIP3   OH256442   7.004   1.857  11.000 -0.2342 -0.6744 -0.2216
11676TIP3    H156443   7.076   1.842  10.939  0.7283 -1.3104  1.0307
11676TIP3    H256444   6.930   1.810  10.962 -0.5404  1.4067 -2.4243
11677TIP3   OH256445   1.158   6.786   2.778  0.2287 -0.5110 -0.1305
11677TIP3    H156446   1.096   6.755   2.712  0.6051 -1.9943  0.1710
11677TIP3    H256447   1.204   6.858   2.735 -2.8565  1.8500  0.2570
11678TIP3   OH256448   0.619   5.804   3.670  0.0228  0.2091 -0.4963
11678TIP3    H156449   0.623   5.716   3.709 -1.3424  1.0222  1.7141
11678TIP3    H256450   0.591   5.789   3.580  3.6796 -1.8300 -1.4805
11679TIP3   OH256451   1.943   4.122  10.552 -0.0953 -0.7457 -0.6048
11679TIP3    H156452   1.938   4.212  10.521 -3.4461 -0.6846 -0.2737
11679TIP3    H256453   1.998   4.077  10.488  1.0829  1.3515 -1.1414
11680TIP3   OH256454   1.212   4.536  10.640 -0.1206  0.0732 -1.0489
11680TIP3    H156455   1.211   4.623  10.679 -0.3140  0.7766 -2.5241
11680TIP3    H256456   1.295   4.499  10.667 -0.5019  0.2736  0.4864
11681TIP3   OH256457   7.115   0.462   9.809  0.3575 -0.3267 -0.2819
11681TIP3    H156458   7.163   0.526   9.756 -2.2443  1.8909 -0.1792
11681TIP3    H256459   7.183   0.403   9.843  3.1416  2.9878  0.5008
11682TIP3   OH256460   6.903   6.578  13.106 -0.0911  0.0473 -0.0377
11682TIP3    H156461   6.830   6.629  13.068  0.4761  0.5946 -0.4182
11682TIP3    H256462   6.956   6.553  13.030  0.0751 -0.4173  0.2315
11683TIP3   OH256463   0.735   3.340  11.429  0.5148 -0.4812  0.4026
11683TIP3    H156464   0.811   3.338  11.487 -0.9940 -0.6216  2.4896
11683TIP3    H256465   0.702   3.430  11.436  0.7729 -0.2765 -0.8874
11684TIP3   OH256466   2.085   3.401   0.948  0.2889  0.1711  0.6255
11684TIP3    H156467   2.149   3.385   1.018  0.3906 -1.8421  0.1355
11684TIP3    H256468   2.056   3.491   0.962  4.3440  1.7931 -0.0023
11685TIP3   OH256469   3.633   1.264   2.151 -0.1371 -0.0532 -0.1593
11685TIP3    H156470   3.559   1.299   2.102 -0.8382  1.2604  1.7197
11685TIP3    H256471   3.594   1.199   2.210  0.3696 -0.1760  0.0478
11686TIP3   OH256472   4.885   1.072  13.120  0.2169 -0.7072 -0.0932
11686TIP3    H156473   4.834   1.002  13.162 -0.0426 -0.3119  0.2550
11686TIP3    H256474   4.823   1.116  13.063  0.3474 -0.6676 -0.2062
11687TIP3   OH256475   1.162   0.681   0.723 -0.6957 -0.1316  0.3869
11687TIP3    H156476   1.201   0.614   0.667  0.9912  1.8508 -0.9505
11687TIP3    H256477   1.069   0.678   0.702 -0.6484 -1.9108  0.2597
11688TIP3   OH256478   3.739   6.228  14.779  0.4795 -0.3665 -0.2064
11688TIP3    H156479   3.734   6.163  14.708 -1.9622 -1.1676  0.5971
11688TIP3    H256480   3.661   6.212  14.831  1.8096  0.6983  2.2802
11689TIP3   OH256481   3.667   4.584   2.915  0.4697  0.1903  0.0664
11689TIP3    H156482   3.717   4.521   2.966  0.0548 -0.8384 -0.7682
11689TIP3    H256483   3.642   4.652   2.978  0.7556 -0.5675  1.0151
11690TIP3   OH256484   1.005   6.082   1.381  0.0548  0.3072  0.7559
11690TIP3    H156485   1.034   5.998   1.346 -1.4197  0.4447 -0.9068
11690TIP3    H256486   0.987   6.064   1.474  0.5908 -0.9894  0.6236
11691TIP3   OH256487   2.975   1.293  10.339  0.2156  0.1087  0.3960
11691TIP3    H156488   2.930   1.363  10.291 -1.3086 -0.7031  0.5835
11691TIP3    H256489   3.019   1.338  10.411 -0.3264  0.9353  0.2224
11692TIP3   OH256490   0.430   7.029  12.098  0.0937 -0.5369 -0.3460
11692TIP3    H156491   0.490   7.026  12.173  0.6703 -1.1872 -0.8089
11692TIP3    H256492   0.487   7.050  12.023 -0.5624  0.7025 -0.5287
11693TIP3   OH256493   3.915   6.828  10.993 -0.2355 -0.8249  0.3016
11693TIP3    H156494   3.927   6.898  10.929 -2.2626 -0.5014  0.2176
11693TIP3    H256495   3.914   6.748  10.941  2.1321 -0.9936  0.4025
11694TIP3   OH256496   3.570   4.413  10.308  0.0668  0.3405 -1.0487
11694TIP3    H156497   3.593   4.368  10.227  1.4336 -0.9286 -0.0059
11694TIP3    H256498   3.559   4.343  10.373 -1.3851  1.2957 -0.1870
11695TIP3   OH256499   5.953   3.097   4.565  0.0780 -0.6614 -0.4047
11695TIP3    H156500   5.933   3.038   4.492  1.3953 -1.1460 -0.3923
11695TIP3    H256501   6.043   3.075   4.590  0.0585  0.3188  0.5930
11696TIP3   OH256502   4.671   0.650  15.215 -0.0557  0.3052  0.0984
11696TIP3    H156503   4.666   0.647  15.310  0.4526  0.0299  0.1254
11696TIP3    H256504   4.764   0.665  15.197 -0.3831  2.0425 -0.3370
11697TIP3   OH256505   5.856   5.905   1.777 -0.6596 -0.1889  0.6761
11697TIP3    H156506   5.888   5.951   1.855 -1.2300  0.4751  0.5334
11697TIP3    H256507   5.923   5.839   1.758 -0.2153  0.0575  1.3609
11698TIP3   OH256508   0.643   3.632   5.435 -0.2319 -0.3246 -0.1342
11698TIP3    H156509   0.598   3.548   5.424 -2.6825  0.9807 -0.9128
11698TIP3    H256510   0.728   3.609   5.472 -0.5098 -3.1949 -1.0141
11699TIP3   OH256511   5.719   1.912  13.844 -0.1498 -0.3376 -0.0416
11699TIP3    H156512   5.756   1.965  13.774  0.1445  0.0621  0.4079
11699TIP3    H256513   5.625   1.914  13.829  0.0036 -1.6935 -1.4287
11700TIP3   OH256514   2.362   4.031  10.550 -0.4224  0.3498 -0.5388
11700TIP3    H156515   2.307   3.954  10.566  0.5487 -0.5274 -1.2781
11700TIP3    H256516   2.424   4.003  10.483  0.2668  1.6418 -0.4804
11701TIP3   OH256517   6.774   5.774   3.468 -0.5264  0.8110 -0.3691
11701TIP3    H156518   6.747   5.833   3.539 -0.7752  1.5080 -1.0393
11701TIP3    H256519   6.863   5.748   3.492 -0.6338  0.9829  0.2387
11702TIP3   OH256520   2.249   0.144  14.081  1.3555  0.6797 -0.2181
11702TIP3    H156521   2.265   0.143  13.987 -0.0012  2.8425 -0.5424
11702TIP3    H256522   2.165   0.189  14.091  1.5846  0.7451  2.0306
11703TIP3   OH256523   4.569   6.776  14.879 -0.9651 -0.8168 -0.2686
11703TIP3    H156524   4.577   6.759  14.973 -0.1531 -0.8683 -0.3425
11703TIP3    H256525   4.498   6.840  14.872 -1.2699 -1.0792  0.3477
11704TIP3   OH256526   0.855   1.793   3.574  0.4512 -0.1141 -0.0581
11704TIP3    H156527   0.790   1.736   3.616  0.9052 -0.0993  0.6806
11704TIP3    H256528   0.840   1.879   3.614  0.2854  0.1097 -0.6005
11705TIP3   OH256529   5.018   4.326   2.754  0.1192  0.0418  0.2981
11705TIP3    H156530   4.964   4.383   2.699 -0.6450 -0.7045  0.2611
11705TIP3    H256531   4.968   4.244   2.761  0.8869 -0.3904  0.9006
11706TIP3   OH256532   0.505   2.369  14.029 -0.2160 -0.4766  0.1195
11706TIP3    H156533   0.544   2.312  13.963  0.4957 -1.0746  1.0358
11706TIP3    H256534   0.411   2.349  14.024 -0.2343 -0.1679 -1.0214
11707TIP3   OH256535   6.617   6.952   3.222 -0.2880  0.2926  0.2841
11707TIP3    H156536   6.600   7.006   3.145 -0.2143  0.2125  0.2128
11707TIP3    H256537   6.658   7.011   3.284 -3.0280  1.1865  1.4130
11708TIP3   OH256538   1.427   0.340   4.754  0.6358 -0.4189 -0.2145
11708TIP3    H156539   1.356   0.354   4.692 -0.7017 -0.7818  1.1728
11708TIP3    H256540   1.486   0.280   4.709 -0.2272 -0.5687 -1.1934
11709TIP3   OH256541   7.036   1.054   4.664  0.2826  0.0365 -0.0202
11709TIP3    H156542   6.949   1.025   4.640  1.4629 -1.3466 -3.1465
11709TIP3    H256543   7.058   1.005   4.743 -0.5620 -2.1547 -1.0791
11710TIP3   OH256544   5.111   5.457  14.853 -0.2130 -1.2737 -0.0251
11710TIP3    H156545   5.112   5.421  14.764 -0.1277  0.6568 -0.8458
11710TIP3    H256546   5.123   5.381  14.910 -0.0158 -2.5157 -1.6717
11711TIP3   OH256547   0.905   4.201  13.489 -0.1183  0.2186 -0.1668
11711TIP3    H156548   0.940   4.164  13.570 -0.1533 -1.7021 -0.9725
11711TIP3    H256549   0.812   4.177  13.490  0.0362 -0.4585 -1.0952
11712TIP3   OH256550   6.057   0.181  13.199 -0.2607 -0.2145  0.3552
11712TIP3    H156551   6.059   0.132  13.281 -1.4725 -1.4464 -0.3179
11712TIP3    H256552   5.976   0.154  13.156  1.6327 -1.7601 -2.5378
11713TIP3   OH256553   4.688   0.905  15.589 -0.4762 -0.0570 -0.5212
11713TIP3    H156554   4.774   0.937  15.560 -0.1479 -0.1154  0.3803
11713TIP3    H256555   4.651   0.863  15.511 -0.5620  1.7438 -1.4999
11714TIP3   OH256556   6.766   3.478  11.551 -0.0382 -0.4009  0.3739
11714TIP3    H156557   6.693   3.421  11.574 -0.4169 -0.2386 -0.3773
11714TIP3    H256558   6.842   3.419  11.547 -0.1721 -0.6147  0.8980
11715TIP3   OH256559   1.189   3.090  11.792 -0.4703  0.1018 -0.3982
11715TIP3    H156560   1.143   3.048  11.719 -2.0723 -2.8678  2.0889
11715TIP3    H256561   1.120   3.113  11.854  0.9500  1.1687  0.8684
11716TIP3   OH256562   5.498   6.949  10.648 -0.6249  0.0128  0.2531
11716TIP3    H156563   5.593   6.942  10.641 -0.6164  0.5262 -0.1623
11716TIP3    H256564   5.475   7.026  10.597 -1.5686 -1.7664 -2.2072
11717TIP3   OH256565   5.517   7.072  14.312 -0.0516  0.2159 -0.0514
11717TIP3    H156566   5.528   7.145  14.373 -0.5158  0.6676 -0.4866
11717TIP3    H256567   5.427   7.081  14.280  0.0184 -0.3077 -0.4201
11718TIP3   OH256568   2.698   1.001  11.307  0.0654 -0.0921  0.0918
11718TIP3    H156569   2.643   1.020  11.230  1.6559  0.3833 -0.9687
11718TIP3    H256570   2.749   0.925  11.282  2.5557  1.6514 -0.4478
11719TIP3   OH256571   5.037   0.265   1.683 -0.0733  0.2662  0.3438
11719TIP3    H156572   5.103   0.334   1.677 -0.4069  0.6656  1.1944
11719TIP3    H256573   4.969   0.293   1.621 -0.3487  0.8612  0.9076
11720TIP3   OH256574   2.088   2.481   1.409 -0.1826  0.2217  0.4012
11720TIP3    H156575   2.061   2.421   1.340  1.5613  0.3092 -0.3897
11720TIP3    H256576   2.148   2.431   1.463  1.1135  1.1447 -0.1344
11721TIP3   OH256577   3.495   3.120   4.596 -0.3844 -0.2283 -0.3536
11721TIP3    H156578   3.566   3.179   4.571  0.0076  0.0328  1.2302
11721TIP3    H256579   3.508   3.042   4.543  0.1435  0.4330 -1.2146
11722TIP3   OH256580   5.214   1.400  15.102  0.1384  0.3172 -0.3139
11722TIP3    H156581   5.295   1.433  15.142  1.5970 -1.2656 -1.7626
11722TIP3    H256582   5.177   1.342  15.168 -0.6514  2.1313  0.9216
11723TIP3   OH256583   5.884   3.173  14.312  0.2372  0.0563  0.1304
11723TIP3    H156584   5.827   3.250  14.318 -1.8427 -1.2102 -1.7987
11723TIP3    H256585   5.938   3.188  14.235 -0.0286 -0.2726 -0.1286
11724TIP3   OH256586   2.383   4.510   0.446 -0.5094 -0.4235  0.2124
11724TIP3    H156587   2.328   4.486   0.520  1.1741  0.0710  1.7016
11724TIP3    H256588   2.472   4.513   0.482  0.4179 -0.4655 -1.9047
11725TIP3   OH256589   0.437   2.827   0.137  0.2510 -0.4297  0.3670
11725TIP3    H156590   0.489   2.750   0.113 -0.1883 -0.5104 -0.3721
11725TIP3    H256591   0.476   2.859   0.218  0.5828 -1.3001  0.5569
11726TIP3   OH256592   6.161   1.858  15.020  0.2838 -0.1176 -0.4678
11726TIP3    H156593   6.212   1.781  15.045 -0.9383 -0.4404  1.2248
11726TIP3    H256594   6.218   1.932  15.044  0.5898 -0.4765 -0.0549
11727TIP3   OH256595   2.786   1.961   3.026  0.3948  0.6328 -0.3741
11727TIP3    H156596   2.850   2.010   3.078 -1.0729 -0.2418  2.4965
11727TIP3    H256597   2.720   2.027   3.003  1.6355  1.2825 -2.3257
11728TIP3   OH256598   2.537   6.634  11.440 -0.0293  0.5374  0.3038
11728TIP3    H156599   2.543   6.617  11.347 -1.0773 -1.2275  0.5240
11728TIP3    H256600   2.609   6.584  11.479 -0.8407 -0.4166  0.6110
11729TIP3   OH256601   1.512   1.752   2.418 -0.2736  0.2076 -0.4139
11729TIP3    H156602   1.480   1.722   2.333 -1.2706 -2.0465  0.6669
11729TIP3    H256603   1.497   1.847   2.417 -1.8315  0.0054 -2.1170
11730TIP3   OH256604   6.135   6.355   2.703  0.2615  0.0522  0.2077
11730TIP3    H156605   6.068   6.317   2.760  0.7878  0.1210  0.8852
11730TIP3    H256606   6.120   6.450   2.708 -0.3160  0.0117 -0.5634
11731TIP3   OH256607   0.160   3.123   1.412  0.0751  0.5816  0.4440
11731TIP3    H156608   0.116   3.055   1.465  1.3533 -1.1316 -0.5849
11731TIP3    H256609   0.249   3.125   1.446  0.3333  0.9883 -0.2536
11732TIP3   OH256610   1.211   5.944   3.654 -0.2341  0.7595 -0.0187
11732TIP3    H156611   1.272   6.016   3.637 -0.5265  0.9081 -0.4655
11732TIP3    H256612   1.205   5.898   3.570 -0.3249  0.4280  0.1690
11733TIP3   OH256613   1.381   6.580   2.741  0.1561 -0.3202  0.3099
11733TIP3    H156614   1.325   6.601   2.816 -0.8578  0.8055 -0.7221
11733TIP3    H256615   1.450   6.646   2.743 -0.1176 -0.0256  0.0015
11734TIP3   OH256616   1.233   1.300  13.669  0.0166 -0.1005  0.6732
11734TIP3    H156617   1.168   1.356  13.712  0.0281  0.3511  0.1216
11734TIP3    H256618   1.212   1.212  13.698  0.4692  0.2579  2.1622
11735TIP3   OH256619   4.406   6.867  10.690 -0.5282  0.0202  0.3038
11735TIP3    H156620   4.489   6.820  10.690  0.3438  1.4900  1.7758
11735TIP3    H256621   4.357   6.827  10.618  1.4011 -0.9224 -0.5681
11736TIP3   OH256622   0.338   4.312   1.283  0.5251  0.2067 -0.3644
11736TIP3    H156623   0.325   4.392   1.335 -0.8449  0.2939 -0.8195
11736TIP3    H256624   0.287   4.326   1.204  2.1009 -0.1818 -1.4995
11737TIP3   OH256625   4.202   3.291   5.221 -0.0352  0.6287  0.1337
11737TIP3    H156626   4.218   3.204   5.185  0.5023  1.1713 -1.0138
11737TIP3    H256627   4.290   3.329   5.229 -0.2279  0.8894  1.0915
11738TIP3   OH256628   6.559   6.240   2.523 -0.4400  0.3342  0.5190
11738TIP3    H156629   6.486   6.235   2.461 -1.9311  0.7328  2.1688
11738TIP3    H256630   6.564   6.152   2.560  0.5085  0.0727 -0.1695
11739TIP3   OH256631   2.500   6.963   0.708  0.4151 -0.3544  0.1787
11739TIP3    H156632   2.462   6.883   0.672  0.9671 -0.1302 -0.9464
11739TIP3    H256633   2.445   7.034   0.673 -1.2209 -0.2782  2.6306
11740TIP3   OH256634   5.407   1.293  11.261  0.5961  0.1162 -0.3414
11740TIP3    H156635   5.458   1.286  11.181  0.5460  1.5233 -0.5250
11740TIP3    H256636   5.444   1.369  11.306 -0.7120  0.5825 -0.0223
11741TIP3   OH256637   4.120   5.189  12.978 -0.7526  0.0878  0.3985
11741TIP3    H156638   4.137   5.238  12.897  0.0542 -1.3293 -0.3452
11741TIP3    H256639   4.194   5.128  12.985 -2.1104 -1.6035  0.7843
11742TIP3   OH256640   1.515   5.861   3.993 -0.5192 -0.2858  0.0253
11742TIP3    H156641   1.491   5.863   3.901  2.9217  2.8197 -1.0345
11742TIP3    H256642   1.480   5.943   4.028 -1.3885 -1.2163  1.4401
11743TIP3   OH256643   4.248   5.473   1.048 -0.5517  0.1162 -0.7540
11743TIP3    H156644   4.264   5.452   1.140 -0.7506  1.7000 -0.3305
11743TIP3    H256645   4.155   5.454   1.035 -0.9461  1.5390 -0.1326
11744TIP3   OH256646   5.737   2.510   1.690 -0.7038  0.4714  0.1825
11744TIP3    H156647   5.826   2.532   1.718  0.0548 -2.4520  0.4632
11744TIP3    H256648   5.748   2.429   1.640 -3.1577  0.4354 -0.4110
11745TIP3   OH256649   0.963   3.639   0.281  0.3323  0.0178  0.2904
11745TIP3    H156650   0.994   3.692   0.354 -1.4854 -0.1245  1.2242
11745TIP3    H256651   0.949   3.552   0.319 -1.4142  0.1468  0.0328
11746TIP3   OH256652   2.365   2.278   2.647  0.2614  0.4667  0.3429
11746TIP3    H156653   2.431   2.312   2.587 -1.1708 -0.1839 -1.7149
11746TIP3    H256654   2.340   2.193   2.610 -0.6065 -0.0191  1.9482
11747TIP3   OH256655   6.761   1.772   5.080 -0.0040 -0.1791 -0.6089
11747TIP3    H156656   6.854   1.749   5.084 -0.0966 -0.6107 -0.8454
11747TIP3    H256657   6.753   1.824   5.001  0.1631  0.4774 -0.2014
11748TIP3   OH256658   1.365   4.526  11.402 -0.1722  0.0326  0.2696
11748TIP3    H156659   1.296   4.592  11.409 -0.1398  0.0647  0.2821
11748TIP3    H256660   1.417   4.554  11.327 -1.4297 -1.1567 -1.1030
11749TIP3   OH256661   3.374   3.239   2.650 -0.4261 -0.4124 -1.2434
11749TIP3    H156662   3.411   3.200   2.729  1.3626  0.1970 -1.7115
11749TIP3    H256663   3.298   3.288   2.681 -0.3924 -1.0637 -0.0697
11750TIP3   OH256664   1.874   5.172  11.696 -0.2905 -0.1734 -0.1258
11750TIP3    H156665   1.808   5.107  11.719 -0.4119  0.4197  1.2957
11750TIP3    H256666   1.944   5.160  11.760 -2.5230  4.3725  3.7696
11751TIP3   OH256667   1.028   7.004  13.869  0.0183  0.0573 -0.1314
11751TIP3    H156668   1.085   6.930  13.892  1.2234  0.7736 -0.7688
11751TIP3    H256669   0.942   6.963  13.856  0.3771 -1.0574  0.7297
11752TIP3   OH256670   1.381   3.032   5.072  0.1856  0.5960 -0.3108
11752TIP3    H156671   1.366   2.999   5.161  0.1362  0.2314 -0.4509
11752TIP3    H256672   1.299   3.014   5.027  0.1750  0.8761 -0.4011
11753TIP3   OH256673   1.264   4.763  11.486  0.3159 -0.0285  0.3358
11753TIP3    H156674   1.264   4.756  11.581  1.5607  2.1746  0.5647
11753TIP3    H256675   1.220   4.845  11.467 -1.1976 -1.1120 -1.1216
11754TIP3   OH256676   0.761   2.425  15.475  0.6392 -1.0499  0.3115
11754TIP3    H156677   0.729   2.398  15.390  1.3972  0.0438 -0.3478
11754TIP3    H256678   0.856   2.432  15.464  0.9306 -2.2975  1.6588
11755TIP3   OH256679   2.350   3.572   1.076  0.5798 -0.1415  0.2838
11755TIP3    H156680   2.298   3.493   1.092  0.0481 -0.0339 -0.8181
11755TIP3    H256681   2.322   3.602   0.989  1.6582  0.5760  0.1660
11756TIP3   OH256682   4.334   4.785   3.678 -0.6501 -0.7400  0.6836
11756TIP3    H156683   4.316   4.692   3.692 -0.8558 -1.1417 -1.8805
11756TIP3    H256684   4.426   4.789   3.654 -1.2553 -0.7181 -1.9736
11757TIP3   OH256685   6.257   6.771   2.171  0.1445 -0.6422  0.0418
11757TIP3    H156686   6.279   6.814   2.089 -1.2883 -2.6153 -1.4679
11757TIP3    H256687   6.263   6.840   2.237  3.0901  0.6229 -1.3698
11758TIP3   OH256688   0.160   2.104  11.845 -0.0207 -0.1424 -0.1540
11758TIP3    H156689   0.082   2.156  11.865  0.0421 -0.3804  0.7473
11758TIP3    H256690   0.146   2.021  11.889 -0.2515 -1.0458 -1.8401
11759TIP3   OH256691   5.120   7.083  11.236  0.3218 -0.1149 -0.1061
11759TIP3    H156692   5.169   7.019  11.184  3.5412  0.7519  1.5855
11759TIP3    H256693   5.093   7.036  11.314 -0.6102 -0.2940 -0.5216
11760TIP3   OH256694   6.642   4.633   0.053 -0.1995 -0.3458 -0.1811
11760TIP3    H156695   6.620   4.555   0.003 -0.7287 -0.8617  0.8320
11760TIP3    H256696   6.569   4.644   0.114 -0.6602  1.5294 -0.9689
11761TIP3   OH256697   2.252   2.309  10.161  0.4828 -0.0723 -0.0113
11761TIP3    H156698   2.191   2.304  10.235  2.0540  0.4421  1.4132
11761TIP3    H256699   2.277   2.401  10.157  1.2621 -0.2947 -0.4486
11762TIP3   OH256700   2.344   0.043   4.125  0.8962  0.2339 -0.1095
11762TIP3    H156701   2.317  -0.030   4.070 -2.3918  0.7834  0.5363
11762TIP3    H256702   2.278   0.111   4.109  1.2182  1.3492  2.5924
11763TIP3   OH256703   4.117   4.995   0.898 -0.3226 -0.0424 -0.6937
11763TIP3    H156704   4.198   4.953   0.868 -1.2151 -0.6775 -2.3057
11763TIP3    H256705   4.059   4.922   0.919 -0.7798  0.4056 -0.3894
11764TIP3   OH256706   1.662   4.824  14.911  0.0924  0.2816 -0.1930
11764TIP3    H156707   1.748   4.782  14.914  0.9674  2.0032  2.1047
11764TIP3    H256708   1.600   4.754  14.931  1.2275 -0.5128  0.6542
11765TIP3   OH256709   2.716   5.366  12.302  0.3765  0.1047 -0.2114
11765TIP3    H156710   2.625   5.381  12.328 -0.6401 -3.1538 -1.3932
11765TIP3    H256711   2.728   5.419  12.223 -0.3538  0.7913  0.1231
11766TIP3   OH256712   5.269   2.238   3.542  0.5133  0.5470  0.2356
11766TIP3    H156713   5.220   2.179   3.599  0.9594 -1.7599 -1.6235
11766TIP3    H256714   5.360   2.213   3.554  0.8286  1.6513  0.2460
11767TIP3   OH256715   1.044   2.419  15.410  0.5745  1.0098 -0.5187
11767TIP3    H156716   1.134   2.450  15.396  1.5507 -1.0142  0.7919
11767TIP3    H256717   1.048   2.325  15.392 -0.7747  0.4864  1.5820
11768TIP3   OH256718   1.736   5.014  10.559  0.5703  0.2626 -0.0335
11768TIP3    H156719   1.804   5.081  10.552  1.7426 -0.6424  1.7683
11768TIP3    H256720   1.773   4.949  10.618 -1.2433 -1.0985 -0.3064
11769TIP3   OH256721   0.779   5.224  10.641  0.2502  0.1960 -0.0419
11769TIP3    H156722   0.720   5.253  10.711  1.2041  0.0891  0.8447
11769TIP3    H256723   0.756   5.278  10.566 -0.9476  0.1686  0.2814
11770TIP3   OH256724   3.276   4.360   2.677 -0.0984 -0.0345  0.2805
11770TIP3    H156725   3.291   4.441   2.725 -1.6537 -0.4638  1.5959
11770TIP3    H256726   3.334   4.296   2.719 -1.2595 -0.3435  1.5150
11771TIP3   OH256727   6.523   0.966   4.012  0.2116 -0.1738  0.2236
11771TIP3    H156728   6.604   0.970   3.961 -0.4125  0.1194 -0.7919
11771TIP3    H256729   6.520   1.050   4.059 -0.3022  0.5725 -1.0655
11772TIP3   OH256730   1.319   3.443   4.175 -0.6849  0.5456 -0.0720
11772TIP3    H156731   1.298   3.517   4.118 -0.5929  0.9434  0.3948
11772TIP3    H256732   1.411   3.457   4.198 -0.9475  0.8439  0.8225
11773TIP3   OH256733   2.048   5.163  13.648 -0.0822 -0.2114 -0.1699
11773TIP3    H156734   2.083   5.252  13.644 -0.7115 -0.0070 -2.0180
11773TIP3    H256735   2.064   5.127  13.560 -2.1395 -0.9932 -0.2679
11774TIP3   OH256736   5.402   2.145   1.815  0.5660  0.0711 -0.0825
11774TIP3    H156737   5.355   2.228   1.812 -0.5065 -0.5356 -2.6362
11774TIP3    H256738   5.335   2.081   1.839  0.6705 -0.4303 -1.0878
11775TIP3   OH256739   0.366   7.044   4.030 -0.7052  0.3304 -0.3321
11775TIP3    H156740   0.418   7.043   3.950 -0.9129 -0.3711 -0.4650
11775TIP3    H256741   0.281   7.008   4.004 -0.8268  0.2460  0.1647
11776TIP3   OH256742   5.997   2.179   9.912  0.1190  0.5410  0.6212
11776TIP3    H156743   6.029   2.090   9.898 -1.1725  0.0608  0.6072
11776TIP3    H256744   6.006   2.222   9.827 -0.9827 -0.1594  0.1344
11777TIP3   OH256745   3.328   1.146  15.527  0.2702  0.5143 -0.2983
11777TIP3    H156746   3.240   1.171  15.500 -0.2940 -0.4798  0.5258
11777TIP3    H256747   3.327   1.155  15.622  0.6492 -0.7408 -0.1646
11778TIP3   OH256748   3.527   4.225   3.113  0.3605  0.3590  0.2621
11778TIP3    H156749   3.580   4.232   3.192  0.9356 -1.6668  0.1207
11778TIP3    H256750   3.589   4.197   3.045 -0.4196  0.4389 -0.4998
11779TIP3   OH256751   6.747   6.979  14.222  0.2341 -0.0675  0.1411
11779TIP3    H156752   6.731   6.991  14.129 -2.2253 -1.6840  0.2856
11779TIP3    H256753   6.735   7.067  14.260  1.0448  0.5594 -0.9970
11780TIP3   OH256754   0.965   1.251   2.646 -0.4980  0.4467  0.3618
11780TIP3    H156755   1.047   1.240   2.599 -0.5367  0.4350  0.2962
11780TIP3    H256756   0.979   1.327   2.702 -0.2252  0.0687  0.8184
11781TIP3   OH256757   3.793   4.444   5.446 -0.2342  0.1130  0.0676
11781TIP3    H156758   3.700   4.457   5.425 -0.0816  0.2554 -0.5700
11781TIP3    H256759   3.819   4.369   5.393  0.0312  0.1168  0.1912
11782TIP3   OH256760   4.238   1.801   1.800  0.2417 -0.2201  0.1176
11782TIP3    H156761   4.275   1.889   1.791 -0.8804  0.6814  3.2063
11782TIP3    H256762   4.285   1.763   1.874  0.6059 -2.2212 -1.0824
11783TIP3   OH256763   0.408   3.138  15.339  0.7616  0.1637  0.0314
11783TIP3    H156764   0.495   3.178  15.346  0.7981 -0.2042  2.9173
11783TIP3    H256765   0.406   3.072  15.409 -1.6456 -0.1990 -0.3021
11784TIP3   OH256766   1.790   1.822   2.492  0.2665  0.1065 -0.1081
11784TIP3    H156767   1.744   1.738   2.491 -0.4735  0.5066 -0.6241
11784TIP3    H256768   1.848   1.818   2.416  0.9758 -0.3353  0.4506
11785TIP3   OH256769   4.021   5.452   3.559 -0.5738 -0.2848  0.0980
11785TIP3    H156770   4.111   5.449   3.591 -0.2520 -0.8805 -0.8396
11785TIP3    H256771   3.971   5.403   3.625 -0.4105  0.9199  1.1683
11786TIP3   OH256772   1.878   3.733  13.224  0.4590  0.5537 -0.0727
11786TIP3    H156773   1.813   3.701  13.287 -0.8099 -0.5734 -1.8438
11786TIP3    H256774   1.927   3.800  13.272 -1.2114  0.5907  1.7242
11787TIP3   OH256775   1.450   1.540  10.597 -0.0807 -0.0561 -0.2368
11787TIP3    H156776   1.508   1.614  10.612 -1.3104  0.6308  1.3136
11787TIP3    H256777   1.508   1.470  10.566  1.2140  1.2646 -0.9145
11788TIP3   OH256778   0.658   5.310   4.505  0.1846  0.3910 -0.2203
11788TIP3    H156779   0.596   5.362   4.556 -0.0751  1.8466 -1.9091
11788TIP3    H256780   0.628   5.319   4.415  1.2640 -1.1669 -0.7799
11789TIP3   OH256781   5.838   5.489   0.894 -0.0097 -0.0686 -0.3501
11789TIP3    H156782   5.799   5.490   0.981  1.6751 -1.5036  0.4995
11789TIP3    H256783   5.865   5.579   0.878 -0.5963  0.2634  0.4872
11790TIP3   OH256784   4.466   1.296  14.935 -0.4602  0.0637 -0.1898
11790TIP3    H156785   4.424   1.380  14.955  0.0182  0.1539  0.4985
11790TIP3    H256786   4.456   1.245  15.015  2.1657  0.7015  0.6649
11791TIP3   OH256787   1.489   0.127  15.048 -0.1050  0.4146  0.1887
11791TIP3    H156788   1.473   0.217  15.019  0.7088  0.9913  1.4392
11791TIP3    H256789   1.419   0.110  15.112 -1.0101 -0.3158 -0.9608
11792TIP3   OH256790   6.422   6.705   3.489 -0.1964  1.2345 -0.5333
11792TIP3    H156791   6.437   6.708   3.395 -1.4695 -0.4345 -0.8441
11792TIP3    H256792   6.504   6.673   3.526  0.0483  1.1376 -1.1633
11793TIP3   OH256793   3.575   5.048  11.580  0.6404 -0.1506 -0.1946
11793TIP3    H156794   3.597   5.030  11.489 -0.8721  1.3175 -0.8962
11793TIP3    H256795   3.647   5.102  11.612  2.0838 -2.1332  0.0749
11794TIP3   OH256796   2.604   1.265   5.018  0.6238  0.0748  0.2497
11794TIP3    H156797   2.638   1.203   4.954 -0.9932 -0.4338 -0.1478
11794TIP3    H256798   2.513   1.238   5.032  0.2590  1.6025  1.0004
11795TIP3   OH256799   2.805   4.623   4.548 -0.3798 -0.6940  0.2647
11795TIP3    H156800   2.822   4.597   4.458  1.4039 -1.0015  0.6590
11795TIP3    H256801   2.840   4.552   4.602 -0.3765  0.0077  1.2239
11796TIP3   OH256802   2.463   5.070  10.433 -0.8193 -0.0338  0.0785
11796TIP3    H156803   2.457   4.975  10.446 -0.1289 -0.2343 -0.9598
11796TIP3    H256804   2.375   5.096  10.405 -1.4488 -0.0927  1.8629
11797TIP3   OH256805   2.007   3.317  10.551  0.2657 -0.2799 -0.5534
11797TIP3    H156806   2.081   3.256  10.558  0.2058 -0.2437  0.6202
11797TIP3    H256807   1.984   3.336  10.642 -0.5015  0.5475 -0.9148
11798TIP3   OH256808   3.713   3.518  15.049  0.4587  0.2737 -0.3291
11798TIP3    H156809   3.632   3.501  15.001  0.1277  0.5965  0.1049
11798TIP3    H256810   3.767   3.569  14.988  0.5155 -0.3155 -0.7773
11799TIP3   OH256811   1.978   2.361  14.577  0.2595  0.6031 -0.2011
11799TIP3    H156812   1.981   2.377  14.671  1.8529 -1.1813  0.1012
11799TIP3    H256813   1.990   2.447  14.537  1.1809  1.1570  1.2296
11800TIP3   OH256814   6.389   0.548  11.546  0.6681 -0.6063  0.8241
11800TIP3    H156815   6.409   0.470  11.494 -1.3238  0.4001 -1.6629
11800TIP3    H256816   6.293   0.552  11.547  0.6669  0.6026  2.8923
11801TIP3   OH256817   4.896   6.597   3.770  0.6570 -0.5944  0.7589
11801TIP3    H156818   4.894   6.512   3.727 -0.5447  0.6716 -1.9486
11801TIP3    H256819   4.805   6.616   3.790  0.3853  1.4002 -1.8134
11802TIP3   OH256820   1.464   3.522   3.229 -0.1355  0.3774 -0.0143
11802TIP3    H156821   1.403   3.511   3.156 -1.2300  0.3614  0.8711
11802TIP3    H256822   1.413   3.498   3.306  1.3526 -0.7810  0.6587
11803TIP3   OH256823   1.294   5.556   3.933 -0.5297  0.2692  0.5529
11803TIP3    H156824   1.340   5.639   3.947  2.5722 -0.9535 -1.4500
11803TIP3    H256825   1.265   5.530   4.021  1.1456  1.9792  1.7037
11804TIP3   OH256826   2.657   0.536  13.029 -0.3311 -0.2037 -0.1055
11804TIP3    H156827   2.655   0.597  12.954  0.8482 -1.2886 -1.0604
11804TIP3    H256828   2.735   0.483  13.014  0.9298  0.6238  2.7972
11805TIP3   OH256829   5.480   2.510   1.542 -0.5340 -0.2779 -0.2524
11805TIP3    H156830   5.549   2.543   1.600  0.8093 -1.5935 -1.0189
11805TIP3    H256831   5.401   2.513   1.595  0.1941  0.8591  0.8174
11806TIP3   OH256832   5.614   5.463   3.198 -0.2316  0.0649  0.0175
11806TIP3    H156833   5.595   5.536   3.258 -1.9318 -0.7875  0.5862
11806TIP3    H256834   5.600   5.501   3.111  1.7666  1.1775  0.1204
11807TIP3   OH256835   0.448   6.516   2.969 -0.1090 -0.4439  0.0480
11807TIP3    H156836   0.474   6.532   2.879 -2.0881 -0.9897 -0.6867
11807TIP3    H256837   0.457   6.421   2.980  0.6134 -0.3152  0.5960
11808TIP3   OH256838   4.833   2.633   5.316  0.0589 -0.6080  0.4051
11808TIP3    H156839   4.817   2.605   5.406  0.0301  0.8453  0.8839
11808TIP3    H256840   4.916   2.680   5.320 -0.0664 -0.3146 -0.2737
11809TIP3   OH256841   0.380   2.901   1.750  0.1872 -0.0148 -0.2099
11809TIP3    H156842   0.343   2.985   1.778  1.2137 -0.0972  1.5081
11809TIP3    H256843   0.475   2.913   1.759  0.3986 -1.0045 -1.0276
11810TIP3   OH256844   5.772   0.990   2.837  0.2201  0.9757 -0.0753
11810TIP3    H156845   5.762   1.068   2.784  1.4154  1.1147 -0.1174
11810TIP3    H256846   5.684   0.954   2.844 -0.4637  2.6664  0.4734
11811TIP3   OH256847   6.146   6.327   2.424  0.3525  0.0339  0.0149
11811TIP3    H156848   6.130   6.355   2.514  0.8909 -1.6310  0.6842
11811TIP3    H256849   6.204   6.394   2.388  0.8014  0.3103  1.1935
11812TIP3   OH256850   6.458   1.963   1.763  0.6267 -0.0030  0.5194
11812TIP3    H156851   6.365   1.985   1.764  0.4582 -0.5832 -0.4907
11812TIP3    H256852   6.462   1.876   1.802  0.5476 -0.5744 -0.6939
11813TIP3   OH256853   4.428   7.013  14.231  0.1720 -0.0241  0.0993
11813TIP3    H156854   4.421   6.943  14.296 -0.5168 -0.2407 -0.2064
11813TIP3    H256855   4.365   6.990  14.163 -0.7609  1.3788  0.4428
11814TIP3   OH256856   0.652   3.950  12.603  0.1342 -0.2418 -0.3908
11814TIP3    H156857   0.581   3.965  12.666  0.0099  0.1873 -0.6303
11814TIP3    H256858   0.662   3.855  12.601  0.4894 -0.2465  0.6685
11815TIP3   OH256859   0.380   6.010  14.209 -0.2953 -0.0942 -0.0660
11815TIP3    H156860   0.444   6.081  14.217 -1.8638  1.1851  2.5585
11815TIP3    H256861   0.313   6.031  14.274 -2.3214 -2.4909 -1.2175
11816TIP3   OH256862   3.059   2.388  11.470  0.1710  0.2874 -0.7696
11816TIP3    H156863   3.051   2.306  11.519 -1.2553  0.2016 -1.0991
11816TIP3    H256864   3.084   2.453  11.536 -0.5266 -0.0606 -0.1473
11817TIP3   OH256865   3.168   6.343   9.669 -0.1706 -0.3138  0.0959
11817TIP3    H156866   3.253   6.382   9.690 -0.1522 -0.8119  0.9873
11817TIP3    H256867   3.170   6.256   9.710 -0.1838 -1.3141 -1.8949
11818TIP3   OH256868   4.884   5.407   5.049  0.2628 -0.0570  0.1583
11818TIP3    H156869   4.880   5.488   5.101 -0.3262  0.6279 -0.9111
11818TIP3    H256870   4.801   5.363   5.068 -0.6942  0.9738 -1.3594
11819TIP3   OH256871   4.679   6.679  15.597 -0.4011  0.1098  0.0216
11819TIP3    H156872   4.645   6.624  15.527  0.9985  1.3051 -1.6712
11819TIP3    H256873   4.771   6.656  15.604 -0.6072 -0.3658  1.8994
11820TIP3   OH256874   2.584   6.371  13.982 -0.4002  0.2885 -0.6390
11820TIP3    H156875   2.638   6.295  14.003  2.0960  1.2634 -2.9982
11820TIP3    H256876   2.591   6.428  14.058  1.0792 -0.0877 -0.4714
11821TIP3   OH256877   0.342   3.303   3.719 -0.3215 -0.6281 -0.0922
11821TIP3    H156878   0.401   3.367   3.758 -1.5224 -0.1910  1.0806
11821TIP3    H256879   0.327   3.238   3.788 -2.5910  0.2221  0.2949
11822TIP3   OH256880   5.472   4.769  12.196 -0.1723 -0.1558  0.1306
11822TIP3    H156881   5.526   4.709  12.146 -0.9650 -1.0746  0.3391
11822TIP3    H256882   5.534   4.822  12.246  0.5376 -1.1516  0.3368
11823TIP3   OH256883   3.749   0.502   5.326  0.4259  0.4990 -0.0261
11823TIP3    H156884   3.667   0.546   5.305  0.1209 -0.0799 -0.0563
11823TIP3    H256885   3.788   0.556   5.395  0.9913  1.8913 -1.3664
11824TIP3   OH256886   0.919   6.004  12.308 -0.4510  0.0056 -0.5354
11824TIP3    H156887   0.908   6.045  12.223 -0.9804  1.1072  0.0474
11824TIP3    H256888   0.924   6.077  12.370  0.3630 -0.7538  0.3402
11825TIP3   OH256889   1.948   6.963  15.569  0.1635  0.2797  0.4612
11825TIP3    H156890   2.023   6.907  15.590 -2.2879 -2.9951  1.2696
11825TIP3    H256891   1.929   7.009  15.651  1.2634  1.2534  0.2118
11826TIP3   OH256892   0.137   3.324   3.513 -0.5448 -0.0998  0.2425
11826TIP3    H156893   0.076   3.250   3.515 -0.8155 -0.0298 -2.0438
11826TIP3    H256894   0.212   3.295   3.563  0.0555 -2.6663 -1.8960
11827TIP3   OH256895   2.475   0.440   4.293  0.1703 -0.0106  0.1575
11827TIP3    H156896   2.546   0.415   4.233  0.6600 -0.7628  1.0266
11827TIP3    H256897   2.482   0.377   4.365 -0.6081  0.6804  0.8456
11828TIP3   OH256898   3.513   7.093   3.551 -0.1899  0.4385  0.3518
11828TIP3    H156899   3.482   7.180   3.527 -0.9922 -0.0870 -0.6091
11828TIP3    H256900   3.524   7.048   3.468 -1.6459 -0.9830  0.8778
11829TIP3   OH256901   5.987   4.624   0.945 -0.2100 -0.3770  0.1821
11829TIP3    H156902   5.996   4.684   1.019 -0.4862  0.2366 -0.2755
11829TIP3    H256903   5.898   4.638   0.913 -0.7610 -2.0126  0.9102
11830TIP3   OH256904   5.191   3.177  14.070  0.0597  0.1587  0.2112
11830TIP3    H156905   5.098   3.187  14.089 -0.2953 -0.6626 -0.9762
11830TIP3    H256906   5.228   3.141  14.150 -1.0587 -1.5493  0.0126
11831TIP3   OH256907   3.984   4.186   3.555  0.2774 -0.0421 -0.4609
11831TIP3    H156908   4.033   4.260   3.519 -0.1737 -0.0376 -1.0640
11831TIP3    H256909   3.893   4.215   3.555  0.0932 -0.6125 -0.7339
11832TIP3   OH256910   5.399   5.656   1.681  0.4321  0.3880  0.3052
11832TIP3    H156911   5.443   5.582   1.639 -0.3871  0.9030 -1.5715
11832TIP3    H256912   5.468   5.721   1.693  0.3975  0.9577 -2.0514
11833TIP3   OH256913   1.136   3.895  11.315 -0.1088  0.1610 -0.4281
11833TIP3    H156914   1.149   3.887  11.410 -0.5768 -0.5128 -0.4101
11833TIP3    H256915   1.221   3.872  11.278 -0.8049 -3.3235 -0.2793
11834TIP3   OH256916   4.585   3.107   9.791  0.1943 -0.5063  0.0111
11834TIP3    H156917   4.492   3.112   9.815 -0.1403 -1.2416 -1.0680
11834TIP3    H256918   4.627   3.177   9.841 -0.5547 -1.5977  2.2972
11835TIP3   OH256919   0.855   3.843   4.905  1.0065  0.1595 -0.6314
11835TIP3    H156920   0.829   3.934   4.922  2.0768  0.3533  0.0888
11835TIP3    H256921   0.896   3.846   4.818  0.8536  0.3338 -0.6975
11836TIP3   OH256922   0.859   2.102  14.487 -0.0123 -0.2031 -0.4709
11836TIP3    H156923   0.862   2.106  14.392 -4.1841  0.3473 -0.7620
11836TIP3    H256924   0.827   2.014  14.507  2.1608 -0.8240  0.5992
11837TIP3   OH256925   1.672   6.990   1.928  0.2135  0.5993 -0.3412
11837TIP3    H156926   1.710   6.912   1.888  1.4702  1.0821 -0.1180
11837TIP3    H256927   1.600   6.956   1.981 -1.9275 -0.0290 -3.3827
11838TIP3   OH256928   0.142   0.963  14.547  0.1404 -0.4899  0.2692
11838TIP3    H156929   0.066   0.909  14.566 -0.2835  0.0498  0.1455
11838TIP3    H256930   0.107   1.036  14.496  1.0033 -1.1069 -1.2825
11839TIP3   OH256931   5.451   0.877   3.826 -0.3734 -0.5083  0.4596
11839TIP3    H156932   5.431   0.835   3.910  2.8393 -1.5437  0.8453
11839TIP3    H256933   5.546   0.879   3.822 -0.3913  0.1123 -2.8996
11840TIP3   OH256934   5.751   2.355  13.580 -0.2013  0.3513 -0.5660
11840TIP3    H156935   5.695   2.426  13.612 -0.2584  0.0345  0.0633
11840TIP3    H256936   5.690   2.289  13.547 -0.3652 -0.8664  1.9082
11841TIP3   OH256937   6.919   5.197   9.636 -0.5236 -0.2403 -0.4257
11841TIP3    H156938   6.925   5.287   9.604 -1.8238 -0.3749 -1.0832
11841TIP3    H256939   6.850   5.200   9.702  1.2359 -0.2369  1.5184
11842TIP3   OH256940   2.204   4.857  12.798  0.0541 -0.2489  0.1372
11842TIP3    H156941   2.292   4.833  12.770  0.4542  0.9135  0.3401
11842TIP3    H256942   2.189   4.944  12.760 -0.7382 -0.1339  0.6806
11843TIP3   OH256943   4.723   3.917  13.009 -0.3695  0.0707  0.1622
11843TIP3    H156944   4.712   3.917  12.913 -0.1510  0.1401  0.1383
11843TIP3    H256945   4.666   3.847  13.039  1.4647 -1.6609 -0.2191
11844TIP3   OH256946   3.094   2.343   4.149  0.2325  0.1270  0.1662
11844TIP3    H156947   3.083   2.289   4.071 -1.4905  1.8909 -0.8910
11844TIP3    H256948   3.009   2.384   4.162  0.4687 -0.1394  3.0392
11845TIP3   OH256949   2.314   5.963  14.935  0.2971  0.4100 -0.0886
11845TIP3    H156950   2.373   5.888  14.947  0.1405  0.2412 -0.3549
11845TIP3    H256951   2.270   5.973  15.019  1.3864  1.1337  0.4301
11846TIP3   OH256952   1.263   2.720  15.484 -0.5798 -0.1777  0.2754
11846TIP3    H156953   1.290   2.792  15.542 -1.9374  1.1699 -0.6952
11846TIP3    H256954   1.255   2.645  15.542  1.4234  0.2658  1.2451
11847TIP3   OH256955   0.021   5.432  15.307  0.3221 -0.4468  0.2854
11847TIP3    H156956  -0.015   5.344  15.293 -1.0830  0.3926 -1.8332
11847TIP3    H256957   0.089   5.441  15.240  0.3869  0.1271  0.4261
11848TIP3   OH256958   2.379   3.687   3.814  0.6690 -0.2122 -0.4260
11848TIP3    H156959   2.345   3.762   3.862 -0.7062 -0.7058 -0.5866
11848TIP3    H256960   2.408   3.625   3.881 -0.2034 -0.4300 -0.2428
11849TIP3   OH256961   0.063   4.828   0.136  0.6323 -0.3376  0.6399
11849TIP3    H156962  -0.031   4.834   0.153  0.5575 -1.3667  0.6691
11849TIP3    H256963   0.080   4.734   0.130  1.6208 -0.1531  0.4015
11850TIP3   OH256964   5.036   6.013   3.946  0.5895  0.1549  0.2074
11850TIP3    H156965   5.012   6.012   4.039 -1.3254  0.1046 -0.2478
11850TIP3    H256966   5.131   6.002   3.946  0.8611  1.8536  2.2232
11851TIP3   OH256967   5.760   3.554  15.367  0.6208 -0.1744 -0.0392
11851TIP3    H156968   5.670   3.576  15.393  1.4116  2.2969  0.9841
11851TIP3    H256969   5.782   3.477  15.418 -0.7946 -0.6071 -0.0429
11852TIP3   OH256970   2.512   0.412  10.922 -0.3985 -0.0640 -0.1456
11852TIP3    H156971   2.437   0.377  10.970 -1.1030  1.4779 -0.0505
11852TIP3    H256972   2.475   0.484  10.870  1.1231  1.2806  0.5374
11853TIP3   OH256973   2.825   3.629   0.807 -0.2321 -0.4227  0.2946
11853TIP3    H156974   2.774   3.665   0.735 -0.5575 -0.8541  0.3073
11853TIP3    H256975   2.879   3.702   0.837 -2.4053  0.7159  1.7042
11854TIP3   OH256976   4.064   5.104   5.014  0.4280 -0.0618 -0.2418
11854TIP3    H156977   3.997   5.163   5.048 -0.3387 -0.4926 -0.9640
11854TIP3    H256978   4.114   5.077   5.091 -0.6048 -0.1891  0.3991
11855TIP3   OH256979   2.761   1.907  14.797 -0.7841  0.7208 -0.4003
11855TIP3    H156980   2.843   1.892  14.749 -0.0686 -0.2044  1.0328
11855TIP3    H256981   2.789   1.920  14.887 -2.2604 -0.2612  0.2276
11856TIP3   OH256982   3.698   3.812  11.363  0.0952 -0.3465  0.2065
11856TIP3    H156983   3.693   3.828  11.269 -0.5608  0.0302  0.2945
11856TIP3    H256984   3.666   3.723  11.374  1.3078 -0.8280 -0.0365
11857TIP3   OH256985   1.752   5.237   3.541  0.3437 -0.1064  0.4372
11857TIP3    H156986   1.734   5.317   3.591 -1.3946  0.3980 -0.8860
11857TIP3    H256987   1.703   5.169   3.588  2.8604 -0.7560  2.3202
11858TIP3   OH256988   0.245   1.343   4.641 -0.0940  0.5424 -0.3544
11858TIP3    H156989   0.208   1.387   4.717  1.1499  0.3477  0.3947
11858TIP3    H256990   0.170   1.327   4.584 -1.0825  0.5937  0.8721
11859TIP3   OH256991   2.334   5.019   1.963  0.4600 -0.1875 -0.2238
11859TIP3    H156992   2.362   5.109   1.980 -1.4668 -0.0136  2.5616
11859TIP3    H256993   2.329   5.014   1.867  1.5679  2.3315 -0.5024
11860TIP3   OH256994   2.918   0.753   4.174  0.0418 -1.0534  0.7636
11860TIP3    H156995   2.866   0.789   4.101 -0.4446  0.5725  1.8395
11860TIP3    H256996   2.920   0.659   4.158 -1.8444 -0.9848 -0.2278
11861TIP3   OH256997   3.195   4.926   3.782  0.2326  0.3467  0.5020
11861TIP3    H156998   3.286   4.952   3.796  0.6386  0.9549 -2.5591
11861TIP3    H256999   3.196   4.831   3.789  1.3831  0.2528 -0.5536
11862TIP3   OH257000   0.472   5.805  13.823  0.2290  0.1497 -0.0600
11862TIP3    H157001   0.457   5.713  13.802 -1.9221  0.4119  0.0637
11862TIP3    H257002   0.499   5.804  13.915 -3.3124 -0.2319  1.1296
11863TIP3   OH257003   5.387   3.370   3.266 -0.5163  0.3007 -0.2413
11863TIP3    H157004   5.303   3.327   3.279 -0.8186  1.2385  0.9831
11863TIP3    H257005   5.429   3.367   3.352 -0.3056  1.9457 -0.2680
11864TIP3   OH257006   5.935   2.692   5.447 -0.0512 -0.1898 -0.1921
11864TIP3    H157007   5.929   2.783   5.475 -1.2292 -0.6804  1.2665
11864TIP3    H257008   5.870   2.646   5.500  0.5836 -1.9027 -0.8277
11865TIP3   OH257009   6.978   3.389  13.122  0.0191 -0.2753  0.2834
11865TIP3    H157010   6.916   3.317  13.131  0.6532 -1.2184 -2.1329
11865TIP3    H257011   7.016   3.399  13.209 -0.6597 -2.3361  0.8594
11866TIP3   OH257012   6.171   5.782   2.015  0.0923  0.0624 -0.2007
11866TIP3    H157013   6.079   5.806   2.028  0.0529 -0.0214 -0.3226
11866TIP3    H257014   6.194   5.731   2.092  0.6207  1.7622  0.8094
11867TIP3   OH257015   6.037   5.148  12.262 -0.1341 -0.2521  0.4912
11867TIP3    H157016   5.946   5.136  12.291 -0.8022 -0.4785 -1.5264
11867TIP3    H257017   6.029   5.191  12.177  1.7829  2.0453  1.3743
11868TIP3   OH257018   2.724   2.846   3.300 -0.6981  0.0871 -0.0740
11868TIP3    H157019   2.722   2.792   3.379  0.7463  0.9021  0.5503
11868TIP3    H257020   2.649   2.904   3.310  1.1364  2.2794  2.2948
11869TIP3   OH257021   6.562   6.299   3.499 -0.0778  0.4282 -0.2081
11869TIP3    H157022   6.469   6.278   3.509 -0.0079  0.6701  1.1196
11869TIP3    H257023   6.562   6.383   3.453 -0.5166  0.4528 -0.1704
11870TIP3   OH257024   4.624   3.087  11.170  0.0168  0.0311 -0.4077
11870TIP3    H157025   4.660   3.051  11.251 -1.8212  0.5050  0.6814
11870TIP3    H257026   4.544   3.132  11.197 -1.0364 -0.3918 -2.5810
11871TIP3   OH257027   4.859   5.113   6.139 -0.5413  0.3531  0.6584
11871TIP3    H157028   4.774   5.155   6.152 -0.3080  0.7846  0.8145
11871TIP3    H257029   4.855   5.032   6.190 -0.2192  1.2309  2.1276
11872TIP3   OH257030   6.491   1.521   3.692  0.1731 -0.8811 -0.0969
11872TIP3    H157031   6.466   1.520   3.784 -0.5078 -0.5130 -0.2749
11872TIP3    H257032   6.535   1.437   3.679 -1.3705 -1.7536  0.1214
11873TIP3   OH257033   4.552   0.973  15.246 -0.3514 -0.2589 -0.1998
11873TIP3    H157034   4.535   0.906  15.312 -1.0717  1.2053  1.1602
11873TIP3    H257035   4.643   0.998  15.260 -0.5287  0.1129  0.3224
11874TIP3   OH257036   5.625   0.043   1.836 -0.1737  0.7145 -0.1570
11874TIP3    H157037   5.590  -0.041   1.808  0.4957  0.3073  0.2096
11874TIP3    H257038   5.583   0.107   1.778  2.3339 -0.1821 -3.2686
11875TIP3   OH257039   3.118   5.155   4.318 -0.2632 -0.5100  0.4428
11875TIP3    H157040   3.172   5.092   4.366  0.4333  2.1374  3.4192
11875TIP3    H257041   3.028   5.132   4.342 -0.1227 -1.2032  0.3409
11876TIP3   OH257042   6.071   2.620  11.814  0.3830 -0.1376 -0.3412
11876TIP3    H157043   6.096   2.710  11.834  1.0626 -0.4912  0.4838
11876TIP3    H257044   6.052   2.620  11.721  0.5324  0.8267 -0.3781
11877TIP3   OH257045   4.848   3.281  13.859 -0.2067  0.2738 -0.4399
11877TIP3    H157046   4.774   3.323  13.817  0.3371  2.9551  1.0923
11877TIP3    H257047   4.855   3.323  13.945  2.9245 -0.0002 -0.4382
11878TIP3   OH257048   4.871   2.838  15.545 -0.2088  0.4656 -0.6540
11878TIP3    H157049   4.924   2.821  15.623  0.0172 -3.1017 -1.3941
11878TIP3    H257050   4.792   2.881  15.579 -0.6034 -1.9002  1.8083
11879TIP3   OH257051   7.118   1.227  12.256  0.1630 -0.3857 -0.2855
11879TIP3    H157052   7.136   1.134  12.272  2.7338  0.1778  0.6190
11879TIP3    H257053   7.136   1.239  12.163 -0.0689 -0.7516 -0.3813
11880TIP3   OH257054   1.558   5.323  10.438  0.2219 -0.6996  0.0724
11880TIP3    H157055   1.498   5.285  10.502  1.5864 -1.2339  1.0768
11880TIP3    H257056   1.588   5.404  10.479 -0.4451  0.0098 -0.8017
11881TIP3   OH257057   3.109   2.835  12.116  0.1289  0.3271 -0.0110
11881TIP3    H157058   3.117   2.922  12.077  0.1276  0.4703  0.3079
11881TIP3    H257059   3.196   2.817  12.152 -0.0256  0.4224  0.4018
11882TIP3   OH257060   6.423   2.915   1.568  0.4562 -0.7670  0.0081
11882TIP3    H157061   6.402   3.008   1.562  0.5750 -0.7296  0.1652
11882TIP3    H257062   6.452   2.891   1.479 -0.0154 -0.7647 -0.1502
11883TIP3   OH257063   0.637   0.351  12.453 -0.0814  0.3771 -0.5381
11883TIP3    H157064   0.655   0.269  12.408 -1.3850  0.0011 -0.4263
11883TIP3    H257065   0.552   0.379  12.418 -1.4251 -0.1981  1.9983
11884TIP3   OH257066   3.261   6.130   0.768 -0.2073 -0.0415  0.4839
11884TIP3    H157067   3.252   6.042   0.807  0.7618 -0.6718 -0.6349
11884TIP3    H257068   3.324   6.174   0.826 -0.2148 -0.3064  0.7007
11885TIP3   OH257069   5.633   4.048   4.356 -0.0458 -0.1784  0.6022
11885TIP3    H157070   5.698   3.980   4.372  0.7535  0.2421 -0.6973
11885TIP3    H257071   5.645   4.071   4.264 -1.1992  0.7901  0.6715
11886TIP3   OH257072   1.357   3.531   0.309 -0.2917 -0.0984  0.1316
11886TIP3    H157073   1.328   3.614   0.270 -0.4844 -0.3191 -0.2024
11886TIP3    H257074   1.301   3.465   0.267  0.7824 -0.5454 -0.6319
11887TIP3   OH257075   3.955   6.035  13.798 -0.1639  0.3998 -0.1787
11887TIP3    H157076   4.047   6.050  13.818  0.4580 -1.3755 -1.4836
11887TIP3    H257077   3.935   6.097  13.729  0.6016 -0.4457 -1.1864
11888TIP3   OH257078   0.856   4.292  12.214 -0.1321  0.4938 -0.0762
11888TIP3    H157079   0.945   4.256  12.209 -0.8887 -1.3777 -0.8601
11888TIP3    H257080   0.809   4.232  12.271 -1.1015  1.0185 -0.3090
11889TIP3   OH257081   1.938   3.558   3.695  0.0947  0.1060 -0.0346
11889TIP3    H157082   1.855   3.518   3.667  0.4114 -0.4781 -0.1428
11889TIP3    H257083   1.991   3.484   3.724 -0.3156  0.6902  2.4144
11890TIP3   OH257084   6.211   2.950  12.279 -0.2104 -0.4105 -0.0736
11890TIP3    H157085   6.217   3.043  12.254 -1.4212  0.1600  1.6221
11890TIP3    H257086   6.296   2.913  12.253  0.9405  1.5491  0.6700
11891TIP3   OH257087   5.193   5.022   0.023  0.0724  0.3713 -0.0490
11891TIP3    H157088   5.252   5.043   0.095 -0.8774  0.5863  0.6869
11891TIP3    H257089   5.195   5.100  -0.033 -1.4413  1.4666  1.3174
11892TIP3   OH257090   4.050   4.786  11.820 -0.5125  0.0214 -0.1248
11892TIP3    H157091   4.120   4.729  11.853 -0.4691 -0.4293 -0.9550
11892TIP3    H257092   3.969   4.745  11.850 -0.4224  1.2599  1.9696
11893TIP3   OH257093   3.677   3.225   5.408  0.2075 -0.4527  0.1607
11893TIP3    H157094   3.758   3.242   5.360 -0.0846  1.8343  0.4043
11893TIP3    H257095   3.704   3.170   5.482  1.6180  0.5891  0.4491
11894TIP3   OH257096   2.213   4.644   4.585  0.1695  0.2045  0.3196
11894TIP3    H157097   2.281   4.664   4.650  1.4028 -0.8355 -0.5988
11894TIP3    H257098   2.232   4.704   4.513 -0.6732  0.7592  0.5416
11895TIP3   OH257099   4.114   2.232  13.344 -0.1823  0.3877  0.1068
11895TIP3    H157100   4.152   2.300  13.401 -0.2050  0.1255  0.4371
11895TIP3    H257101   4.133   2.262  13.255  1.9252 -0.3689  0.2548
11896TIP3   OH257102   2.736   4.981   1.051  0.0429 -0.1069 -0.3344
11896TIP3    H157103   2.644   4.960   1.035 -0.2089  1.8442 -1.8859
11896TIP3    H257104   2.780   4.963   0.968  0.5863  1.1687 -0.3543
11897TIP3   OH257105   1.376   2.546  14.612 -0.0992 -0.8220 -0.2466
11897TIP3    H157106   1.406   2.624  14.659  0.0889 -1.3024  0.4479
11897TIP3    H257107   1.367   2.575  14.522 -0.0234  0.0062 -0.0010
11898TIP3   OH257108   6.551   5.267  13.070 -0.5634 -0.0391 -0.3266
11898TIP3    H157109   6.529   5.287  12.979  0.5573  0.8359 -0.4365
11898TIP3    H257110   6.588   5.349  13.104 -0.3318 -0.5558  0.7078
11899TIP3   OH257111   0.156   5.949  11.283  0.0661  0.0581 -0.4118
11899TIP3    H157112   0.063   5.969  11.273 -0.4237 -0.4853  2.2295
11899TIP3    H257113   0.193   5.958  11.195 -2.3433  0.9198 -1.4051
11900TIP3   OH257114   3.549   3.887   3.494  0.3352  0.0661 -0.0297
11900TIP3    H157115   3.576   3.801   3.527 -0.0520 -0.3583 -0.7932
11900TIP3    H257116   3.454   3.886   3.500  0.2545 -0.0210 -1.1274
11901TIP3   OH257117   1.550   6.012  13.129  0.2438 -0.1326 -0.3541
11901TIP3    H157118   1.472   5.957  13.125  0.2655 -0.1877 -0.0004
11901TIP3    H257119   1.528   6.080  13.193  0.1677  0.3505 -0.8822
11902TIP3   OH257120   0.813   6.882   1.763 -0.2168 -0.4248  0.6575
11902TIP3    H157121   0.763   6.848   1.689  2.4898 -1.9671 -0.6274
11902TIP3    H257122   0.760   6.861   1.840 -3.8888  2.6212 -0.7670
11903TIP3   OH257123   1.169   0.482  11.387  0.2310 -0.0928  0.0547
11903TIP3    H157124   1.219   0.407  11.419  0.8281 -0.0341 -0.6912
11903TIP3    H257125   1.085   0.444  11.359  0.2988 -0.3831  0.2382
11904TIP3   OH257126   6.616   6.923  11.939 -0.5592  0.4201 -0.2568
11904TIP3    H157127   6.579   6.869  12.008  1.1093  0.8024  0.9810
11904TIP3    H257128   6.610   7.012  11.973  0.4863  0.5867 -0.4948
11905TIP3   OH257129   6.649   4.824   6.024 -0.6595 -0.3956 -0.0525
11905TIP3    H157130   6.737   4.849   5.995 -0.0647 -2.3045 -0.0379
11905TIP3    H257131   6.595   4.900   6.002  0.9152  0.6998 -0.3685
11906TIP3   OH257132   6.737   4.245  15.061  0.4282 -0.0126 -0.0016
11906TIP3    H157133   6.762   4.178  15.124  0.6574 -2.0468 -2.1142
11906TIP3    H257134   6.818   4.291  15.041  0.4967  0.1365  0.6022
11907TIP3   OH257135   5.524   4.094  12.130  0.5390 -0.1769 -0.0525
11907TIP3    H157136   5.544   4.159  12.062 -1.5672  0.7700  0.1515
11907TIP3    H257137   5.551   4.136  12.212 -0.4225  0.2957  0.0366
11908TIP3   OH257138   6.017   2.727  13.916 -0.1646  0.2724 -0.0294
11908TIP3    H157139   5.988   2.647  13.870 -1.2353  1.0298 -0.7218
11908TIP3    H257140   5.960   2.796  13.882  0.7843  1.3582  0.5130
11909TIP3   OH257141   3.702   5.388   4.198  0.1285  0.2851 -0.2329
11909TIP3    H157142   3.717   5.384   4.293  0.2351 -0.1410 -0.2650
11909TIP3    H257143   3.766   5.327   4.161  0.4246  0.8222 -0.6218
11910TIP3   OH257144   6.518   5.632   4.385 -0.0482 -0.0744 -0.4094
11910TIP3    H157145   6.445   5.689   4.408 -1.0041 -1.6311  0.6142
11910TIP3    H257146   6.587   5.654   4.448 -0.5346 -0.2703  0.1995
11911TIP3   OH257147   4.065   3.176   0.618 -0.1208  0.3012 -0.4567
11911TIP3    H157148   4.081   3.117   0.691 -2.2590 -1.0222 -0.9555
11911TIP3    H257149   4.078   3.121   0.540 -2.5619  0.2903 -0.9251
11912TIP3   OH257150   3.195   5.992  12.233 -0.1765  0.1871  0.7820
11912TIP3    H157151   3.100   6.000  12.223 -0.1066  1.1031  0.7576
11912TIP3    H257152   3.212   6.025  12.321  0.0404 -0.7523  1.1089
11913TIP3   OH257153   0.192   4.390  11.303  1.1018  0.0624  0.1371
11913TIP3    H157154   0.219   4.456  11.367  0.1709  1.4033 -0.8122
11913TIP3    H257155   0.100   4.409  11.286  0.3864 -2.3418  0.8307
11914TIP3   OH257156   2.884   6.335   0.724 -0.0120 -0.1536 -0.3055
11914TIP3    H157157   2.956   6.293   0.677 -0.4055  0.2856 -1.3348
11914TIP3    H257158   2.924   6.411   0.766  0.4245 -0.7755  0.4120
11915TIP3   OH257159   5.697   3.171   9.279  0.1584  0.3246  1.0178
11915TIP3    H157160   5.702   3.163   9.183 -1.7554  1.1387  0.7993
11915TIP3    H257161   5.743   3.094   9.312 -0.4092 -0.7637 -0.5882
11916TIP3   OH257162   7.017   4.598   0.349  0.2660  0.0861  0.1924
11916TIP3    H157163   7.098   4.633   0.386 -0.5620  0.6893  1.5315
11916TIP3    H257164   6.947   4.649   0.392 -0.8549 -1.0962 -0.1620
11917TIP3   OH257165   3.709   6.437  12.009 -0.0553  0.5016 -0.3604
11917TIP3    H157166   3.616   6.432  11.986 -0.1431 -1.1858  0.1800
11917TIP3    H257167   3.735   6.526  11.988 -1.0307  0.1631 -3.4131
11918TIP3   OH257168   6.365   0.694   1.638  0.3593 -0.0103 -0.0821
11918TIP3    H157169   6.394   0.759   1.574  1.0060 -0.5868 -0.3880
11918TIP3    H257170   6.434   0.693   1.704 -0.7960  1.3376  1.2228
11919TIP3   OH257171   4.298   0.471   2.222 -0.2869  0.3697 -0.4780
11919TIP3    H157172   4.272   0.389   2.181 -0.1861  0.3292 -0.4615
11919TIP3    H257173   4.258   0.539   2.168  2.1487  0.4535 -2.3593
11920TIP3   OH257174   1.341   6.969   2.658 -0.2101 -0.3169 -0.4184
11920TIP3    H157175   1.383   7.009   2.582  1.5339 -0.1604  0.5899
11920TIP3    H257176   1.384   6.884   2.667 -1.9475 -1.3054 -0.8792
11921TIP3   OH257177   0.222   4.158  14.110 -0.2821 -0.0160  0.3236
11921TIP3    H157178   0.313   4.131  14.103 -0.1975  0.1721  0.7267
11921TIP3    H257179   0.173   4.087  14.068  0.2220  1.0712 -2.2927
11922TIP3   OH257180   2.132   4.055   3.427  0.3380  0.0381 -0.4357
11922TIP3    H157181   2.054   4.111   3.438  0.3066  0.1594 -1.2016
11922TIP3    H257182   2.097   3.966   3.426 -0.0342  0.1552 -2.4975
11923TIP3   OH257183   2.735   6.004  15.105  0.5768  0.3867  0.5992
11923TIP3    H157184   2.802   5.938  15.123 -1.7540 -2.0644  1.0031
11923TIP3    H257185   2.720   6.046  15.190 -0.7450 -1.5312  1.3968
11924TIP3   OH257186   0.830   2.453  10.180  0.4861  0.3731 -0.3907
11924TIP3    H157187   0.768   2.414  10.117  1.7125 -1.4951 -0.5226
11924TIP3    H257188   0.912   2.459  10.132  1.1046  0.1762  0.6185
11925TIP3   OH257189   5.291   3.086  14.940 -0.0421 -0.6511  0.5235
11925TIP3    H157190   5.214   3.064  14.887 -0.5271 -0.3160  1.0755
11925TIP3    H257191   5.317   3.173  14.909  0.4820 -1.0060 -0.0679
11926TIP3   OH257192   0.689   2.307   2.393 -0.1527 -0.1053 -0.1177
11926TIP3    H157193   0.676   2.247   2.320  0.2708  0.1865 -0.4427
11926TIP3    H257194   0.746   2.260   2.454 -0.1114 -0.1677 -0.2049
11927TIP3   OH257195   7.113   0.744  11.735  0.0243 -0.1817  0.0015
11927TIP3    H157196   7.169   0.822  11.739  0.4299 -0.1711 -3.1156
11927TIP3    H257197   7.167   0.673  11.768 -0.2729  0.7094  2.6779
11928TIP3   OH257198   0.751   1.038  10.278 -0.2291 -0.9074  0.4992
11928TIP3    H157199   0.846   1.032  10.287  0.0062  0.0153 -1.0501
11928TIP3    H257200   0.717   0.962  10.326  1.2880 -1.3071  0.9809
11929TIP3   OH257201   3.220   3.537   3.093  0.6900  0.7588 -0.3943
11929TIP3    H157202   3.224   3.526   3.188 -1.3712  0.5377 -0.3001
11929TIP3    H257203   3.291   3.480   3.060  0.8380  0.1195  0.9518
11930TIP3   OH257204   6.860   1.918   2.030 -0.1887 -0.1147  0.1086
11930TIP3    H157205   6.786   1.969   1.998 -0.3667 -0.6855 -0.4132
11930TIP3    H257206   6.868   1.845   1.968  0.0677 -0.7087  0.8173
11931TIP3   OH257207   2.823   3.997   1.339 -0.2100 -0.5390  0.6965
11931TIP3    H157208   2.781   3.932   1.396  0.5621 -2.5231 -0.8846
11931TIP3    H257209   2.855   3.946   1.264  0.2240  1.7333 -0.7441
11932TIP3   OH257210   4.179   2.661   3.484 -0.4081  0.2484 -0.3850
11932TIP3    H157211   4.271   2.634   3.483 -1.0838 -2.5985  1.7228
11932TIP3    H257212   4.174   2.727   3.553 -0.2725 -1.2837  1.1536
11933TIP3   OH257213   2.867   3.595  14.116 -0.3677  0.4878 -0.2465
11933TIP3    H157214   2.783   3.553  14.139 -0.0671 -0.4639 -0.8211
11933TIP3    H257215   2.843   3.682  14.086 -1.4053 -0.4909 -2.4962
11934TIP3   OH257216   5.763   5.479   5.718 -0.5999  0.2360  0.2730
11934TIP3    H157217   5.672   5.507   5.730 -0.6380 -0.3719  1.5169
11934TIP3    H257218   5.766   5.444   5.629 -1.4809  0.6507  0.0737
11935TIP3   OH257219   1.355   1.339  10.750  0.8680  0.1446  0.1325
11935TIP3    H157220   1.390   1.417  10.707 -0.6268 -0.1618 -1.7922
11935TIP3    H257221   1.424   1.274  10.742  1.3267  0.6515 -0.1165
11936TIP3   OH257222   1.343   4.239  11.387  0.4392  0.2172  0.7077
11936TIP3    H157223   1.252   4.222  11.364  0.2620  0.4429  1.2313
11936TIP3    H257224   1.351   4.334  11.385  0.5420  0.2174  1.1266
11937TIP3   OH257225   6.553   6.728   1.166  0.4227 -0.5512  0.3425
11937TIP3    H157226   6.589   6.649   1.124  0.3719 -1.8420  2.5563
11937TIP3    H257227   6.547   6.704   1.259  1.2878  2.4128  1.2576
11938TIP3   OH257228   4.830   0.215   4.423  0.1600  0.0296  0.3204
11938TIP3    H157229   4.847   0.126   4.392  0.4156 -0.1663  0.9957
11938TIP3    H257230   4.735   0.222   4.425  0.1407  0.0031 -0.3664
11939TIP3   OH257231   2.085   5.583  13.838  0.4339  0.1023  0.6997
11939TIP3    H157232   2.101   5.673  13.867  0.1236  0.1169  0.8350
11939TIP3    H257233   2.020   5.591  13.768 -0.7513 -0.1157  1.7295
11940TIP3   OH257234   5.560   0.730  15.282  0.3525 -0.6147 -0.0726
11940TIP3    H157235   5.557   0.638  15.308  0.9277 -0.7262 -0.3892
11940TIP3    H257236   5.509   0.733  15.201 -1.2076 -0.3156  0.8840
11941TIP3   OH257237   7.124   0.990   3.021 -0.7498 -0.7940 -0.3124
11941TIP3    H157238   7.042   1.031   3.050  1.1300  1.0809  2.9131
11941TIP3    H257239   7.126   0.907   3.069 -0.0296 -0.0432  1.0113
11942TIP3   OH257240   0.233   0.352   4.033 -0.0911 -0.3135  0.0532
11942TIP3    H157241   0.318   0.322   4.065  0.1657 -0.5835 -0.8555
11942TIP3    H257242   0.241   0.350   3.937 -1.7643 -2.2827 -0.1315
11943TIP3   OH257243   5.097   5.217   9.374  0.7499  0.0566 -0.5996
11943TIP3    H157244   5.097   5.306   9.408  0.8209  0.5623 -1.8935
11943TIP3    H257245   5.005   5.195   9.365  0.7240 -0.2207  0.2431
11944TIP3   OH257246   6.410   2.788   1.310  0.1144  0.2964 -0.8954
11944TIP3    H157247   6.403   2.871   1.264 -0.5384  1.1589  0.6926
11944TIP3    H257248   6.327   2.778   1.357  0.5587 -0.7697 -0.2807
11945TIP3   OH257249   2.402   2.074   2.469  0.4343 -0.3037 -0.0731
11945TIP3    H157250   2.435   2.152   2.425  0.4361  0.2724  0.9179
11945TIP3    H257251   2.418   2.003   2.407 -0.6394  0.6397 -1.5068
11946TIP3   OH257252   0.858   6.745   4.994  0.5069 -0.1104  0.6541
11946TIP3    H157253   0.822   6.732   5.082  0.4258 -0.3904  0.5798
11946TIP3    H257254   0.941   6.698   4.994 -0.4373 -1.8661 -0.0542
11947TIP3   OH257255   2.774   1.511  13.427  0.2015  0.2716  0.0292
11947TIP3    H157256   2.813   1.482  13.510 -0.9559 -0.7385  0.2368
11947TIP3    H257257   2.714   1.581  13.453 -1.5667 -1.2846  0.3313
11948TIP3   OH257258   6.559   4.508   2.945  0.8590 -0.6827  0.1396
11948TIP3    H157259   6.646   4.481   2.975  1.1662  0.2535  0.1348
11948TIP3    H257260   6.556   4.602   2.963 -0.5390 -0.8882  1.0734
11949TIP3   OH257261   4.301   3.349   3.263 -0.0243  0.1098 -0.5608
11949TIP3    H157262   4.207   3.357   3.248 -0.2769 -0.2875  0.7447
11949TIP3    H257263   4.315   3.257   3.283  1.0072 -0.3247 -2.9464
11950TIP3   OH257264   0.532   2.729   4.777  0.0368  0.6462 -0.2316
11950TIP3    H157265   0.614   2.681   4.788 -0.9713 -0.5364  3.2431
11950TIP3    H257266   0.558   2.821   4.783  1.1854  0.3183  0.2869
11951TIP3   OH257267   6.812   1.328  12.003  0.1067  0.1662 -0.2055
11951TIP3    H157268   6.834   1.402  12.059  1.7510  1.3117 -2.2389
11951TIP3    H257269   6.757   1.365  11.934  1.2588 -0.3741 -1.4602
11952TIP3   OH257270   0.549   2.189   0.608  0.4713  0.2698  0.2502
11952TIP3    H157271   0.548   2.277   0.646 -0.9853  0.7578 -0.8107
11952TIP3    H257272   0.507   2.199   0.523 -0.5141 -1.5928  0.4499
11953TIP3   OH257273   2.045   6.138   9.961  0.0156 -0.7520 -0.4443
11953TIP3    H157274   2.085   6.212  10.005  0.3711 -2.0716  1.5959
11953TIP3    H257275   2.098   6.124   9.883  0.9613  0.0900  0.0299
11954TIP3   OH257276   6.349   6.117   3.066  0.8881 -0.0080 -0.3674
11954TIP3    H157277   6.255   6.135   3.068  1.0932  1.1479  0.4337
11954TIP3    H257278   6.378   6.148   2.980  0.3476 -1.5878 -1.1546
11955TIP3   OH257279   5.869   1.577   2.699 -0.3276  0.2133 -0.0110
11955TIP3    H157280   5.932   1.507   2.717 -1.0280 -0.4755 -0.2041
11955TIP3    H257281   5.824   1.591   2.782 -1.5221 -0.9258 -0.4307
11956TIP3   OH257282   6.191   2.213  11.775 -0.3954  0.2927  0.2226
11956TIP3    H157283   6.144   2.179  11.699  0.8007 -1.8733  0.4003
11956TIP3    H257284   6.126   2.209  11.846 -0.6917 -0.2992 -0.0734
11957TIP3   OH257285   0.714   2.708   0.037  0.6491 -0.7241 -0.4264
11957TIP3    H157286   0.718   2.802   0.055  0.1803 -0.8949  0.6177
11957TIP3    H257287   0.729   2.702  -0.058  0.9688  0.3748 -0.4643
11958TIP3   OH257288   5.125   5.820   5.995 -0.0181  0.3639  0.2485
11958TIP3    H157289   5.100   5.888   6.058 -0.2229  1.0485 -0.5476
11958TIP3    H257290   5.206   5.854   5.956 -0.5125  0.5067 -0.6685
11959TIP3   OH257291   3.372   3.761   0.032  0.3531  0.1198  0.2190
11959TIP3    H157292   3.400   3.851   0.020  0.5072 -0.1659 -1.9896
11959TIP3    H257293   3.450   3.709   0.012 -0.2144 -0.5263 -0.3755
11960TIP3   OH257294   3.444   2.499   3.718 -0.0929 -0.3708  0.0963
11960TIP3    H157295   3.380   2.447   3.669 -1.3898  0.7876  0.4820
11960TIP3    H257296   3.529   2.470   3.687 -0.8550 -0.7157 -1.7517
11961TIP3   OH257297   3.075   1.009   0.900  0.3024  0.3718 -0.0107
11961TIP3    H157298   3.158   1.021   0.854  0.5868 -2.1319 -0.2845
11961TIP3    H257299   3.046   1.098   0.921  1.2978  1.5111 -2.9504
11962TIP3   OH257300   3.166   3.804   1.760 -0.0933 -0.4083  0.2031
11962TIP3    H157301   3.149   3.866   1.831  1.2298  0.8993 -0.5474
11962TIP3    H257302   3.080   3.767   1.738 -1.0648  1.6593  0.2700
11963TIP3   OH257303   4.512   4.307   1.262  0.3580  0.1151  0.1081
11963TIP3    H157304   4.598   4.277   1.233  0.4444 -0.2141  0.7059
11963TIP3    H257305   4.463   4.227   1.281 -0.1960  0.2890 -0.5387
11964TIP3   OH257306   4.648   4.786   3.651 -0.8249 -0.0842 -0.3814
11964TIP3    H157307   4.740   4.780   3.679 -0.4655  0.1766 -1.4590
11964TIP3    H257308   4.632   4.704   3.605 -1.0926 -0.0753 -0.3018
11965TIP3   OH257309   5.255   5.501   6.337 -1.1531  0.4978  0.3479
11965TIP3    H157310   5.321   5.570   6.344  0.3111 -0.7350 -0.6642
11965TIP3    H257311   5.209   5.521   6.256 -0.2284 -0.0975 -0.3436
11966TIP3   OH257312   0.533   4.838   0.255 -0.0689  0.4140  0.1503
11966TIP3    H157313   0.527   4.767   0.191  0.0414 -1.6456  2.2717
11966TIP3    H257314   0.465   4.900   0.230 -2.7234 -2.2584  0.2608
11967TIP3   OH257315   6.121   5.711   4.725 -0.3834 -0.0032  0.5646
11967TIP3    H157316   6.052   5.761   4.767  0.2083  1.6693 -0.3418
11967TIP3    H257317   6.188   5.776   4.702  0.4838 -1.2194 -0.5736
11968TIP3   OH257318   2.735   6.731  15.360 -0.6964  0.3161  0.3156
11968TIP3    H157319   2.825   6.741  15.391 -0.3027 -0.7851 -0.4078
11968TIP3    H257320   2.691   6.680  15.428 -0.5261  0.0976  0.2641
11969TIP3   OH257321   6.012   2.750   4.664 -0.5766  0.0160 -0.1351
11969TIP3    H157322   6.017   2.787   4.576 -1.9036  0.8105  0.1023
11969TIP3    H257323   5.952   2.807   4.711  0.0324 -0.4552  1.2740
11970TIP3   OH257324   2.479   1.257  14.653  0.8632  0.5806 -0.2483
11970TIP3    H157325   2.455   1.294  14.568  0.6519  0.6863 -0.1427
11970TIP3    H257326   2.434   1.172  14.656 -0.0114  1.0566  0.2150
11971TIP3   OH257327   1.800   0.939   2.948 -0.1758  0.4618  0.3919
11971TIP3    H157328   1.822   0.850   2.974  0.3589  0.8639  1.3506
11971TIP3    H257329   1.884   0.985   2.945 -0.2005  0.4862 -1.9708
11972TIP3   OH257330   0.419   1.117  13.182  0.4437  0.1287 -0.1489
11972TIP3    H157331   0.452   1.138  13.270  0.1395 -0.0722  0.0150
11972TIP3    H257332   0.368   1.037  13.194  0.6451 -0.0690 -0.5638
11973TIP3   OH257333   4.975   3.364   1.678  0.1340  0.2558  0.3752
11973TIP3    H157334   5.010   3.378   1.590  1.3047  1.4164  0.9801
11973TIP3    H257335   4.915   3.437   1.692 -0.0173  0.0983  0.5490
11974TIP3   OH257336   6.770   4.481   4.040 -0.0312  0.9551  0.0952
11974TIP3    H157337   6.745   4.495   4.131  1.4396 -0.4423  0.7669
11974TIP3    H257338   6.730   4.397   4.018 -0.3601  1.2773 -0.5648
11975TIP3   OH257339   6.895   2.848   1.837 -0.4182 -0.0433  0.3374
11975TIP3    H157340   6.943   2.860   1.919 -1.4806 -1.7917  1.2794
11975TIP3    H257341   6.866   2.936   1.812  1.5427  0.7821  0.7725
11976TIP3   OH257342   3.192   4.182   5.370 -0.5490  0.3156  0.1793
11976TIP3    H157343   3.263   4.215   5.426 -0.5350 -0.4684  0.6302
11976TIP3    H257344   3.112   4.207   5.416 -0.5913  1.3541 -0.4149
11977TIP3   OH257345   2.938   2.539   1.920 -0.7083  0.3627  0.3838
11977TIP3    H157346   2.921   2.450   1.953  0.3908 -0.1245 -0.3134
11977TIP3    H257347   2.952   2.591   1.999 -2.9001  0.2932  0.8893
11978TIP3   OH257348   5.909   2.615   2.005 -0.2019  1.0117 -0.2563
11978TIP3    H157349   5.898   2.524   2.030  0.3226  0.8140 -0.7215
11978TIP3    H257350   5.871   2.665   2.077  1.9375  0.4876  1.3227
11979TIP3   OH257351   5.027   6.630   3.132  0.0686  0.5743  0.4587
11979TIP3    H157352   5.051   6.691   3.063  0.3681  1.0712  0.9995
11979TIP3    H257353   4.946   6.666   3.169 -0.7999 -0.3561 -0.4413
11980TIP3   OH257354   5.133   1.228   2.266 -0.1610  0.3651  0.0315
11980TIP3    H157355   5.215   1.277   2.255 -0.8971  1.6840  0.2512
11980TIP3    H257356   5.153   1.164   2.334  0.4028  1.3419  0.8110
11981TIP3   OH257357   3.664   4.013   2.499  0.1245  0.4643 -0.1657
11981TIP3    H157358   3.698   3.972   2.420  1.3812 -0.6025  0.8705
11981TIP3    H257359   3.728   4.083   2.518  0.5438 -0.1080  0.5788
11982TIP3   OH257360   0.302   4.537  13.683 -0.1273  0.1194 -0.4243
11982TIP3    H157361   0.263   4.566  13.765 -1.0542 -1.5714 -0.2407
11982TIP3    H257362   0.267   4.449  13.668  0.4420  0.1610 -2.3510
11983TIP3   OH257363   1.582   3.379   1.125 -0.7805 -0.4060  0.3217
11983TIP3    H157364   1.589   3.416   1.036 -0.9233 -0.2116  0.3894
11983TIP3    H257365   1.597   3.454   1.183  2.1297 -1.0288  0.5038
11984TIP3   OH257366   6.960   0.566   5.862  0.2711 -0.9369  0.2136
11984TIP3    H157367   6.907   0.593   5.788 -1.5773  1.0172  2.1313
11984TIP3    H257368   7.022   0.638   5.875 -1.2404  0.0836  2.1727
11985TIP3   OH257369   0.868   1.681   5.822  0.0695 -0.1304 -0.8326
11985TIP3    H157370   0.776   1.683   5.850  0.5664 -0.9444  1.0272
11985TIP3    H257371   0.889   1.773   5.803 -0.3100  0.5638  1.7268
11986TIP3   OH257372   0.421   1.434   4.021 -0.1703  0.1336 -0.0294
11986TIP3    H157373   0.402   1.356   3.969 -1.0991  0.8724 -0.8362
11986TIP3    H257374   0.341   1.449   4.072  0.2525  0.1739  0.6386
11987TIP3   OH257375   6.561   5.155   1.209  0.7327 -0.3826 -0.0935
11987TIP3    H157376   6.652   5.185   1.218  0.9002 -1.3400  2.2750
11987TIP3    H257377   6.569   5.062   1.188  0.2548 -0.1075 -1.5817
11988TIP3   OH257378   5.597   6.979   2.532  0.6440  0.5577  0.2627
11988TIP3    H157379   5.606   7.017   2.444  1.1209 -0.1473  0.0014
11988TIP3    H257380   5.504   6.987   2.552  0.3293 -0.3057 -0.7887
11989TIP3   OH257381   1.974   6.246  15.092 -0.3271 -0.1866 -0.2753
11989TIP3    H157382   1.913   6.303  15.045  0.5818 -0.6066 -2.0390
11989TIP3    H257383   1.959   6.159  15.056  1.3456 -0.2880 -0.8131
11990TIP3   OH257384   3.310   3.954   2.722  0.7121 -0.1169  0.5619
11990TIP3    H157385   3.347   4.041   2.740  0.0776  0.2762  0.0245
11990TIP3    H257386   3.245   3.941   2.790  1.6880 -0.7342  1.4045
11991TIP3   OH257387   2.854   5.938   2.636  0.2377  0.1015 -0.3390
11991TIP3    H157388   2.838   6.031   2.653  0.1312 -0.1375  1.0505
11991TIP3    H257389   2.777   5.894   2.672  0.8386 -0.5950  0.1409
11992TIP3   OH257390   3.721   3.056  13.798  0.6235 -0.0608 -0.2799
11992TIP3    H157391   3.706   3.013  13.714  0.0089 -0.6823  0.1340
11992TIP3    H257392   3.728   2.984  13.861  1.3272  0.3847  0.1714
11993TIP3   OH257393   1.586   7.103  11.006 -0.0168 -0.1078 -0.0546
11993TIP3    H157394   1.499   7.066  10.995 -0.5474  1.7453 -4.1399
11993TIP3    H257395   1.593   7.167  10.934  4.5805  0.0547  0.2844
11994TIP3   OH257396   3.073   6.115   2.433  0.0825  0.1396  0.5374
11994TIP3    H157397   3.062   6.026   2.464 -0.7723  0.4835  1.2673
11994TIP3    H257398   3.106   6.163   2.509  2.4723  0.0767 -0.3681
11995TIP3   OH257399   1.634   3.427   3.926 -0.3594  0.4480  0.7156
11995TIP3    H157400   1.560   3.368   3.942 -0.4095  0.8880  2.2568
11995TIP3    H257401   1.687   3.382   3.860 -1.0016 -0.7718  1.0029
11996TIP3   OH257402   2.980   1.732  11.473 -0.0201 -0.5015  0.2170
11996TIP3    H157403   2.887   1.732  11.453  0.1160  1.7281 -0.7319
11996TIP3    H257404   3.016   1.804  11.421  2.0724 -0.6941  1.2726
11997TIP3   OH257405   3.172   6.222   0.022 -0.0200  0.2997  0.0852
11997TIP3    H157406   3.117   6.145   0.008 -1.3296  1.3765 -0.9688
11997TIP3    H257407   3.256   6.187   0.051  0.6966 -1.8849 -3.8334
11998TIP3   OH257408   6.562   2.477  12.122 -0.2481 -0.3415 -0.3489
11998TIP3    H157409   6.609   2.513  12.047  0.2112 -1.7393 -0.7647
11998TIP3    H257410   6.486   2.534  12.133  0.7039  1.0404 -0.6351
11999TIP3   OH257411   3.158   6.973   2.660  0.3209  0.1131 -0.2569
11999TIP3    H157412   3.233   6.914   2.665  0.5279  0.4521  1.2421
11999TIP3    H257413   3.085   6.917   2.633  0.6870 -0.6721  0.3275
12000TIP3   OH257414   0.002   5.934   1.069 -0.0081 -0.2466  0.3070
12000TIP3    H157415  -0.034   5.935   0.980  1.2369 -2.3605 -0.3063
12000TIP3    H257416   0.094   5.956   1.057 -0.2685  1.5766  1.3945
12001TIP3   OH257417   1.797   0.518   2.128  0.1409 -0.0861  0.4114
12001TIP3    H157418   1.798   0.511   2.032 -0.8539 -2.7100  0.5066
12001TIP3    H257419   1.724   0.463   2.155  0.8756 -0.0291  2.7287
12002TIP3   OH257420   2.541   0.033   3.932 -0.0435  0.1522  0.3883
12002TIP3    H157421   2.475   0.052   3.999 -1.2653  2.1999 -1.2528
12002TIP3    H257422   2.497  -0.025   3.870  0.7327 -0.8964  0.7999
12003TIP3   OH257423   5.038   6.239   4.649 -0.1072 -0.6913  0.0887
12003TIP3    H157424   5.032   6.312   4.587  3.1729  3.9957  4.4360
12003TIP3    H257425   5.111   6.186   4.616 -0.7800 -0.4931 -1.8182
12004TIP3   OH257426   0.821   2.806   3.208  0.3543  0.6646 -0.3415
12004TIP3    H157427   0.800   2.752   3.285 -0.0035 -0.3936 -1.1665
12004TIP3    H257428   0.916   2.804   3.203  0.4133  1.1706  0.3666
12005TIP3   OH257429   3.987   0.143   4.363 -0.1812  0.3796 -0.1491
12005TIP3    H157430   4.064   0.152   4.307  0.6006 -1.3012  0.5820
12005TIP3    H257431   4.017   0.089   4.437 -1.2643  2.1928  1.7218
12006TIP3   OH257432   6.029   3.520  10.285 -0.2857  0.1620  0.4373
12006TIP3    H157433   6.044   3.614  10.286 -0.4512  0.2132 -0.5602
12006TIP3    H257434   6.003   3.501  10.195 -1.3927 -0.6533  0.8983
12007TIP3   OH257435   2.473   0.214   3.043 -0.4858 -0.3762 -0.3421
12007TIP3    H157436   2.514   0.295   3.075 -1.4337  0.1765 -0.4784
12007TIP3    H257437   2.387   0.212   3.085 -1.0943 -0.4905 -1.5422
12008TIP3   OH257438   1.053   1.663   0.656 -0.1167 -0.2612  0.2599
12008TIP3    H157439   1.088   1.659   0.567  0.6974 -0.2733  0.5741
12008TIP3    H257440   1.045   1.756   0.676  2.5949 -0.1329  1.2509
12009TIP3   OH257441   0.612   5.202   2.762 -0.6958  0.3637  0.0474
12009TIP3    H157442   0.646   5.284   2.728  1.3484  0.0233  1.1202
12009TIP3    H257443   0.526   5.193   2.721 -0.0903  1.9715 -1.7329
12010TIP3   OH257444   2.037   1.626   3.227 -0.2404  0.1876  0.7223
12010TIP3    H157445   2.127   1.610   3.253  0.1471  1.5725  0.2848
12010TIP3    H257446   2.027   1.721   3.230 -1.4807  0.0997  0.1059
12011TIP3   OH257447   0.648   2.087   3.604 -0.1514 -0.4460 -0.3872
12011TIP3    H157448   0.620   2.053   3.688 -0.8629  0.0184 -0.4215
12011TIP3    H257449   0.567   2.098   3.554 -0.0768  1.8825 -0.1388
12012TIP3   OH257450   4.861   6.237   2.039  0.5844  0.1650  0.2291
12012TIP3    H157451   4.952   6.267   2.052  1.2066 -2.2567  2.0834
12012TIP3    H257452   4.855   6.220   1.945  1.9340  0.6842  0.0199
12013TIP3   OH257453   5.289   0.414   0.769 -0.8996 -0.1369  0.6725
12013TIP3    H157454   5.363   0.373   0.814 -0.9352  1.5324  2.3391
12013TIP3    H257455   5.324   0.442   0.685 -0.3424 -1.6528  0.3691
12014TIP3   OH257456   0.852   1.458  10.530  0.2312  0.2590 -0.7338
12014TIP3    H157457   0.870   1.485  10.620 -1.2299 -0.9840 -0.0302
12014TIP3    H257458   0.921   1.395  10.510 -0.1414 -0.4019 -0.0107
12015TIP3   OH257459   4.779   5.222   3.021 -0.1842 -0.0567  0.0405
12015TIP3    H157460   4.765   5.251   3.111  0.2922  0.1748  0.0441
12015TIP3    H257461   4.867   5.186   3.020  0.4427  1.4227 -0.6920
12016TIP3   OH257462   1.842   6.093   2.864 -0.0596 -0.3079 -0.4322
12016TIP3    H157463   1.786   6.067   2.791  0.1107 -1.2900 -0.2242
12016TIP3    H257464   1.783   6.139   2.925 -0.2583  0.2587 -1.0425
12017TIP3   OH257465   6.185   3.384  13.545  0.1230 -0.4262  0.2144
12017TIP3    H157466   6.122   3.361  13.614  0.1649  0.5303  0.5887
12017TIP3    H257467   6.134   3.377  13.464 -0.5259  0.4892  0.5248
12018TIP3   OH257468   3.422   4.508  13.057 -0.7868  0.8185  0.0897
12018TIP3    H157469   3.455   4.598  13.052 -1.4822  1.0234 -1.3861
12018TIP3    H257470   3.474   4.468  13.127 -0.4573  2.3509  0.7778
12019TIP3   OH257471   0.691   4.537   1.427 -0.1348  0.0592 -0.3997
12019TIP3    H157472   0.759   4.474   1.450 -1.2366 -1.0072  0.0716
12019TIP3    H257473   0.688   4.536   1.331 -0.1306 -0.6065 -0.3976
12020TIP3   OH257474   2.809   0.178   1.662  0.8820  0.1612  0.2553
12020TIP3    H157475   2.765   0.193   1.579 -0.4276  0.7026  1.0078
12020TIP3    H257476   2.782   0.252   1.717 -0.6651 -1.6134  2.0831
12021TIP3   OH257477   5.646   0.128   0.438 -0.3699  0.1732 -0.9683
12021TIP3    H157478   5.581   0.075   0.483  0.7605  1.3544  2.3811
12021TIP3    H257479   5.727   0.076   0.444  0.6301  1.7937  1.8987
12022TIP3   OH257480   1.122   4.522  14.843 -1.0214  0.2207 -0.2711
12022TIP3    H157481   1.091   4.445  14.796 -0.6013 -0.6736  0.8885
12022TIP3    H257482   1.217   4.512  14.848 -0.9521  0.8578 -0.1997
12023TIP3   OH257483   4.228   2.437  11.821  0.1308 -0.3748  0.0999
12023TIP3    H157484   4.199   2.525  11.845  2.4189  0.5452 -0.2406
12023TIP3    H257485   4.153   2.381  11.840 -1.6264  1.7168 -0.2629
12024TIP3   OH257486   5.933   1.661  12.539  0.7056  0.7773  0.0417
12024TIP3    H157487   5.881   1.741  12.532  0.0356  0.3339 -0.1846
12024TIP3    H257488   6.019   1.685  12.504  0.1149  1.0508 -1.2937
12025TIP3   OH257489   6.406   0.675   2.490  0.0708 -0.0393 -0.1281
12025TIP3    H157490   6.430   0.625   2.412 -0.4188  0.4391 -0.5970
12025TIP3    H257491   6.310   0.667   2.494 -0.0593  1.1904 -0.4455
12026TIP3   OH257492   6.007   2.663   4.939 -0.3646 -0.2145 -0.0375
12026TIP3    H157493   6.025   2.692   4.850 -0.6298 -1.0864 -0.3835
12026TIP3    H257494   5.982   2.571   4.930  0.5369 -0.5865  1.0348
12027TIP3   OH257495   4.463   5.647  12.010  0.5562  0.0029 -0.3675
12027TIP3    H157496   4.457   5.684  11.922  2.3780  1.0172 -0.0932
12027TIP3    H257497   4.473   5.722  12.068  1.0676 -0.7358  0.5347
12028TIP3   OH257498   2.716   2.663   1.923 -0.2013 -0.2335 -0.8636
12028TIP3    H157499   2.787   2.621   1.875 -0.7198 -0.1833 -1.6880
12028TIP3    H257500   2.704   2.747   1.880 -0.3535  0.0250 -0.3327
12029TIP3   OH257501   2.729   6.488   2.065 -0.0184 -0.0496 -0.2815
12029TIP3    H157502   2.758   6.398   2.081  0.7653  0.1215 -0.7418
12029TIP3    H257503   2.794   6.525   2.006 -0.5118  0.7254 -0.3551
12030TIP3   OH257504   5.458   0.538   2.213 -0.3911 -0.5161 -0.0825
12030TIP3    H157505   5.526   0.471   2.217  1.0354  0.8890 -0.0750
12030TIP3    H257506   5.432   0.541   2.121  2.8617  2.0365 -1.0912
12031TIP3   OH257507   6.825   6.280   3.192 -0.1526  0.2479  0.2971
12031TIP3    H157508   6.800   6.251   3.104  2.8160  3.5973 -1.9792
12031TIP3    H257509   6.903   6.228   3.213 -2.1545 -2.2347  2.2509
12032TIP3   OH257510   0.440   3.028  12.692  0.8401 -0.3565  0.7289
12032TIP3    H157511   0.352   2.993  12.680  0.7731  0.0850 -0.1859
12032TIP3    H257512   0.446   3.047  12.786 -0.4226  0.5751  0.6535
12033TIP3   OH257513   4.291   4.213  10.205 -0.5841 -0.2034  0.0222
12033TIP3    H157514   4.356   4.205  10.275  0.2659  1.3080 -0.5283
12033TIP3    H257515   4.235   4.286  10.234  1.2850  2.1751 -1.8918
12034TIP3   OH257516   6.047   2.508  15.272 -0.4109 -0.1031 -1.0259
12034TIP3    H157517   6.111   2.444  15.301 -0.1372  0.6859  0.2179
12034TIP3    H257518   6.090   2.555  15.200  0.1249 -0.0733 -0.6914
12035TIP3   OH257519   3.412   2.446   2.673 -0.3629 -0.0527 -0.1197
12035TIP3    H157520   3.452   2.381   2.615 -0.5815 -1.8039  1.6072
12035TIP3    H257521   3.484   2.503   2.700 -0.3931  1.3831 -2.7135
12036TIP3   OH257522   4.462   4.248  12.918  0.3743  0.5863 -0.4610
12036TIP3    H157523   4.557   4.250  12.928  0.3676 -1.9868  1.2265
12036TIP3    H257524   4.429   4.231  13.007 -1.6591  1.0505 -1.0650
12037TIP3   OH257525   4.035   3.322   3.225 -0.0138  0.1676 -0.1808
12037TIP3    H157526   3.994   3.382   3.163 -0.2365  0.8550  0.6073
12037TIP3    H257527   4.060   3.246   3.172 -1.2009  0.2449 -0.8935
12038TIP3   OH257528   3.402   4.491   1.545 -0.1020 -0.2565 -0.4253
12038TIP3    H157529   3.347   4.421   1.580  0.1671 -0.4747 -0.4363
12038TIP3    H257530   3.473   4.499   1.609 -0.5450  0.5421 -0.0111
12039TIP3   OH257531   4.330   6.200   0.207  0.5497  0.0383  0.0654
12039TIP3    H157532   4.285   6.210   0.291 -0.2077  1.3152 -0.4755
12039TIP3    H257533   4.407   6.146   0.228  0.4773  0.4933  1.6145
12040TIP3   OH257534   2.329   3.019   4.716  0.3161  0.2215  0.3581
12040TIP3    H157535   2.275   2.941   4.730  1.4046 -1.1700 -2.4400
12040TIP3    H257536   2.269   3.093   4.730 -0.8671 -1.0499  2.5659
12041TIP3   OH257537   0.277   2.400  10.994  0.1297 -0.4170  0.4919
12041TIP3    H157538   0.310   2.311  10.982 -0.7971 -0.8489  0.9940
12041TIP3    H257539   0.207   2.391  11.058 -1.0709  0.4242 -0.6497
12042TIP3   OH257540   6.952   3.150  12.623 -0.1545  0.4103  0.3027
12042TIP3    H157541   6.994   3.067  12.647  0.8865  0.5981 -0.7759
12042TIP3    H257542   6.881   3.124  12.564 -2.5181 -0.0237  3.1266
12043TIP3   OH257543   4.695   3.331  13.048 -0.8211  0.1352 -0.1008
12043TIP3    H157544   4.636   3.273  13.000  0.0894  0.8988 -2.2987
12043TIP3    H257545   4.639   3.403  13.077 -1.4519 -0.4948  0.2780
12044TIP3   OH257546   1.320   2.144  11.492 -0.2403  0.4863 -0.2957
12044TIP3    H157547   1.384   2.210  11.517  2.3142 -1.4260 -1.3915
12044TIP3    H257548   1.301   2.163  11.400  0.2887 -0.1296 -0.5340
12045TIP3   OH257549   2.076   0.931   2.415  0.0395 -0.6033  0.2888
12045TIP3    H157550   2.106   0.973   2.496  0.6563  0.0143 -0.2547
12045TIP3    H257551   1.980   0.936   2.420 -0.0235 -2.0221  1.7333
12046TIP3   OH257552   1.902   1.549  10.549  0.0532 -0.1898 -0.7852
12046TIP3    H157553   1.960   1.476  10.526 -0.9771 -0.9697 -1.0272
12046TIP3    H257554   1.854   1.567  10.468  0.2929  0.7791 -0.7247
12047TIP3   OH257555   0.942   6.901   4.116 -0.1123 -0.6812 -0.1868
12047TIP3    H157556   1.015   6.946   4.160  0.2581 -0.5035 -0.9619
12047TIP3    H257557   0.884   6.875   4.187  0.4840 -0.4216  0.4122
12048TIP3   OH257558   5.106   0.201  14.044 -0.2108  0.3738  0.3670
12048TIP3    H157559   5.107   0.121  13.991  0.5133  0.8860 -0.4222
12048TIP3    H257560   5.190   0.243  14.025 -1.0206  1.8427 -0.0427
12049TIP3   OH257561   0.720   4.720  13.981 -0.0417  0.0087  0.3423
12049TIP3    H157562   0.625   4.711  13.992 -0.0643  1.2235  1.3981
12049TIP3    H257563   0.748   4.772  14.057  1.1395  1.6153 -1.1275
12050TIP3   OH257564   1.138   3.398   0.159  0.6819 -0.4341 -0.7428
12050TIP3    H157565   1.081   3.435   0.092  0.1671  0.3591  0.1167
12050TIP3    H257566   1.087   3.401   0.239  1.8746  0.1742  0.0220
12051TIP3   OH257567   5.772   1.811   1.760 -0.2046 -0.4304  0.4980
12051TIP3    H157568   5.857   1.841   1.727  0.2102 -0.8198  1.1774
12051TIP3    H257569   5.715   1.887   1.751  0.0367 -0.3604 -0.5705
12052TIP3   OH257570   2.264   2.345  14.610 -0.4672  0.1528  0.4024
12052TIP3    H157571   2.193   2.314  14.554 -0.2198  3.1123 -1.7836
12052TIP3    H257572   2.223   2.357  14.696 -2.0333 -0.3164 -0.2343
12053TIP3   OH257573   3.972   2.673   2.533 -0.0628  0.4428 -0.0785
12053TIP3    H157574   3.935   2.678   2.444 -0.5272 -0.3540  0.0547
12053TIP3    H257575   4.064   2.653   2.519 -0.1849  0.0672 -0.3829
12054TIP3   OH257576   3.454   3.205   4.961  0.3433 -0.0428 -0.6932
12054TIP3    H157577   3.413   3.173   5.041  0.3869 -0.0068 -0.6562
12054TIP3    H257578   3.547   3.212   4.983 -0.0062  3.2612  0.4115
12055TIP3   OH257579   4.743   3.494  14.911 -0.0194 -0.1285  0.0900
12055TIP3    H157580   4.727   3.576  14.865 -0.7945 -0.5754 -0.4609
12055TIP3    H257581   4.800   3.444  14.853 -1.0722 -0.7303 -0.4559
12056TIP3   OH257582   5.004   5.149   0.994 -0.1192 -0.0356  0.0503
12056TIP3    H157583   4.974   5.087   0.927  0.6554  1.0308 -1.3518
12056TIP3    H257584   5.034   5.094   1.066 -1.8610 -1.2036 -0.0597
12057TIP3   OH257585   6.580   1.393  12.325  0.2078  1.3505  0.7245
12057TIP3    H157586   6.659   1.437  12.356  0.8745  0.0434  0.9756
12057TIP3    H257587   6.603   1.361  12.238  0.7446 -0.8548  1.6131
12058TIP3   OH257588   3.844   0.943   2.370 -0.0311 -0.1716  0.6857
12058TIP3    H157589   3.840   0.942   2.274  1.0396 -0.4519  0.6281
12058TIP3    H257590   3.885   1.028   2.390 -3.1792  1.3927  1.0773
12059TIP3   OH257591   3.775   4.290   5.120  0.3754 -0.1382  0.4421
12059TIP3    H157592   3.682   4.306   5.108  0.5085 -0.6750 -1.9791
12059TIP3    H257593   3.818   4.366   5.080  0.9180 -1.4801 -1.7330
12060TIP3   OH257594   4.204   1.070  12.610  0.0564  0.1532  0.1371
12060TIP3    H157595   4.132   1.124  12.578  0.8584  0.7449 -0.7553
12060TIP3    H257596   4.283   1.115  12.578  0.7962 -0.7738  0.6072
12061TIP3   OH257597   6.762   4.967  13.692 -0.1349  0.1621  0.4896
12061TIP3    H157598   6.739   4.926  13.609 -1.1499  2.3898 -0.4309
12061TIP3    H257599   6.693   4.939  13.753 -0.4447 -0.0007  0.0675
12062TIP3   OH257600   4.843   3.103  13.287  0.1005 -0.0150  0.3815
12062TIP3    H157601   4.897   3.033  13.325 -1.0693 -0.5696  1.0583
12062TIP3    H257602   4.776   3.057  13.236 -1.0780  0.5687  1.3637
12063TIP3   OH257603   5.004   3.721  14.156  0.3814 -0.2757 -0.4912
12063TIP3    H157604   4.911   3.729  14.133  0.1744  0.2067  0.4456
12063TIP3    H257605   5.034   3.645  14.108 -0.1678  0.3262 -1.8391
12064TIP3   OH257606   4.448   5.229   0.814 -0.2978 -0.6182 -0.6228
12064TIP3    H157607   4.465   5.323   0.825 -2.7439 -0.0663 -1.0499
12064TIP3    H257608   4.461   5.213   0.721 -0.4068 -0.5807 -0.6446
12065TIP3   OH257609   0.034   4.992  14.160  0.0243 -0.0614  0.1153
12065TIP3    H157610   0.106   5.055  14.150  1.1026 -1.3996 -0.9745
12065TIP3    H257611   0.024   4.954  14.073 -0.6711 -1.3243  0.7322
12066TIP3   OH257612   2.644   0.425   3.728  0.5739 -0.4127 -0.1716
12066TIP3    H157613   2.716   0.379   3.771 -0.1090  0.0967  1.6315
12066TIP3    H257614   2.570   0.365   3.735 -0.4943  1.0229  2.7703
12067TIP3   OH257615   2.056   4.990   1.144 -0.4553  0.0031 -0.5448
12067TIP3    H157616   1.965   4.986   1.117 -0.9665  1.9247  0.6650
12067TIP3    H257617   2.055   5.045   1.222  1.7555  0.0978 -0.5239
12068TIP3   OH257618   4.413   2.063   1.718  0.5773 -0.0842 -0.1299
12068TIP3    H157619   4.405   2.094   1.809  0.9750 -0.9712  0.2148
12068TIP3    H257620   4.365   2.128   1.667  0.0679  0.2598  0.7523
12069TIP3   OH257621   7.045   2.117  12.231  0.0559 -0.2754  0.2993
12069TIP3    H157622   7.104   2.114  12.156 -0.9395  1.4444 -0.6041
12069TIP3    H257623   7.103   2.123  12.307  1.0607 -1.5596 -0.3302
12070TIP3   OH257624   3.447   0.326   2.699 -0.3843  0.2313 -0.3737
12070TIP3    H157625   3.472   0.335   2.791  0.8913 -1.2392 -0.5309
12070TIP3    H257626   3.363   0.371   2.692  0.5478  2.3146  0.9963
12071TIP3   OH257627   5.114   5.747  11.461 -0.5944  0.3965  0.3886
12071TIP3    H157628   5.179   5.798  11.413 -1.8078  1.6410 -0.0003
12071TIP3    H257629   5.061   5.704  11.393 -0.6470 -0.0113  0.6801
12072TIP3   OH257630   5.147   0.162  11.001 -0.1093  0.8320 -0.3630
12072TIP3    H157631   5.055   0.165  10.974 -0.2678  1.0088  0.1688
12072TIP3    H257632   5.166   0.069  11.012  0.5594  0.5914 -3.0030
12073TIP3   OH257633   1.173   5.002  15.039  0.5193 -0.2461  0.4933
12073TIP3    H157634   1.165   5.096  15.053 -2.8450 -0.4137  0.4231
12073TIP3    H257635   1.267   4.985  15.046  1.2624  3.0932  0.4050
12074TIP3   OH257636   4.510   0.694  11.151 -0.2952  0.7648 -0.6704
12074TIP3    H157637   4.422   0.730  11.163  0.2460  1.8048  0.4108
12074TIP3    H257638   4.565   0.772  11.138  0.6167  0.1871 -0.3199
12075TIP3   OH257639   1.657   5.032   3.696 -0.5538 -0.6270  0.0001
12075TIP3    H157640   1.566   5.038   3.725  0.4253 -1.5439  3.8677
12075TIP3    H257641   1.676   4.938   3.696  0.7935 -0.3813  0.8327
12076TIP3   OH257642   5.849   4.353   5.362 -0.1132 -0.1755  0.2025
12076TIP3    H157643   5.852   4.346   5.267 -1.4219 -1.0833  0.2070
12076TIP3    H257644   5.935   4.322   5.391  0.6819  1.0982 -0.7078
12077TIP3   OH257645   4.288   3.604   4.084 -0.9599 -0.6575  0.2432
12077TIP3    H157646   4.299   3.661   4.008  0.5645 -0.2315  0.7557
12077TIP3    H257647   4.366   3.548   4.085 -0.6112 -0.2141  1.8386
12078TIP3   OH257648   5.081   1.225   2.766 -0.6316  0.3541  0.5430
12078TIP3    H157649   5.166   1.251   2.800 -0.5236  0.0420  0.5128
12078TIP3    H257650   5.018   1.271   2.821 -0.4466  1.7819 -0.3496
12079TIP3   OH257651   2.997   3.896   4.992 -0.4378 -1.1610  0.3023
12079TIP3    H157652   3.037   3.860   5.071 -1.3688 -0.2901  1.2108
12079TIP3    H257653   3.065   3.892   4.925  0.7549 -0.8377  1.4724
12080TIP3   OH257654   1.932   0.557   3.020  0.5395 -0.1167  0.9447
12080TIP3    H157655   1.986   0.587   2.948 -1.0130  0.0112 -0.2126
12080TIP3    H257656   1.908   0.636   3.067 -1.3856  0.2448 -0.5524
12081TIP3   OH257657   5.389   4.869  10.342  0.3156  0.4001 -0.5411
12081TIP3    H157658   5.393   4.774  10.343  2.4266  0.4409 -1.1380
12081TIP3    H257659   5.313   4.890  10.287  1.2342 -0.9303 -2.3648
12082TIP3   OH257660   4.403   4.058   1.314 -0.1602  0.2149 -0.1092
12082TIP3    H157661   4.482   4.011   1.342 -0.5098 -0.2127  0.1881
12082TIP3    H257662   4.403   4.051   1.219  0.2009  0.2867 -0.1171
12083TIP3   OH257663   3.057   5.761  14.429  0.0925  0.0144  0.3231
12083TIP3    H157664   2.975   5.715  14.412  0.3446 -0.2175 -0.2764
12083TIP3    H257665   3.121   5.691  14.445  0.3409  0.1721  0.0239
12084TIP3   OH257666   6.034   2.869   5.105 -0.2989 -0.2188  0.2306
12084TIP3    H157667   6.029   2.805   5.034  1.8087  0.2150 -0.3801
12084TIP3    H257668   6.000   2.950   5.067 -0.2625 -0.2694  0.0900
12085TIP3   OH257669   3.804   0.985   3.747 -0.1987  0.0804 -0.2466
12085TIP3    H157670   3.765   0.973   3.661 -0.1007 -1.1290 -0.1448
12085TIP3    H257671   3.786   0.903   3.794 -0.2298  0.7042  0.8751
12086TIP3   OH257672   0.313   6.574   2.045 -0.0316  0.2983  0.0652
12086TIP3    H157673   0.239   6.634   2.049 -0.4093 -0.2365  1.7849
12086TIP3    H257674   0.297   6.522   1.966 -1.2544  0.5018  0.1587
12087TIP3   OH257675   2.923   5.251   2.946 -0.5415 -0.2274 -0.1640
12087TIP3    H157676   3.008   5.217   2.920 -1.1308 -0.9578 -1.1981
12087TIP3    H257677   2.912   5.223   3.036  1.3299  1.9157  0.8373
12088TIP3   OH257678   3.377   7.040   3.050  0.1953 -0.0546  0.3318
12088TIP3    H157679   3.319   6.988   3.105  0.6031  1.7273  2.6078
12088TIP3    H257680   3.326   7.117   3.027  1.2343  0.9700  1.3677
12089TIP3   OH257681   0.232   0.311  10.592  0.2754 -0.1211 -0.2042
12089TIP3    H157682   0.196   0.348  10.673 -0.5703 -1.2773 -0.0265
12089TIP3    H257683   0.260   0.387  10.541 -0.1662  0.6791  0.7110
12090TIP3   OH257684   0.178   2.714   4.490 -0.4834 -0.2306 -0.1553
12090TIP3    H157685   0.178   2.665   4.573 -2.0495 -0.1582 -0.0838
12090TIP3    H257686   0.222   2.797   4.511  0.0377 -0.6166  0.3285
12091TIP3   OH257687   1.726   6.337   4.171  0.2943  0.5863 -0.3977
12091TIP3    H157688   1.648   6.303   4.213 -0.3312  1.0959 -1.1245
12091TIP3    H257689   1.765   6.262   4.126 -0.2320  0.5028 -0.7179
12092TIP3   OH257690   1.277   4.786   0.553 -0.2472  0.1925  0.1307
12092TIP3    H157691   1.234   4.869   0.534  1.1056  0.9273  0.1582
12092TIP3    H257692   1.214   4.737   0.605 -1.7241  0.5120 -1.2880
12093TIP3   OH257693   3.102   5.481   3.240 -0.3783 -0.6623  0.0526
12093TIP3    H157694   3.012   5.452   3.221 -0.6077 -1.0537  1.6053
12093TIP3    H257695   3.100   5.504   3.333  0.2388  2.7555 -0.6380
12094TIP3   OH257696   3.063   5.954  11.128 -0.3420 -0.6875  0.4377
12094TIP3    H157697   3.112   5.887  11.176 -0.7403 -1.1455  0.2172
12094TIP3    H257698   2.977   5.957  11.172  0.0775  0.5518  1.2182
12095TIP3   OH257699   3.905   0.726  12.859  0.0845  0.0062  0.3510
12095TIP3    H157700   3.949   0.811  12.863  1.1304 -0.4553 -0.6608
12095TIP3    H257701   3.818   0.742  12.895 -0.0697  1.7192 -0.6833
12096TIP3   OH257702   2.097   3.541   3.384 -0.7145 -0.1059  0.0496
12096TIP3    H157703   2.170   3.482   3.365 -1.4377 -0.6740 -1.1157
12096TIP3    H257704   2.114   3.619   3.332 -0.3843  0.2229  0.6404
12097TIP3   OH257705   6.259   2.661   5.109  0.2607 -0.2006 -0.1258
12097TIP3    H157706   6.333   2.606   5.082  0.0922 -1.1673  1.2724
12097TIP3    H257707   6.188   2.637   5.049  0.0543 -1.8850  0.7311
12098TIP3   OH257708   3.091   5.255  11.318  0.1270 -0.6259  0.1761
12098TIP3    H157709   3.090   5.350  11.312 -1.3483 -0.6860 -3.1808
12098TIP3    H257710   3.164   5.228  11.262 -0.6637 -1.4498 -0.4917
12099TIP3   OH257711   3.127   3.766   5.205  0.8131  0.2397  0.2440
12099TIP3    H157712   3.061   3.731   5.266  0.3653 -1.8395 -1.3153
12099TIP3    H257713   3.178   3.689   5.179  1.2752  1.1316 -1.6241
12100TIP3   OH257714   5.754   1.775  11.999 -0.4057 -0.1532  0.4418
12100TIP3    H157715   5.842   1.781  11.960 -0.4483  1.9814  0.5299
12100TIP3    H257716   5.761   1.703  12.062  0.4870 -1.7848 -1.3976
12101TIP3   OH257717   6.931   4.060   1.114  0.1137 -0.1738 -0.0349
12101TIP3    H157718   6.845   4.063   1.072  0.1574  1.0391 -0.0720
12101TIP3    H257719   6.977   4.136   1.081  0.6741  0.0182  1.1142
12102TIP3   OH257720   0.452   5.892  12.862 -0.1758  0.6284  0.1117
12102TIP3    H157721   0.546   5.908  12.853  0.0289 -0.5320 -0.0111
12102TIP3    H257722   0.430   5.837  12.787 -0.3871 -1.2934  1.5069
12103TIP3   OH257723   2.840   1.014   1.337  0.5233  0.1663 -0.0483
12103TIP3    H157724   2.887   0.953   1.280 -0.4160 -0.6825  0.0584
12103TIP3    H257725   2.897   1.091   1.342  0.6540  0.2508 -2.0823
12104TIP3   OH257726   1.202   6.150   0.910  0.8363  0.1536 -0.6757
12104TIP3    H157727   1.249   6.144   0.993 -0.3505  2.8676  0.2887
12104TIP3    H257728   1.121   6.100   0.925  0.7400  0.4270 -0.2870
12105TIP3   OH257729   5.795   0.198   2.902  0.1828 -0.1466 -0.2641
12105TIP3    H157730   5.720   0.219   2.957  0.6816 -0.1797  0.4379
12105TIP3    H257731   5.832   0.118   2.940 -0.4032 -1.1071 -1.5999
12106TIP3   OH257732   2.988   5.960  12.835  0.4008  0.4238 -0.1805
12106TIP3    H157733   3.002   6.002  12.919  1.0767 -3.4491  1.8948
12106TIP3    H257734   2.899   5.925  12.839  1.5363 -2.7350  0.5894
12107TIP3   OH257735   2.201   3.338   5.622 -0.1457  0.4908 -0.0352
12107TIP3    H157736   2.269   3.286   5.666 -1.3569 -1.2819 -0.1866
12107TIP3    H257737   2.160   3.277   5.561 -1.6676  1.6279 -0.1883
12108TIP3   OH257738   1.236   0.154  11.079 -0.1822 -0.3395 -0.5420
12108TIP3    H157739   1.202   0.231  11.034 -0.3509 -0.6162 -0.8854
12108TIP3    H257740   1.330   0.156  11.061 -0.1546 -0.1030 -0.3822
12109TIP3   OH257741   6.037   0.950  14.944  0.6209 -0.3619  0.2245
12109TIP3    H157742   6.040   0.874  14.886 -0.6138  0.6200 -1.1951
12109TIP3    H257743   6.055   1.025  14.887  2.0781  0.4374  1.6310
12110TIP3   OH257744   2.928   0.280  14.078  0.2454 -0.2991 -0.0228
12110TIP3    H157745   2.957   0.201  14.031  0.4919 -1.1649  1.5273
12110TIP3    H257746   2.983   0.350  14.042  1.3237 -1.1694 -0.1260
12111TIP3   OH257747   5.576   5.345   1.057  0.3112  0.0668  0.1911
12111TIP3    H157748   5.624   5.274   1.099 -0.1965 -0.6222 -0.3793
12111TIP3    H257749   5.574   5.322   0.965 -1.6823 -0.2799  0.2675
12112TIP3   OH257750   3.489   4.460  12.786 -0.6415  0.5785 -0.4059
12112TIP3    H157751   3.458   4.470  12.877 -1.6108  0.1216 -0.6737
12112TIP3    H257752   3.557   4.526  12.777 -2.8558  3.0041 -0.3615
12113TIP3   OH257753   1.149   1.378   2.863  0.7357 -0.3127  0.4099
12113TIP3    H157754   1.198   1.459   2.847  1.1247 -0.1362  2.2990
12113TIP3    H257755   1.106   1.392   2.947 -1.5759 -0.9697 -0.5792
12114TIP3   OH257756   4.654   5.178  12.266 -0.1526  0.3730 -0.1232
12114TIP3    H157757   4.620   5.249  12.212 -1.1524  0.8107  1.0398
12114TIP3    H257758   4.583   5.158  12.328 -0.8568 -3.1597 -1.7803
12115TIP3   OH257759   0.926   4.612   5.161 -0.6128  0.2454  0.4170
12115TIP3    H157760   0.930   4.697   5.118  1.4004 -0.4755 -0.9906
12115TIP3    H257761   0.952   4.629   5.252  1.3740  0.9835 -0.2258
12116TIP3   OH257762   1.685   1.507   4.603 -0.5952  0.7070 -0.6437
12116TIP3    H157763   1.765   1.558   4.614 -1.2865  1.8792 -0.8517
12116TIP3    H257764   1.639   1.549   4.530 -1.5361  0.2349 -0.3468
12117TIP3   OH257765   6.673   6.453   1.537  0.6379  0.4396 -0.4118
12117TIP3    H157766   6.684   6.406   1.454  2.3620  1.8577 -1.0645
12117TIP3    H257767   6.605   6.404   1.584  0.5532 -1.1697 -2.0925
12118TIP3   OH257768   3.100   1.762   4.779  0.7379 -0.1341 -0.0960
12118TIP3    H157769   3.078   1.677   4.816 -0.1129  0.3713  0.6019
12118TIP3    H257770   3.127   1.815   4.854  2.9007 -0.2529 -0.7224
12119TIP3   OH257771   0.623   6.597  13.419 -0.1318 -0.0436 -0.3197
12119TIP3    H157772   0.559   6.668  13.420  0.1723  0.2799 -1.6929
12119TIP3    H257773   0.626   6.566  13.509  0.2351  2.1349  0.4700
12120TIP3   OH257774   6.106   3.005   0.714 -0.0729 -0.2422  0.6722
12120TIP3    H157775   6.107   3.095   0.745 -1.2268 -0.0498  0.1912
12120TIP3    H257776   6.112   3.011   0.619  0.0583 -0.6824  0.6477
12121TIP3   OH257777   4.107   4.838   6.026  0.1642  0.3025  0.2965
12121TIP3    H157778   4.155   4.822   6.107  2.0531  0.9363 -0.6380
12121TIP3    H257779   4.147   4.777   5.963 -1.5266 -0.4540 -0.1020
12122TIP3   OH257780   4.994   3.921  11.822 -0.3229 -0.6744  0.6411
12122TIP3    H157781   5.031   3.834  11.832  3.2655  0.6822  0.7455
12122TIP3    H257782   5.005   3.942  11.729 -0.0002  0.0894  0.8391
12123TIP3   OH257783   3.897   1.829  11.487 -0.0474  0.1760  0.2249
12123TIP3    H157784   3.816   1.786  11.515  0.4952 -0.3922  0.9633
12123TIP3    H257785   3.875   1.922  11.482  0.0686  0.5123  3.6976
12124TIP3   OH257786   1.825   1.217  10.240  0.3187  0.1611 -0.8847
12124TIP3    H157787   1.883   1.283  10.278  0.0083  0.5165 -1.0320
12124TIP3    H257788   1.795   1.166  10.315  2.5070 -1.4224 -0.9754
12125TIP3   OH257789   1.901   2.257   2.630  0.3345  0.2555 -0.6858
12125TIP3    H157790   1.888   2.171   2.591 -1.0394  0.3054 -0.4087
12125TIP3    H257791   1.942   2.240   2.714 -1.9458 -0.3598  0.3693
12126TIP3   OH257792   2.195   1.468  13.221  0.0948 -0.1368  0.9779
12126TIP3    H157793   2.221   1.483  13.312 -1.3487  2.2382  1.0746
12126TIP3    H257794   2.273   1.489  13.170  0.2017  0.8996  1.5516
12127TIP3   OH257795   3.981   1.949  12.570 -0.0523  0.0269  0.1338
12127TIP3    H157796   4.053   1.929  12.510  0.1494 -1.8533  0.9184
12127TIP3    H257797   4.022   1.954  12.656 -0.6104  0.8215  0.3650
12128TIP3   OH257798   5.289   6.046   5.752  0.7323  0.0963 -0.2081
12128TIP3    H157799   5.335   5.962   5.755  1.2557  0.3811 -0.2324
12128TIP3    H257800   5.353   6.107   5.715  1.2306  1.0842  2.1420
12129TIP3   OH257801   0.464   2.738  12.893  0.5813 -0.2424  0.0814
12129TIP3    H157802   0.495   2.670  12.952 -0.2875  0.8704  1.9169
12129TIP3    H257803   0.502   2.819  12.926  0.4023  0.3814 -1.1582
12130TIP3   OH257804   0.358   5.881  10.063 -0.2252  0.2629  0.0603
12130TIP3    H157805   0.324   5.946  10.001 -1.8024 -0.2556  0.3392
12130TIP3    H257806   0.377   5.932  10.142 -0.1652  0.6049 -0.1704
12131TIP3   OH257807   2.056   2.357  10.340  0.8926 -0.0662  0.0121
12131TIP3    H157808   1.998   2.415  10.291  1.2580  0.2071 -0.0955
12131TIP3    H257809   2.005   2.332  10.417  0.8299  0.5965  0.1901
12132TIP3   OH257810   1.746   3.785  14.126  0.4042 -0.1157  0.0690
12132TIP3    H157811   1.776   3.867  14.167 -0.0785 -0.7046  1.6840
12132TIP3    H257812   1.663   3.809  14.085  0.6930  0.4029 -0.2253
12133TIP3   OH257813   3.630   2.903  10.627 -0.1318 -0.1976 -0.5825
12133TIP3    H157814   3.594   2.852  10.555 -1.6629  1.3933 -1.0043
12133TIP3    H257815   3.662   2.837  10.689 -0.4090 -1.6173 -1.8721
12134TIP3   OH257816   2.985   1.697   2.174  0.9722  0.1456  0.4042
12134TIP3    H157817   3.022   1.786   2.167 -0.1435  0.8124  2.2058
12134TIP3    H257818   2.915   1.695   2.109 -0.3838  1.3866  1.7436
12135TIP3   OH257819   3.929   2.866   3.025  0.5032 -0.1298 -0.1460
12135TIP3    H157820   3.870   2.855   2.950 -0.0920  2.8541 -0.2063
12135TIP3    H257821   4.015   2.879   2.986  0.0022  2.7352 -0.5074
12136TIP3   OH257822   2.390   7.053  15.193  0.0857  0.6009 -0.2764
12136TIP3    H157823   2.380   6.977  15.135 -0.9842 -0.6355  1.4336
12136TIP3    H257824   2.430   7.017  15.272  3.3033  2.5655 -0.8072
12137TIP3   OH257825   0.580   3.638  13.796 -0.4581 -0.4231  0.0107
12137TIP3    H157826   0.580   3.733  13.798  0.9664 -0.3662 -0.9440
12137TIP3    H257827   0.501   3.614  13.747 -0.3911  0.2954 -0.4531
12138TIP3   OH257828   1.843   5.710   5.362  0.5468 -0.0926  0.7396
12138TIP3    H157829   1.780   5.753   5.305  0.2330  1.4075  2.1350
12138TIP3    H257830   1.859   5.625   5.321 -0.3741  0.5421 -1.0281
12139TIP3   OH257831   6.093   0.650  15.632  0.1143 -0.4463 -0.0061
12139TIP3    H157832   6.011   0.655  15.582 -0.1956  0.6253  0.5937
12139TIP3    H257833   6.070   0.599  15.709 -0.0513  0.0252  0.2618
12140TIP3   OH257834   1.775   4.405   4.436  0.0300 -0.4160  0.4613
12140TIP3    H157835   1.867   4.423   4.456  0.0951  0.0516 -0.2433
12140TIP3    H257836   1.727   4.443   4.510  0.4335 -1.3197  1.2115
12141TIP3   OH257837   4.055   3.812   2.046  0.1992  0.2363 -0.3886
12141TIP3    H157838   4.026   3.722   2.060 -2.0610  0.9642  0.0581
12141TIP3    H257839   4.065   3.820   1.952  0.0770 -0.3962 -0.4620
12142TIP3   OH257840   5.298   5.763  14.216 -0.8499 -0.7627  0.1792
12142TIP3    H157841   5.258   5.709  14.148  0.4947 -1.8970  0.2529
12142TIP3    H257842   5.392   5.752  14.204 -0.4918  1.7776  0.0587
12143TIP3   OH257843   3.756   3.383  14.712 -0.6797 -0.1498 -0.2189
12143TIP3    H157844   3.838   3.378  14.761 -0.1858  0.7013 -0.9173
12143TIP3    H257845   3.688   3.366  14.777  0.0663 -1.3992  0.2664
12144TIP3   OH257846   4.448   1.041   0.765  0.3413 -0.5823 -0.8908
12144TIP3    H157847   4.465   1.030   0.671  2.8950  0.3808 -0.6008
12144TIP3    H257848   4.454   1.135   0.779  1.2034 -0.8178  0.4375
12145TIP3   OH257849   4.316   4.319   4.647  0.0585 -0.1562 -0.0043
12145TIP3    H157850   4.255   4.338   4.576 -0.1772 -0.4622  0.1148
12145TIP3    H257851   4.342   4.228   4.632 -3.0355 -1.6277  2.5262
12146TIP3   OH257852   1.052   5.852  11.235 -0.5282 -0.0601  0.3769
12146TIP3    H157853   0.957   5.836  11.231 -0.7725  1.4468 -0.9866
12146TIP3    H257854   1.088   5.774  11.278 -2.1617 -1.5373 -0.7877
12147TIP3   OH257855   1.543   0.818   4.255 -0.1389 -0.0927  0.4797
12147TIP3    H157856   1.467   0.812   4.313 -0.3469  0.2611  0.2452
12147TIP3    H257857   1.506   0.825   4.167  0.1753 -0.9585  0.2593
12148TIP3   OH257858   0.279   3.062  14.869 -0.4858 -0.7477  0.4093
12148TIP3    H157859   0.313   2.984  14.913 -0.9607  0.0419  2.2430
12148TIP3    H257860   0.260   3.124  14.939  2.6534  2.2375 -1.0144
12149TIP3   OH257861   3.110   2.701   2.901 -0.2229 -0.1794  0.3624
12149TIP3    H157862   3.172   2.637   2.866  0.8831  0.4768  1.0295
12149TIP3    H257863   3.164   2.779   2.918 -1.3441  0.5997  0.4645
12150TIP3   OH257864   3.227   2.591   2.092 -0.3706 -0.4465  0.7219
12150TIP3    H157865   3.183   2.506   2.086 -2.5643  0.6781 -0.4496
12150TIP3    H257866   3.196   2.640   2.016 -0.3000  1.9086  2.0965
12151TIP3   OH257867   2.345   0.555  14.612  0.6108 -0.2379  0.1612
12151TIP3    H157868   2.320   0.559  14.520 -0.2412 -0.1132  0.3864
12151TIP3    H257869   2.268   0.516  14.656  0.2980  1.3048  1.0553
12152TIP3   OH257870   2.061   4.410   0.397 -0.4525 -0.0938 -0.3971
12152TIP3    H157871   2.096   4.360   0.324 -2.1229  0.8777 -1.9369
12152TIP3    H257872   2.082   4.357   0.474  2.1002 -0.7400 -1.4183
12153TIP3   OH257873   0.540   5.775  14.099  0.2409  0.3301 -0.4618
12153TIP3    H157874   0.499   5.843  14.153  0.2550 -0.1986  0.2325
12153TIP3    H257875   0.628   5.809  14.081  1.0701 -0.4354  1.7596
12154TIP3   OH257876   1.137   4.728   4.515 -0.5618  0.0320  0.2987
12154TIP3    H157877   1.123   4.659   4.580 -0.8577  0.2012  0.4187
12154TIP3    H257878   1.093   4.696   4.436 -0.9838  0.2243  0.4511
12155TIP3   OH257879   6.746   6.675   4.143  0.1163 -0.5011  0.4229
12155TIP3    H157880   6.696   6.603   4.106 -0.9413  0.8379 -0.8690
12155TIP3    H257881   6.786   6.718   4.067 -0.1568  0.8985  1.0345
12156TIP3   OH257882   6.818   3.671  13.259 -0.7008 -0.2376  0.1374
12156TIP3    H157883   6.769   3.714  13.189 -1.7136 -0.2496  0.8208
12156TIP3    H257884   6.752   3.648  13.324  0.2231 -0.1884  1.1236
12157TIP3   OH257885   0.213   6.076   1.400 -0.1692 -0.2682  0.4688
12157TIP3    H157886   0.159   5.999   1.413 -0.9746  0.0009 -1.0194
12157TIP3    H257887   0.291   6.044   1.354 -0.3236 -0.2423  0.1924
12158TIP3   OH257888   1.595   3.820   0.277  0.0098  0.6513 -0.7588
12158TIP3    H157889   1.614   3.870   0.356 -1.1556 -0.3222  0.1741
12158TIP3    H257890   1.656   3.747   0.279 -0.8338 -0.0644 -0.0622
12159TIP3   OH257891   5.252   7.055   4.566  0.4352 -0.3115  0.1569
12159TIP3    H157892   5.228   7.148   4.563  1.4359 -0.0360  0.3293
12159TIP3    H257893   5.321   7.046   4.500  0.8626 -0.7740  0.6566
12160TIP3   OH257894   0.128   1.648  10.830 -0.4711 -0.2794 -0.1492
12160TIP3    H157895   0.220   1.637  10.856 -0.3848  0.6099 -0.0432
12160TIP3    H257896   0.133   1.681  10.740 -0.6678  0.3390  0.0650
12161TIP3   OH257897   0.164   6.632   0.609 -0.3164 -0.2141  0.0574
12161TIP3    H157898   0.149   6.551   0.560 -1.5762 -0.3850  0.6987
12161TIP3    H257899   0.258   6.630   0.629 -0.0370 -0.7858 -1.1765
12162TIP3   OH257900   2.373   4.868   2.187 -0.2309  0.6425  0.1616
12162TIP3    H157901   2.360   4.896   2.096 -1.2342  0.2018  0.1547
12162TIP3    H257902   2.447   4.920   2.217  0.4968  0.3702 -1.0885
12163TIP3   OH257903   0.170   0.230   4.292  0.6394  0.1943  0.2136
12163TIP3    H157904   0.189   0.255   4.201  1.1522 -0.0223  0.2559
12163TIP3    H257905   0.075   0.236   4.299  0.4050 -1.5585 -0.8748
12164TIP3   OH257906   4.845   5.189  10.174 -0.6938 -0.2537  0.1993
12164TIP3    H157907   4.909   5.261  10.173 -1.9752  0.9725 -1.6065
12164TIP3    H257908   4.858   5.146  10.089 -1.1400 -1.0602  0.5373
12165TIP3   OH257909   4.378   5.416  11.769  0.4975  0.6136 -0.2039
12165TIP3    H157910   4.437   5.346  11.796  1.6750  1.7740  0.3106
12165TIP3    H257911   4.321   5.430  11.844 -0.2468 -0.2696 -0.5776
12166TIP3   OH257912   2.622   0.757   3.536 -0.0207 -0.8708  0.5881
12166TIP3    H157913   2.593   0.737   3.625  0.4991 -0.5953  0.8259
12166TIP3    H257914   2.580   0.690   3.482  0.1848 -1.4499  1.1264
12167TIP3   OH257915   4.029   6.304   3.698 -0.0684  0.3387 -0.0588
12167TIP3    H157916   3.974   6.382   3.697  0.7969  1.1225  2.8940
12167TIP3    H257917   4.111   6.333   3.738  0.2356 -2.0761  1.2521
12168TIP3   OH257918   3.075   0.401   3.693  0.0396  0.5696 -0.4925
12168TIP3    H157919   3.170   0.397   3.682  0.0725  1.6806 -0.7383
12168TIP3    H257920   3.053   0.493   3.681 -0.9382  0.5200  0.6842
12169TIP3   OH257921   6.618   5.360  11.231 -0.2540  0.3453 -0.7785
12169TIP3    H157922   6.689   5.309  11.270 -0.7492 -0.2934 -0.7001
12169TIP3    H257923   6.645   5.452  11.243 -0.1845  0.1629  0.6757
12170TIP3   OH257924   5.064   0.520   3.789  0.3673 -0.1358  0.5180
12170TIP3    H157925   4.996   0.553   3.731  1.4969 -0.3548 -0.9732
12170TIP3    H257926   5.016   0.485   3.865 -1.0824  0.8555  0.0870
12171TIP3   OH257927   5.334   3.705   5.462 -0.2619  0.3601  0.3318
12171TIP3    H157928   5.241   3.683   5.452 -0.0451 -0.8186  0.7860
12171TIP3    H257929   5.378   3.655   5.393 -0.0215  1.5493 -0.4187
12172TIP3   OH257930   1.223   0.217  15.538 -0.0382  0.3455  0.0767
12172TIP3    H157931   1.136   0.177  15.537  0.1110 -0.0002 -1.4037
12172TIP3    H257932   1.246   0.222  15.631 -0.6999 -1.6264  0.3878
12173TIP3   OH257933   4.114   1.578   5.894  0.4703 -0.0154 -0.6027
12173TIP3    H157934   4.068   1.494   5.897  1.3787 -0.5603 -1.4702
12173TIP3    H257935   4.105   1.613   5.983 -1.8750  0.0689 -0.8127
12174TIP3   OH257936   4.757   1.482  13.143 -0.0885  0.2421 -0.5602
12174TIP3    H157937   4.700   1.411  13.172  1.8201 -0.6452  1.3108
12174TIP3    H257938   4.772   1.465  13.050 -1.1182 -0.7074 -0.5716
12175TIP3   OH257939   1.978   5.878   0.289  0.5834  0.4558 -0.5959
12175TIP3    H157940   1.964   5.969   0.318  1.1081  0.5429 -0.6039
12175TIP3    H257941   2.072   5.874   0.269  0.5752 -0.1117 -0.5178
12176TIP3   OH257942   4.565   5.732  10.647  0.3535 -0.3453 -0.1285
12176TIP3    H157943   4.643   5.678  10.658  0.0606 -0.2931  3.5248
12176TIP3    H257944   4.598   5.822  10.645  0.5240 -0.4251 -1.1783
12177TIP3   OH257945   0.911   2.513   0.355  0.6075  0.5792 -0.2243
12177TIP3    H157946   0.843   2.579   0.361 -0.8535 -0.7425 -1.3574
12177TIP3    H257947   0.889   2.462   0.277  2.3447 -0.5156 -0.0719
12178TIP3   OH257948   0.792   5.555  14.453  0.4706 -0.5775 -0.4643
12178TIP3    H157949   0.881   5.587  14.441  0.5887 -0.8529 -0.3147
12178TIP3    H257950   0.768   5.581  14.542  0.7748 -1.4076 -0.1361
12179TIP3   OH257951   0.211   1.478  10.542 -0.2652 -0.6048  0.0563
12179TIP3    H157952   0.150   1.541  10.503 -0.8324  0.8496  3.0194
12179TIP3    H257953   0.297   1.507  10.513 -0.5625  1.2800  0.9011
12180TIP3   OH257954   5.697   0.912   1.597  0.6826  0.1578 -0.1454
12180TIP3    H157955   5.740   0.832   1.629 -1.0477 -0.2284  1.3790
12180TIP3    H257956   5.696   0.902   1.502 -0.6571 -2.3284  0.0417
12181TIP3   OH257957   3.019   1.026  10.463  0.2393  0.1662 -0.0915
12181TIP3    H157958   3.000   1.065  10.548  1.5896  0.9209 -0.0958
12181TIP3    H257959   3.031   1.101  10.405  0.2201 -0.3274 -0.7352
12182TIP3   OH257960   4.861   6.700   2.243 -0.5323 -0.1956 -0.3117
12182TIP3    H157961   4.876   6.750   2.163 -1.1873 -0.3979 -0.5624
12182TIP3    H257962   4.801   6.630   2.217 -1.3586  0.1846  0.5305
12183TIP3   OH257963   4.032   1.852   0.811 -0.0487  0.0733 -0.5254
12183TIP3    H157964   4.024   1.943   0.783 -1.5109  0.2407  0.3043
12183TIP3    H257965   4.021   1.801   0.730  0.2887  0.6243 -0.9240
12184TIP3   OH257966   2.340   2.340   4.213 -0.8570 -0.3736 -0.3961
12184TIP3    H157967   2.387   2.273   4.263  0.5378  0.2925 -0.7455
12184TIP3    H257968   2.255   2.347   4.256  0.0005 -0.3850  1.4042
12185TIP3   OH257969   6.699   2.626   1.853 -0.3254  0.1848 -0.3244
12185TIP3    H157970   6.757   2.702   1.854 -2.2739  1.7647 -1.2290
12185TIP3    H257971   6.644   2.636   1.930  1.0340 -1.7508  0.9986
12186TIP3   OH257972   0.134   2.989   3.633 -0.0333 -0.3599  0.0332
12186TIP3    H157973   0.196   2.942   3.577 -1.4539 -0.9282 -1.1288
12186TIP3    H257974   0.070   3.025   3.572 -1.6660 -1.0387  1.2905
12187TIP3   OH257975   3.170   2.448   1.599  0.1695 -0.6415 -0.1756
12187TIP3    H157976   3.245   2.507   1.586 -1.5466  1.7864  0.1303
12187TIP3    H257977   3.193   2.368   1.553  2.7620  0.1756 -0.4335
12188TIP3   OH257978   6.703   0.370   3.504 -0.0918  0.3034 -0.0034
12188TIP3    H157979   6.619   0.391   3.545  0.7339 -0.4925  2.3038
12188TIP3    H257980   6.756   0.449   3.518  0.3113 -0.1065  0.8825
12189TIP3   OH257981   6.309   3.583  12.722  0.6372  0.0621  0.0625
12189TIP3    H157982   6.403   3.570  12.732  0.6143  0.5956  1.0131
12189TIP3    H257983   6.291   3.558  12.631  1.3079 -2.2749  0.5124
12190TIP3   OH257984   0.011   0.790  14.014  0.3007  0.3355 -0.7069
12190TIP3    H157985   0.082   0.817  13.957  2.3080 -0.2876  1.3391
12190TIP3    H257986  -0.065   0.841  13.985  1.6183  1.2463 -2.7707
12191TIP3   OH257987   2.659   4.556   0.513 -0.6230 -0.5475 -0.1694
12191TIP3    H157988   2.727   4.567   0.446 -1.7912 -0.1737 -1.3408
12191TIP3    H257989   2.699   4.498   0.578  1.4350  1.0061  0.0804
12192TIP3   OH257990   2.136   1.404   4.737 -0.5397  0.3501  0.3246
12192TIP3    H157991   2.214   1.421   4.790 -0.1337  1.1476 -0.5048
12192TIP3    H257992   2.137   1.310   4.722  1.6464  0.6185 -1.7244
12193TIP3   OH257993   1.788   4.336   0.559 -0.1782 -0.2534  0.0810
12193TIP3    H157994   1.758   4.427   0.553 -0.7000 -0.4373 -0.1816
12193TIP3    H257995   1.820   4.316   0.471 -1.3573 -0.7571 -0.2522
12194TIP3   OH257996   6.218   6.693  10.291  0.0096  0.1286 -0.0162
12194TIP3    H157997   6.255   6.777  10.320  0.7179  0.2049 -1.0724
12194TIP3    H257998   6.216   6.700  10.195  0.2367 -1.1246 -0.1247
12195TIP3   OH257999   6.610   1.001   0.925 -0.2498 -0.3895 -0.5536
12195TIP3    H158000   6.607   0.926   0.866 -0.8293  0.0414 -1.0737
12195TIP3    H258001   6.657   1.068   0.876 -0.4668 -0.1325 -0.4110
12196TIP3   OH258002   4.810   6.072   3.038 -0.2983  0.0139 -0.6507
12196TIP3    H158003   4.778   6.135   2.974  0.1772  0.6305 -0.2953
12196TIP3    H258004   4.871   6.016   2.989  0.6476  0.9597 -0.5792
12197TIP3   OH258005   2.942   2.034  14.504  0.1884 -0.1726  0.4685
12197TIP3    H158006   2.863   2.085  14.524  0.2278  0.7912 -1.5547
12197TIP3    H258007   3.009   2.070  14.563 -0.5580 -0.1633  1.3429
12198TIP3   OH258008   4.384   3.740   1.567 -0.3214  0.1417  0.7566
12198TIP3    H158009   4.340   3.782   1.493 -1.3568 -0.6280  0.9000
12198TIP3    H258010   4.461   3.698   1.529  0.4351  1.6729  0.5244
12199TIP3   OH258011   5.807   2.181   4.435 -0.0274 -0.0727  0.1435
12199TIP3    H158012   5.767   2.262   4.465  2.9527  0.9914  1.6974
12199TIP3    H258013   5.889   2.175   4.484  1.4938 -2.2891 -2.3643
12200TIP3   OH258014   1.335   0.841   0.368  0.1101  0.0746 -0.8950
12200TIP3    H158015   1.270   0.902   0.403  0.2660  0.4435 -1.2362
12200TIP3    H258016   1.305   0.821   0.280 -0.9495 -1.8259 -0.1616
12201TIP3   OH258017   3.115   4.349   2.468 -0.3276 -0.4401 -0.2961
12201TIP3    H158018   3.169   4.282   2.426  0.1257 -0.7190  0.6910
12201TIP3    H258019   3.159   4.365   2.552 -1.7691 -0.6751  0.5421
12202TIP3   OH258020   3.803   0.322  10.696  0.1008 -0.6146 -0.4390
12202TIP3    H158021   3.824   0.319  10.602  0.4028  1.1534 -0.4623
12202TIP3    H258022   3.713   0.289  10.701  0.6541 -2.3382 -1.1184
12203TIP3   OH258023   6.999   2.355   1.983  0.1506 -0.3940 -0.1139
12203TIP3    H158024   7.037   2.281   2.030  1.3177  0.5212  0.4227
12203TIP3    H258025   7.035   2.433   2.025 -2.5704  0.5865  0.6315
12204TIP3   OH258026   2.352   1.425  14.067 -0.0524  0.2931 -0.1854
12204TIP3    H158027   2.397   1.507  14.088  1.3036 -0.3618 -0.4487
12204TIP3    H258028   2.422   1.360  14.059 -1.1336 -0.9741  0.3410
12205TIP3   OH258029   7.009   1.735  13.810  0.4234 -0.5835 -0.5080
12205TIP3    H158030   6.926   1.782  13.816  0.1952 -0.9673 -0.6478
12205TIP3    H258031   7.066   1.794  13.759  1.2009  1.0150  2.0422
12206TIP3   OH258032   3.351   0.719  15.067 -0.2225 -0.2504  0.1476
12206TIP3    H158033   3.352   0.623  15.068 -0.8780 -0.3341 -1.9974
12206TIP3    H258034   3.428   0.744  15.016 -1.6875  0.1786 -2.0097
12207TIP3   OH258035   1.554   7.043  15.353  0.0600 -0.1960  0.6674
12207TIP3    H158036   1.523   7.129  15.326 -0.4896 -0.1897  1.3168
12207TIP3    H258037   1.574   7.052  15.446  2.3204 -0.1080  0.2269
12208TIP3   OH258038   5.980   6.284  11.834  0.2142 -0.1683  0.3932
12208TIP3    H158039   6.076   6.290  11.837  0.1912 -0.1052  1.1194
12208TIP3    H258040   5.950   6.372  11.854 -0.0014 -0.2011  0.2164
12209TIP3   OH258041   6.143   1.107  10.319  0.1145  0.0962  0.0412
12209TIP3    H158042   6.157   1.184  10.263 -0.1080 -0.1101 -0.3030
12209TIP3    H258043   6.052   1.083  10.303 -0.7081  1.4540  2.2936
12210TIP3   OH258044   2.925   4.913   3.205  0.6253  0.3680 -0.0638
12210TIP3    H158045   3.007   4.953   3.174  0.5519  1.5239  1.1630
12210TIP3    H258046   2.866   4.918   3.129  1.4781  0.1163 -0.7569
12211TIP3   OH258047   2.107   2.277   0.428 -0.4641 -0.5565 -0.0591
12211TIP3    H158048   2.175   2.324   0.380  0.3890  2.1164  3.4052
12211TIP3    H258049   2.154   2.210   0.477 -1.0676 -1.8773 -1.1904
12212TIP3   OH258050   0.721   4.461   4.806  0.1695  0.1577 -0.0984
12212TIP3    H158051   0.815   4.462   4.826  0.4439  0.9609 -1.3248
12212TIP3    H258052   0.689   4.544   4.843  0.4161  0.9880 -1.6476
12213TIP3   OH258053   4.392   4.996   3.315  0.1099  0.7418  0.3038
12213TIP3    H158054   4.403   4.904   3.291 -1.9157  0.7072 -0.7706
12213TIP3    H258055   4.330   4.995   3.388 -0.1432  1.2457  0.1038
12214TIP3   OH258056   0.755   2.795   2.390  0.0676  0.1355  0.2510
12214TIP3    H158057   0.717   2.868   2.439  1.2535  0.1811  1.1547
12214TIP3    H258058   0.728   2.717   2.438  0.0257  0.0840  0.1430
12215TIP3   OH258059   0.990   5.369   4.853  0.7683  0.0066 -0.4988
12215TIP3    H158060   1.050   5.296   4.872  0.2635 -0.2502  0.1376
12215TIP3    H258061   0.963   5.354   4.762  0.5990 -0.6589 -0.3450
12216TIP3   OH258062   2.102   6.019  15.473  0.2768  0.1933 -0.1763
12216TIP3    H158063   2.062   6.087  15.527  0.7217  0.2036  0.1490
12216TIP3    H258064   2.191   6.010  15.508  0.9939  1.0434 -1.6609
12217TIP3   OH258065   5.765   6.801  13.842  0.1709 -0.1735  0.1179
12217TIP3    H158066   5.825   6.828  13.912 -0.8213 -1.1486  1.4085
12217TIP3    H258067   5.745   6.882  13.795  0.8531  0.5172  0.9790
12218TIP3   OH258068   5.241   3.841   0.392 -0.2833 -0.1317  0.2557
12218TIP3    H158069   5.163   3.849   0.446 -1.9120  1.7853 -2.1918
12218TIP3    H258070   5.254   3.928   0.355  2.0782 -0.8116 -0.7095
12219TIP3   OH258071   4.150   5.952   1.365 -0.0051  0.0784 -0.4012
12219TIP3    H158072   4.215   6.020   1.379 -0.1752  0.0373  0.6370
12219TIP3    H258073   4.198   5.882   1.320  0.2625  0.7034 -1.1073
12220TIP3   OH258074   1.028   5.820   2.237 -0.2659  0.3014  0.4626
12220TIP3    H158075   1.054   5.849   2.325 -2.1753 -0.2180  1.2651
12220TIP3    H258076   1.105   5.835   2.182  0.8893  0.8890  2.1700
12221TIP3   OH258077   5.731   5.399  14.467 -0.6732 -0.0583 -0.1869
12221TIP3    H158078   5.687   5.322  14.504 -0.7506  0.1820  0.2243
12221TIP3    H258079   5.805   5.363  14.419 -0.7032 -0.3929  0.0129
12222TIP3   OH258080   1.076   3.083  14.732 -0.1721  0.4740 -0.3074
12222TIP3    H158081   1.134   3.136  14.675  1.0849 -0.0431  0.4424
12222TIP3    H258082   0.998   3.137  14.744  0.5261  1.5897 -0.6369
12223TIP3   OH258083   0.682   1.999   1.688 -0.0824 -0.0197  0.2699
12223TIP3    H158084   0.632   1.979   1.609 -1.8847 -0.9799  1.5732
12223TIP3    H258085   0.770   1.965   1.671 -0.9740 -2.0513 -0.5868
12224TIP3   OH258086   1.182   5.777   0.870 -0.3972 -0.4279 -0.0980
12224TIP3    H158087   1.180   5.815   0.782  0.5442  1.6164  0.6846
12224TIP3    H258088   1.107   5.816   0.915  0.0994 -0.1180  0.4855
12225TIP3   OH258089   6.688   2.718   2.693 -0.4120 -0.0115  1.1610
12225TIP3    H158090   6.623   2.782   2.721  0.9684  0.9550  2.3357
12225TIP3    H258091   6.658   2.635   2.732 -1.5619  0.1541  0.6622
12226TIP3   OH258092   7.033   3.135   1.225  0.6117 -0.2510 -0.5335
12226TIP3    H158093   7.123   3.137   1.258  0.6624  1.1241 -0.6898
12226TIP3    H258094   6.979   3.119   1.302  0.7776  2.3075  0.2133
12227TIP3   OH258095   6.323   4.003   1.116 -0.2330  0.0249 -0.7959
12227TIP3    H158096   6.331   3.965   1.204 -1.7390  0.1195 -0.5818
12227TIP3    H258097   6.287   3.932   1.063  2.3822 -0.6240 -1.8364
12228TIP3   OH258098   1.335   1.731   2.626 -1.1521 -0.2778  0.7814
12228TIP3    H158099   1.404   1.738   2.560 -0.1564  0.5666  1.8562
12228TIP3    H258100   1.293   1.817   2.626 -0.9562 -0.1778  1.4240
12229TIP3   OH258101   4.526   4.949  13.347  0.5325  0.5972 -0.2489
12229TIP3    H158102   4.472   5.025  13.326  0.3086  0.1943 -1.1995
12229TIP3    H258103   4.469   4.893  13.399  0.2579  0.5045 -0.6399
12230TIP3   OH258104   3.043   1.523  11.622 -0.6966 -0.4264 -0.4860
12230TIP3    H158105   3.111   1.480  11.571  0.2242  0.0384  0.3140
12230TIP3    H258106   3.017   1.598  11.569  0.1746 -0.0054 -0.3449
12231TIP3   OH258107   0.348   3.203  14.056 -0.5138 -0.3865  0.1853
12231TIP3    H158108   0.418   3.268  14.057  0.0817 -0.9930 -0.6390
12231TIP3    H258109   0.305   3.215  13.971 -1.8181  0.3746  0.9148
12232TIP3   OH258110   6.817   4.976  13.139 -0.0628 -0.1090  0.1436
12232TIP3    H158111   6.800   4.949  13.049  2.1500 -0.2930 -0.2764
12232TIP3    H258112   6.779   5.064  13.145  1.7350  0.8890 -1.7471
12233TIP3   OH258113   3.387   0.752  11.344  0.4400 -0.2584  0.4123
12233TIP3    H158114   3.460   0.801  11.382  0.0539  0.4398  0.2859
12233TIP3    H258115   3.341   0.714  11.419 -0.7226  1.6824  0.7634
12234TIP3   OH258116   5.112   5.676   3.545  0.5596  0.5225  0.3507
12234TIP3    H158117   5.123   5.624   3.624  0.6347 -0.1542 -0.0939
12234TIP3    H258118   5.185   5.649   3.489  1.3686  2.0672  0.6139
12235TIP3   OH258119   2.550   0.699   3.791  0.8880  0.0686  0.5291
12235TIP3    H158120   2.562   0.605   3.799  1.3742  0.0150 -0.6448
12235TIP3    H258121   2.560   0.732   3.880 -0.8990 -1.1421  1.2334
12236TIP3   OH258122   5.649   2.615   3.936 -0.4414 -0.0500 -0.2619
12236TIP3    H158123   5.606   2.564   3.867  1.1666 -0.0982 -1.2677
12236TIP3    H258124   5.577   2.661   3.979 -1.6095 -0.8818 -1.2494
12237TIP3   OH258125   6.253   3.757   0.141  0.2179 -0.9932 -0.3193
12237TIP3    H158126   6.336   3.803   0.129  0.4529 -1.5180 -0.7248
12237TIP3    H258127   6.276   3.665   0.144 -0.2847 -1.1109  0.2156
12238TIP3   OH258128   0.214   2.242  14.889 -0.0082 -0.7843  0.3359
12238TIP3    H158129   0.121   2.232  14.908 -0.6359 -2.6509 -2.9710
12238TIP3    H258130   0.217   2.291  14.807  2.1263  1.2388  1.4914
12239TIP3   OH258131   0.254   3.744  12.747  0.3951 -0.2324 -0.3767
12239TIP3    H158132   0.208   3.700  12.818 -0.5149 -0.5449 -1.1293
12239TIP3    H258133   0.314   3.678  12.712  0.1157 -0.4047 -0.5380
12240TIP3   OH258134   0.393   5.269  10.470  0.4401  0.1183  0.3466
12240TIP3    H158135   0.365   5.359  10.487 -1.7157 -0.3906 -0.3061
12240TIP3    H258136   0.408   5.232  10.558  0.6692  0.8872  0.6401
12241TIP3   OH258137   4.313   1.752   4.752  0.2038 -0.3318 -0.3434
12241TIP3    H158138   4.355   1.735   4.668  0.5690 -1.5136  0.0481
12241TIP3    H258139   4.240   1.690   4.756 -0.5664  0.5595 -0.3001
12242TIP3   OH258140   4.824   6.810  14.197 -0.3161  0.1090 -0.2941
12242TIP3    H158141   4.904   6.764  14.221 -1.0047 -1.0923 -0.2154
12242TIP3    H258142   4.775   6.747  14.145 -0.2208  1.5907 -2.3377
12243TIP3   OH258143   3.444   0.211  14.286  0.0089 -0.1983 -0.0861
12243TIP3    H158144   3.368   0.219  14.228  0.7808 -2.0263 -1.4637
12243TIP3    H258145   3.455   0.117  14.299  1.6276  0.0444  0.6536
12244TIP3   OH258146   5.699   0.228   4.083  0.4494 -0.7174 -0.1296
12244TIP3    H158147   5.753   0.178   4.143 -0.2231 -0.8375  0.3835
12244TIP3    H258148   5.623   0.173   4.067  0.1255 -0.2380 -0.2622
12245TIP3   OH258149   7.066   2.122  13.506  0.2203 -0.1024  0.1751
12245TIP3    H158150   7.087   2.213  13.528 -1.6145  0.5046 -0.3560
12245TIP3    H258151   7.048   2.124  13.412  2.0731 -1.4427 -0.2486
12246TIP3   OH258152   4.440   2.910   0.097  0.2708 -0.8097  0.2731
12246TIP3    H158153   4.430   3.002   0.120 -1.0223 -1.0852  0.9200
12246TIP3    H258154   4.505   2.910   0.027  1.1769  0.4675  1.0641
12247TIP3   OH258155   7.019   0.501  14.642  0.2254  0.0231  0.5474
12247TIP3    H158156   7.045   0.482  14.552  1.0797 -0.1018  0.8159
12247TIP3    H258157   6.924   0.512  14.637  0.0271 -1.5901 -0.1040
12248TIP3   OH258158   0.672   2.386   1.850 -0.1628 -0.0474 -0.1444
12248TIP3    H158159   0.720   2.468   1.855 -0.0545 -0.1122 -0.1279
12248TIP3    H258160   0.662   2.368   1.756 -1.2633  0.6191 -0.1754
12249TIP3   OH258161   1.411   0.707   2.236  0.0590 -0.5935  0.0928
12249TIP3    H158162   1.380   0.639   2.296 -0.7239  0.2796  0.6986
12249TIP3    H258163   1.479   0.753   2.286  0.3192 -0.6819 -0.1771
12250TIP3   OH258164   6.153   6.763   3.473  0.4181 -0.1221 -0.3362
12250TIP3    H158165   6.242   6.758   3.437  0.2842 -1.5015 -0.5590
12250TIP3    H258166   6.106   6.692   3.429  0.0078 -1.3364  1.8737
12251TIP3   OH258167   3.811   0.065  14.222 -0.2593  0.4948 -0.3127
12251TIP3    H158168   3.751   0.101  14.288 -0.4200  0.7669 -0.6081
12251TIP3    H258169   3.784  -0.026  14.212 -0.9093  0.7286 -0.7629
12252TIP3   OH258170   3.625   2.086   4.407 -0.2090 -0.1044 -0.2793
12252TIP3    H158171   3.616   2.015   4.470  0.7329 -0.6171 -0.7041
12252TIP3    H258172   3.701   2.062   4.354  0.2022  1.2841 -0.3498
12253TIP3   OH258173   0.117   2.954   1.907 -0.0189  0.9947 -0.0987
12253TIP3    H158174   0.199   2.960   1.956 -1.1164  1.2152  1.8115
12253TIP3    H258175   0.055   2.913   1.968 -0.7702 -1.3949 -2.2723
12254TIP3   OH258176   4.834   6.080  14.683  0.0036 -0.1263  0.2549
12254TIP3    H158177   4.783   6.158  14.663 -0.8749 -0.7108  0.1560
12254TIP3    H258178   4.848   6.038  14.599 -0.4264 -0.6078  0.4169
12255TIP3   OH258179   6.114   5.480  11.400  0.0194 -0.0096  0.8814
12255TIP3    H158180   6.075   5.437  11.324 -1.7100  1.4173  0.9066
12255TIP3    H258181   6.181   5.418  11.430  0.8040 -0.5826 -1.7917
12256TIP3   OH258182   6.425   1.327  13.790  0.1698 -0.4256 -0.2526
12256TIP3    H158183   6.429   1.236  13.820  2.1710 -0.3935 -0.3446
12256TIP3    H258184   6.373   1.323  13.709  1.5633 -1.7467 -1.1274
12257TIP3   OH258185   4.169   5.317  12.299  0.1343  0.4470  0.0720
12257TIP3    H158186   4.105   5.384  12.275 -0.7217 -0.6021 -0.6575
12257TIP3    H258187   4.119   5.252  12.348  0.7264 -0.1895 -0.1568
12258TIP3   OH258188   6.779   4.049   4.548  0.5041  0.3419  0.0960
12258TIP3    H158189   6.843   4.120   4.554  0.5242  0.4964 -1.5203
12258TIP3    H258190   6.699   4.091   4.515 -0.2463  0.0223  1.4194
12259TIP3   OH258191   1.094   2.772   0.903 -0.0918  0.3280 -0.4040
12259TIP3    H158192   1.027   2.707   0.883 -0.8898  1.4120 -1.3119
12259TIP3    H258193   1.075   2.846   0.847  1.1227  1.1681  0.2276
12260TIP3   OH258194   6.199   6.275   1.780  0.2772 -0.0398  0.1164
12260TIP3    H158195   6.195   6.199   1.838 -2.8811 -0.0983 -0.0007
12260TIP3    H258196   6.214   6.349   1.838 -0.4761 -0.3609  0.7478
12261TIP3   OH258197   3.307   4.425  15.209  0.1576  0.0042 -0.0063
12261TIP3    H158198   3.258   4.371  15.271  1.6938 -1.5833 -0.0871
12261TIP3    H258199   3.331   4.365  15.138 -0.6072  1.5152 -1.6481
12262TIP3   OH258200   0.438   4.465   2.965 -0.0136 -0.0989  0.6848
12262TIP3    H158201   0.365   4.520   2.935  0.5432  0.6301  0.6516
12262TIP3    H258202   0.493   4.525   3.015  1.9998  0.0317 -1.5357
12263TIP3   OH258203   5.988   4.029   3.830  0.2161  0.2457  0.0319
12263TIP3    H158204   5.937   4.013   3.910  0.9949 -1.1501  0.2828
12263TIP3    H258205   5.966   3.956   3.773  2.1253 -0.5623  0.2638
12264TIP3   OH258206   2.760   3.812   4.601 -0.0071 -0.1721 -0.2919
12264TIP3    H158207   2.794   3.750   4.536 -0.6328  0.4012 -1.1867
12264TIP3    H258208   2.750   3.759   4.681  3.5611 -0.2395  0.2733
12265TIP3   OH258209   3.243   4.955  12.009 -0.0924 -0.1035  0.3598
12265TIP3    H158210   3.259   5.011  11.933 -0.7046 -2.0974 -1.3240
12265TIP3    H258211   3.233   5.016  12.082 -0.4520  1.9459 -1.3097
12266TIP3   OH258212   3.880   5.704  10.088  0.1778 -0.4953  0.0962
12266TIP3    H158213   3.944   5.740  10.027 -0.6937 -0.3490 -0.7427
12266TIP3    H258214   3.886   5.609  10.077 -0.7140 -0.4449 -1.0098
12267TIP3   OH258215   5.250   3.345  10.622 -0.5595  0.5205  0.2684
12267TIP3    H158216   5.346   3.347  10.619 -0.5258  0.6799  1.1509
12267TIP3    H258217   5.230   3.325  10.713 -1.3683 -1.0133 -0.2165
12268TIP3   OH258218   0.203   1.420  14.776  0.1089  0.5372  0.0086
12268TIP3    H158219   0.236   1.332  14.795  3.2286  1.2370 -1.5452
12268TIP3    H258220   0.216   1.469  14.857 -1.5441 -0.3205  0.8473
12269TIP3   OH258221   3.611   3.768  15.179 -0.3341  0.8844  0.1752
12269TIP3    H158222   3.702   3.741  15.189  0.1377  2.8391  1.9151
12269TIP3    H258223   3.567   3.692  15.141  1.5458 -0.9606  1.4780
12270TIP3   OH258224   4.483   2.483   4.882  0.2136  0.4545  0.1977
12270TIP3    H158225   4.426   2.409   4.904  1.5039 -1.1614 -1.5064
12270TIP3    H258226   4.430   2.538   4.824 -0.1081 -0.2216 -0.1544
12271TIP3   OH258227   2.770   4.333   1.494 -0.2817 -0.2892  0.1011
12271TIP3    H158228   2.704   4.295   1.553  0.2373 -0.1171  0.8037
12271TIP3    H258229   2.798   4.260   1.440  0.2881 -0.7991  1.0562
12272TIP3   OH258230   5.542   4.833  11.846 -0.0661 -0.0958 -0.6500
12272TIP3    H158231   5.481   4.870  11.909 -2.5455 -1.6837 -1.9486
12272TIP3    H258232   5.566   4.748  11.882  0.5826  0.0761 -0.6547
12273TIP3   OH258233   4.261   0.526  13.593  0.2175 -0.0844 -0.3542
12273TIP3    H158234   4.186   0.484  13.550 -0.2495 -0.0441  0.4171
12273TIP3    H258235   4.300   0.580  13.524  0.4093 -1.2218 -1.1678
12274TIP3   OH258236   6.882   2.988   5.494  0.5330 -0.1738 -0.5292
12274TIP3    H158237   6.807   3.028   5.536 -0.0573 -0.4582 -1.2863
12274TIP3    H258238   6.943   3.060   5.479 -0.0121  0.2363 -0.8063
12275TIP3   OH258239   5.601   4.475  10.751 -0.2867 -0.1945 -0.0436
12275TIP3    H158240   5.623   4.420  10.676  0.7581  1.8510 -1.3398
12275TIP3    H258241   5.541   4.541  10.716  1.0660  1.4480  0.5852
12276TIP3   OH258242   6.477   6.596  10.367  0.7664  0.0705  0.0892
12276TIP3    H158243   6.387   6.626  10.352  0.2587 -0.2311  2.2066
12276TIP3    H258244   6.514   6.661  10.427  0.9204 -1.4391  1.6776
12277TIP3   OH258245   6.700   4.815  12.204  0.1648 -0.3928  0.1729
12277TIP3    H158246   6.747   4.894  12.175 -2.2635  1.1947  0.2955
12277TIP3    H258247   6.683   4.766  12.124  2.0340 -1.0634  0.1351
12278TIP3   OH258248   4.285   6.488   5.462  0.4570 -0.2187  0.3400
12278TIP3    H158249   4.259   6.543   5.388 -1.9871 -1.0640  0.4813
12278TIP3    H258250   4.235   6.522   5.536 -1.0350 -2.4314  0.4665
12279TIP3   OH258251   0.616   6.550  15.142  0.2190  0.3311 -0.4147
12279TIP3    H158252   0.670   6.628  15.155 -0.2622  0.7403 -0.8235
12279TIP3    H258253   0.679   6.478  15.136  0.6361  0.5869  0.6318
12280TIP3   OH258254   5.591   6.378   2.305 -0.5137  0.3233 -0.0285
12280TIP3    H158255   5.584   6.474   2.300 -1.2696  0.3775  1.5853
12280TIP3    H258256   5.608   6.360   2.397  0.1727 -1.0939 -0.4067
12281TIP3   OH258257   3.804   1.295   1.835 -0.4430  0.0142  0.2109
12281TIP3    H158258   3.751   1.328   1.763 -1.0770  1.7309  1.3872
12281TIP3    H258259   3.751   1.225   1.873  0.5681 -1.9924 -1.8340
12282TIP3   OH258260   3.924   2.316   3.149 -0.3748 -0.1063  0.3451
12282TIP3    H158261   3.945   2.376   3.077  1.4130 -0.3989  0.5804
12282TIP3    H258262   3.923   2.230   3.108  0.2059 -0.2291  0.5885
12283TIP3   OH258263   6.322   5.420   0.074 -0.1586 -0.1548  0.2666
12283TIP3    H158264   6.272   5.383   0.148  0.4641  0.0736  0.8073
12283TIP3    H258265   6.363   5.498   0.110  0.8097 -0.4861 -0.0958
12284TIP3   OH258266   0.716   3.045  12.360 -0.5150 -0.2493 -0.1569
12284TIP3    H158267   0.807   3.057  12.331 -0.7854  0.7821 -0.6396
12284TIP3    H258268   0.687   3.133  12.384 -0.9101 -0.8058  1.4775
12285TIP3   OH258269   5.607   4.261  15.113  0.1178 -0.7069 -0.5948
12285TIP3    H158270   5.652   4.271  15.029 -2.4256  1.0749 -1.8915
12285TIP3    H258271   5.653   4.320  15.172 -0.1266  0.6689 -1.7295
12286TIP3   OH258272   1.803   5.807   3.714 -0.0077  0.3223 -0.2543
12286TIP3    H158273   1.883   5.787   3.665 -1.1840 -0.7487 -1.8369
12286TIP3    H258274   1.791   5.732   3.772 -1.8573 -1.5118 -2.7915
12287TIP3   OH258275   5.480   2.229  15.261 -0.4023  0.1330  0.5067
12287TIP3    H158276   5.431   2.283  15.324 -0.3294 -1.1970  1.7738
12287TIP3    H258277   5.542   2.289  15.221 -1.1410  1.2444  0.9824
12288TIP3   OH258278   6.187   2.054  15.502  0.1709 -0.4264  0.0165
12288TIP3    H158279   6.267   2.031  15.455 -1.2875 -1.6314 -2.0506
12288TIP3    H258280   6.172   1.982  15.562  0.7271 -0.0938  0.5639
12289TIP3   OH258281   7.102   5.564  11.307 -0.2607  0.2473  1.0087
12289TIP3    H158282   7.097   5.645  11.357 -0.2674 -0.1116  1.5885
12289TIP3    H258283   7.184   5.573  11.257 -0.7297  1.0091  0.3600
12290TIP3   OH258284   1.869   6.151  13.764 -0.3926 -0.0871 -0.2925
12290TIP3    H158285   1.794   6.151  13.705  1.3994  1.0392 -2.7224
12290TIP3    H258286   1.834   6.185  13.847 -2.4357  0.9533 -1.5155
12291TIP3   OH258287   0.841   5.603   0.978  0.4795  0.0221  0.2801
12291TIP3    H158288   0.841   5.667   0.907  2.5490 -1.9332 -1.6251
12291TIP3    H258289   0.751   5.605   1.011  0.4925  4.1329  0.6831
12292TIP3   OH258290   0.600   4.374   4.309  0.7029 -0.2190  0.0621
12292TIP3    H158291   0.509   4.370   4.340  0.2427  0.8274 -1.0306
12292TIP3    H258292   0.649   4.411   4.382 -0.2756  1.8461 -0.2490
12293TIP3   OH258293   2.294   5.197   1.224  0.3694 -0.3375 -0.1558
12293TIP3    H158294   2.354   5.249   1.277  0.1687  0.5070 -0.7416
12293TIP3    H258295   2.275   5.120   1.279 -2.7879  2.1759  2.7407
12294TIP3   OH258296   3.149   2.318   5.738  1.2881 -0.4308  0.2315
12294TIP3    H158297   3.099   2.291   5.814  0.4862  1.9687  0.6469
12294TIP3    H258298   3.237   2.333   5.772  1.5443 -1.6211  0.1501
12295TIP3   OH258299   3.087   3.789  11.183 -0.2717  0.4353 -0.1899
12295TIP3    H158300   3.148   3.774  11.111 -1.8108  2.6385 -2.1106
12295TIP3    H258301   3.007   3.744  11.155 -0.4744  0.1487  0.8385
12296TIP3   OH258302   7.046   4.623   4.622 -0.3705 -0.3750  0.4655
12296TIP3    H158303   6.977   4.681   4.590 -0.3067 -0.5860 -0.0722
12296TIP3    H258304   7.000   4.552   4.666 -0.4724 -0.2320  0.5891
12297TIP3   OH258305   0.532   5.862  10.291 -0.0051  0.7730  0.0778
12297TIP3    H158306   0.553   5.925  10.222  2.3114  1.3934  1.2358
12297TIP3    H258307   0.531   5.777  10.247  0.8483  1.2136 -0.8321
12298TIP3   OH258308   4.358   0.319  13.162  0.1054 -0.3253  0.1137
12298TIP3    H158309   4.270   0.333  13.196  0.5974 -0.8627  1.7158
12298TIP3    H258310   4.394   0.406  13.149 -0.4293 -0.1095  0.0685
12299TIP3   OH258311   2.091   5.575   4.789  0.2429 -0.7060 -0.4936
12299TIP3    H158312   2.171   5.561   4.738  1.1589  0.9430  0.3801
12299TIP3    H258313   2.058   5.487   4.807  0.2463 -1.3612 -3.2846
12300TIP3   OH258314   2.462   2.529  15.408  0.3290 -0.4138  0.1056
12300TIP3    H158315   2.440   2.610  15.454  0.0419 -1.0855  1.1974
12300TIP3    H258316   2.379   2.500  15.369  0.1135 -0.9095  0.9148
12301TIP3   OH258317   0.530   0.621   1.382  0.3564  0.4762  0.0000
12301TIP3    H158318   0.585   0.699   1.376 -2.5237  2.6026 -1.5809
12301TIP3    H258319   0.460   0.646   1.443 -0.3501 -1.0935 -0.1211
12302TIP3   OH258320   4.871   5.946  14.456 -0.4414 -0.0499 -0.3862
12302TIP3    H158321   4.814   5.869  14.462 -1.0681  0.5028  1.2951
12302TIP3    H258322   4.960   5.911  14.458 -0.6345 -0.7123  2.9990
12303TIP3   OH258323   1.450   4.228   3.165  0.1247 -0.5530  0.1209
12303TIP3    H158324   1.463   4.304   3.222  0.4619 -0.6788  0.2153
12303TIP3    H258325   1.505   4.245   3.089  0.0811 -0.6303  0.0719
12304TIP3   OH258326   0.705   6.744  11.113 -0.4977  0.5315  0.5500
12304TIP3    H158327   0.769   6.798  11.066 -1.4114  0.1676 -1.1888
12304TIP3    H258328   0.730   6.752  11.205  0.3303  2.6538  0.1974
12305TIP3   OH258329   3.125   4.790   2.882 -0.3199  0.0725 -0.2142
12305TIP3    H158330   3.183   4.725   2.842 -0.1861  0.4803 -0.6927
12305TIP3    H258331   3.144   4.871   2.835  0.3927  0.7501  1.1637
12306TIP3   OH258332   2.531   4.094  13.833 -0.6405 -0.4540 -0.0913
12306TIP3    H158333   2.560   4.027  13.771 -2.8057 -1.4717 -0.0699
12306TIP3    H258334   2.486   4.159  13.778 -1.6012 -0.8078  0.2564
12307TIP3   OH258335   7.111   0.179  11.707 -0.5317 -0.2413  0.1645
12307TIP3    H158336   7.167   0.256  11.710  0.3880 -0.9162  1.2860
12307TIP3    H258337   7.057   0.186  11.786  0.0910 -1.1054  0.6871
12308TIP3   OH258338   3.445   6.688  13.343 -0.0420  0.3716 -0.3200
12308TIP3    H158339   3.440   6.602  13.384 -1.1311  0.5526 -0.0418
12308TIP3    H258340   3.409   6.748  13.408  0.3832  0.9974 -0.6466
12309TIP3   OH258341   6.713   2.042  10.471  0.1057  0.3512  0.2159
12309TIP3    H158342   6.628   2.086  10.466 -0.5158 -0.9520 -1.6250
12309TIP3    H258343   6.698   1.967  10.530  0.0089  0.1817 -0.0250
12310TIP3   OH258344   5.308   5.779   2.392  0.0654 -0.0796  0.2880
12310TIP3    H158345   5.328   5.778   2.485 -0.8222  0.2945  0.4877
12310TIP3    H258346   5.212   5.780   2.387  0.0968 -0.0439 -0.6248
12311TIP3   OH258347   5.664   4.625  12.015  0.2866 -0.4568  0.3048
12311TIP3    H158348   5.656   4.539  11.974 -0.7938  0.0577 -0.6266
12311TIP3    H258349   5.758   4.639  12.026  0.4622 -2.0098  1.0525
12312TIP3   OH258350   4.127   5.645   2.165  0.2045 -0.2310 -0.1746
12312TIP3    H158351   4.148   5.577   2.101  3.3081 -0.3672  0.7937
12312TIP3    H258352   4.138   5.727   2.117 -0.3270 -0.3616 -0.5266
12313TIP3   OH258353   3.204   5.272   4.079  0.5190  0.2239 -0.2647
12313TIP3    H158354   3.295   5.256   4.105  0.4845  0.3821 -0.0434
12313TIP3    H258355   3.152   5.222   4.142  0.4620 -0.3172 -0.7235
12314TIP3   OH258356   6.698   7.005  13.096 -0.2331 -0.0495 -0.2429
12314TIP3    H158357   6.692   7.042  13.008  0.3765  1.8910  0.4721
12314TIP3    H258358   6.634   6.934  13.097 -2.3366  1.7192 -1.3768
12315TIP3   OH258359   5.791   0.346  11.193  0.1052 -0.0044 -0.1458
12315TIP3    H158360   5.825   0.286  11.127  0.9706  0.1241  0.1654
12315TIP3    H258361   5.869   0.381  11.236 -0.4325  0.1805  0.7073
12316TIP3   OH258362   4.762   3.772   3.844  0.3169 -0.0766  0.3738
12316TIP3    H158363   4.711   3.817   3.776 -1.2934 -1.5272  0.5493
12316TIP3    H258364   4.789   3.842   3.903  1.2695  1.1497 -1.4101
12317TIP3   OH258365   1.623   0.780  10.078  0.1014  0.0955  0.2384
12317TIP3    H158366   1.589   0.792  10.167 -0.5706  2.9555 -0.3069
12317TIP3    H258367   1.549   0.741  10.030  0.3481 -1.1215  0.7899
12318TIP3   OH258368   5.217   4.627   4.992 -0.3219 -0.2148 -0.2757
12318TIP3    H158369   5.211   4.691   4.921  2.1847  0.4220 -0.0271
12318TIP3    H258370   5.136   4.639   5.042 -0.5938  1.7224 -1.0892
12319TIP3   OH258371   4.273   2.747   0.834  0.2975 -0.2624 -0.1879
12319TIP3    H158372   4.319   2.665   0.855 -0.0679 -0.7680 -1.2680
12319TIP3    H258373   4.325   2.785   0.763  1.4962  1.3868  1.4893
12320TIP3   OH258374   1.710   2.387  15.595  0.2176 -0.1443 -0.1445
12320TIP3    H158375   1.679   2.475  15.615  0.4484  0.4852 -2.2494
12320TIP3    H258376   1.683   2.333  15.669  1.7069  2.0288  2.0900
12321TIP3   OH258377   4.824   2.924   4.587 -0.4861 -0.7546 -0.2618
12321TIP3    H158378   4.796   2.917   4.678 -1.2110 -0.3146 -0.4471
12321TIP3    H258379   4.873   3.006   4.583 -1.4411 -0.1773 -0.5077
12322TIP3   OH258380   5.553   0.434  10.498  0.3127  0.1942 -0.3567
12322TIP3    H158381   5.487   0.372  10.528  0.8229 -0.5532 -0.7400
12322TIP3    H258382   5.512   0.479  10.425  0.9678 -1.8865 -2.1284
12323TIP3   OH258383   1.803   4.761   5.318 -0.8125 -0.4639 -0.1542
12323TIP3    H158384   1.835   4.776   5.407 -0.5093  0.7175 -0.4544
12323TIP3    H258385   1.783   4.848   5.284  2.3794 -0.4656 -2.4769
12324TIP3   OH258386   4.334   1.447   5.629  0.3337 -0.2512 -0.3476
12324TIP3    H158387   4.392   1.387   5.581  0.9717 -0.0441  0.1452
12324TIP3    H258388   4.255   1.453   5.575 -0.1431 -2.2791  0.0329
12325TIP3   OH258389   1.414   5.986   5.120 -0.4292 -0.2540 -0.0550
12325TIP3    H158390   1.339   6.026   5.076 -0.8738 -0.2911  0.6578
12325TIP3    H258391   1.386   5.977   5.211  0.6741  0.3007  0.3478
12326TIP3   OH258392   0.857   5.950  15.405  0.3362  0.2970  0.3692
12326TIP3    H158393   0.942   5.958  15.447 -0.2387  0.9345  1.4789
12326TIP3    H258394   0.862   6.008  15.329  0.8569  0.4004  0.4787
12327TIP3   OH258395   0.038   5.942  10.542 -0.3675  0.1336 -0.0648
12327TIP3    H158396   0.091   5.946  10.621 -1.9511 -3.7377  1.4894
12327TIP3    H258397  -0.052   5.953  10.573 -1.1486 -2.8578 -0.9271
12328TIP3   OH258398   3.129   5.649   4.205  0.5331  0.1616 -0.0538
12328TIP3    H158399   3.097   5.584   4.268  1.4593  1.2366  1.5983
12328TIP3    H258400   3.219   5.666   4.232  0.5384  1.6112 -0.8913
12329TIP3   OH258401   4.172   3.183  11.818 -0.0183  0.2514  0.5776
12329TIP3    H158402   4.128   3.190  11.903  1.7965 -1.0642  1.6959
12329TIP3    H258403   4.164   3.090  11.795  0.6899  0.3331 -0.0207
12330TIP3   OH258404   1.944   0.872   0.125 -0.7931  0.6188  0.3482
12330TIP3    H158405   1.900   0.848   0.044  2.7904 -0.6877 -1.4319
12330TIP3    H258406   1.992   0.794   0.151  0.8640  2.0199  1.8127
12331TIP3   OH258407   6.876   5.181   1.967  0.4067  0.0260 -0.8388
12331TIP3    H158408   6.844   5.231   2.042  1.1706 -0.3966 -0.2178
12331TIP3    H258409   6.841   5.227   1.891 -1.1170 -0.0453 -0.2117
12332TIP3   OH258410   4.775   0.354   1.549  0.1874  0.4264 -0.0026
12332TIP3    H158411   4.702   0.415   1.537  0.0413  0.0800 -0.9823
12332TIP3    H258412   4.737   0.279   1.595  0.1568  0.6754  0.3804
12333TIP3   OH258413   6.862   4.366   9.474  0.3340 -0.0803  0.6502
12333TIP3    H158414   6.775   4.403   9.490 -0.2672 -0.8044 -0.7822
12333TIP3    H258415   6.851   4.311   9.397  1.7810 -1.2518  1.2350
12334TIP3   OH258416   5.028   0.395  14.252 -0.0190  0.3807 -0.4441
12334TIP3    H158417   5.067   0.340  14.184  0.1759  0.6926 -0.5836
12334TIP3    H258418   5.072   0.479  14.244 -1.2392  0.9835 -1.1172
12335TIP3   OH258419   2.946   6.161   9.877  0.6327 -0.6633  0.3162
12335TIP3    H158420   2.920   6.244   9.836  0.4823 -0.1782  1.3613
12335TIP3    H258421   3.041   6.157   9.864  0.3130 -1.7192 -2.2035
12336TIP3   OH258422   2.708   0.681   2.519 -0.0939 -0.0615  0.6754
12336TIP3    H158423   2.627   0.654   2.475 -0.1407  1.0695  0.0261
12336TIP3    H258424   2.737   0.758   2.470  0.3968  0.6360  2.0061
12337TIP3   OH258425   7.128   4.306   3.140  0.2112  0.6151 -0.7639
12337TIP3    H158426   7.102   4.229   3.191  0.0726  0.4827 -1.0349
12337TIP3    H258427   7.097   4.380   3.192  1.4084  0.5351  0.1094
12338TIP3   OH258428   1.799   2.198  11.370 -0.1664  0.7028  0.5601
12338TIP3    H158429   1.796   2.124  11.310  1.4611  1.4789 -0.5346
12338TIP3    H258430   1.889   2.200  11.403 -0.9079  0.5157  2.8058
12339TIP3   OH258431   1.979   5.535  15.553 -0.1970  0.1179  0.1957
12339TIP3    H158432   2.023   5.613  15.522 -0.2793 -0.3431 -1.1289
12339TIP3    H258433   2.050   5.474  15.574 -0.1456  0.3765  0.7881
12340TIP3   OH258434   4.524   4.150  11.634  0.4109  0.6222  0.1158
12340TIP3    H158435   4.596   4.100  11.672  0.5127  0.4715 -0.2696
12340TIP3    H258436   4.556   4.241  11.633  0.4049  0.6296  0.3881
12341TIP3   OH258437   4.014   2.116   2.990 -0.1152 -0.3600  0.4846
12341TIP3    H158438   3.948   2.056   2.958  0.6947 -2.2497  2.1081
12341TIP3    H258439   4.065   2.140   2.912 -0.2167 -2.1444 -0.1883
12342TIP3   OH258440   2.543   6.828   9.808 -0.2780 -0.0376  0.2512
12342TIP3    H158441   2.547   6.912   9.763  2.6515  0.7724  1.8161
12342TIP3    H258442   2.484   6.843   9.881  1.1774  1.1147  1.2470
12343TIP3   OH258443   0.580   5.027  13.938  0.1009 -0.1756  0.2629
12343TIP3    H158444   0.555   4.966  13.869 -0.6871 -1.2294  1.4360
12343TIP3    H258445   0.654   5.075  13.901  0.9957 -2.0814 -0.5964
12344TIP3   OH258446   2.738   0.270   0.204  0.0690 -0.4216  0.1225
12344TIP3    H158447   2.724   0.176   0.197  0.5018 -0.5625  1.0225
12344TIP3    H258448   2.655   0.310   0.179  0.3175 -0.9821 -1.7247
12345TIP3   OH258449   2.377   0.611   4.099 -0.2969  0.4427 -0.3524
12345TIP3    H158450   2.379   0.702   4.129  2.1245  0.1133  0.7508
12345TIP3    H258451   2.438   0.566   4.158 -1.6150 -1.9529 -0.7189
12346TIP3   OH258452   3.512   0.324  10.683 -0.0570  0.4702  0.3898
12346TIP3    H158453   3.418   0.319  10.668 -0.5014  2.2202  2.2554
12346TIP3    H258454   3.538   0.410  10.651  0.5015  0.8375  1.7553
12347TIP3   OH258455   6.613   6.217   4.090  0.6284  0.1287 -0.3112
12347TIP3    H158456   6.676   6.271   4.138  0.6048  0.4474 -0.6373
12347TIP3    H258457   6.529   6.235   4.131  0.6013  0.4323 -0.5008
12348TIP3   OH258458   6.227   5.843   5.936 -0.1080  0.1442  0.8030
12348TIP3    H158459   6.134   5.822   5.925  0.2907 -1.7921  0.6521
12348TIP3    H258460   6.230   5.938   5.940 -1.7960  0.4515 -2.1289
12349TIP3   OH258461   0.984   4.587   1.280 -0.6265 -0.4547  0.7020
12349TIP3    H158462   0.981   4.666   1.334  1.9102 -1.0513  1.9043
12349TIP3    H258463   0.972   4.516   1.342 -0.4798 -1.0808  0.0238
12350TIP3   OH258464   6.990   4.278  14.047  0.3432 -0.2958 -0.0753
12350TIP3    H158465   7.062   4.323  14.092  0.1320  1.3326 -1.2447
12350TIP3    H258466   6.911   4.308  14.092  0.0983  1.6493 -1.6136
12351TIP3   OH258467   1.236   0.608  12.279  0.2219  0.2998 -0.2283
12351TIP3    H158468   1.151   0.608  12.235  0.1439  2.3746 -0.1698
12351TIP3    H258469   1.300   0.611  12.207  0.1196  2.2726 -0.3097
12352TIP3   OH258470   4.670   0.134   0.062  0.0251  0.2657 -0.4494
12352TIP3    H158471   4.719   0.181  -0.006  2.3730 -0.1749  0.8175
12352TIP3    H258472   4.655   0.200   0.130  1.3271 -0.2035  0.3378
12353TIP3   OH258473   2.063   5.773   3.635 -0.2113 -0.3258 -0.2994
12353TIP3    H158474   2.108   5.821   3.565  0.9424  0.4582  0.9345
12353TIP3    H258475   2.133   5.744   3.693 -1.1928 -0.2302  0.9803
12354TIP3   OH258476   3.833   5.197  13.718 -0.5103  0.2680  0.8661
12354TIP3    H158477   3.738   5.200  13.726 -1.0549 -0.5153 -3.2107
12354TIP3    H258478   3.855   5.267  13.657  1.4304 -0.0397  1.1257
12355TIP3   OH258479   5.556   2.692  15.024  0.0288  0.1247  0.2468
12355TIP3    H158480   5.572   2.652  14.938 -1.7054  0.5850 -0.3245
12355TIP3    H258481   5.563   2.786  15.007 -0.3163  0.2160  0.6192
12356TIP3   OH258482   0.075   4.475  10.453  0.3838 -0.1765  0.0956
12356TIP3    H158483  -0.014   4.492  10.484 -0.0706 -1.6707 -0.3170
12356TIP3    H258484   0.073   4.499  10.361  0.7521  0.9070  0.3584
12357TIP3   OH258485   1.069   3.084   3.403  0.0154  1.0726  0.2569
12357TIP3    H158486   1.103   2.995   3.411 -0.3513  0.7931 -1.0292
12357TIP3    H258487   1.106   3.131   3.478  0.6162 -0.0291  0.6713
12358TIP3   OH258488   3.334   3.188  12.672  0.1693  0.5657  0.3096
12358TIP3    H158489   3.288   3.142  12.742 -0.1181  0.7495  0.2445
12358TIP3    H258490   3.272   3.187  12.598  0.7267 -0.2114 -0.1569
12359TIP3   OH258491   5.110   1.066   0.723  0.0794  0.3003  0.1311
12359TIP3    H158492   5.028   1.035   0.761 -0.5348 -0.9971 -2.0853
12359TIP3    H258493   5.115   1.159   0.748 -2.1599  0.4512  0.1698
12360TIP3   OH258494   5.687   1.645   4.937 -0.0885  0.5015  0.4955
12360TIP3    H158495   5.724   1.558   4.925  0.8086  0.9863 -0.3964
12360TIP3    H258496   5.667   1.676   4.849  3.6181  2.8620  0.2541
12361TIP3   OH258497   4.196   4.654   5.848  1.1095 -0.0532  0.1110
12361TIP3    H158498   4.185   4.699   5.764  1.4208 -1.3293 -0.6336
12361TIP3    H258499   4.256   4.582   5.829  0.1470 -1.1645  1.1414
12362TIP3   OH258500   3.215   3.122   4.032 -0.1470  0.6686  0.1644
12362TIP3    H158501   3.150   3.163   3.975  2.1131  1.5403 -1.9831
12362TIP3    H258502   3.238   3.041   3.986  0.7087  0.6718  0.5812
12363TIP3   OH258503   3.093   5.340   5.323  0.4614  0.5644 -0.3718
12363TIP3    H158504   3.125   5.321   5.235  0.2547  1.0102 -0.5446
12363TIP3    H258505   3.046   5.260   5.349 -0.5056  0.8741 -1.1400
12364TIP3   OH258506   6.870   3.388  14.931  0.1583 -0.5986  0.1422
12364TIP3    H158507   6.920   3.458  14.888 -2.9192  3.4661  2.4685
12364TIP3    H258508   6.923   3.363  15.007  0.4759  0.6708  0.3563
12365TIP3   OH258509   6.372   1.671  11.891 -0.3967 -0.2159  0.2398
12365TIP3    H158510   6.376   1.577  11.908  0.1598 -0.0161  1.2745
12365TIP3    H258511   6.446   1.688  11.833 -1.1978 -0.5870 -0.9476
12366TIP3   OH258512   0.716   4.559  15.424  0.0183 -0.3436 -0.3852
12366TIP3    H158513   0.677   4.477  15.453  0.4994 -2.1179 -4.1092
12366TIP3    H258514   0.810   4.542  15.426  0.1023 -0.1665 -1.6774
12367TIP3   OH258515   3.247   0.950  13.272  0.7078  0.4310 -0.4877
12367TIP3    H158516   3.292   0.912  13.195 -2.9635 -3.4335 -1.1146
12367TIP3    H258517   3.311   0.943  13.342  1.8825 -3.0278 -1.6886
12368TIP3   OH258518   4.139   1.894  15.250 -0.1721  0.0707 -0.0834
12368TIP3    H158519   4.193   1.906  15.171 -0.5480  1.2990 -0.1878
12368TIP3    H258520   4.087   1.974  15.254 -0.9739 -0.4846  0.7984
12369TIP3   OH258521   0.520   6.864  10.616 -0.2285 -0.1370 -0.0295
12369TIP3    H158522   0.567   6.780  10.608  0.9932  0.4294  0.7869
12369TIP3    H258523   0.580   6.919  10.667 -1.9602  0.5256  1.3756
12370TIP3   OH258524   0.957   5.297  12.896  0.2400  0.2090 -0.1056
12370TIP3    H158525   1.010   5.218  12.908 -1.3671 -1.0881 -1.0749
12370TIP3    H258526   0.892   5.292  12.967 -0.4694  0.1300 -0.7559
12371TIP3   OH258527   1.296   6.708  15.500  0.5471 -0.0856  0.3335
12371TIP3    H158528   1.217   6.703  15.446  0.5222  0.1056  0.3504
12371TIP3    H258529   1.365   6.736  15.438  0.5455  0.0061  0.3727
12372TIP3   OH258530   4.627   6.659   5.194 -0.3276 -0.7795  0.1907
12372TIP3    H158531   4.556   6.638   5.135  0.8332  0.9801 -1.9802
12372TIP3    H258532   4.584   6.693   5.273 -1.8887 -1.6584 -0.2495
12373TIP3   OH258533   4.852   3.020  12.774  0.1613 -0.1264 -0.2287
12373TIP3    H158534   4.824   3.064  12.854 -0.9295 -0.7334 -0.2522
12373TIP3    H258535   4.947   3.015  12.781  0.0892 -0.1060  0.9923
12374TIP3   OH258536   2.674   4.832   1.944 -0.4504 -0.1018 -0.4759
12374TIP3    H158537   2.698   4.880   2.023 -0.3535 -0.9577  0.0214
12374TIP3    H258538   2.615   4.891   1.897 -0.9051  0.2156  0.4751
12375TIP3   OH258539   5.091   2.337  10.728  0.4054 -0.3769 -0.4536
12375TIP3    H158540   5.089   2.244  10.749 -1.5371 -0.1941  0.3950
12375TIP3    H258541   5.173   2.350  10.681  1.0029 -2.3860 -0.0274
12376TIP3   OH258542   5.882   3.526  13.052  0.0782 -0.0343 -0.2410
12376TIP3    H158543   5.864   3.538  13.145 -0.2094  0.7319 -0.3864
12376TIP3    H258544   5.824   3.589  13.008  0.7073  0.0956 -0.9004
12377TIP3   OH258545   3.328   3.231   3.121  0.6245 -0.4069 -0.0847
12377TIP3    H158546   3.235   3.239   3.098  0.9997 -2.1414 -2.7530
12377TIP3    H258547   3.328   3.177   3.200 -0.6425 -1.0861 -0.5123
12378TIP3   OH258548   5.606   3.341   3.064 -0.3213  0.2024 -0.0800
12378TIP3    H158549   5.673   3.406   3.084  0.9830 -0.9280 -0.5841
12378TIP3    H258550   5.539   3.353   3.132  0.6308  1.0296  0.7414
12379TIP3   OH258551   3.277   1.137   1.780 -0.2417  0.4513 -0.6264
12379TIP3    H158552   3.276   1.100   1.692 -1.1717  1.1872 -0.9415
12379TIP3    H258553   3.221   1.214   1.774  2.0930  2.2862 -0.1285
12380TIP3   OH258554   1.825   3.564  13.977 -0.7121  0.1926  0.3410
12380TIP3    H158555   1.794   3.623  14.046 -0.5720 -1.0660  1.5078
12380TIP3    H258556   1.758   3.570  13.909 -2.1318 -0.3838  1.6295
12381TIP3   OH258557   4.402   3.351   2.622  0.2155 -0.1292  0.0575
12381TIP3    H158558   4.333   3.414   2.642  0.6038  0.0238  0.9585
12381TIP3    H258559   4.480   3.404   2.609  0.5466 -0.4108  0.8292
12382TIP3   OH258560   5.381   0.069   0.718 -0.2468 -0.5137 -0.3007
12382TIP3    H158561   5.333   0.070   0.635 -1.4024 -0.7971  0.3430
12382TIP3    H258562   5.423   0.155   0.722  0.4683 -0.7717 -1.5244
12383TIP3   OH258563   3.589   3.025   2.568  0.1597  0.9002  0.0960
12383TIP3    H158564   3.643   3.100   2.545  1.5658  1.1037  3.4296
12383TIP3    H258565   3.504   3.063   2.591 -0.1745  1.0386 -1.2779
12384TIP3   OH258566   6.672   3.451   3.395 -0.4518 -0.9564  0.1677
12384TIP3    H158567   6.616   3.424   3.322 -1.5923 -1.3892  1.1857
12384TIP3    H258568   6.668   3.547   3.394 -1.1816 -0.9867  0.2207
12385TIP3   OH258569   4.122   2.306  11.427  0.1098 -0.0423  0.1662
12385TIP3    H158570   4.129   2.287  11.334 -0.4316  0.0293  0.1042
12385TIP3    H258571   4.125   2.402  11.431 -1.5958  0.0582  0.0361
12386TIP3   OH258572   4.028   5.815   4.936  0.0438 -0.0030  0.2735
12386TIP3    H158573   3.980   5.796   4.855 -1.3190  0.2408  0.9879
12386TIP3    H258574   4.051   5.729   4.971  0.0595 -0.1257 -0.0353
12387TIP3   OH258575   7.088   1.899   1.362  0.6709 -0.7788  0.3211
12387TIP3    H158576   7.011   1.849   1.335  0.0924 -0.5836  1.5683
12387TIP3    H258577   7.068   1.929   1.450  1.6525  0.3615  0.1795
12388TIP3   OH258578   6.485   1.703  14.926  0.4093 -0.6517  0.0564
12388TIP3    H158579   6.414   1.640  14.926  0.5606 -0.8469 -1.0696
12388TIP3    H258580   6.563   1.652  14.951 -0.0407 -0.1212  2.9332
12389TIP3   OH258581   0.834   2.230   2.861 -0.1831 -0.2783  0.3375
12389TIP3    H158582   0.839   2.144   2.903 -1.7398  0.3145  1.8008
12389TIP3    H258583   0.828   2.292   2.933  2.2890  1.2489 -0.6327
12390TIP3   OH258584   0.913   5.544   2.401 -0.0079  0.3921  0.0269
12390TIP3    H158585   0.845   5.490   2.361 -0.4695  0.1949  1.0422
12390TIP3    H258586   0.980   5.552   2.334 -0.6265 -0.1649 -0.6748
12391TIP3   OH258587   2.316   6.872   9.971 -0.1490 -0.0546  0.5704
12391TIP3    H158588   2.230   6.908   9.949 -0.8814 -1.2385  1.4116
12391TIP3    H258589   2.301   6.778   9.980  1.0750 -0.1810  1.4815
12392TIP3   OH258590   6.846   5.033  15.502  0.3452 -0.5563  0.0640
12392TIP3    H158591   6.799   5.015  15.583  0.1522  2.3596  0.7197
12392TIP3    H258592   6.939   5.024  15.526  0.3087  0.6779  0.7824
12393TIP3   OH258593   6.557   3.183   3.532  0.1882 -0.3764  0.5224
12393TIP3    H158594   6.534   3.090   3.532  0.8986 -0.5872  1.8083
12393TIP3    H258595   6.486   3.224   3.581  0.4899 -0.4480  1.0386
12394TIP3   OH258596   1.868   5.039   1.615  0.0299  0.5839  0.4461
12394TIP3    H158597   1.940   5.021   1.554 -0.9293  1.6699 -1.0789
12394TIP3    H258598   1.903   5.104   1.676  0.1350  1.7178 -0.7795
12395TIP3   OH258599   5.511   3.054  11.584  0.1931  0.0214  0.5515
12395TIP3    H158600   5.504   2.974  11.532 -0.6834  1.4373 -1.6284
12395TIP3    H258601   5.603   3.080  11.578  0.3954 -0.5867  0.9432
12396TIP3   OH258602   0.947   0.673   1.625 -0.0223 -0.3927  0.2819
12396TIP3    H158603   0.852   0.680   1.620 -0.0043 -0.3781 -0.0702
12396TIP3    H258604   0.964   0.624   1.705 -0.4269 -2.4359 -0.8103
12397TIP3   OH258605   6.409   1.237   2.063 -0.4510  0.6657 -0.6212
12397TIP3    H158606   6.369   1.176   2.001  0.3260  0.0002 -0.4844
12397TIP3    H258607   6.340   1.255   2.127 -0.0073 -2.0543  0.7851
12398TIP3   OH258608   2.375   2.595   3.599  0.2122 -0.0020 -0.2007
12398TIP3    H158609   2.371   2.509   3.641 -0.4026 -0.2389 -0.7260
12398TIP3    H258610   2.404   2.654   3.669 -1.4825 -0.2632  0.7924
12399TIP3   OH258611   2.844   4.067  14.683  0.3024 -0.1102 -1.0364
12399TIP3    H158612   2.882   4.150  14.711 -0.4851  0.5567 -1.8560
12399TIP3    H258613   2.918   4.006  14.681  1.1120  0.8546 -1.5033
12400TIP3   OH258614   4.208   0.394  12.442  0.4259 -0.3197 -0.5775
12400TIP3    H158615   4.280   0.439  12.396  1.2154 -0.5903  0.3566
12400TIP3    H258616   4.157   0.353  12.372  0.5546  0.7736 -1.3397
12401TIP3   OH258617   4.030   2.231   1.724  0.0451  0.3408 -0.3907
12401TIP3    H158618   4.121   2.248   1.699 -0.6054  2.7779 -1.3259
12401TIP3    H258619   4.016   2.285   1.802 -1.4067  2.5051 -2.0298
12402TIP3   OH258620   0.874   1.185  13.813 -0.0572 -0.4935 -0.1925
12402TIP3    H158621   0.841   1.112  13.760 -2.5222 -0.4652  1.1527
12402TIP3    H258622   0.880   1.258  13.752 -1.0563 -0.9286 -0.8455
12403TIP3   OH258623   0.174   5.516   2.947 -0.5813 -0.3754  0.7610
12403TIP3    H158624   0.133   5.602   2.956 -0.2547 -0.1277 -0.0477
12403TIP3    H258625   0.257   5.534   2.905 -1.6223 -1.3393 -1.8709
12404TIP3   OH258626   4.654   0.332  11.797 -0.0591 -0.1655 -0.1872
12404TIP3    H158627   4.583   0.359  11.740  0.2551  0.6194 -0.2271
12404TIP3    H258628   4.626   0.359  11.885 -1.0563 -2.4002  0.2355
12405TIP3   OH258629   1.760   2.184   5.472 -0.4177  0.4038  0.2826
12405TIP3    H158630   1.766   2.104   5.525 -2.7732  1.4035  2.2405
12405TIP3    H258631   1.843   2.230   5.489  0.6293 -1.1833 -0.2500
12406TIP3   OH258632   5.030   2.902   4.310  0.0494  0.2159  0.1752
12406TIP3    H158633   4.949   2.862   4.279  1.4084 -0.8798 -2.2537
12406TIP3    H258634   5.024   2.993   4.282  0.7186 -0.4714 -2.5108
12407TIP3   OH258635   3.058   4.151   3.289 -0.0424 -0.4555 -0.5287
12407TIP3    H158636   3.042   4.244   3.271 -0.1083  0.0431  1.8105
12407TIP3    H258637   2.972   4.110   3.281 -0.2034 -0.1145 -0.5654
12408TIP3   OH258638   5.625   4.570   5.402  0.1462 -0.0963 -0.8729
12408TIP3    H158639   5.604   4.550   5.493 -0.8779 -1.1426 -1.3045
12408TIP3    H258640   5.685   4.501   5.375  1.2354  0.7646 -0.7367
12409TIP3   OH258641   5.753   5.964  14.417 -0.3768  0.0941 -0.5683
12409TIP3    H158642   5.661   5.940  14.409 -0.2902  0.1174 -1.8412
12409TIP3    H258643   5.757   6.020  14.495 -1.6237  1.0371 -1.1607
12410TIP3   OH258644   5.269   2.651  14.090  0.2197  0.2458  0.5874
12410TIP3    H158645   5.310   2.708  14.025  0.8367  0.7945  1.4292
12410TIP3    H258646   5.246   2.572  14.042  1.4212  0.3046 -0.1242
12411TIP3   OH258647   5.773   5.266  11.869  0.7033  0.0500  0.1094
12411TIP3    H158648   5.694   5.307  11.904  0.5750  1.4715 -1.6950
12411TIP3    H258649   5.834   5.339  11.857  1.6899 -0.7931 -0.0856
12412TIP3   OH258650   0.671   6.397  15.563 -0.6121 -0.5585 -0.2836
12412TIP3    H158651   0.693   6.308  15.535 -2.1040 -0.8863 -0.4788
12412TIP3    H258652   0.648   6.443  15.482 -0.0009 -0.0191 -0.1661
12413TIP3   OH258653   2.661   6.151  14.180  0.0705  0.0826  0.2909
12413TIP3    H158654   2.697   6.183  14.262  1.0544 -1.2120  0.3983
12413TIP3    H258655   2.733   6.102  14.139 -0.2727  1.0130 -1.5278
12414TIP3   OH258656   3.737   2.454   3.325  0.0140  0.3973  0.0488
12414TIP3    H158657   3.794   2.388   3.286 -2.5683 -1.2350 -1.2082
12414TIP3    H258658   3.698   2.499   3.250 -0.0219  1.8342  0.8871
12415TIP3   OH258659   1.115   0.216  11.717  0.1790 -0.7178 -0.0028
12415TIP3    H158660   1.093   0.136  11.764 -0.6490  0.4901  1.8090
12415TIP3    H258661   1.052   0.219  11.644 -0.8654 -0.9348  0.8632
12416TIP3   OH258662   4.853   5.219  14.694  0.3294 -0.1121  0.2206
12416TIP3    H158663   4.943   5.216  14.662  0.4259 -0.9538  0.5616
12416TIP3    H258664   4.855   5.170  14.776 -0.4591 -0.2221  0.1776
12417TIP3   OH258665   3.206   5.445   1.983 -0.1921  0.1384 -0.8017
12417TIP3    H158666   3.149   5.515   1.951  0.3988  0.7708 -0.4956
12417TIP3    H258667   3.146   5.379   2.018 -0.7792  0.2028 -1.6595
12418TIP3   OH258668   3.934   4.943  14.867  0.2857 -0.2539  0.4902
12418TIP3    H158669   3.946   5.033  14.896  0.2340  0.9927 -2.9089
12418TIP3    H258670   3.842   4.923  14.885 -0.7782  1.8293 -1.9357
12419TIP3   OH258671   6.419   0.041  15.587 -0.1106  0.3996 -0.3834
12419TIP3    H158672   6.408  -0.046  15.550 -1.2193 -0.0292  0.8622
12419TIP3    H258673   6.467   0.090  15.521 -3.0424  0.0606 -3.0140
12420TIP3   OH258674   2.857   4.868   4.689  0.3949 -0.0789 -0.2761
12420TIP3    H158675   2.932   4.917   4.653  0.3872  0.4094  0.3499
12420TIP3    H258676   2.839   4.801   4.623  1.9912 -0.8314 -0.0097
12421TIP3   OH258677   0.253   1.512   0.933  0.4207  0.1969  0.4987
12421TIP3    H158678   0.317   1.582   0.920 -0.4667  0.8794 -0.4012
12421TIP3    H258679   0.168   1.555   0.921 -0.1279 -1.3831 -2.2198
12422TIP3   OH258680   0.748   4.295   2.974  0.3713  0.0551  0.2382
12422TIP3    H158681   0.692   4.368   2.999 -0.1240 -0.1773 -0.1790
12422TIP3    H258682   0.782   4.319   2.888  0.4850 -0.0434  0.2561
12423TIP3   OH258683   4.708   2.745   5.710  0.3516 -0.4928 -0.1446
12423TIP3    H158684   4.770   2.708   5.773  0.6096  1.4070  0.8056
12423TIP3    H258685   4.763   2.787   5.644  0.0822 -0.5031 -0.3779
12424TIP3   OH258686   2.222   5.831   0.226  0.4727  0.1604 -0.1734
12424TIP3    H158687   2.283   5.863   0.293 -0.8388 -0.5127  1.4070
12424TIP3    H258688   2.268   5.757   0.186  0.2498 -1.1970  1.9038
12425TIP3   OH258689   0.517   4.577  12.642  0.1682  0.4136 -0.6845
12425TIP3    H158690   0.464   4.651  12.672  0.3101  0.1443  0.2439
12425TIP3    H258691   0.453   4.511  12.616  0.0458  0.4479 -0.4706
12426TIP3   OH258692   2.019   4.631   0.567 -0.2814 -0.1383  0.2087
12426TIP3    H158693   2.061   4.584   0.495  1.0637  0.7616  0.3710
12426TIP3    H258694   1.932   4.653   0.534  1.1332  2.4649 -2.2154
12427TIP3   OH258695   6.360   1.930   3.832  0.0929  0.2336 -0.0989
12427TIP3    H158696   6.396   1.955   3.747  1.9235 -0.3882  0.4446
12427TIP3    H258697   6.406   1.986   3.894 -2.4808  1.9675  0.4329
12428TIP3   OH258698   1.165   3.960  15.131 -0.0563 -0.0607  0.2212
12428TIP3    H158699   1.143   3.874  15.094 -0.6168  0.6798 -1.2466
12428TIP3    H258700   1.098   4.019  15.096  0.5231  1.0468  0.9257
12429TIP3   OH258701   1.379   6.346   1.066  0.0225 -0.0342  0.2034
12429TIP3    H158702   1.442   6.367   0.998 -0.4143 -1.1135 -0.5614
12429TIP3    H258703   1.404   6.258   1.096 -1.4371 -0.7332 -0.5251
12430TIP3   OH258704   1.421   3.270  14.745  0.0036 -0.1536  0.2086
12430TIP3    H158705   1.338   3.274  14.698 -1.1701  1.4818  2.2099
12430TIP3    H258706   1.413   3.192  14.800 -0.5675  0.3769  0.9118
12431TIP3   OH258707   1.417   0.216  12.192 -0.4765 -0.1659 -0.4156
12431TIP3    H158708   1.456   0.132  12.168  0.5700 -0.5645  2.3005
12431TIP3    H258709   1.431   0.223  12.287  0.3844  3.4974 -0.6423
12432TIP3   OH258710   1.754   4.988  12.823  0.2999 -0.6272 -0.4034
12432TIP3    H158711   1.750   4.896  12.799 -2.3827 -0.4459 -0.9691
12432TIP3    H258712   1.759   4.989  12.919 -3.3264 -1.4804 -0.0692
12433TIP3   OH258713   5.262   2.297   0.867  0.3735  0.3942  0.2059
12433TIP3    H158714   5.207   2.237   0.917  0.5884  0.5474  0.6407
12433TIP3    H258715   5.232   2.384   0.894 -0.9548  0.5214 -1.5380
12434TIP3   OH258716   2.405   1.727   5.564  0.2237  0.0854 -0.1135
12434TIP3    H158717   2.470   1.790   5.594  1.2012 -1.2584  0.7371
12434TIP3    H258718   2.326   1.748   5.614  0.3444  0.9850 -0.2844
12435TIP3   OH258719   7.110   4.268   2.857  0.0063 -0.9082 -0.7665
12435TIP3    H158720   7.135   4.289   2.947  0.0859  0.3687 -1.0690
12435TIP3    H258721   7.017   4.291   2.853 -0.1894 -1.6980 -0.7997
12436TIP3   OH258722   5.424   6.541  11.260  0.0038  0.0588  0.6429
12436TIP3    H158723   5.373   6.539  11.179 -0.4864  1.3060  0.8992
12436TIP3    H258724   5.451   6.450  11.274 -1.1523 -0.4199 -0.1306
12437TIP3   OH258725   5.400   4.620  13.696  0.8539 -0.1228 -0.6299
12437TIP3    H158726   5.366   4.703  13.730  1.8988 -0.3780  1.1940
12437TIP3    H258727   5.429   4.573  13.774  0.4086 -2.1682 -1.6448
12438TIP3   OH258728   4.421   3.449  10.821 -0.0674 -0.2722 -0.1915
12438TIP3    H158729   4.472   3.368  10.813 -0.6463 -0.6407 -0.2319
12438TIP3    H258730   4.457   3.491  10.899  0.6874 -0.2334 -0.5446
12439TIP3   OH258731   3.322   4.857  13.853 -0.2856 -0.0181 -0.3027
12439TIP3    H158732   3.291   4.912  13.925  1.2087  0.3115  0.1254
12439TIP3    H258733   3.415   4.878  13.845 -0.0016 -1.4415 -1.0795
12440TIP3   OH258734   5.819   2.458   5.224 -0.1705  0.5290  0.6146
12440TIP3    H158735   5.911   2.482   5.229 -0.3880  2.2856 -1.8056
12440TIP3    H258736   5.820   2.367   5.194  0.7919  0.6253  0.3168
12441TIP3   OH258737   5.286   4.894  11.318 -0.1332 -0.3867  0.0519
12441TIP3    H158738   5.332   4.970  11.352 -1.1245 -0.5872  1.9508
12441TIP3    H258739   5.349   4.852  11.260  1.1794  0.7031  0.6386
12442TIP3   OH258740   2.102   4.438   3.502 -0.8534  0.1491  0.1262
12442TIP3    H158741   2.061   4.399   3.579  0.8942 -0.8879  0.5825
12442TIP3    H258742   2.195   4.441   3.523 -0.4651  0.8314 -1.5355
12443TIP3   OH258743   1.758   5.295   2.297  0.0878 -0.4638 -0.4602
12443TIP3    H158744   1.782   5.204   2.315  1.1610 -0.1745 -0.3604
12443TIP3    H258745   1.788   5.343   2.374  1.6347  0.2969 -1.4861
12444TIP3   OH258746   2.363   4.217   1.053  0.5051 -0.0191  0.1528
12444TIP3    H158747   2.297   4.232   1.121  0.8718 -0.8638  0.7148
12444TIP3    H258748   2.400   4.303   1.035  0.3566  0.2251  0.9808
12445TIP3   OH258749   1.787   7.044   3.130 -0.0342  0.9085  0.2273
12445TIP3    H158750   1.855   7.104   3.162 -1.5915  2.6780  0.4027
12445TIP3    H258751   1.820   7.013   3.046  1.1030  1.5197  0.4224
12446TIP3   OH258752   0.908   5.229   4.418 -0.2255  0.4550 -0.0224
12446TIP3    H158753   0.814   5.223   4.436 -0.4302 -0.1854 -1.2263
12446TIP3    H258754   0.930   5.145   4.379  0.2043  1.6987 -2.6348
12447TIP3   OH258755   1.681   6.223   0.291 -0.1882 -0.0738 -0.2981
12447TIP3    H158756   1.682   6.147   0.350  0.1936  1.2111  1.4518
12447TIP3    H258757   1.593   6.260   0.302 -0.4690 -0.4063 -1.3610
12448TIP3   OH258758   7.132   5.689  11.021  0.4382  0.5626 -0.5209
12448TIP3    H158759   7.142   5.594  11.026  0.1147  0.5745  0.8507
12448TIP3    H258760   7.221   5.723  11.008  0.5160  0.0772 -1.3511
12449TIP3   OH258761   6.768   5.999   5.313 -0.2590  0.3010 -0.3036
12449TIP3    H158762   6.723   6.077   5.344  0.7883  1.0861 -0.7010
12449TIP3    H258763   6.725   5.979   5.230  0.2899  1.2185 -0.8280
12450TIP3   OH258764   6.966   6.068   1.550  0.6334  0.5694  0.3337
12450TIP3    H158765   6.871   6.068   1.548  0.5877  1.5484  1.4709
12450TIP3    H258766   6.989   6.118   1.628  2.0894  0.7822 -0.1880
12451TIP3   OH258767   5.889   4.565   3.863  0.3520 -0.1139  0.1699
12451TIP3    H158768   5.831   4.531   3.795 -0.2414  0.3523  0.4347
12451TIP3    H258769   5.942   4.632   3.819  0.9451 -0.7834 -0.1550
12452TIP3   OH258770   2.499   5.070   3.282  0.3938 -0.8072  0.2378
12452TIP3    H158771   2.442   4.997   3.305 -2.6211  1.2040 -0.3852
12452TIP3    H258772   2.570   5.065   3.346 -1.2781 -2.5219  2.1056
12453TIP3   OH258773   5.371   2.502  12.895 -0.2056 -0.0656  0.5306
12453TIP3    H158774   5.299   2.563  12.882 -0.9459 -0.8124  1.0646
12453TIP3    H258775   5.343   2.421  12.853 -0.2297 -0.7501  1.8133
12454TIP3   OH258776   2.857   2.567  13.722  0.5411 -0.2199  0.1705
12454TIP3    H158777   2.840   2.474  13.734  2.1423 -0.5322  0.2300
12454TIP3    H258778   2.797   2.611  13.782  0.4833 -1.2675  0.8957
12455TIP3   OH258779   0.601   1.900   1.943 -0.6538 -0.3898 -0.3199
12455TIP3    H158780   0.613   1.976   1.885 -1.5730  0.2798  0.3319
12455TIP3    H258781   0.571   1.938   2.026  1.6875 -1.2086  1.0075
12456TIP3   OH258782   6.143   1.410   3.725  0.3105  0.4277  0.0762
12456TIP3    H158783   6.128   1.456   3.643  1.4124 -0.8094 -0.8597
12456TIP3    H258784   6.056   1.403   3.765 -0.3676  0.3379 -1.3615
12457TIP3   OH258785   6.681   2.896  13.648 -0.2554 -0.0426 -0.0885
12457TIP3    H158786   6.599   2.923  13.688  0.1370 -0.6876  1.2032
12457TIP3    H258787   6.674   2.925  13.557 -1.7134  0.3095  0.1120
12458TIP3   OH258788   3.293   2.114   2.153 -0.5130  0.2042 -0.0084
12458TIP3    H158789   3.278   2.028   2.192  0.4475 -0.1072 -0.3092
12458TIP3    H258790   3.221   2.125   2.090 -0.5849 -0.4198 -0.0418
12459TIP3   OH258791   4.209   3.557  14.048 -0.2404  0.1749 -0.2348
12459TIP3    H158792   4.177   3.477  14.089  0.3474 -0.4673 -1.0168
12459TIP3    H258793   4.303   3.543  14.036 -0.1109  1.0140 -0.3164
12460TIP3   OH258794   6.913   0.919  13.906  0.5098  0.0961  0.5612
12460TIP3    H158795   6.849   0.936  13.975 -0.0804 -1.8812  0.5774
12460TIP3    H258796   6.872   0.852  13.852  2.1435 -0.4707 -0.0439
12461TIP3   OH258797   1.685   4.570   3.969 -0.0115  0.2547  0.1689
12461TIP3    H158798   1.612   4.623   3.937 -0.5312 -0.0264  0.8574
12461TIP3    H258799   1.754   4.582   3.904  0.0388  2.1088  0.5068
12462TIP3   OH258800   6.761   1.820   1.737 -0.2482 -0.0676  0.3414
12462TIP3    H158801   6.839   1.765   1.738  0.2315  0.6058  1.7273
12462TIP3    H258802   6.691   1.762   1.708  0.1830 -1.5162  2.0561
12463TIP3   OH258803   3.890   6.102  12.410  0.1016 -0.1814 -0.5496
12463TIP3    H158804   3.884   6.131  12.319 -0.8670 -0.5447 -0.6123
12463TIP3    H258805   3.968   6.046  12.412  0.1577 -0.1339 -1.1424
12464TIP3   OH258806   6.283   1.161  11.860 -0.9626  0.2259  0.4425
12464TIP3    H158807   6.226   1.086  11.843  0.3620 -0.7384  0.0556
12464TIP3    H258808   6.348   1.157  11.790  0.9342 -0.0948  2.1201
12465TIP3   OH258809   5.758   3.810   2.870  0.3376  0.5037  0.1678
12465TIP3    H158810   5.810   3.750   2.924  0.1479  0.9013  0.8033
12465TIP3    H258811   5.758   3.892   2.918 -1.2217  0.3918  0.4132
12466TIP3   OH258812   0.510   2.231   1.660 -0.3889 -0.2466  0.2685
12466TIP3    H158813   0.434   2.174   1.650 -1.1930  0.7871  0.2757
12466TIP3    H258814   0.578   2.175   1.697 -0.8271 -1.4380 -0.6591
12467TIP3   OH258815   1.508   6.049  12.034  0.1276  0.0675  0.0505
12467TIP3    H158816   1.466   5.971  11.999 -2.3326  1.8376 -1.2494
12467TIP3    H258817   1.461   6.122  11.993  2.4198  2.2468  1.0616
12468TIP3   OH258818   0.440   6.851  15.508  0.0697 -0.1292  0.9160
12468TIP3    H158819   0.392   6.876  15.587 -0.5385 -2.6558  1.4587
12468TIP3    H258820   0.448   6.756  15.515  0.8903 -0.3125 -1.5958
12469TIP3   OH258821   7.041   6.641   5.435  0.0912 -0.4190 -0.1638
12469TIP3    H158822   7.092   6.639   5.354 -0.6346 -0.0762 -0.6451
12469TIP3    H258823   7.104   6.664   5.503  0.4194  0.8377 -0.8694
12470TIP3   OH258824   6.103   5.310   4.501 -0.5350  0.9989  0.1077
12470TIP3    H158825   6.071   5.388   4.545  1.8963  1.7082  0.7244
12470TIP3    H258826   6.192   5.332   4.473  0.0229 -1.3550 -0.1906
12471TIP3   OH258827   0.476   0.641   3.550  0.1063  0.3075  0.0864
12471TIP3    H158828   0.532   0.665   3.624  0.9872  2.3721 -1.1824
12471TIP3    H258829   0.455   0.724   3.508 -3.0162 -0.4987 -0.1837
12472TIP3   OH258830   6.051   3.256   0.139 -0.0439 -0.0464 -0.0453
12472TIP3    H158831   6.024   3.341   0.173  1.1096 -0.3058  1.6245
12472TIP3    H258832   6.133   3.274   0.092 -1.5655  0.2928 -2.7829
12473TIP3   OH258833   2.292   3.323   3.399 -0.9182 -0.1743 -0.0098
12473TIP3    H158834   2.364   3.346   3.340 -0.7584 -0.6576 -0.0054
12473TIP3    H258835   2.332   3.321   3.486 -0.5091 -2.2147 -0.1988
12474TIP3   OH258836   5.168   6.912   9.952 -0.1490  0.4043 -0.2373
12474TIP3    H158837   5.239   6.878  10.006 -0.0926 -0.4348 -0.8240
12474TIP3    H258838   5.212   6.965   9.885 -0.0339 -0.4750 -0.8657
12475TIP3   OH258839   5.667   6.507  13.562  0.1797  0.0085 -0.0070
12475TIP3    H158840   5.745   6.530  13.612 -0.8116  2.8510  0.3852
12475TIP3    H258841   5.597   6.500  13.627 -0.5250  0.7752 -0.6551
12476TIP3   OH258842   1.475   7.116  12.907 -0.1374  0.0934 -0.3059
12476TIP3    H158843   1.391   7.128  12.953 -1.3389 -0.0344 -2.3621
12476TIP3    H258844   1.515   7.041  12.950 -0.1446  1.3017  1.9665
12477TIP3   OH258845   7.023   3.916  11.527 -0.1848  0.4659 -0.1780
12477TIP3    H158846   6.959   3.987  11.519 -1.3437 -0.4766  0.3362
12477TIP3    H258847   7.017   3.869  11.444  0.6226  0.9674 -0.5397
12478TIP3   OH258848   4.663   5.776  11.496  0.0828 -0.6113 -0.1712
12478TIP3    H158849   4.686   5.792  11.405 -1.5836  0.0427 -0.5149
12478TIP3    H258850   4.681   5.859  11.541 -0.1795 -0.5739 -0.1350
12479TIP3   OH258851   2.325   5.307   4.864 -0.4515  0.1278  0.7781
12479TIP3    H158852   2.239   5.279   4.892 -0.2562  1.1438  2.5201
12479TIP3    H258853   2.386   5.255   4.916 -0.0852  1.9422  2.2972
12480TIP3   OH258854   3.823   1.158  10.443  0.4925  0.1436 -0.0270
12480TIP3    H158855   3.793   1.139  10.354 -1.1087 -0.4921  0.6025
12480TIP3    H258856   3.917   1.140  10.441 -0.0403 -3.3938 -0.7564
12481TIP3   OH258857   6.760   5.233   5.373  0.4494  0.0266 -0.1774
12481TIP3    H158858   6.829   5.285   5.413 -1.3391  2.9795 -0.6120
12481TIP3    H258859   6.790   5.216   5.284  1.4964 -0.6585  0.2812
12482TIP3   OH258860   1.890   1.478   0.596 -0.0066 -0.0855  0.8367
12482TIP3    H158861   1.947   1.452   0.524 -0.2395 -0.0939  0.6527
12482TIP3    H258862   1.876   1.398   0.646  2.4881  0.4494  2.5779
12483TIP3   OH258863   2.458   6.309  12.600  0.0750 -0.3491 -0.0473
12483TIP3    H158864   2.416   6.228  12.572 -1.0170 -0.7848  2.5439
12483TIP3    H258865   2.386   6.372  12.605 -0.0839 -0.6316  2.7572
12484TIP3   OH258866   0.557   3.762  14.706  0.0389 -0.2599 -0.7186
12484TIP3    H158867   0.496   3.814  14.653  0.6702 -1.0638 -2.3207
12484TIP3    H258868   0.526   3.672  14.697 -0.2088 -0.3458  0.8388
12485TIP3   OH258869   3.186   6.694   2.559  0.4505  0.1443 -0.2637
12485TIP3    H158870   3.152   6.664   2.644 -0.1327  2.2946  0.3170
12485TIP3    H258871   3.108   6.706   2.505  0.6662  0.6219 -0.4682
12486TIP3   OH258872   6.747   2.798   5.152 -0.1208 -0.0363  0.1631
12486TIP3    H158873   6.769   2.782   5.244 -1.3776 -0.5044  0.4064
12486TIP3    H258874   6.746   2.710   5.113  2.2988  0.2688 -0.8071
12487TIP3   OH258875   6.059   5.997   0.692 -0.1255  0.0917  0.1982
12487TIP3    H158876   6.090   6.067   0.750  0.1060  0.3580 -0.2442
12487TIP3    H258877   6.137   5.944   0.675 -0.2946 -0.2553  0.5069
12488TIP3   OH258878   6.906   2.062   0.395 -0.4203  0.3021  0.0946
12488TIP3    H158879   6.874   1.979   0.429 -0.2700  0.0397 -0.3960
12488TIP3    H258880   6.999   2.046   0.377 -0.8067 -0.0209 -1.8035
12489TIP3   OH258881   4.487   2.047  12.711 -0.1787 -0.0023  0.3447
12489TIP3    H158882   4.574   2.064  12.746  0.3178 -1.5380 -0.0567
12489TIP3    H258883   4.433   2.032  12.789 -0.1313  1.0565  0.5978
12490TIP3   OH258884   2.950   6.933   3.010 -0.2714  0.2040  0.1431
12490TIP3    H158885   3.003   6.870   2.962  0.5923  0.9335  0.1329
12490TIP3    H258886   2.860   6.911   2.986  0.0303 -0.8580 -0.0577
12491TIP3   OH258887   6.817   6.578  11.380  0.2714  0.5301 -0.2630
12491TIP3    H158888   6.893   6.629  11.408  0.1013  1.0672 -0.7439
12491TIP3    H258889   6.767   6.639  11.326  0.1548 -0.2025 -1.0017
12492TIP3   OH258890   6.721   0.483  12.871  0.1139  0.0589 -0.0224
12492TIP3    H158891   6.802   0.534  12.879  1.6316 -2.3071  0.5899
12492TIP3    H258892   6.682   0.514  12.789  2.5092  0.1625 -1.2182
12493TIP3   OH258893   6.980   3.356  10.079  0.1990 -0.3960 -0.4569
12493TIP3    H158894   6.982   3.261  10.072  1.2338 -0.3246 -1.5441
12493TIP3    H258895   7.008   3.375  10.168 -0.5671 -1.1120 -0.0521
12494TIP3   OH258896   4.188   4.667  15.341 -0.4864  0.7289  0.6205
12494TIP3    H158897   4.279   4.693  15.329 -0.1314 -0.1397  1.3342
12494TIP3    H258898   4.164   4.624  15.258  0.1802 -0.2231  0.9030
12495TIP3   OH258899   3.579   2.849   4.771 -0.4487 -0.0445  0.2251
12495TIP3    H158900   3.632   2.776   4.802 -0.0042  0.6335  1.1121
12495TIP3    H258901   3.510   2.859   4.837 -1.0709 -0.2412 -0.3747
12496TIP3   OH258902   0.719   2.402   0.089 -0.1629  0.0376  0.2651
12496TIP3    H158903   0.809   2.370   0.098 -1.0376 -2.7451  0.1988
12496TIP3    H258904   0.709   2.417  -0.005  0.3429  0.7853  0.3225
12497TIP3   OH258905   4.333   3.729  13.684 -0.0230  0.0035  0.0129
12497TIP3    H158906   4.341   3.644  13.728 -0.8303 -0.0993 -0.0210
12497TIP3    H258907   4.290   3.708  13.600 -1.5054  0.6029  0.5891
12498TIP3   OH258908   0.864   5.806   3.774 -0.4783 -0.4570 -0.1571
12498TIP3    H158909   0.859   5.713   3.754 -1.3645 -0.6445  0.8717
12498TIP3    H258910   0.774   5.838   3.767 -0.6515 -0.2914  2.2226
12499TIP3   OH258911   5.971   2.506   3.719  0.2713 -0.2262  0.6140
12499TIP3    H158912   6.009   2.587   3.753 -0.9198  0.4203  0.4454
12499TIP3    H258913   5.934   2.531   3.634  0.7241 -1.1746  0.1217
12500TIP3   OH258914   5.216   4.415   2.967  0.0413  0.9017  0.7452
12500TIP3    H158915   5.311   4.418   2.981 -0.0489  2.2830  1.1862
12500TIP3    H258916   5.206   4.370   2.883  1.1500  1.5473  0.2398
12501TIP3   OH258917   1.478   3.639  15.054 -0.2631 -0.3901  0.2720
12501TIP3    H158918   1.384   3.626  15.063 -0.6422 -0.0031 -2.3058
12501TIP3    H258919   1.505   3.574  14.989  1.0048  0.3227  0.0498
12502TIP3   OH258920   6.059   0.685  11.210  0.3691 -0.0493 -0.0980
12502TIP3    H158921   6.092   0.754  11.154 -0.7632 -0.6473 -1.5718
12502TIP3    H258922   6.013   0.730  11.280 -0.2304  0.7053 -0.9617
12503TIP3   OH258923   6.823   1.334   5.527 -0.3225  0.1653 -0.1885
12503TIP3    H158924   6.881   1.406   5.501 -0.2417 -0.2352 -1.1400
12503TIP3    H258925   6.847   1.262   5.469 -1.6731 -0.0528 -0.5065
12504TIP3   OH258926   2.709   2.065   1.982  0.8298 -0.0932 -0.0096
12504TIP3    H158927   2.800   2.045   2.006  1.1135 -0.7225 -1.5157
12504TIP3    H258928   2.666   1.980   1.976  0.0933  0.2102  0.8146
12505TIP3   OH258929   6.319   1.430   5.583  0.4324 -0.5260  0.7858
12505TIP3    H158930   6.403   1.419   5.629  1.1364 -0.0863 -0.3380
12505TIP3    H258931   6.340   1.486   5.509 -0.6630 -1.1982 -0.0700
12506TIP3   OH258932   3.357   7.061   9.930 -0.0020 -0.5237  0.5152
12506TIP3    H158933   3.297   7.117   9.980  0.6246  0.2308  0.4503
12506TIP3    H258934   3.302   7.020   9.863 -0.5908 -0.4673  0.9599
12507TIP3   OH258935   1.496   3.925  14.913 -0.1750 -0.0140  0.6003
12507TIP3    H158936   1.556   3.852  14.927 -1.2272 -0.8743  0.7224
12507TIP3    H258937   1.419   3.886  14.871 -0.3108  1.2038 -0.3733
12508TIP3   OH258938   3.967   4.074  11.840 -0.2035 -0.3526  0.2787
12508TIP3    H158939   3.963   4.014  11.914  0.7781 -1.5983 -0.6104
12508TIP3    H258940   4.060   4.080  11.819 -0.1577  2.1944  0.8324
12509TIP3   OH258941   6.449   0.692   3.962 -0.3619  0.4415 -0.9064
12509TIP3    H158942   6.515   0.623   3.951 -0.5115  0.2925 -0.8860
12509TIP3    H258943   6.500   0.773   3.972 -0.1965  0.3962 -1.3660
12510TIP3   OH258944   1.037   6.713   4.683 -0.2976  0.4661 -0.4151
12510TIP3    H158945   0.999   6.784   4.735  2.3497  2.5684 -1.1219
12510TIP3    H258946   1.122   6.746   4.656  0.4494 -2.4559 -2.0721
12511TIP3   OH258947   4.992   0.604   1.043 -0.4746 -0.5024 -0.0573
12511TIP3    H158948   4.935   0.536   1.007 -0.0879 -1.9976  1.9831
12511TIP3    H258949   4.935   0.655   1.101 -0.4905  0.1947 -0.6707
12512TIP3   OH258950   5.033   5.074  13.925  0.0726  0.3898  0.2863
12512TIP3    H158951   5.048   5.005  13.990  0.7291  0.5659  0.3378
12512TIP3    H258952   5.116   5.080  13.877  0.1559  1.3763  0.5154
12513TIP3   OH258953   5.461   5.295  15.574 -0.0498 -0.0259  0.1860
12513TIP3    H158954   5.519   5.371  15.582 -0.3863  0.1230  1.5213
12513TIP3    H258955   5.423   5.303  15.487  1.9878 -0.1927 -0.7826
12514TIP3   OH258956   4.618   6.557   3.808  0.0651  0.6269 -0.1607
12514TIP3    H158957   4.545   6.617   3.826  0.5771  1.3921 -0.5564
12514TIP3    H258958   4.627   6.505   3.887 -0.9007  0.5374 -0.1021
12515TIP3   OH258959   4.996   2.648   2.301 -0.4794  0.2381 -0.4264
12515TIP3    H158960   5.079   2.690   2.281 -1.1976  1.8803 -0.1312
12515TIP3    H258961   4.939   2.669   2.227 -0.7770 -0.4677 -0.4077
12516TIP3   OH258962   2.708   0.334   1.427  0.5599  0.5891  0.2584
12516TIP3    H158963   2.774   0.402   1.410  2.0380  0.1574  3.4908
12516TIP3    H258964   2.650   0.373   1.493 -0.2046 -0.3375  0.1577
12517TIP3   OH258965   3.160   1.451   4.638 -0.7448  0.4690 -0.2549
12517TIP3    H158966   3.066   1.444   4.626 -0.8486  0.4209  0.5326
12517TIP3    H258967   3.187   1.364   4.667 -0.1038 -0.1817 -2.6087
12518TIP3   OH258968   2.168   2.749  15.340 -0.2888 -0.1476  0.0844
12518TIP3    H158969   2.246   2.804  15.349  0.8539 -2.0320  3.7441
12518TIP3    H258970   2.095   2.810  15.354  0.4461  1.4408 -2.2936
12519TIP3   OH258971   1.016   6.561  11.901  0.1778 -0.0667 -0.2543
12519TIP3    H158972   0.985   6.550  11.811  1.5450 -0.8236 -0.6658
12519TIP3    H258973   0.940   6.594  11.949 -1.3359 -2.1010 -1.1148
12520TIP3   OH258974   2.272   3.359  14.061 -0.0752 -0.2094 -0.8540
12520TIP3    H158975   2.312   3.407  13.989 -0.9764  0.9548 -0.5974
12520TIP3    H258976   2.193   3.408  14.082  0.3824 -0.2741  1.2029
12521TIP3   OH258977   0.571   1.870  14.086  0.6446  0.1355 -0.1759
12521TIP3    H158978   0.519   1.801  14.128  1.8294 -1.4716 -1.1908
12521TIP3    H258979   0.550   1.949  14.134 -2.8566 -0.3676 -0.6080
12522TIP3   OH258980   5.311   4.485  12.840  0.1797 -0.0391 -0.1408
12522TIP3    H158981   5.250   4.475  12.912 -1.8308  0.9208 -1.6268
12522TIP3    H258982   5.339   4.395  12.820  0.7492 -0.3273  1.7198
12523TIP3   OH258983   6.985   3.101   0.966  0.3153 -0.6931 -0.3640
12523TIP3    H158984   6.967   3.116   1.058 -1.1692  0.5097 -0.8076
12523TIP3    H258985   6.976   3.006   0.954  1.2140 -0.9454  0.8316
12524TIP3   OH258986   0.802   6.128   2.761  0.5389  0.2736 -0.1801
12524TIP3    H158987   0.809   6.222   2.778  0.9318  0.1975  0.0835
12524TIP3    H258988   0.883   6.091   2.796  0.8598 -0.0271 -1.2158
12525TIP3   OH258989   0.284   1.959  13.589  0.4393 -0.3967 -0.6664
12525TIP3    H158990   0.335   1.902  13.646 -0.6333 -0.4884  0.2397
12525TIP3    H258991   0.268   2.037  13.642 -0.8239 -0.6085 -0.7084
12526TIP3   OH258992   2.998   4.620   3.990  0.5134  0.0855 -0.0117
12526TIP3    H158993   2.998   4.714   4.007  0.1016 -0.0693  0.9283
12526TIP3    H258994   3.008   4.580   4.077 -0.4207 -0.7492 -0.2637
12527TIP3   OH258995   0.302   2.111   3.758 -0.1606 -0.1248  0.0404
12527TIP3    H158996   0.357   2.119   3.679  0.3596  2.1033  0.5550
12527TIP3    H258997   0.288   2.017   3.768  2.2174 -0.6775 -1.0574
12528TIP3   OH258998   6.390   4.842   0.596 -0.6811 -0.2796 -0.0661
12528TIP3    H158999   6.452   4.875   0.661 -1.3892 -0.0891  0.5226
12528TIP3    H259000   6.366   4.755   0.627 -0.5416 -0.4463 -0.4146
12529TIP3   OH259001   6.108   5.153   2.994  0.0474 -0.1510  0.6298
12529TIP3    H159002   6.176   5.086   2.996 -0.0601 -0.4415 -1.9735
12529TIP3    H259003   6.148   5.230   3.034  1.7246 -0.4728 -0.3434
12530TIP3   OH259004   3.214   4.836  12.914 -0.5183 -0.2895 -0.1986
12530TIP3    H159005   3.212   4.860  12.822 -0.1781 -0.3001 -0.2084
12530TIP3    H259006   3.122   4.837  12.941 -0.5536  0.4805 -0.3359
12531TIP3   OH259007   5.032   2.217  15.261 -0.3283  1.0577 -0.2772
12531TIP3    H159008   5.118   2.257  15.251 -0.2261  0.9725  0.2557
12531TIP3    H259009   5.008   2.233  15.352 -0.0886 -0.4532  0.0943
12532TIP3   OH259010   1.664   6.503  12.084 -0.0785  0.4290 -0.3013
12532TIP3    H159011   1.755   6.502  12.113  0.1487  0.4657 -0.9849
12532TIP3    H259012   1.665   6.557  12.005 -0.6820  0.3555 -0.3673
12533TIP3   OH259013   3.688   2.378   4.463  0.1046 -0.5315  0.0809
12533TIP3    H159014   3.627   2.305   4.450  1.3539 -1.7144  0.5268
12533TIP3    H259015   3.764   2.337   4.504  0.9883  0.9882  0.0058
12534TIP3   OH259016   6.960   4.391   3.383  0.8000  0.0344 -0.8474
12534TIP3    H159017   6.922   4.391   3.471 -1.2017  1.5564 -1.6246
12534TIP3    H259018   7.052   4.369   3.397  0.7327  0.9920  1.7299
12535TIP3   OH259019   3.671   3.693   3.158 -0.4984  0.2882  0.2840
12535TIP3    H159020   3.707   3.625   3.215  0.0892 -0.7241 -1.2317
12535TIP3    H259021   3.692   3.775   3.204  0.0050 -0.4708  1.4831
12536TIP3   OH259022   6.452   1.400   1.075  0.1478  0.7359  0.5801
12536TIP3    H159023   6.478   1.355   0.995 -0.8919  1.5775 -0.2602
12536TIP3    H259024   6.502   1.356   1.144  1.7376  0.5714 -0.6157
12537TIP3   OH259025   4.202   1.342  15.143 -0.3999 -0.1074 -0.5786
12537TIP3    H159026   4.228   1.387  15.224  0.7012 -0.9903 -0.4056
12537TIP3    H259027   4.115   1.307  15.161 -0.0479 -0.5474  0.3540
12538TIP3   OH259028   1.883   6.656  12.773 -0.3247 -0.0141  0.7252
12538TIP3    H159029   1.871   6.561  12.776 -0.0876 -0.0359  1.1934
12538TIP3    H259030   1.810   6.691  12.825 -2.3745  0.2827 -2.1301
12539TIP3   OH259031   4.289   5.773  13.440 -0.0052  0.4794  0.2611
12539TIP3    H159032   4.248   5.751  13.523 -1.0248  0.2625 -0.2879
12539TIP3    H259033   4.325   5.860  13.453  0.9138 -0.0309  1.3113
12540TIP3   OH259034   1.613   2.534  13.957  0.4695 -0.3368  0.1435
12540TIP3    H159035   1.560   2.454  13.962 -0.6991  0.2765 -1.4556
12540TIP3    H259036   1.662   2.525  13.876  2.1350 -0.4415  1.1215
12541TIP3   OH259037   4.064   6.326   2.669  0.1649 -0.5319  0.2846
12541TIP3    H159038   4.056   6.403   2.613  0.9161  0.4312  1.4353
12541TIP3    H259039   4.155   6.299   2.660  0.8765  0.8342  2.4330
12542TIP3   OH259040   5.296   4.638  15.027 -0.0144 -0.1234  0.0960
12542TIP3    H159041   5.308   4.554  14.982 -0.5134 -0.5220  0.6955
12542TIP3    H259042   5.222   4.678  14.981  1.1695  0.6878 -1.1860
12543TIP3   OH259043   5.541   2.614  13.645  0.4935 -0.1867 -0.3153
12543TIP3    H159044   5.535   2.678  13.573 -0.4502 -0.5058 -0.5320
12543TIP3    H259045   5.602   2.654  13.707  1.2412  0.1463 -1.2366
12544TIP3   OH259046   3.082   6.026  10.874  0.6950 -0.4512  0.1864
12544TIP3    H159047   3.093   6.120  10.857 -1.0164 -0.3335 -0.4770
12544TIP3    H259048   3.081   6.020  10.970  0.2137  0.2953  0.2390
12545TIP3   OH259049   6.688   2.673   4.329 -0.5087  0.1786  0.0788
12545TIP3    H159050   6.657   2.751   4.373 -1.0980  0.6407 -1.1191
12545TIP3    H259051   6.744   2.629   4.394  0.8802  2.2326  0.3599
12546TIP3   OH259052   6.880   4.610   4.318  0.0981  0.1226  0.4976
12546TIP3    H159053   6.827   4.575   4.389 -1.5213 -0.8848 -1.1018
12546TIP3    H259054   6.887   4.703   4.336 -0.7500 -0.0245  1.6867
12547TIP3   OH259055   1.868   2.708   2.381  0.4470  0.2625  0.0350
12547TIP3    H159056   1.817   2.719   2.301 -0.0060  0.3919  0.3387
12547TIP3    H259057   1.868   2.795   2.421  0.3898  0.1222  0.3436
12548TIP3   OH259058   3.763   2.505  12.291  0.1717 -0.6605 -0.0070
12548TIP3    H159059   3.724   2.575  12.344  0.9073 -0.1334 -0.1546
12548TIP3    H259060   3.750   2.534  12.200  1.7863  0.0307 -0.0507
12549TIP3   OH259061   1.260   2.768   2.133 -0.0616  0.1082 -0.2840
12549TIP3    H159062   1.182   2.823   2.127 -0.2756  0.3134  3.0010
12549TIP3    H259063   1.228   2.679   2.121 -0.4842  0.3232 -0.7669
12550TIP3   OH259064   2.932   1.680  15.522  0.2932  0.3283  0.1910
12550TIP3    H159065   2.862   1.691  15.457 -0.8748  0.5301  1.4569
12550TIP3    H259066   2.913   1.744  15.590  2.0043  0.7227  0.3441
12551TIP3   OH259067   2.730   6.071  10.064 -0.6143 -0.3775  0.3308
12551TIP3    H159068   2.798   6.127  10.027 -0.3668 -0.5409  0.5399
12551TIP3    H259069   2.651   6.125  10.061 -0.3512  0.0269  0.6415
12552TIP3   OH259070   3.650   5.989  13.894  0.3126 -0.5934  0.1440
12552TIP3    H159071   3.598   5.994  13.814 -0.3851 -1.2599  0.5356
12552TIP3    H259072   3.740   6.007  13.866 -0.1881  1.1551 -0.4559
12553TIP3   OH259073   0.672   4.721   5.308  0.5679  0.0622  0.5813
12553TIP3    H159074   0.753   4.753   5.268 -0.4389  0.2763 -1.3821
12553TIP3    H259075   0.636   4.797   5.353  0.9818  0.2098  0.6687
12554TIP3   OH259076   5.172   6.553   3.816 -0.2138  0.5006 -0.1044
12554TIP3    H159077   5.080   6.577   3.801 -0.2946  1.2677  1.4013
12554TIP3    H259078   5.175   6.459   3.800 -1.1916  0.5203 -0.5019
12555TIP3   OH259079   5.999   2.692  10.524 -0.6774 -0.1421 -0.4941
12555TIP3    H159080   5.981   2.749  10.599  1.9243  0.0054  0.0799
12555TIP3    H259081   6.032   2.611  10.562 -0.7464 -0.6414 -1.4609
12556TIP3   OH259082   3.613   4.988  13.952 -0.4213  0.1687 -0.1878
12556TIP3    H159083   3.603   5.002  14.046  1.3087 -1.0508  0.2218
12556TIP3    H259084   3.682   4.922  13.944 -1.4935 -0.8153 -2.2676
12557TIP3   OH259085   5.140   1.715  15.310 -0.5633  0.0902 -0.1500
12557TIP3    H159086   5.061   1.661  15.320  0.5969 -1.4694  1.2534
12557TIP3    H259087   5.188   1.673  15.239 -0.4649  0.3370 -0.2281
12558TIP3   OH259088   0.058   5.473   5.095  0.0654  0.3508  0.5582
12558TIP3    H159089   0.085   5.385   5.122 -1.2449 -0.5514 -0.8778
12558TIP3    H259090   0.119   5.495   5.024 -0.9663 -0.4036 -0.6165
12559TIP3   OH259091   6.465   6.890  13.754  0.0712  0.6215 -0.8515
12559TIP3    H159092   6.383   6.937  13.773 -0.6437 -0.0662 -2.1035
12559TIP3    H259093   6.524   6.958  13.720  0.4285  1.3294  1.0920
12560TIP3   OH259094   5.980   1.356  10.836 -0.5709  0.4657 -0.0073
12560TIP3    H159095   6.044   1.334  10.903 -1.5538 -1.4922  0.3735
12560TIP3    H259096   5.907   1.296  10.852 -1.2045  0.5326 -2.2926
12561TIP3   OH259097   6.021   3.225  13.017 -0.1449  0.2827  0.1570
12561TIP3    H159098   6.078   3.207  12.943  0.3164  2.6837 -0.1408
12561TIP3    H259099   5.983   3.311  12.999 -0.7644  0.5103  2.2374
12562TIP3   OH259100   1.070   0.399   0.858 -0.0125  0.4727  0.2841
12562TIP3    H159101   1.119   0.400   0.776 -1.1739 -1.4717 -0.5265
12562TIP3    H259102   0.986   0.439   0.836 -0.3613 -0.1325  0.4861
12563TIP3   OH259103   0.061   1.250  10.033  0.1614 -0.2472 -0.5214
12563TIP3    H159104   0.093   1.201   9.957  1.0414 -0.2702 -0.1486
12563TIP3    H259105   0.076   1.191  10.107 -0.7910 -0.2662 -0.3319
12564TIP3   OH259106   1.695   5.522  15.099 -0.4512  0.1693  0.5918
12564TIP3    H159107   1.638   5.446  15.092  0.0063 -0.1655  0.4751
12564TIP3    H259108   1.760   5.498  15.165 -0.0064  0.2549  0.1945
12565TIP3   OH259109   2.040   4.441   5.654  0.2375  0.0081 -0.1469
12565TIP3    H159110   2.024   4.530   5.686  0.0473 -0.0785 -0.0000
12565TIP3    H259111   2.122   4.415   5.695  0.2896  0.1161 -0.1854
12566TIP3   OH259112   5.556   2.922   0.250  0.6960 -0.4666  0.1179
12566TIP3    H159113   5.588   2.892   0.335 -0.3483 -1.0890  0.3077
12566TIP3    H259114   5.475   2.872   0.236  0.0752  0.6865 -0.5666
12567TIP3   OH259115   4.756   4.437  14.450 -0.4162 -0.3362  0.1960
12567TIP3    H159116   4.664   4.458  14.432 -0.3999 -0.8888 -0.6021
12567TIP3    H259117   4.758   4.413  14.542 -0.9495  0.3100  0.3875
12568TIP3   OH259118   0.394   2.753   3.097  0.0553  0.3360 -0.1824
12568TIP3    H159119   0.474   2.742   3.046 -0.6621 -1.7729 -0.9250
12568TIP3    H259120   0.323   2.744   3.033 -0.8151  0.1848  0.7744
12569TIP3   OH259121   2.979   2.763   4.972  0.1516 -0.1181  0.8047
12569TIP3    H159122   2.921   2.835   4.945  1.8925  1.5653  1.3371
12569TIP3    H259123   2.929   2.715   5.037 -1.1908  0.3897  0.1849
12570TIP3   OH259124   4.847   5.820  12.581  0.0783 -0.6624 -0.7450
12570TIP3    H159125   4.922   5.879  12.576 -0.4227  0.0173 -0.4204
12570TIP3    H259126   4.848   5.789  12.672 -0.5530  0.0617 -0.4785
12571TIP3   OH259127   3.757   3.805  11.055 -0.4126  0.7445 -0.1649
12571TIP3    H159128   3.744   3.751  10.977  1.6173 -0.0499 -0.0220
12571TIP3    H259129   3.841   3.776  11.090 -0.5155  2.2076  1.4213
12572TIP3   OH259130   2.036   0.303  10.243 -0.2441  0.5347 -0.0686
12572TIP3    H159131   1.950   0.269  10.216  0.0603 -1.5603  1.3227
12572TIP3    H259132   2.099   0.254  10.190  0.1331  1.3417 -0.3731
12573TIP3   OH259133   5.931   3.228  12.330  0.5201 -0.4054 -0.4091
12573TIP3    H159134   5.959   3.266  12.247  0.6754  1.3962  0.4265
12573TIP3    H259135   5.864   3.164  12.305 -1.6585  2.1772 -1.7821
12574TIP3   OH259136   6.763   6.140   3.495 -0.5575 -0.1132  0.0394
12574TIP3    H159137   6.703   6.214   3.501  1.4048  1.4565  2.2155
12574TIP3    H259138   6.710   6.065   3.525 -2.7747  0.1262 -2.8420
12575TIP3   OH259139   1.667   6.486   5.462 -0.5925 -0.1015  0.3679
12575TIP3    H159140   1.644   6.508   5.372  1.3553 -1.5114 -0.5389
12575TIP3    H259141   1.587   6.448   5.498 -1.2550 -0.0079 -0.9320
12576TIP3   OH259142   0.085   6.512   0.895  0.1218 -0.2351  0.3599
12576TIP3    H159143   0.137   6.517   0.815 -0.7282  2.8758 -0.1464
12576TIP3    H259144   0.016   6.578   0.883 -0.7701 -0.5247  3.1528
12577TIP3   OH259145   4.323   6.755  15.095 -0.1635 -0.1288  0.8642
12577TIP3    H159146   4.289   6.844  15.088  0.6216  0.1130 -0.1613
12577TIP3    H259147   4.271   6.705  15.032  0.9377  0.1201 -0.2815
12578TIP3   OH259148   0.776   0.187   0.620 -0.6944  0.4058 -0.2262
12578TIP3    H159149   0.833   0.192   0.543 -1.2342 -1.2778 -0.7616
12578TIP3    H259150   0.832   0.215   0.693  0.2852  0.4957 -0.9932
12579TIP3   OH259151   3.440   0.829   0.391  0.3746 -0.1416 -0.1671
12579TIP3    H159152   3.492   0.847   0.469  0.3525  1.8395 -0.5480
12579TIP3    H259153   3.503   0.833   0.319  0.0792  0.0036 -0.4216
12580TIP3   OH259154   4.884   6.666  11.906 -0.2659  0.8757 -0.6525
12580TIP3    H159155   4.888   6.734  11.839  0.9560  0.8239 -0.6532
12580TIP3    H259156   4.966   6.675  11.955 -0.2820 -0.3038 -0.3732
12581TIP3   OH259157   5.723   4.627  10.492 -0.5611 -0.0969  0.4878
12581TIP3    H159158   5.767   4.703  10.453 -0.5974  0.1163  0.8559
12581TIP3    H259159   5.668   4.593  10.421 -1.1659  0.7072  0.5429
12582TIP3   OH259160   1.144   2.195   2.776  0.1765  0.0647  0.2441
12582TIP3    H159161   1.050   2.206   2.790 -0.0844  0.2929 -1.4509
12582TIP3    H259162   1.178   2.168   2.861 -1.4615 -0.2831  0.8233
12583TIP3   OH259163   4.735   3.562   1.689 -0.0029 -0.7068  0.0357
12583TIP3    H159164   4.689   3.639   1.723 -0.4387 -1.0847  0.3025
12583TIP3    H259165   4.696   3.488   1.735  0.0298 -1.1422 -0.6182
12584TIP3   OH259166   4.105   1.558  12.040  0.3554 -0.0434 -0.2682
12584TIP3    H159167   4.140   1.477  12.077 -0.6134 -0.3391  0.0131
12584TIP3    H259168   4.019   1.535  12.008  0.3861  0.6964 -0.9104
12585TIP3   OH259169   5.262   3.300   1.561 -0.5860  0.4156 -0.1310
12585TIP3    H159170   5.327   3.251   1.510  0.9568  3.9627 -1.8894
12585TIP3    H259171   5.194   3.322   1.498 -1.1369  0.7490  0.5676
12586TIP3   OH259172   4.380   1.453  12.639 -0.0517  0.0603 -0.6822
12586TIP3    H159173   4.441   1.491  12.703 -1.7795  2.1587 -0.1703
12586TIP3    H259174   4.409   1.362  12.630  1.2617  0.1234  1.8726
12587TIP3   OH259175   2.385   4.510   0.032 -0.2055 -0.2900  0.4923
12587TIP3    H159176   2.459   4.449   0.032 -0.7564 -0.9899  1.4255
12587TIP3    H259177   2.425   4.597   0.038  0.7544 -0.2412 -3.6894
12588TIP3   OH259178   1.997   2.633  12.777 -0.0034  0.3441  0.0342
12588TIP3    H159179   2.010   2.727  12.777  0.4509  0.3110 -1.6744
12588TIP3    H259180   1.968   2.612  12.688  2.4442 -1.4258 -0.4487
12589TIP3   OH259181   2.665   4.198   1.198 -0.4667  0.6797 -0.3085
12589TIP3    H159182   2.740   4.142   1.219  0.6290  0.9779 -3.0479
12589TIP3    H259183   2.700   4.265   1.140 -2.4966  2.0410 -0.0773
12590TIP3   OH259184   0.604   4.213   1.158  0.5054  0.3279 -0.3963
12590TIP3    H159185   0.634   4.286   1.213 -0.6796  0.9872 -0.6076
12590TIP3    H259186   0.509   4.214   1.166  0.4782 -1.4994 -0.0318
12591TIP3   OH259187   4.814   4.109  13.652  0.5269 -0.0610  0.5149
12591TIP3    H159188   4.855   4.031  13.616  1.2525  0.8812 -0.7524
12591TIP3    H259189   4.721   4.088  13.655  0.7544 -1.1041  0.5418
12592TIP3   OH259190   3.660   5.884   0.467  0.4542  0.0186 -0.1655
12592TIP3    H159191   3.588   5.941   0.493 -0.4903 -0.5653 -1.4008
12592TIP3    H259192   3.625   5.795   0.475  1.2649 -0.3045 -0.1107
12593TIP3   OH259193   4.677   3.853   4.739 -0.6755 -0.2000 -0.7538
12593TIP3    H159194   4.647   3.816   4.822 -1.3586  0.9865 -0.4467
12593TIP3    H259195   4.737   3.923   4.764 -2.2246  1.3586 -1.1412
12594TIP3   OH259196   6.435   1.604   2.583 -1.0760 -0.1929 -0.3455
12594TIP3    H159197   6.397   1.590   2.496 -1.3281  0.8681 -0.4139
12594TIP3    H259198   6.513   1.657   2.568 -0.8400 -0.4192  0.0374
12595TIP3   OH259199   5.226   5.375  10.089  0.3388  0.1492 -0.1811
12595TIP3    H159200   5.213   5.451  10.031  1.0654  0.6418  0.2904
12595TIP3    H259201   5.289   5.405  10.153  0.1308 -0.6559  0.4074
12596TIP3   OH259202   6.311   1.564  15.474  0.1664 -0.0499 -0.4178
12596TIP3    H159203   6.312   1.486  15.420  0.1274 -0.9419  0.8377
12596TIP3    H259204   6.233   1.612  15.447  0.3013 -0.3323 -1.3304
12597TIP3   OH259205   4.405   3.309   1.066 -0.6708 -0.0665 -0.1462
12597TIP3    H159206   4.326   3.256   1.060  0.5112 -2.4327  2.7075
12597TIP3    H259207   4.387   3.370   1.138  0.1150 -0.7726  0.6727
12598TIP3   OH259208   1.322   2.572  13.765 -0.7378 -0.2885  0.4206
12598TIP3    H159209   1.383   2.516  13.813 -0.6210 -1.3452 -0.8914
12598TIP3    H259210   1.373   2.651  13.745  0.1382 -1.0321 -0.4037
12599TIP3   OH259211   6.011   7.088  14.078  0.3662  0.2406  0.2384
12599TIP3    H159212   6.071   7.048  14.015  0.5302 -0.4974  0.8445
12599TIP3    H259213   6.036   7.181  14.080  0.4574  0.2441 -0.6564
12600TIP3   OH259214   2.961   0.261   3.126  0.1180 -0.0842  0.0866
12600TIP3    H159215   2.983   0.350   3.151  1.3646 -0.5341  0.6288
12600TIP3    H259216   2.952   0.265   3.030  4.9990 -0.2700 -0.6075
12601TIP3   OH259217   0.680   6.311  14.733 -0.2480  0.0953 -0.2312
12601TIP3    H159218   0.597   6.268  14.754  0.2183 -0.8678 -0.2730
12601TIP3    H259219   0.720   6.253  14.668  1.6548 -0.9312  1.7384
12602TIP3   OH259220   0.658   2.970   9.481 -0.1688 -0.0778  0.0664
12602TIP3    H159221   0.597   2.948   9.411  0.8768 -0.0835 -0.8696
12602TIP3    H259222   0.697   3.053   9.454  0.3942 -0.1768  0.5397
12603TIP3   OH259223   4.750   1.940   3.505 -0.4230  0.0270 -0.1906
12603TIP3    H159224   4.685   1.870   3.505 -0.3922 -0.0287  1.2990
12603TIP3    H259225   4.834   1.894   3.503 -0.3962 -0.0141  1.1720
12604TIP3   OH259226   4.627   0.169   1.698 -0.3911 -0.2749 -0.1452
12604TIP3    H159227   4.572   0.093   1.716  1.0172 -0.8615  2.0309
12604TIP3    H259228   4.600   0.234   1.763 -0.8330  0.7479 -1.2915
12605TIP3   OH259229   7.015   4.550   5.762 -0.0962  0.2028 -0.4024
12605TIP3    H159230   7.014   4.626   5.820  0.7448 -0.2282  0.1931
12605TIP3    H259231   7.074   4.488   5.804 -0.3830 -0.5897 -1.1343
12606TIP3   OH259232   3.231   4.012   3.482 -0.2348 -0.1787 -0.2917
12606TIP3    H159233   3.251   4.093   3.528  0.7414 -0.5471 -0.0504
12606TIP3    H259234   3.182   4.040   3.404 -2.0829  0.4342  1.0360
12607TIP3   OH259235   6.492   4.076   5.505  0.3640  0.0230  0.8825
12607TIP3    H159236   6.581   4.063   5.471 -0.1944 -0.9412 -0.2583
12607TIP3    H259237   6.489   4.023   5.585 -0.2657 -2.9821 -0.9819
12608TIP3   OH259238   7.131   1.598   1.106 -0.0231  0.7195  0.1366
12608TIP3    H159239   7.138   1.504   1.123 -1.7581  0.7948  1.4287
12608TIP3    H259240   7.177   1.640   1.179  0.4124  0.9120 -0.2358
12609TIP3   OH259241   6.207   4.051  13.936  0.2482 -0.8235  0.1984
12609TIP3    H159242   6.172   4.113  14.000 -1.1029  0.3186 -1.5513
12609TIP3    H259243   6.251   4.105  13.870  0.8185 -1.8839 -0.3330
12610TIP3   OH259244   2.799   2.396  13.309 -0.2429 -0.0054  0.0263
12610TIP3    H159245   2.864   2.446  13.358 -0.8737 -0.7543  1.7083
12610TIP3    H259246   2.773   2.453  13.237  1.9059  0.4900 -0.4074
12611TIP3   OH259247   5.745   5.575  12.862 -0.6522 -0.7938 -0.1926
12611TIP3    H159248   5.783   5.495  12.826 -0.1900 -0.3618 -0.6774
12611TIP3    H259249   5.658   5.581  12.822 -0.5412 -0.8581 -0.4449
12612TIP3   OH259250   3.962   1.809  14.471 -0.4236  0.2775  0.5995
12612TIP3    H159251   3.966   1.868  14.546 -0.1849  1.3506 -0.2396
12612TIP3    H259252   3.904   1.853  14.408  1.2880  0.5878 -0.8415
12613TIP3   OH259253   4.410   2.873  15.059  0.3225  0.1272  0.3794
12613TIP3    H159254   4.320   2.887  15.029  0.8880  1.4677 -0.8064
12613TIP3    H259255   4.439   2.794  15.014  0.9197  1.7202 -2.2496
12614TIP3   OH259256   5.177   4.080   1.189  0.5438  0.2330  0.0629
12614TIP3    H159257   5.141   4.146   1.129 -0.5808  1.4076  1.9523
12614TIP3    H259258   5.137   3.998   1.159 -0.3647  0.8616 -0.5260
12615TIP3   OH259259   1.609   5.544   2.112 -0.3679  0.4090  0.4640
12615TIP3    H159260   1.608   5.450   2.094 -1.1579  0.3643  0.6947
12615TIP3    H259261   1.581   5.552   2.203 -2.6863  0.9813 -0.2396
12616TIP3   OH259262   4.037   1.146   3.685  0.5637 -1.5326  0.6048
12616TIP3    H159263   3.948   1.112   3.696 -0.4423 -0.3629 -2.6031
12616TIP3    H259264   4.031   1.238   3.712  0.3694 -1.0842 -0.8513
12617TIP3   OH259265   5.790   6.271  14.008  0.3503  0.1056 -0.3914
12617TIP3    H159266   5.729   6.197  14.008 -0.3431  0.6575  0.5529
12617TIP3    H259267   5.740   6.344  13.972  0.5648  0.4715  0.0456
12618TIP3   OH259268   3.238   5.089   0.758  0.6332  0.7658 -1.0313
12618TIP3    H159269   3.172   5.059   0.820  1.2410 -1.6617 -1.4691
12618TIP3    H259270   3.199   5.167   0.718 -0.6998  1.0893  0.7586
12619TIP3   OH259271   2.402   1.252   4.554  0.8598  0.1516 -0.2220
12619TIP3    H159272   2.447   1.179   4.595  3.8332  0.8898 -1.8376
12619TIP3    H259273   2.399   1.230   4.461 -1.2112  0.6732 -0.3352
12620TIP3   OH259274   0.926   6.465   0.389  0.2643 -0.0614 -0.2910
12620TIP3    H159275   0.834   6.492   0.385 -0.0223 -0.6323  1.6732
12620TIP3    H259276   0.973   6.538   0.349 -1.0344  0.1419 -1.5589
12621TIP3   OH259277   3.769   1.761  10.135 -0.2783  0.3425  0.2423
12621TIP3    H159278   3.845   1.818  10.123 -0.4114  0.4275 -0.2047
12621TIP3    H259279   3.694   1.817  10.117 -0.4411  0.2052  0.4833
12622TIP3   OH259280   3.358   6.134   5.609  0.1527 -0.2787  0.0542
12622TIP3    H159281   3.437   6.189   5.615  0.5983 -1.0376  2.2111
12622TIP3    H259282   3.393   6.045   5.598 -0.2294 -0.8558  2.7559
12623TIP3   OH259283   0.701   0.433   1.400  0.3308  0.4645 -0.5091
12623TIP3    H159284   0.731   0.466   1.315  1.3708  0.9900  0.0391
12623TIP3    H259285   0.631   0.493   1.425 -0.4796 -0.1216 -1.3108
12624TIP3   OH259286   1.554   2.245   0.879  0.0208  0.6505  0.6459
12624TIP3    H159287   1.549   2.152   0.903 -0.4568  0.3495 -0.5611
12624TIP3    H259288   1.647   2.266   0.887  0.2810 -0.2000 -0.0223
12625TIP3   OH259289   3.813   5.813   6.255 -0.3171 -0.3615 -0.0754
12625TIP3    H159290   3.757   5.753   6.205 -2.4700  0.1078  1.6275
12625TIP3    H259291   3.796   5.899   6.217 -0.7344 -0.2262  0.4040
12626TIP3   OH259292   5.726   3.412  10.653 -0.1236 -0.2228 -0.1578
12626TIP3    H159293   5.817   3.388  10.636 -0.2193 -1.2193  0.6156
12626TIP3    H259294   5.683   3.402  10.568 -0.1231 -2.8384  0.0525
12627TIP3   OH259295   1.539   3.959   5.690 -0.0615 -0.3246  0.3291
12627TIP3    H159296   1.598   3.999   5.627 -0.1623 -1.0367 -0.2295
12627TIP3    H259297   1.595   3.901   5.742 -0.0382  0.0041  0.6746
12628TIP3   OH259298   5.157   6.357  10.529 -0.5216 -0.1077 -0.1448
12628TIP3    H159299   5.196   6.441  10.553 -0.4748 -0.5532  1.4151
12628TIP3    H259300   5.084   6.381  10.471 -0.0460  0.9460 -0.3375
12629TIP3   OH259301   2.498   4.051  12.541  0.0157  0.0564 -0.7456
12629TIP3    H159302   2.570   3.988  12.540 -0.6090 -0.6950 -2.4410
12629TIP3    H259303   2.420   3.998  12.520 -1.2589  0.6436  1.9607
12630TIP3   OH259304   3.049   2.839  12.998  0.8936 -0.2811 -0.8683
12630TIP3    H159305   2.993   2.781  12.946  1.5756 -0.9441 -0.8802
12630TIP3    H259306   3.013   2.835  13.086 -0.0733  0.5951 -1.1885
12631TIP3   OH259307   4.771   0.175   5.245 -0.4630 -0.2004 -0.0605
12631TIP3    H159308   4.787   0.264   5.276  0.6751 -0.0538 -1.0032
12631TIP3    H259309   4.801   0.118   5.316 -2.5935  0.1229  1.2046
12632TIP3   OH259310   4.242   3.010  14.835 -0.0001  0.8241 -0.6931
12632TIP3    H159311   4.336   3.027  14.830 -0.0735  3.7405  3.1562
12632TIP3    H259312   4.201   3.089  14.799 -0.8979  0.7010  0.0178
12633TIP3   OH259313   0.072   4.391   1.722 -0.7912  0.4163 -0.4171
12633TIP3    H159314   0.141   4.441   1.678 -0.7950 -0.0407 -0.9569
12633TIP3    H259315   0.003   4.382   1.656 -0.7201 -0.4442 -0.3880
12634TIP3   OH259316   3.142   2.458   3.892  0.2116 -0.5538 -0.1369
12634TIP3    H159317   3.058   2.496   3.917 -0.0854 -1.4091  0.1985
12634TIP3    H259318   3.176   2.419   3.973  0.7598 -0.5215 -0.3482
12635TIP3   OH259319   6.654   0.377  13.794 -0.2824  0.4813  0.4230
12635TIP3    H159320   6.729   0.397  13.850 -0.4252 -0.7166  1.0845
12635TIP3    H259321   6.691   0.323  13.723 -0.4701  0.0771  0.6288
12636TIP3   OH259322   4.819   2.917   4.871  0.6365  0.0552 -0.0891
12636TIP3    H159323   4.909   2.921   4.904  0.1157  0.8159  1.3605
12636TIP3    H259324   4.776   2.855   4.930 -0.1654  0.9387  0.2816
12637TIP3   OH259325   6.810   1.683   1.277 -0.1898 -0.6191  0.1539
12637TIP3    H159326   6.803   1.658   1.370  1.4651  0.3523  0.5887
12637TIP3    H259327   6.768   1.769   1.273 -0.8078 -0.9286 -0.1456
12638TIP3   OH259328   2.699   2.196  10.760  0.4531 -0.0849  0.0765
12638TIP3    H159329   2.661   2.254  10.826 -0.4775  0.3119 -0.7824
12638TIP3    H259330   2.696   2.247  10.679  0.0793 -1.1470 -0.5978
12639TIP3   OH259331   0.389   5.738  11.807  0.4347  0.3315 -0.6730
12639TIP3    H159332   0.482   5.729  11.784  0.1565 -0.8561 -1.4230
12639TIP3    H259333   0.387   5.726  11.902  0.8326 -2.1237 -0.8915
12640TIP3   OH259334   3.032   0.688   0.596 -0.2563  0.3457 -0.1797
12640TIP3    H159335   2.989   0.669   0.513  1.1007  1.0913 -1.0920
12640TIP3    H259336   3.122   0.711   0.572  0.3390 -0.0439  1.5589
12641TIP3   OH259337   3.549   0.914   4.531  0.0263  0.2928 -0.2011
12641TIP3    H159338   3.520   0.860   4.458  0.6217  0.2131 -0.3889
12641TIP3    H259339   3.634   0.949   4.503  0.6980 -0.4745  0.8134
12642TIP3   OH259340   5.180   1.628   4.072  0.4299  0.1729 -1.2981
12642TIP3    H159341   5.098   1.652   4.115 -0.6937 -0.7407 -2.8332
12642TIP3    H259342   5.248   1.670   4.125 -0.8422 -0.8808  1.3533
12643TIP3   OH259343   3.454   6.453   2.437  0.2611 -0.5587  0.1371
12643TIP3    H159344   3.510   6.453   2.359 -0.7941 -1.8737 -0.6696
12643TIP3    H259345   3.366   6.471   2.404  0.0142  0.3158  1.2321
12644TIP3   OH259346   2.533   6.405   0.336  0.0720  0.1202  0.2560
12644TIP3    H159347   2.533   6.443   0.424 -1.0788 -1.3588  0.9572
12644TIP3    H259348   2.525   6.311   0.351 -1.5064 -0.0854 -1.4405
12645TIP3   OH259349   4.175   5.305  12.725 -0.0491  0.0126  0.2260
12645TIP3    H159350   4.237   5.339  12.662 -0.7246  1.6521  0.3903
12645TIP3    H259351   4.107   5.262  12.672 -0.1339  0.5559 -0.1096
12646TIP3   OH259352   3.266   2.328   4.389 -0.6662 -0.1317  0.0885
12646TIP3    H159353   3.207   2.321   4.314 -1.1050  1.0094  0.3021
12646TIP3    H259354   3.235   2.261   4.450 -1.2019 -0.1220 -0.1642
12647TIP3   OH259355   1.390   5.195   1.059 -0.3938 -0.6097  0.2509
12647TIP3    H159356   1.362   5.154   0.977 -2.1141 -0.6692  0.8073
12647TIP3    H259357   1.374   5.128   1.126 -0.1682 -0.1518  0.7752
12648TIP3   OH259358   1.680   3.493   5.667 -0.7631  0.5287 -0.0688
12648TIP3    H159359   1.614   3.481   5.599 -2.0002 -0.3206  1.2420
12648TIP3    H259360   1.669   3.583   5.697 -3.0188 -0.2696  1.7788
12649TIP3   OH259361   1.375   1.848  13.970 -0.1412 -0.2673 -0.8071
12649TIP3    H159362   1.466   1.846  13.940 -0.3244 -1.5221 -1.3322
12649TIP3    H259363   1.343   1.934  13.942  1.2509  0.7759  0.5823
12650TIP3   OH259364   3.051   5.439   4.377  0.1520 -0.2890 -0.0729
12650TIP3    H159365   3.071   5.349   4.350 -0.7661  0.0335 -1.9951
12650TIP3    H259366   2.976   5.430   4.436 -0.4569 -0.7328 -0.8970
12651TIP3   OH259367   6.905   1.522  11.494  0.0945 -0.6223 -0.4622
12651TIP3    H159368   6.862   1.577  11.429 -0.9324 -1.0229 -0.1424
12651TIP3    H259369   6.888   1.432  11.464 -1.0301 -0.8367  0.7306
12652TIP3   OH259370   4.606   3.223  10.803 -0.0791  0.6346 -0.4839
12652TIP3    H159371   4.560   3.141  10.783  2.1419 -0.5817 -0.9485
12652TIP3    H259372   4.670   3.232  10.732  0.1630  2.4386 -0.0669
12653TIP3   OH259373   2.838   2.439   9.529 -0.0285  0.1085  0.8666
12653TIP3    H159374   2.798   2.525   9.515 -2.1128 -0.7758  1.0285
12653TIP3    H259375   2.906   2.455   9.594  0.3820  1.8091  0.0821
12654TIP3   OH259376   2.316   3.621   1.735 -0.1956  0.1709  0.3974
12654TIP3    H159377   2.340   3.636   1.827  2.1537  1.3319 -0.3197
12654TIP3    H259378   2.234   3.668   1.724 -0.3084  0.3559  1.8226
12655TIP3   OH259379   3.580   0.986  11.877  0.7197  0.6611 -0.0687
12655TIP3    H159380   3.622   0.910  11.836 -0.9351  0.1437 -0.9115
12655TIP3    H259381   3.504   1.004  11.821  0.2414  2.0073  0.9648
12656TIP3   OH259382   4.075   5.189  15.482  0.0458 -0.0688 -0.2263
12656TIP3    H159383   4.163   5.192  15.443 -0.1129 -0.1121 -0.5873
12656TIP3    H259384   4.020   5.237  15.420 -0.2553 -0.3480 -0.1748
12657TIP3   OH259385   4.814   4.639  14.082 -0.8851  0.2880 -0.4128
12657TIP3    H159386   4.761   4.639  14.003 -2.8723  1.9954  0.8200
12657TIP3    H259387   4.755   4.670  14.151  0.2283 -2.6057  2.1329
12658TIP3   OH259388   3.045   3.661   2.918 -0.0993  0.3051  0.2606
12658TIP3    H159389   3.123   3.679   2.865 -0.6049 -0.3859 -0.7502
12658TIP3    H259390   3.079   3.623   2.999  0.6889  1.3815  0.4636
12659TIP3   OH259391   0.967   0.198  12.890  0.0357  0.1499  0.2442
12659TIP3    H159392   0.917   0.265  12.936  0.6273 -0.0724  1.2265
12659TIP3    H259393   1.034   0.247  12.841 -0.8605  0.4175 -0.7644
12660TIP3   OH259394   6.174   4.042  12.404  0.1388  0.0782  0.1398
12660TIP3    H159395   6.214   4.011  12.486 -0.6261  1.0462  0.9045
12660TIP3    H259396   6.247   4.083  12.357  0.3045  0.9019  1.0580
12661TIP3   OH259397   6.533   3.470   4.887 -0.7544 -0.3515 -0.4678
12661TIP3    H159398   6.622   3.487   4.857 -0.3754 -3.4464 -1.3840
12661TIP3    H259399   6.478   3.515   4.823  0.1396 -0.6769 -1.4898
12662TIP3   OH259400   3.792   0.682   0.452 -0.0817 -0.1964 -0.0566
12662TIP3    H159401   3.709   0.662   0.495  0.2177 -1.8177 -0.1693
12662TIP3    H259402   3.856   0.679   0.523  0.4270 -2.9618 -0.5246
12663TIP3   OH259403   1.241   3.596   4.623 -0.9764  0.2536  0.6877
12663TIP3    H159404   1.195   3.578   4.541 -1.8633 -2.6130  1.6839
12663TIP3    H259405   1.186   3.555   4.690  1.1232  0.0616  2.3829
12664TIP3   OH259406   0.687   2.553   2.521 -0.2624 -0.1396  0.5161
12664TIP3    H159407   0.611   2.547   2.579 -0.7534 -0.8117 -0.1829
12664TIP3    H259408   0.693   2.467   2.480  0.3353  0.1894 -0.1105
12665TIP3   OH259409   4.721   5.161  11.564  0.0478 -0.1692  0.4828
12665TIP3    H159410   4.643   5.173  11.620 -0.9384  0.5297 -0.9737
12665TIP3    H259411   4.721   5.238  11.508  2.1880  0.1436  0.8566
12666TIP3   OH259412   4.480   6.302   3.681  0.3801 -0.8493 -0.3085
12666TIP3    H159413   4.542   6.331   3.613  0.5830 -0.9573 -0.1730
12666TIP3    H259414   4.532   6.242   3.735  0.9994  1.2065  1.4867
12667TIP3   OH259415   2.917   5.292   1.176  0.0150  0.1902 -0.3137
12667TIP3    H159416   2.901   5.243   1.257 -0.9561  1.6044  0.3947
12667TIP3    H259417   2.830   5.305   1.139  0.4342 -0.2394 -1.4971
12668TIP3   OH259418   6.874   0.223   2.251  0.1577 -0.1454 -0.1859
12668TIP3    H159419   6.916   0.285   2.310 -2.1604  0.8691  0.5047
12668TIP3    H259420   6.938   0.152   2.243  1.9605  1.2603  0.7871
12669TIP3   OH259421   4.838   6.553  13.794  0.1728  0.4153 -0.3524
12669TIP3    H159422   4.752   6.595  13.795 -0.5879 -1.0103  1.9185
12669TIP3    H259423   4.899   6.624  13.814 -0.6768  1.1227 -0.2021
12670TIP3   OH259424   5.238   6.861  11.408  0.1766 -0.0408 -0.1180
12670TIP3    H159425   5.171   6.794  11.421 -1.0578  1.4267  1.6855
12670TIP3    H259426   5.294   6.826  11.339 -0.7369 -2.6383  0.3390
12671TIP3   OH259427   6.162   4.215  13.556 -0.1423 -0.1483 -0.3445
12671TIP3    H159428   6.241   4.161  13.556  1.5938  2.2175  1.4655
12671TIP3    H259429   6.152   4.242  13.464 -0.7648 -2.9613 -1.1978
12672TIP3   OH259430   3.843   4.006   5.168 -0.1005 -0.6992 -0.4177
12672TIP3    H159431   3.752   4.032   5.155 -0.0994 -0.5911 -0.2042
12672TIP3    H259432   3.872   4.055   5.245  0.9404  1.3568 -2.0056
12673TIP3   OH259433   0.451   0.595   3.223 -0.1229  0.2563  0.2434
12673TIP3    H159434   0.426   0.503   3.216 -1.5619  0.5660  0.9422
12673TIP3    H259435   0.536   0.593   3.266 -0.0962 -0.7432  0.1803
12674TIP3   OH259436   2.856   6.842  14.811 -0.6286 -0.0596 -0.2274
12674TIP3    H159437   2.775   6.853  14.760 -0.4525 -1.1377 -0.7596
12674TIP3    H259438   2.868   6.748  14.818 -0.4898  0.0560  1.6035
12675TIP3   OH259439   1.010   4.353  15.220  0.3306 -0.7000 -0.0909
12675TIP3    H159440   1.055   4.436  15.206  0.3450 -0.7288 -0.2229
12675TIP3    H259441   0.949   4.346  15.146 -0.7553 -0.0945  0.7284
12676TIP3   OH259442   0.352   1.072   4.955 -0.1040  0.2633 -0.4191
12676TIP3    H159443   0.281   1.023   4.914 -1.3565  0.9183  0.8858
12676TIP3    H259444   0.394   1.008   5.013  0.7409 -0.2636 -1.5674
12677TIP3   OH259445   0.264   6.096   0.443  0.4853  0.1231  0.6926
12677TIP3    H159446   0.224   6.024   0.493 -0.2307  0.5873  0.8019
12677TIP3    H259447   0.354   6.067   0.427  0.5384 -0.3073  1.7088
12678TIP3   OH259448   2.466   4.139   4.100 -0.2512  0.0287  0.0260
12678TIP3    H159449   2.422   4.086   4.167  0.5613  0.2570  0.7600
12678TIP3    H259450   2.523   4.198   4.149  0.6523 -0.0552 -0.8688
12679TIP3   OH259451   1.076   3.881   0.590 -0.1606  0.2181 -0.5232
12679TIP3    H159452   1.021   3.802   0.585  0.8637 -0.5426 -0.0999
12679TIP3    H259453   1.160   3.855   0.552  0.3996  0.9156  0.2013
12680TIP3   OH259454   5.456   6.160  14.908  0.3525  0.3411  0.2451
12680TIP3    H159455   5.478   6.119  14.824  0.4743  1.7501 -0.4408
12680TIP3    H259456   5.503   6.243  14.908 -0.3366  0.7591  1.3372
12681TIP3   OH259457   0.893   5.816  13.659  0.3975  0.3154  0.5230
12681TIP3    H159458   0.896   5.912  13.656  0.3571  0.3182  0.5811
12681TIP3    H259459   0.977   5.791  13.699  0.5601  0.3131  0.1832
12682TIP3   OH259460   3.430   1.540   3.964  0.6532 -0.1479  0.6157
12682TIP3    H159461   3.503   1.513   3.909  0.6133 -0.9059  0.9167
12682TIP3    H259462   3.388   1.612   3.917  2.6494  1.5281  1.2495
12683TIP3   OH259463   6.987   3.302  10.710  0.1188 -0.7207  0.3082
12683TIP3    H159464   6.935   3.229  10.742 -2.2735 -0.1183 -1.8769
12683TIP3    H259465   6.995   3.287  10.616  3.0419 -0.1746  0.3593
12684TIP3   OH259466   0.024   6.906  12.075  0.3979 -0.1454  0.5450
12684TIP3    H159467   0.030   6.812  12.056 -1.2857 -0.1962  0.1449
12684TIP3    H259468  -0.065   6.930  12.050  0.9497  1.6667  0.2101
12685TIP3   OH259469   5.927   1.145  13.119  0.6073 -0.4474  0.4641
12685TIP3    H159470   5.949   1.068  13.171  2.3840  0.3592  0.9744
12685TIP3    H259471   5.890   1.207  13.182 -0.4474 -0.7043  0.1235
12686TIP3   OH259472   1.388   6.894  13.092  0.4587  0.0055  0.0586
12686TIP3    H159473   1.413   6.804  13.069 -1.5048 -0.5057 -0.3232
12686TIP3    H259474   1.294   6.888  13.112 -0.0347  2.1801 -1.2549
12687TIP3   OH259475   4.672   4.230   1.607  0.0894  0.0865  0.1661
12687TIP3    H159476   4.711   4.150   1.570  0.3510 -0.5719  1.7894
12687TIP3    H259477   4.714   4.301   1.558  0.3509 -0.7330 -0.8536
12688TIP3   OH259478   2.093   6.430  10.287 -0.6427 -0.7265 -0.3754
12688TIP3    H159479   2.040   6.508  10.273 -1.4641 -1.3477 -0.8050
12688TIP3    H259480   2.042   6.377  10.350 -0.5876 -1.3686 -0.8566
12689TIP3   OH259481   1.454   5.606  10.126  0.2456 -0.4215 -0.1693
12689TIP3    H159482   1.413   5.646  10.049  0.0667  0.4612  0.3591
12689TIP3    H259483   1.381   5.566  10.174  0.2652 -0.4606 -0.1727
12690TIP3   OH259484   4.078   3.844   0.786  0.0278  0.5818  0.2936
12690TIP3    H159485   4.126   3.795   0.720  0.4387  1.0123  0.2618
12690TIP3    H259486   4.023   3.779   0.829 -0.7027  0.4052 -0.8688
12691TIP3   OH259487   4.567   2.351   0.497 -0.8331 -0.3388  0.3246
12691TIP3    H159488   4.474   2.363   0.479 -1.3721 -3.1186  0.8742
12691TIP3    H259489   4.579   2.256   0.504  2.0628 -0.0789  0.2435
12692TIP3   OH259490   4.766   2.918   3.326 -0.5699 -0.1077  0.3942
12692TIP3    H159491   4.769   2.914   3.230  0.3589  0.3615  0.3854
12692TIP3    H259492   4.777   3.012   3.345 -0.2751 -0.2550  0.9623
12693TIP3   OH259493   1.132   1.588   1.835  0.5181  0.6567  0.1072
12693TIP3    H159494   1.164   1.674   1.807  0.0297  0.4749 -1.0851
12693TIP3    H259495   1.204   1.550   1.886  0.4490  2.0678  1.3089
12694TIP3   OH259496   0.112   4.883  10.933  0.2594  0.1477 -0.1830
12694TIP3    H159497   0.138   4.887  10.841 -0.3611  0.9715 -0.3407
12694TIP3    H259498   0.034   4.827  10.933  0.3237  0.0587 -0.1431
12695TIP3   OH259499   1.670   0.780  14.195 -0.5806 -0.5545  0.1977
12695TIP3    H159500   1.636   0.715  14.134  0.2789 -0.8938  0.0620
12695TIP3    H259501   1.696   0.730  14.272  1.3235 -0.5897 -0.4217
12696TIP3   OH259502   0.131   2.233   3.292  0.2046  0.0336  0.0379
12696TIP3    H159503   0.142   2.236   3.387  0.2964  1.3760  0.0044
12696TIP3    H259504   0.086   2.150   3.275  1.5110 -0.9361  1.1064
12697TIP3   OH259505   5.012   0.670   2.783  0.2112  0.8913 -0.0469
12697TIP3    H159506   5.043   0.748   2.829 -0.1687  1.9164 -1.4735
12697TIP3    H259507   5.092   0.620   2.765  0.6784  1.8679 -0.7508
12698TIP3   OH259508   0.469   6.719   0.595 -0.0360 -0.3152  0.3151
12698TIP3    H159509   0.455   6.708   0.501  0.0166  0.9528  0.1332
12698TIP3    H259510   0.513   6.639   0.623 -0.9890 -1.1679 -0.5290
12699TIP3   OH259511   6.264   3.630   5.127  0.6126 -0.3910 -0.0544
12699TIP3    H159512   6.194   3.646   5.189 -1.9431 -2.0021 -2.3118
12699TIP3    H259513   6.338   3.601   5.181 -1.4723 -1.7815  2.2537
12700TIP3   OH259514   5.381   6.783   3.135  0.1113 -0.3433  0.1212
12700TIP3    H159515   5.366   6.860   3.191 -1.7686 -1.0694  0.7009
12700TIP3    H259516   5.359   6.709   3.191  0.9776 -1.2705 -0.7338
12701TIP3   OH259517   5.077   0.308  13.438 -0.4106  0.5488 -0.0004
12701TIP3    H159518   5.112   0.286  13.524 -0.7325  0.5655  0.1378
12701TIP3    H259519   5.056   0.402  13.444  0.8795  0.8896 -0.5575
12702TIP3   OH259520   3.434   3.791  10.471  0.0057  0.7069 -0.0164
12702TIP3    H159521   3.437   3.798  10.376 -2.3820 -3.4997 -0.6494
12702TIP3    H259522   3.494   3.720  10.492 -1.6484 -0.4444  1.1438
12703TIP3   OH259523   3.285   6.149  14.141 -0.6386 -0.0863 -0.3948
12703TIP3    H159524   3.292   6.076  14.202 -2.0719  0.6601  0.7265
12703TIP3    H259525   3.191   6.169  14.137 -0.4115  0.9120 -1.6296
12704TIP3   OH259526   2.060   1.572   4.068 -0.1705  0.0806  0.5153
12704TIP3    H159527   2.135   1.621   4.102 -0.1542 -0.0192  0.6214
12704TIP3    H259528   2.034   1.621   3.989  0.8625 -0.6639 -0.3221
12705TIP3   OH259529   7.074   0.829  10.447  0.0514  0.1696  0.0284
12705TIP3    H159530   6.990   0.783  10.438  0.4233 -0.5693  0.2901
12705TIP3    H259531   7.100   0.815  10.538  1.9687 -2.2768 -0.8118
12706TIP3   OH259532   1.849   1.337  15.333 -0.1488  0.1008 -0.2917
12706TIP3    H159533   1.919   1.298  15.385  0.5159  1.2644 -0.2867
12706TIP3    H259534   1.869   1.311  15.243  0.4724  0.6934 -0.3273
12707TIP3   OH259535   6.498   0.474  10.336 -0.1076  0.2822  0.0486
12707TIP3    H159536   6.589   0.450  10.356  0.1872  2.0561  1.1323
12707TIP3    H259537   6.489   0.457  10.243  1.1847 -0.4273  0.0278
12708TIP3   OH259538   6.948   3.607  10.757 -0.4685 -0.0948 -0.6697
12708TIP3    H159539   6.934   3.513  10.742 -0.0159 -0.2806  0.0428
12708TIP3    H259540   6.893   3.649  10.691 -0.6965 -0.8574 -0.9882
12709TIP3   OH259541   1.887   5.516  11.441  0.1374 -0.5943  0.5225
12709TIP3    H159542   1.882   5.422  11.459 -0.0715 -0.9182 -1.1357
12709TIP3    H259543   1.817   5.554  11.494 -0.2392 -1.4615  0.6620
12710TIP3   OH259544   5.241   5.265   2.749 -0.4750 -0.1253 -0.0308
12710TIP3    H159545   5.146   5.260   2.762 -0.7123  1.3086 -0.9873
12710TIP3    H259546   5.272   5.317   2.823  0.3166 -4.3313  2.9868
12711TIP3   OH259547   6.224   6.465  11.800  0.4263 -0.1175 -0.2938
12711TIP3    H159548   6.298   6.454  11.861 -0.0286  0.6844  0.4263
12711TIP3    H259549   6.243   6.405  11.728  2.4055  0.9319 -0.7162
12712TIP3   OH259550   1.639   0.393   0.984  0.3030 -0.6426 -0.4036
12712TIP3    H159551   1.683   0.447   0.918  0.3195 -0.9152 -0.6211
12712TIP3    H259552   1.708   0.339   1.021  0.8492  1.4852  1.8835
12713TIP3   OH259553   5.685   4.396   0.927  0.3664  0.0602  0.5035
12713TIP3    H159554   5.759   4.427   0.874 -0.6282 -1.0816 -1.6884
12713TIP3    H259555   5.619   4.464   0.919  0.1440 -0.1984  0.0551
12714TIP3   OH259556   4.168   5.318  11.236 -0.1851  0.3079  0.2054
12714TIP3    H159557   4.110   5.307  11.161 -1.7073  0.7184  1.2862
12714TIP3    H259558   4.207   5.404  11.224 -0.8060  0.5803  0.1303
12715TIP3   OH259559   0.702   1.914  10.905 -0.4759  0.2322  0.2725
12715TIP3    H159560   0.682   2.002  10.937  1.2709  0.1226  1.7877
12715TIP3    H259561   0.796   1.904  10.920 -0.6247 -1.8685  0.0454
12716TIP3   OH259562   1.939   3.055   4.201 -0.0947  0.3266 -0.1972
12716TIP3    H159563   1.971   3.107   4.128  2.3724  0.6026  1.0035
12716TIP3    H259564   1.866   3.106   4.237  1.1509  2.1414 -0.1188
12717TIP3   OH259565   0.263   5.376   2.483 -0.1489 -0.4107 -0.7002
12717TIP3    H159566   0.187   5.369   2.540 -1.2443 -0.3918 -2.1052
12717TIP3    H259567   0.229   5.416   2.403  1.3274 -0.4728 -1.3899
12718TIP3   OH259568   1.070   2.554  13.016 -0.2850 -0.3216 -0.5396
12718TIP3    H159569   1.046   2.635  13.059 -0.7262 -0.5298 -0.3941
12718TIP3    H259570   1.162   2.567  12.990  0.0479 -0.2587  0.6029
12719TIP3   OH259571   0.760   3.981   0.158  0.4576 -0.1567 -0.6108
12719TIP3    H159572   0.714   3.984   0.074 -0.9985 -1.8325  0.0490
12719TIP3    H259573   0.690   3.968   0.223  1.7290 -1.2988  0.5985
12720TIP3   OH259574   5.307   0.031   5.136 -0.5143  0.2292  0.0815
12720TIP3    H159575   5.335   0.008   5.225 -1.8993 -0.9765  0.2629
12720TIP3    H259576   5.229   0.085   5.149 -1.2639 -0.7037 -0.3687
12721TIP3   OH259577   4.769   0.704  11.521 -0.7448  0.5448 -0.0683
12721TIP3    H159578   4.695   0.645  11.535 -1.2319  1.2333  0.3292
12721TIP3    H259579   4.751   0.778  11.579  1.4194 -0.3000  1.8117
12722TIP3   OH259580   2.443   4.713   3.365 -0.5730 -0.2507  0.1480
12722TIP3    H159581   2.403   4.627   3.353 -0.6027 -0.1215 -0.7322
12722TIP3    H259582   2.369   4.774   3.366 -0.5261 -0.1949  0.4224
12723TIP3   OH259583   1.740   5.082  11.998 -0.1424 -0.1973  0.2361
12723TIP3    H159584   1.740   4.996  11.957 -1.1285  0.1437 -0.5247
12723TIP3    H259585   1.757   5.064  12.091 -0.1174 -1.1832  0.0563
12724TIP3   OH259586   4.859   4.491   5.755 -0.0274  0.1872 -0.1136
12724TIP3    H159587   4.871   4.403   5.790  3.3203  0.5578 -0.0454
12724TIP3    H259588   4.821   4.542   5.827  0.4705 -0.5974  0.7085
12725TIP3   OH259589   6.816   4.854   3.932 -0.0505  0.2012  0.3792
12725TIP3    H159590   6.756   4.923   3.959 -0.0215  0.2140  0.4113
12725TIP3    H259591   6.878   4.846   4.005  0.7107  1.0289 -0.1460
12726TIP3   OH259592   3.513   2.834   3.258 -0.6242  0.3148  0.3247
12726TIP3    H159593   3.568   2.771   3.211 -1.3436 -0.7305  0.8332
12726TIP3    H259594   3.506   2.798   3.346 -0.2514  1.6375  0.9170
12727TIP3   OH259595   5.477   3.521   1.085  0.0893 -0.1804 -0.1087
12727TIP3    H159596   5.431   3.521   1.000  0.0708  2.8274 -0.1980
12727TIP3    H259597   5.419   3.570   1.143  1.2627 -0.0212  0.9554
12728TIP3   OH259598   6.900   4.506   2.728 -0.5122  0.1248  0.3164
12728TIP3    H159599   6.843   4.442   2.770 -0.3921  0.1498  0.5190
12728TIP3    H259600   6.974   4.516   2.788  0.0144 -0.3685 -0.2330
12729TIP3   OH259601   5.002   4.063  14.559  0.3643  0.0072 -0.1491
12729TIP3    H159602   4.985   4.034  14.649 -0.0301 -1.8793 -0.7826
12729TIP3    H259603   5.041   3.987  14.516  1.7636  1.2950 -1.2550
12730TIP3   OH259604   2.122   1.194  13.340 -0.2192 -0.1416  0.1745
12730TIP3    H159605   2.198   1.230  13.294 -0.5099 -1.1771 -1.1898
12730TIP3    H259606   2.115   1.104  13.307 -0.9505 -0.6549  1.6491
12731TIP3   OH259607   2.745   6.732   3.572 -0.8493  0.3826  0.3316
12731TIP3    H159608   2.704   6.654   3.534 -1.6015  0.0196  1.8252
12731TIP3    H259609   2.751   6.794   3.499 -0.8584 -0.8210 -0.7192
12732TIP3   OH259610   6.343   3.891   5.732  0.1094 -0.4914 -0.3883
12732TIP3    H159611   6.404   3.944   5.783  1.5719 -1.2484 -1.3119
12732TIP3    H259612   6.269   3.876   5.792  0.4441  1.0751  0.4874
12733TIP3   OH259613   6.366   1.418   5.207 -0.1612  0.3235 -0.0128
12733TIP3    H159614   6.379   1.447   5.297 -2.8230  1.5833  0.0619
12733TIP3    H259615   6.385   1.496   5.154 -0.6548  0.2085 -0.3629
12734TIP3   OH259616   6.152   5.681  14.139 -0.2845 -0.8077  0.1234
12734TIP3    H159617   6.087   5.706  14.205 -0.9458  0.5598 -0.9750
12734TIP3    H259618   6.103   5.625  14.079  0.3042 -2.0146  0.7419
12735TIP3   OH259619   6.850   0.736   2.250  0.4962  0.2238  0.1241
12735TIP3    H159620   6.782   0.776   2.304  2.5173  1.6812  1.7325
12735TIP3    H259621   6.825   0.758   2.160  0.1125  2.8354  0.8116
12736TIP3   OH259622   1.895   4.438  13.392  0.7929 -0.0153 -0.0374
12736TIP3    H159623   1.929   4.374  13.455  1.4449 -0.6385 -0.9770
12736TIP3    H259624   1.953   4.429  13.316 -0.1520  0.4979 -0.8408
12737TIP3   OH259625   3.698   0.909   3.503 -0.0466 -0.1091  0.2943
12737TIP3    H159626   3.761   0.868   3.443  0.8061 -0.3267  1.3235
12737TIP3    H259627   3.661   0.982   3.452 -0.1696 -0.9608 -0.8845
12738TIP3   OH259628   6.062   3.980  11.810  0.1798 -0.0698 -0.2337
12738TIP3    H159629   5.985   4.006  11.860  0.9728  1.4495  0.2493
12738TIP3    H259630   6.028   3.919  11.744 -1.2261 -0.3812  0.7345
12739TIP3   OH259631   0.795   2.305  14.999  0.4670  0.0389 -0.3961
12739TIP3    H159632   0.800   2.294  14.904 -1.1562  1.7157 -0.7290
12739TIP3    H259633   0.886   2.300  15.028  0.9354 -1.1835 -1.9355
12740TIP3   OH259634   4.533   0.858   4.356  0.2831  0.8085  0.0228
12740TIP3    H159635   4.475   0.906   4.297 -0.0982 -0.2804 -0.5209
12740TIP3    H259636   4.584   0.801   4.298 -0.0834 -0.2674  0.7482
12741TIP3   OH259637   3.623   3.129  14.983 -0.2939  0.2457 -0.4857
12741TIP3    H159638   3.571   3.117  15.062 -0.7432 -2.2477 -1.0705
12741TIP3    H259639   3.698   3.181  15.012 -0.9854  0.3140  1.3284
12742TIP3   OH259640   3.210   6.297   3.530 -0.0687  0.5362 -0.6006
12742TIP3    H159641   3.116   6.304   3.519 -0.1553  1.7025  0.6831
12742TIP3    H259642   3.247   6.331   3.448 -0.7241 -1.0198 -1.6071
12743TIP3   OH259643   0.509   0.495  10.820  0.0068  0.2350  0.0021
12743TIP3    H159644   0.502   0.551  10.743  0.1721 -0.6843 -0.7002
12743TIP3    H259645   0.420   0.462  10.835  0.2889 -1.0312 -0.9297
12744TIP3   OH259646   5.798   2.622   2.810  0.1857 -0.7803  0.2755
12744TIP3    H159647   5.775   2.713   2.829 -1.3626 -1.2639  0.8246
12744TIP3    H259648   5.818   2.622   2.716  0.6464  0.1963  0.3577
12745TIP3   OH259649   4.032   4.051  10.856 -0.3281 -0.3752 -0.0195
12745TIP3    H159650   3.944   4.035  10.824 -0.5555 -2.7051  1.5082
12745TIP3    H259651   4.035   4.145  10.874 -2.1979 -0.1209 -0.9151
12746TIP3   OH259652   3.873   3.524   4.685 -0.1963  0.3766 -0.3482
12746TIP3    H159653   3.822   3.598   4.717  0.1736  0.2114  0.6709
12746TIP3    H259654   3.875   3.535   4.590 -1.5259  0.7671 -0.3460
12747TIP3   OH259655   6.095   1.767   1.091  0.2856  0.3541  0.2444
12747TIP3    H159656   6.140   1.852   1.090  1.6242 -0.3294 -0.0757
12747TIP3    H259657   6.143   1.714   1.027 -2.8357  0.4696 -2.4516
12748TIP3   OH259658   4.490   2.289  12.505  0.2110  0.1042 -0.0731
12748TIP3    H159659   4.575   2.255  12.478 -0.3019 -0.3694 -1.1702
12748TIP3    H259660   4.484   2.267  12.598  0.4583 -1.6990 -0.4335
12749TIP3   OH259661   5.487   3.048  11.234 -0.2908  0.1811 -0.4014
12749TIP3    H159662   5.437   3.112  11.284  1.3498  1.4756 -0.3176
12749TIP3    H259663   5.428   2.973  11.224 -2.3637  1.7484 -0.6644
12750TIP3   OH259664   1.615   5.847  13.694  0.5380  0.0449 -0.2822
12750TIP3    H159665   1.630   5.924  13.749 -0.8818  0.2990 -0.1959
12750TIP3    H259666   1.612   5.774  13.757  2.1816 -0.1421 -0.3972
12751TIP3   OH259667   3.642   7.060   1.589 -0.4401  0.2765 -0.0059
12751TIP3    H159668   3.670   7.015   1.669 -1.4426  1.8579  1.2800
12751TIP3    H259669   3.638   6.990   1.523  0.9233 -0.9761  1.1595
12752TIP3   OH259670   0.828   5.559  12.595  0.1163  0.1286 -0.1891
12752TIP3    H159671   0.744   5.578  12.553  0.5735 -0.8033 -1.5809
12752TIP3    H259672   0.820   5.598  12.682 -1.4669  0.7222 -0.5624
12753TIP3   OH259673   2.499   0.635  10.775 -0.1383 -0.8503  0.6468
12753TIP3    H159674   2.499   0.723  10.738  0.6906 -0.1142  2.2664
12753TIP3    H259675   2.476   0.578  10.702  2.1255  0.3920 -1.1929
12754TIP3   OH259676   3.587   6.782  11.002 -0.2048 -0.7594 -0.1795
12754TIP3    H159677   3.576   6.743  11.089  0.2828 -0.3735  0.0592
12754TIP3    H259678   3.509   6.837  10.991 -0.7725 -1.5972 -0.4165
12755TIP3   OH259679   4.487   6.151  12.178  0.0375  1.3714 -0.1433
12755TIP3    H159680   4.559   6.195  12.223 -1.1351  1.9885  1.1825
12755TIP3    H259681   4.509   6.159  12.085  2.4206  0.2063  0.2400
12756TIP3   OH259682   6.423   6.942  15.446  0.0302 -0.9543 -0.8945
12756TIP3    H159683   6.500   6.904  15.403  0.7448  2.1039 -2.6138
12756TIP3    H259684   6.362   6.869  15.455  1.6790 -2.7137 -2.9576
12757TIP3   OH259685   0.898   1.020   5.074 -0.2423  0.1070  0.2937
12757TIP3    H159686   0.900   1.057   4.985 -1.9690  0.0951  0.2251
12757TIP3    H259687   0.856   0.935   5.063 -0.0859 -0.0749  1.0729
12758TIP3   OH259688   2.692   6.155   4.447 -0.1160  0.5155 -0.0128
12758TIP3    H159689   2.658   6.202   4.371  2.4665  1.6191 -0.6187
12758TIP3    H259690   2.730   6.223   4.502 -0.3104 -0.4538  1.3676
12759TIP3   OH259691   6.018   5.358  10.995  0.2966 -0.0260  0.7239
12759TIP3    H159692   5.940   5.413  10.987 -0.2381 -0.8226  0.2629
12759TIP3    H259693   6.022   5.335  11.088 -0.4358 -0.5362  0.6464
12760TIP3   OH259694   5.229   0.243   4.027 -0.1627  0.0295  0.3630
12760TIP3    H159695   5.137   0.243   4.055 -0.2217 -0.6832  0.1866
12760TIP3    H259696   5.251   0.336   4.018 -1.0768  0.2031 -0.2616
12761TIP3   OH259697   2.877   5.414  13.482 -0.5283 -0.1970  0.3978
12761TIP3    H159698   2.898   5.328  13.520  0.2410  0.4193  1.3933
12761TIP3    H259699   2.856   5.469  13.557  1.2601  1.1213 -0.0142
12762TIP3   OH259700   0.271   4.139  11.442 -0.9851  0.9198  0.5712
12762TIP3    H159701   0.327   4.216  11.456  0.9490 -0.0212 -1.4258
12762TIP3    H259702   0.190   4.175  11.405  0.1095  2.0283 -0.8919
12763TIP3   OH259703   2.580   0.070  13.933 -0.5402 -0.2889 -0.0715
12763TIP3    H159704   2.612   0.157  13.956 -1.3154  1.0640 -3.5775
12763TIP3    H259705   2.575   0.024  14.017  3.4496  1.7197  1.5763
12764TIP3   OH259706   0.283   4.001  10.232  0.5551  0.4780 -0.0315
12764TIP3    H159707   0.199   4.017  10.275  0.8194  1.4751  0.1262
12764TIP3    H259708   0.333   3.950  10.296 -0.0090 -0.3547 -0.2312
12765TIP3   OH259709   7.108   4.142   3.370 -0.1620 -0.6327 -0.3517
12765TIP3    H159710   7.038   4.090   3.410 -0.9406 -1.0357 -2.1603
12765TIP3    H259711   7.169   4.159   3.442 -1.3063 -1.6476  0.9059
12766TIP3   OH259712   3.144   6.305   2.638  0.0203  0.2670  0.2053
12766TIP3    H159713   3.160   6.264   2.723  2.2383  0.1257 -0.2300
12766TIP3    H259714   3.140   6.398   2.657  2.4916  0.4218  0.2835
12767TIP3   OH259715   5.501   1.666   2.666  0.6043 -0.2762 -0.5857
12767TIP3    H159716   5.480   1.684   2.574  1.3307  0.3793 -0.6306
12767TIP3    H259717   5.545   1.581   2.664 -1.7025 -1.5652 -0.5201
12768TIP3   OH259718   0.676   1.504   9.644 -0.1828 -0.5577 -0.0782
12768TIP3    H159719   0.613   1.436   9.666 -0.1565 -0.8585 -0.9038
12768TIP3    H259720   0.645   1.582   9.690  0.3030 -1.3329  1.6563
12769TIP3   OH259721   6.727   4.867   2.436 -0.0371 -0.2310 -0.3883
12769TIP3    H159722   6.766   4.848   2.521 -1.0659 -2.3503 -0.3213
12769TIP3    H259723   6.794   4.840   2.373 -0.5176 -1.9299 -0.2417
12770TIP3   OH259724   5.428   5.180  13.272  0.0455 -0.3341 -0.0836
12770TIP3    H159725   5.397   5.139  13.191 -0.6911 -0.0099  0.0305
12770TIP3    H259726   5.371   5.256  13.284 -1.1985 -1.5161  1.8293
12771TIP3   OH259727   0.079   2.288  15.570 -0.6474  0.0518  0.0780
12771TIP3    H159728   0.102   2.199  15.544 -0.5222 -0.0773  0.6125
12771TIP3    H259729   0.065   2.335  15.488 -1.5562 -0.6774 -0.2017
12772TIP3   OH259730   5.467   0.667   5.808 -0.1601  0.3676 -0.4832
12772TIP3    H159731   5.491   0.705   5.724  3.2392  0.6371  0.4760
12772TIP3    H259732   5.506   0.579   5.807 -1.1607 -0.1202  0.3803
12773TIP3   OH259733   0.695   2.505  13.468  0.3228 -0.6523  0.1208
12773TIP3    H159734   0.761   2.561  13.508 -0.3219 -1.5042  2.5465
12773TIP3    H259735   0.689   2.429  13.526 -1.7285 -1.2980 -0.8345
12774TIP3   OH259736   0.971   4.389  12.570  1.0779 -0.5074 -0.1900
12774TIP3    H159737   0.903   4.341  12.617  1.1945 -0.4210  0.0680
12774TIP3    H259738   0.991   4.463  12.626 -0.3689  0.8557 -1.4041
12775TIP3   OH259739   4.172   6.941  11.866 -0.1323  0.8486  0.0419
12775TIP3    H159740   4.116   6.929  11.789 -2.5582  1.8575  1.5332
12775TIP3    H259741   4.231   7.012  11.843  1.0980 -0.6679 -1.8097
12776TIP3   OH259742   6.607   7.129   3.011  0.2211 -0.0383 -0.1953
12776TIP3    H159743   6.679   7.191   3.006 -0.4823  0.7038 -4.0188
12776TIP3    H259744   6.529   7.181   2.993 -0.7252 -1.5202 -0.5569
12777TIP3   OH259745   1.470   2.074  11.203 -0.2017 -0.4554  0.8556
12777TIP3    H159746   1.441   2.066  11.112 -1.2765 -2.2146  1.3090
12777TIP3    H259747   1.409   2.019  11.253  1.1621 -0.5888  2.4732
12778TIP3   OH259748   0.299   2.672   3.973 -0.0422 -0.3934  0.6704
12778TIP3    H159749   0.392   2.662   3.991 -0.0155  0.6162  1.1698
12778TIP3    H259750   0.276   2.594   3.923  0.9537 -0.9074  0.9775
12779TIP3   OH259751   1.949   2.019  13.780 -0.4889  0.3195  0.0181
12779TIP3    H159752   1.894   2.063  13.714 -0.4236 -1.1015 -1.0397
12779TIP3    H259753   1.925   2.061  13.863 -0.4087  2.3249 -0.9166
12780TIP3   OH259754   4.151   5.498   0.613 -0.2507  0.1005 -0.2818
12780TIP3    H159755   4.176   5.471   0.524  2.5535 -1.2245  0.8059
12780TIP3    H259756   4.138   5.415   0.660  0.9157  0.7198  1.2028
12781TIP3   OH259757   2.635   1.067  14.990  0.0213  0.1151  0.2819
12781TIP3    H159758   2.602   0.991  15.039 -1.1606  0.1613 -0.4079
12781TIP3    H259759   2.714   1.093  15.037 -1.1985  0.3143  2.3230
12782TIP3   OH259760   2.821   1.184   0.837  0.1330 -0.3326 -0.9419
12782TIP3    H159761   2.758   1.160   0.769 -0.0958 -2.2661 -0.1248
12782TIP3    H259762   2.793   1.134   0.914  0.1633  2.0691  0.7348
12783TIP3   OH259763   2.708   3.633   5.470 -0.3435  0.5955  0.6639
12783TIP3    H159764   2.744   3.549   5.440  0.6070  1.1264  0.2825
12783TIP3    H259765   2.634   3.608   5.526 -2.1964 -0.4913 -2.0018
12784TIP3   OH259766   6.919   1.603   2.595 -0.3911 -0.3448 -0.4882
12784TIP3    H159767   6.839   1.653   2.609  1.2497  2.4446 -0.2111
12784TIP3    H259768   6.891   1.512   2.593 -3.8032  0.5683 -2.3040
12785TIP3   OH259769   0.370   2.258  11.879  0.0185 -0.3637  0.1166
12785TIP3    H159770   0.292   2.207  11.856 -1.5123  3.0669 -3.2894
12785TIP3    H259771   0.443   2.204  11.849 -1.2046 -2.2039  0.2867
12786TIP3   OH259772   3.665   2.173   5.343 -0.0223 -0.4672  0.3128
12786TIP3    H159773   3.638   2.081   5.344  2.3253 -1.2221 -0.7488
12786TIP3    H259774   3.658   2.200   5.435 -0.1915 -1.8838  0.7501
12787TIP3   OH259775   0.939   0.540   4.870  0.1070 -0.5734 -0.0349
12787TIP3    H159776   0.975   0.462   4.828 -0.2695 -0.6288 -0.2592
12787TIP3    H259777   0.850   0.547   4.835 -1.0923 -1.9540  2.4833
12788TIP3   OH259778   3.369   6.995   5.108  0.0430  0.3612  0.2830
12788TIP3    H159779   3.302   7.047   5.151 -0.7926  0.5915 -1.2085
12788TIP3    H259780   3.448   7.008   5.160 -0.9429  0.4574  1.8145
12789TIP3   OH259781   6.791   3.382   4.810  0.3542  0.4128  0.0237
12789TIP3    H159782   6.883   3.408   4.803  0.2240  0.4102 -3.2993
12789TIP3    H259783   6.795   3.288   4.828  1.1310  0.0689 -1.6244
12790TIP3   OH259784   5.858   6.009   2.824 -1.1070  0.2002  0.2228
12790TIP3    H159785   5.873   5.997   2.918 -0.6913  1.3997  0.3265
12790TIP3    H259786   5.839   5.921   2.791  2.0085 -0.8164  0.8364
12791TIP3   OH259787   6.849   5.405   3.369  0.4415 -0.7848  0.0700
12791TIP3    H159788   6.910   5.478   3.377  1.0959 -1.3046 -0.0568
12791TIP3    H259789   6.800   5.404   3.452 -1.4279  1.3863 -0.8995
12792TIP3   OH259790   0.021   6.413   3.490 -0.5187 -0.8736  0.2145
12792TIP3    H159791   0.012   6.363   3.409  0.6155  0.2064 -0.6230
12792TIP3    H259792   0.061   6.351   3.551  0.7213 -1.0794 -0.7523
12793TIP3   OH259793   4.782   6.265   3.488 -0.0165 -0.6512  0.2455
12793TIP3    H159794   4.832   6.202   3.434 -0.0658 -0.1389 -0.4141
12793TIP3    H259795   4.804   6.350   3.451 -0.1414 -0.2973  0.9835
12794TIP3   OH259796   0.824   3.543  13.984  0.0335  0.8135 -0.3588
12794TIP3    H159797   0.886   3.616  13.985  0.6732  0.2897  0.6648
12794TIP3    H259798   0.752   3.572  13.928  1.7957  0.9602 -2.7218
12795TIP3   OH259799   5.456   2.982   2.174 -0.1629  0.0649 -0.0064
12795TIP3    H159800   5.518   3.009   2.241 -0.0211 -0.2611 -0.0061
12795TIP3    H259801   5.493   2.902   2.138 -0.0840  0.4008 -0.6840
12796TIP3   OH259802   1.911   6.049  13.054 -0.2726  0.0932  0.2712
12796TIP3    H159803   1.935   6.136  13.085  0.9212  0.1666 -0.7410
12796TIP3    H259804   1.928   5.992  13.129 -2.0031  0.8235  1.2633
12797TIP3   OH259805   2.740   1.688   2.721  0.6639  0.0203  0.2006
12797TIP3    H159806   2.749   1.599   2.686 -0.7303 -0.3652  0.7359
12797TIP3    H259807   2.652   1.715   2.694 -0.9337 -0.6793  4.0029
12798TIP3   OH259808   0.456   4.969  13.206 -0.0336  0.2451  0.2404
12798TIP3    H159809   0.360   4.967  13.199 -0.1943  2.1615  1.0890
12798TIP3    H259810   0.472   5.003  13.294  1.4781 -1.5386  0.7150
12799TIP3   OH259811   2.420   3.349  13.579 -0.0283  0.9746 -0.4438
12799TIP3    H159812   2.419   3.424  13.638  0.1962  1.0902 -0.5867
12799TIP3    H259813   2.513   3.335  13.559 -0.0935  0.8578 -0.6693
12800TIP3   OH259814   3.414   3.826  11.683 -0.2781 -0.2973  0.2676
12800TIP3    H159815   3.388   3.757  11.621 -2.3136  0.4823  0.1812
12800TIP3    H259816   3.332   3.858  11.718  0.6970  1.3648  1.1251
12801TIP3   OH259817   2.214   6.839   3.142 -0.4474 -0.0597  0.2175
12801TIP3    H159818   2.150   6.801   3.203 -0.3692 -0.5879 -0.0286
12801TIP3    H259819   2.292   6.852   3.195 -0.7065  0.4631  0.4868
12802TIP3   OH259820   1.101   1.104   6.186  0.2645  0.2077  0.0715
12802TIP3    H159821   1.066   1.027   6.232 -0.8182  0.0045 -1.0410
12802TIP3    H259822   1.191   1.080   6.165  0.0333 -0.6504  0.0013
12803TIP3   OH259823   3.012   4.448   1.436  0.3394  0.2618  0.1509
12803TIP3    H159824   3.012   4.542   1.419  0.8795  0.4581  1.2140
12803TIP3    H259825   2.924   4.430   1.471  1.0430  0.8392  2.3472
12804TIP3   OH259826   3.243   2.480  15.430 -0.0738 -0.1292 -0.2731
12804TIP3    H159827   3.276   2.421  15.497 -2.7422 -0.4286  0.9173
12804TIP3    H259828   3.261   2.568  15.465 -1.2690 -0.2826  0.8292
12805TIP3   OH259829   0.751   6.909   2.779  0.2612 -0.5257 -0.4180
12805TIP3    H159830   0.800   6.946   2.706 -1.8217  0.3853 -1.4121
12805TIP3    H259831   0.781   6.959   2.855  0.2218  0.6375 -1.1424
12806TIP3   OH259832   1.232   0.608   5.192 -0.8030  0.0172  0.0905
12806TIP3    H159833   1.225   0.618   5.097 -0.5991 -0.9624 -0.0410
12806TIP3    H259834   1.237   0.513   5.206 -1.9762  0.0831  1.1696
12807TIP3   OH259835   6.427   3.158   2.972  0.2820  0.0652  0.2544
12807TIP3    H159836   6.474   3.214   2.911 -1.3343  0.1883 -0.9625
12807TIP3    H259837   6.486   3.085   2.989  0.8792  0.1544 -1.2962
12808TIP3   OH259838   4.029   6.530  11.468  0.7121 -0.9173  0.0594
12808TIP3    H159839   4.087   6.473  11.518  1.1067 -1.5604 -1.0948
12808TIP3    H259840   4.083   6.605  11.443  0.2801 -0.1526  1.2980
12809TIP3   OH259841   4.043   6.553   1.908  0.1544 -0.2248  0.1557
12809TIP3    H159842   4.094   6.634   1.917 -0.4508  0.4184 -1.8467
12809TIP3    H259843   3.984   6.554   1.984  1.2610  0.3615  1.0466
12810TIP3   OH259844   0.181   4.390   1.068 -0.2491  0.3627 -1.1716
12810TIP3    H159845   0.167   4.468   1.014 -0.9359  1.8599  1.0213
12810TIP3    H259846   0.096   4.375   1.110  0.6243  0.2308  0.6381
12811TIP3   OH259847   1.337   6.285  14.352 -0.2080 -0.0343  0.3302
12811TIP3    H159848   1.249   6.319  14.340 -1.3802 -2.4455  1.4394
12811TIP3    H259849   1.393   6.363  14.357 -2.3989  1.5909  0.7048
12812TIP3   OH259850   1.199   1.344   5.871 -0.1253 -0.2081 -0.0952
12812TIP3    H159851   1.248   1.275   5.915  2.4578 -0.9473 -3.6642
12812TIP3    H259852   1.129   1.367   5.932  2.3748 -1.8280  3.7379
12813TIP3   OH259853   5.333   1.636   1.775 -0.1486 -0.1207  0.4580
12813TIP3    H159854   5.426   1.617   1.759  0.4540  2.1034  0.8080
12813TIP3    H259855   5.322   1.726   1.743 -1.4051  0.7577  3.0665
12814TIP3   OH259856   6.343   0.885   1.312  0.3998 -0.2227 -0.0475
12814TIP3    H159857   6.250   0.905   1.321  0.0833 -1.8808  0.8705
12814TIP3    H259858   6.352   0.856   1.221 -0.2864 -1.3092  0.2016
12815TIP3   OH259859   3.941   6.164  13.560 -0.0001  0.5507 -0.2401
12815TIP3    H159860   3.880   6.233  13.534 -1.9955 -1.6444 -1.8594
12815TIP3    H259861   3.982   6.136  13.478  1.2538  0.2035  0.4689
12816TIP3   OH259862   4.481   6.838  14.511 -0.2631 -0.0658  0.4681
12816TIP3    H159863   4.448   6.749  14.498  0.8928 -0.4746  0.1892
12816TIP3    H259864   4.422   6.877  14.575  0.8969 -2.0223  2.9055
12817TIP3   OH259865   6.699   1.278  11.447  0.5026 -0.7735 -0.0758
12817TIP3    H159866   6.669   1.219  11.378  1.2745 -1.3724  0.0827
12817TIP3    H259867   6.619   1.319  11.480 -0.1930 -2.4705  0.4879
12818TIP3   OH259868   1.994   5.980   4.060 -0.3674  0.3900 -0.1271
12818TIP3    H159869   2.083   5.951   4.038 -1.2871 -2.2531 -0.6380
12818TIP3    H259870   1.999   6.003   4.153  0.3047 -2.4325  0.6370
12819TIP3   OH259871   2.034   5.090  10.209 -0.0275 -0.2820  0.5152
12819TIP3    H159872   2.056   5.075  10.117  0.4627  1.7744  0.2517
12819TIP3    H259873   1.970   5.161  10.208  1.5399  1.2411  1.8254
12820TIP3   OH259874   0.163   2.983   2.571 -0.0701 -0.1140 -0.1547
12820TIP3    H159875   0.218   3.047   2.617 -0.3213 -0.4587  0.6492
12820TIP3    H259876   0.110   2.943   2.640 -0.6677 -0.4508 -0.7894
12821TIP3   OH259877   5.361   3.180   5.899  0.2937 -0.1458  0.0986
12821TIP3    H159878   5.290   3.244   5.901 -0.8068 -1.3133  1.3899
12821TIP3    H259879   5.441   3.231   5.911 -0.4829  1.0485  0.2751
12822TIP3   OH259880   0.421   2.176   4.012 -0.2877 -0.2425 -0.2049
12822TIP3    H159881   0.393   2.127   3.935 -0.2704  0.1275 -0.4515
12822TIP3    H259882   0.356   2.155   4.079  0.4409 -1.6213  0.0994
12823TIP3   OH259883   1.937   0.442  14.655 -0.9102  0.4383  0.4973
12823TIP3    H159884   1.941   0.390  14.736  0.7513  1.0084  0.8070
12823TIP3    H259885   1.953   0.532  14.683  0.3152  0.5631 -0.5199
12824TIP3   OH259886   4.314   4.506   5.426 -0.2363  0.6274 -0.2260
12824TIP3    H159887   4.380   4.567   5.460  0.8564 -0.7333  0.1914
12824TIP3    H259888   4.285   4.457   5.503 -0.7653  0.3011 -0.6268
12825TIP3   OH259889   4.943   1.464  12.224 -0.7076  0.4474  0.1602
12825TIP3    H159890   4.969   1.433  12.137  0.7011  1.5510  0.1540
12825TIP3    H259891   5.023   1.463  12.275 -1.1992  1.3232  0.9822
12826TIP3   OH259892   3.373   0.994  10.889 -0.1170 -0.0241  0.2183
12826TIP3    H159893   3.466   0.976  10.877 -0.2395 -0.2981 -0.3572
12826TIP3    H259894   3.341   0.923  10.944 -0.3279 -0.8777 -0.9709
12827TIP3   OH259895   1.412   6.727   3.423 -0.8476  0.2936  0.3358
12827TIP3    H159896   1.501   6.692   3.422 -0.3214  1.4096  2.6053
12827TIP3    H259897   1.390   6.739   3.330  1.4972  0.3315 -0.2684
12828TIP3   OH259898   4.917   5.859  13.746 -0.7665 -0.2811  0.4342
12828TIP3    H159899   4.853   5.811  13.800 -1.3660  1.0728  0.9790
12828TIP3    H259900   4.900   5.829  13.657 -0.5045 -1.7417  0.8362
12829TIP3   OH259901   2.682   0.119  15.566  0.3306  0.1705  0.1232
12829TIP3    H159902   2.673   0.036  15.613 -1.5782 -1.0613 -2.2184
12829TIP3    H259903   2.762   0.109  15.515 -0.1389 -0.4279 -0.5019
12830TIP3   OH259904   6.081   0.374  12.676 -0.1276 -0.7320 -0.4025
12830TIP3    H159905   6.069   0.396  12.768 -1.2541 -1.7225 -0.2933
12830TIP3    H259906   6.051   0.452  12.629 -1.2283 -0.8800  0.0359
12831TIP3   OH259907   6.952   3.404   0.724 -0.0617 -0.0214  0.1655
12831TIP3    H159908   7.007   3.325   0.728 -1.6208 -1.0924  1.7779
12831TIP3    H259909   6.874   3.376   0.677  0.2568  1.2131 -1.1856
12832TIP3   OH259910   1.934   4.877  10.841 -0.1797  0.4931  0.4312
12832TIP3    H159911   1.901   4.788  10.835 -1.1010  0.8407  0.1971
12832TIP3    H259912   2.030   4.868  10.842 -0.2430 -0.4252 -0.5865
12833TIP3   OH259913   1.027   1.763  10.723  0.3401 -0.0151 -0.2445
12833TIP3    H159914   1.113   1.742  10.686 -0.2760 -1.3094 -0.9829
12833TIP3    H259915   0.981   1.810  10.653  0.0591 -0.2674 -0.2286
12834TIP3   OH259916   6.778   3.348   1.816  0.1405 -0.6615 -0.0718
12834TIP3    H159917   6.749   3.324   1.904  0.6611 -1.4330 -0.1098
12834TIP3    H259918   6.867   3.381   1.828 -1.0179  2.8466  0.2217
12835TIP3   OH259919   2.008   3.937   4.620 -0.0142  0.0010  0.5264
12835TIP3    H159920   2.035   4.019   4.661  0.4136 -0.6962  1.7017
12835TIP3    H259921   1.914   3.947   4.606  0.2444  1.1844 -0.5717
12836TIP3   OH259922   3.185   6.806   2.923  0.2757 -0.7233 -0.1779
12836TIP3    H159923   3.168   6.712   2.916  2.0906 -1.3822  2.6742
12836TIP3    H259924   3.258   6.821   2.862  2.2566 -1.9566  1.7587
12837TIP3   OH259925   4.874   3.633   3.555  0.1740  0.3278  0.2775
12837TIP3    H159926   4.948   3.674   3.600  0.1644  1.1571 -0.4254
12837TIP3    H259927   4.834   3.705   3.505 -0.4650 -0.3383 -0.1884
12838TIP3   OH259928   6.307   5.796  12.631  0.0580  0.1467  0.5102
12838TIP3    H159929   6.380   5.806  12.693  0.6965  1.0229 -0.3484
12838TIP3    H259930   6.349   5.794  12.545 -0.9654  1.3958 -0.0592
12839TIP3   OH259931   2.163   3.354  13.373  0.7379  0.6580 -0.3265
12839TIP3    H159932   2.178   3.319  13.461 -0.8015  0.4245 -0.1319
12839TIP3    H259933   2.250   3.357  13.333  1.3834  0.2137  0.9936
12840TIP3   OH259934   5.489   4.939  10.591  0.0508  0.0305 -0.3104
12840TIP3    H159935   5.465   4.897  10.508  0.9773 -2.9233  0.7668
12840TIP3    H259936   5.426   4.904  10.654 -0.0962  1.5345  0.4101
12841TIP3   OH259937   1.745   3.419   2.387  0.1592 -0.2742  0.1765
12841TIP3    H159938   1.670   3.453   2.436  0.6458  0.3093  0.5366
12841TIP3    H259939   1.794   3.367   2.451  2.0600  2.3732  1.0431
12842TIP3   OH259940   6.359   5.077   1.868  0.0281 -0.1838 -0.3942
12842TIP3    H159941   6.344   5.132   1.945  1.1915 -0.1542 -0.1686
12842TIP3    H259942   6.417   5.007   1.900 -0.2818 -0.7343 -1.0121
12843TIP3   OH259943   5.664   6.161   9.810  0.1027 -0.0922 -0.1912
12843TIP3    H159944   5.637   6.251   9.831  1.3429  0.7732 -2.0803
12843TIP3    H259945   5.598   6.107   9.853 -2.3134  1.8006 -1.2166
12844TIP3   OH259946   2.122   4.168   4.784 -0.2490  0.4965  0.4098
12844TIP3    H159947   2.160   4.212   4.708 -1.5409  1.4273  0.2726
12844TIP3    H259948   2.051   4.226   4.813 -0.6224 -0.4737  1.5278
12845TIP3   OH259949   3.987   2.371   5.275  0.1038  0.0678  0.2448
12845TIP3    H159950   4.017   2.289   5.313  0.6536 -0.9976 -2.2766
12845TIP3    H259951   4.059   2.432   5.290 -0.2832  0.1132  2.0811
12846TIP3   OH259952   6.334   0.343  13.803 -0.0520 -0.2126 -0.2780
12846TIP3    H159953   6.391   0.411  13.767 -0.8170  0.9636  0.6421
12846TIP3    H259954   6.304   0.293  13.727 -0.9091  1.6320 -1.2001
12847TIP3   OH259955   7.035   2.515   3.371  0.2709 -0.5079  0.2800
12847TIP3    H159956   7.016   2.423   3.391  1.0937 -0.7880 -0.2096
12847TIP3    H259957   6.950   2.559   3.379  0.2017 -0.9390  2.4826
12848TIP3   OH259958   6.813   2.129   0.071 -0.1000 -0.7098  0.1132
12848TIP3    H159959   6.736   2.126   0.014 -0.2437  1.3976  0.1348
12848TIP3    H259960   6.777   2.118   0.159 -0.3128 -0.3553  0.0734
12849TIP3   OH259961   1.292   2.910   2.676 -0.2704 -0.2072  0.2331
12849TIP3    H159962   1.270   2.882   2.588  1.0573 -0.5334 -0.0232
12849TIP3    H259963   1.246   2.993   2.687 -0.5849 -0.2437 -0.6991
12850TIP3   OH259964   0.485   4.097   3.254  0.1350  0.1760 -0.2910
12850TIP3    H159965   0.412   4.151   3.225  0.0805 -0.7732 -1.9985
12850TIP3    H259966   0.454   4.057   3.336 -1.1922 -0.0762 -0.8951
12851TIP3   OH259967   6.101   3.908  13.545 -0.6553  0.4613  0.0709
12851TIP3    H159968   6.177   3.967  13.539  1.0776 -1.7292 -0.8372
12851TIP3    H259969   6.129   3.838  13.603 -2.7398  0.5361  1.2565
12852TIP3   OH259970   5.659   5.489   0.619 -0.4834 -0.5832  0.0597
12852TIP3    H159971   5.574   5.530   0.636 -0.8314 -1.5484  0.7268
12852TIP3    H259972   5.697   5.476   0.706  0.0284 -0.8321 -0.1957
12853TIP3   OH259973   3.068   1.329  11.806 -0.5966 -0.1851 -0.0038
12853TIP3    H159974   2.983   1.315  11.849 -0.2903 -1.8113  0.1279
12853TIP3    H259975   3.049   1.393  11.737 -1.8735 -0.3206  0.1933
12854TIP3   OH259976   4.681   2.681   4.980  0.7098 -0.7518  0.1218
12854TIP3    H159977   4.753   2.651   5.035  1.1894 -2.2999 -1.2897
12854TIP3    H259978   4.635   2.601   4.954 -1.0790  0.1374  0.3528
12855TIP3   OH259979   5.993   0.714  14.233 -0.0284  0.2550  0.3936
12855TIP3    H159980   6.068   0.764  14.200  0.6451 -1.3721 -0.6714
12855TIP3    H259981   5.968   0.759  14.314  1.5565  1.3265  0.3393
12856TIP3   OH259982   5.988   2.057   2.893  0.0673  0.1673 -0.1994
12856TIP3    H159983   5.903   2.084   2.858  0.2934  0.8106 -0.2617
12856TIP3    H259984   6.025   2.137   2.930 -0.5202 -0.6267  2.2842
12857TIP3   OH259985   4.414   3.563  15.279  0.5719 -0.5337 -0.0709
12857TIP3    H159986   4.483   3.496  15.275 -0.4811 -1.5824 -2.0314
12857TIP3    H259987   4.335   3.514  15.300  0.0112  0.3194 -0.1627
12858TIP3   OH259988   6.440   4.498  10.208  0.5601 -0.0013  0.3995
12858TIP3    H159989   6.351   4.464  10.218  0.4072  0.7237  1.8822
12858TIP3    H259990   6.486   4.466  10.285  1.4593  0.0212 -0.1189
12859TIP3   OH259991   0.423   3.635   3.706  0.2112 -0.3201 -0.3487
12859TIP3    H159992   0.334   3.620   3.677  0.3484  0.3368 -1.1628
12859TIP3    H259993   0.414   3.677   3.792 -0.2343 -1.0680 -0.0280
12860TIP3   OH259994   0.190   4.741  12.436 -0.0975 -0.1074 -0.5271
12860TIP3    H159995   0.105   4.776  12.462  0.2330  0.3357 -0.0270
12860TIP3    H259996   0.249   4.763  12.509  0.2325 -1.2602 -0.4266
12861TIP3   OH259997   0.077   1.742  14.978  0.1179 -0.7605 -0.0657
12861TIP3    H159998   0.024   1.818  15.001  2.6516  0.8873  0.8766
12861TIP3    H259999   0.036   1.706  14.900 -2.2317  0.4523  0.5389
12862TIP3   OH260000   3.319   3.908   4.378 -0.4309  0.3394 -0.0804
12862TIP3    H160001   3.414   3.901   4.375 -0.2307 -2.9416  4.2809
12862TIP3    H260002   3.302   3.989   4.427  0.1724  0.3483  0.1192
12863TIP3   OH260003   4.864   6.331  14.373  0.7541 -0.3603  0.6511
12863TIP3    H160004   4.935   6.268  14.362  0.2075 -0.9158  0.1285
12863TIP3    H260005   4.795   6.299  14.314 -0.4874 -0.6787  2.1894
12864TIP3   OH260006   4.142   4.302   2.940 -0.1382 -0.1920  0.1323
12864TIP3    H160007   4.220   4.298   2.885  0.0125  1.4579  0.1834
12864TIP3    H260008   4.153   4.230   3.003  0.0043 -1.6855 -1.5262
12865TIP3   OH260009   0.936   4.831  12.138 -0.0768  0.1095  0.3590
12865TIP3    H160010   0.923   4.768  12.209 -0.1062  0.6162  0.8088
12865TIP3    H260011   1.018   4.875  12.160 -0.2433  0.4792  0.2431
12866TIP3   OH260012   4.849   5.233  13.299 -0.2362 -0.0000 -0.0206
12866TIP3    H160013   4.861   5.274  13.384 -1.8862 -0.2539  0.3737
12866TIP3    H260014   4.925   5.177  13.288  0.4883  0.7909  0.8272
12867TIP3   OH260015   5.018   0.941   2.816  0.1822 -0.1732 -0.2142
12867TIP3    H160016   4.989   0.919   2.728  0.8889  0.8527 -0.7197
12867TIP3    H260017   5.053   1.029   2.809 -0.6529  0.3284  1.3072
12868TIP3   OH260018   6.890   3.759  10.534 -0.2455 -0.2892 -0.1957
12868TIP3    H160019   6.827   3.803  10.477 -1.6765 -0.1988  1.3950
12868TIP3    H260020   6.936   3.698  10.475 -0.7982  0.6534 -1.6731
12869TIP3   OH260021   6.525   0.769   3.597  0.3626 -0.0567 -0.0053
12869TIP3    H160022   6.516   0.788   3.503  0.5544  2.7602  0.4641
12869TIP3    H260023   6.616   0.787   3.617  0.2879 -0.4790  0.7630
12870TIP3   OH260024   0.316   0.623   5.054  0.1509 -0.1499 -0.0905
12870TIP3    H160025   0.266   0.684   5.000 -2.2361 -2.1757 -0.3881
12870TIP3    H260026   0.320   0.543   5.001  1.4523 -0.8816  1.0542
12871TIP3   OH260027   0.958   5.993   1.630  0.6768 -0.3643  0.4117
12871TIP3    H160028   0.864   5.977   1.625  0.3939  1.2244  0.1270
12871TIP3    H260029   0.967   6.062   1.695  1.4829  0.6729 -0.7626
12872TIP3   OH260030   3.961   4.081  13.395  0.2523 -0.6495 -0.0182
12872TIP3    H160031   4.036   4.048  13.445  0.3989 -0.5701 -0.1849
12872TIP3    H260032   4.000   4.135  13.327 -0.0454  0.9724  1.0629
12873TIP3   OH260033   4.335   0.883   4.157 -0.3369 -1.0221 -0.0052
12873TIP3    H160034   4.243   0.875   4.131 -0.1114  1.5441 -1.9250
12873TIP3    H260035   4.382   0.825   4.098 -0.4844 -0.2162 -0.9380
12874TIP3   OH260036   4.626   2.481  13.243  0.0932 -0.4541  0.2073
12874TIP3    H160037   4.548   2.492  13.297  1.0354 -0.9930  1.7517
12874TIP3    H260038   4.592   2.460  13.156 -1.4987  2.1893  0.1024
12875TIP3   OH260039   0.911   0.237  10.103 -0.0633 -0.4400 -0.1783
12875TIP3    H160040   0.874   0.309  10.052  0.2662  0.2686  0.5523
12875TIP3    H260041   0.983   0.204  10.050  0.9018  0.9230  0.2130
12876TIP3   OH260042   5.151   5.516   0.455  0.0472  0.1404  0.4898
12876TIP3    H160043   5.239   5.553   0.454 -0.1241  0.5617  0.0730
12876TIP3    H260044   5.129   5.508   0.547  0.5369 -0.0010  0.5966
12877TIP3   OH260045   4.185   4.094  12.469  0.4198  0.1139  0.5005
12877TIP3    H160046   4.190   4.007  12.430  0.2455  0.5087 -0.4207
12877TIP3    H260047   4.276   4.121  12.477  0.4623 -0.0252  0.4997
12878TIP3   OH260048   4.728   3.900   5.019 -0.5539  0.3743  0.4874
12878TIP3    H160049   4.746   3.990   5.045 -0.2972  0.6006 -0.4347
12878TIP3    H260050   4.649   3.876   5.067 -1.9267  1.8372 -0.9038
12879TIP3   OH260051   0.043   2.842  14.326 -0.2649 -0.0033 -1.0232
12879TIP3    H160052  -0.036   2.877  14.284 -1.2341 -0.5361  0.2859
12879TIP3    H260053   0.055   2.896  14.404  1.6655  1.1436 -2.0483
12880TIP3   OH260054   4.831   6.274   2.836 -0.0747 -0.3691  0.0904
12880TIP3    H160055   4.829   6.321   2.919  1.7746 -1.4211  0.8147
12880TIP3    H260056   4.869   6.337   2.773  1.4586 -0.5152  0.8159
12881TIP3   OH260057   2.889   2.445  14.961 -0.0955  0.4762  0.2721
12881TIP3    H160058   2.870   2.503  14.888  0.7868  1.2203  0.6229
12881TIP3    H260059   2.872   2.357  14.927 -2.8470  0.9677  0.1690
12882TIP3   OH260060   4.645   4.425  13.783  0.2803  0.1438 -0.4629
12882TIP3    H160061   4.712   4.423  13.715 -0.5773 -1.2153 -1.3044
12882TIP3    H260062   4.599   4.342  13.775  0.3321 -0.2124  1.9763
12883TIP3   OH260063   1.069   0.276   3.563  0.2178  0.6464 -0.1912
12883TIP3    H160064   1.094   0.187   3.539  1.0475  1.1211 -1.1519
12883TIP3    H260065   1.132   0.332   3.519  1.2107  1.6492  2.3228
12884TIP3   OH260066   0.173   3.879   2.737 -0.6079  0.1117 -0.2828
12884TIP3    H160067   0.168   3.796   2.784  0.0469  0.0740 -0.2726
12884TIP3    H260068   0.262   3.881   2.702 -0.5337  0.9223 -0.0650
12885TIP3   OH260069   4.010   6.099   2.815  0.8255  0.0004  0.3750
12885TIP3    H160070   4.015   6.186   2.776  0.6002 -0.5879 -1.0216
12885TIP3    H260071   4.047   6.110   2.902  0.1305  1.6468  0.5112
12886TIP3   OH260072   4.958   2.722  13.065  0.4056  0.1577 -0.2143
12886TIP3    H160073   4.883   2.737  13.123 -0.7549  1.3358 -1.8904
12886TIP3    H260074   5.014   2.662  13.112  0.0631  1.8548  2.5775
12887TIP3   OH260075   5.451   4.888   1.178 -0.5271 -0.4986 -0.5422
12887TIP3    H160076   5.436   4.853   1.266  0.1752  0.5039 -0.0076
12887TIP3    H260077   5.363   4.903   1.143 -0.8910  1.9362  1.1663
12888TIP3   OH260078   6.494   0.777   3.322  0.0961  0.4993 -0.1870
12888TIP3    H160079   6.495   0.748   3.231 -1.2696  2.8789 -1.0639
12888TIP3    H260080   6.402   0.797   3.340  0.6926  2.7202  0.7647
12889TIP3   OH260081   2.540   2.939   1.153  0.5600  0.2087  0.2211
12889TIP3    H160082   2.537   3.032   1.175 -0.4513  0.1312  0.4525
12889TIP3    H260083   2.462   2.902   1.194  0.6595 -0.6423 -0.3354
12890TIP3   OH260084   7.064   6.811  14.503 -0.6284  0.0477 -0.1769
12890TIP3    H160085   6.977   6.780  14.474 -1.6926  3.4727 -1.1716
12890TIP3    H260086   7.122   6.790  14.429 -1.1340 -0.1918 -0.5177
12891TIP3   OH260087   2.578   1.998  11.233  0.3592 -0.1572 -0.5010
12891TIP3    H160088   2.524   2.060  11.183  0.3595 -1.3135 -2.0107
12891TIP3    H260089   2.518   1.959  11.296 -0.0805  0.0133 -0.8084
12892TIP3   OH260090   6.911   3.403   2.627  0.2545  0.3583  0.0907
12892TIP3    H160091   6.860   3.333   2.668 -1.1442 -0.3926 -2.6975
12892TIP3    H260092   6.983   3.358   2.584  0.9849  0.9854  0.6359
12893TIP3   OH260093   3.507   5.659  13.250  0.0273 -0.2310 -0.2610
12893TIP3    H160094   3.487   5.588  13.311 -1.9029 -0.9049 -1.5574
12893TIP3    H260095   3.592   5.636  13.213  1.3044  0.2494  2.1293
12894TIP3   OH260096   4.376   3.469   1.280  0.5719 -0.5345  0.2136
12894TIP3    H160097   4.375   3.565   1.286  3.8162 -0.4554  1.4889
12894TIP3    H260098   4.330   3.440   1.359  2.4848  0.0703  1.6055
12895TIP3   OH260099   2.803   4.289  13.469 -0.7975  0.2991 -0.0227
12895TIP3    H160100   2.760   4.373  13.457 -0.5117  0.4024 -0.3446
12895TIP3    H260101   2.811   4.253  13.380 -1.6187 -0.4232  0.1739
12896TIP3   OH260102   5.670   5.973   0.512 -0.0221  0.3574  0.3098
12896TIP3    H160103   5.737   5.906   0.506  0.9974  1.3592  0.1200
12896TIP3    H260104   5.675   6.004   0.603 -1.2778 -0.5776  0.7367
12897TIP3   OH260105   1.739   3.693  14.519 -0.1327  0.8628 -0.3108
12897TIP3    H160106   1.662   3.644  14.546 -1.4150  2.9412  0.0557
12897TIP3    H260107   1.707   3.755  14.453  1.0147  2.2827  0.3882
12898TIP3   OH260108   5.624   3.072   4.558 -0.1912  0.3441  0.5205
12898TIP3    H160109   5.608   3.147   4.614 -0.2765  0.6108  0.1456
12898TIP3    H260110   5.698   3.099   4.503 -0.0304  0.0429  0.5844
12899TIP3   OH260111   6.049   0.512  10.146 -0.5595 -0.7496 -0.4993
12899TIP3    H160112   6.074   0.534  10.056 -0.3310 -0.9526 -0.4867
12899TIP3    H260113   5.957   0.536  10.151 -0.6575 -1.0247 -0.8832
12900TIP3   OH260114   1.641   1.033   5.426  0.5322 -0.1237 -0.3433
12900TIP3    H160115   1.647   0.939   5.408  1.8466  0.2820 -2.2963
12900TIP3    H260116   1.574   1.040   5.494  1.1787 -2.5592  0.6538
12901TIP3   OH260117   5.912   6.238   2.297  0.1328 -0.2905  0.1715
12901TIP3    H160118   5.848   6.234   2.369  0.2182  0.5130  0.2970
12901TIP3    H260119   5.994   6.260   2.340 -0.2177  2.4759 -0.3680
12902TIP3   OH260120   3.982   3.285   2.926 -0.3637 -0.1522  0.4249
12902TIP3    H160121   4.015   3.213   2.980  0.4212 -1.6952 -1.9580
12902TIP3    H260122   4.054   3.304   2.866 -1.6805  0.5581 -0.9661
12903TIP3   OH260123   4.769   4.832  15.583  0.2675 -0.3450  0.3940
12903TIP3    H160124   4.734   4.921  15.587 -0.8130 -0.6982 -0.4760
12903TIP3    H260125   4.691   4.777  15.579  0.9193 -1.2433 -0.4522
12904TIP3   OH260126   0.314   5.590  12.084 -0.0591  0.3492  0.5279
12904TIP3    H160127   0.362   5.547  12.154  0.1869 -0.1931  0.0389
12904TIP3    H260128   0.321   5.683  12.103  1.0289  0.2665  0.5648
12905TIP3   OH260129   4.874   1.766  15.156  0.2157 -0.6757  0.7205
12905TIP3    H160130   4.788   1.807  15.142  0.6252 -0.2282 -0.6116
12905TIP3    H260131   4.931   1.838  15.183  0.6233 -0.5759 -0.3424
12906TIP3   OH260132   6.427   2.071  10.507 -0.3661  0.0951  0.2478
12906TIP3    H160133   6.418   2.165  10.523  0.2267 -0.0157  1.3146
12906TIP3    H260134   6.345   2.046  10.464 -0.7510  0.9967  0.4313
12907TIP3   OH260135   4.027   5.977   2.577 -0.4956  0.3324 -0.2699
12907TIP3    H160136   4.039   6.020   2.661 -1.3385  2.3087 -1.0877
12907TIP3    H260137   3.938   6.001   2.550 -0.4193 -0.6652 -1.4839
12908TIP3   OH260138   5.328   1.176  15.616  0.4258 -0.1103  0.0108
12908TIP3    H160139   5.290   1.089  15.632  1.4559 -0.5164  0.3663
12908TIP3    H260140   5.369   1.168  15.529 -0.1135  0.2528 -0.2768
12909TIP3   OH260141   1.735   2.083   3.795 -0.0912  0.5881 -0.5660
12909TIP3    H160142   1.732   2.144   3.720  0.7267 -0.2618 -1.3163
12909TIP3    H260143   1.705   2.000   3.759 -0.4564  0.3511  0.2688
12910TIP3   OH260144   0.529   2.992  12.980 -0.0686  0.6582 -0.1759
12910TIP3    H160145   0.441   3.010  13.012 -0.2777 -0.2243 -0.2323
12910TIP3    H260146   0.579   2.970  13.059 -0.0890  0.4068 -0.2342
12911TIP3   OH260147   6.844   3.890  14.762  0.3692  0.1246  0.4000
12911TIP3    H160148   6.758   3.933  14.762 -0.5471 -1.2584  4.1710
12911TIP3    H260149   6.900   3.949  14.813  1.3003  0.3180 -0.7977
12912TIP3   OH260150   4.594   6.103  12.630 -0.4331 -0.1604  0.0968
12912TIP3    H160151   4.534   6.066  12.694  0.4338 -0.7704  0.5821
12912TIP3    H260152   4.681   6.089  12.668 -0.0053  1.2181 -0.3128
12913TIP3   OH260153   2.967   0.655   3.690 -0.3210  0.2005 -0.2067
12913TIP3    H160154   2.896   0.615   3.741 -0.5094 -0.2679 -0.8101
12913TIP3    H260155   2.937   0.744   3.671 -0.5995  0.1159 -0.1640
12914TIP3   OH260156   0.168   4.689  12.936 -0.1373 -0.0383  0.2301
12914TIP3    H160157   0.176   4.757  13.002 -1.3562  0.2112  0.1415
12914TIP3    H260158   0.177   4.607  12.984 -0.7058  0.1486  0.6567
12915TIP3   OH260159   1.180   2.253   9.611 -0.0879  0.2607  0.0431
12915TIP3    H160160   1.119   2.211   9.671  0.5652  1.5504  1.6808
12915TIP3    H260161   1.224   2.319   9.664  1.1014  0.9076 -1.6711
12916TIP3   OH260162   0.690   6.569   4.112 -0.1574  0.1871  0.2591
12916TIP3    H160163   0.757   6.535   4.052  0.3253 -0.9692  1.4153
12916TIP3    H260164   0.656   6.646   4.067  2.6803  1.4765  0.0824
12917TIP3   OH260165   0.851   0.746   2.330  0.6544 -0.3521  0.1848
12917TIP3    H160166   0.801   0.785   2.401  0.4911  1.9484 -1.0989
12917TIP3    H260167   0.941   0.740   2.363  0.5953  0.7824  0.5780
12918TIP3   OH260168   3.478   3.653  14.650 -0.0512 -0.9741  0.0127
12918TIP3    H160169   3.554   3.667  14.594 -0.1105 -3.5702 -0.8455
12918TIP3    H260170   3.405   3.694  14.604  0.5907  0.5648  0.3028
12919TIP3   OH260171   5.833   3.798   4.338  0.2720 -0.8318  0.0382
12919TIP3    H160172   5.792   3.714   4.357  0.4374 -0.5955  1.5211
12919TIP3    H260173   5.917   3.795   4.384  0.4243  0.0121 -0.1618
12920TIP3   OH260174   4.812   2.339   3.169  0.0879 -0.1238  0.3545
12920TIP3    H160175   4.781   2.262   3.216  0.6053 -0.3170  0.3837
12920TIP3    H260176   4.907   2.328   3.165  0.2156  0.7395  0.7705
12921TIP3   OH260177   7.032   2.238   4.260  0.0193  0.2117 -0.0153
12921TIP3    H160178   7.022   2.330   4.238 -1.1073 -0.2892 -1.8068
12921TIP3    H260179   7.064   2.197   4.179 -2.9556 -1.5056 -0.4680
12922TIP3   OH260180   2.007   2.746  11.037  0.2489 -0.5896 -0.2829
12922TIP3    H160181   1.974   2.686  10.970  0.4815 -0.8821 -0.1372
12922TIP3    H260182   1.997   2.833  10.998  0.9850 -0.7937 -0.9662
12923TIP3   OH260183   5.109   3.871   5.124 -0.6554 -0.5993  0.2168
12923TIP3    H160184   5.105   3.949   5.179 -1.5171 -0.0180 -0.6215
12923TIP3    H260185   5.188   3.883   5.071  0.2815 -1.2524  1.4183
12924TIP3   OH260186   2.347   3.969  12.913  0.5743  0.0901  0.5808
12924TIP3    H160187   2.269   4.023  12.924  0.1007 -0.2751 -0.7923
12924TIP3    H260188   2.314   3.879  12.913  1.2532 -0.1891  1.9918
12925TIP3   OH260189   2.960   0.757   0.861 -0.0757 -0.0973  0.2101
12925TIP3    H160190   2.992   0.847   0.865  0.9466 -0.4559  0.3819
12925TIP3    H260191   2.989   0.724   0.776 -0.4978 -0.2561  0.1211
12926TIP3   OH260192   0.872   1.843  12.831  0.0327  0.2298  0.4295
12926TIP3    H160193   0.938   1.777  12.851  0.1662  0.0367 -0.6095
12926TIP3    H260194   0.910   1.925  12.862  0.8798  0.1588 -0.3803
12927TIP3   OH260195   2.387   3.201  14.723  0.0037 -0.0339  0.2564
12927TIP3    H160196   2.380   3.254  14.803  0.5008 -1.6825  1.4492
12927TIP3    H260197   2.299   3.166  14.709  0.0800 -0.3346  0.5174
12928TIP3   OH260198   5.412   5.638   4.651 -0.3597  0.1197  0.9143
12928TIP3    H160199   5.386   5.559   4.603 -0.1899  0.2560  0.5982
12928TIP3    H260200   5.458   5.691   4.587 -1.9607  1.2540  0.6427
12929TIP3   OH260201   4.210   5.281   5.799  0.1199  0.3005  0.2483
12929TIP3    H160202   4.189   5.216   5.866  1.5989 -0.9639 -0.4469
12929TIP3    H260203   4.305   5.293   5.806  0.0232  1.6152 -0.3421
12930TIP3   OH260204   4.095   1.105   1.326 -0.9366  0.2941  0.4040
12930TIP3    H160205   4.069   1.082   1.416  0.1708  0.4023  0.7580
12930TIP3    H260206   4.190   1.114   1.330 -0.9803  1.2831 -0.5692
12931TIP3   OH260207   6.142   6.267   0.734  0.5304 -0.2372  0.0250
12931TIP3    H160208   6.093   6.319   0.670  0.8268 -0.6902 -0.5775
12931TIP3    H260209   6.093   6.277   0.815 -0.5975 -0.7448 -0.5751
12932TIP3   OH260210   3.899   1.036   3.268 -0.4891  0.0820 -0.3125
12932TIP3    H160211   3.981   1.085   3.265 -0.4257  0.1091  1.0740
12932TIP3    H260212   3.849   1.067   3.193 -0.6568  2.6764  0.7802
12933TIP3   OH260213   0.642   3.273  15.387 -0.3506  0.4239 -0.2280
12933TIP3    H160214   0.639   3.286  15.482 -0.8860 -3.5757  0.4567
12933TIP3    H260215   0.725   3.229  15.371 -0.0708  1.4212 -1.7649
12934TIP3   OH260216   2.486   1.229  15.534  0.1694 -0.5002 -0.1080
12934TIP3    H160217   2.562   1.172  15.547 -0.9054 -2.0431 -0.2871
12934TIP3    H260218   2.476   1.233  15.438  0.4700  0.3109 -0.1052
12935TIP3   OH260219   2.139   0.112   3.970  0.3543 -0.3100  0.3808
12935TIP3    H160220   2.067   0.078   4.024  0.8505 -0.2929  1.0706
12935TIP3    H260221   2.097   0.173   3.909 -0.3624 -1.1239  0.0353
12936TIP3   OH260222   5.614   2.697  14.141  0.1071 -0.2834 -0.5250
12936TIP3    H160223   5.678   2.745  14.194 -1.3438  2.6114 -1.1757
12936TIP3    H260224   5.607   2.749  14.060 -1.9311 -1.3480 -1.1012
12937TIP3   OH260225   0.130   5.614   1.989 -0.1631  0.4418 -0.4514
12937TIP3    H160226   0.114   5.591   1.898 -0.7637  0.7275 -0.4247
12937TIP3    H260227   0.218   5.582   2.007  0.0752  0.6448 -1.2174
12938TIP3   OH260228   2.283   0.641   3.361 -0.4337 -0.4748  0.1314
12938TIP3    H160229   2.239   0.716   3.321  1.0847  0.0416 -0.6441
12938TIP3    H260230   2.283   0.660   3.455  0.0245  0.5591 -0.0709
12939TIP3   OH260231   1.509   0.321   4.393 -0.2004 -0.0356 -0.1733
12939TIP3    H160232   1.543   0.282   4.474  0.4502  0.2664 -0.2917
12939TIP3    H260233   1.475   0.247   4.343  0.4334 -0.3773 -0.1128
12940TIP3   OH260234   6.088   3.615   4.935  0.5224 -0.1587  0.3120
12940TIP3    H160235   6.136   3.606   4.852  0.4923  1.9241  0.0292
12940TIP3    H260236   6.156   3.614   5.002  0.6475 -0.5936  0.1858
12941TIP3   OH260237   6.366   1.190   5.443 -0.2310 -0.4482 -0.2365
12941TIP3    H160238   6.273   1.176   5.421 -0.5455  1.7309 -0.5438
12941TIP3    H260239   6.364   1.243   5.522  0.8064 -1.5696  0.5633
12942TIP3   OH260240   6.829   4.838   3.183  0.9291  0.2274  0.2061
12942TIP3    H160241   6.812   4.931   3.194  0.3753  0.0286  1.1595
12942TIP3    H260242   6.899   4.819   3.247  0.9680 -0.0258  0.0881
12943TIP3   OH260243   2.913   6.879   5.931  0.6080 -0.1264  0.7927
12943TIP3    H160244   2.866   6.923   5.860  0.7156 -0.7319  0.3335
12943TIP3    H260245   2.847   6.823   5.972  1.1204 -1.7667 -0.5107
12944TIP3   OH260246   0.480   4.349   5.017 -0.4923  0.6636 -0.0881
12944TIP3    H160247   0.515   4.304   5.095  2.6445  2.1529 -0.4882
12944TIP3    H260248   0.450   4.434   5.050 -0.1588  0.8831 -0.3507
12945TIP3   OH260249   0.849   2.874  14.200 -0.3623  0.0754  0.3794
12945TIP3    H160250   0.849   2.965  14.171 -1.5782 -0.3569 -1.1767
12945TIP3    H260251   0.828   2.878  14.293 -0.3897  1.3769  0.3364
12946TIP3   OH260252   3.224   4.385  10.759  0.3754  0.4869 -0.1488
12946TIP3    H160253   3.230   4.389  10.855 -1.6283  0.0529  0.0295
12946TIP3    H260254   3.268   4.465  10.729  0.2838  1.0590  1.1726
12947TIP3   OH260255   6.377   3.761  13.878  0.2186 -0.4823 -0.2655
12947TIP3    H160256   6.377   3.762  13.782  2.1380  0.5823 -0.3097
12947TIP3    H260257   6.342   3.846  13.903  0.6002 -0.3822 -0.0589
12948TIP3   OH260258   0.780   4.299  14.514  0.2575 -0.7792  0.1229
12948TIP3    H160259   0.735   4.309  14.597 -0.2739  0.6761 -0.3171
12948TIP3    H260260   0.832   4.219  14.525 -0.9608 -1.4545  1.2964
12949TIP3   OH260261   1.216   1.924   5.468 -0.3366  0.3085 -0.0607
12949TIP3    H160262   1.242   2.010   5.435  0.5184 -0.1020 -0.5075
12949TIP3    H260263   1.165   1.885   5.397 -2.5410  1.2244  0.9236
12950TIP3   OH260264   6.147   6.204   2.104  0.1107  0.3862  0.9402
12950TIP3    H160265   6.156   6.200   2.199 -2.0468 -0.0897  1.1707
12950TIP3    H260266   6.200   6.131   2.072  1.4801  1.0115  1.6846
12951TIP3   OH260267   2.587   1.689  11.014 -0.0148 -0.4169 -0.1390
12951TIP3    H160268   2.677   1.698  11.046 -0.3509  0.1969  0.6691
12951TIP3    H260269   2.539   1.651  11.087 -0.4803 -0.4432 -0.4543
12952TIP3   OH260270   5.407   0.737  13.529  0.4435 -0.1545  0.3049
12952TIP3    H160271   5.319   0.771  13.512  0.1682 -1.4969 -1.1813
12952TIP3    H260272   5.462   0.815  13.538 -1.0877  0.7471  2.6269
12953TIP3   OH260273   0.616   7.116   1.576 -0.8341  0.2258 -0.4016
12953TIP3    H160274   0.665   7.137   1.655 -0.6850  0.0998 -0.4616
12953TIP3    H260275   0.654   7.172   1.508 -2.0762  1.5884 -0.0214
12954TIP3   OH260276   1.934   5.647   2.050 -0.0681  0.1526  0.2871
12954TIP3    H160277   1.885   5.641   2.132 -0.5573  1.2951  0.1020
12954TIP3    H260278   1.867   5.636   1.982  0.4065 -1.2578  0.0309
12955TIP3   OH260279   1.264   4.230   3.955  0.4582  0.2181  0.2546
12955TIP3    H160280   1.187   4.285   3.960  0.1402 -0.2802  1.3142
12955TIP3    H260281   1.230   4.140   3.959  0.9983 -0.0517 -0.8236
12956TIP3   OH260282   2.819   4.076   4.147  0.0152  0.0508 -0.2748
12956TIP3    H160283   2.811   4.000   4.205 -0.2671  1.5370  1.7554
12956TIP3    H260284   2.865   4.043   4.070  0.8446 -1.9239  0.9929
12957TIP3   OH260285   1.626   1.639   0.743 -0.0301 -0.3634  0.0645
12957TIP3    H160286   1.695   1.591   0.698  0.0960 -0.1829  0.0663
12957TIP3    H260287   1.672   1.698   0.803 -0.2113 -1.7283  1.6173
12958TIP3   OH260288   5.912   1.040  12.357 -0.2391 -0.2247 -0.2533
12958TIP3    H160289   5.847   0.971  12.344 -1.2553  0.5975  0.3303
12958TIP3    H260290   5.891   1.077  12.442  2.9605 -2.0108  1.5015
12959TIP3   OH260291   0.775   2.576   4.821 -0.6312  0.3468 -0.3677
12959TIP3    H160292   0.776   2.555   4.728 -0.0148 -2.3195  0.1448
12959TIP3    H260293   0.836   2.513   4.861  0.2135  2.3336  1.6866
12960TIP3   OH260294   3.145   4.823  14.277 -0.3479  0.2334  0.6323
12960TIP3    H160295   3.148   4.893  14.211 -0.9382  0.0889  0.4479
12960TIP3    H260296   3.171   4.744  14.230  3.7561  0.8132  1.5742
12961TIP3   OH260297   3.694   5.859  14.723  0.3783 -0.0708 -1.0904
12961TIP3    H160298   3.717   5.909  14.801 -2.0945 -0.7286  0.1423
12961TIP3    H260299   3.651   5.922  14.666  1.0139  0.1087 -1.3864
12962TIP3   OH260300   1.160   1.311  10.150 -0.0456 -0.5073  0.3231
12962TIP3    H160301   1.200   1.348  10.071 -0.2167 -2.9680 -1.0080
12962TIP3    H260302   1.234   1.284  10.204  0.0713 -0.1045  0.3662
12963TIP3   OH260303   0.464   4.976  11.857 -0.4596 -0.3032 -0.2325
12963TIP3    H160304   0.491   4.990  11.948  2.1594 -1.9495 -0.6615
12963TIP3    H260305   0.419   4.892  11.858  0.2234 -0.6726 -0.5824
12964TIP3   OH260306   4.698   6.548   9.883  0.3451  0.6569  0.1795
12964TIP3    H160307   4.773   6.571   9.828 -0.8577  1.4109 -1.2222
12964TIP3    H260308   4.623   6.553   9.824 -0.7489 -0.7038  1.3872
12965TIP3   OH260309   5.950   3.810  15.411 -0.1444 -0.1301 -0.3099
12965TIP3    H160310   5.891   3.749  15.455  0.8024 -1.1650 -0.4048
12965TIP3    H260311   5.927   3.896  15.446 -0.5250 -0.7266  0.9616
12966TIP3   OH260312   5.616   4.285   0.306  0.4333  0.6909  0.5710
12966TIP3    H160313   5.629   4.224   0.233  0.7610  0.6449  0.6665
12966TIP3    H260314   5.646   4.237   0.383 -0.9294  0.3384  0.9014
12967TIP3   OH260315   4.578   5.330   2.366  0.2031 -0.2800  1.0491
12967TIP3    H160316   4.533   5.371   2.440 -3.1807  1.0079 -1.4345
12967TIP3    H260317   4.576   5.237   2.384 -2.6698 -0.1930  1.6430
12968TIP3   OH260318   4.552   0.937  14.649  0.6205 -0.6287 -0.1703
12968TIP3    H160319   4.490   1.003  14.679 -1.3091 -1.0492 -2.8412
12968TIP3    H260320   4.546   0.867  14.713  0.3865  0.4629  1.0481
12969TIP3   OH260321   6.357   5.296  10.547 -0.2070  0.2230 -0.0490
12969TIP3    H160322   6.351   5.327  10.637  0.7987 -0.6916  0.3512
12969TIP3    H260323   6.375   5.203  10.554  0.2445  0.1989 -1.1865
12970TIP3   OH260324   6.427   2.937  10.608  0.1920 -0.5934  0.4203
12970TIP3    H160325   6.384   2.935  10.694  1.1606  0.0501  0.9321
12970TIP3    H260326   6.361   2.975  10.550 -0.7583 -1.7552  0.6932
12971TIP3   OH260327   0.745   0.203   4.684 -0.3139 -0.2194 -0.0224
12971TIP3    H160328   0.747   0.205   4.780 -0.2072 -0.3476 -0.0213
12971TIP3    H260329   0.657   0.173   4.662 -0.6844  0.7736  0.0179
12972TIP3   OH260330   6.989   1.608  14.477  0.2142 -0.2758  0.5037
12972TIP3    H160331   7.082   1.611  14.453  0.5190 -0.2843  1.6216
12972TIP3    H260332   6.950   1.548  14.414  0.0054  3.1355 -2.9890
12973TIP3   OH260333   1.674   0.597  15.242  0.2538 -0.6696 -0.5063
12973TIP3    H160334   1.758   0.626  15.276 -0.6285  1.0467  0.3034
12973TIP3    H260335   1.617   0.673  15.248 -1.0596 -1.4523 -2.1371
12974TIP3   OH260336   6.737   2.986  14.485 -0.1991  0.3506  0.1784
12974TIP3    H160337   6.670   2.918  14.487  0.4118 -0.2784  2.2427
12974TIP3    H260338   6.687   3.068  14.484 -1.0266 -0.1073  1.3358
12975TIP3   OH260339   0.477   0.580   0.032  0.0771 -0.0824  0.0964
12975TIP3    H160340   0.467   0.635  -0.046 -1.9441 -2.1970 -1.2661
12975TIP3    H260341   0.419   0.621   0.097 -2.5764 -1.2301 -1.3741
12976TIP3   OH260342   5.547   4.756   1.446  0.2049  0.3533 -0.1300
12976TIP3    H160343   5.579   4.669   1.424 -0.0695  0.3372 -0.4607
12976TIP3    H260344   5.452   4.745   1.458  0.3810  0.2626  1.4897
12977TIP3   OH260345   5.388   6.359  12.360 -0.5052 -0.1207  0.0511
12977TIP3    H160346   5.316   6.335  12.302 -1.6080  0.2892  1.1909
12977TIP3    H260347   5.410   6.277  12.406  2.0448 -1.0887 -2.5557
12978TIP3   OH260348   0.749   4.971   5.794  0.5829 -0.3785 -0.5199
12978TIP3    H160349   0.828   4.975   5.849  0.5796 -0.3946 -0.5141
12978TIP3    H260350   0.770   4.907   5.727  0.7440 -0.0495 -0.7865
12979TIP3   OH260351   0.045   0.527   0.102  0.1124 -0.3004 -0.4427
12979TIP3    H160352  -0.047   0.503   0.109  0.2922 -1.6795 -2.1931
12979TIP3    H260353   0.052   0.571   0.017  0.4725  3.0309  1.1353
12980TIP3   OH260354   5.337   4.234  10.242  0.1904 -0.1563 -0.9190
12980TIP3    H160355   5.263   4.222  10.182  0.3669 -0.7698 -1.0212
12980TIP3    H260356   5.298   4.271  10.321  0.1397  2.0485 -1.8889
12981TIP3   OH260357   3.243   3.399   3.698 -0.9818  0.8260  0.4361
12981TIP3    H160358   3.245   3.454   3.619 -0.9796  0.0425 -0.1186
12981TIP3    H260359   3.264   3.311   3.667 -2.5214  0.2040  1.0587
12982TIP3   OH260360   0.966   5.618   3.264  0.2521  0.0709 -0.2242
12982TIP3    H160361   1.012   5.643   3.345  0.6842  0.3842 -0.5628
12982TIP3    H260362   0.893   5.564   3.294  0.6781 -0.2003  0.3448
12983TIP3   OH260363   6.149   3.581   4.254 -0.3127  0.1976  0.2371
12983TIP3    H160364   6.110   3.604   4.338 -1.5940  0.0189 -0.2764
12983TIP3    H260365   6.213   3.513   4.274  1.9497  2.5321  1.4977
12984TIP3   OH260366   0.785   1.772   4.280  0.1876  0.2818 -0.7265
12984TIP3    H160367   0.842   1.703   4.246  2.0198  1.6271 -0.5578
12984TIP3    H260368   0.724   1.790   4.208  0.3169 -0.8334 -1.1256
12985TIP3   OH260369   6.320   5.375   2.556 -0.1032 -0.3163 -0.0234
12985TIP3    H160370   6.276   5.432   2.619  0.6080 -0.9838  1.0979
12985TIP3    H260371   6.402   5.350   2.598 -0.6233 -2.6082 -0.2255
12986TIP3   OH260372   5.505   5.726  13.831 -0.1690 -0.2879 -0.2812
12986TIP3    H160373   5.434   5.671  13.798  1.2662 -1.8746 -0.8355
12986TIP3    H260374   5.584   5.691  13.791  1.0930  0.6873  1.2363
12987TIP3   OH260375   0.425   4.856   5.538 -0.2701 -0.3652 -0.2383
12987TIP3    H160376   0.353   4.917   5.555 -0.5715 -0.5378 -0.8476
12987TIP3    H260377   0.492   4.909   5.495  0.7924  0.2352  2.0259
12988TIP3   OH260378   6.860   3.614  13.588  0.2214  0.2631 -0.2894
12988TIP3    H160379   6.879   3.530  13.631 -1.0427 -0.5654 -1.2901
12988TIP3    H260380   6.925   3.619  13.517  0.0425 -0.0640 -0.4782
12989TIP3   OH260381   6.792   3.761  12.855 -0.4938 -0.1632  0.6097
12989TIP3    H160382   6.872   3.743  12.805 -0.9508  2.8500 -1.4104
12989TIP3    H260383   6.771   3.677  12.896  1.6787 -1.9918 -1.6960
12990TIP3   OH260384   1.606   0.412   3.171 -0.4082  0.7514 -0.4711
12990TIP3    H160385   1.683   0.384   3.121 -0.3236  1.2474 -0.6281
12990TIP3    H260386   1.545   0.444   3.104 -0.1308  1.8106 -0.2467
12991TIP3   OH260387   7.019   1.614   0.313 -0.2437 -0.4076 -0.0313
12991TIP3    H160388   7.074   1.655   0.246  0.4401 -0.6778  0.3650
12991TIP3    H260389   7.026   1.671   0.389 -0.3922 -0.5240  0.0722
12992TIP3   OH260390   1.743   3.958  13.613  0.1965 -0.4781 -0.0067
12992TIP3    H160391   1.795   3.984  13.689  0.2832 -0.0272 -0.2132
12992TIP3    H260392   1.763   3.866  13.600 -0.2121 -0.6916  0.8233
12993TIP3   OH260393   4.257   6.269  10.893 -0.0747  0.3335 -0.6585
12993TIP3    H160394   4.271   6.175  10.891  1.3939  0.5159 -0.1751
12993TIP3    H260395   4.276   6.299  10.804  0.9473  0.3496 -0.4426
12994TIP3   OH260396   3.508   5.154   1.369 -0.5509 -0.4159  0.1725
12994TIP3    H160397   3.448   5.114   1.306 -0.1210 -0.0232 -0.5037
12994TIP3    H260398   3.520   5.243   1.337 -0.9061  0.0234  1.2433
12995TIP3   OH260399   0.625   0.222  15.290  0.1059  0.0208  0.7031
12995TIP3    H160400   0.694   0.199  15.228 -0.5613 -2.0752  0.6551
12995TIP3    H260401   0.572   0.287  15.244 -1.1301 -2.4097 -1.5695
12996TIP3   OH260402   0.637   1.196  12.444  0.3102  0.0100 -0.3377
12996TIP3    H160403   0.663   1.117  12.397 -1.6910  1.1716 -3.7715
12996TIP3    H260404   0.716   1.251  12.444  0.6371 -0.4331 -1.4854
12997TIP3   OH260405   0.455   5.415   5.050  0.7845  0.9128 -0.1385
12997TIP3    H160406   0.428   5.344   4.991  1.3271  1.6103 -1.2639
12997TIP3    H260407   0.534   5.451   5.009  2.0465  0.4892  1.7994
12998TIP3   OH260408   5.508   1.916   5.838  0.0942  0.2404  0.8875
12998TIP3    H160409   5.420   1.941   5.809  0.3987  0.8682  0.4726
12998TIP3    H260410   5.494   1.845   5.901 -0.7019  0.2871  0.7685
12999TIP3   OH260411   2.968   2.549   0.925 -0.2128 -0.1068 -0.2062
12999TIP3    H160412   3.062   2.553   0.942 -0.2606  1.9357 -0.1280
12999TIP3    H260413   2.941   2.462   0.956  1.4925 -0.4092  0.5336
13000TIP3   OH260414   1.737   1.066  10.463 -0.0167  0.3308 -1.1463
13000TIP3    H160415   1.655   1.020  10.480  0.8209 -0.3262  1.7795
13000TIP3    H260416   1.803   1.014  10.510  1.6951  2.1073 -1.4604
13001TIP3   OH260417   3.798   3.982   1.620  0.2613  0.3211 -0.2988
13001TIP3    H160418   3.764   4.068   1.596  1.4094  0.5678 -1.1671
13001TIP3    H260419   3.802   3.984   1.715  0.5591  1.3682 -0.3141
13002TIP3   OH260420   2.932   6.737  11.914  0.5465  0.1628  0.1623
13002TIP3    H160421   2.921   6.716  12.007 -2.3188 -0.5727 -0.2610
13002TIP3    H260422   2.913   6.831  11.908  0.9085  0.2473  0.3452
13003TIP3   OH260423   3.525   5.631   0.480  0.2116 -0.0691 -0.1615
13003TIP3    H160424   3.473   5.584   0.545  0.2970  0.4816  0.3125
13003TIP3    H260425   3.491   5.601   0.396  0.6804 -1.4557  0.1161
13004TIP3   OH260426   1.965   5.675   1.044 -0.0073 -0.1396 -0.2445
13004TIP3    H160427   1.988   5.693   0.953 -1.1091  3.0853 -0.0302
13004TIP3    H260428   1.988   5.756   1.091  0.2350 -1.5731  2.3092
13005TIP3   OH260429   0.345   6.955   5.609 -0.0067  0.2778 -0.3420
13005TIP3    H160430   0.436   6.955   5.580  0.0505 -1.5759 -0.2861
13005TIP3    H260431   0.350   6.942   5.704 -0.3333  0.0683 -0.3527
13006TIP3   OH260432   3.755   2.632  13.101  0.2850  0.0296 -0.3103
13006TIP3    H160433   3.751   2.670  13.189 -2.0068 -0.1557 -0.2886
13006TIP3    H260434   3.841   2.659  13.068 -0.5215  3.9503  0.2810
13007TIP3   OH260435   1.343   0.490  12.490  0.8846  0.6886  0.2657
13007TIP3    H160436   1.299   0.530  12.415  1.7548  1.3350  0.0814
13007TIP3    H260437   1.283   0.504  12.563  1.5235  3.1811  0.4056
13008TIP3   OH260438   0.852   3.000   4.521 -0.5925 -0.6029 -0.2802
13008TIP3    H160439   0.842   2.929   4.584  0.1822 -1.2339 -0.8424
13008TIP3    H260440   0.895   2.959   4.446  0.9843  0.7084 -0.1388
13009TIP3   OH260441   5.881   4.374  15.159  0.3766  0.2827 -0.6138
13009TIP3    H160442   5.868   4.469  15.150  0.0502  0.2735 -0.2994
13009TIP3    H260443   5.947   4.366  15.228 -0.4595  0.2631  0.2032
13010TIP3   OH260444   3.243   3.302  11.394 -0.0939  0.3161 -0.1815
13010TIP3    H160445   3.300   3.269  11.463  1.7254  0.7402 -1.3895
13010TIP3    H260446   3.155   3.277  11.421  0.7170 -1.0387  1.4118
13011TIP3   OH260447   1.504   4.479   3.266  0.2121  0.3888 -0.0353
13011TIP3    H160448   1.593   4.473   3.301  1.0853  0.0032 -2.1793
13011TIP3    H260449   1.499   4.567   3.228 -0.8881  0.9892  1.3910
13012TIP3   OH260450   0.470   0.289  12.078 -0.1833  0.1679 -0.0145
13012TIP3    H160451   0.476   0.255  11.989 -2.8026  0.5104 -0.4187
13012TIP3    H260452   0.542   0.351  12.086  3.3021 -3.5386 -0.0363
13013TIP3   OH260453   5.162   2.789  10.913  1.0733 -0.2017  0.6449
13013TIP3    H160454   5.161   2.871  10.962 -2.3749 -0.0483  0.5534
13013TIP3    H260455   5.142   2.814  10.823 -2.3813 -1.1918  1.0168
13014TIP3   OH260456   5.687   2.545   5.466  0.4029  0.3226 -0.3679
13014TIP3    H160457   5.597   2.545   5.432 -0.1124 -2.2454  0.6992
13014TIP3    H260458   5.741   2.522   5.390  0.2307  2.0051 -1.0453
13015TIP3   OH260459   6.389   7.109   1.324  0.2700  0.1671  0.5142
13015TIP3    H160460   6.415   7.062   1.403  0.4694  0.4740  0.6307
13015TIP3    H260461   6.377   7.040   1.259 -1.1701 -0.2075  1.1464
13016TIP3   OH260462   0.280   6.436   3.327 -0.0359 -0.2993 -0.0854
13016TIP3    H160463   0.237   6.365   3.278  0.5568 -0.5342 -0.2791
13016TIP3    H260464   0.357   6.394   3.366  1.7142  0.7360 -2.1908
13017TIP3   OH260465   2.006   3.653  14.546  0.0100 -0.0109 -0.0969
13017TIP3    H160466   1.923   3.653  14.498  0.2518  1.0509 -0.5491
13017TIP3    H260467   2.073   3.641  14.479  0.3317  1.1705 -0.0128
13018TIP3   OH260468   1.939   5.756  12.533 -0.2557  0.4433 -0.1291
13018TIP3    H160469   1.927   5.792  12.621  0.5289  1.5182 -0.4499
13018TIP3    H260470   1.861   5.785  12.484 -1.9737 -2.1897  0.7865
13019TIP3   OH260471   0.460   2.100  14.236 -0.0223  0.3117 -0.3904
13019TIP3    H160472   0.409   2.069  14.311  0.9845  0.3890  0.3659
13019TIP3    H260473   0.533   2.148  14.276  1.5922 -1.2427 -1.3204
13020TIP3   OH260474   1.037   4.403   3.957 -0.4014 -0.0247  0.2228
13020TIP3    H160475   0.969   4.447   4.008 -1.7441 -0.6693 -0.9432
13020TIP3    H260476   1.055   4.463   3.885  1.5028  0.8923  1.3785
13021TIP3   OH260477   0.575   6.330   3.791  0.1498  0.0574  0.0980
13021TIP3    H160478   0.562   6.289   3.705 -4.4921 -2.2314  1.5850
13021TIP3    H260479   0.599   6.259   3.849  0.4494  1.0887  1.2866
13022TIP3   OH260480   3.408   1.086  11.668  0.1327 -0.3673  0.1402
13022TIP3    H160481   3.335   1.027  11.649 -0.7924  0.5168  0.8537
13022TIP3    H260482   3.451   1.099  11.584  0.9151 -2.7309  0.0806
13023TIP3   OH260483   0.727   6.828   0.412  0.4627 -0.1559  0.4828
13023TIP3    H160484   0.742   6.889   0.339 -1.6611  0.4037  0.4427
13023TIP3    H260485   0.687   6.882   0.480 -1.1454 -1.3911  0.5830
13024TIP3   OH260486   5.429   3.124   3.634 -0.3783  0.2873 -0.3729
13024TIP3    H160487   5.476   3.068   3.695  2.3766  1.6484 -1.0575
13024TIP3    H260488   5.342   3.135   3.672 -0.1379 -2.2432  1.0853
13025TIP3   OH260489   3.674   6.716  14.732 -0.5675 -0.1585 -0.2464
13025TIP3    H160490   3.702   6.684  14.818  0.5601 -0.0365 -0.5543
13025TIP3    H260491   3.754   6.718  14.680 -1.2977 -0.5283 -1.4053
13026TIP3   OH260492   3.064   4.815  14.832 -0.3303  0.4573 -0.3603
13026TIP3    H160493   3.080   4.736  14.884 -0.1584  1.1085  0.5936
13026TIP3    H260494   3.150   4.840  14.798 -0.4357  0.0575 -0.9378
13027TIP3   OH260495   0.171   3.590   1.685  0.2468  0.2528 -0.1060
13027TIP3    H160496   0.091   3.621   1.642 -1.2529 -0.5283  1.9926
13027TIP3    H260497   0.177   3.642   1.765 -0.2586 -2.1601  1.5987
13028TIP3   OH260498   6.889   5.756  13.837 -0.0257 -0.8553 -0.0241
13028TIP3    H160499   6.979   5.777  13.858  0.0460  0.2943 -1.3641
13028TIP3    H260500   6.875   5.669  13.875  1.0730 -0.3004  1.7413
13029TIP3   OH260501   0.775   3.939  14.116 -0.2560  0.1351 -0.1133
13029TIP3    H160502   0.764   3.961  14.209  2.8128  0.7197  0.2372
13029TIP3    H260503   0.749   4.018  14.069 -1.7456 -0.1356  0.2056
13030TIP3   OH260504   6.355   6.875   3.242  0.5851 -0.1442  0.2112
13030TIP3    H160505   6.399   6.881   3.158  1.2723 -2.2904  0.3550
13030TIP3    H260506   6.415   6.916   3.304 -0.0498  1.7009 -0.3242
13031TIP3   OH260507   0.474   6.206   4.979 -0.8947  0.3247 -0.2814
13031TIP3    H160508   0.418   6.132   5.005 -0.7030 -0.3142 -1.5950
13031TIP3    H260509   0.536   6.168   4.916  0.0514  1.3434  0.0123
13032TIP3   OH260510   2.984   2.473   4.590  0.3144  0.3472  0.6035
13032TIP3    H160511   3.079   2.463   4.603  0.2774 -1.5505 -0.2106
13032TIP3    H260512   2.946   2.458   4.677  0.7274  0.1213  0.7506
13033TIP3   OH260513   2.933   5.930   4.190 -0.4598  0.5273  0.6553
13033TIP3    H160514   3.024   5.937   4.163 -0.8474  1.8718 -0.4281
13033TIP3    H260515   2.913   5.837   4.184  0.9905  0.1175  1.5143
13034TIP3   OH260516   5.250   1.096  11.357  0.5144  0.1348 -0.2420
13034TIP3    H160517   5.297   1.171  11.318 -0.4751  0.4240 -0.9226
13034TIP3    H260518   5.271   1.023  11.299  2.4015 -0.4338  1.0461
13035TIP3   OH260519   3.800   6.762  10.594  0.3771 -0.4560  0.1240
13035TIP3    H160520   3.737   6.713  10.647  0.3876 -1.0986 -0.4379
13035TIP3    H260521   3.761   6.849  10.583 -0.5446 -0.9268 -0.4336
13036TIP3   OH260522   0.361   1.817  13.364 -1.0120 -0.0134  0.9687
13036TIP3    H160523   0.422   1.766  13.419 -0.4860 -0.3218  0.1238
13036TIP3    H260524   0.321   1.880  13.424  0.8955  0.8884  1.3707
13037TIP3   OH260525   0.282   1.196  11.910 -0.0253  0.0872 -0.1503
13037TIP3    H160526   0.288   1.192  12.005 -1.1071 -0.0817 -0.0769
13037TIP3    H260527   0.363   1.239  11.882  0.0391  0.6555  0.8817
13038TIP3   OH260528   2.796   6.124  13.497  0.0493 -0.0773 -0.3780
13038TIP3    H160529   2.719   6.162  13.540 -0.2239 -1.3556  0.2991
13038TIP3    H260530   2.776   6.031  13.488  1.4821 -0.4293 -0.2502
13039TIP3   OH260531   0.942   1.814  14.180  0.0832 -0.7593 -0.4749
13039TIP3    H160532   0.899   1.742  14.226 -1.4405 -0.0333 -0.6825
13039TIP3    H260533   0.928   1.890  14.236  1.4175 -0.5449 -0.3998
13040TIP3   OH260534   2.065   3.756  15.098  0.0686  0.0830  0.0137
13040TIP3    H160535   1.976   3.776  15.069  0.7839  1.7273 -1.2005
13040TIP3    H260536   2.086   3.823  15.162  0.9813  0.7117 -0.9035
13041TIP3   OH260537   0.608   4.824   2.194 -0.1163 -0.4000 -0.2791
13041TIP3    H160538   0.529   4.821   2.248 -0.9880  1.9344 -1.3034
13041TIP3    H260539   0.583   4.875   2.117  2.2787  0.1264 -0.7922
13042TIP3   OH260540   7.124   0.343   1.953  0.2609 -0.1319  0.3117
13042TIP3    H160541   7.084   0.268   1.909  0.2571  1.1702 -2.0577
13042TIP3    H260542   7.057   0.374   2.014 -1.2657  0.2207 -1.4644
13043TIP3   OH260543   3.463   6.315   0.885  0.1587 -0.1283  0.2396
13043TIP3    H160544   3.442   6.375   0.813 -0.3871 -0.5542  0.0400
13043TIP3    H260545   3.558   6.323   0.895  0.0766  0.9448  0.3772
13044TIP3   OH260546   1.158   2.652  12.018 -0.1219  0.1208  0.1220
13044TIP3    H160547   1.096   2.674  11.948 -0.0504  0.1864  0.0804
13044TIP3    H260548   1.174   2.735  12.063 -0.2294  0.0641  0.2657
13045TIP3   OH260549   1.436   5.067  15.317 -0.4149  0.1690 -0.0860
13045TIP3    H160550   1.363   5.017  15.353 -0.4830  0.0686 -0.3587
13045TIP3    H260551   1.421   5.157  15.348 -0.1949 -0.0098  0.5499
13046TIP3   OH260552   3.018   3.648   5.421 -0.7949  0.1494  0.1804
13046TIP3    H160553   2.984   3.700   5.494 -0.2077  0.9410 -0.0876
13046TIP3    H260554   3.049   3.567   5.461 -2.1100 -0.1927  0.5530
13047TIP3   OH260555   6.825   6.202   3.756  0.4682  0.2390 -0.5915
13047TIP3    H160556   6.860   6.290   3.766  1.0888 -0.0229 -0.4602
13047TIP3    H260557   6.792   6.199   3.666 -1.1899  1.1815 -0.0591
13048TIP3   OH260558   3.593   0.857   2.211  0.4075  0.4797 -0.4993
13048TIP3    H160559   3.534   0.794   2.253  0.4322 -0.0287 -1.1923
13048TIP3    H260560   3.656   0.880   2.278  0.6953 -0.6274 -0.3646
13049TIP3   OH260561   0.722   0.037   4.185  0.4708 -0.1482 -1.1484
13049TIP3    H160562   0.777   0.064   4.258 -0.6964  1.3546 -0.7859
13049TIP3    H260563   0.761   0.079   4.108 -0.7502  1.8749 -0.7305
13050TIP3   OH260564   3.243   3.739  10.644 -0.3101 -0.0202  0.2549
13050TIP3    H160565   3.304   3.770  10.577 -1.0649  1.5929  0.2575
13050TIP3    H260566   3.158   3.737  10.601 -0.5754 -0.3693  0.7735
13051TIP3   OH260567   6.920   6.386  13.829 -0.2585 -0.3591 -0.3688
13051TIP3    H160568   6.854   6.328  13.791 -1.4576  0.4318  0.4469
13051TIP3    H260569   6.872   6.442  13.890  1.5061 -1.3532  2.1356
13052TIP3   OH260570   1.298   2.339   9.911  0.1805 -0.0848  0.4948
13052TIP3    H160571   1.328   2.406   9.972 -1.0986  0.9446  0.0384
13052TIP3    H260572   1.211   2.314   9.942 -0.7642  0.9049 -1.1805
13053TIP3   OH260573   5.944   6.011  11.346 -0.0841 -0.0139 -0.0881
13053TIP3    H160574   6.033   5.977  11.345 -0.5320 -1.2502  0.6798
13053TIP3    H260575   5.953   6.101  11.379  0.8901 -0.0561 -0.2098
13054TIP3   OH260576   2.786   2.382  11.658  0.1686  0.2105 -0.7268
13054TIP3    H160577   2.804   2.294  11.623  1.8894  0.0766  0.3284
13054TIP3    H260578   2.795   2.440  11.583 -1.8025 -0.5553 -1.6119
13055TIP3   OH260579   0.066   5.892   4.672 -0.9296 -0.1677  0.3467
13055TIP3    H160580  -0.029   5.895   4.676 -0.8826  1.0779  0.8400
13055TIP3    H260581   0.095   5.979   4.701  0.3572 -0.5447  0.2779
13056TIP3   OH260582   6.051   1.102   5.651  0.1380 -0.3457 -0.8766
13056TIP3    H160583   6.105   1.069   5.723 -0.4389  0.5842 -0.0050
13056TIP3    H260584   5.965   1.061   5.665 -0.3213  0.7712 -0.3122
13057TIP3   OH260585   1.055   5.618  14.422 -0.3020  0.4798 -0.2640
13057TIP3    H160586   1.055   5.685  14.490 -0.8160  0.8567 -0.6330
13057TIP3    H260587   1.074   5.537  14.469 -0.4887  0.7614  0.3052
13058TIP3   OH260588   6.412   0.182   4.356  0.1422  0.2652 -0.3607
13058TIP3    H160589   6.435   0.274   4.368 -3.1170  1.5648 -2.6516
13058TIP3    H260590   6.448   0.159   4.271 -0.3533 -0.0773 -0.4821
13059TIP3   OH260591   1.795   3.110  11.605 -0.1402  0.3244 -0.0283
13059TIP3    H160592   1.834   3.084  11.522  2.4317  0.2719  1.1111
13059TIP3    H260593   1.765   3.200  11.591 -1.7905 -0.4080 -1.6043
13060TIP3   OH260594   5.468   5.294   4.301  0.2919  0.0589  0.0539
13060TIP3    H160595   5.505   5.249   4.377 -0.8177 -0.0396  0.5612
13060TIP3    H260596   5.454   5.225   4.236 -0.8343 -0.2476  0.6032
13061TIP3   OH260597   0.731   4.392   3.662  0.4837 -0.1402  0.3202
13061TIP3    H160598   0.677   4.471   3.668 -1.7223 -1.5033 -0.2946
13061TIP3    H260599   0.766   4.381   3.750  0.4891  1.2796  0.5244
13062TIP3   OH260600   2.417   0.888   4.264 -0.7267  0.3121  0.3167
13062TIP3    H160601   2.454   0.974   4.283 -0.7716  0.4143 -0.0656
13062TIP3    H260602   2.460   0.830   4.327  1.9976 -0.0374 -1.6915
13063TIP3   OH260603   1.124   1.545   1.457  0.0670 -0.1162  0.3487
13063TIP3    H160604   1.119   1.528   1.551  0.5145 -1.2295  0.1938
13063TIP3    H260605   1.209   1.587   1.444  0.7496 -1.4424  0.2725
13064TIP3   OH260606   4.720   5.448  14.704  0.4198  0.3045 -0.0800
13064TIP3    H160607   4.770   5.369  14.683  2.5100  1.0204  1.8602
13064TIP3    H260608   4.677   5.427  14.788 -0.4091  0.6418 -0.4097
13065TIP3   OH260609   2.016   2.313   2.906  0.4376  0.0336 -0.4080
13065TIP3    H160610   2.039   2.367   2.982 -2.9568 -0.9451  1.5687
13065TIP3    H260611   2.048   2.361   2.831  1.5392  2.4941  1.4951
13066TIP3   OH260612   3.965   1.262   4.296  0.0320  0.2501  0.0646
13066TIP3    H160613   3.936   1.252   4.387 -0.9412  0.9843 -0.1488
13066TIP3    H260614   3.988   1.173   4.269 -0.0142 -0.0311  0.9177
13067TIP3   OH260615   3.440   4.551   3.582  0.3054  0.6388 -0.4247
13067TIP3    H160616   3.461   4.644   3.589 -0.1177  0.7515 -0.6320
13067TIP3    H260617   3.368   4.547   3.519  1.4482  0.0224 -1.7588
13068TIP3   OH260618   4.546   3.673  15.483 -0.3353 -0.3019 -0.2513
13068TIP3    H160619   4.514   3.659  15.394  0.3935 -0.1784 -0.5431
13068TIP3    H260620   4.578   3.587  15.511 -0.3655 -0.2926 -0.1871
13069TIP3   OH260621   1.675   3.604   1.733  0.0370 -0.2175  0.2393
13069TIP3    H160622   1.615   3.587   1.659  0.1031 -2.1146  0.5786
13069TIP3    H260623   1.639   3.683   1.774 -0.2067  0.6979 -1.5827
13070TIP3   OH260624   4.162   6.585  14.946  0.5737 -0.6958 -0.3812
13070TIP3    H160625   4.103   6.558  15.016 -0.1646  0.2757 -0.6039
13070TIP3    H260626   4.108   6.582  14.867  1.1634 -0.9517 -0.7825
13071TIP3   OH260627   5.961   3.943   9.190 -0.7030 -0.2144 -0.7818
13071TIP3    H160628   5.878   3.978   9.157 -1.5248 -1.0088  0.3549
13071TIP3    H260629   5.937   3.898   9.271  1.0511  0.8068  0.3824
13072TIP3   OH260630   1.589   1.797   1.608  0.0102 -0.0526 -0.1846
13072TIP3    H160631   1.618   1.887   1.592  0.7592 -0.3032 -0.2904
13072TIP3    H260632   1.546   1.801   1.693 -1.3174  0.6952 -0.8448
13073TIP3   OH260633   1.019   4.804  14.604  0.0548  0.5235 -0.1426
13073TIP3    H160634   1.086   4.785  14.538  0.2559  0.9306 -0.0635
13073TIP3    H260635   1.062   4.786  14.688  0.1147  0.9190 -0.0861
13074TIP3   OH260636   1.205   1.054   4.462  0.2283 -0.7120 -0.1389
13074TIP3    H160637   1.169   0.998   4.393 -1.6159  0.6427 -0.3709
13074TIP3    H260638   1.287   1.087   4.426 -0.2274 -0.7958 -1.3008
13075TIP3   OH260639   2.281   5.797  11.258 -0.3061 -0.9272  0.4942
13075TIP3    H160640   2.279   5.733  11.187 -0.9603 -1.4125  0.9283
13075TIP3    H260641   2.189   5.823  11.269 -0.0199  0.2448  0.1857
13076TIP3   OH260642   6.833   5.243   1.193  0.0364  0.1367 -0.1602
13076TIP3    H160643   6.896   5.232   1.122  0.4064 -2.3243  0.4727
13076TIP3    H260644   6.846   5.333   1.223  3.3117 -0.2499 -0.0434
13077TIP3   OH260645   4.328   4.877   0.789 -0.1396  0.0551 -0.3601
13077TIP3    H160646   4.281   4.820   0.729  1.4956  0.1885 -1.8673
13077TIP3    H260647   4.420   4.855   0.776  0.3861  1.3530  0.8125
13078TIP3   OH260648   3.749   4.899  12.854 -0.3196  0.1756 -0.6531
13078TIP3    H160649   3.807   4.956  12.905  0.8567 -0.7381 -0.9330
13078TIP3    H260650   3.770   4.918  12.763  0.3685 -0.9487 -0.7520
13079TIP3   OH260651   0.562   6.712   5.558  0.0996  0.6361 -0.1063
13079TIP3    H160652   0.591   6.671   5.639 -1.4153  0.2251  0.2626
13079TIP3    H260653   0.533   6.640   5.503 -2.9960  1.0738  0.7126
13080TIP3   OH260654   1.016   7.079   0.698  0.1873 -0.6563 -0.5954
13080TIP3    H160655   0.991   6.992   0.727 -0.4881 -0.2290  0.1611
13080TIP3    H260656   0.947   7.136   0.732  0.6351  0.1745 -1.0466
13081TIP3   OH260657   6.591   2.826   5.594 -0.0632  0.3366 -0.2008
13081TIP3    H160658   6.600   2.917   5.622 -0.8451  0.6401 -0.8939
13081TIP3    H260659   6.510   2.796   5.637  0.6790 -0.3411  0.7840
13082TIP3   OH260660   5.961   2.837   2.553  0.2972  0.0498 -0.0256
13082TIP3    H160661   5.980   2.790   2.635  1.2012 -0.3575 -0.4484
13082TIP3    H260662   5.916   2.772   2.499 -1.3969  0.6787  0.5612
13083TIP3   OH260663   1.676   4.386  14.370 -0.1816  0.3064  0.0484
13083TIP3    H160664   1.616   4.313  14.385 -2.9017  2.1304 -1.1260
13083TIP3    H260665   1.623   4.452  14.326  1.9788  3.2524  1.5368
13084TIP3   OH260666   4.618   1.960   0.197  0.2497  0.0793  0.0637
13084TIP3    H160667   4.614   1.867   0.220  1.5842  0.6220  2.9399
13084TIP3    H260668   4.548   1.972   0.133 -0.7183 -2.6521  0.4794
13085TIP3   OH260669   6.328   4.363   3.036 -0.4573  0.2759  0.0023
13085TIP3    H160670   6.242   4.358   2.995 -0.0443 -0.1613 -0.8198
13085TIP3    H260671   6.386   4.394   2.967  0.0575  0.5461  0.5449
13086TIP3   OH260672   4.840   5.093   2.339 -0.3681 -0.1854 -0.0408
13086TIP3    H160673   4.887   5.176   2.350 -1.1502  0.5711 -1.9545
13086TIP3    H260674   4.759   5.105   2.387  1.1608 -1.4602  3.1928
13087TIP3   OH260675   4.394   6.501  13.716 -0.1468  0.0023  0.5821
13087TIP3    H160676   4.409   6.571  13.652 -1.7037 -0.1619 -0.0020
13087TIP3    H260677   4.476   6.496  13.765  0.1932  1.8845  0.2998
13088TIP3   OH260678   4.185   6.691   9.802  0.1497 -0.0972  0.2514
13088TIP3    H160679   4.123   6.660   9.736 -0.6723 -2.8987  2.1499
13088TIP3    H260680   4.264   6.639   9.787  0.2683 -0.1129  0.8764
13089TIP3   OH260681   3.455   4.727   2.587 -0.3120 -0.7825 -0.1567
13089TIP3    H160682   3.526   4.664   2.598  1.1224  0.8424  0.3793
13089TIP3    H260683   3.451   4.742   2.492  0.3077 -0.6619 -0.1720
13090TIP3   OH260684   4.255   0.523   5.341 -0.4838 -0.0429 -0.4981
13090TIP3    H160685   4.312   0.567   5.278  2.1673 -1.1824  0.9618
13090TIP3    H260686   4.224   0.593   5.399  1.0620  0.3644 -0.1361
13091TIP3   OH260687   2.153   1.650  12.849 -0.1517 -0.0753  0.1725
13091TIP3    H160688   2.180   1.711  12.918 -0.1534  0.2970 -0.1512
13091TIP3    H260689   2.080   1.695  12.806  0.6152  0.2389 -0.8434
13092TIP3   OH260690   6.128   0.451  11.897 -0.0511  0.0816  0.5667
13092TIP3    H160691   6.055   0.458  11.836  0.1735  1.3789  0.4360
13092TIP3    H260692   6.094   0.397  11.968 -0.8848  0.0307  0.1412
13093TIP3   OH260693   1.285   6.612  13.938 -0.1740 -0.1392 -0.0540
13093TIP3    H160694   1.272   6.702  13.906 -0.2235  0.2822  1.1082
13093TIP3    H260695   1.378   6.610  13.964  0.5818 -1.2509 -2.5208
13094TIP3   OH260696   2.859   6.201   2.629 -0.2466  0.8585  0.3888
13094TIP3    H160697   2.938   6.255   2.623 -1.2769  2.5879  1.6905
13094TIP3    H260698   2.806   6.229   2.554  0.2873 -0.2525 -0.4435
13095TIP3   OH260699   3.327   1.735   0.989  0.6847  0.8421  0.1335
13095TIP3    H160700   3.256   1.791   1.021  0.2115  0.2366  0.1542
13095TIP3    H260701   3.402   1.758   1.044  0.5229  1.5158  0.0815
13096TIP3   OH260702   2.394   5.231   4.580 -0.3063  0.1711 -0.1551
13096TIP3    H160703   2.487   5.249   4.589  0.0849 -1.7348 -0.0943
13096TIP3    H260704   2.356   5.260   4.663  0.8344 -2.4295  1.3640
13097TIP3   OH260705   3.528   6.806  11.691  0.3843 -0.5535 -0.5510
13097TIP3    H160706   3.583   6.750  11.636  1.2930 -1.4438  1.2056
13097TIP3    H260707   3.509   6.752  11.768  1.5541  1.6345  1.3689
13098TIP3   OH260708   7.112   4.426   3.736 -0.4790 -0.4322  0.3404
13098TIP3    H160709   7.036   4.427   3.678 -0.2981 -1.3349  0.0727
13098TIP3    H260710   7.096   4.497   3.798 -0.6993  0.5288 -0.7754
13099TIP3   OH260711   3.698   2.560   2.041  0.1008 -0.3732  0.0591
13099TIP3    H160712   3.642   2.565   2.119  2.5267 -1.4980  2.0123
13099TIP3    H260713   3.720   2.651   2.022 -0.7454 -0.0615  0.4845
13100TIP3   OH260714   3.498   5.532   2.937 -0.4678 -0.5329 -0.0594
13100TIP3    H160715   3.423   5.562   2.988  0.5370  1.0767  0.5451
13100TIP3    H260716   3.543   5.612   2.910  2.0036 -1.3981  1.0829
13101TIP3   OH260717   5.619   4.157   0.817 -0.0439 -0.0097  0.0134
13101TIP3    H160718   5.669   4.228   0.858  0.7921 -1.3804  1.5141
13101TIP3    H260719   5.641   4.163   0.724  0.8767  1.0183  0.2648
13102TIP3   OH260720   4.190   6.424   4.012  0.1516  0.0179 -0.0766
13102TIP3    H160721   4.235   6.504   4.039  2.0427 -0.7381 -0.7511
13102TIP3    H260722   4.190   6.429   3.916 -0.2912 -0.4791 -0.1007
13103TIP3   OH260723   4.748   6.472   2.177  0.3004  0.3018 -0.7854
13103TIP3    H160724   4.685   6.420   2.228  0.0757  0.4427 -0.9175
13103TIP3    H260725   4.800   6.407   2.129  0.1610  0.1905 -0.7852
13104TIP3   OH260726   2.253   6.020   1.772 -0.3538 -0.0532 -0.1908
13104TIP3    H160727   2.300   5.937   1.775 -1.0559 -0.4661 -0.4651
13104TIP3    H260728   2.281   6.067   1.851  0.5707 -0.2541 -0.3847
13105TIP3   OH260729   3.621   0.110   5.144  0.8125 -0.4173 -0.1570
13105TIP3    H160730   3.691   0.125   5.207 -0.4974 -0.7485  1.4369
13105TIP3    H260731   3.640   0.023   5.108  0.0615 -1.5405  1.9505
13106TIP3   OH260732   0.190   5.029  15.068 -0.0040  0.3927 -0.1373
13106TIP3    H160733   0.251   4.988  15.129 -0.5446  0.4937  0.4856
13106TIP3    H260734   0.203   5.123  15.080 -0.6463  0.4254  0.3962
13107TIP3   OH260735   5.144   5.133   6.171 -0.2906  0.2492 -0.1784
13107TIP3    H160736   5.049   5.127   6.172 -0.3058 -1.1734 -2.8496
13107TIP3    H260737   5.175   5.043   6.159  1.4843  0.5180  1.7118
13108TIP3   OH260738   6.760   0.817   2.021  0.1030 -0.2548  0.0133
13108TIP3    H160739   6.783   0.859   1.938 -0.1602  0.8793  0.4962
13108TIP3    H260740   6.681   0.863   2.050 -0.9643 -1.9657 -0.0546
13109TIP3   OH260741   1.427   4.479   0.677 -0.1941  0.1947  0.2251
13109TIP3    H160742   1.470   4.431   0.606 -0.8984  1.0242 -0.8017
13109TIP3    H260743   1.487   4.551   0.697 -0.6390  0.7919 -0.5398
13110TIP3   OH260744   1.625   2.744   2.636 -0.3463 -0.0904  0.1753
13110TIP3    H160745   1.717   2.767   2.648 -0.1353 -1.3102  1.0447
13110TIP3    H260746   1.607   2.766   2.544  1.4861 -2.0406 -0.7242
13111TIP3   OH260747   2.025   4.794  13.386  0.2447 -0.4805 -0.2643
13111TIP3    H160748   2.004   4.785  13.293  0.5459  2.0946 -0.6332
13111TIP3    H260749   2.117   4.820  13.388  0.1438 -0.1285  0.7381
13112TIP3   OH260750   2.483   0.756  11.289 -0.4193  0.0590 -0.6227
13112TIP3    H160751   2.462   0.763  11.382  0.1306 -1.1741 -0.3890
13112TIP3    H260752   2.575   0.778  11.283 -0.3245 -0.3744 -0.7974
13113TIP3   OH260753   0.806   3.350   3.369  0.0377  0.1131  0.1403
13113TIP3    H160754   0.805   3.259   3.337  2.2685  0.1779 -0.2679
13113TIP3    H260755   0.802   3.403   3.290 -0.4099  0.3617  0.3304
13114TIP3   OH260756   4.873   2.644  11.846 -0.2212 -0.6502 -0.1139
13114TIP3    H160757   4.808   2.654  11.915 -1.6631  0.5605 -1.5618
13114TIP3    H260758   4.841   2.573  11.792 -1.1873  0.8572 -1.6316
13115TIP3   OH260759   4.378   4.849  11.492 -0.3603 -0.2973 -0.1689
13115TIP3    H160760   4.417   4.934  11.473  0.2821 -0.6968 -0.6918
13115TIP3    H260761   4.339   4.859  11.579 -2.6410  1.3338 -1.2735
13116TIP3   OH260762   0.463   4.776  14.204  0.3856 -0.0389 -0.0888
13116TIP3    H160763   0.533   4.752  14.265  1.1323  1.4137 -0.3298
13116TIP3    H260764   0.482   4.725  14.125  0.1830 -0.9192  0.4164
13117TIP3   OH260765   5.536   6.282  15.595  0.2063 -0.1772 -0.1742
13117TIP3    H160766   5.528   6.377  15.589  0.6386 -0.1248  0.0192
13117TIP3    H260767   5.516   6.251  15.507 -0.5644  0.0446 -0.0802
13118TIP3   OH260768   0.540   3.182   1.799 -0.3414 -0.2110 -0.4537
13118TIP3    H160769   0.452   3.193   1.834 -0.0054 -1.4996  0.8679
13118TIP3    H260770   0.576   3.271   1.795 -1.0535  0.1476  0.7350
13119TIP3   OH260771   5.657   6.164   5.403  0.2875  0.1080  0.2139
13119TIP3    H160772   5.674   6.256   5.424 -0.2377  0.7890 -2.0861
13119TIP3    H260773   5.711   6.146   5.327 -1.4699 -0.7053 -0.9212
13120TIP3   OH260774   4.692   0.212  14.901 -0.6636 -0.2566  0.3175
13120TIP3    H160775   4.650   0.155  14.965  1.1699 -0.8919  1.0061
13120TIP3    H260776   4.653   0.298  14.917 -0.6841 -0.5316  1.8633
13121TIP3   OH260777   3.973   6.226  14.963 -0.0778 -0.6027  0.3540
13121TIP3    H160778   3.884   6.244  14.995 -0.5892 -0.3170 -1.1706
13121TIP3    H260779   3.961   6.192  14.875  1.3136 -1.1011  0.3349
13122TIP3   OH260780   1.988   4.439  10.600 -0.3672 -0.4439  0.1154
13122TIP3    H160781   2.056   4.375  10.580  1.8133  1.5085  0.7650
13122TIP3    H260782   1.911   4.408  10.553  1.2118 -2.3171 -1.4199
13123TIP3   OH260783   3.861   6.268   1.039  0.0263 -0.8091 -0.4492
13123TIP3    H160784   3.843   6.347   0.988 -0.4420 -0.9747 -0.5451
13123TIP3    H260785   3.782   6.255   1.091  0.7146 -0.3110  0.7693
13124TIP3   OH260786   4.258   4.597   3.437 -0.7217  0.3336 -0.1720
13124TIP3    H160787   4.284   4.684   3.465  1.2579  0.3390 -1.7551
13124TIP3    H260788   4.303   4.584   3.354 -2.0787 -1.6758 -0.6833
13125TIP3   OH260789   0.723   2.375   1.516 -0.4273  0.1320 -0.3221
13125TIP3    H160790   0.675   2.309   1.465 -0.2017 -1.1499  1.0748
13125TIP3    H260791   0.658   2.444   1.531 -0.1549  1.2249 -3.4110
13126TIP3   OH260792   0.012   1.732  11.262 -0.2919 -0.0131  0.1692
13126TIP3    H160793   0.098   1.772  11.258 -0.4922  0.3672 -0.5119
13126TIP3    H260794   0.014   1.664  11.195 -0.3731 -0.3058  0.4592
13127TIP3   OH260795   1.218   0.704   4.652  0.0668  0.3926 -0.1006
13127TIP3    H160796   1.136   0.720   4.606  0.2819  0.2799 -0.5331
13127TIP3    H260797   1.275   0.665   4.585 -0.1483 -1.3202  0.6831
13128TIP3   OH260798   1.909   2.770   3.045 -0.2554 -0.3022 -0.2080
13128TIP3    H160799   1.963   2.770   3.124 -0.3245  0.1173 -0.1557
13128TIP3    H260800   1.954   2.711   2.985  0.3477  0.1509 -0.2175
13129TIP3   OH260801   2.509   0.543  13.627 -0.2145  0.6642  0.4944
13129TIP3    H160802   2.570   0.558  13.555 -1.2294 -0.6104 -0.6735
13129TIP3    H260803   2.479   0.631  13.651  0.1598  1.1212 -0.6158
13130TIP3   OH260804   6.737   5.024  12.466 -0.0604 -0.6796 -0.2072
13130TIP3    H160805   6.676   5.090  12.500 -1.6105 -2.1658  0.0482
13130TIP3    H260806   6.772   5.063  12.386 -2.4440 -0.3061 -1.1459
13131TIP3   OH260807   6.654   2.994   3.061  0.5719 -0.0390 -0.0957
13131TIP3    H160808   6.707   2.977   2.984  1.6376 -1.9528  0.9783
13131TIP3    H260809   6.707   2.963   3.135 -1.7393 -1.5389  1.0921
13132TIP3   OH260810   1.486   2.882   1.804 -0.0495 -1.1692 -0.2406
13132TIP3    H160811   1.428   2.806   1.809 -1.1981 -0.2505  1.2849
13132TIP3    H260812   1.541   2.875   1.882 -0.4163 -0.2796  0.1139
13133TIP3   OH260813   1.352   5.375  10.969  0.3311 -0.5983  0.1850
13133TIP3    H160814   1.432   5.346  10.925  0.1201 -1.0823  0.1171
13133TIP3    H260815   1.305   5.294  10.990  1.2744 -0.5120  2.9758
13134TIP3   OH260816   0.084   6.267   3.771 -0.2328  0.4668 -0.1476
13134TIP3    H160817   0.080   6.196   3.835 -0.4400  1.6212  1.1717
13134TIP3    H260818   0.120   6.341   3.820 -1.9977  1.8822 -0.9011
13135TIP3   OH260819   4.904   2.697   4.078  0.3446 -0.2400  0.3003
13135TIP3    H160820   4.915   2.692   4.173  1.0605  0.1253  0.2408
13135TIP3    H260821   4.967   2.634   4.043  0.6820  0.2359  0.0398
13136TIP3   OH260822   6.464   3.792  14.738  0.3529  0.3776  0.2341
13136TIP3    H160823   6.510   3.794  14.654 -0.2385 -1.5343 -0.1874
13136TIP3    H260824   6.530   3.765  14.801  0.0407 -1.7776 -0.2738
13137TIP3   OH260825   1.553   0.949   5.114 -0.0821  0.4138  0.2374
13137TIP3    H160826   1.648   0.948   5.128 -0.1225  2.5388  0.9699
13137TIP3    H260827   1.534   1.037   5.082 -1.8865  0.2003  0.6085
13138TIP3   OH260828   0.407   3.532  11.921  0.7841 -0.7240  0.3355
13138TIP3    H160829   0.485   3.568  11.878  0.3945  0.3584  0.5019
13138TIP3    H260830   0.369   3.473  11.856  0.2860  0.7707 -0.7936
13139TIP3   OH260831   3.447   0.152  15.018  0.1237  0.6779 -0.3783
13139TIP3    H160832   3.411   0.063  15.015  0.1329  0.6689 -3.3237
13139TIP3    H260833   3.541   0.139  15.033  0.0082  0.2686  0.0380
13140TIP3   OH260834   0.142   5.806   0.761 -0.1131  0.6041  0.2859
13140TIP3    H160835   0.110   5.716   0.771  1.0413  0.0199 -1.0081
13140TIP3    H260836   0.203   5.818   0.834  0.0520  0.1868  0.2199
13141TIP3   OH260837   1.373   1.394   0.861  0.0992  0.1565 -0.1470
13141TIP3    H160838   1.353   1.301   0.846  1.6351 -0.9420  3.4934
13141TIP3    H260839   1.291   1.430   0.896 -0.1589 -0.1413 -0.4332
13142TIP3   OH260840   4.995   3.485   0.521  0.1103  0.2307 -0.3137
13142TIP3    H160841   4.923   3.524   0.571 -0.2753  0.3754 -0.9575
13142TIP3    H260842   4.951   3.435   0.451  0.6371  0.4328 -0.7975
13143TIP3   OH260843   2.907   5.166  12.076  0.5951 -0.1820 -0.0433
13143TIP3    H160844   2.967   5.239  12.091  1.2484 -0.1268 -2.5146
13143TIP3    H260845   2.821   5.208  12.068  0.8971  0.3036 -0.9720
13144TIP3   OH260846   2.686   5.252   3.168  0.0479 -0.0414 -0.7961
13144TIP3    H160847   2.628   5.289   3.101 -2.0087  0.3594  1.0748
13144TIP3    H260848   2.629   5.195   3.219  1.0682  1.0040  1.6467
13145TIP3   OH260849   6.134   4.315   0.807  0.1598 -0.0656  0.2534
13145TIP3    H160850   6.118   4.248   0.741  0.9578  1.4255 -1.5476
13145TIP3    H260851   6.053   4.318   0.859 -0.3919 -1.4459 -0.4897
13146TIP3   OH260852   1.350   1.227   0.433  0.0263  0.5271  0.6135
13146TIP3    H160853   1.432   1.187   0.402 -1.2570  0.0352 -2.5204
13146TIP3    H260854   1.315   1.164   0.496  0.1734 -1.2339 -0.9897
13147TIP3   OH260855   0.540   1.700  13.119 -0.3932 -0.8663  0.4640
13147TIP3    H160856   0.508   1.781  13.158  0.8507 -0.6676  1.1250
13147TIP3    H260857   0.625   1.685  13.161 -0.4820 -2.3755  0.1632
13148TIP3   OH260858   4.986   1.201  11.335 -0.3054 -0.4883  0.1639
13148TIP3    H160859   5.067   1.151  11.349  0.0529 -0.3333 -1.2308
13148TIP3    H260860   5.013   1.292  11.344 -0.3552 -0.4442 -0.1311
13149TIP3   OH260861   4.255   1.788  10.285 -0.2828 -0.2173 -0.0038
13149TIP3    H160862   4.238   1.791  10.191 -0.7635 -0.3341  0.0778
13149TIP3    H260863   4.291   1.874  10.306  2.8958 -1.2026 -0.8653
13150TIP3   OH260864   1.250   2.092  15.072 -0.3570 -0.1631  0.6146
13150TIP3    H160865   1.307   2.047  15.009 -1.0630  0.5318 -0.5678
13150TIP3    H260866   1.292   2.177  15.084  0.0863 -0.4958  1.5722
13151TIP3   OH260867   6.119   5.569  10.255  0.1851  0.2803 -0.3469
13151TIP3    H160868   6.071   5.642  10.216 -0.7935 -0.3788 -0.4284
13151TIP3    H260869   6.059   5.533  10.320  0.5398 -0.6060 -0.4918
13152TIP3   OH260870   5.036   1.318  11.703 -0.1704 -0.4518 -0.3859
13152TIP3    H160871   5.006   1.236  11.663  0.7825 -0.5587 -0.9167
13152TIP3    H260872   5.111   1.344  11.650  0.7472 -0.2632  0.9596
13153TIP3   OH260873   0.467   4.351  12.351 -0.0004 -0.1233 -0.0208
13153TIP3    H160874   0.545   4.402  12.331 -1.1053  1.3022 -0.8758
13153TIP3    H260875   0.395   4.403  12.317 -1.3392 -1.4046  0.7397
13154TIP3   OH260876   4.937   3.744   0.389  0.6289 -0.7790 -0.4235
13154TIP3    H160877   4.980   3.663   0.414 -1.5818 -1.6073  1.0327
13154TIP3    H260878   4.921   3.789   0.472 -0.0631  0.1093 -1.0250
13155TIP3   OH260879   4.672   3.123  14.551  0.2552  0.4387 -0.0187
13155TIP3    H160880   4.674   3.160  14.462 -0.8353 -0.7114 -0.5448
13155TIP3    H260881   4.763   3.129  14.580  0.8092  0.0768 -1.5453
13156TIP3   OH260882   6.088   6.242  10.338 -0.2726 -0.5878 -0.1607
13156TIP3    H160883   5.998   6.214  10.354 -0.2002  0.2182  2.1284
13156TIP3    H260884   6.103   6.225  10.245 -2.5967 -1.2401 -0.4793
13157TIP3   OH260885   0.505   5.501   4.626 -0.5718 -0.4579  0.2730
13157TIP3    H160886   0.529   5.580   4.675 -0.0706 -1.2715  1.4057
13157TIP3    H260887   0.410   5.494   4.636 -0.3339 -1.4297  2.5317
13158TIP3   OH260888   7.039   6.291   2.970  0.1810 -0.1271 -0.4505
13158TIP3    H160889   7.053   6.380   3.003  1.0271  0.5078 -2.3954
13158TIP3    H260890   6.971   6.301   2.903  2.4384 -0.3385 -2.9132
13159TIP3   OH260891   3.508   5.551  13.009  0.3333 -0.5242  0.2751
13159TIP3    H160892   3.479   5.618  13.070  0.8648 -0.5473  0.5534
13159TIP3    H260893   3.430   5.496  12.995  0.0263 -0.1234  0.4016
13160TIP3   OH260894   3.250   3.632  12.839 -0.3655  0.2191  0.1117
13160TIP3    H160895   3.325   3.633  12.898 -0.2908 -0.6553  0.0497
13160TIP3    H260896   3.287   3.636  12.751 -0.2178 -2.1994 -0.0189
13161TIP3   OH260897   1.084   1.337   5.019  0.5170  0.2126 -0.5218
13161TIP3    H160898   1.151   1.272   4.999  0.7428  0.6254 -1.1635
13161TIP3    H260899   1.032   1.343   4.938 -0.8906 -0.7810  0.2691
13162TIP3   OH260900   2.531   0.979   4.555  0.3522 -0.2589  0.3597
13162TIP3    H160901   2.570   0.914   4.496 -2.0252 -0.6615 -0.9102
13162TIP3    H260902   2.486   0.926   4.621  0.1137  0.1323  0.5096
13163TIP3   OH260903   1.722   5.822   3.001 -0.0229  0.1339 -0.2557
13163TIP3    H160904   1.801   5.861   2.963  0.0467 -1.1304 -1.5105
13163TIP3    H260905   1.668   5.799   2.926 -1.2550  0.2858  0.5648
13164TIP3   OH260906   2.532   1.989  14.002 -0.3463  0.1769  0.2303
13164TIP3    H160907   2.594   1.950  13.940  0.8417  0.1131  1.3985
13164TIP3    H260908   2.563   2.079  14.013 -1.0550  0.4409  0.0955
13165TIP3   OH260909   3.044   4.638  13.210 -0.0921  0.0961  0.3707
13165TIP3    H160910   3.065   4.583  13.134 -0.7707  0.1315  0.1497
13165TIP3    H260911   3.053   4.579  13.285 -2.6260 -0.8954  0.0077
13166TIP3   OH260912   6.224   2.480  11.209 -0.0771 -0.2220 -0.1062
13166TIP3    H160913   6.268   2.550  11.161 -2.7907  0.0776 -2.3719
13166TIP3    H260914   6.144   2.521  11.243 -1.8205 -2.1858 -1.6491
13167TIP3   OH260915   6.775   4.275  10.372 -0.1173 -0.3451 -0.5388
13167TIP3    H160916   6.833   4.201  10.352  0.7493 -0.1846  1.1544
13167TIP3    H260917   6.813   4.349  10.325  1.2594 -0.1940  0.7059
13168TIP3   OH260918   3.829   6.426  13.488 -0.0815  0.0842 -0.5563
13168TIP3    H160919   3.743   6.417  13.530  0.8583 -0.1591  1.4248
13168TIP3    H260920   3.814   6.486  13.416 -1.5465  1.6639  0.9745
13169TIP3   OH260921   2.155   3.884   4.397  0.2361  0.0595 -0.0087
13169TIP3    H160922   2.077   3.835   4.369  0.6102 -0.0700 -0.8519
13169TIP3    H260923   2.130   3.924   4.480 -0.7765  0.1326 -0.3399
13170TIP3   OH260924   2.840   4.922   0.813  0.0694  0.5114  0.4654
13170TIP3    H160925   2.934   4.904   0.810  0.1754  1.1794 -0.7348
13170TIP3    H260926   2.814   4.933   0.722 -1.5108 -1.2523  0.6330
13171TIP3   OH260927   6.765   1.374  13.380  0.1296  0.7633 -0.7939
13171TIP3    H160928   6.805   1.391  13.465 -0.6359  2.0203 -0.6491
13171TIP3    H260929   6.829   1.407  13.317  0.4395  0.3810 -0.6800
13172TIP3   OH260930   5.084   5.655   1.627  0.3184 -0.7594  0.5969
13172TIP3    H160931   5.178   5.674   1.616  0.2130  0.2793  1.3752
13172TIP3    H260932   5.040   5.737   1.605 -0.3393 -0.9120  1.3158
13173TIP3   OH260933   6.748   1.240  12.598  0.2513 -0.4265  0.3394
13173TIP3    H160934   6.812   1.297  12.553  0.3330 -1.9122 -1.5414
13173TIP3    H260935   6.719   1.292  12.673 -0.1739  2.4131 -1.6106
13174TIP3   OH260936   0.756   6.414   3.016  0.2121 -0.1887 -0.5166
13174TIP3    H160937   0.805   6.382   2.941 -0.3484  0.3737 -1.1368
13174TIP3    H260938   0.681   6.354   3.024  0.5600 -0.5700 -0.0657
13175TIP3   OH260939   3.134   3.579  14.146  0.1009 -0.3780 -0.0240
13175TIP3    H160940   3.040   3.597  14.150 -0.3139 -2.0192 -1.1054
13175TIP3    H260941   3.145   3.497  14.193  1.1218  0.1402  0.6757
13176TIP3   OH260942   4.751   4.690  10.528  0.0225 -0.2458  0.0867
13176TIP3    H160943   4.667   4.715  10.567  0.3036 -1.6617  1.6641
13176TIP3    H260944   4.815   4.746  10.571 -0.0405  0.6867 -0.9682
13177TIP3   OH260945   5.738   3.005  12.269  0.1455 -0.0143 -0.1974
13177TIP3    H160946   5.790   2.959  12.203  0.4535  1.2073 -0.8468
13177TIP3    H260947   5.650   3.012  12.230 -0.2157 -1.0674  0.4042
13178TIP3   OH260948   4.680   6.294   0.787 -0.5505  0.9474  0.1497
13178TIP3    H160949   4.713   6.251   0.866 -0.6274 -0.9654 -0.7991
13178TIP3    H260950   4.646   6.222   0.733  0.2255  2.0791 -1.9634
13179TIP3   OH260951   2.096   0.712   5.234  0.7236 -0.7900  0.4379
13179TIP3    H160952   2.137   0.655   5.299  0.9301 -2.0949 -0.7999
13179TIP3    H260953   2.157   0.713   5.161  0.1739  0.1059 -0.0257
13180TIP3   OH260954   3.238   5.314   1.427 -0.1899 -0.7097 -0.1575
13180TIP3    H160955   3.177   5.380   1.393 -1.7700 -1.2395  1.4738
13180TIP3    H260956   3.271   5.269   1.349 -1.6687 -0.1804 -1.1328
13181TIP3   OH260957   3.761   6.875   3.505  0.4579  0.3707 -0.2331
13181TIP3    H160958   3.745   6.914   3.591 -1.6386  0.3564 -0.5623
13181TIP3    H260959   3.721   6.788   3.510  1.4419 -0.1302 -0.8264
13182TIP3   OH260960   4.285   0.303   2.872 -0.1946  0.4906  0.3396
13182TIP3    H160961   4.321   0.361   2.939 -0.7852 -0.2896  1.3679
13182TIP3    H260962   4.344   0.227   2.871 -0.6499  0.1234  0.5913
13183TIP3   OH260963   6.132   6.781   5.172 -0.4538  0.3843 -0.6464
13183TIP3    H160964   6.091   6.771   5.258  0.3715 -1.0135 -0.4004
13183TIP3    H260965   6.082   6.723   5.115  0.6529 -0.7266 -0.5161
13184TIP3   OH260966   6.802   0.931   4.560 -0.1073  0.1195  0.2101
13184TIP3    H160967   6.727   0.967   4.607 -0.4629  0.4050 -0.5731
13184TIP3    H260968   6.769   0.909   4.473  0.5207 -0.5136  0.1198
13185TIP3   OH260969   4.555   1.479  14.593  0.0697 -0.3429 -0.3488
13185TIP3    H160970   4.544   1.562  14.546 -1.6592 -0.4218 -0.1662
13185TIP3    H260971   4.603   1.502  14.672 -0.6580  0.5665 -0.1514
13186TIP3   OH260972   0.934   6.650  13.595 -0.1868 -0.3366 -0.4237
13186TIP3    H160973   0.868   6.581  13.603 -0.8965  0.4356  0.6836
13186TIP3    H260974   1.012   6.613  13.637 -1.1330  0.1975  1.9547
13187TIP3   OH260975   3.475   3.892   3.052 -0.1827  0.6593 -0.6529
13187TIP3    H160976   3.383   3.871   3.063 -0.0957  0.5351 -0.1442
13187TIP3    H260977   3.499   3.941   3.131  0.6421 -0.9223  0.1276
13188TIP3   OH260978   0.959   4.107  15.353  0.3189  0.0044  0.1078
13188TIP3    H160979   1.021   4.083  15.422  0.5021 -0.0107 -0.0619
13188TIP3    H260980   0.982   4.196  15.329  1.0166 -0.3918 -0.7495
13189TIP3   OH260981   3.605   0.701   0.965  0.2664  0.3047  0.1867
13189TIP3    H160982   3.549   0.734   1.036  0.0821 -1.4472  0.9072
13189TIP3    H260983   3.685   0.673   1.009  0.3625 -0.3115 -0.3749
13190TIP3   OH260984   2.500   5.137   0.109 -0.0985 -0.2096 -0.3006
13190TIP3    H160985   2.533   5.083   0.181 -0.4618  1.2481  1.0105
13190TIP3    H260986   2.577   5.182   0.076 -0.0548 -0.2454 -0.2484
13191TIP3   OH260987   4.055   6.519   4.820 -0.3486  0.8423  0.3194
13191TIP3    H160988   4.090   6.429   4.822  1.3623  1.4718  0.7386
13191TIP3    H260989   4.078   6.555   4.906  0.0835  2.0570 -0.2848
13192TIP3   OH260990   2.432   1.282  12.717 -0.0593 -0.0234 -0.6159
13192TIP3    H160991   2.525   1.307  12.718  0.4175 -1.6947 -0.8972
13192TIP3    H260992   2.392   1.340  12.782  1.0086  1.3124 -1.0860
13193TIP3   OH260993   4.858   3.858   0.626  0.2960  0.1039 -0.5903
13193TIP3    H160994   4.789   3.862   0.693  0.5263  1.2909 -0.3981
13193TIP3    H260995   4.827   3.916   0.556  0.6447 -0.1355 -0.9469
13194TIP3   OH260996   6.409   2.199  10.240 -0.1363  0.0269  0.6319
13194TIP3    H160997   6.401   2.141  10.165 -0.3945  0.4936  0.2873
13194TIP3    H260998   6.355   2.275  10.216  0.2921  0.4549  1.0186
13195TIP3   OH260999   2.494   2.961   5.405  0.0543 -0.4907  0.0727
13195TIP3    H161000   2.537   2.885   5.445 -0.2586 -1.0430 -0.6268
13195TIP3    H261001   2.465   3.013   5.480  0.9433 -0.6684  0.5607
13196TIP3   OH261002   1.259   5.959  11.984 -0.1312 -0.3776  0.0998
13196TIP3    H161003   1.239   5.960  12.077 -1.3809 -2.3289 -0.0830
13196TIP3    H261004   1.174   5.945  11.941  0.4725  0.0657 -1.3197
13197TIP3   OH261005   5.486   6.573   1.201 -0.3396 -0.1717  0.1142
13197TIP3    H161006   5.496   6.656   1.247 -0.6677 -0.8377  1.4171
13197TIP3    H261007   5.575   6.543   1.186 -0.2307  0.1281  0.1473
13198TIP3   OH261008   3.485   3.739   4.863  0.0960  1.0539  0.6426
13198TIP3    H161009   3.578   3.757   4.854  0.1403  0.6489  0.2976
13198TIP3    H261010   3.469   3.664   4.806  0.0772 -0.5810  2.6720
13199TIP3   OH261011   2.502   4.918   4.130 -0.3890 -0.5890  0.2741
13199TIP3    H161012   2.530   4.987   4.191 -1.0776  0.2705 -0.3552
13199TIP3    H261013   2.410   4.939   4.111  0.0043 -0.4241 -1.5960
13200TIP3   OH261014   3.830   5.510   2.490 -0.1445 -0.7019 -0.6986
13200TIP3    H161015   3.872   5.586   2.449  0.1110  0.4916  1.6059
13200TIP3    H261016   3.793   5.460   2.417  1.4912  0.5161 -2.4592
13201TIP3   OH261017   4.760   3.361  11.611 -0.2911  0.5579 -0.2257
13201TIP3    H161018   4.776   3.370  11.517 -1.1192  1.7243 -0.2749
13201TIP3    H261019   4.681   3.308  11.616 -0.5328  0.9225 -0.1995
13202TIP3   OH261020   5.882   2.305   1.551  0.2430 -0.2877  0.4881
13202TIP3    H161021   5.905   2.326   1.461 -2.8712  0.5984 -0.2195
13202TIP3    H261022   5.832   2.224   1.545 -0.5131  0.0932  1.3105
13203TIP3   OH261023   5.358   4.761  14.420  0.1391 -0.3949 -0.2183
13203TIP3    H161024   5.367   4.686  14.477  0.1510 -0.5443 -0.4140
13203TIP3    H261025   5.443   4.769  14.377  0.0566 -0.4271 -0.3891
13204TIP3   OH261026   6.116   2.987   2.379  0.0016 -0.3176 -0.0695
13204TIP3    H161027   6.043   3.038   2.343  0.7939  0.5482 -0.4903
13204TIP3    H261028   6.074   2.919   2.431 -1.1081  1.0163  0.8568
13205TIP3   OH261029   2.977   1.339   4.962 -0.1156  0.3183  0.2321
13205TIP3    H161030   2.916   1.326   4.889 -0.7198  0.1264  0.7579
13205TIP3    H261031   3.048   1.278   4.946  0.1636  0.8473 -0.6236
13206TIP3   OH261032   4.148   1.503   3.584 -0.0060  0.3870 -0.4111
13206TIP3    H161033   4.174   1.482   3.674  0.5482  0.9583 -0.4326
13206TIP3    H261034   4.052   1.505   3.586 -0.1429 -2.2705 -0.4324
13207TIP3   OH261035   6.561   3.053   9.456 -0.2745 -0.4754 -0.2878
13207TIP3    H161036   6.630   3.027   9.517  0.5261  0.6975 -0.6704
13207TIP3    H261037   6.503   2.977   9.453  0.6539 -1.2531  0.5184
13208TIP3   OH261038   4.120   6.304  13.854  0.0061 -0.2279 -0.2096
13208TIP3    H161039   4.204   6.269  13.825  0.2545  0.6887 -0.6374
13208TIP3    H261040   4.083   6.346  13.776 -0.5091  0.0145  0.1558
13209TIP3   OH261041   3.741   4.233  12.639  0.2517  0.0783  0.5547
13209TIP3    H161042   3.714   4.311  12.590  0.9356  0.9447  1.5177
13209TIP3    H261043   3.793   4.183  12.576 -0.0631  0.4716 -0.0343
13210TIP3   OH261044   0.473   3.158   3.299 -0.4081  0.1040  0.0286
13210TIP3    H161045   0.475   3.063   3.308 -1.5861 -0.0503 -0.9711
13210TIP3    H261046   0.562   3.181   3.275  0.2413 -0.5638  1.6642
13211TIP3   OH261047   1.506   0.119  13.592 -0.3616 -0.2603  0.6893
13211TIP3    H161048   1.468   0.207  13.596 -0.3371 -0.1652 -0.7021
13211TIP3    H261049   1.436   0.064  13.557  0.1231 -0.4739  0.0308
13212TIP3   OH261050   0.582   5.384   5.916  0.2375  0.4804  0.4128
13212TIP3    H161051   0.573   5.419   6.005  1.5123  1.4619  0.1828
13212TIP3    H261052   0.551   5.455   5.859 -1.5990 -0.5312  0.0625
13213TIP3   OH261053   1.293   0.353   5.209 -0.1895 -0.0504 -0.0221
13213TIP3    H161054   1.332   0.303   5.138 -0.6384  0.1587 -0.4193
13213TIP3    H261055   1.305   0.299   5.287 -0.5062 -0.6898 -0.4143
13214TIP3   OH261056   2.967   6.483  12.551  0.3052  0.5700 -0.1973
13214TIP3    H161057   2.899   6.502  12.616 -0.5304 -0.2317 -0.8179
13214TIP3    H261058   3.010   6.567  12.538  1.4823  0.4978  2.4436
13215TIP3   OH261059   5.437   1.610  15.137  0.5474  0.6943 -0.6439
13215TIP3    H161060   5.377   1.631  15.065 -1.7706  1.4114  1.3612
13215TIP3    H261061   5.525   1.623  15.100 -0.5602  3.1186 -2.7277
13216TIP3   OH261062   2.113   1.828   1.499 -0.5030  0.2203  0.2516
13216TIP3    H161063   2.197   1.837   1.455  0.4072  0.8268  1.9914
13216TIP3    H261064   2.058   1.780   1.437  0.9532  0.2545 -1.1351
13217TIP3   OH261065   1.284   4.657   5.242  0.3692  0.0186 -0.2624
13217TIP3    H161066   1.360   4.633   5.190  0.3452 -0.4515 -0.0848
13217TIP3    H261067   1.233   4.576   5.248  0.5171 -0.0104  0.7302
13218TIP3   OH261068   3.355   6.770  10.771  0.1663 -0.0857 -0.2468
13218TIP3    H161069   3.369   6.811  10.685  0.0900  0.2115 -0.1182
13218TIP3    H261070   3.325   6.841  10.827  1.1959 -0.0653  0.2978
13219TIP3   OH261071   1.213   5.001   2.598 -0.0317 -0.2434 -0.7083
13219TIP3    H161072   1.220   4.987   2.504 -0.9856  1.3663 -1.0483
13219TIP3    H261073   1.169   5.085   2.607  0.8768  0.0907  1.1814
13220TIP3   OH261074   4.312   1.651   2.230  0.3454 -0.2864  0.1677
13220TIP3    H161075   4.284   1.742   2.244 -0.5199 -0.5955  0.4651
13220TIP3    H261076   4.351   1.652   2.143  2.8573  0.9592  1.1835
13221TIP3   OH261077   3.979   1.043  15.635  0.0537  0.7000  0.4542
13221TIP3    H161078   3.999   0.950  15.642  0.5547  0.5608 -1.9010
13221TIP3    H261079   3.911   1.058  15.700 -0.9242 -1.5927  0.0558
13222TIP3   OH261080   2.060   3.181  12.729  0.1343  0.6601  0.1613
13222TIP3    H161081   2.004   3.230  12.669  0.5007  2.9137  1.5141
13222TIP3    H261082   2.145   3.225  12.724  1.0936 -1.0919  0.0405
13223TIP3   OH261083   3.414   3.498  10.971 -0.2981  0.8127 -0.1255
13223TIP3    H161084   3.349   3.452  11.023 -0.8191  0.8656 -0.7110
13223TIP3    H261085   3.388   3.481  10.880  1.0569  0.0245 -0.4015
13224TIP3   OH261086   3.755   1.551   3.566  0.7931  0.0652 -0.9127
13224TIP3    H161087   3.753   1.592   3.653 -2.2619  0.3850 -1.0521
13224TIP3    H261088   3.823   1.600   3.519 -0.0541  2.4452  0.1656
13225TIP3   OH261089   1.682   4.729  14.097  0.3602  0.2089 -0.2486
13225TIP3    H161090   1.769   4.758  14.125  0.5040 -0.1477 -0.3144
13225TIP3    H261091   1.678   4.751  14.004  0.4833 -0.0074 -0.3067
13226TIP3   OH261092   3.066   2.123   2.365  0.1164 -0.1501  0.3654
13226TIP3    H161093   3.146   2.116   2.416 -1.2796  1.6772  3.0664
13226TIP3    H261094   2.996   2.130   2.430 -1.6705  4.2648 -1.5861
13227TIP3   OH261095   0.938   0.738   0.964 -0.0124  0.4669  0.1789
13227TIP3    H161096   0.881   0.756   1.039 -1.4008 -0.8516 -0.5054
13227TIP3    H261097   0.924   0.646   0.945  0.6837  0.6547 -1.4136
13228TIP3   OH261098   4.428   3.813  11.175  0.0295 -0.3045 -0.3497
13228TIP3    H161099   4.496   3.866  11.217  0.1162  0.4797 -1.4367
13228TIP3    H261100   4.408   3.860  11.094 -0.2484 -1.6720 -1.1046
13229TIP3   OH261101   0.997   3.712   2.945  0.2535 -0.2506  0.9034
13229TIP3    H161102   0.914   3.745   2.911 -0.7285 -2.3720  1.1446
13229TIP3    H261103   0.985   3.707   3.040  1.0802  0.4935  1.0634
13230TIP3   OH261104   4.424   0.806   2.285 -0.2362 -0.8340 -0.2136
13230TIP3    H161105   4.341   0.791   2.331  0.5486 -1.7852  0.9421
13230TIP3    H261106   4.435   0.901   2.286 -1.6525 -0.6162 -1.0573
13231TIP3   OH261107   6.814   6.731   2.798  0.2538  0.0084  0.0506
13231TIP3    H161108   6.816   6.667   2.869  1.4739 -2.5561 -2.1346
13231TIP3    H261109   6.901   6.771   2.799  0.2054  0.1118  0.1206
13232TIP3   OH261110   3.015   4.356   2.817 -0.4248  0.2462  1.1391
13232TIP3    H161111   2.988   4.286   2.877  0.1248 -0.9801  0.0202
13232TIP3    H261112   3.100   4.327   2.784 -0.9159  0.6238 -0.5698
13233TIP3   OH261113   2.278   4.438  14.712 -0.1005  0.4709  0.2165
13233TIP3    H161114   2.293   4.460  14.804 -1.9586  1.2911  0.3705
13233TIP3    H261115   2.257   4.521  14.670 -0.9458 -0.1106 -0.5675
13234TIP3   OH261116   1.204   2.141   3.031  0.0356  0.4219 -0.0757
13234TIP3    H161117   1.286   2.151   3.079  0.3053 -0.2422 -0.3891
13234TIP3    H261118   1.136   2.141   3.099  0.1794  2.1014  0.1130
13235TIP3   OH261119   2.338   3.074   3.979  0.1565  0.5721  0.3198
13235TIP3    H161120   2.433   3.080   3.977  0.1093  2.6644  1.5197
13235TIP3    H261121   2.312   3.072   3.886  1.3389  0.4453 -0.0229
13236TIP3   OH261122   0.562   6.035  11.054  0.3170  0.5239  0.3540
13236TIP3    H161123   0.631   6.049  11.119 -0.1615  0.1615  0.9469
13236TIP3    H261124   0.608   6.035  10.970  1.4632 -2.1530  0.8566
13237TIP3   OH261125   6.866   5.184  15.271  0.2232  0.2727 -0.0938
13237TIP3    H161126   6.838   5.124  15.340  1.6468  1.3494  1.5057
13237TIP3    H261127   6.803   5.257  15.277  1.0694  0.9536  0.9813
13238TIP3   OH261128   5.478   0.786   2.870 -0.0656 -0.5274 -0.1429
13238TIP3    H161129   5.501   0.743   2.787  1.2485  2.1147 -1.2898
13238TIP3    H261130   5.544   0.755   2.932  2.0159  1.0773 -1.4233
13239TIP3   OH261131   4.549   5.035  14.048 -0.2096 -0.7087 -0.5102
13239TIP3    H161132   4.507   5.018  14.132 -1.3699  0.8792 -0.7233
13239TIP3    H261133   4.643   5.041  14.068 -0.4768 -0.3219  0.6673
13240TIP3   OH261134   1.814   5.292   5.513  0.2045  0.0470  0.2964
13240TIP3    H161135   1.865   5.211   5.511 -1.3723 -0.9564 -0.0317
13240TIP3    H261136   1.850   5.340   5.588  0.4225 -1.4373  1.1794
13241TIP3   OH261137   0.587   3.197   3.554  0.2256  0.0346 -0.2896
13241TIP3    H161138   0.623   3.277   3.516 -2.4862  1.3012 -0.3528
13241TIP3    H261139   0.501   3.187   3.515 -0.1116 -2.1352  0.8352
13242TIP3   OH261140   5.205   1.920  15.491 -0.2644  0.1077  0.0734
13242TIP3    H161141   5.215   1.831  15.456  1.0775  0.0141  0.6088
13242TIP3    H261142   5.111   1.935  15.493 -0.5846 -1.8098  1.2046
13243TIP3   OH261143   3.385   6.471  13.954 -0.4550  0.3794  0.2413
13243TIP3    H161144   3.411   6.381  13.932 -1.4162  0.3955 -1.0699
13243TIP3    H261145   3.376   6.470  14.049  1.7355 -0.3022  0.4977
13244TIP3   OH261146   1.457   4.706   3.876 -0.3384  0.2430  0.5878
13244TIP3    H161147   1.422   4.776   3.821  0.4087 -0.4420 -0.7996
13244TIP3    H261148   1.401   4.631   3.859 -0.2619  0.0934  0.9741
13245TIP3   OH261149   4.349   7.038  14.925  0.7813  0.7300 -0.8388
13245TIP3    H161150   4.273   7.074  14.970  0.1609 -2.0334  0.4940
13245TIP3    H261151   4.331   7.053  14.832 -0.9609  0.9571 -0.4933
13246TIP3   OH261152   6.438   1.357   4.650  0.2569  0.1782 -0.1894
13246TIP3    H161153   6.431   1.388   4.740 -0.7048 -1.9653  0.5212
13246TIP3    H261154   6.405   1.430   4.597 -0.6696  0.8886  1.3064
13247TIP3   OH261155   2.507   0.677   4.466  0.3556 -0.3818  0.1507
13247TIP3    H161156   2.430   0.679   4.523  0.4546 -0.3790  0.2863
13247TIP3    H261157   2.496   0.599   4.413 -0.3012  0.2164 -0.6138
13248TIP3   OH261158   5.937   4.393   2.008 -0.1677  0.3826  0.1590
13248TIP3    H161159   5.954   4.408   2.101  2.2116 -2.1609  0.2655
13248TIP3    H261160   5.870   4.325   2.006  0.4833 -0.2806  0.1026
13249TIP3   OH261161   2.102   4.180   4.040  0.4447  0.2722 -0.5287
13249TIP3    H161162   2.045   4.252   4.065  2.4104  2.4158 -1.8023
13249TIP3    H261163   2.049   4.127   3.981 -1.5062 -0.2001  1.5069
13250TIP3   OH261164   1.404   6.364   3.008  0.0246 -0.0925 -0.4352
13250TIP3    H161165   1.339   6.377   2.939  0.3768  1.5488 -0.4900
13250TIP3    H261166   1.371   6.288   3.057 -1.5035  0.1992 -0.9487
13251TIP3   OH261167   0.393   2.283  10.258 -0.4066  0.4901  0.2204
13251TIP3    H161168   0.407   2.279  10.163 -1.5598  1.6657 -0.0213
13251TIP3    H261169   0.480   2.268  10.295 -0.3158 -2.4485 -0.9219
13252TIP3   OH261170   5.115   5.480   2.475 -0.4106  0.5218  0.0710
13252TIP3    H161171   5.086   5.571   2.476  1.3120  1.1208 -1.1278
13252TIP3    H261172   5.204   5.483   2.510 -0.0202 -0.5771 -0.7890
13253TIP3   OH261173   5.245   3.969  12.157 -0.5762 -0.5634 -0.4095
13253TIP3    H161174   5.308   4.039  12.178 -1.0883  0.4604 -2.1038
13253TIP3    H261175   5.171   4.015  12.118 -1.2218 -2.0031 -0.9241
13254TIP3   OH261176   1.266   0.668   1.578  0.2143  0.0830 -0.1189
13254TIP3    H161177   1.186   0.615   1.580  0.1604  0.1925  0.8684
13254TIP3    H261178   1.293   0.666   1.486 -0.2400 -0.9773 -0.2473
13255TIP3   OH261179   4.919   3.076   0.508  0.0079  0.5837 -0.4186
13255TIP3    H161180   4.876   3.144   0.457 -0.4331 -0.3910 -1.3973
13255TIP3    H261181   4.872   2.996   0.485 -0.1162  0.0795  1.4277
13256TIP3   OH261182   5.775   6.650  11.364 -0.4941  0.3626  0.0225
13256TIP3    H161183   5.788   6.743  11.344  0.7157  0.5299  1.4105
13256TIP3    H261184   5.774   6.608  11.278 -2.5899  1.7860 -0.7231
13257TIP3   OH261185   3.631   1.241  13.311  0.8489  0.3452  0.1930
13257TIP3    H161186   3.538   1.220  13.316  0.7337  0.9764  0.9699
13257TIP3    H261187   3.633   1.334  13.287  1.3236 -0.2723 -2.4728
13258TIP3   OH261188   2.419   0.517   1.735 -0.3819  0.6702 -0.6706
13258TIP3    H161189   2.453   0.506   1.824 -2.5419 -0.0076  0.1538
13258TIP3    H261190   2.368   0.598   1.739  0.0990  1.0249 -1.5107
13259TIP3   OH261191   6.977   0.895   3.985 -0.4389 -0.0911  0.4117
13259TIP3    H161192   6.969   0.976   4.035 -0.0384  0.3218 -0.1813
13259TIP3    H261193   6.992   0.827   4.051  1.1225  0.5883  0.7851
13260TIP3   OH261194   1.642   6.803   3.067 -0.3211  0.0598 -0.4359
13260TIP3    H161195   1.675   6.731   3.014 -0.2554 -2.2432  2.4412
13260TIP3    H261196   1.684   6.881   3.032  2.2548 -1.7528 -1.6454
13261TIP3   OH261197   0.616   5.741   1.421  0.5286  0.4595 -0.1758
13261TIP3    H161198   0.670   5.817   1.445  0.7598  0.2143  0.0935
13261TIP3    H261199   0.638   5.675   1.487 -1.4761  0.9678  1.1047
13262TIP3   OH261200   6.189   6.651   0.270  0.2452  0.0128  0.0863
13262TIP3    H161201   6.159   6.637   0.180 -0.4686  0.3429  0.2670
13262TIP3    H261202   6.144   6.584   0.321 -0.8727  1.0362  0.4918
13263TIP3   OH261203   4.565   4.519   0.644  0.9161  0.6146  0.2912
13263TIP3    H161204   4.643   4.528   0.589  1.6824 -1.2935  0.9981
13263TIP3    H261205   4.556   4.425   0.658 -0.1496  0.9412  2.1646
13264TIP3   OH261206   5.753   6.081   0.748  0.2663 -0.3468 -0.6540
13264TIP3    H161207   5.771   6.032   0.829  0.5529 -0.5178 -0.8203
13264TIP3    H261208   5.839   6.107   0.716  0.2309 -1.1661 -1.4494
13265TIP3   OH261209   0.284   0.682  11.015  0.1428  0.7050  0.4519
13265TIP3    H161210   0.317   0.666  10.927  1.5053  2.0676  0.6675
13265TIP3    H261211   0.191   0.663  11.010  0.6149 -1.5889 -0.6362
13266TIP3   OH261212   4.742   4.256   1.874 -0.0795  0.0336 -0.2715
13266TIP3    H161213   4.732   4.174   1.923  2.1446  0.4021  0.9169
13266TIP3    H261214   4.708   4.236   1.787 -0.5954 -1.8070  0.3091
13267TIP3   OH261215   5.069   4.791  15.614  0.1899  0.4311  0.2926
13267TIP3    H161216   5.104   4.879  15.627  0.1426  0.6710 -1.1176
13267TIP3    H261217   4.974   4.803  15.609  0.1464  0.2295  0.6131
13268TIP3   OH261218   0.284   0.276   1.025  0.7885  0.6393 -0.0837
13268TIP3    H161219   0.351   0.255   1.090 -1.4729 -1.4683  1.7580
13268TIP3    H261220   0.300   0.213   0.954  0.4015 -0.3184  0.6551
13269TIP3   OH261221   3.851   4.318  13.482  0.6449  0.7057  0.1467
13269TIP3    H161222   3.893   4.240  13.447 -0.5671 -0.4292  1.0905
13269TIP3    H261223   3.883   4.324  13.572 -1.3605 -0.3815  0.9962
13270TIP3   OH261224   3.162   5.119   1.661  0.3679 -0.0830  0.5858
13270TIP3    H161225   3.149   5.169   1.580  0.5317  1.4714  1.4814
13270TIP3    H261226   3.254   5.094   1.660  0.5679  0.6465  0.6812
13271TIP3   OH261227   6.375   4.546   0.624  0.5592  0.5016  0.3799
13271TIP3    H161228   6.347   4.549   0.715 -1.6441  0.0334 -0.2332
13271TIP3    H261229   6.409   4.457   0.613  1.2262  0.6872  0.8104
13272TIP3   OH261230   2.422   3.554  12.856 -0.6063 -0.4684  0.0928
13272TIP3    H161231   2.399   3.609  12.782 -0.7819 -0.4340  0.1723
13272TIP3    H261232   2.347   3.560  12.915 -0.5045 -0.5640  0.2333
13273TIP3   OH261233   1.639   5.457  12.990 -0.2964  0.2224  0.0518
13273TIP3    H161234   1.665   5.480  12.901 -1.2483  0.9042 -0.0611
13273TIP3    H261235   1.638   5.540  13.037  1.8247 -0.3093  1.1650
13274TIP3   OH261236   2.447   5.815   2.080  0.6643  0.1541 -0.0604
13274TIP3    H161237   2.380   5.749   2.062  0.8389  0.2724 -1.2028
13274TIP3    H261238   2.404   5.899   2.060  1.8914  0.1247 -3.5254
13275TIP3   OH261239   7.056   0.716   9.930 -0.0055  0.5732 -0.2451
13275TIP3    H161240   7.087   0.633   9.895  1.2572  1.2332 -0.7262
13275TIP3    H261241   6.963   0.718   9.907  0.0877 -0.4293 -0.7561
13276TIP3   OH261242   5.309   5.696   3.138 -0.4381  0.0718 -0.1772
13276TIP3    H161243   5.340   5.769   3.192 -0.6862  1.6050 -1.9795
13276TIP3    H261244   5.215   5.689   3.158 -0.7617  1.3313 -1.0767
13277TIP3   OH261245   2.356   1.632  10.806  0.5183  0.0767  0.1539
13277TIP3    H161246   2.346   1.554  10.862 -0.8292  1.1459  1.5050
13277TIP3    H261247   2.415   1.689  10.855  0.3225  0.5128 -0.1086
13278TIP3   OH261248   5.745   6.380  13.164 -0.6082 -1.1759  0.4358
13278TIP3    H161249   5.784   6.374  13.077 -2.3678  1.0898 -0.6279
13278TIP3    H261250   5.714   6.291  13.183 -0.0036 -1.7561 -1.1606
13279TIP3   OH261251   6.986   1.232   3.675 -0.3249 -0.2863 -0.6041
13279TIP3    H161252   6.974   1.257   3.584  2.9152 -0.3333 -1.1768
13279TIP3    H261253   6.993   1.315   3.722 -1.5673 -0.2613 -0.4386
13280TIP3   OH261254   3.426   3.080   0.887  0.5164 -0.4415  0.5879
13280TIP3    H161255   3.470   3.117   0.964  0.1016 -0.0359  0.6383
13280TIP3    H261256   3.340   3.122   0.887  0.3194 -0.8435  0.2042
13281TIP3   OH261257   3.778   6.666  13.338  0.1692 -0.6576  0.3948
13281TIP3    H161258   3.832   6.731  13.293 -0.6368 -0.1686  0.1078
13281TIP3    H261259   3.738   6.713  13.411  0.2355 -1.0433  0.6829
13282TIP3   OH261260   1.921   1.761   2.277  0.6447 -0.4071 -0.7721
13282TIP3    H161261   1.960   1.685   2.320  1.4536 -0.3299 -1.3458
13282TIP3    H261262   1.995   1.820   2.261 -0.1512  1.1567  0.9415
13283TIP3   OH261263   0.362   3.869  13.298  0.0508 -0.5927  0.8242
13283TIP3    H161264   0.426   3.798  13.295 -0.1403 -0.7444 -0.1888
13283TIP3    H261265   0.407   3.943  13.256  0.2370 -0.1139  1.8421
13284TIP3   OH261266   2.335   3.359   0.119  0.0449 -0.0525  0.2815
13284TIP3    H161267   2.353   3.372   0.212 -0.5514  0.9717  0.2711
13284TIP3    H261268   2.241   3.342   0.115 -0.1333  0.9368 -0.2038
13285TIP3   OH261269   4.170   5.436   2.336 -0.3057  0.5055 -0.1921
13285TIP3    H161270   4.162   5.506   2.271  0.3862 -0.6903 -1.6104
13285TIP3    H261271   4.081   5.402   2.345 -0.5313  1.1367  0.0308
13286TIP3   OH261272   6.773   1.068  12.382 -0.1309 -0.0602 -0.4716
13286TIP3    H161273   6.720   1.119  12.443  2.0100  2.6436 -0.7180
13286TIP3    H261274   6.723   1.068  12.300 -1.3186 -0.5833  0.2283
13287TIP3   OH261275   6.059   6.440  15.048 -0.1571 -0.0100  0.8670
13287TIP3    H161276   6.113   6.493  14.990 -0.3229  0.6050  1.2631
13287TIP3    H261277   6.121   6.393  15.104 -0.0214  0.2647  0.9451
13288TIP3   OH261278   5.145   5.272  10.343 -0.6323  0.2628 -0.1407
13288TIP3    H161279   5.180   5.303  10.260 -0.2927  0.7052  0.1590
13288TIP3    H261280   5.179   5.183  10.352 -1.2487 -0.0402 -0.8005
13289TIP3   OH261281   3.549   5.115  14.229 -0.0254 -0.0263  0.0180
13289TIP3    H161282   3.573   5.190  14.174  0.8792  0.7345  1.3806
13289TIP3    H261283   3.497   5.155  14.300  1.4482 -0.4792  1.4021
13290TIP3   OH261284   6.368   6.719   1.799  0.4026 -0.0656 -0.7405
13290TIP3    H161285   6.305   6.761   1.857 -0.1452  0.8886 -1.9630
13290TIP3    H261286   6.402   6.791   1.745  3.0153 -0.4358  0.2498
13291TIP3   OH261287   4.308   3.310  12.460 -0.0062 -0.0450 -0.0972
13291TIP3    H161288   4.371   3.341  12.525  0.2485  0.7494 -0.7013
13291TIP3    H261289   4.285   3.221  12.488  0.6969 -0.0020  0.6303
13292TIP3   OH261290   6.906   2.647   4.491  0.6153  0.3313  0.0081
13292TIP3    H161291   6.908   2.580   4.560  1.5082  0.7064  0.3497
13292TIP3    H261292   6.990   2.638   4.447  1.7082  2.6448  1.4278
13293TIP3   OH261293   1.330   2.382  12.795  0.1075  0.6731  0.0580
13293TIP3    H161294   1.322   2.297  12.752 -1.2525  0.6226  0.3809
13293TIP3    H261295   1.281   2.442  12.738  1.8234  1.4718 -0.6793
13294TIP3   OH261296   6.804   3.233   2.860  0.2125 -0.1905  0.0732
13294TIP3    H161297   6.818   3.147   2.820  2.3441  0.5180 -0.8840
13294TIP3    H261298   6.735   3.273   2.807  0.9262 -0.3991 -1.0476
13295TIP3   OH261299   4.533   5.496   0.395  0.2177  0.2853  0.6293
13295TIP3    H161300   4.452   5.472   0.349  0.2524 -1.1074  1.2371
13295TIP3    H261301   4.602   5.446   0.351  0.5968  0.6940  0.7535
13296TIP3   OH261302   6.031   6.903   0.352 -0.6679 -0.0255 -0.0013
13296TIP3    H161303   6.088   6.927   0.279 -1.4216 -0.5874 -0.7997
13296TIP3    H261304   6.007   6.812   0.334 -1.9692  0.2557  0.1898
13297TIP3   OH261305   3.645   6.136  12.833 -0.7076  0.2603  0.0437
13297TIP3    H161306   3.618   6.083  12.908  0.3844  0.0607  0.3043
13297TIP3    H261307   3.645   6.226  12.865  1.3844  0.0330  0.8048
13298TIP3   OH261308   5.571   0.334   1.208  0.5104 -0.2359 -0.1470
13298TIP3    H161309   5.601   0.424   1.216  1.9253 -0.7439  0.5021
13298TIP3    H261310   5.650   0.283   1.190  0.1930 -1.7023  2.1687
13299TIP3   OH261311   3.617   0.019   3.222  0.1311 -0.2111 -0.1341
13299TIP3    H161312   3.638   0.099   3.174 -0.1352  0.5457  0.9664
13299TIP3    H261313   3.554  -0.027   3.167  0.3535  0.2896 -0.8153
13300TIP3   OH261314   3.145   1.287  14.429  1.0038 -0.1600  0.1687
13300TIP3    H161315   3.123   1.250  14.343  2.2520  1.4528 -0.9030
13300TIP3    H261316   3.064   1.329  14.458  0.0852 -2.1014  0.6015
13301TIP3   OH261317   4.806   5.529  15.652  0.4409  0.1113 -0.5842
13301TIP3    H161318   4.841   5.440  15.654  1.7017  0.5832 -0.6013
13301TIP3    H261319   4.735   5.526  15.588 -1.5558 -1.5574  1.5403
13302TIP3   OH261320   2.495   2.572   1.209  0.1784  0.0156 -0.2821
13302TIP3    H161321   2.444   2.649   1.234 -0.6566 -0.6162 -0.0026
13302TIP3    H261322   2.573   2.608   1.166 -0.0408  1.0208  0.1335
13303TIP3   OH261323   6.444   6.701  11.515 -0.5206 -0.2305 -0.0978
13303TIP3    H161324   6.481   6.756  11.585  1.2559 -0.6013 -0.6926
13303TIP3    H261325   6.469   6.612  11.538 -0.9867 -0.4908 -0.5756
13304TIP3   OH261326   0.639   0.464  11.645 -0.1043  0.5154 -0.1007
13304TIP3    H161327   0.681   0.421  11.720 -0.0390  1.5564  0.4845
13304TIP3    H261328   0.712   0.508  11.600 -0.3598  1.2095  0.1481
13305TIP3   OH261329   4.793   7.042  15.277  0.2704 -0.0807 -0.2997
13305TIP3    H161330   4.882   7.022  15.308  0.6061  1.4466 -0.2083
13305TIP3    H261331   4.796   7.021  15.184  1.3976  1.9517 -0.7675
13306TIP3   OH261332   3.283   6.672   1.383 -0.4310 -0.8629 -0.7299
13306TIP3    H161333   3.204   6.668   1.331  0.3076  1.5254 -2.1651
13306TIP3    H261334   3.254   6.702   1.469 -1.1903 -1.1671 -0.8728
13307TIP3   OH261335   0.428   1.708   0.925  0.2671  0.1168 -0.9142
13307TIP3    H161336   0.461   1.798   0.926  0.1445  0.1679  0.1062
13307TIP3    H261337   0.489   1.660   0.869  1.7598  0.3221  0.4563
13308TIP3   OH261338   1.941   4.250  15.615  0.1242  0.0013 -0.6232
13308TIP3    H161339   2.033   4.272  15.605  0.1297  0.4428  0.3064
13308TIP3    H261340   1.904   4.322  15.666 -0.5434 -0.5974 -0.2349
13309TIP3   OH261341   3.011   1.251   0.214 -0.0822  0.1225  0.7361
13309TIP3    H161342   3.064   1.261   0.293  1.0879  0.8643 -0.1138
13309TIP3    H261343   2.938   1.196   0.241 -0.0742  0.9285  2.5061
13310TIP3   OH261344   3.347   5.408   3.469  0.1010 -0.5138 -0.4292
13310TIP3    H161345   3.415   5.443   3.411  0.0489 -0.8672 -0.7083
13310TIP3    H261346   3.293   5.483   3.492  1.2014 -0.0008  0.6605
13311TIP3   OH261347   2.816   5.077  14.456  0.3782 -0.2437 -0.1797
13311TIP3    H161348   2.757   5.006  14.482  0.4113 -0.2768 -0.1939
13311TIP3    H261349   2.882   5.078  14.525 -0.5522  0.8887  0.7360
13312TIP3   OH261350   6.412   4.279   2.546  0.0966  1.0621  0.1620
13312TIP3    H161351   6.440   4.254   2.459  0.1754  0.2331  0.4232
13312TIP3    H261352   6.481   4.338   2.577  1.4069 -0.6450  0.6487
13313TIP3   OH261353   1.625   2.737  10.396  0.0943  0.1995 -0.4097
13313TIP3    H161354   1.630   2.686  10.315  1.2304 -0.3244 -0.0293
13313TIP3    H261355   1.681   2.813  10.380  2.2026 -1.0406  0.6385
13314TIP3   OH261356   5.800   6.616  10.800  0.4860  0.6451 -0.9118
13314TIP3    H161357   5.747   6.553  10.751  0.8815  0.5109 -1.1711
13314TIP3    H261358   5.875   6.565  10.829  0.9132  1.0506 -1.3015
13315TIP3   OH261359   2.395   1.179  13.827 -0.4287  0.3818 -0.1214
13315TIP3    H161360   2.349   1.215  13.751 -0.1232 -2.2496 -1.6988
13315TIP3    H261361   2.340   1.104  13.854  1.3114 -0.9571 -0.1191
13316TIP3   OH261362   2.735   7.089  14.543  0.1337 -0.1086 -0.1418
13316TIP3    H161363   2.785   7.085  14.462  3.1214 -2.4876  1.5810
13316TIP3    H261364   2.663   7.028  14.530  1.6263 -1.9016 -0.5161
13317TIP3   OH261365   2.522   6.805  14.604  0.9163  0.5338  0.7133
13317TIP3    H161366   2.506   6.748  14.678 -1.8099 -1.2717 -1.0742
13317TIP3    H261367   2.435   6.840  14.581  2.0477  3.1024 -0.0915
13318TIP3   OH261368   4.265   0.874  12.003 -0.1962 -0.2143  0.3414
13318TIP3    H161369   4.341   0.927  12.027 -0.6009  1.2886 -1.5189
13318TIP3    H261370   4.192   0.915  12.049 -0.3165  0.0672 -0.1008
13319TIP3   OH261371   7.054   2.826   3.788  0.1748 -0.2364  0.2805
13319TIP3    H161372   7.101   2.839   3.871 -0.3832 -0.7327  0.6908
13319TIP3    H261373   7.121   2.834   3.721  0.8611 -0.9394  0.8521
13320TIP3   OH261374   1.616   6.954  14.729  0.3335  0.0380  0.1010
13320TIP3    H161375   1.649   6.865  14.744  1.5926  0.7402  1.8312
13320TIP3    H261376   1.536   6.941  14.679  0.0991 -2.1296  0.9084
13321TIP3   OH261377   3.992   0.585   1.054 -0.2481  0.2002  0.6271
13321TIP3    H161378   4.035   0.657   1.008  0.6023 -0.6455  0.0737
13321TIP3    H261379   3.990   0.612   1.146  0.4441  0.7461  0.4862
13322TIP3   OH261380   5.965   0.963   3.538  0.0748 -0.5007 -0.5825
13322TIP3    H161381   5.920   0.946   3.456 -1.2157 -1.2821  0.2592
13322TIP3    H261382   5.985   1.057   3.535 -0.3294 -0.4380 -1.5889
13323TIP3   OH261383   4.138   0.079  11.778  0.5893  0.4285  0.0620
13323TIP3    H161384   4.094   0.055  11.860 -0.9965  0.6847 -0.6782
13323TIP3    H261385   4.100   0.021  11.712  1.5691  0.4839 -0.5771
13324TIP3   OH261386   1.336   2.349  13.092 -0.3928 -0.4868 -0.3249
13324TIP3    H161387   1.303   2.357  13.003  0.0039 -0.6779 -0.4930
13324TIP3    H261388   1.371   2.436  13.113  1.4005 -0.9584 -1.1325
13325TIP3   OH261389   2.018   3.937  13.353 -0.1625 -0.1233 -0.0731
13325TIP3    H161390   2.030   3.956  13.446 -2.8772  1.1963  0.1147
13325TIP3    H261391   2.066   4.007  13.308 -2.0687  1.6329  0.4797
13326TIP3   OH261392   4.130   4.619  11.136  0.5325  0.0737  0.1308
13326TIP3    H161393   4.157   4.707  11.163 -1.5242  0.5435  0.8556
13326TIP3    H261394   4.153   4.563  11.210 -1.3334  0.6495  1.2028
13327TIP3   OH261395   2.550   6.096  12.342 -0.5118 -0.1086  0.4017
13327TIP3    H161396   2.532   6.085  12.248  1.4251  1.2152 -0.1622
13327TIP3    H261397   2.508   6.019  12.382 -3.1482  0.3058 -1.2559
13328TIP3   OH261398   4.571   4.319   5.755 -0.1772 -0.1308  0.4425
13328TIP3    H161399   4.585   4.316   5.849 -1.7536 -0.3762  0.6897
13328TIP3    H261400   4.575   4.412   5.732 -0.4054 -0.0224  0.8451
13329TIP3   OH261401   5.123   1.471   1.566 -0.0620 -0.3810  0.2752
13329TIP3    H161402   5.106   1.489   1.659 -3.5424 -1.8641  0.0936
13329TIP3    H261403   5.177   1.392   1.567  1.9841  0.9430  0.9493
13330TIP3   OH261404   4.898   6.345  13.576  0.0458  0.1887 -0.1457
13330TIP3    H161405   4.890   6.398  13.656  0.7372  0.1534 -0.0447
13330TIP3    H261406   4.813   6.302  13.567  0.3431 -0.7897  1.2911
13331TIP3   OH261407   1.257   2.515   0.001 -0.6003  0.0196  0.4174
13331TIP3    H161408   1.228   2.564   0.078 -0.2258  0.2724  0.4024
13331TIP3    H261409   1.230   2.425   0.018  0.2530 -0.1031  1.2594
13332TIP3   OH261410   6.204   5.324  10.323 -0.0184 -0.0400  0.3397
13332TIP3    H161411   6.268   5.319  10.393 -0.8711 -1.8741  1.0688
13332TIP3    H261412   6.197   5.417  10.302  2.1072  0.2817  0.9159
13333TIP3   OH261413   5.120   5.650  15.059  0.2626  0.6728 -0.3312
13333TIP3    H161414   5.140   5.596  14.983  1.2893  2.9503 -1.7841
13333TIP3    H261415   5.174   5.728  15.048  2.5292  0.0685  4.1122
13334TIP3   OH261416   6.559   6.840   9.820  0.4765 -0.0504  0.1296
13334TIP3    H161417   6.552   6.811   9.911  0.6856  1.2804  0.5893
13334TIP3    H261418   6.468   6.849   9.790  0.4067 -0.8997  0.0483
13335TIP3   OH261419   2.779   0.548  12.086  0.1534 -0.2640  0.5080
13335TIP3    H161420   2.838   0.476  12.061  0.6640  0.8739 -1.8235
13335TIP3    H261421   2.692   0.509  12.083  0.5756 -1.3935  1.7874
13336TIP3   OH261422   7.023   0.851  13.330  0.2950 -0.0839 -0.1594
13336TIP3    H161423   7.054   0.893  13.410  2.0003 -2.3970  0.4969
13336TIP3    H261424   6.954   0.790  13.360 -0.6309  0.6261 -0.7880
13337TIP3   OH261425   5.558   6.965   4.502 -0.0491 -0.0144  0.2968
13337TIP3    H161426   5.647   6.996   4.521  1.0805 -3.1557  0.6385
13337TIP3    H261427   5.512   6.974   4.586  0.1567  0.8579  0.3311
13338TIP3   OH261428   4.628   1.168  11.931 -0.3783  0.6434 -0.2605
13338TIP3    H161429   4.555   1.159  11.870 -1.5788 -3.2333  1.4724
13338TIP3    H261430   4.588   1.199  12.012  0.0525 -0.5392  0.4187
13339TIP3   OH261431   2.389   1.010  12.788 -0.4266 -0.2137 -0.7544
13339TIP3    H161432   2.383   0.994  12.883 -0.2177 -1.5177 -0.9412
13339TIP3    H261433   2.354   1.098  12.776 -0.7418 -0.1512  0.5028
13340TIP3   OH261434   3.056   4.979  10.934 -0.4695  0.0830 -0.2809
13340TIP3    H161435   2.984   5.009  10.878 -1.1553 -1.0139 -0.0226
13340TIP3    H261436   3.028   4.892  10.964  2.2292 -1.7283 -2.4917
13341TIP3   OH261437   1.331   3.106  13.662  0.1513 -0.5934 -0.4845
13341TIP3    H161438   1.247   3.065  13.684  0.3351 -1.3210 -1.0911
13341TIP3    H261439   1.308   3.195  13.637 -0.7282 -1.3726 -2.6961
13342TIP3   OH261440   6.400   3.077   4.287 -0.1609  0.1067 -0.3539
13342TIP3    H161441   6.417   3.080   4.192 -3.7498 -0.8038 -1.1780
13342TIP3    H261442   6.349   3.157   4.304  0.8323  0.4884  0.9445
13343TIP3   OH261443   1.031   4.717  11.305  0.5670 -0.4618  0.0544
13343TIP3    H161444   1.009   4.808  11.326  0.0965 -0.1489 -1.6421
13343TIP3    H261445   1.032   4.673  11.390 -0.8130  0.7839  0.7707
13344TIP3   OH261446   0.281   5.989   5.007  0.5213  0.7447  0.1006
13344TIP3    H161447   0.318   5.937   4.936 -0.5434  1.6064 -1.1408
13344TIP3    H261448   0.224   5.928   5.055  1.7124  0.0054  0.6122
13345TIP3   OH261449   0.593   4.216   4.781  0.3098 -0.2993 -0.3375
13345TIP3    H161450   0.648   4.293   4.771 -1.1174  1.2767  2.6215
13345TIP3    H261451   0.519   4.245   4.834 -0.3272 -3.6806  0.9387
13346TIP3   OH261452   0.112   6.313  11.981  0.3776  0.1781 -0.8590
13346TIP3    H161453   0.063   6.233  11.960 -0.2081  0.0018  0.9576
13346TIP3    H261454   0.201   6.283  12.000  0.3167  0.0277 -0.8085
13347TIP3   OH261455   5.543   0.327   0.612 -0.3364  0.0999  0.0726
13347TIP3    H161456   5.568   0.265   0.544 -1.1048  0.9985 -1.0497
13347TIP3    H261457   5.618   0.327   0.672  1.5386  1.2350 -2.1297
13348TIP3   OH261458   3.891   2.414  12.948  0.4481 -0.0737 -0.1380
13348TIP3    H161459   3.833   2.452  13.014  2.1019  1.2250  0.6355
13348TIP3    H261460   3.927   2.489  12.901  0.5999 -0.9062 -1.4097
13349TIP3   OH261461   2.951   6.674   4.476 -0.0771  0.2398  0.2172
13349TIP3    H161462   2.866   6.646   4.509 -0.2338  0.1069 -0.2830
13349TIP3    H261463   2.950   6.769   4.485 -0.5244  0.2946 -0.3341
13350TIP3   OH261464   3.409   3.549   4.470  0.7701  0.2099  1.0557
13350TIP3    H161465   3.429   3.484   4.403  1.5183  0.9449  0.5493
13350TIP3    H261466   3.316   3.537   4.487  0.6886 -0.3516  0.2853
13351TIP3   OH261467   2.467   4.880  11.352 -0.6518  0.2830  0.3877
13351TIP3    H161468   2.521   4.929  11.414 -0.8837  0.5696  0.3702
13351TIP3    H261469   2.405   4.832  11.407 -0.0538 -0.4452  0.4290
13352TIP3   OH261470   6.340   6.121  11.400  0.1119 -1.1561  0.2364
13352TIP3    H161471   6.376   6.189  11.456  1.5501 -1.9103  0.2508
13352TIP3    H261472   6.270   6.081  11.452 -1.3785  0.8259 -0.0896
13353TIP3   OH261473   4.025   6.011   0.331  0.3438  0.0800 -0.6038
13353TIP3    H161474   3.946   5.971   0.294  0.5969 -1.1351  0.1221
13353TIP3    H261475   4.084   5.937   0.348  0.8452  0.7589  0.7365
13354TIP3   OH261476   3.735   0.283  13.152  0.8820  0.5447  0.5240
13354TIP3    H161477   3.769   0.195  13.136 -1.9032 -0.6936  0.8515
13354TIP3    H261478   3.783   0.339  13.090  1.5101 -1.4889 -0.9378
13355TIP3   OH261479   2.949   5.303   2.154  0.0316  0.8069 -1.0345
13355TIP3    H161480   2.989   5.271   2.073 -1.4681 -0.3735 -1.3604
13355TIP3    H261481   2.958   5.230   2.216 -0.2894  1.0787 -0.6629
13356TIP3   OH261482   2.207   6.790   2.343 -0.1101  0.8186  0.7246
13356TIP3    H161483   2.186   6.826   2.429 -0.4111 -0.1664  1.0768
13356TIP3    H261484   2.143   6.830   2.284 -1.0529  0.1809  1.2701
13357TIP3   OH261485   4.854   0.620   3.645  0.0320  0.6195 -0.5041
13357TIP3    H161486   4.811   0.667   3.717  1.5110  1.4269 -0.0933
13357TIP3    H261487   4.863   0.686   3.576  1.0412  0.6310 -0.3816
13358TIP3   OH261488   3.566   1.951  13.556  0.3490  0.7769  0.2836
13358TIP3    H161489   3.594   1.866  13.523  0.0578  0.1582  1.5386
13358TIP3    H261490   3.485   1.970  13.508  1.0658  0.9521 -0.8888
13359TIP3   OH261491   2.321   0.891   1.442 -0.1479 -0.0546 -0.0222
13359TIP3    H161492   2.403   0.939   1.453 -0.1820  0.2434 -0.9916
13359TIP3    H261493   2.329   0.850   1.356 -1.3499  0.6789 -0.5159
13360TIP3   OH261494   4.843   4.202  10.574  0.5527 -0.1467 -0.3599
13360TIP3    H161495   4.874   4.290  10.549 -1.2404  0.7080  0.2388
13360TIP3    H261496   4.914   4.143  10.547  2.0410  1.5227 -0.2953
13361TIP3   OH261497   5.847   4.007  13.817 -1.0288  0.0990 -0.5421
13361TIP3    H161498   5.843   3.998  13.912 -1.3835 -0.0266 -0.5689
13361TIP3    H261499   5.884   4.095  13.803 -1.1287  0.1821 -0.2908
13362TIP3   OH261500   1.983   1.372  12.175  0.5860  0.4063 -0.3252
13362TIP3    H161501   2.058   1.346  12.229  0.2550  0.5047  0.1850
13362TIP3    H261502   2.013   1.359  12.085  1.2606  0.5519 -0.1302
13363TIP3   OH261503   0.330   0.309  12.605  0.0180  0.5064 -0.1424
13363TIP3    H161504   0.358   0.397  12.631  0.7396  0.1375  0.3839
13363TIP3    H261505   0.363   0.299  12.516  0.0617  0.7117 -0.1502
13364TIP3   OH261506   7.013   6.596  11.766 -0.6480 -0.3826  0.5175
13364TIP3    H161507   6.938   6.646  11.733  0.2177  0.7909  0.2509
13364TIP3    H261508   7.069   6.662  11.807  1.2381 -0.8811 -1.0973
13365TIP3   OH261509   2.506   4.050  13.426 -0.9653  0.4354 -0.0737
13365TIP3    H161510   2.581   4.071  13.370 -0.4069 -0.5572  0.2772
13365TIP3    H261511   2.525   3.962  13.459 -2.1627  0.2825  0.2368
13366TIP3   OH261512   6.034   5.834  10.448  0.9757 -0.2589 -0.0865
13366TIP3    H161513   6.068   5.852  10.360  0.5179 -2.5170 -0.7903
13366TIP3    H261514   6.110   5.844  10.505  2.1537 -2.1239 -1.2114
13367TIP3   OH261515   6.301   5.248  12.262 -0.2930  0.2645  0.3010
13367TIP3    H161516   6.208   5.252  12.281 -0.3776  3.3511 -0.1485
13367TIP3    H261517   6.320   5.155  12.248 -3.2303 -0.4557  0.5788
13368TIP3   OH261518   1.277   1.604   1.178  0.0402 -0.2434 -0.5945
13368TIP3    H161519   1.315   1.634   1.261 -3.2744  0.6554  0.7700
13368TIP3    H261520   1.314   1.517   1.165  0.2919 -0.6352  2.1325
13369TIP3   OH261521   0.815   4.828   0.284  0.7534  0.1804 -0.3755
13369TIP3    H161522   0.720   4.834   0.294  0.7895  0.0294  0.0749
13369TIP3    H261523   0.827   4.787   0.198  0.3786 -0.9928  0.1033
13370TIP3   OH261524   2.229   1.331  10.826  0.2100 -0.6224 -0.2422
13370TIP3    H161525   2.150   1.384  10.843  0.2180 -0.1921 -1.4436
13370TIP3    H261526   2.291   1.361  10.892 -0.4150 -0.4907  0.3049
13371TIP3   OH261527   5.536   0.597   0.904  0.0478  0.3467  0.0629
13371TIP3    H161528   5.620   0.551   0.911  0.1954  0.5747 -0.1999
13371TIP3    H261529   5.476   0.532   0.868  0.1709  0.2502  0.0302
13372TIP3   OH261530   4.422   2.361  12.015  0.2372  0.0717 -0.2131
13372TIP3    H161531   4.333   2.354  11.979  0.7215 -0.2264 -1.3725
13372TIP3    H261532   4.413   2.329  12.105 -0.8240  0.0380 -0.3138
13373TIP3   OH261533   2.985   4.133   1.705  0.2867  0.2580 -0.2036
13373TIP3    H161534   2.930   4.066   1.663  1.8178 -1.0312 -0.2508
13373TIP3    H261535   2.959   4.131   1.797 -0.1027  0.0188 -0.3174
13374TIP3   OH261536   0.444   0.710  10.249 -0.1067  0.5358  0.1216
13374TIP3    H161537   0.451   0.656  10.171  1.3301  1.9085 -0.7428
13374TIP3    H261538   0.415   0.795  10.217 -0.1875  0.9197  1.1795
13375TIP3   OH261539   4.345   1.482   3.033 -0.3035 -0.3279 -0.2265
13375TIP3    H161540   4.280   1.487   3.104  0.3731  1.1672  0.3215
13375TIP3    H261541   4.293   1.484   2.953 -0.9718  0.4129  0.2113
13376TIP3   OH261542   6.509   0.202   3.366 -0.8356  0.2377 -0.1952
13376TIP3    H161543   6.416   0.223   3.372 -0.5922  0.9220  3.5761
13376TIP3    H261544   6.553   0.287   3.366 -0.1540 -0.0634 -2.4768
13377TIP3   OH261545   0.949   6.186  12.066 -0.2559  0.2822  0.0535
13377TIP3    H161546   0.963   6.276  12.096 -1.6546  0.1749  1.1108
13377TIP3    H261547   0.922   6.195  11.975 -1.5288  1.0436  0.4794
13378TIP3   OH261548   5.393   5.122   3.375  0.4732  0.1897  0.3236
13378TIP3    H161549   5.488   5.134   3.370  0.6751 -0.9414  1.1176
13378TIP3    H261550   5.378   5.087   3.463 -0.4764 -1.3167 -0.3974
13379TIP3   OH261551   2.803   2.259  12.739 -0.3211  0.3520 -0.3874
13379TIP3    H161552   2.717   2.299  12.729 -1.3579 -1.7069 -0.2462
13379TIP3    H261553   2.808   2.195  12.667  0.5049 -0.4973  0.3952
13380TIP3   OH261554   1.790   3.782  15.069  1.1497  0.2472 -0.1923
13380TIP3    H161555   1.774   3.732  14.989  3.2058  0.6462 -0.8962
13380TIP3    H261556   1.720   3.754  15.129  0.4359 -1.1410 -1.6047
13381TIP3   OH261557   2.677   4.626  11.482 -0.9075 -0.5385  0.2183
13381TIP3    H161558   2.686   4.716  11.511 -1.9591 -0.3980  0.1213
13381TIP3    H261559   2.733   4.576  11.542 -0.8795  0.0828  0.7145
13382TIP3   OH261560   5.345   0.555   3.261 -0.1922  0.0157 -0.1109
13382TIP3    H161561   5.281   0.619   3.230  1.4160  1.2059 -1.1632
13382TIP3    H261562   5.331   0.479   3.205  1.2798  1.3916 -2.5583
13383TIP3   OH261563   7.038   2.747   0.126  0.4229 -0.2354 -0.1054
13383TIP3    H161564   6.999   2.668   0.163 -0.0483 -0.7215 -1.6035
13383TIP3    H261565   7.058   2.725   0.036 -0.9635  1.7569 -0.9769
13384TIP3   OH261566   0.921   4.019  15.004  0.1982 -0.4263  0.6482
13384TIP3    H161567   0.889   4.109  15.003  1.0619 -0.1117  0.9736
13384TIP3    H261568   0.892   3.983  14.920 -0.2062  0.1315  0.5440
13385TIP3   OH261569   6.673   0.081   5.063 -0.3441 -0.4306  0.1293
13385TIP3    H161570   6.666   0.176   5.069 -1.3805 -0.5478  0.8845
13385TIP3    H261571   6.762   0.066   5.030 -0.3993  0.8082 -0.6314
13386TIP3   OH261572   3.225   5.602   1.253  0.0308  0.1101  0.1896
13386TIP3    H161573   3.259   5.687   1.227 -2.2949  1.2234  0.4563
13386TIP3    H261574   3.172   5.573   1.179 -1.3819  0.2347  1.0912
13387TIP3   OH261575   7.122   2.678  13.182  0.1934 -0.4835 -0.0515
13387TIP3    H161576   7.072   2.633  13.114 -0.4230  0.1043  0.0006
13387TIP3    H261577   7.212   2.675  13.151 -0.1445  0.2224 -1.1567
13388TIP3   OH261578   5.607   6.241  10.556  0.6810 -0.8225  0.4617
13388TIP3    H161579   5.514   6.253  10.575  0.8507  2.0637 -0.0033
13388TIP3    H261580   5.651   6.282  10.630  1.5997 -1.9465  0.5556
13389TIP3   OH261581   0.240   3.913  11.586 -0.2592 -0.0503 -0.3303
13389TIP3    H161582   0.185   3.846  11.546  1.7510 -0.8682 -1.9080
13389TIP3    H261583   0.236   3.986  11.525  0.6469 -0.2484 -0.6366
13390TIP3   OH261584   6.379   5.568   3.823  0.3622  0.0599  0.5712
13390TIP3    H161585   6.346   5.498   3.768 -1.5017  1.7198 -0.5549
13390TIP3    H261586   6.317   5.574   3.895  0.3150  0.7288  0.4839
13391TIP3   OH261587   4.234   1.402   2.342  0.1772 -0.0225  0.7370
13391TIP3    H161588   4.312   1.452   2.321  0.4134 -1.0420 -0.9545
13391TIP3    H261589   4.250   1.368   2.430  1.6425 -0.2471  0.3962
13392TIP3   OH261590   7.082   5.032  15.642 -0.5622 -0.9331  0.1048
13392TIP3    H161591   7.117   4.960  15.694  0.8489  0.0615  0.5895
13392TIP3    H261592   7.146   5.043  15.571 -1.7469 -1.3623 -1.0754
13393TIP3   OH261593   3.241   5.700   0.603 -0.1942  1.0957 -0.1403
13393TIP3    H161594   3.233   5.756   0.525 -2.4143  0.8233 -0.1688
13393TIP3    H261595   3.158   5.712   0.649 -0.2188 -1.2245  0.5049
13394TIP3   OH261596   0.997   0.309   2.016 -0.1501 -0.4274 -0.2074
13394TIP3    H161597   1.016   0.384   2.072 -0.6980 -0.5421  0.1449
13394TIP3    H261598   0.999   0.234   2.075 -2.0837 -0.3961 -0.0444
13395TIP3   OH261599   1.907   5.106   3.849 -0.1178 -0.0160 -0.3296
13395TIP3    H161600   1.988   5.122   3.801  0.5743  0.5663  0.9779
13395TIP3    H261601   1.838   5.118   3.784  0.8352 -1.0420 -1.6018
13396TIP3   OH261602   3.139   2.586   3.653 -0.0104  0.3860  0.0924
13396TIP3    H161603   3.143   2.529   3.729  1.7440  0.6174  0.2246
13396TIP3    H261604   3.163   2.530   3.579  2.2679  0.9833  0.2956
13397TIP3   OH261605   0.749   6.309   1.557 -0.0124 -0.2395 -0.4809
13397TIP3    H161606   0.654   6.309   1.569 -0.1961 -1.2053 -1.7085
13397TIP3    H261607   0.784   6.283   1.643 -0.7845  1.0361  0.2442
13398TIP3   OH261608   0.021   6.644  15.065 -0.4675 -0.4419 -0.3950
13398TIP3    H161609   0.112   6.645  15.095 -0.8008 -0.6537  0.6689
13398TIP3    H261610   0.027   6.634  14.970  0.6482  0.8993 -0.4997
13399TIP3   OH261611   1.969   4.411   2.595  0.6074  0.2449 -0.3544
13399TIP3    H161612   1.961   4.506   2.601  1.7901  0.2948  0.8114
13399TIP3    H261613   1.883   4.381   2.566  0.7160  1.8005 -2.4954
13400TIP3   OH261614   6.213   5.379   1.925 -0.4307  0.2371  0.3575
13400TIP3    H161615   6.272   5.431   1.871 -0.6669 -0.0465 -0.1753
13400TIP3    H261616   6.269   5.338   1.991 -0.0294 -0.0738 -0.1786
13401TIP3   OH261617   5.377   6.697   1.602 -0.0931  0.3300  0.4354
13401TIP3    H161618   5.463   6.686   1.561  0.1110  0.4558  0.8236
13401TIP3    H261619   5.328   6.751   1.539  0.0246  0.0509  0.0986
13402TIP3   OH261620   0.569   0.748   4.877  0.1438  0.8393  0.1551
13402TIP3    H161621   0.501   0.805   4.915 -0.7780 -0.6920  0.8933
13402TIP3    H261622   0.639   0.747   4.942 -1.4297 -1.7767  1.9967
13403TIP3   OH261623   5.848   6.835  13.260 -0.6503  0.1270  0.5591
13403TIP3    H161624   5.848   6.879  13.344  0.5529 -2.1091  1.8526
13403TIP3    H261625   5.816   6.746  13.279  2.3933 -1.3965 -0.6384
13404TIP3   OH261626   6.341   3.259  13.908 -0.0047  0.1834  0.2505
13404TIP3    H161627   6.305   3.347  13.912  0.2963  0.3085  0.2804
13404TIP3    H261628   6.272   3.202  13.942 -0.2533  0.3911  0.0926
13405TIP3   OH261629   7.110   2.012   3.381  0.5917  0.3638  0.4636
13405TIP3    H161630   7.021   2.038   3.404  0.5183 -0.9900  1.9066
13405TIP3    H261631   7.103   1.920   3.356  1.5770  0.2452  0.5736
13406TIP3   OH261632   2.630   6.610  15.594 -0.0486  0.1292 -0.0799
13406TIP3    H161633   2.684   6.635  15.668 -0.8593  0.8354  0.2844
13406TIP3    H261634   2.541   6.606  15.629 -0.4132  0.2731 -0.9608
13407TIP3   OH261635   6.372   4.747  14.937  0.7234 -0.0653  0.1641
13407TIP3    H161636   6.334   4.825  14.897  0.4550 -0.0500  0.4432
13407TIP3    H261637   6.453   4.732  14.889  1.3364  1.0213  0.8059
13408TIP3   OH261638   2.140   0.676   4.440  0.4114 -0.2627 -0.5496
13408TIP3    H161639   2.150   0.764   4.402  1.7645 -0.2201 -0.1404
13408TIP3    H261640   2.170   0.686   4.530 -3.4628 -0.1851  0.9023
13409TIP3   OH261641   1.008   3.783  10.264 -0.3472  0.1487 -0.1167
13409TIP3    H161642   1.069   3.753  10.196  0.0848  0.2770  0.2052
13409TIP3    H261643   1.025   3.878  10.271  0.6915 -0.0948  1.2034
13410TIP3   OH261644   4.960   1.078  11.591  0.2487  0.2475 -0.5396
13410TIP3    H161645   4.927   1.096  11.503 -0.1954 -1.6259 -0.7864
13410TIP3    H261646   5.013   1.000  11.582 -1.6454 -1.3574  1.1958
13411TIP3   OH261647   6.813   6.841   5.089  0.1527 -0.0407 -0.0475
13411TIP3    H161648   6.760   6.763   5.103  2.2291 -1.4126  0.6062
13411TIP3    H261649   6.771   6.908   5.144 -1.5720 -0.6997 -0.4966
13412TIP3   OH261650   2.499   1.512   0.497  0.9688  0.6151  0.1325
13412TIP3    H161651   2.517   1.508   0.403  0.1883  0.6622 -0.0252
13412TIP3    H261652   2.449   1.433   0.515 -1.3942  1.9827 -0.0681
13413TIP3   OH261653   4.458   2.833   4.316 -0.5985 -0.4102 -0.5627
13413TIP3    H161654   4.462   2.748   4.270 -0.0821 -0.0660 -1.1734
13413TIP3    H261655   4.388   2.880   4.272 -1.2289 -0.7026  0.1124
13414TIP3   OH261656   7.124   6.891   3.262 -0.4015  0.6610  0.1488
13414TIP3    H161657   7.105   6.964   3.322 -2.4454 -0.3080  0.7884
13414TIP3    H261658   7.203   6.851   3.297 -0.4317  1.3208  1.0272
13415TIP3   OH261659   2.404   4.035   0.151  0.1296  0.8234  0.0822
13415TIP3    H161660   2.417   4.127   0.173 -0.4653  0.8750  0.2264
13415TIP3    H261661   2.458   3.987   0.214  0.7932  1.0848 -0.2807
13416TIP3   OH261662   1.690   3.856   4.863  0.9341 -0.0014  0.5311
13416TIP3    H161663   1.762   3.858   4.926  0.7086 -0.3966  0.8064
13416TIP3    H261664   1.612   3.870   4.917  0.6932 -0.8505  0.4190
13417TIP3   OH261665   1.361   1.706   0.915  0.1958 -0.0094  0.1605
13417TIP3    H161666   1.394   1.784   0.959  1.0182 -0.8102  0.9748
13417TIP3    H261667   1.329   1.650   0.985  0.8074 -0.9644 -0.3072
13418TIP3   OH261668   1.098   2.779  12.374  0.4513  0.4666 -0.0169
13418TIP3    H161669   1.048   2.798  12.453 -0.4971  1.5013 -0.8320
13418TIP3    H261670   1.123   2.865  12.341 -0.2182  0.1231 -1.4829
13419TIP3   OH261671   4.737   0.741   2.739  0.0637 -0.4137 -0.2967
13419TIP3    H161672   4.712   0.669   2.681  1.4435  0.5392 -2.1908
13419TIP3    H261673   4.830   0.725   2.757  0.1811  0.4685 -0.0799
13420TIP3   OH261674   0.199   2.451  14.698  0.2217 -0.4563  0.2662
13420TIP3    H161675   0.174   2.543  14.695 -2.4489 -1.1154 -1.1272
13420TIP3    H261676   0.268   2.442  14.633 -0.7487  0.2910 -0.9179
13421TIP3   OH261677   3.375   1.497   0.852  0.8750  0.4920  0.6065
13421TIP3    H161678   3.464   1.474   0.879  1.4961  1.8181 -0.1761
13421TIP3    H261679   3.353   1.574   0.904  0.0747  0.0414  0.9599
13422TIP3   OH261680   5.818   0.596  12.024 -0.3345  0.1459 -0.4777
13422TIP3    H161681   5.749   0.545  11.980  1.0854 -2.0910 -0.2721
13422TIP3    H261682   5.860   0.534  12.083  2.2204  1.2572 -0.9731
13423TIP3   OH261683   6.204   6.892   1.491  0.0220  0.0990  0.1696
13423TIP3    H161684   6.239   6.881   1.403 -0.2048 -1.8926  0.2705
13423TIP3    H261685   6.278   6.925   1.542  0.4697  0.2300 -0.5493
13424TIP3   OH261686   4.457   0.938  14.978 -0.0667 -0.1700 -0.2499
13424TIP3    H161687   4.443   0.848  14.950 -0.7016 -0.0943 -0.2042
13424TIP3    H261688   4.471   0.933  15.072  2.0013 -0.4192 -0.5412
13425TIP3   OH261689   2.098   4.356   3.207 -0.6479 -0.9180  0.1960
13425TIP3    H161690   2.083   4.358   3.301  0.6773 -0.1906  0.4149
13425TIP3    H261691   2.153   4.432   3.190 -1.1578 -0.8378 -1.2318
13426TIP3   OH261692   7.123   1.636   4.230 -0.0244  0.2459  0.5826
13426TIP3    H161693   7.043   1.607   4.186  0.7437 -2.8726  1.0001
13426TIP3    H261694   7.102   1.629   4.323 -0.1516  2.3180  0.7519
13427TIP3   OH261695   3.935   2.397  15.635 -0.0406  0.8238 -0.1198
13427TIP3    H161696   3.906   2.372  15.547 -0.2801  0.4028  0.0743
13427TIP3    H261697   4.014   2.448  15.621 -0.2623  1.0394 -0.6003
13428TIP3   OH261698   0.500   1.055  15.140 -0.0552  0.4917  0.0253
13428TIP3    H161699   0.553   1.135  15.141 -1.7921  1.6936  1.0156
13428TIP3    H261700   0.541   1.000  15.074  2.8198  1.0551  1.1913
13429TIP3   OH261701   2.538   3.653   5.153 -0.3400  0.1918 -0.3812
13429TIP3    H161702   2.609   3.704   5.114  0.8224  0.6105  2.0708
13429TIP3    H261703   2.459   3.704   5.135  0.5067  1.7488  0.1170
13430TIP3   OH261704   2.489   6.329   4.989  0.1729 -0.4569  0.4366
13430TIP3    H161705   2.400   6.294   4.995  0.7349 -1.9827  0.4174
13430TIP3    H261706   2.540   6.273   5.048  1.1365  0.3243  0.3633
13431TIP3   OH261707   5.808   5.531   5.096 -0.1031 -0.3499 -0.0480
13431TIP3    H161708   5.807   5.624   5.077  0.2800 -0.0999  1.0816
13431TIP3    H261709   5.896   5.514   5.131  0.3688 -1.4387 -1.6461
13432TIP3   OH261710   1.302   6.600  11.384  0.0955  0.0773  0.0393
13432TIP3    H161711   1.247   6.531  11.345  0.2241 -2.0037  3.1923
13432TIP3    H261712   1.239   6.663  11.419 -0.1242  0.0186 -0.2412
13433TIP3   OH261713   0.890   5.632   2.799  0.5888  0.0141 -0.5872
13433TIP3    H161714   0.969   5.614   2.748  1.9571 -0.1319  1.4503
13433TIP3    H261715   0.882   5.727   2.797  0.1934 -0.0218 -1.6257
13434TIP3   OH261716   7.115   0.606   5.580  0.5504 -0.4636 -0.0681
13434TIP3    H161717   7.121   0.695   5.543 -0.5376 -0.5913 -0.5934
13434TIP3    H261718   7.130   0.618   5.674 -1.4485  0.5864  0.1798
13435TIP3   OH261719   0.499   5.387  13.644  0.3158  0.0867  1.0118
13435TIP3    H161720   0.533   5.399  13.555  0.7006  0.8792  1.2581
13435TIP3    H261721   0.520   5.469  13.689 -0.5944  0.0054  1.6043
13436TIP3   OH261722   5.539   5.386   3.717 -0.1222 -0.6298 -0.4430
13436TIP3    H161723   5.522   5.296   3.745  0.3203 -1.5332 -2.8249
13436TIP3    H261724   5.595   5.377   3.640 -0.5828  1.6711 -1.1356
13437TIP3   OH261725   4.745   5.636   1.451  0.4191 -0.3382  0.6899
13437TIP3    H161726   4.726   5.636   1.545 -0.5083  1.5943  0.5492
13437TIP3    H261727   4.662   5.613   1.410  0.8442 -1.2717  0.3139
13438TIP3   OH261728   6.395   5.597  13.116  0.1218 -0.0998 -0.1687
13438TIP3    H161729   6.327   5.578  13.181 -0.4080  2.4478  0.1262
13438TIP3    H261730   6.357   5.665  13.061  1.4750 -0.5058 -1.6916
13439TIP3   OH261731   7.088   4.383  12.263  0.5964 -0.1974  0.7824
13439TIP3    H161732   7.117   4.307  12.313 -2.0783 -0.5034  2.0702
13439TIP3    H261733   6.996   4.393  12.287 -0.2726  0.9729 -2.5106
13440TIP3   OH261734   4.556   4.955  12.099 -0.2040 -1.0162 -0.8488
13440TIP3    H161735   4.603   4.907  12.167 -0.9395  0.0388  0.4559
13440TIP3    H261736   4.593   5.043  12.102 -1.8004 -0.3206 -0.2005
13441TIP3   OH261737   3.408   1.988   4.214 -0.3224 -0.5856 -0.0030
13441TIP3    H161738   3.367   1.914   4.259  0.9136 -1.4974 -0.3510
13441TIP3    H261739   3.493   1.998   4.257  0.1875 -0.4080 -1.0431
13442TIP3   OH261740   0.060   6.285   2.428  0.0539 -0.4836  0.1693
13442TIP3    H161741   0.118   6.294   2.352 -0.7702  1.0826 -0.3142
13442TIP3    H261742  -0.015   6.235   2.396  0.1645 -0.6890  0.2286
13443TIP3   OH261743   5.813   3.600  13.714 -0.3218  0.3759 -0.7237
13443TIP3    H161744   5.795   3.664  13.783  1.0086  0.6621 -0.6255
13443TIP3    H261745   5.868   3.534  13.757  1.1659  0.9518 -1.6749
13444TIP3   OH261746   6.142   5.026   0.608 -0.2451  0.1573 -0.2746
13444TIP3    H161747   6.234   5.009   0.626 -0.1829 -0.6019 -1.2476
13444TIP3    H261748   6.137   5.122   0.598  0.0030  0.4467  1.9731
13445TIP3   OH261749   1.843   6.239   3.221  0.1033 -0.3467 -0.1459
13445TIP3    H161750   1.918   6.276   3.174  0.9386 -1.0175  0.6169
13445TIP3    H261751   1.782   6.214   3.152  0.8965 -0.4532 -0.8327
13446TIP3   OH261752   4.656   0.215  12.844 -0.6409 -0.2648 -0.6847
13446TIP3    H161753   4.684   0.212  12.936  0.4091 -0.5861 -0.9930
13446TIP3    H261754   4.592   0.285  12.841 -2.8664 -2.0509  0.8452
13447TIP3   OH261755   6.630   6.549   3.629  0.1802  0.2021  0.1785
13447TIP3    H161756   6.702   6.513   3.577 -1.4893  0.9124 -2.8801
13447TIP3    H261757   6.670   6.619   3.680  1.9602 -0.6037 -0.0376
13448TIP3   OH261758   2.379   2.573   2.839 -0.2443  0.1079  0.5647
13448TIP3    H161759   2.379   2.519   2.918  1.2518  1.8558  1.8586
13448TIP3    H261760   2.456   2.545   2.791 -1.1354 -0.9309 -0.2943
13449TIP3   OH261761   2.575   2.127   4.407  0.2234  0.3235 -0.0089
13449TIP3    H161762   2.566   2.034   4.387 -0.5337  0.7195 -1.6292
13449TIP3    H261763   2.655   2.132   4.460  0.8031 -1.1392 -0.6964
13450TIP3   OH261764   2.137   6.783  12.699  0.0520 -0.4564 -0.5611
13450TIP3    H161765   2.095   6.696  12.704 -1.1033  0.1120  0.1171
13450TIP3    H261766   2.124   6.820  12.786  0.8998  0.2438 -0.7289
13451TIP3   OH261767   6.531   4.163   2.871 -0.0783  0.2718  0.2694
13451TIP3    H161768   6.571   4.124   2.793  1.7749  1.3459  0.6335
13451TIP3    H261769   6.442   4.128   2.871  0.0265 -0.2026 -2.0260
13452TIP3   OH261770   1.659   5.267   2.046  0.0580 -0.3281 -0.1273
13452TIP3    H161771   1.699   5.271   2.133 -0.2027  1.9120 -0.0667
13452TIP3    H261772   1.733   5.253   1.986  0.3686 -0.7407  0.3435
13453TIP3   OH261773   2.551   6.056   3.658  0.4378  0.8775 -0.7119
13453TIP3    H161774   2.559   5.962   3.669 -1.9511  0.4184 -2.1088
13453TIP3    H261775   2.613   6.093   3.721  0.7228 -1.5845  0.5809
13454TIP3   OH261776   4.994   5.913   1.492 -0.3910 -0.0213 -0.2812
13454TIP3    H161777   5.087   5.933   1.490  0.0280 -1.9079 -1.8567
13454TIP3    H261778   4.971   5.892   1.402 -2.1204 -0.5582  0.2361
13455TIP3   OH261779   1.792   1.991   1.064  0.4363  0.6344 -0.6321
13455TIP3    H161780   1.876   1.965   1.101 -0.0649  0.3924  0.3987
13455TIP3    H261781   1.730   1.978   1.136 -0.2640  2.1340 -0.9254
13456TIP3   OH261782   2.918   4.592   0.922 -0.2451 -0.6479  0.0139
13456TIP3    H161783   2.912   4.676   0.877 -1.3415 -0.6186  0.1998
13456TIP3    H261784   2.995   4.601   0.979 -0.6830  0.4450  0.4653
13457TIP3   OH261785   5.180   5.140   4.508  0.2082 -0.5025 -0.1108
13457TIP3    H161786   5.251   5.105   4.454  0.5995 -0.7403  0.5453
13457TIP3    H261787   5.100   5.102   4.471  0.4739 -0.6953 -0.4918
13458TIP3   OH261788   3.934   0.513   4.638 -0.1858  0.4749 -0.4427
13458TIP3    H161789   4.014   0.565   4.635  0.9952 -1.1484  1.2520
13458TIP3    H261790   3.954   0.440   4.696 -2.1680 -1.2252 -1.7333
13459TIP3   OH261791   2.822   5.429   3.633  0.4770  0.1969 -0.2139
13459TIP3    H161792   2.815   5.334   3.638  0.9817  0.0111 -2.2550
13459TIP3    H261793   2.736   5.458   3.602  0.0093  0.5241  1.3177
13460TIP3   OH261794   6.457   6.462  10.624 -0.1368 -0.0746  0.0986
13460TIP3    H161795   6.483   6.463  10.532 -0.6035  1.8993 -0.0551
13460TIP3    H261796   6.421   6.549  10.640 -0.5509 -0.5461  2.0245
13461TIP3   OH261797   5.248   1.199   1.586  0.9836  0.2606  0.1528
13461TIP3    H161798   5.310   1.162   1.648  0.1239 -1.3074  0.1418
13461TIP3    H261799   5.164   1.196   1.631  0.8438  2.1363  0.0883
13462TIP3   OH261800   6.419   2.825  13.824  0.1847 -0.1750 -0.3300
13462TIP3    H161801   6.428   2.804  13.918  0.7352  1.0278 -0.1022
13462TIP3    H261802   6.354   2.763  13.793  0.8030 -1.3498  0.6037
13463TIP3   OH261803   6.980   0.903   2.751 -0.0908  0.2204  0.0051
13463TIP3    H161804   7.019   0.822   2.783  0.4847  0.8280  0.8788
13463TIP3    H261805   7.022   0.919   2.667  1.4886  0.7934  0.8717
13464TIP3   OH261806   4.520   6.133  15.132 -0.2751 -0.5768  0.2284
13464TIP3    H161807   4.546   6.043  15.150  1.4720 -0.3450 -0.8944
13464TIP3    H261808   4.426   6.128  15.117 -0.2475 -2.1737  0.3727
13465TIP3   OH261809   5.134   6.040   2.129 -0.5932 -0.0900  0.3324
13465TIP3    H161810   5.171   6.046   2.041 -1.8232  0.7035 -0.1443
13465TIP3    H261811   5.116   6.130   2.155 -2.7174 -0.4398  0.2917
13466TIP3   OH261812   4.735   2.967  13.542 -0.1878 -0.2486  0.2506
13466TIP3    H161813   4.732   2.879  13.581 -2.3181 -0.1172  0.5050
13466TIP3    H261814   4.778   2.954  13.458 -0.1159 -1.4696  0.4490
13467TIP3   OH261815   4.177   5.144   0.092  0.7423  0.3588  0.2121
13467TIP3    H161816   4.108   5.185   0.040  0.5950 -0.2236 -0.0563
13467TIP3    H261817   4.142   5.058   0.115  1.4168  0.0176 -0.0138
13468TIP3   OH261818   0.043   3.156  12.381 -0.5330  0.4383 -0.2314
13468TIP3    H161819  -0.002   3.101  12.445  1.5860 -1.1384  0.0449
13468TIP3    H261820   0.126   3.111  12.366  0.3250  2.3913 -1.7983
13469TIP3   OH261821   2.127   1.372   5.189 -0.6488 -0.2186 -0.2293
13469TIP3    H161822   2.208   1.377   5.138  0.5594  0.1540  1.6100
13469TIP3    H261823   2.123   1.455   5.236 -1.7544 -0.5109  0.2230
13470TIP3   OH261824   6.464   5.487  15.489 -0.4178  0.0026  0.4524
13470TIP3    H161825   6.398   5.467  15.555 -0.1809 -0.2485  0.6093
13470TIP3    H261826   6.538   5.430  15.509  0.1301  0.7696  0.7002
13471TIP3   OH261827   1.920   5.927  10.732 -0.0718 -0.5320  0.0164
13471TIP3    H161828   1.899   5.849  10.681 -0.4492 -0.6289  0.3155
13471TIP3    H261829   2.016   5.926  10.739 -0.0244 -0.5609 -0.6173
13472TIP3   OH261830   0.014   4.518  15.116 -0.2935  0.4130  0.7329
13472TIP3    H161831   0.050   4.595  15.072  1.6843 -0.4545  0.7032
13472TIP3    H261832  -0.050   4.553  15.178 -1.6460  1.8144 -1.3211
13473TIP3   OH261833   1.375   5.143   1.712 -0.5194 -0.3365 -0.4041
13473TIP3    H161834   1.461   5.173   1.682  0.3998 -1.0615  1.3631
13473TIP3    H261835   1.356   5.066   1.657  0.4865 -0.8328 -0.0829
13474TIP3   OH261836   6.934   6.097   0.535 -0.1613 -0.2839 -0.4469
13474TIP3    H161837   6.952   6.190   0.546  1.0833 -0.6902  1.7637
13474TIP3    H261838   7.008   6.054   0.580 -1.2053 -2.3030 -0.5651
13475TIP3   OH261839   5.696   0.863   2.579  0.3819  0.2181 -0.1013
13475TIP3    H161840   5.667   0.808   2.506 -0.8529 -0.4230  0.8232
13475TIP3    H261841   5.706   0.801   2.652  2.1367  0.7572  0.1508
13476TIP3   OH261842   6.420   2.623  11.590 -0.4420  0.3135 -0.0969
13476TIP3    H161843   6.491   2.559  11.597  0.7708  1.3833 -1.7536
13476TIP3    H261844   6.347   2.575  11.552  0.7534  0.0598 -2.1940
13477TIP3   OH261845   6.702   3.813   3.691  0.5409  0.0063  0.5201
13477TIP3    H161846   6.789   3.804   3.729  0.3010  0.3198  1.1512
13477TIP3    H261847   6.642   3.809   3.766  0.0326  0.1417  0.1290
13478TIP3   OH261848   3.658   0.310   1.642  0.0685  0.2351 -0.5263
13478TIP3    H161849   3.673   0.401   1.616  0.9933 -0.3681 -2.2430
13478TIP3    H261850   3.586   0.315   1.705  1.6056  2.3686  1.2262
13479TIP3   OH261851   0.463   6.198   4.703  0.2395 -0.0795  0.0074
13479TIP3    H161852   0.523   6.125   4.715  0.5901  0.3399  0.9103
13479TIP3    H261853   0.518   6.276   4.708 -0.2749  0.2869  0.0874
13480TIP3   OH261854   4.313   2.935   2.426 -0.0770  0.0893  0.3203
13480TIP3    H161855   4.359   3.000   2.373  0.3301  0.6317  1.3136
13480TIP3    H261856   4.234   2.980   2.457 -0.2356 -0.1723  0.3033
13481TIP3   OH261857   0.519   6.433   5.734  0.4128 -0.1176 -0.2672
13481TIP3    H161858   0.591   6.487   5.768  0.4891  1.0296 -2.0925
13481TIP3    H261859   0.558   6.387   5.659 -0.6722  0.3312 -1.1264
13482TIP3   OH261860   2.116   3.511  11.629  0.5534 -0.5597 -0.6593
13482TIP3    H161861   2.118   3.433  11.684  0.2006 -0.7262 -0.8799
13482TIP3    H261862   2.045   3.563  11.665 -0.1020 -0.9659 -1.3602
13483TIP3   OH261863   0.721   2.798   1.225  0.4445  0.9017 -0.2029
13483TIP3    H161864   0.682   2.710   1.218  1.3463  0.3705  1.0568
13483TIP3    H261865   0.799   2.794   1.169 -0.2972  1.4027 -1.3185
13484TIP3   OH261866   0.213   1.664  13.160  0.1357  0.7361  0.3975
13484TIP3    H161867   0.158   1.739  13.137  0.8042  1.6690  1.7630
13484TIP3    H261868   0.269   1.695  13.230  2.0896 -0.3342 -0.5932
13485TIP3   OH261869   6.166   4.406  13.045  0.4179 -0.0707 -0.2769
13485TIP3    H161870   6.203   4.486  13.082 -0.2417 -0.0526  0.3717
13485TIP3    H261871   6.080   4.432  13.014  1.2871  0.1377 -2.7410
13486TIP3   OH261872   1.957   5.508  13.006 -0.0377  0.5202  0.4740
13486TIP3    H161873   1.880   5.555  13.038 -0.3130  0.0723  0.4702
13486TIP3    H261874   1.924   5.448  12.940  0.4981  1.2501 -0.4816
13487TIP3   OH261875   3.191   2.129   3.947 -1.1411 -0.2028  0.1248
13487TIP3    H161876   3.260   2.130   4.013  0.2900  0.4150 -1.3046
13487TIP3    H261877   3.153   2.041   3.953 -1.8445  0.2126  2.4982
13488TIP3   OH261878   6.035   3.072   3.678  0.7872 -0.1548  0.1932
13488TIP3    H161879   6.055   3.028   3.595  0.8505  0.2028  0.0156
13488TIP3    H261880   5.964   3.131   3.658  1.0496  0.2037  0.3078
13489TIP3   OH261881   1.366   2.373   1.771 -0.0534  0.0483  0.2850
13489TIP3    H161882   1.421   2.371   1.693 -2.2706  1.3687 -1.4396
13489TIP3    H261883   1.280   2.402   1.739 -1.5414 -1.0390  2.9489
13490TIP3   OH261884   1.554   4.913  10.973 -0.3093 -0.2919  0.1817
13490TIP3    H161885   1.547   4.832  10.922  0.1008  0.1490 -0.5885
13490TIP3    H261886   1.514   4.979  10.918 -0.8123  0.0039  0.8911
13491TIP3   OH261887   3.633   1.971   3.614 -0.2164  0.0032 -0.1969
13491TIP3    H161888   3.697   1.949   3.547 -0.2165  3.0167 -1.3236
13491TIP3    H261889   3.552   1.929   3.585  0.6239 -1.7925 -0.0545
13492TIP3   OH261890   2.620   1.541   2.045  0.4806 -0.0549  0.6967
13492TIP3    H161891   2.705   1.520   2.006  0.2335  0.2705 -0.0286
13492TIP3    H261892   2.591   1.619   1.998 -0.6767 -0.7331  0.2484
13493TIP3   OH261893   1.366   6.310  11.215 -0.1006  0.6958  0.7506
13493TIP3    H161894   1.457   6.296  11.190 -0.3347 -0.5546  0.5613
13493TIP3    H261895   1.340   6.230  11.261 -1.2506  0.8154  0.3568
13494TIP3   OH261896   0.986   0.251   4.269 -0.3193  0.1676 -0.4050
13494TIP3    H161897   0.940   0.198   4.335 -0.3357 -2.1652 -2.1423
13494TIP3    H261898   1.051   0.191   4.232  0.3769  1.7210 -1.8054
13495TIP3   OH261899   4.293   4.907   2.871  0.4681 -0.1292  0.1892
13495TIP3    H161900   4.303   4.980   2.932 -1.5991 -0.1517  0.5976
13495TIP3    H261901   4.336   4.938   2.791  3.4150 -0.1788  1.5925
13496TIP3   OH261902   5.464   0.547   5.342 -0.0592  0.5116  0.3792
13496TIP3    H161903   5.403   0.500   5.398  0.2998  2.0999  2.2305
13496TIP3    H261904   5.546   0.548   5.391  1.6015 -1.6773 -2.1058
13497TIP3   OH261905   3.733   3.840  12.646  0.0783 -0.2381  0.0062
13497TIP3    H161906   3.652   3.891  12.646  0.0591 -0.2690 -0.0541
13497TIP3    H261907   3.727   3.786  12.725  0.0964 -0.1501  0.0681
13498TIP3   OH261908   4.666   3.960  12.144 -0.0780  0.4064 -0.0295
13498TIP3    H161909   4.737   4.011  12.182  0.3279 -1.6138  2.1391
13498TIP3    H261910   4.587   3.999  12.180  0.2231 -0.3625  1.5534
13499TIP3   OH261911   5.058   5.210   1.836  0.2410  0.0076  0.0902
13499TIP3    H161912   4.969   5.241   1.854 -0.4873 -1.0281 -1.4550
13499TIP3    H261913   5.057   5.118   1.860  1.2222  0.2295  1.0224
13500TIP3   OH261914   3.197   1.705   0.474  0.8991 -0.1432 -0.4822
13500TIP3    H161915   3.118   1.652   0.473 -0.4136  1.7334 -1.4730
13500TIP3    H261916   3.171   1.788   0.434  3.6744  0.1026 -2.0576
13501TIP3   OH261917   0.578   1.360   2.302  0.5206  0.4908  0.7483
13501TIP3    H161918   0.537   1.442   2.276 -1.4607 -0.3345  1.1060
13501TIP3    H261919   0.576   1.362   2.398  1.1462  0.3419  0.7677
13502TIP3   OH261920   3.139   3.680  13.137  0.1837 -0.0913 -0.2025
13502TIP3    H161921   3.083   3.622  13.086  1.8995 -0.5795 -1.6471
13502TIP3    H261922   3.157   3.754  13.078  1.6566 -0.3309 -0.0971
13503TIP3   OH261923   4.755   2.326   2.229 -0.5730 -0.7638  0.2686
13503TIP3    H161924   4.790   2.238   2.215 -0.2635 -0.6480  0.3061
13503TIP3    H261925   4.775   2.345   2.321 -1.5790 -1.0703  0.5684
13504TIP3   OH261926   6.797   2.543  12.612 -0.4384 -0.2396 -0.6187
13504TIP3    H161927   6.752   2.475  12.661 -1.5002  0.7386 -0.1723
13504TIP3    H261928   6.777   2.624  12.659 -0.4061  0.5601 -1.9167
13505TIP3   OH261929   4.141   1.978  14.885 -0.2633  0.0642 -0.9052
13505TIP3    H161930   4.170   2.002  14.798  0.4423 -1.5547 -1.1554
13505TIP3    H261931   4.221   1.955  14.932 -0.6267  0.9483  0.2000
13506TIP3   OH261932   1.449   3.318   3.516 -0.8789 -0.2084 -0.1321
13506TIP3    H161933   1.381   3.371   3.474  1.1690  3.7688  1.1109
13506TIP3    H261934   1.509   3.295   3.446 -1.6812 -0.8079 -0.6486
13507TIP3   OH261935   4.236   6.339  14.526  0.2228 -0.1394 -0.6039
13507TIP3    H161936   4.212   6.394  14.600 -0.2316 -1.0504 -0.0497
13507TIP3    H261937   4.228   6.396  14.450 -0.0971  0.5934 -0.0327
13508TIP3   OH261938   5.470   1.357  14.937  0.2333  0.3663  0.2538
13508TIP3    H161939   5.434   1.269  14.950  2.0110 -0.4222  0.0657
13508TIP3    H261940   5.564   1.348  14.952  0.3077  2.5335  1.5896
13509TIP3   OH261941   3.679   6.846   4.108 -0.5499 -0.9379  0.3091
13509TIP3    H161942   3.763   6.816   4.144 -0.6270 -0.8237  0.5894
13509TIP3    H261943   3.638   6.894   4.180  0.8592  2.4722 -0.9600
13510TIP3   OH261944   0.334   4.300   4.232 -0.3633 -0.2057  0.0975
13510TIP3    H161945   0.334   4.389   4.198  1.1772  1.0035  2.8897
13510TIP3    H261946   0.272   4.302   4.305 -0.3211 -1.4211  0.1900
13511TIP3   OH261947   5.168   1.341   5.791 -0.1465  0.3863  0.0351
13511TIP3    H161948   5.095   1.401   5.809  0.3651  1.6119 -1.6600
13511TIP3    H261949   5.125   1.258   5.769 -1.0142  0.8459 -0.0856
13512TIP3   OH261950   0.225   7.128   1.919 -0.3043  0.4792  0.1483
13512TIP3    H161951   0.277   7.051   1.943 -0.1679  0.5063 -0.0621
13512TIP3    H261952   0.191   7.108   1.832  0.5580  1.0787 -0.3430
13513TIP3   OH261953   0.149   4.627   9.869  0.3912 -0.3973 -0.2973
13513TIP3    H161954   0.185   4.560   9.811  1.4581 -0.7310  0.7048
13513TIP3    H261955   0.064   4.649   9.831  0.3830 -1.7160 -1.1036
13514TIP3   OH261956   0.298   5.405  11.888 -0.4895 -0.0791 -0.4021
13514TIP3    H161957   0.392   5.390  11.878 -0.2104  1.8593 -0.9962
13514TIP3    H261958   0.292   5.471  11.957 -1.2352  1.5704 -1.9782
13515TIP3   OH261959   2.389   3.142   5.214 -0.6576 -0.2518  0.3907
13515TIP3    H161960   2.451   3.116   5.282  1.3790  0.5202 -1.0634
13515TIP3    H261961   2.417   3.230   5.189 -0.4027 -1.0360 -2.4084
13516TIP3   OH261962   6.961   3.625   0.561 -0.0088 -0.1647 -1.0400
13516TIP3    H161963   6.972   3.547   0.615  0.4317  0.4221 -0.2727
13516TIP3    H261964   7.034   3.623   0.499  0.1313 -0.2373 -0.8703
13517TIP3   OH261965   0.367   4.847   1.693 -0.0794 -0.2349  0.3623
13517TIP3    H161966   0.323   4.909   1.635  1.2524  0.3788 -0.0257
13517TIP3    H261967   0.438   4.810   1.641 -0.1389 -1.2511  0.9569
13518TIP3   OH261968   3.462   4.841  11.745  0.2884  0.2509 -0.5393
13518TIP3    H161969   3.519   4.893  11.688  2.2940 -0.7735  0.4418
13518TIP3    H261970   3.506   4.842  11.830 -0.8721 -1.0774  0.1013
13519TIP3   OH261971   6.547   1.263   3.585 -0.0156 -0.5599  0.2157
13519TIP3    H161972   6.512   1.221   3.663  0.2960 -2.0375 -0.4117
13519TIP3    H261973   6.639   1.237   3.584  0.3336  0.6111  0.0929
13520TIP3   OH261974   2.719   3.299   4.294 -0.0148 -0.0658 -0.3426
13520TIP3    H161975   2.691   3.286   4.385  0.4383  3.7654  0.5050
13520TIP3    H261976   2.803   3.345   4.301 -0.4538  1.2205 -2.6388
13521TIP3   OH261977   4.224   6.607  12.671  0.6325 -0.3073 -0.4600
13521TIP3    H161978   4.183   6.523  12.651 -1.7083  0.2226  1.5726
13521TIP3    H261979   4.156   6.672  12.650  0.9655  0.7548  1.5670
13522TIP3   OH261980   0.560   1.358   3.385  0.2016 -0.5743 -0.0277
13522TIP3    H161981   0.624   1.338   3.454  1.5912 -0.6169 -1.2902
13522TIP3    H261982   0.512   1.277   3.373  1.7941 -1.4376 -0.9509
13523TIP3   OH261983   2.798   1.237  14.772 -0.2554  0.0049 -0.2687
13523TIP3    H161984   2.721   1.186  14.796  0.0004 -1.1219 -1.7162
13523TIP3    H261985   2.872   1.186  14.803  0.0195 -0.7832 -2.1121
13524TIP3   OH261986   4.533   2.846   4.714  0.8492 -0.4074  0.3895
13524TIP3    H161987   4.533   2.908   4.641  0.3695  0.0409  0.7759
13524TIP3    H261988   4.441   2.825   4.728  0.8531  0.3215  1.5685
13525TIP3   OH261989   2.694   2.244   4.905  0.4102  0.5145  0.5444
13525TIP3    H161990   2.632   2.190   4.857  1.9118 -1.8564  1.1488
13525TIP3    H261991   2.650   2.260   4.989  1.2969 -2.8947  1.7973
13526TIP3   OH261992   6.093   6.074   0.068 -0.1275  0.6352  0.0642
13526TIP3    H161993   6.091   5.979   0.071 -1.8559  0.6557  0.5242
13526TIP3    H261994   6.104   6.095  -0.025 -1.0535 -0.0206 -0.2012
13527TIP3   OH261995   2.582   1.799   5.073 -0.5769 -0.0538 -0.4133
13527TIP3    H161996   2.594   1.855   5.150  0.0067 -0.0165 -0.5276
13527TIP3    H261997   2.591   1.710   5.107 -0.4966 -0.0433 -0.4066
13528TIP3   OH261998   5.220   1.555   2.082 -0.0584  0.1856  0.9552
13528TIP3    H161999   5.126   1.541   2.087 -0.3625  1.7964  0.3953
13528TIP3    H262000   5.258   1.481   2.130 -1.5812 -0.5671  1.0703
13529TIP3   OH262001   1.681   1.307   5.303 -0.0154 -0.4447  0.1032
13529TIP3    H162002   1.680   1.233   5.363  2.6348 -1.4751 -0.9693
13529TIP3    H262003   1.661   1.269   5.217  1.1992  0.0574 -0.4311
13530TIP3   OH262004   5.464   1.232   3.345 -0.2394 -0.0860  0.4139
13530TIP3    H162005   5.444   1.237   3.439  1.0143  1.5347  0.6457
13530TIP3    H262006   5.405   1.295   3.305  1.3365  1.5765  0.5687
13531TIP3   OH262007   2.274   5.485   2.838 -0.0329 -0.0529 -0.3386
13531TIP3    H162008   2.354   5.476   2.788  0.3968  1.1121  0.1047
13531TIP3    H262009   2.287   5.564   2.891 -0.2123 -1.5340  2.0488
13532TIP3   OH262010   3.397   1.625  13.587 -0.7139 -0.0357 -0.2546
13532TIP3    H162011   3.336   1.578  13.530 -2.2094  0.1240  1.1411
13532TIP3    H262012   3.476   1.634  13.535 -1.6521 -0.8374 -1.9007
13533TIP3   OH262013   1.933   1.195  12.689 -0.0001  0.1562  0.3851
13533TIP3    H162014   1.972   1.139  12.756 -0.7990 -0.7204  0.1398
13533TIP3    H262015   2.004   1.211  12.627 -0.1948 -2.2304 -0.5828
13534TIP3   OH262016   4.405   7.070   3.295  0.1750  0.0337 -0.2242
13534TIP3    H162017   4.318   7.086   3.332  0.5945 -1.1044  1.3826
13534TIP3    H262018   4.462   7.067   3.372  1.1511 -2.2476 -0.9755
13535TIP3   OH262019   5.743   0.683  13.001  0.1778  0.1705 -0.3614
13535TIP3    H162020   5.731   0.778  13.000  1.2891  0.3459 -1.9707
13535TIP3    H262021   5.654   0.648  13.010 -0.1057  1.3214  1.9806
13536TIP3   OH262022   2.615   3.493   0.172  0.0680  0.2103 -0.3067
13536TIP3    H162023   2.644   3.405   0.148  2.2807  0.9331 -0.5206
13536TIP3    H262024   2.565   3.524   0.096  0.2672 -0.4408 -0.7063
13537TIP3   OH262025   4.078   6.706   3.984 -0.2989 -0.2420 -0.7025
13537TIP3    H162026   4.025   6.768   4.034  0.2580 -0.7542  0.5530
13537TIP3    H262027   4.147   6.760   3.945 -0.4281  0.0895 -0.4793
13538TIP3   OH262028   2.453   4.459   1.300  0.0192  0.0593 -0.6460
13538TIP3    H162029   2.420   4.403   1.369 -0.3093 -1.6082 -2.0801
13538TIP3    H262030   2.546   4.469   1.318 -0.0755 -0.3148  0.0460
13539TIP3   OH262031   5.542   2.794   1.385 -0.1546 -0.2504  0.2977
13539TIP3    H162032   5.604   2.802   1.313 -0.9910  0.5500 -0.3562
13539TIP3    H262033   5.597   2.787   1.463  0.7557  0.9269 -0.2100
13540TIP3   OH262034   0.690   5.630   5.064 -0.3640 -0.1979  0.4200
13540TIP3    H162035   0.728   5.555   5.110  1.1590  0.3531  0.1003
13540TIP3    H262036   0.688   5.700   5.129 -1.9656 -0.5212  0.7751
13541TIP3   OH262037   2.520   4.829  14.734 -0.1292  0.3687 -0.3291
13541TIP3    H162038   2.573   4.891  14.783 -0.4244  0.4345 -0.0943
13541TIP3    H262039   2.560   4.826  14.647  0.4609  0.1648 -0.0505
13542TIP3   OH262040   3.073   2.500  14.641 -0.3353 -0.5697 -0.0386
13542TIP3    H162041   2.992   2.548  14.657  0.7288  1.2754  0.0649
13542TIP3    H262042   3.048   2.434  14.576 -1.1883  2.3671 -2.9774
13543TIP3   OH262043   6.950   5.256   0.904 -0.3320 -0.0069 -0.0634
13543TIP3    H162044   7.032   5.218   0.935 -0.6682 -0.0813  0.7776
13543TIP3    H262045   6.970   5.290   0.817  0.4766 -0.3984 -0.0361
13544TIP3   OH262046   5.763   6.298   1.835  0.2320  0.3043 -0.5823
13544TIP3    H162047   5.774   6.208   1.864  1.2377  0.2038 -1.2445
13544TIP3    H262048   5.771   6.350   1.915  0.3721 -0.1389 -0.3046
13545TIP3   OH262049   2.812   2.230   4.527 -0.1368 -0.2052  0.5143
13545TIP3    H162050   2.848   2.165   4.586  2.3546 -0.0528 -0.7085
13545TIP3    H262051   2.877   2.300   4.525 -0.4646  0.1383 -1.7949
13546TIP3   OH262052   4.207   0.845  11.220 -0.3148 -0.0009 -0.0664
13546TIP3    H162053   4.192   0.915  11.156 -1.3905  1.1180  1.3520
13546TIP3    H262054   4.121   0.805  11.231  0.1486 -1.0946 -0.3137
13547TIP3   OH262055   6.579   6.600   2.919  0.4113  0.2472 -0.3146
13547TIP3    H162056   6.589   6.581   2.826 -1.2646 -1.2334 -0.2615
13547TIP3    H262057   6.667   6.591   2.955  1.0402  0.5707 -1.7054
13548TIP3   OH262058   2.898   5.452   2.722 -0.4116 -0.5273  0.2401
13548TIP3    H162059   2.923   5.427   2.811 -0.7179 -1.1597  0.1538
13548TIP3    H262060   2.932   5.541   2.712  1.9779 -1.3891  0.0487
13549TIP3   OH262061   0.630   4.719   5.995  0.5816  0.7443  0.6251
13549TIP3    H162062   0.682   4.787   6.038  2.6851  0.3684 -1.1530
13549TIP3    H262063   0.563   4.768   5.946  0.3360  1.3493  1.5431
13550TIP3   OH262064   4.547   1.870  11.161 -0.4059  0.5421  0.2139
13550TIP3    H162065   4.543   1.925  11.239 -1.3099  0.8213 -0.0199
13550TIP3    H262066   4.468   1.817  11.165  0.2373 -0.4391  0.2020
13551TIP3   OH262067   1.516   0.307   5.876  0.3810 -0.5797  0.0546
13551TIP3    H162068   1.554   0.384   5.918  0.9278 -0.7628 -0.0995
13551TIP3    H262069   1.494   0.248   5.948  1.8589 -1.1426  0.0700
13552TIP3   OH262070   2.486   0.469   1.981 -0.4241  0.3726 -0.8233
13552TIP3    H162071   2.429   0.401   2.018  0.7010 -0.2737 -0.2417
13552TIP3    H262072   2.469   0.546   2.036 -1.2147  0.3831 -1.0690
13553TIP3   OH262073   4.961   0.191  15.158  0.0304  0.1948  0.3319
13553TIP3    H162074   4.923   0.205  15.245  0.9915  0.8385  0.6683
13553TIP3    H262075   4.919   0.111  15.126 -1.7662  1.0083  0.5662
13554TIP3   OH262076   1.320   2.596   2.755  0.2084  0.9183  0.3253
13554TIP3    H162077   1.320   2.655   2.831 -0.8921  1.5571 -0.1430
13554TIP3    H262078   1.237   2.615   2.710 -0.2441 -1.1013  0.2339
13555TIP3   OH262079   1.485   4.296   2.412 -0.6013 -0.1223  0.6684
13555TIP3    H162080   1.513   4.306   2.503 -1.0843 -0.2140  0.8311
13555TIP3    H262081   1.429   4.218   2.413 -1.3821  0.4210  0.4817
13556TIP3   OH262082   5.584   1.873   0.411 -0.1611  0.2378 -0.1610
13556TIP3    H162083   5.562   1.860   0.318 -0.1356 -0.0634 -0.1245
13556TIP3    H262084   5.669   1.917   0.409 -0.6927  1.3174 -0.3018
13557TIP3   OH262085   4.195   3.392  15.312  0.2694 -0.0014 -0.0789
13557TIP3    H162086   4.128   3.347  15.363  0.6518  2.2299  2.6552
13557TIP3    H262087   4.153   3.472  15.280  0.9035  0.1231 -0.6501
13558TIP3   OH262088   5.007   0.791   4.581  0.2009  0.4877 -0.3547
13558TIP3    H162089   4.933   0.851   4.572 -0.6030 -0.5408 -0.8063
13558TIP3    H262090   5.014   0.775   4.675 -0.0551  0.7083 -0.3000
13559TIP3   OH262091   1.278   6.547   0.758  0.6179 -0.5309 -0.5543
13559TIP3    H162092   1.356   6.492   0.772  0.9856 -0.0938 -0.8660
13559TIP3    H262093   1.236   6.551   0.844  1.0269 -0.6424 -0.3436
13560TIP3   OH262094   2.700   6.650   4.244  0.4150 -0.8189 -0.1854
13560TIP3    H162095   2.721   6.700   4.165 -0.8958 -1.5867 -1.0794
13560TIP3    H262096   2.749   6.692   4.314 -0.7925  1.8616 -0.8309
13561TIP3   OH262097   4.457   5.970   0.384 -0.1685 -0.6017  0.4538
13561TIP3    H162098   4.499   6.031   0.445  2.1429  2.0169 -3.2655
13561TIP3    H262099   4.520   5.899   0.374 -0.4626 -0.9360  0.9703
13562TIP3   OH262100   5.668   5.616   5.459  0.0840 -0.3912  0.1120
13562TIP3    H162101   5.611   5.561   5.404  0.1691 -1.6516  1.2320
13562TIP3    H262102   5.620   5.627   5.541 -0.2793  1.9256 -0.3466
13563TIP3   OH262103   5.443   5.373   1.685 -0.0666 -0.6348  0.5447
13563TIP3    H162104   5.405   5.358   1.772 -1.5564 -1.2949 -0.1813
13563TIP3    H262105   5.399   5.308   1.629  0.0788  0.4865 -0.9111
13564TIP3   OH262106   3.184   3.127   2.118 -0.2019  0.2440 -0.1749
13564TIP3    H162107   3.187   3.074   2.039  2.2826 -0.6382  0.4255
13564TIP3    H262108   3.116   3.086   2.172 -0.1967 -0.6676 -0.8448
13565TIP3   OH262109   5.709   4.510   4.098  0.2409  0.2380 -0.1482
13565TIP3    H162110   5.735   4.450   4.168  0.5042  0.6138  0.0821
13565TIP3    H262111   5.780   4.504   4.034  1.0499  1.4302  0.5835
13566TIP3   OH262112   6.413   3.772  12.883  0.0083  0.1050 -0.0887
13566TIP3    H162113   6.465   3.818  12.816  0.3462 -0.3796 -0.1675
13566TIP3    H262114   6.363   3.707  12.834  0.2114 -0.2127  0.1191
13567TIP3   OH262115   1.303   4.090   2.364 -0.3684  0.4188 -0.0779
13567TIP3    H162116   1.225   4.077   2.310 -1.6391 -1.5583  2.0950
13567TIP3    H262117   1.360   4.017   2.342  0.1356  0.8881 -0.3732
13568TIP3   OH262118   6.752   6.987  10.720  0.0580 -0.1294  0.0965
13568TIP3    H162119   6.758   7.076  10.755 -0.3398 -0.6347  1.5344
13568TIP3    H262120   6.834   6.974  10.673  0.3551  0.8127  0.3378
13569TIP3   OH262121   7.030   3.466   1.878 -0.2732 -0.2078  0.5156
13569TIP3    H162122   7.055   3.554   1.851  0.5918 -0.1382  1.4618
13569TIP3    H262123   7.112   3.424   1.901 -0.5829 -1.5874 -0.7945
13570TIP3   OH262124   0.476   1.194   2.962 -0.3614 -0.3696  0.1419
13570TIP3    H162125   0.474   1.282   2.924 -0.7786 -0.4354  0.0042
13570TIP3    H262126   0.391   1.185   3.005 -0.1546 -0.5486  0.5151
13571TIP3   OH262127   0.413   4.235  14.437  0.3719 -0.0884  0.4959
13571TIP3    H162128   0.432   4.310  14.380 -0.5432 -0.6219 -0.5491
13571TIP3    H262129   0.317   4.227  14.435  0.3572 -0.4341  1.7257
13572TIP3   OH262130   1.329   3.986   4.204 -0.6349 -0.4896  0.3644
13572TIP3    H162131   1.355   3.944   4.122  1.4518 -1.7988  1.6018
13572TIP3    H262132   1.307   3.912   4.261 -1.2145  0.3584  1.2560
13573TIP3   OH262133   5.152   0.928   2.130 -0.3248  0.7661 -0.4249
13573TIP3    H162134   5.091   0.988   2.173  1.3400  1.2896  1.3283
13573TIP3    H262135   5.104   0.898   2.053 -3.3100  0.1392  1.4856
13574TIP3   OH262136   3.545   4.713   3.194 -0.3719  0.1196 -0.2800
13574TIP3    H162137   3.557   4.802   3.161 -1.6821  0.4052 -0.0436
13574TIP3    H262138   3.573   4.717   3.286  0.0906  0.1392 -0.4165
13575TIP3   OH262139   1.501   3.714  12.221  0.3521  0.3236 -0.5153
13575TIP3    H162140   1.587   3.756  12.214  0.2045  0.8205  0.4734
13575TIP3    H262141   1.458   3.761  12.293 -0.5968 -0.1794 -0.7486
13576TIP3   OH262142   2.896   1.181   1.740  0.0891  0.1912 -0.2038
13576TIP3    H162143   2.921   1.105   1.687  0.6336 -0.3071  0.7300
13576TIP3    H262144   2.971   1.239   1.735 -0.1606  0.4851 -0.5786
13577TIP3   OH262145   2.003   3.240  14.274  0.1294  0.2796  0.5189
13577TIP3    H162146   2.015   3.236  14.179 -3.5203  1.5007 -0.1579
13577TIP3    H262147   1.942   3.169  14.294  0.4656  0.3476  1.8893
13578TIP3   OH262148   1.044   2.274  15.077  0.1133 -0.0967 -0.3926
13578TIP3    H162149   1.096   2.309  15.150 -2.5638  0.3980  1.4520
13578TIP3    H262150   1.093   2.198  15.047  0.8443 -1.0301  2.7351
13579TIP3   OH262151   4.940   1.494   2.923 -0.3487 -0.1234 -0.1542
13579TIP3    H162152   4.868   1.542   2.882  0.0104  0.5247 -0.0385
13579TIP3    H262153   4.898   1.440   2.990 -0.5757  1.5808  1.1551
13580TIP3   OH262154   1.716   0.296  14.403 -0.0465 -0.2129  0.4236
13580TIP3    H162155   1.667   0.346  14.468  1.1000  0.3992  0.8514
13580TIP3    H262156   1.774   0.241  14.455  0.7906  0.1851 -0.0678
13581TIP3   OH262157   3.955   2.520   3.528 -0.6333 -0.0504  0.6442
13581TIP3    H162158   4.028   2.568   3.488  0.1722 -2.6295 -1.2703
13581TIP3    H262159   3.985   2.429   3.529 -3.2756 -0.9796  1.2153
13582TIP3   OH262160   4.006   4.336   1.828 -0.2053 -0.2989  0.4515
13582TIP3    H162161   4.001   4.422   1.786  0.0967  0.3842  1.7488
13582TIP3    H262162   4.034   4.277   1.759 -0.8814  0.5615 -0.5826
13583TIP3   OH262163   2.935   6.455   3.609 -0.1089 -0.3276 -0.1711
13583TIP3    H162164   2.951   6.533   3.557 -0.4609  0.0281  0.2459
13583TIP3    H262165   2.923   6.385   3.545  0.8823 -0.1732 -0.5293
13584TIP3   OH262166   5.964   6.906  15.356  0.1508 -0.2184 -0.0667
13584TIP3    H162167   6.029   6.973  15.334 -0.9980  1.9481  2.5281
13584TIP3    H262168   5.918   6.941  15.432 -1.6831 -3.2717  0.4143
13585TIP3   OH262169   0.071   1.226   3.887  0.2675  0.0083  0.2036
13585TIP3    H162170  -0.014   1.197   3.919  0.4184 -0.8458 -0.1474
13585TIP3    H262171   0.070   1.205   3.793  0.5708  0.6958  0.0383
13586TIP3   OH262172   4.123   5.156  14.501 -0.0058  0.2134  0.1490
13586TIP3    H162173   4.160   5.080  14.545  0.0639  0.0748 -0.1519
13586TIP3    H262174   4.083   5.121  14.422 -0.8600  0.3457  0.5094
13587TIP3   OH262175   2.828   3.485  13.800 -0.7395 -0.7968 -0.6249
13587TIP3    H162176   2.914   3.496  13.839 -1.5786  2.3327  0.6412
13587TIP3    H262177   2.830   3.540  13.722 -2.5753  2.5139  1.4129
13588TIP3   OH262178   6.735   4.898  13.411  0.1666 -0.6120 -0.2128
13588TIP3    H162179   6.751   4.900  13.316  1.3378  2.6239 -0.0672
13588TIP3    H262180   6.790   4.827  13.443 -0.6288 -2.0941 -1.9688
13589TIP3   OH262181   6.481   5.618   3.180  0.4349  0.6872  0.2949
13589TIP3    H162182   6.454   5.710   3.182 -0.1088  0.5246  0.6961
13589TIP3    H262183   6.574   5.621   3.161  0.7129  1.3920  1.6159
13590TIP3   OH262184   1.789   6.059  10.214 -0.0881 -0.1682  0.4376
13590TIP3    H162185   1.833   6.052  10.299 -0.6871 -1.9276  0.6350
13590TIP3    H262186   1.844   6.008  10.155  0.1673  0.8112 -0.1963
13591TIP3   OH262187   2.777   4.920   2.978 -0.3868 -0.1286 -0.4177
13591TIP3    H162188   2.826   4.906   2.898  0.3208 -0.0711  0.0024
13591TIP3    H262189   2.685   4.908   2.953 -0.2816  1.1552 -1.5143
13592TIP3   OH262190   2.537   0.482   5.152 -0.5597 -0.1694  0.4329
13592TIP3    H162191   2.561   0.390   5.139  0.1334  0.0064  0.4748
13592TIP3    H262192   2.616   0.523   5.185 -0.5103  0.6943 -0.6890
13593TIP3   OH262193   1.982   5.405  11.783 -0.2430 -0.4332  0.5506
13593TIP3    H162194   1.921   5.423  11.855 -0.9078  0.4373 -0.2018
13593TIP3    H262195   1.939   5.336  11.732 -1.1331  0.9021 -0.5631
13594TIP3   OH262196   7.072   4.592  14.033 -0.0555 -0.9465 -0.2423
13594TIP3    H162197   6.998   4.637  14.073  0.2034 -0.1148 -0.6664
13594TIP3    H262198   7.102   4.530  14.099 -2.2036 -2.5658 -0.6892
13595TIP3   OH262199   2.218   6.759   1.075  0.9027  0.1035  0.0149
13595TIP3    H162200   2.156   6.830   1.092  0.8922 -0.2133  1.4712
13595TIP3    H262201   2.279   6.795   1.011  1.2153  1.6432  1.1120
13596TIP3   OH262202   3.073   3.483   0.347  0.1618  0.1664  0.7076
13596TIP3    H162203   3.165   3.476   0.323 -0.3300 -0.6961 -1.1677
13596TIP3    H262204   3.053   3.399   0.390 -0.2692 -0.6707 -1.0351
13597TIP3   OH262205   1.083   1.615   3.534  0.7039  0.3254  0.2557
13597TIP3    H162206   1.047   1.703   3.543  0.1361  0.2101 -0.7231
13597TIP3    H262207   1.025   1.572   3.471  1.9134 -0.2237 -0.5362
13598TIP3   OH262208   2.696   2.896   2.796 -0.0011 -0.3495 -0.0646
13598TIP3    H162209   2.760   2.951   2.750  0.2079 -0.6538 -0.1343
13598TIP3    H262210   2.749   2.829   2.839 -0.0918  0.4674  1.3888
13599TIP3   OH262211   3.671   5.536  10.932 -0.6459  0.1459  0.7562
13599TIP3    H162212   3.596   5.569  10.882  0.2928 -0.2702 -1.0191
13599TIP3    H262213   3.659   5.441  10.932  0.3594 -0.0153 -0.4403
13600TIP3   OH262214   3.735   4.922   2.849 -0.1724 -0.1105  0.0700
13600TIP3    H162215   3.792   4.999   2.850 -0.1822 -0.1002  1.0746
13600TIP3    H262216   3.741   4.889   2.760  2.6351 -0.9985  0.4700
13601TIP3   OH262217   0.812   0.359   3.475 -0.1977 -0.5360 -0.4115
13601TIP3    H162218   0.902   0.328   3.466 -0.0970  0.0395 -1.6490
13601TIP3    H262219   0.762   0.281   3.499  0.5775 -0.9216 -0.0078
13602TIP3   OH262220   6.282   4.325   9.569  0.1830 -0.3626 -0.0427
13602TIP3    H162221   6.209   4.277   9.530 -0.4999 -2.5725  3.5117
13602TIP3    H262222   6.241   4.401   9.610  0.2949 -0.1960 -0.2355
13603TIP3   OH262223   0.422   4.914   1.305  0.8200  0.0377 -0.0712
13603TIP3    H162224   0.385   4.959   1.229  0.8911  1.2568  0.5874
13603TIP3    H262225   0.381   4.957   1.381  1.7154 -0.2625  0.6054
13604TIP3   OH262226   0.598   4.364  10.620  0.3816 -0.3567 -0.1201
13604TIP3    H162227   0.526   4.408  10.666  1.4631  1.3619  0.0238
13604TIP3    H262228   0.557   4.326  10.543 -0.7939  0.0631  0.2723
13605TIP3   OH262229   4.808   6.098   4.692  0.3048  0.2034  0.0652
13605TIP3    H162230   4.891   6.143   4.677  1.0688 -1.6471 -1.8747
13605TIP3    H262231   4.832   6.005   4.692 -1.2622 -0.3508  3.2565
13606TIP3   OH262232   4.702   5.826   2.876  0.1565 -0.5360 -0.4147
13606TIP3    H162233   4.683   5.733   2.884  0.1350 -0.3710  2.2218
13606TIP3    H262234   4.794   5.830   2.851  0.1433 -1.2429 -0.5926
13607TIP3   OH262235   6.776   3.394   1.408  0.0056 -0.3941 -0.6766
13607TIP3    H162236   6.715   3.455   1.365 -1.0702 -1.4171 -0.6589
13607TIP3    H262237   6.785   3.322   1.345  1.2923 -0.2052 -0.7184
13608TIP3   OH262238   0.103   5.142   4.242  0.0206 -0.4390 -0.3536
13608TIP3    H162239   0.180   5.181   4.283 -0.3511 -0.7879  0.7096
13608TIP3    H262240   0.126   5.135   4.150  0.4702  1.3781 -0.4272
13609TIP3   OH262241   2.248   4.855  15.142 -0.1774 -0.2603 -0.7331
13609TIP3    H162242   2.255   4.880  15.050  1.5274  1.6372 -0.1684
13609TIP3    H262243   2.258   4.938  15.190 -1.1389 -1.1874  1.1706
13610TIP3   OH262244   2.833   3.378   5.445 -0.0116  0.7096 -0.1942
13610TIP3    H162245   2.891   3.371   5.370  0.0095 -0.1612 -0.1180
13610TIP3    H262246   2.888   3.411   5.516  0.1859  0.6932 -0.3396
13611TIP3   OH262247   6.728   1.750   2.270 -0.1063  0.2613 -0.0416
13611TIP3    H162248   6.762   1.685   2.208 -1.4859 -0.0731 -0.4801
13611TIP3    H262249   6.674   1.808   2.217 -1.7166 -0.3230  0.8906
13612TIP3   OH262250   6.364   6.461  10.937  0.0478  0.0602  0.6302
13612TIP3    H162251   6.436   6.398  10.942  1.1434  1.1015 -1.1146
13612TIP3    H262252   6.322   6.442  10.854 -1.6284 -0.3940  1.5336
13613TIP3   OH262253   2.812   1.948  10.831 -0.2666 -0.4845 -0.0427
13613TIP3    H162254   2.784   2.039  10.822  0.6195 -0.1184  0.7099
13613TIP3    H262255   2.736   1.903  10.867 -1.0731 -0.2781 -1.4490
13614TIP3   OH262256   5.370   4.248   3.511  0.1130  0.1328 -0.1921
13614TIP3    H162257   5.453   4.234   3.556 -0.2355  0.8180  0.7089
13614TIP3    H262258   5.376   4.197   3.431  2.0617  1.4741 -0.9686
13615TIP3   OH262259   6.525   1.283  14.936  0.2060  0.2125  0.1096
13615TIP3    H162260   6.531   1.300  15.030  0.7212  1.4105 -0.1286
13615TIP3    H262261   6.615   1.285  14.905  0.2015 -1.6904 -0.1951
13616TIP3   OH262262   2.300   0.682   3.621  0.7466  0.3935 -0.3522
13616TIP3    H162263   2.245   0.607   3.643  0.7016  0.7332  0.7331
13616TIP3    H262264   2.368   0.684   3.688 -0.3529  2.4193  0.8091
13617TIP3   OH262265   5.243   0.922  15.630 -0.0021 -0.2055  0.1468
13617TIP3    H162266   5.260   0.895  15.540 -3.3942  2.1716 -1.4198
13617TIP3    H262267   5.236   0.839  15.679  2.3468 -1.5426 -1.5905
13618TIP3   OH262268   4.589   5.297   3.993 -0.3284 -0.2919 -0.2917
13618TIP3    H162269   4.526   5.363   4.021  0.0023 -0.1298  0.1032
13618TIP3    H262270   4.602   5.313   3.900  0.2631  0.6599 -0.0687
13619TIP3   OH262271   3.815   6.205   3.957  0.7564  0.0108 -0.5788
13619TIP3    H162272   3.790   6.287   4.001  0.8151  0.5635 -1.5383
13619TIP3    H262273   3.763   6.205   3.876  0.8488 -0.8461 -0.6454
13620TIP3   OH262274   4.432   2.401   1.440 -0.0367  0.0315 -0.9636
13620TIP3    H162275   4.515   2.436   1.408  0.2548 -0.5292 -0.8405
13620TIP3    H262276   4.371   2.474   1.433  0.8819  1.0480  0.6442
13621TIP3   OH262277   1.104   4.608   3.756  0.0318  0.2230 -0.1300
13621TIP3    H162278   1.109   4.632   3.664  0.0792 -0.1210 -0.2196
13621TIP3    H262279   1.059   4.681   3.798 -1.7162 -0.4662 -0.7420
13622TIP3   OH262280   1.218   4.843   1.292  0.4893  0.1691 -0.4182
13622TIP3    H162281   1.201   4.751   1.274 -3.0801 -0.0018  2.6449
13622TIP3    H262282   1.224   4.884   1.205  1.3518 -2.7504 -1.8482
13623TIP3   OH262283   3.665   5.382  11.945  0.1651  0.5812  0.1068
13623TIP3    H162284   3.723   5.389  12.021  0.2678 -1.1365  0.2300
13623TIP3    H262285   3.719   5.409  11.871  0.4195  1.1403  0.4875
13624TIP3   OH262286   6.532   1.688   3.003  0.8921  0.8782 -0.1993
13624TIP3    H162287   6.438   1.683   3.018  0.6730  2.1845 -0.9556
13624TIP3    H262288   6.549   1.782   2.994  1.5677  0.5230 -4.1590
13625TIP3   OH262289   4.906   3.370   4.245  0.2157  0.0220 -0.1430
13625TIP3    H162290   4.901   3.405   4.155  1.4663  0.0598 -0.2131
13625TIP3    H262291   4.904   3.448   4.301 -2.4220 -0.0602  0.0017
13626TIP3   OH262292   1.947   1.897   4.680 -0.3271  0.4494  0.3192
13626TIP3    H162293   1.918   1.806   4.684  0.7247 -0.0407 -1.7433
13626TIP3    H262294   2.013   1.898   4.610  0.4142  2.6070  0.9822
13627TIP3   OH262295   2.260   1.754   0.806  0.0171 -0.7819 -0.2459
13627TIP3    H162296   2.349   1.736   0.776  0.2616  0.6919 -0.4724
13627TIP3    H262297   2.268   1.836   0.855 -1.7390  1.2636 -3.1039
13628TIP3   OH262298   4.762   2.404  11.265 -0.0775 -0.2493 -0.2013
13628TIP3    H162299   4.820   2.332  11.291  0.3783  0.6721  1.5203
13628TIP3    H262300   4.724   2.375  11.182  1.6286 -1.5738 -0.5914
13629TIP3   OH262301   4.481   6.891   1.780 -0.7392 -0.3214  0.0995
13629TIP3    H162302   4.554   6.839   1.747 -1.0962 -0.4892 -0.4446
13629TIP3    H262303   4.482   6.877   1.875  0.1143 -0.0771  0.1367
13630TIP3   OH262304   4.452   2.557  12.324  0.6141  0.2853 -0.6759
13630TIP3    H162305   4.476   2.473  12.363 -1.2634 -0.1341 -0.3350
13630TIP3    H262306   4.512   2.620  12.364  0.4391 -0.5261  0.9611
13631TIP3   OH262307   0.012   3.578   1.085 -0.1000 -0.0264 -0.1219
13631TIP3    H162308  -0.060   3.541   1.034 -0.6456  0.9875 -0.1015
13631TIP3    H262309  -0.015   3.668   1.103  0.4184 -0.1319  1.3124
13632TIP3   OH262310   4.912   1.591  10.901 -0.1963 -0.7030 -0.7546
13632TIP3    H162311   4.888   1.499  10.913 -0.3999 -0.4532  1.1241
13632TIP3    H262312   5.002   1.596  10.933 -0.0620 -0.3011 -1.1828
13633TIP3   OH262313   1.067   1.426   3.138  0.1737 -0.0639  0.4780
13633TIP3    H162314   1.012   1.444   3.214  0.4214  0.5179  0.5221
13633TIP3    H262315   1.153   1.461   3.161  0.3648 -0.2700  0.0989
13634TIP3   OH262316   2.550   1.059  10.143  0.2124 -0.2758 -0.3102
13634TIP3    H162317   2.490   1.002  10.193  0.5567 -2.1152 -1.8922
13634TIP3    H262318   2.634   1.014  10.145  0.3087 -0.2495 -2.2757
13635TIP3   OH262319   2.014   3.312  15.001  0.3843 -0.3243 -0.4032
13635TIP3    H162320   1.936   3.262  15.026 -1.3426  2.2681 -0.2176
13635TIP3    H262321   2.004   3.326  14.907 -0.3285  1.4459 -0.0955
13636TIP3   OH262322   0.580   0.595   5.833  0.0056 -0.7341 -0.5024
13636TIP3    H162323   0.643   0.654   5.875 -0.0071 -0.9831 -0.1340
13636TIP3    H262324   0.627   0.559   5.758  0.8269 -2.0598  0.6016
13637TIP3   OH262325   3.518   6.215   0.202  0.8576 -0.0972  0.1323
13637TIP3    H162326   3.610   6.238   0.212  1.2799 -0.9583 -1.3266
13637TIP3    H262327   3.475   6.297   0.175  1.1929  0.2981  0.7894
13638TIP3   OH262328   5.081   5.758   5.341 -0.5222  0.1398  0.4757
13638TIP3    H162329   5.169   5.729   5.319  0.2523  2.8820 -0.5281
13638TIP3    H262330   5.088   5.790   5.431 -0.0970  1.5551 -0.0327
13639TIP3   OH262331   3.754   2.472   5.138  0.1688 -0.2180  0.1632
13639TIP3    H162332   3.803   2.412   5.194  0.1554 -0.1883  0.2066
13639TIP3    H262333   3.666   2.433   5.133  0.3000 -0.4730 -0.2227
13640TIP3   OH262334   0.219   2.133   1.001 -0.1481 -0.3307  0.3779
13640TIP3    H162335   0.155   2.149   1.071 -0.4908 -0.6136  0.1362
13640TIP3    H262336   0.203   2.043   0.975  0.6534 -0.5483  0.6080
13641TIP3   OH262337   4.766   3.682   5.571 -0.6036 -0.3275 -0.0393
13641TIP3    H162338   4.685   3.690   5.521 -1.2252 -0.8776  0.8566
13641TIP3    H262339   4.747   3.723   5.655  0.2315  0.0241 -0.0099
13642TIP3   OH262340   5.819   2.139   4.154  0.5257 -0.2079 -0.0301
13642TIP3    H162341   5.805   2.149   4.248  2.7106  1.1562  0.2130
13642TIP3    H262342   5.906   2.176   4.138  0.0374  0.0147 -2.6698
13643TIP3   OH262343   1.894   6.743   1.072 -0.5872  0.3712 -0.1594
13643TIP3    H162344   1.903   6.720   1.164  1.0180  1.6095  0.0233
13643TIP3    H262345   1.955   6.815   1.058 -2.5875  1.9186 -1.6202
13644TIP3   OH262346   3.931   6.829   5.457 -0.3280  0.2247  0.2381
13644TIP3    H162347   3.869   6.818   5.384  0.0623 -0.5881  0.0162
13644TIP3    H262348   3.949   6.740   5.487  0.3536  0.4832  0.6302
13645TIP3   OH262349   1.575   1.111  10.737 -0.0038 -1.1130 -0.2140
13645TIP3    H162350   1.594   1.040  10.799  0.3171 -1.2167 -0.4317
13645TIP3    H262351   1.650   1.170  10.745  0.2390 -1.3389 -0.8115
13646TIP3   OH262352   1.709   4.887  15.295 -0.0506 -0.4744 -0.6809
13646TIP3    H162353   1.671   4.937  15.223  0.6753 -0.7782 -1.2848
13646TIP3    H262354   1.803   4.884  15.276 -0.0525 -1.9431 -0.5885
13647TIP3   OH262355   7.126   0.048   0.324 -0.2016 -0.0805  0.2661
13647TIP3    H162356   7.136  -0.047   0.321  2.6651  0.1419 -0.7189
13647TIP3    H262357   7.181   0.075   0.398  1.1307  0.9263 -1.0275
13648TIP3   OH262358   2.952   1.199   5.630  0.0614 -0.3209 -0.3061
13648TIP3    H162359   2.872   1.191   5.578 -1.1202 -1.2285  1.5248
13648TIP3    H262360   2.932   1.268   5.693  1.0150 -0.0374 -0.2986
13649TIP3   OH262361   3.606   1.837   4.066 -0.7584  0.5147 -0.5338
13649TIP3    H162362   3.616   1.783   4.145  1.3582 -0.0387 -1.1167
13649TIP3    H262363   3.528   1.889   4.083 -0.6575  0.0517  1.7223
13650TIP3   OH262364   2.434   3.589   4.189  0.1177 -0.5901 -0.0495
13650TIP3    H162365   2.419   3.682   4.171 -0.6700 -0.7170 -0.0859
13650TIP3    H262366   2.452   3.551   4.103 -0.6790 -0.6626 -0.1950
13651TIP3   OH262367   1.025   3.040   5.832  0.3788  0.1188 -0.3433
13651TIP3    H162368   1.098   3.097   5.853  1.0555 -0.9450  0.2877
13651TIP3    H262369   1.065   2.958   5.804 -0.5637 -0.2895 -0.5559
13652TIP3   OH262370   1.009   2.046  11.249  0.2883  0.1796 -0.4955
13652TIP3    H162371   0.915   2.055  11.267  0.3756  0.1467 -0.0220
13652TIP3    H262372   1.042   1.992  11.321  0.4671 -0.7503 -1.2596
13653TIP3   OH262373   5.311   4.740   3.352 -0.1689  0.4438  0.1747
13653TIP3    H162374   5.301   4.729   3.257  0.4205  0.7198  0.0742
13653TIP3    H262375   5.222   4.750   3.385 -0.2966  2.1736 -0.5849
13654TIP3   OH262376   0.653   1.770   5.168  0.1522 -0.1854 -1.1286
13654TIP3    H162377   0.587   1.839   5.168  0.0022 -0.3274 -1.5167
13654TIP3    H262378   0.662   1.745   5.260 -0.1822 -0.0182 -1.0503
13655TIP3   OH262379   2.585   1.018   2.641 -0.2544 -0.1344 -0.0686
13655TIP3    H162380   2.552   1.003   2.729  0.7678 -1.3089  0.1438
13655TIP3    H262381   2.680   1.028   2.652 -0.2751  1.3833 -0.8569
13656TIP3   OH262382   2.017   3.765   3.526 -0.2027 -0.2931  0.0216
13656TIP3    H162383   2.029   3.683   3.575  2.5169  0.0430  0.0731
13656TIP3    H262384   1.996   3.737   3.437 -1.4848 -0.9737  0.5139
13657TIP3   OH262385   3.787   3.441  15.351  0.1879  0.3703  0.3814
13657TIP3    H162386   3.716   3.504  15.363 -0.9515 -0.5339 -1.3289
13657TIP3    H262387   3.766   3.369  15.410 -0.2758  0.1467 -0.0528
13658TIP3   OH262388   3.182   1.724   3.747  0.7468 -0.4018  0.1625
13658TIP3    H162389   3.104   1.682   3.710  0.6495  0.3295 -0.5176
13658TIP3    H262390   3.256   1.680   3.705  0.6358  0.5342 -1.1148
13659TIP3   OH262391   6.858   0.801  14.642  0.4269  0.1008 -0.0479
13659TIP3    H162392   6.791   0.848  14.691  0.7239  1.5454 -0.9625
13659TIP3    H262393   6.824   0.712  14.634 -1.2110  0.7010 -0.1760
13660TIP3   OH262394   3.465   5.057   3.796 -0.1387  0.3110 -0.2164
13660TIP3    H162395   3.405   5.105   3.739  0.4199  1.1562 -0.1057
13660TIP3    H262396   3.502   5.123   3.854  0.6723 -0.2420 -0.0799
13661TIP3   OH262397   5.299   6.201   4.296 -0.2471 -0.3125 -0.4096
13661TIP3    H162398   5.229   6.263   4.276 -1.9864 -1.8075  0.6865
13661TIP3    H262399   5.340   6.182   4.212 -0.7538  1.0782 -0.9883
13662TIP3   OH262400   0.225   7.005   3.008 -0.5647  0.2659 -0.2112
13662TIP3    H162401   0.220   6.917   2.971  0.4699  0.2867 -0.4153
13662TIP3    H262402   0.268   6.993   3.093  1.2805  0.7899 -1.0361
13663TIP3   OH262403   0.578   7.129   2.061 -0.1420  0.1434 -0.0990
13663TIP3    H162404   0.536   7.211   2.087 -0.9499 -0.5011  0.7303
13663TIP3    H262405   0.506   7.066   2.056  0.6488 -0.8809  0.8575
13664TIP3   OH262406   4.718   6.263  15.338  0.7271 -0.6409 -0.0027
13664TIP3    H162407   4.767   6.182  15.322  1.8125  0.2538 -1.3712
13664TIP3    H262408   4.721   6.311  15.256 -1.6070 -0.0477  0.1640
13665TIP3   OH262409   6.741   6.881   0.348  0.4326 -0.1825 -0.1935
13665TIP3    H162410   6.781   6.805   0.390 -1.3461 -0.5481  0.9204
13665TIP3    H262411   6.648   6.862   0.346 -0.1228  2.0769  0.3881
13666TIP3   OH262412   3.192   1.762  10.274  0.5065  0.2185  0.3532
13666TIP3    H162413   3.143   1.689  10.236 -1.1080  0.6299  1.5107
13666TIP3    H262414   3.191   1.830  10.206  0.8516 -0.3411 -0.2225
13667TIP3   OH262415   4.088   2.415   6.112 -0.4169 -0.0884 -0.3214
13667TIP3    H162416   4.086   2.501   6.070  0.8405  0.8698  1.4515
13667TIP3    H262417   4.002   2.406   6.152 -0.4962  0.4201 -0.3728
13668TIP3   OH262418   0.399   5.647   2.856  0.1990 -0.5922  0.3911
13668TIP3    H162419   0.344   5.698   2.796 -1.3797 -1.3001  1.1813
13668TIP3    H262420   0.485   5.688   2.850 -0.1465 -0.0271 -1.6033
13669TIP3   OH262421   3.769   6.902   2.223  0.6412 -0.3600  0.0088
13669TIP3    H162422   3.700   6.956   2.261  1.4128  0.2653  0.5629
13669TIP3    H262423   3.825   6.879   2.297  0.9249 -1.0136 -0.4018
13670TIP3   OH262424   3.599   2.373   3.069 -0.5809 -0.1041 -0.0195
13670TIP3    H162425   3.584   2.280   3.087  0.5693 -0.5703 -1.3582
13670TIP3    H262426   3.694   2.382   3.063 -0.6931  1.0824 -0.3096
13671TIP3   OH262427   3.681   5.726   2.877  0.0405  0.2600 -0.5998
13671TIP3    H162428   3.678   5.745   2.783  2.2725  0.4979 -0.6725
13671TIP3    H262429   3.686   5.811   2.919 -0.7581  0.1467 -0.2381
13672TIP3   OH262430   3.913   3.693  14.206  0.4380 -0.0448  0.1544
13672TIP3    H162431   3.975   3.726  14.141 -0.3228 -0.8636 -1.0163
13672TIP3    H262432   3.864   3.625  14.160 -1.2998  0.5401  1.0823
13673TIP3   OH262433   5.064   4.761   5.283  0.1488  0.3302 -0.0833
13673TIP3    H162434   4.984   4.795   5.244 -0.1839 -1.9034 -1.5837
13673TIP3    H262435   5.045   4.668   5.298  2.4473 -0.2595 -0.5000
13674TIP3   OH262436   4.076   5.706   1.606 -0.5994  0.1852  0.3215
13674TIP3    H162437   4.084   5.788   1.558 -0.2752  0.4449  0.8115
13674TIP3    H262438   4.165   5.672   1.613 -0.5387  0.5090  1.3426
13675TIP3   OH262439   5.585   4.333   1.194  0.3367  0.2277 -0.5069
13675TIP3    H162440   5.555   4.244   1.215 -0.5122  0.8281  0.9649
13675TIP3    H262441   5.627   4.324   1.108 -1.2349 -1.2668 -1.1801
13676TIP3   OH262442   5.769   5.287  15.441  0.1581 -0.3420  0.2938
13676TIP3    H162443   5.750   5.342  15.517  1.7850 -0.0337  0.5291
13676TIP3    H262444   5.791   5.349  15.372 -2.3415 -0.5714 -0.8105
13677TIP3   OH262445   0.633   7.058   2.364 -0.1676 -0.0254  0.0124
13677TIP3    H162446   0.588   7.090   2.286  0.9000  1.8663  0.0984
13677TIP3    H262447   0.563   7.020   2.418 -0.8945 -1.5222 -1.8904
13678TIP3   OH262448   1.424   4.943  15.080 -0.1275 -0.5981 -0.3155
13678TIP3    H162449   1.507   4.899  15.061 -0.8863 -1.2250 -2.5088
13678TIP3    H262450   1.430   4.968  15.172  1.1403 -3.5934  0.5318
13679TIP3   OH262451   6.120   2.071   5.384 -0.1741  0.3326  0.0940
13679TIP3    H162452   6.157   1.984   5.400  0.5018  0.2657 -1.5941
13679TIP3    H262453   6.047   2.055   5.324  0.0360  0.9375 -0.3325
13680TIP3   OH262454   6.270   4.620  13.248 -0.3790  0.5679  0.3863
13680TIP3    H162455   6.352   4.657  13.215 -0.0527 -0.5055 -0.0527
13680TIP3    H262456   6.228   4.692  13.296 -0.1584  1.7361 -1.1086
13681TIP3   OH262457   1.392   2.920  14.484 -0.6960  0.0934  0.5445
13681TIP3    H162458   1.464   2.901  14.423 -1.6690  0.7986 -0.8900
13681TIP3    H262459   1.313   2.910  14.431 -1.6993 -0.8775  2.1445
13682TIP3   OH262460   5.931   3.579   2.733  0.0092  0.1050 -0.3498
13682TIP3    H162461   5.837   3.596   2.729  0.1624  2.4264  2.4574
13682TIP3    H262462   5.961   3.629   2.808  3.1804 -2.3358  0.2156
13683TIP3   OH262463   5.751   1.553  12.135 -0.3189 -0.2948 -0.1726
13683TIP3    H162464   5.827   1.513  12.177  1.1117  1.2037 -1.2056
13683TIP3    H262465   5.701   1.479  12.101  1.1723 -1.2975 -0.2898
13684TIP3   OH262466   4.307   1.059  11.774  0.2538  0.1001 -0.3220
13684TIP3    H162467   4.273   0.986  11.826 -0.2024  1.7327  1.7861
13684TIP3    H262468   4.249   1.133  11.795  2.2368  1.7449 -0.3582
13685TIP3   OH262469   0.784   5.692   0.354  0.1482  0.3858 -0.8469
13685TIP3    H162470   0.808   5.766   0.410 -0.6337 -0.3956  0.5462
13685TIP3    H262471   0.689   5.697   0.347 -0.1632 -1.6091  0.9441
13686TIP3   OH262472   0.818   3.078   3.311 -0.2277  0.4790 -0.2440
13686TIP3    H162473   0.816   2.988   3.277 -0.0731  0.5196 -0.3603
13686TIP3    H262474   0.906   3.088   3.346  0.0558  0.8916 -1.0591
13687TIP3   OH262475   1.937   1.124   5.877  0.1838 -0.4857 -0.6879
13687TIP3    H162476   2.012   1.146   5.934  1.4120 -1.2125 -1.9581
13687TIP3    H262477   1.916   1.206   5.832 -0.2334 -0.1166  0.1577
13688TIP3   OH262478   5.599   0.993   4.866 -0.3480  0.3830  0.0484
13688TIP3    H162479   5.664   1.021   4.931  1.9752 -0.5169 -1.7887
13688TIP3    H262480   5.550   0.923   4.910  1.5421 -0.5989  0.6744
13689TIP3   OH262481   2.289   5.203   0.304  0.8633 -0.2048 -0.4325
13689TIP3    H162482   2.338   5.185   0.224  0.7509 -1.9685 -0.1415
13689TIP3    H262483   2.240   5.123   0.321 -0.2506  0.6562  0.6230
13690TIP3   OH262484   7.049   0.109  14.808  0.2967  0.1695  0.3071
13690TIP3    H162485   7.035   0.061  14.726 -1.9275  1.2915 -0.0466
13690TIP3    H262486   7.133   0.076  14.841  0.0387 -2.1478 -1.1205
13691TIP3   OH262487   6.604   4.703   1.314  0.2539  0.0083 -0.7500
13691TIP3    H162488   6.572   4.783   1.273 -0.4387  0.9164  1.4160
13691TIP3    H262489   6.540   4.685   1.383  0.7040 -2.1227 -0.8230
13692TIP3   OH262490   4.409   5.729  15.403  0.1513 -0.4706  0.2888
13692TIP3    H162491   4.462   5.809  15.404  1.2201 -1.1610  0.3547
13692TIP3    H262492   4.341   5.747  15.338  0.0703  0.6763  0.6652
13693TIP3   OH262493   1.925   6.481   4.337  0.3236 -0.2955  0.1454
13693TIP3    H162494   1.883   6.412   4.285 -1.2002  0.4877  0.2781
13693TIP3    H262495   1.972   6.534   4.273 -0.7126  0.0744 -0.3368
13694TIP3   OH262496   1.616   2.554   1.191  0.3195  0.0867  0.3690
13694TIP3    H162497   1.552   2.590   1.253  1.6114 -1.4097  2.7338
13694TIP3    H262498   1.567   2.489   1.141 -0.0602 -1.2128  2.3070
13695TIP3   OH262499   4.526   2.713   5.243  0.3310  1.0283 -0.4556
13695TIP3    H162500   4.487   2.626   5.252  1.3434  0.5283 -0.6898
13695TIP3    H262501   4.621   2.696   5.244  0.5434  2.2085  0.2732
13696TIP3   OH262502   6.452   4.359  13.365  0.6411  0.0126  0.0741
13696TIP3    H162503   6.362   4.363  13.398  0.5650 -0.0140 -0.1298
13696TIP3    H262504   6.469   4.448  13.332 -0.0758 -0.5260 -1.9013
13697TIP3   OH262505   5.800   5.569  14.130 -0.4737  0.7082  0.4810
13697TIP3    H162506   5.851   5.602  14.204 -1.5789  0.8967  1.1892
13697TIP3    H262507   5.799   5.641  14.067  1.6001  0.0758 -0.3446
13698TIP3   OH262508   0.337   3.370   5.270 -0.4996 -0.0223 -0.4149
13698TIP3    H162509   0.393   3.443   5.244 -1.5171  1.1473  0.4909
13698TIP3    H262510   0.389   3.321   5.334  0.0283  0.1796 -0.6844
13699TIP3   OH262511   1.471   4.709   0.976 -0.6057 -0.1642  0.2177
13699TIP3    H162512   1.566   4.698   0.982 -0.7111 -0.0816  3.5153
13699TIP3    H262513   1.435   4.621   0.984 -0.8232  0.0844  2.7314
13700TIP3   OH262514   2.978   3.007   2.841  0.3357  0.0103 -0.4123
13700TIP3    H162515   2.927   2.966   2.911  1.5245 -0.1436  0.3909
13700TIP3    H262516   3.069   2.992   2.865  0.9450  4.0391  0.5747
13701TIP3   OH262517   0.400   3.346  13.093  0.2073  0.5087  0.1052
13701TIP3    H162518   0.480   3.375  13.137  1.3097 -1.8098 -0.2348
13701TIP3    H262519   0.409   3.378  13.003  1.0201 -0.1963 -0.0697
13702TIP3   OH262520   5.468   3.606  14.746  0.5918 -0.0805  0.3447
13702TIP3    H162521   5.500   3.642  14.828  1.1803  0.4066 -0.0863
13702TIP3    H262522   5.457   3.682  14.689  1.2709 -0.5003 -0.3844
13703TIP3   OH262523   0.701   0.930  11.586 -0.5961  0.8105 -0.6255
13703TIP3    H162524   0.727   0.864  11.522  0.6593  0.4161  0.2374
13703TIP3    H262525   0.686   1.009  11.535  0.6907  0.5855 -1.3979
13704TIP3   OH262526   2.290   0.950  15.018 -0.1119 -0.1836  0.3867
13704TIP3    H162527   2.281   0.963  15.113 -1.0556 -1.2858  0.4770
13704TIP3    H262528   2.350   0.876  15.010 -1.9308 -1.7494  0.2684
13705TIP3   OH262529   1.011   3.731   5.485  0.1202  0.4378  0.3339
13705TIP3    H162530   1.093   3.725   5.535  0.8225  2.0467 -0.5455
13705TIP3    H262531   0.946   3.687   5.540  1.8079 -2.1278  0.4537
13706TIP3   OH262532   2.576   5.126   5.980  0.2256  0.5797  0.1277
13706TIP3    H162533   2.643   5.085   5.925 -0.8285  0.6243 -1.2590
13706TIP3    H262534   2.620   5.201   6.019  1.8313 -1.1052  1.7273
13707TIP3   OH262535   1.938   1.264   2.436  0.5515  0.3252  0.0478
13707TIP3    H162536   2.012   1.238   2.490 -0.7383 -0.4188  1.5381
13707TIP3    H262537   1.863   1.264   2.496 -0.4793  2.2335 -1.1144
13708TIP3   OH262538   3.446   2.544  10.666 -0.0135 -0.0452  0.1299
13708TIP3    H162539   3.509   2.598  10.714 -1.3972  0.2363  1.7314
13708TIP3    H262540   3.406   2.605  10.603  1.5456 -0.3282 -1.2121
13709TIP3   OH262541   5.612   4.710   1.765  0.1250  0.3108  0.3427
13709TIP3    H162542   5.603   4.667   1.680  0.5069  0.3091  0.3018
13709TIP3    H262543   5.646   4.797   1.744 -3.4443  1.8280  0.1393
13710TIP3   OH262544   1.052   4.226  13.988  0.1094 -0.7142 -0.4418
13710TIP3    H162545   1.001   4.234  14.069  1.0888  0.5282  0.0922
13710TIP3    H262546   1.019   4.296  13.932  0.6597 -0.4168 -0.4029
13711TIP3   OH262547   2.289   5.594   0.127  1.6863 -0.2494 -0.4553
13711TIP3    H162548   2.256   5.547   0.203  0.8177  2.2455  0.8102
13711TIP3    H262549   2.230   5.567   0.056  0.4820 -0.2061  0.4922
13712TIP3   OH262550   3.342   0.192   9.689  0.6863 -0.3226  0.5264
13712TIP3    H162551   3.315   0.212   9.599  2.0164  0.3983  0.2466
13712TIP3    H262552   3.263   0.201   9.741  0.1863  0.7697 -0.3735
13713TIP3   OH262553   6.197   0.204   3.595 -0.5399 -0.5804  0.0443
13713TIP3    H162554   6.165   0.189   3.684  0.6282 -0.4040  0.5189
13713TIP3    H262555   6.168   0.128   3.546  0.2179 -1.5095  0.9933
13714TIP3   OH262556   0.359   6.936   4.447 -0.0077 -0.8318 -0.1507
13714TIP3    H162557   0.365   7.005   4.382  2.8970 -0.7530  0.0910
13714TIP3    H262558   0.364   6.854   4.397  1.0851 -0.7864 -0.1267
13715TIP3   OH262559   2.764   5.310   9.830  0.2195  0.5549  0.4818
13715TIP3    H162560   2.832   5.274   9.773  1.0294  0.0883  1.7099
13715TIP3    H262561   2.751   5.400   9.798 -0.5661 -0.1857 -1.4930
13716TIP3   OH262562   3.871   3.106   1.198  0.6253  0.2439  0.2477
13716TIP3    H162563   3.845   3.122   1.107  0.4797  0.4884  0.3305
13716TIP3    H262564   3.952   3.056   1.191 -0.0704 -0.8722 -0.0195
13717TIP3   OH262565   7.111   3.244   0.269  0.1455  0.9312  0.2512
13717TIP3    H162566   7.081   3.162   0.308 -0.9403  1.4531  0.5524
13717TIP3    H262567   7.200   3.255   0.303  0.1748  0.0607  0.4856
13718TIP3   OH262568   4.145   6.702   5.032  0.4604  0.3166  0.5218
13718TIP3    H162569   4.056   6.701   5.066  0.0663 -0.3757 -0.4759
13718TIP3    H262570   4.149   6.781   4.977  0.4146  0.2578  0.4345
13719TIP3   OH262571   5.490   3.795  14.527  0.1545 -0.4068 -0.4720
13719TIP3    H162572   5.526   3.744  14.455 -0.1231 -0.5755 -0.4932
13719TIP3    H262573   5.557   3.861  14.547 -0.1244  0.1968 -1.4565
13720TIP3   OH262574   1.918   6.764   1.474 -0.0374 -0.1660  0.6945
13720TIP3    H162575   1.930   6.691   1.413  0.4653  0.4583  0.0199
13720TIP3    H262576   1.976   6.833   1.440  1.0428 -0.1437  2.4426
13721TIP3   OH262577   2.738   2.481   5.346  0.0423  0.2804 -0.5676
13721TIP3    H162578   2.684   2.457   5.421  0.9552  0.2865  0.1091
13721TIP3    H262579   2.807   2.536   5.383 -0.4253  1.6701 -1.6731
13722TIP3   OH262580   0.684   6.281   2.197  0.2402 -0.8756  0.2908
13722TIP3    H162581   0.641   6.226   2.131  2.3347 -1.9610 -0.2317
13722TIP3    H262582   0.766   6.237   2.216  2.7041  2.6567 -1.1066
13723TIP3   OH262583   2.897   4.214  11.958 -0.1118 -0.1483 -0.5629
13723TIP3    H162584   2.924   4.298  11.922 -0.0865  0.0767 -0.0232
13723TIP3    H262585   2.923   4.150  11.891  2.0410  0.0142  0.0129
13724TIP3   OH262586   1.282   5.157  14.761 -0.3688  0.1706  0.4267
13724TIP3    H162587   1.217   5.110  14.813 -0.5535 -1.9331 -1.5342
13724TIP3    H262588   1.366   5.117  14.785 -0.1222  0.9625  0.9257
13725TIP3   OH262589   2.265   4.438   1.921 -0.0772  0.1378  0.3138
13725TIP3    H162590   2.282   4.472   1.834 -0.0281 -0.8445 -0.0735
13725TIP3    H262591   2.209   4.504   1.963 -0.6747  0.2860 -0.6972
13726TIP3   OH262592   1.770   6.768   0.539  0.2437 -0.3994 -0.4489
13726TIP3    H162593   1.836   6.739   0.601 -0.2218  0.9474  0.7103
13726TIP3    H262594   1.697   6.798   0.593  0.2869  1.9091 -1.5708
13727TIP3   OH262595   6.566   4.689   4.088 -0.7828 -0.5617 -0.2405
13727TIP3    H162596   6.642   4.645   4.049 -1.4427 -2.6656  0.7181
13727TIP3    H262597   6.507   4.704   4.014  0.0594  0.0951 -0.8084
13728TIP3   OH262598   2.278   3.263  12.970  0.1628 -0.3599 -0.2261
13728TIP3    H162599   2.206   3.206  12.997  0.5251 -0.7632 -0.1008
13728TIP3    H262600   2.254   3.350  13.004 -0.5033 -0.3827 -0.6224
13729TIP3   OH262601   5.063   1.240  13.738 -0.0608  0.3024 -0.2126
13729TIP3    H162602   4.985   1.231  13.793  0.4834 -1.6251  0.3488
13729TIP3    H262603   5.049   1.320  13.689 -2.4844 -0.0732 -0.2736
13730TIP3   OH262604   3.359   1.672   5.592  0.2768  0.2430  0.1771
13730TIP3    H162605   3.283   1.646   5.540  0.5610  0.7039 -0.4784
13730TIP3    H262606   3.405   1.590   5.609  1.2153  0.2668 -1.9515
13731TIP3   OH262607   0.891   4.976   4.287 -0.2162 -0.2134 -0.6511
13731TIP3    H162608   0.957   4.908   4.276 -0.8481 -0.8790 -0.4111
13731TIP3    H262609   0.875   5.008   4.198  0.3834 -0.0943 -0.7145
13732TIP3   OH262610   5.352   4.554   2.335 -0.4498 -0.5423  0.0101
13732TIP3    H162611   5.282   4.496   2.366 -2.9722  1.8796 -0.7440
13732TIP3    H262612   5.354   4.538   2.240 -0.5041 -0.0820 -0.0682
13733TIP3   OH262613   1.382   3.327   2.538 -0.0466  0.0120  0.6351
13733TIP3    H162614   1.435   3.249   2.551 -0.1195 -0.7501 -2.8445
13733TIP3    H262615   1.296   3.294   2.510  0.4401  1.2355 -2.6502
13734TIP3   OH262616   1.154   3.837  11.576  0.3750 -0.3721  0.1716
13734TIP3    H162617   1.107   3.758  11.547 -1.1477  0.1982  0.9342
13734TIP3    H262618   1.208   3.807  11.649 -0.3106 -0.7011  0.5575
13735TIP3   OH262619   6.212   1.573   3.933 -0.3129 -0.0015  0.4670
13735TIP3    H162620   6.195   1.524   3.853  0.9074  2.7040 -1.5875
13735TIP3    H262621   6.125   1.593   3.968 -0.8756 -0.6534 -0.5253
13736TIP3   OH262622   6.217   6.778  15.509 -0.2970 -0.4944 -0.2464
13736TIP3    H162623   6.143   6.772  15.449 -0.9499 -0.9093  0.5670
13736TIP3    H262624   6.195   6.717  15.580  0.8017 -0.5830  0.0370
13737TIP3   OH262625   5.099   1.282  15.334  0.1928 -0.1208  0.5659
13737TIP3    H162626   5.043   1.356  15.357 -0.2269 -0.3335  0.2498
13737TIP3    H262627   5.170   1.284  15.398  0.6221  1.0329  0.0953
13738TIP3   OH262628   6.735   6.712   1.768 -0.8943  0.1385  0.0574
13738TIP3    H162629   6.712   6.752   1.851 -1.5755 -1.0279  0.4646
13738TIP3    H262630   6.664   6.649   1.752 -1.1231  0.8040 -1.7275
13739TIP3   OH262631   6.444   3.416  13.580  0.2990 -0.1042 -0.2579
13739TIP3    H162632   6.355   3.385  13.560  0.3503 -0.6971  0.3995
13739TIP3    H262633   6.434   3.468  13.659  0.6106 -0.5940  0.1067
13740TIP3   OH262634   6.820   4.540  10.283  0.0816 -0.1148 -0.1800
13740TIP3    H162635   6.749   4.578  10.230 -1.2177 -0.4234  1.2522
13740TIP3    H262636   6.899   4.582  10.251 -0.5987 -0.4280 -2.4778
13741TIP3   OH262637   5.972   0.252   3.159 -0.2528 -0.4521 -0.3131
13741TIP3    H162638   5.880   0.233   3.139  0.0024 -1.3359 -0.6629
13741TIP3    H262639   5.968   0.329   3.216 -1.4207 -2.5092  2.6037
13742TIP3   OH262640   2.260   1.296   3.201  0.5697  0.1079 -0.4709
13742TIP3    H162641   2.321   1.236   3.244  0.9470  0.4894 -0.4659
13742TIP3    H262642   2.276   1.381   3.243  0.8485  0.4540 -1.2573
13743TIP3   OH262643   6.169   3.668   1.906 -0.1542 -0.1510 -0.1571
13743TIP3    H162644   6.220   3.596   1.869  1.9992  2.2251 -2.2087
13743TIP3    H262645   6.165   3.733   1.836 -0.8001  2.2927  1.9760
13744TIP3   OH262646   5.856   1.050   0.824 -0.2685 -0.6983 -0.5117
13744TIP3    H162647   5.841   1.096   0.906 -1.2869 -2.1315  0.1460
13744TIP3    H262648   5.785   0.986   0.818  1.0673 -2.2020 -1.3544
13745TIP3   OH262649   4.156   3.129   3.069 -0.9848  0.0499 -0.8516
13745TIP3    H162650   4.166   3.076   2.989 -1.4892 -1.1433 -0.1588
13745TIP3    H262651   4.226   3.098   3.126 -0.7770  0.7319 -0.7267
13746TIP3   OH262652   0.687   0.951  15.492  0.2493  0.3513  0.3618
13746TIP3    H162653   0.690   0.901  15.574 -0.6539 -0.2144  0.0709
13746TIP3    H262654   0.741   0.900  15.431  0.5065  0.5022  0.4628
13747TIP3   OH262655   0.461   1.685  15.550 -0.4715  0.2428 -0.3035
13747TIP3    H162656   0.410   1.765  15.545 -2.4656 -0.9786 -0.3971
13747TIP3    H262657   0.495   1.672  15.462 -3.2619 -0.9104 -1.3063
13748TIP3   OH262658   0.929   2.814   4.707 -0.1182 -0.3601  0.2994
13748TIP3    H162659   1.011   2.797   4.661 -1.3146 -3.1388 -1.0104
13748TIP3    H262660   0.902   2.728   4.740 -1.6866  0.7752  2.1575
13749TIP3   OH262661   1.932   6.711   4.004 -0.0239  0.1210  0.5577
13749TIP3    H162662   1.997   6.683   4.069 -0.1246  0.1903  0.6880
13749TIP3    H262663   1.850   6.673   4.034  0.2678 -1.4977 -0.5936
13750TIP3   OH262664   3.377   4.090   0.302  0.0689  0.3106 -0.2270
13750TIP3    H162665   3.458   4.140   0.294 -0.2967  0.7003 -2.0336
13750TIP3    H262666   3.315   4.149   0.345  0.2221  0.6837 -0.5163
13751TIP3   OH262667   2.458   1.858  11.741  0.2612  0.3949  0.3004
13751TIP3    H162668   2.369   1.827  11.757  0.3482 -0.5427 -0.8277
13751TIP3    H262669   2.513   1.783  11.766  0.6159  0.3826 -0.4848
13752TIP3   OH262670   2.349   0.725   5.111  0.5950 -0.0223 -0.0328
13752TIP3    H162671   2.421   0.678   5.069 -0.5395 -1.8467 -0.0244
13752TIP3    H262672   2.339   0.683   5.196  0.2551  0.9808  0.4448
13753TIP3   OH262673   4.582   1.963   4.946  0.6266  0.3426 -0.1190
13753TIP3    H162674   4.495   1.953   4.985  0.1532 -1.1301 -1.4287
13753TIP3    H262675   4.619   2.040   4.989 -0.9394  0.4359  1.1660
13754TIP3   OH262676   2.860   1.050   2.137  0.3715  0.2405 -0.1134
13754TIP3    H162677   2.824   0.980   2.083 -0.4053  0.8090 -0.3589
13754TIP3    H262678   2.948   1.064   2.103 -0.2830  0.9353 -1.6015
13755TIP3   OH262679   3.708   0.199   5.581  0.4100  0.1275  0.5163
13755TIP3    H162680   3.782   0.194   5.642  0.4473  0.4319  0.5010
13755TIP3    H262681   3.679   0.290   5.587  0.6823  0.2685 -0.2351
13756TIP3   OH262682   4.301   0.254   1.197 -0.7224  0.4031 -0.3241
13756TIP3    H162683   4.372   0.237   1.259  0.6020 -1.0169 -2.0942
13756TIP3    H262684   4.224   0.265   1.251  0.8508  2.2559  1.7095
13757TIP3   OH262685   3.549   4.787   5.280 -0.0121  0.6335 -0.0180
13757TIP3    H162686   3.484   4.808   5.347  0.4672  2.0201  0.0316
13757TIP3    H262687   3.594   4.870   5.262  0.8211 -0.0086 -1.0411
13758TIP3   OH262688   3.309   0.641  11.620  0.4883  0.7792 -0.4588
13758TIP3    H162689   3.328   0.561  11.669  2.5403  1.6400  0.2710
13758TIP3    H262690   3.222   0.668  11.649  0.5970 -0.1297  0.7702
13759TIP3   OH262691   3.967   1.212   2.407  0.0249 -0.3421 -0.0095
13759TIP3    H162692   3.903   1.244   2.471 -0.3466  1.6419 -1.2764
13759TIP3    H262693   4.052   1.234   2.445 -0.1360 -0.6772  0.5480
13760TIP3   OH262694   4.237   1.597   4.467  0.0307 -0.0302  0.4578
13760TIP3    H162695   4.227   1.525   4.529 -0.5930 -1.1775 -0.9063
13760TIP3    H262696   4.300   1.564   4.402 -0.9268  0.2820 -0.6729
13761TIP3   OH262697   3.049   5.736  12.359  0.3261  0.0231 -0.1336
13761TIP3    H162698   3.048   5.745  12.454  1.4585  1.4010 -0.2101
13761TIP3    H262699   3.135   5.699  12.339  0.3173  0.2597 -0.6414
13762TIP3   OH262700   0.747   0.811   1.863  0.1109  0.4232  0.0197
13762TIP3    H162701   0.683   0.778   1.799  1.2441 -0.4050 -0.7286
13762TIP3    H262702   0.723   0.769   1.945 -0.7853  0.7466 -0.0700
13763TIP3   OH262703   0.797   4.650   2.851 -0.4576  0.6320  0.0369
13763TIP3    H162704   0.808   4.584   2.783  2.0514  2.0655 -1.1111
13763TIP3    H262705   0.752   4.722   2.807 -0.5435  0.8169  0.4214
13764TIP3   OH262706   0.231   2.810  15.449  0.5376 -0.1410 -0.3667
13764TIP3    H162707   0.301   2.747  15.463 -0.0364 -0.7450 -0.1251
13764TIP3    H262708   0.275   2.894  15.436  1.2739 -0.3888  0.4719
13765TIP3   OH262709   6.520   5.623   3.533  0.1037  0.2062  0.1230
13765TIP3    H162710   6.554   5.559   3.596 -1.6406 -0.0772  0.8265
13765TIP3    H262711   6.590   5.688   3.525  0.8573 -0.4030  1.4144
13766TIP3   OH262712   1.631   1.222  11.079  0.0405  0.5690 -0.2061
13766TIP3    H162713   1.536   1.205  11.078  0.5274 -2.7429 -0.4754
13766TIP3    H262714   1.648   1.269  10.997 -1.2627  0.6653 -0.4439
13767TIP3   OH262715   5.609   6.131   2.871  0.2082  0.0280 -0.1340
13767TIP3    H162716   5.627   6.191   2.943  0.8915  2.1423 -1.9213
13767TIP3    H262717   5.693   6.088   2.853 -0.0835 -0.8852  0.6170
13768TIP3   OH262718   6.518   0.992   4.693 -0.1389 -0.0830 -0.2692
13768TIP3    H162719   6.511   0.936   4.770 -0.9370 -2.2033 -1.7875
13768TIP3    H262720   6.428   1.005   4.663  0.2175 -0.4106 -1.5776
13769TIP3   OH262721   0.820   4.449   0.202  0.4114  0.2038  0.1859
13769TIP3    H162722   0.806   4.463   0.296  0.0004  1.2216 -0.0172
13769TIP3    H262723   0.883   4.377   0.198  1.5385  1.0949  1.2685
13770TIP3   OH262724   0.994   4.490   4.884 -0.1460  0.2827  0.0111
13770TIP3    H162725   0.972   4.455   4.970 -0.8004 -1.5764 -0.8796
13770TIP3    H262726   1.088   4.509   4.889  0.2039 -1.4763  0.5930
13771TIP3   OH262727   1.733   6.637   3.374  0.9102  0.1652 -0.0623
13771TIP3    H162728   1.763   6.726   3.358 -2.2355  1.2756 -0.4386
13771TIP3    H262729   1.678   6.615   3.299 -0.0011 -1.2840  0.9593
13772TIP3   OH262730   3.338   4.413   1.947 -1.0289 -0.5082  0.0035
13772TIP3    H162731   3.256   4.439   1.905 -0.7440 -0.6912 -0.6859
13772TIP3    H262732   3.402   4.412   1.875 -0.9399 -2.7273  0.0337
13773TIP3   OH262733   3.278   1.982   1.401 -0.9131 -0.2231  0.0302
13773TIP3    H162734   3.308   1.900   1.440 -0.1443  0.0520  0.0369
13773TIP3    H262735   3.185   1.969   1.385 -0.9369 -0.8530  0.6562
13774TIP3   OH262736   6.633   2.382   4.295  0.4636 -0.4610  0.5227
13774TIP3    H162737   6.668   2.470   4.286  0.3564 -0.4374  0.3396
13774TIP3    H262738   6.545   2.387   4.258  1.1429 -1.0988 -1.3154
13775TIP3   OH262739   6.828   0.704   1.508 -0.7770  0.1576  0.1683
13775TIP3    H162740   6.741   0.744   1.501 -0.4841  0.7366 -0.3632
13775TIP3    H262741   6.812   0.615   1.538 -1.5473  0.2842  0.1509
13776TIP3   OH262742   4.440   3.199   0.243 -0.3521 -0.4080  0.3830
13776TIP3    H162743   4.475   3.286   0.258 -2.5469  0.7907 -0.8960
13776TIP3    H262744   4.356   3.199   0.289 -0.0147 -2.1799  1.0854
13777TIP3   OH262745   1.328   1.117   0.871 -0.3129 -0.1953 -0.4002
13777TIP3    H162746   1.382   1.085   0.943  0.0990  0.7505 -0.2724
13777TIP3    H262747   1.275   1.041   0.846 -0.1784 -0.6538  0.6246
13778TIP3   OH262748   5.189   6.716  12.437  0.1099 -0.0748 -0.8970
13778TIP3    H162749   5.135   6.794  12.451 -0.2335 -0.4036 -0.3195
13778TIP3    H262750   5.253   6.719  12.509 -0.3375 -0.6774 -0.4644
13779TIP3   OH262751   1.996   3.903   2.214  0.0938 -0.0054  0.6987
13779TIP3    H162752   1.945   3.857   2.281  1.2607 -1.5494  0.5751
13779TIP3    H262753   2.032   3.833   2.160  1.6724  1.0821  0.2954
13780TIP3   OH262754   3.036   4.709   1.411  0.0600 -0.6102  0.5924
13780TIP3    H162755   3.033   4.747   1.323  0.2643 -0.8993  0.4600
13780TIP3    H262756   3.007   4.780   1.468  3.3008  0.8459  0.7042
13781TIP3   OH262757   1.636   0.593   5.682  0.1273 -0.1606 -0.1259
13781TIP3    H162758   1.703   0.648   5.643  0.8504  0.4327  1.8258
13781TIP3    H262759   1.625   0.521   5.621  1.1136  0.7488 -1.4269
13782TIP3   OH262760   5.803   4.971   0.037  0.3305  0.8143  0.8284
13782TIP3    H162761   5.851   5.021  -0.029 -0.3166  0.4217  0.0415
13782TIP3    H262762   5.725   5.024   0.056 -0.7138 -0.1539 -0.5158
13783TIP3   OH262763   6.256   3.409   3.742  0.1228  0.0813 -0.3326
13783TIP3    H162764   6.334   3.464   3.741 -0.1041  0.4274 -1.6208
13783TIP3    H262765   6.187   3.465   3.705 -0.9007 -0.0217  1.3068
13784TIP3   OH262766   1.961   1.532   2.414  0.4364  0.2626  0.0896
13784TIP3    H162767   1.883   1.547   2.467 -0.2002 -0.1604 -0.7001
13784TIP3    H262768   1.949   1.444   2.378  1.4513  0.0527  0.2391
13785TIP3   OH262769   3.652   5.081  15.193 -0.1982 -0.1452 -0.0499
13785TIP3    H162770   3.688   5.163  15.159  0.2891  0.1152  1.0439
13785TIP3    H262771   3.646   5.095  15.288  0.5282 -1.6151  0.2356
13786TIP3   OH262772   3.324   2.509   5.310 -0.4703 -0.4366  0.1563
13786TIP3    H162773   3.246   2.565   5.314  0.3817  1.1731 -2.6111
13786TIP3    H262774   3.394   2.563   5.348  0.2255  0.2058 -1.9193
13787TIP3   OH262775   3.276   6.134  14.599  0.9071  0.2183  0.3649
13787TIP3    H162776   3.206   6.140  14.535  1.3814 -1.4677 -0.3814
13787TIP3    H262777   3.236   6.088  14.674  0.1851  2.7137  1.6007
13788TIP3   OH262778   6.782   2.142   4.309 -0.6264 -0.6726  0.1377
13788TIP3    H162779   6.710   2.204   4.293 -0.0812 -0.0162  0.2026
13788TIP3    H262780   6.858   2.184   4.269 -0.1323 -1.0358  0.6996
13789TIP3   OH262781   0.200   1.904  14.642 -0.2405 -0.4484 -0.5504
13789TIP3    H162782   0.278   1.928  14.592  0.1038  0.5650  0.4378
13789TIP3    H262783   0.147   1.983  14.644 -0.2109 -0.4508  0.7485
13790TIP3   OH262784   0.535   1.984   0.827 -0.0353 -0.2352  0.5712
13790TIP3    H162785   0.492   2.035   0.895  1.0445  1.3548  0.1123
13790TIP3    H262786   0.562   2.049   0.762  3.4029 -1.0372  1.0205
13791TIP3   OH262787   0.993   3.424   3.627  0.8805  0.2436  0.0738
13791TIP3    H162788   0.961   3.417   3.537 -0.2353 -0.6312  0.5240
13791TIP3    H262789   0.918   3.401   3.681  2.1746 -1.6319  1.1722
13792TIP3   OH262790   2.030   4.926   4.661 -0.1442 -0.4715 -0.0989
13792TIP3    H162791   2.042   4.832   4.678 -0.8502 -0.3834  1.0088
13792TIP3    H262792   2.092   4.969   4.719 -0.8566 -0.2265  0.5000
13793TIP3   OH262793   4.546   2.528   5.862  0.7974 -0.1311 -0.3762
13793TIP3    H162794   4.575   2.506   5.950  0.8306 -1.4045 -0.6868
13793TIP3    H262795   4.595   2.607   5.839  1.6149 -0.4214  0.3212
13794TIP3   OH262796   3.802   3.669   2.823  0.0596 -0.0229  0.4422
13794TIP3    H162797   3.804   3.587   2.872  0.8423 -0.1129  0.2752
13794TIP3    H262798   3.856   3.651   2.745  1.4606  1.0819  1.1043
13795TIP3   OH262799   3.250   6.509   5.089 -0.4704 -0.5013 -0.0904
13795TIP3    H162800   3.222   6.418   5.079 -0.9737 -0.3787  0.1475
13795TIP3    H262801   3.211   6.536   5.172  1.9238 -0.8851  1.2517
13796TIP3   OH262802   0.941   3.529   1.419 -0.2518 -0.0292 -0.1934
13796TIP3    H162803   0.988   3.445   1.420  1.3839  0.8568  0.2727
13796TIP3    H262804   0.862   3.511   1.368  0.4346 -1.6633 -0.7576
13797TIP3   OH262805   4.621   1.990   4.182  0.0394 -0.8086 -0.6590
13797TIP3    H162806   4.626   2.059   4.249 -0.0453 -0.1267 -1.3446
13797TIP3    H262807   4.530   1.960   4.186  0.2256 -1.2939  0.0433
13798TIP3   OH262808   4.938   5.587  13.273 -0.1427 -0.8833  0.8204
13798TIP3    H162809   4.987   5.527  13.217 -0.2422 -0.1353 -0.0959
13798TIP3    H262810   4.907   5.532  13.345  1.5409 -1.4990  1.1367
13799TIP3   OH262811   4.453   0.122   3.051  0.4687 -0.3933  0.4283
13799TIP3    H162812   4.524   0.105   2.989  0.6995  1.2748  0.1783
13799TIP3    H262813   4.447   0.042   3.103  1.3996 -1.2000 -0.6339
13800TIP3   OH262814   1.206   1.021  11.749  0.7197 -0.4233 -0.0185
13800TIP3    H162815   1.150   0.953  11.710 -0.0605 -0.4943  1.1946
13800TIP3    H262816   1.295   0.986  11.739  0.4044 -1.2069 -0.2251
13801TIP3   OH262817   3.348   1.692   5.074 -0.4180  0.0682 -0.0635
13801TIP3    H162818   3.284   1.741   5.126  0.2293  1.2507 -0.3401
13801TIP3    H262819   3.305   1.609   5.055 -1.7332  0.6970  0.0554
13802TIP3   OH262820   1.175   0.772  15.456  0.0984 -0.3538  0.1469
13802TIP3    H162821   1.138   0.832  15.521 -1.4502  0.1156 -1.1021
13802TIP3    H262822   1.177   0.823  15.375  0.5985 -1.3864 -0.5171
13803TIP3   OH262823   0.012   1.779  10.251 -0.1665  0.2694 -0.3608
13803TIP3    H162824  -0.053   1.840  10.287 -0.2245 -0.0068  0.0153
13803TIP3    H262825  -0.040   1.710  10.211 -0.1038  0.3302 -0.5452
13804TIP3   OH262826   2.333   3.991   0.588  0.3769  0.0678 -0.3871
13804TIP3    H162827   2.288   3.907   0.581  0.5344  0.0122 -0.7578
13804TIP3    H262828   2.417   3.971   0.629 -0.0984  0.2328  0.7033
13805TIP3   OH262829   5.868   4.988  12.053  0.0916 -0.2543 -0.5672
13805TIP3    H162830   5.856   4.905  12.098 -1.8020 -0.2831 -1.0453
13805TIP3    H262831   5.826   5.053  12.109  0.8907  0.2867 -0.5663
13806TIP3   OH262832   0.817   0.248   2.633 -0.1648 -0.1910  0.0854
13806TIP3    H162833   0.892   0.301   2.604  0.2198  0.3306  1.8965
13806TIP3    H262834   0.753   0.312   2.664 -0.0632 -0.7243  1.4652
13807TIP3   OH262835   7.016   3.534   1.442  0.2121  0.0533  0.3502
13807TIP3    H162836   6.954   3.463   1.422 -1.9722  1.7668  0.6219
13807TIP3    H262837   7.096   3.510   1.396 -0.7103 -2.1455 -0.2540
13808TIP3   OH262838   2.727   0.461   5.584 -0.5201 -0.3122 -0.4452
13808TIP3    H162839   2.762   0.457   5.673  0.9640 -0.8122 -1.0231
13808TIP3    H262840   2.724   0.555   5.565 -0.5062 -0.2168  0.0041
13809TIP3   OH262841   5.963   6.642   3.302 -0.0738 -0.1226  0.3452
13809TIP3    H162842   5.889   6.583   3.315 -0.5614  0.5029  0.4138
13809TIP3    H262843   5.926   6.729   3.307  0.2460  0.1993 -1.9802
13810TIP3   OH262844   1.421   0.094  13.992 -0.2958 -0.1140  0.6967
13810TIP3    H162845   1.461   0.011  13.966 -1.2521 -0.2435 -0.4727
13810TIP3    H262846   1.458   0.113  14.078  0.0137 -1.7017  0.9407
13811TIP3   OH262847   0.659   3.566   0.329 -0.4401 -0.1436  0.0433
13811TIP3    H162848   0.700   3.521   0.403  0.9055 -0.3157 -0.7773
13811TIP3    H262849   0.640   3.654   0.361 -1.0418 -0.5907  0.9658
13812TIP3   OH262850   4.564   0.340   1.917  0.3975 -0.3570  0.2324
13812TIP3    H162851   4.556   0.305   2.005  0.2035 -0.1325  0.3027
13812TIP3    H262852   4.629   0.410   1.924  0.5125 -0.4533  0.1605
13813TIP3   OH262853   6.095   4.119   2.151  0.0187 -0.1364 -0.0394
13813TIP3    H162854   6.089   4.157   2.238 -1.5620 -1.1184  0.3325
13813TIP3    H262855   6.173   4.158   2.112  0.8452  0.2023  1.8637
13814TIP3   OH262856   4.878   1.069   0.872  0.4836 -0.4423  0.1246
13814TIP3    H162857   4.809   1.099   0.931 -0.3300 -1.7512 -0.1359
13814TIP3    H262858   4.953   1.052   0.929  1.0928  2.2851  0.2540
13815TIP3   OH262859   0.466   1.341   9.737  0.1099  0.5829 -0.2277
13815TIP3    H162860   0.398   1.283   9.771  0.2091  0.2704 -0.5695
13815TIP3    H262861   0.446   1.426   9.778 -1.0572  0.7385 -1.0428
13816TIP3   OH262862   0.497   0.576   4.330  0.6751 -0.0732 -0.0737
13816TIP3    H162863   0.580   0.605   4.293  0.2362 -0.6531 -1.5996
13816TIP3    H262864   0.432   0.605   4.266 -0.3429  0.6307  1.2367
13817TIP3   OH262865   3.946   4.108  10.251 -0.4766 -0.0534  0.4910
13817TIP3    H162866   4.030   4.085  10.210 -2.6704 -2.7335 -3.0389
13817TIP3    H262867   3.953   4.073  10.340  2.1198 -0.1258  0.3486
13818TIP3   OH262868   4.564   4.563   3.530 -0.3198 -0.4592  0.1342
13818TIP3    H162869   4.639   4.576   3.471 -0.3437  1.1667  0.4221
13818TIP3    H262870   4.518   4.487   3.493  1.1615 -1.1744 -0.3513
13819TIP3   OH262871   0.915   4.626  14.985 -0.1501  0.0768  0.7404
13819TIP3    H162872   0.985   4.587  14.933 -0.1669  0.0136  0.7654
13819TIP3    H262873   0.854   4.662  14.920 -0.0099  0.2819  0.7207
13820TIP3   OH262874   2.603   5.216  13.625 -0.0960 -0.8758 -0.3846
13820TIP3    H162875   2.693   5.230  13.594 -0.3177  0.0671 -0.6426
13820TIP3    H262876   2.548   5.259  13.560 -0.8135 -2.2753 -0.7369
13821TIP3   OH262877   0.602   2.594  10.259 -0.6843  0.0195 -0.2468
13821TIP3    H162878   0.682   2.546  10.241 -0.9107 -2.6070  4.1376
13821TIP3    H262879   0.548   2.582  10.181  1.4876 -1.9462 -1.5773
13822TIP3   OH262880   6.286   6.004   5.649  0.8650 -0.2895  0.3792
13822TIP3    H162881   6.231   5.930   5.677 -0.0012  0.6714  1.3207
13822TIP3    H262882   6.375   5.977   5.672  0.6417 -1.2889  0.1407
13823TIP3   OH262883   0.833   2.101  12.526 -0.0764 -0.1303 -0.1464
13823TIP3    H162884   0.822   2.151  12.607  0.8912  0.7074 -0.5133
13823TIP3    H262885   0.927   2.104  12.508 -0.4077  0.7291 -1.9332
13824TIP3   OH262886   4.510   2.430   3.599  0.2465 -0.2928  0.2883
13824TIP3    H162887   4.438   2.414   3.659  0.1995 -0.7323  0.1197
13824TIP3    H262888   4.586   2.390   3.641  0.3227 -0.1350  0.3026
13825TIP3   OH262889   6.793   6.900   1.497 -0.0352  0.1571  0.2252
13825TIP3    H162890   6.735   6.893   1.573 -1.0318  2.1536 -0.2718
13825TIP3    H262891   6.842   6.981   1.512  1.8823 -0.9412  0.1025
13826TIP3   OH262892   1.607   5.825   0.501 -0.1718  0.4126  0.3897
13826TIP3    H162893   1.657   5.747   0.478  0.5432  0.8311  0.4575
13826TIP3    H262894   1.639   5.849   0.588  0.5317  1.4602 -0.1218
13827TIP3   OH262895   0.194   0.895   3.438 -0.1457  0.2142  0.4022
13827TIP3    H162896   0.187   0.990   3.426 -0.9765  0.1890  0.6174
13827TIP3    H262897   0.269   0.884   3.496  1.0824  0.6127 -1.0510
13828TIP3   OH262898   4.545   2.302   4.155  0.5969  0.3854 -0.2761
13828TIP3    H162899   4.625   2.249   4.162 -0.1022 -0.6055  0.5151
13828TIP3    H262900   4.537   2.320   4.062  2.9583  2.4725 -0.1746
13829TIP3   OH262901   1.598   4.499   4.629  0.3177 -0.1791  0.3595
13829TIP3    H162902   1.582   4.479   4.721 -0.0828 -0.9075  0.1428
13829TIP3    H262903   1.564   4.588   4.617  1.5987  0.4520  1.2184
13830TIP3   OH262904   4.335   3.265   2.310 -0.0262 -0.5035  0.2852
13830TIP3    H162905   4.311   3.324   2.382 -1.8694 -1.1263  0.2521
13830TIP3    H262906   4.251   3.227   2.282  0.9253 -1.9808 -0.7004
13831TIP3   OH262907   1.046   2.761  13.190 -0.4099 -0.1178 -0.0758
13831TIP3    H162908   1.121   2.733  13.242 -0.0444 -1.4989 -1.2853
13831TIP3    H262909   1.016   2.841  13.233  1.8660  0.5998  0.3402
13832TIP3   OH262910   5.861   1.545   2.440 -0.4333 -0.0786  0.4840
13832TIP3    H162911   5.956   1.532   2.437 -0.2560  1.2736 -1.1477
13832TIP3    H262912   5.842   1.558   2.533  1.3120  1.6213  0.6781
13833TIP3   OH262913   2.827   4.544   1.976 -0.1679 -0.2987 -0.4411
13833TIP3    H162914   2.749   4.542   2.031 -0.5925 -0.0116 -1.0231
13833TIP3    H262915   2.806   4.606   1.906  0.8896  0.4275 -0.1458
13834TIP3   OH262916   3.425   2.029   2.937 -0.5786  0.5171  0.6714
13834TIP3    H162917   3.471   2.046   2.855  0.0478 -0.7265  0.7363
13834TIP3    H262918   3.495   2.025   3.003 -0.8602 -0.4150  0.9356
13835TIP3   OH262919   2.329   0.662   2.661  0.3550  0.2276 -0.0297
13835TIP3    H162920   2.417   0.651   2.696  0.8153  0.2474 -1.1305
13835TIP3    H262921   2.320   0.757   2.650  0.0833  0.2478  0.3330
13836TIP3   OH262922   4.126   2.087   0.048  0.3667  0.4843 -0.2949
13836TIP3    H162923   4.217   2.100   0.074  0.4489 -0.5851  0.0043
13836TIP3    H262924   4.077   2.150   0.101  0.6871 -0.6685  1.4532
13837TIP3   OH262925   5.161   0.754   0.849  0.1877  0.0069  0.2410
13837TIP3    H162926   5.113   0.689   0.900  0.3080 -0.1901  0.1085
13837TIP3    H262927   5.157   0.721   0.759  0.0798  0.2877  0.1422
13838TIP3   OH262928   3.073   7.005  11.933 -0.4496  0.4892  0.1327
13838TIP3    H162929   3.161   7.015  11.896 -0.2125  0.0242  0.5444
13838TIP3    H262930   3.089   6.982  12.025 -0.9674 -1.0107 -0.1258
13839TIP3   OH262931   1.693   6.450  13.732  0.4675  0.1140 -0.4870
13839TIP3    H162932   1.655   6.396  13.801  0.7259  1.0243  0.3829
13839TIP3    H262933   1.624   6.458  13.666 -0.3468  0.5516  0.4038
13840TIP3   OH262934   0.405   5.736   5.015  0.6255 -0.3202 -0.5967
13840TIP3    H162935   0.413   5.774   4.927  0.9336 -0.5526 -0.6664
13840TIP3    H262936   0.463   5.660   5.015  0.2489 -0.6154 -0.3521
13841TIP3   OH262937   0.725   0.907   4.720  0.1042 -0.1943  0.2672
13841TIP3    H162938   0.665   0.869   4.784 -2.8117  2.3407 -0.7047
13841TIP3    H262939   0.672   0.917   4.640  2.2132  0.9517 -1.0834
13842TIP3   OH262940   1.599   5.852   0.950 -0.2073 -0.7898  0.5507
13842TIP3    H162941   1.608   5.777   0.891 -2.0826  0.0904 -0.9946
13842TIP3    H262942   1.547   5.819   1.023 -1.6010 -0.9065 -0.4430
13843TIP3   OH262943   3.534   0.793  15.308 -0.6680  0.5057 -0.2066
13843TIP3    H162944   3.514   0.714  15.257 -0.5551 -1.1363  2.1727
13843TIP3    H262945   3.630   0.797  15.309 -0.6740  0.8539 -0.5260
13844TIP3   OH262946   0.926   0.904   4.089  0.3734  0.1993 -0.4768
13844TIP3    H162947   0.911   0.974   4.025  0.5468  0.6846  0.0137
13844TIP3    H262948   0.919   0.946   4.174  2.0657 -0.0314 -0.1796
13845TIP3   OH262949   3.845   5.271   5.142  0.1565 -0.3726 -0.2308
13845TIP3    H162950   3.837   5.233   5.229  2.1508 -1.8950 -0.6366
13845TIP3    H262951   3.840   5.366   5.157 -0.7546 -0.6343  1.3497
13846TIP3   OH262952   5.846   3.571   5.551 -0.8499 -0.0572 -0.7103
13846TIP3    H162953   5.936   3.537   5.556 -1.3265 -1.3116 -0.0461
13846TIP3    H262954   5.828   3.604   5.639 -0.6930  1.1910 -1.1262
13847TIP3   OH262955   0.023   1.339   3.187  0.1508  0.3418  0.2820
13847TIP3    H162956  -0.028   1.370   3.112 -1.7535 -0.1610  1.3072
13847TIP3    H262957   0.036   1.417   3.242  1.2407  0.6346 -0.3450
13848TIP3   OH262958   2.100   2.914   4.832  0.3105 -0.0254 -0.1660
13848TIP3    H162959   2.134   2.949   4.915  0.8158  0.0771 -0.4100
13848TIP3    H262960   2.009   2.944   4.829  0.2414 -0.1608  0.4219
13849TIP3   OH262961   0.446   6.530  10.259 -0.3616  0.2066 -0.2370
13849TIP3    H162962   0.407   6.546  10.173 -2.4060 -0.7900  0.4550
13849TIP3    H262963   0.408   6.597  10.315  0.0393  0.0980  0.1729
13850TIP3   OH262964   5.776   3.807   3.669 -0.3786  0.5860 -0.3343
13850TIP3    H162965   5.784   3.769   3.756  0.3080  1.6618  0.0827
13850TIP3    H262966   5.775   3.731   3.610  1.0841 -0.0955  0.4691
13851TIP3   OH262967   0.765   0.710   9.136  0.6537 -0.0807 -0.0930
13851TIP3    H162968   0.716   0.647   9.082  1.7869  0.1544 -1.4780
13851TIP3    H262969   0.811   0.656   9.200 -0.3458 -0.4193  0.3510
13852TIP3   OH262970   0.500   2.338  12.107  0.3576  0.5926  0.3306
13852TIP3    H162971   0.586   2.332  12.065 -0.3115 -0.4599 -0.9565
13852TIP3    H262972   0.437   2.329  12.035 -0.8342  0.1064  1.3883
13853TIP3   OH262973   0.171   3.425  15.293  0.1477 -0.4003  0.0334
13853TIP3    H162974   0.217   3.461  15.369  1.0537 -0.1463 -0.6091
13853TIP3    H262975   0.240   3.408  15.229 -0.5680 -0.8364 -0.6472
13854TIP3   OH262976   2.697   1.734  11.424  0.2333  0.2912 -0.2653
13854TIP3    H162977   2.638   1.810  11.420  1.0007  1.1138  2.2182
13854TIP3    H262978   2.686   1.700  11.513  2.8526 -0.0567 -0.0149
13855TIP3   OH262979   5.210   3.797   3.942  0.6980 -0.0804 -0.3046
13855TIP3    H162980   5.189   3.739   4.015  0.3291 -1.6970 -1.6451
13855TIP3    H262981   5.298   3.769   3.915  1.7159  1.8745  0.7496
13856TIP3   OH262982   5.889   4.176  12.684 -0.3907 -0.5405 -0.0461
13856TIP3    H162983   5.925   4.090  12.707  0.3452  0.1695  1.6719
13856TIP3    H262984   5.794   4.163  12.685 -0.2748 -1.6106 -1.0445
13857TIP3   OH262985   5.243   2.113   2.097 -0.4086 -0.1546 -0.5684
13857TIP3    H162986   5.239   2.018   2.089 -4.9829 -0.2927  0.7105
13857TIP3    H262987   5.290   2.129   2.179 -0.1712 -1.3535 -0.4610
13858TIP3   OH262988   5.756   2.282   2.263  0.0982 -0.4806  0.1247
13858TIP3    H162989   5.762   2.189   2.241 -1.4789 -0.2993 -1.3128
13858TIP3    H262990   5.829   2.323   2.218 -1.7071 -0.4665 -3.0512
13859TIP3   OH262991   4.080   3.472  14.824  0.0691 -0.3898  0.5038
13859TIP3    H162992   4.047   3.477  14.734 -0.7111  1.0571  0.8384
13859TIP3    H262993   4.093   3.563  14.850  0.0767 -0.7726  1.9288
13860TIP3   OH262994   6.297   3.390   1.847 -0.4328 -0.3534  0.2521
13860TIP3    H162995   6.342   3.365   1.928 -0.9139  0.2189  0.7109
13860TIP3    H262996   6.215   3.340   1.849 -1.6080  1.4863  1.3963
13861TIP3   OH262997   0.763   2.869   4.038 -0.1901 -0.1124 -0.3502
13861TIP3    H162998   0.820   2.806   3.995  1.5533  1.3657 -0.3234
13861TIP3    H262999   0.698   2.891   3.971 -0.4521 -1.4286 -0.5553
13862TIP3   OH263000   6.737   3.261   2.061 -0.4595  0.0127  0.7650
13862TIP3    H163001   6.817   3.217   2.031  1.0557  2.9788  0.0623
13862TIP3    H263002   6.722   3.225   2.149  0.7515 -1.6947  0.3341
13863TIP3   OH263003   4.084   4.594  12.383  0.5782 -0.5110  0.0377
13863TIP3    H163004   4.150   4.537  12.342 -1.0669 -3.7379  1.5118
13863TIP3    H263005   4.118   4.610  12.471  0.3879 -0.3497  0.0825
13864TIP3   OH263006   4.003   5.787   4.085 -0.4294  0.0203 -0.0697
13864TIP3    H163007   3.982   5.818   4.173  0.5778  2.3738 -0.5822
13864TIP3    H263008   3.959   5.848   4.027 -0.2031 -0.8770 -1.2161
13865TIP3   OH263009   4.226   1.494   2.785  0.1776  0.2190 -0.0145
13865TIP3    H163010   4.253   1.548   2.710  0.7627  0.1637  0.1524
13865TIP3    H263011   4.131   1.486   2.775  0.2062  0.4846 -0.5698
13866TIP3   OH263012   4.882   3.152  15.308  0.0886  0.0375  0.4915
13866TIP3    H163013   4.840   3.180  15.227  0.2247 -0.0038  0.4059
13866TIP3    H263014   4.970   3.191  15.306  0.4075 -0.6647  0.2056
13867TIP3   OH263015   6.940   0.744   1.263 -0.0834  0.2574  0.0324
13867TIP3    H163016   6.874   0.796   1.216  0.1637  1.2221  0.7184
13867TIP3    H263017   6.914   0.748   1.354 -1.2413 -2.6098 -0.0658
13868TIP3   OH263018   6.435   1.629   2.300  0.2534  0.7061 -0.0979
13868TIP3    H163019   6.509   1.691   2.298  0.8755  0.0773  1.5509
13868TIP3    H263020   6.469   1.550   2.258  1.1417 -0.1520  2.0859
13869TIP3   OH263021   0.038   1.024   4.136  0.2950  0.3725 -0.1018
13869TIP3    H163022   0.090   1.103   4.120  1.4098 -0.1817  0.6698
13869TIP3    H263023   0.019   1.027   4.229 -1.1868  0.6188 -0.3953
13870TIP3   OH263024   6.325   4.232   3.573  0.0938 -1.0002  0.2396
13870TIP3    H163025   6.419   4.214   3.575  0.9634  2.6694  0.4463
13870TIP3    H263026   6.305   4.244   3.480  0.5969  1.1011  0.3539
13871TIP3   OH263027   4.652   0.403  15.451 -0.6422  0.0408  0.2729
13871TIP3    H163028   4.622   0.446  15.531 -0.0961  3.0584 -1.0283
13871TIP3    H263029   4.584   0.423  15.386 -0.0505 -0.5535 -0.5509
13872TIP3   OH263030   1.779   0.312   2.973  0.3263 -0.1936 -0.1138
13872TIP3    H163031   1.801   0.229   2.929  0.0766  1.0020 -2.6949
13872TIP3    H263032   1.852   0.370   2.952  0.2129  0.4444  1.1702
13873TIP3   OH263033   6.185   0.167   1.323 -0.1642  0.0200 -0.2033
13873TIP3    H163034   6.163   0.189   1.414 -1.8422 -0.2996 -0.5015
13873TIP3    H263035   6.248   0.095   1.331  0.3490  0.5566  0.7084
13874TIP3   OH263036   3.437   1.042  15.223 -0.0349  0.4101 -0.1163
13874TIP3    H163037   3.525   1.037  15.184 -0.4712 -1.8016 -0.9861
13874TIP3    H263038   3.434   0.968  15.283 -1.3444  0.3898 -0.1825
13875TIP3   OH263039   4.479   2.872   5.704 -0.3095 -0.2721  0.4305
13875TIP3    H163040   4.517   2.955   5.674 -0.2025 -0.1672  0.8416
13875TIP3    H263041   4.555   2.820   5.731 -0.3191 -0.7893 -0.5123
13876TIP3   OH263042   6.957   2.277   1.008  0.3410 -0.7533  0.4711
13876TIP3    H163043   6.976   2.328   1.087 -0.0471 -0.6536  0.4984
13876TIP3    H263044   6.955   2.186   1.038  0.4446 -0.7366  0.5299
13877TIP3   OH263045   6.705   3.622   0.295  0.5645 -0.2721 -0.1959
13877TIP3    H163046   6.776   3.558   0.298 -0.2610 -1.2284 -0.7432
13877TIP3    H263047   6.631   3.578   0.338 -0.0388  0.2766 -0.6641
13878TIP3   OH263048   5.528   5.093   3.869 -0.0936  0.4636 -0.1249
13878TIP3    H163049   5.507   5.114   3.961  1.8592  1.5636  0.1182
13878TIP3    H263050   5.602   5.033   3.874 -0.5748 -0.2176 -0.9917
13879TIP3   OH263051   5.104   3.612  14.775  0.2438  0.7043  0.3238
13879TIP3    H163052   5.056   3.535  14.745  2.3893 -0.4858 -0.1910
13879TIP3    H263053   5.140   3.587  14.860  0.8190  1.1846  0.2272
13880TIP3   OH263054   7.022   5.068   5.388  0.1237 -0.4210  0.6847
13880TIP3    H163055   6.982   5.082   5.474 -2.5999 -1.1983 -0.3349
13880TIP3    H263056   7.059   4.980   5.393  0.8382 -0.0884  1.3520
13881TIP3   OH263057   1.599   3.286   3.306 -0.0425 -0.2252  0.4273
13881TIP3    H163058   1.588   3.352   3.238 -0.7788  0.3784  1.1097
13881TIP3    H263059   1.687   3.251   3.292  0.2600  0.7167 -0.1130
13882TIP3   OH263060   2.538   3.182   2.104 -0.5851  0.1880 -0.0360
13882TIP3    H163061   2.520   3.270   2.137 -0.8164 -0.0968  0.6023
13882TIP3    H263062   2.577   3.197   2.018  0.1588  0.9471  0.4118
13883TIP3   OH263063   6.848   6.735  14.195 -0.2985 -0.1781  0.1486
13883TIP3    H163064   6.797   6.815  14.207  0.0303  0.3238 -1.4796
13883TIP3    H263065   6.929   6.764  14.151  0.7533 -1.1439  1.3607
13884TIP3   OH263066   6.265   1.854   0.849  1.0366 -0.1233 -0.2569
13884TIP3    H163067   6.315   1.889   0.923  1.6218  0.2043 -0.7914
13884TIP3    H263068   6.276   1.759   0.855  0.4645 -0.1469  0.4991
13885TIP3   OH263069   3.526   1.672   1.423 -0.1623  0.2906  0.0251
13885TIP3    H163070   3.554   1.717   1.502  0.5454  0.5382 -0.3555
13885TIP3    H263071   3.433   1.652   1.438 -0.0883  0.5180  0.8210
13886TIP3   OH263072   3.875   1.935  11.739 -0.5297 -0.0613 -0.5861
13886TIP3    H163073   3.867   1.992  11.663  2.7171 -0.8072 -1.6245
13886TIP3    H263074   3.841   1.987  11.812 -1.3381  1.6512 -2.1174
13887TIP3   OH263075   0.364   4.031  14.791  0.0790  0.4036 -0.0775
13887TIP3    H163076   0.353   3.987  14.875 -0.6069  0.4503 -0.1345
13887TIP3    H263077   0.338   3.966  14.726 -0.1461  0.6186 -0.2046
13888TIP3   OH263078   4.425   4.740   3.215  0.1491  0.4423  0.2956
13888TIP3    H163079   4.509   4.697   3.229  0.4678  0.9782  0.0460
13888TIP3    H263080   4.406   4.725   3.122  0.0553  0.4767  0.3092
13889TIP3   OH263081   4.823   5.308   4.743  0.7407  0.1289  0.8047
13889TIP3    H163082   4.815   5.221   4.704 -1.0147  0.6463 -0.0715
13889TIP3    H263083   4.742   5.319   4.794  0.6907  1.4334  0.4839
13890TIP3   OH263084   5.125   1.415   4.373 -0.1929  0.3548 -0.3743
13890TIP3    H163085   5.168   1.488   4.416 -0.0434  0.7643 -1.2123
13890TIP3    H263086   5.031   1.433   4.384 -0.1658  0.0695  0.4165
13891TIP3   OH263087   2.871   1.632   1.636 -0.0569  0.0743 -0.5295
13891TIP3    H163088   2.951   1.579   1.642  0.6106  1.1769  0.8573
13891TIP3    H263089   2.800   1.569   1.647  0.6678 -0.7139 -0.1930
13892TIP3   OH263090   3.604   0.466  15.612  0.1403  0.3537 -0.9140
13892TIP3    H163091   3.685   0.514  15.595  0.6647 -0.2259 -0.1309
13892TIP3    H263092   3.568   0.508  15.690  0.3729 -0.2450 -0.4862
13893TIP3   OH263093   5.550   5.792  14.842  0.1767  0.0455  0.0467
13893TIP3    H163094   5.645   5.783  14.853  0.3142  2.2529  1.4669
13893TIP3    H263095   5.512   5.725  14.898  0.9525  0.6007  1.2896
13894TIP3   OH263096   4.880   5.992  14.139  0.1370 -0.0784 -0.2261
13894TIP3    H163097   4.901   5.988  14.233 -2.2207 -0.5452  0.3505
13894TIP3    H263098   4.827   5.913  14.124 -0.8815  0.8304 -1.5696
13895TIP3   OH263099   4.792   4.980   3.532  0.1575  0.5856  0.1261
13895TIP3    H163100   4.729   4.930   3.480 -0.7070  0.0772  1.5747
13895TIP3    H263101   4.757   5.069   3.532 -0.7176  0.2690  1.0793
13896TIP3   OH263102   0.627   4.680   0.921 -0.5824  0.2341 -0.0235
13896TIP3    H163103   0.640   4.595   0.878  2.0051  0.6947 -0.3081
13896TIP3    H263104   0.677   4.673   1.002 -1.3197  1.1210  0.5269
13897TIP3   OH263105   6.330   3.406  14.588  0.3949  0.0263 -0.0609
13897TIP3    H163106   6.324   3.378  14.680  1.8294 -0.6842 -0.1568
13897TIP3    H263107   6.244   3.442  14.568  0.3090  0.9532  1.8087
13898TIP3   OH263108   0.043   6.059   5.356  0.2144  0.0239  0.3617
13898TIP3    H163109   0.046   6.153   5.337 -0.3350  0.1139  0.6864
13898TIP3    H263110  -0.022   6.051   5.426  0.3860 -0.5803  0.4587
13899TIP3   OH263111   4.112   5.931  12.733 -0.5924 -0.1617  0.2159
13899TIP3    H163112   4.022   5.963  12.744 -0.8626 -1.3137  1.5691
13899TIP3    H263113   4.131   5.946  12.640 -1.1945  2.5486  0.4499
13900TIP3   OH263114   1.487   1.058   5.679  0.5614 -0.1325 -0.2474
13900TIP3    H163115   1.457   1.148   5.687  2.2652  0.4636 -0.0904
13900TIP3    H263116   1.549   1.047   5.752  0.2419 -1.4922 -0.1543
13901TIP3   OH263117   1.517   6.873   6.035  0.2706  0.3075  0.4399
13901TIP3    H163118   1.554   6.791   6.067 -0.1101  0.8478  2.4260
13901TIP3    H263119   1.422   6.862   6.044  0.1295  0.4614 -0.6661
13902TIP3   OH263120   1.936   6.230   4.745 -0.2292 -0.1006  0.2235
13902TIP3    H163121   1.965   6.309   4.699 -2.4417  0.4193 -0.4184
13902TIP3    H263122   1.881   6.184   4.681  0.0754 -1.5731  0.9739
13903TIP3   OH263123   0.051   6.748  13.826  0.1853 -0.0964 -0.7500
13903TIP3    H163124  -0.018   6.789  13.879 -0.2338 -2.7890  0.9710
13903TIP3    H263125   0.120   6.815  13.821 -1.0079  1.3214  0.6430
13904TIP3   OH263126   1.991   3.508   4.096  0.0128  0.0357  0.1582
13904TIP3    H163127   1.924   3.448   4.130 -0.7110  0.5176 -0.3871
13904TIP3    H263128   2.068   3.452   4.082 -0.2927 -0.5446  0.7158
13905TIP3   OH263129   1.415   1.354   5.351  0.2298 -0.2296  0.6143
13905TIP3    H163130   1.506   1.365   5.326  0.2039 -0.7752  0.2542
13905TIP3    H263131   1.400   1.259   5.345 -0.6185 -0.0610 -0.2744
13906TIP3   OH263132   3.532   4.002   6.096  0.1397 -0.2088  0.0001
13906TIP3    H163133   3.580   3.931   6.053 -0.1488 -1.0105  0.9757
13906TIP3    H263134   3.443   3.995   6.060  0.0548 -0.4831  0.2629
13907TIP3   OH263135   6.282   4.838   3.743 -0.9889  0.5641  0.4720
13907TIP3    H163136   6.378   4.831   3.737 -1.1137 -3.2387  0.5037
13907TIP3    H263137   6.252   4.834   3.652 -1.1728  0.6543  0.5277
13908TIP3   OH263138   0.686   7.102   0.055 -0.2842  0.0948 -0.1509
13908TIP3    H163139   0.728   7.118  -0.030  1.6644 -0.8850  0.5796
13908TIP3    H263140   0.634   7.181   0.070  1.8117  1.7047 -0.8374
13909TIP3   OH263141   3.415   2.207  13.721 -0.3076  0.2782  0.0092
13909TIP3    H163142   3.460   2.225  13.639  0.0177  0.7013  0.2774
13909TIP3    H263143   3.322   2.222  13.702 -0.2789 -0.0486 -0.3931
13910TIP3   OH263144   6.901   6.651   0.456 -0.5019  0.6882 -0.1369
13910TIP3    H163145   6.938   6.686   0.538 -2.3741  2.8899 -0.1217
13910TIP3    H263146   6.853   6.573   0.483  1.6533 -0.5676  0.2699
13911TIP3   OH263147   3.716   3.971   4.406 -0.3219  0.8507  0.2087
13911TIP3    H163148   3.768   3.933   4.477 -0.4615 -0.0006 -0.1344
13911TIP3    H263149   3.669   3.897   4.368  1.2594  0.9454 -2.0729
13912TIP3   OH263150   4.917   4.273  15.220  0.2453  0.1743  0.6272
13912TIP3    H163151   4.974   4.280  15.144  0.9012  2.0425  1.2446
13912TIP3    H263152   4.884   4.183  15.216  1.3282 -0.2068 -1.0784
13913TIP3   OH263153   0.806   4.197   4.165  0.1674 -0.1839 -0.0016
13913TIP3    H163154   0.797   4.111   4.206  0.1783  0.7801  2.1089
13913TIP3    H263155   0.754   4.256   4.219  0.4966  1.2386 -1.1681
13914TIP3   OH263156   3.703   0.696  14.571 -0.6474  0.5840 -0.4989
13914TIP3    H163157   3.687   0.776  14.522  2.1505  1.7999  0.3499
13914TIP3    H263158   3.759   0.723  14.644 -0.4215 -1.9931  0.4110
13915TIP3   OH263159   6.498   2.294  13.408  0.2250  0.2464  0.4244
13915TIP3    H163160   6.414   2.311  13.365  0.8060  1.1823 -0.3874
13915TIP3    H263161   6.562   2.339  13.354  1.9082 -3.9627 -1.5161
13916TIP3   OH263162   4.177   3.611   4.926 -0.1482  0.3549 -0.0192
13916TIP3    H163163   4.202   3.629   4.835 -0.9837  1.0801 -0.1324
13916TIP3    H263164   4.137   3.524   4.924 -0.0300  0.3074 -0.3182
13917TIP3   OH263165   1.575   2.886   4.133 -0.7529  0.4246  0.6044
13917TIP3    H163166   1.575   2.953   4.202  1.1144  0.6220  0.4707
13917TIP3    H263167   1.641   2.916   4.070 -0.6779 -0.9851 -0.0360
13918TIP3   OH263168   2.636   5.236   0.402 -0.6366  0.1922 -0.4396
13918TIP3    H163169   2.632   5.143   0.378 -0.7465 -0.5859  2.2289
13918TIP3    H263170   2.711   5.242   0.462 -1.8689  1.3556  1.0783
13919TIP3   OH263171   0.611   7.115  12.693  0.7257 -0.2466  0.2123
13919TIP3    H163172   0.603   7.088  12.784  0.0288 -0.4806  0.0859
13919TIP3    H263173   0.591   7.036  12.643  0.0906  0.1334 -0.1468
13920TIP3   OH263174   3.828   0.548   3.996  0.1765 -0.3818  0.8454
13920TIP3    H163175   3.829   0.455   4.020 -0.1278 -1.0918 -1.5827
13920TIP3    H263176   3.853   0.594   4.076  0.8684 -2.5811  1.9780
13921TIP3   OH263177   4.149   1.754   3.209  0.4428  0.1540  0.1770
13921TIP3    H163178   4.166   1.837   3.253  0.3929  0.0371  0.4213
13921TIP3    H263179   4.137   1.777   3.117 -0.9884  0.6034  0.4521
13922TIP3   OH263180   2.470   1.671   2.604 -0.3222  0.0226  0.2435
13922TIP3    H163181   2.428   1.589   2.576  0.0900 -0.6273  1.4894
13922TIP3    H263182   2.424   1.696   2.684  1.4286 -0.5265  1.4530
13923TIP3   OH263183   2.786   3.088   1.287 -0.4780  0.2546  0.6212
13923TIP3    H163184   2.843   3.035   1.232  0.1904  1.1439  0.4560
13923TIP3    H263185   2.720   3.123   1.227  0.2365  1.2051  0.3659
13924TIP3   OH263186   0.675   1.967   4.101  0.5950  0.3328 -0.1692
13924TIP3    H163187   0.717   2.047   4.133  0.6323  0.5232 -0.6742
13924TIP3    H263188   0.591   1.965   4.147  0.8184  0.3781  0.2439
13925TIP3   OH263189   5.155   1.485   1.292 -0.2575  0.1064  0.2881
13925TIP3    H163190   5.142   1.500   1.385  0.6044  0.5386  0.3417
13925TIP3    H263191   5.224   1.418   1.288 -1.4452 -1.1412 -0.0151
13926TIP3   OH263192   3.191   7.066   4.460  0.2724  0.1422 -0.0313
13926TIP3    H163193   3.208   7.152   4.421 -1.2550 -0.7862 -3.0455
13926TIP3    H263194   3.254   7.008   4.417 -0.2973 -0.6547  0.1838
13927TIP3   OH263195   4.443   4.273   3.032  0.5943 -0.4331  0.3291
13927TIP3    H163196   4.417   4.190   3.072  0.1440 -0.0815  0.7953
13927TIP3    H263197   4.507   4.249   2.966  1.0053 -1.0825  0.9449
13928TIP3   OH263198   0.829   2.561  12.820 -0.0731 -0.6897  0.2752
13928TIP3    H163199   0.778   2.639  12.845  0.3630  0.3065 -1.7043
13928TIP3    H263200   0.884   2.543  12.896 -1.5294 -0.2390  1.4917
13929TIP3   OH263201   0.122   2.108   1.788 -0.0018 -0.0735  0.1704
13929TIP3    H163202   0.153   2.100   1.697  1.6588  2.2716  0.4377
13929TIP3    H263203   0.131   2.201   1.808 -1.1773 -0.3883  2.4894
13930TIP3   OH263204   1.137   6.472   3.224 -0.3581  0.7622 -0.4063
13930TIP3    H163205   1.212   6.498   3.170  0.5918 -0.2783  0.3621
13930TIP3    H263206   1.167   6.484   3.314 -1.3350  0.9010 -0.0881
13931TIP3   OH263207   4.307   6.240  13.115  0.1530  0.3284  0.4387
13931TIP3    H163208   4.275   6.152  13.097  1.1599  0.0756 -0.1773
13931TIP3    H263209   4.251   6.297  13.061  1.2456 -0.1754 -1.3039
13932TIP3   OH263210   1.671   5.444   3.709  0.5397 -0.0032 -0.3003
13932TIP3    H163211   1.755   5.478   3.739  0.3985  0.5026 -0.4729
13932TIP3    H263212   1.632   5.404   3.786  1.5209 -1.4486 -0.5073
13933TIP3   OH263213   4.397   4.215  14.677  0.0487  0.0875  0.2988
13933TIP3    H163214   4.413   4.281  14.610  2.1809  0.0780  0.7262
13933TIP3    H263215   4.327   4.161  14.641 -0.2691  1.2984 -0.9913
13934TIP3   OH263216   6.910   5.233  10.342  0.4843 -0.5588 -0.6482
13934TIP3    H163217   6.901   5.328  10.345 -0.9461 -0.7001  0.4558
13934TIP3    H263218   6.952   5.210  10.425 -0.9186 -1.0249 -0.0404
13935TIP3   OH263219   0.233   1.865   5.720  0.4057  0.0451  0.2749
13935TIP3    H163220   0.287   1.932   5.762 -0.0135  0.0771  0.7847
13935TIP3    H263221   0.178   1.914   5.659 -0.4210  0.2859  1.1762
13936TIP3   OH263222   5.548   5.991   4.084 -0.4362 -0.5410 -0.2034
13936TIP3    H163223   5.579   6.041   4.009  0.4835  2.3214  1.8998
13936TIP3    H263224   5.622   5.936   4.109 -0.0321 -0.0142 -0.2224
13937TIP3   OH263225   6.476   5.726  12.375 -0.2013  0.6519  0.0942
13937TIP3    H163226   6.429   5.711  12.293 -2.2354  1.8950  0.9665
13937TIP3    H263227   6.546   5.660  12.375  0.8164  1.5662 -3.2949
13938TIP3   OH263228   0.295   3.824   4.380  0.2977 -0.0917 -0.0592
13938TIP3    H163229   0.258   3.905   4.414 -0.7393 -0.8271  0.6035
13938TIP3    H263230   0.228   3.758   4.396  2.0639 -1.5786  1.5910
13939TIP3   OH263231   3.642   0.599  12.002 -0.0822  0.2011 -0.5432
13939TIP3    H163232   3.664   0.512  12.036  2.2254  0.5934 -0.8508
13939TIP3    H263233   3.622   0.584  11.910 -0.4143 -0.1003 -0.4222
13940TIP3   OH263234   0.060   4.749   0.578 -0.9084  0.3782  0.2137
13940TIP3    H163235   0.130   4.815   0.577  1.1125 -1.6524  0.5731
13940TIP3    H263236   0.024   4.754   0.666  0.4618 -0.1647  0.8360
13941TIP3   OH263237   5.065   4.671   0.642  0.3415 -0.9254  0.7128
13941TIP3    H163238   5.072   4.629   0.556  1.5251 -1.2051  0.9217
13941TIP3    H263239   5.084   4.763   0.625 -1.5710 -0.5488  0.3631
13942TIP3   OH263240   3.328   2.146  14.339 -0.2434 -0.2130 -0.0590
13942TIP3    H163241   3.297   2.056  14.344 -0.9544  0.0689  0.8486
13942TIP3    H263242   3.423   2.139  14.330 -0.1656 -1.0515  1.1636
13943TIP3   OH263243   6.748   3.666   4.729 -0.7723  0.5423  0.6530
13943TIP3    H163244   6.687   3.725   4.685  0.0255 -0.0557 -1.3923
13943TIP3    H263245   6.738   3.582   4.684  0.6263  0.0840  1.1255
13944TIP3   OH263246   4.102   4.140   1.662  0.8169  0.3018  0.2943
13944TIP3    H163247   4.192   4.116   1.641  1.1919  1.8685 -0.0237
13944TIP3    H263248   4.054   4.057   1.659  1.5316 -0.1473 -3.1440
13945TIP3   OH263249   5.215   6.019  13.128  0.2713 -0.4848  0.3525
13945TIP3    H163250   5.151   6.078  13.168 -0.1977 -0.2388 -0.7289
13945TIP3    H263251   5.282   6.077  13.090  0.2005 -0.6647 -0.0604
13946TIP3   OH263252   5.272   3.113   2.826  0.4195  0.6283  0.1467
13946TIP3    H163253   5.336   3.184   2.821 -0.0802  1.0099 -1.1719
13946TIP3    H263254   5.198   3.142   2.773 -1.5768  0.8795  2.8278
13947TIP3   OH263255   2.882   3.399   1.809  0.2560 -0.1495  0.0502
13947TIP3    H163256   2.798   3.443   1.819  0.1640 -0.1915 -0.5167
13947TIP3    H263257   2.862   3.306   1.824 -0.0612 -0.3326 -1.4379
13948TIP3   OH263258   6.346   0.997   2.315 -0.4545  0.0212 -0.5332
13948TIP3    H163259   6.432   1.039   2.310 -0.6427  0.5589  0.5337
13948TIP3    H263260   6.309   1.029   2.397 -1.8390  0.1100 -1.1763
13949TIP3   OH263261   6.435   0.795  13.385  0.2455  0.0959 -0.0234
13949TIP3    H163262   6.401   0.790  13.474 -2.1805 -1.1268 -0.9421
13949TIP3    H263263   6.522   0.834  13.395  0.1252 -0.1786  2.8677
13950TIP3   OH263264   2.281   0.332  15.161  0.4598  0.9341 -1.1016
13950TIP3    H163265   2.236   0.403  15.207 -1.1549 -0.2910 -0.6835
13950TIP3    H263266   2.260   0.254  15.212  1.5201  0.0264 -1.9983
13951TIP3   OH263267   2.506   3.051  15.143  0.1723 -0.0039 -0.4574
13951TIP3    H163268   2.532   3.088  15.227 -1.3348  0.3119 -0.1113
13951TIP3    H263269   2.418   3.084  15.127  0.0278 -0.8778 -1.6808
13952TIP3   OH263270   2.114   6.654   4.200  0.6840 -0.3406 -0.4548
13952TIP3    H163271   2.139   6.685   4.286  1.5604 -0.7315 -0.5592
13952TIP3    H263272   2.197   6.647   4.152  0.2255 -0.2828 -1.2724
13953TIP3   OH263273   0.240   0.109   0.540  0.2543  0.2482  0.2744
13953TIP3    H163274   0.250   0.021   0.504 -1.8711 -0.0732  0.3184
13953TIP3    H263275   0.329   0.142   0.548  1.0324 -1.4145 -0.9266
13954TIP3   OH263276   3.183   1.501  14.672 -0.4850 -0.0479 -0.4839
13954TIP3    H163277   3.097   1.510  14.712 -0.0479  0.2191  0.4425
13954TIP3    H263278   3.168   1.514  14.579 -1.1454  2.1320 -0.1225
13955TIP3   OH263279   1.887   1.020  14.420  0.3655  0.5015 -0.5163
13955TIP3    H163280   1.910   1.092  14.361  1.3716  0.4539 -0.1859
13955TIP3    H263281   1.814   1.055  14.472 -1.1206  0.2516 -2.3241
13956TIP3   OH263282   6.287   2.878   2.147  0.9241  0.6719 -0.0090
13956TIP3    H163283   6.226   2.931   2.199  0.3835  0.4569 -0.4168
13956TIP3    H263284   6.320   2.813   2.209  2.2395  1.9788  0.7194
13957TIP3   OH263285   0.773   6.845  14.705 -0.0191  0.8164 -0.0133
13957TIP3    H163286   0.757   6.755  14.677 -1.1490  0.8011  0.6287
13957TIP3    H263287   0.847   6.837  14.766  0.3322  0.4300 -0.4712
13958TIP3   OH263288   5.846   6.671  12.075 -0.1336  0.7322 -0.3626
13958TIP3    H163289   5.752   6.689  12.069 -0.6593 -1.9281 -1.7160
13958TIP3    H263290   5.864   6.611  12.003  2.3741  0.1671  0.6036
13959TIP3   OH263291   2.162   6.802  15.322  0.4230  0.0370 -0.6295
13959TIP3    H163292   2.227   6.749  15.369  0.0178  1.1497  1.3246
13959TIP3    H263293   2.201   6.890  15.319 -0.3116  0.3614 -0.8288
13960TIP3   OH263294   3.145   6.674   5.656  0.6578  0.5204 -0.0061
13960TIP3    H163295   3.110   6.753   5.613  1.0342  1.6837  1.7003
13960TIP3    H263296   3.067   6.632   5.693  0.4454  0.0399 -0.9846
13961TIP3   OH263297   3.681   1.420   1.472 -0.5584  0.0706  0.4573
13961TIP3    H163298   3.637   1.435   1.555 -2.0566  1.2842 -0.4893
13961TIP3    H263299   3.685   1.506   1.431  0.7300 -0.3960 -0.4641
13962TIP3   OH263300   6.519   1.455   2.807 -0.4293  0.2686  0.0025
13962TIP3    H163301   6.468   1.497   2.737 -1.5860 -1.7635 -0.4508
13962TIP3    H263302   6.550   1.528   2.861 -0.6360  1.8209 -1.8487
13963TIP3   OH263303   2.357   3.017   1.913  0.5228 -0.5563 -0.4252
13963TIP3    H163304   2.385   3.082   1.849  0.5336 -0.8822 -0.7538
13963TIP3    H263305   2.334   3.068   1.991 -0.0418 -0.1049 -0.8741
13964TIP3   OH263306   2.118   1.920   3.492 -0.3260  0.2103 -0.5969
13964TIP3    H163307   2.151   1.978   3.560 -1.1419  0.7818 -0.6705
13964TIP3    H263308   2.031   1.954   3.472 -1.2321 -1.6046  0.0294
13965TIP3   OH263309   4.444   3.815  14.281  0.0663  0.4170  0.3345
13965TIP3    H163310   4.486   3.733  14.306  0.0422  0.4669  0.5362
13965TIP3    H263311   4.442   3.867  14.361 -1.0992  0.1058  0.5256
13966TIP3   OH263312   5.919   2.470   3.421  0.2016 -0.0083  0.2395
13966TIP3    H163313   5.836   2.454   3.464  0.3594  2.2391  1.5397
13966TIP3    H263314   5.962   2.384   3.418 -1.2295 -0.8150  1.5282
13967TIP3   OH263315   2.691   1.520  10.726  0.0629  0.2001 -0.0770
13967TIP3    H163316   2.677   1.560  10.812 -0.8512 -1.9779  0.8571
13967TIP3    H263317   2.677   1.426  10.740  1.7575 -0.4658 -2.2197
13968TIP3   OH263318   1.534   4.268   0.158 -0.3781 -0.5450 -0.1336
13968TIP3    H163319   1.593   4.217   0.102 -2.1397 -2.6654 -0.2147
13968TIP3    H263320   1.465   4.298   0.098 -0.3433  0.3180  0.2624
13969TIP3   OH263321   4.632   1.597   2.262 -0.3729 -0.0540  0.1215
13969TIP3    H163322   4.697   1.576   2.194  0.3710  0.0271  0.7861
13969TIP3    H263323   4.667   1.554   2.341 -1.1823 -0.0781  0.4689
13970TIP3   OH263324   6.877   1.020   2.352 -0.2986 -0.0286 -0.3729
13970TIP3    H163325   6.901   1.029   2.260 -0.4104 -1.7223 -0.5923
13970TIP3    H263326   6.853   0.928   2.362  0.0069  0.0548  1.4321
13971TIP3   OH263327   4.476   0.906  14.065 -0.2393 -0.2531  0.6620
13971TIP3    H163328   4.444   0.848  14.133  1.5454 -1.3422  0.6284
13971TIP3    H263329   4.552   0.950  14.104 -2.0424  2.8153  1.0191
13972TIP3   OH263330   2.098   3.946  13.603  0.2115  0.1650 -0.0776
13972TIP3    H163331   2.052   3.986  13.677 -1.1993 -0.6316 -0.4966
13972TIP3    H263332   2.172   3.899  13.644 -1.0524 -1.0203  0.9723
13973TIP3   OH263333   6.824   5.100   3.313 -0.5553  0.2049  0.0385
13973TIP3    H163334   6.734   5.118   3.339 -0.5500 -2.4712  2.3390
13973TIP3    H263335   6.871   5.181   3.335 -1.8420  0.4811  2.0358
13974TIP3   OH263336   3.589   5.709   4.876 -0.1920  0.1686 -0.0200
13974TIP3    H163337   3.582   5.796   4.913  0.6060  0.1410  0.2271
13974TIP3    H263338   3.524   5.707   4.806 -1.4185  0.3630  1.0804
13975TIP3   OH263339   0.946   3.853   2.035 -0.1569 -0.0958 -0.0680
13975TIP3    H163340   0.871   3.808   2.074  0.4888 -2.6236 -1.5457
13975TIP3    H263341   0.983   3.790   1.973  1.6711  2.0084 -1.2803
13976TIP3   OH263342   5.959   5.917   4.835 -0.0423  0.2652 -0.3447
13976TIP3    H163343   5.983   5.994   4.887 -1.3938  0.4629  0.0324
13976TIP3    H263344   5.907   5.953   4.762 -2.2072 -0.3863  0.7980
13977TIP3   OH263345   3.987   4.770  10.735 -0.1463 -0.6784  0.1553
13977TIP3    H163346   4.008   4.694  10.790 -0.8218 -0.8705  0.1524
13977TIP3    H263347   4.038   4.758  10.656 -0.2624 -1.1396  0.1512
13978TIP3   OH263348   6.555   1.026   2.593 -0.1040  0.2673  0.1522
13978TIP3    H163349   6.618   1.059   2.658 -2.0639  1.5085  1.5319
13978TIP3    H263350   6.477   1.004   2.644 -0.8961 -1.0026 -1.5241
13979TIP3   OH263351   3.105   5.432  14.639 -0.7576 -0.2088 -0.5650
13979TIP3    H163352   3.161   5.489  14.587 -2.0630  1.5560 -0.1568
13979TIP3    H263353   3.068   5.370  14.577 -0.1232  0.0694 -1.2294
13980TIP3   OH263354   0.596   3.408   2.117  0.0567 -0.5564  0.2522
13980TIP3    H163355   0.519   3.465   2.124 -0.6644 -1.4599  0.0336
13980TIP3    H263356   0.566   3.324   2.151  1.1685 -0.7442  0.7995
13981TIP3   OH263357   5.219   4.899   4.086 -0.3349 -0.1913 -0.4788
13981TIP3    H163358   5.135   4.873   4.047 -1.3210 -0.1159  1.4823
13981TIP3    H263359   5.219   4.857   4.172  0.0970  2.4764  0.9185
13982TIP3   OH263360   4.225   1.160   5.664 -0.5142  0.0923 -0.1327
13982TIP3    H163361   4.178   1.098   5.721 -1.9832 -0.3022 -1.6879
13982TIP3    H263362   4.304   1.182   5.713  1.1586 -4.5318 -0.2259
13983TIP3   OH263363   1.174   0.346  12.746  0.6923  0.4277 -0.1910
13983TIP3    H163364   1.265   0.318  12.744  0.2554 -1.0916  0.3249
13983TIP3    H263365   1.147   0.345  12.654  0.9285 -0.0195 -0.2594
13984TIP3   OH263366   4.110   5.587   5.402  0.5342  0.5471  0.6614
13984TIP3    H163367   4.121   5.497   5.435  0.7926 -0.5403 -2.1338
13984TIP3    H263368   4.079   5.637   5.478 -1.1397 -2.2118  1.9453
13985TIP3   OH263369   0.499   0.739  15.129 -0.3108 -0.4687 -0.5105
13985TIP3    H163370   0.433   0.781  15.184  0.4478  0.2601 -0.1225
13985TIP3    H263371   0.492   0.784  15.045 -0.0932 -0.1751 -0.3708
13986TIP3   OH263372   3.876   4.111  13.933 -0.5192  0.5679  0.2143
13986TIP3    H163373   3.881   4.071  14.020 -0.5620  0.8410  0.3426
13986TIP3    H263374   3.893   4.039  13.873 -1.7222  0.1059  0.4029
13987TIP3   OH263375   3.996   4.744   0.954  0.1545 -0.0967  0.0235
13987TIP3    H163376   3.992   4.675   0.888 -2.4322 -0.4875  0.4740
13987TIP3    H263377   3.916   4.733   1.006  0.1586  2.5838  0.7868
13988TIP3   OH263378   0.048   4.395  14.223  0.0463 -0.1888 -0.2295
13988TIP3    H163379   0.137   4.373  14.195  0.2830  2.5501 -2.0563
13988TIP3    H263380   0.060   4.466  14.286 -0.8177  0.7677 -1.1079
13989TIP3   OH263381   0.163   3.509   5.666 -0.5916  0.5295  0.2017
13989TIP3    H163382   0.071   3.495   5.645 -0.7457 -0.0301  1.1859
13989TIP3    H263383   0.166   3.514   5.762  0.5668 -0.8656  0.2858
13990TIP3   OH263384   1.344   1.905  14.845  0.1292 -0.4391 -0.0347
13990TIP3    H163385   1.278   1.952  14.794 -0.0466 -0.8278 -0.1641
13990TIP3    H263386   1.426   1.950  14.826 -0.0681 -0.0587 -0.0032
13991TIP3   OH263387   1.514   0.055  11.958  0.1336  0.3138 -0.0851
13991TIP3    H163388   1.539   0.074  11.868  0.4064 -1.5245 -0.4304
13991TIP3    H263389   1.459  -0.023  11.952  0.4774 -0.0762  1.3707
13992TIP3   OH263390   1.620   6.605   1.040 -1.0021  0.0560 -0.7030
13992TIP3    H163391   1.574   6.605   1.124  0.5711 -0.3115  0.2000
13992TIP3    H263392   1.704   6.647   1.058 -0.6939  0.1167 -2.1356
13993TIP3   OH263393   4.597   0.832  11.992 -0.2992 -0.1524 -0.0749
13993TIP3    H163394   4.574   0.903  12.052 -0.4986  0.5196 -0.9117
13993TIP3    H263395   4.692   0.826  11.998 -0.3004  0.0515  0.1692
13994TIP3   OH263396   5.947   1.908   3.509  0.5567 -0.3768  0.1423
13994TIP3    H163397   5.982   1.913   3.420  0.2045 -0.2956  0.0052
13994TIP3    H263398   6.002   1.843   3.554  3.2241  2.2634  1.0154
13995TIP3   OH263399   5.268   2.541   4.167 -0.1812 -0.1763  0.0450
13995TIP3    H163400   5.196   2.573   4.111  0.5136 -0.5418 -1.0773
13995TIP3    H263401   5.336   2.607   4.157  0.5864 -1.0801 -0.8929
13996TIP3   OH263402   1.981   1.659  15.160  0.0634 -0.4318 -0.1718
13996TIP3    H163403   2.005   1.680  15.069  0.5311  2.2759  0.4939
13996TIP3    H263404   1.886   1.643  15.156 -0.1220  0.7116 -1.0028
13997TIP3   OH263405   5.781   4.587  13.809 -0.1461  0.1444  0.0201
13997TIP3    H163406   5.861   4.539  13.830  0.0149  0.2430 -0.3373
13997TIP3    H263407   5.805   4.637  13.730 -0.8613 -0.5946 -0.6857
13998TIP3   OH263408   0.598   5.005   5.414  0.2989  0.0082 -0.1185
13998TIP3    H163409   0.567   5.037   5.329  0.0477  0.8274  0.2724
13998TIP3    H263410   0.692   5.023   5.415  0.6029 -1.4134 -0.8339
13999TIP3   OH263411   6.065   1.784   5.648 -0.3207 -0.0954  0.3392
13999TIP3    H163412   6.141   1.815   5.698 -1.4096  1.3398  1.1964
13999TIP3    H263413   6.095   1.782   5.558  1.2138 -1.1587  0.8336
14000TIP3   OH263414   4.134   3.057  11.041  0.0853 -0.3149 -0.1412
14000TIP3    H163415   4.168   3.130  11.092  2.3463 -1.6289  0.3754
14000TIP3    H263416   4.189   3.056  10.962  1.6938 -2.7232  0.8858
14001TIP3   OH263417   0.720   5.812  12.263  0.3265 -0.1196  0.5456
14001TIP3    H163418   0.778   5.879  12.297  1.8704 -0.7503 -0.7206
14001TIP3    H263419   0.772   5.731  12.264 -1.1584 -1.1130  1.1337
14002TIP3   OH263420   1.990   1.150   4.329  0.4981  0.0333 -0.2385
14002TIP3    H163421   2.036   1.225   4.365 -0.5015  0.6390 -0.1844
14002TIP3    H263422   1.907   1.147   4.377  0.1704 -0.6006 -0.8135
14003TIP3   OH263423   0.896   5.410   4.207 -0.0284 -0.0566  0.2754
14003TIP3    H163424   0.892   5.495   4.251  3.6012 -0.0354  0.8893
14003TIP3    H263425   0.906   5.347   4.278 -0.6819 -0.7929 -0.2705
14004TIP3   OH263426   3.377   0.389  11.731  0.9367  0.3435 -0.3466
14004TIP3    H163427   3.365   0.327  11.660  1.2599 -3.1524  2.3505
14004TIP3    H263428   3.470   0.412  11.729  1.4229 -1.4681  0.1695
14005TIP3   OH263429   0.698   3.115  14.201 -0.0192 -0.5847 -0.0920
14005TIP3    H163430   0.645   3.090  14.276  2.2498 -0.3957  1.7113
14005TIP3    H263431   0.650   3.084  14.125 -3.0819  0.3991  1.3085
14006TIP3   OH263432   0.717   6.430   0.923 -0.1328  0.3514  0.2507
14006TIP3    H163433   0.806   6.430   0.887 -0.4999 -0.3792 -0.6787
14006TIP3    H263434   0.730   6.443   1.017  0.9695  0.0220  0.1646
14007TIP3   OH263435   0.245   5.019   1.508  0.3066  0.1408 -0.1207
14007TIP3    H163436   0.203   5.099   1.478 -0.9145 -0.1769  0.6429
14007TIP3    H263437   0.185   4.949   1.482 -0.3334 -0.2201  2.0922
14008TIP3   OH263438   6.704   5.591   4.829 -0.1016 -0.5408 -0.0111
14008TIP3    H163439   6.639   5.521   4.826  1.0167 -1.6862  0.9728
14008TIP3    H263440   6.784   5.548   4.861  0.7785  1.0793  0.0917
14009TIP3   OH263441   6.895   5.876  14.621 -0.0583  0.0455  0.0430
14009TIP3    H163442   6.942   5.956  14.645  0.8708 -0.3933 -0.2772
14009TIP3    H263443   6.838   5.859  14.695  1.6699 -0.4540  1.3090
14010TIP3   OH263444   1.159   4.275   1.042  0.0341 -0.2449  0.0240
14010TIP3    H163445   1.071   4.266   1.006 -0.3877 -0.0990  0.9873
14010TIP3    H263446   1.175   4.192   1.087 -0.6204  0.6134  1.9574
14011TIP3   OH263447   1.123   6.237   3.052 -0.0522  0.3998  0.1620
14011TIP3    H163448   1.139   6.252   2.959  3.0024  0.1578  0.5484
14011TIP3    H263449   1.110   6.324   3.089 -2.3078  0.4348 -0.5754
14012TIP3   OH263450   0.779   4.331   1.829  0.3394 -0.0559 -0.7023
14012TIP3    H163451   0.854   4.271   1.834  1.0970  0.9547  1.1306
14012TIP3    H263452   0.716   4.285   1.774  1.0612 -2.3471  0.2375
14013TIP3   OH263453   1.685   2.617   0.695 -0.1201 -0.6945 -0.5753
14013TIP3    H163454   1.655   2.638   0.784 -0.6515 -0.5907 -0.7804
14013TIP3    H263455   1.748   2.546   0.708  0.0380 -0.4767 -0.0873
14014TIP3   OH263456   5.094   4.126  13.124 -0.1026 -0.0018  0.5706
14014TIP3    H163457   5.031   4.165  13.063  0.1173  0.1708  0.4497
14014TIP3    H263458   5.056   4.042  13.148  0.2724 -0.5391 -0.5991
14015TIP3   OH263459   3.304   3.071   2.428  0.2765 -0.0849  0.4509
14015TIP3    H163460   3.295   2.985   2.470  0.9094  0.0731  0.9239
14015TIP3    H263461   3.287   3.133   2.499 -1.8736  0.2053 -0.2560
14016TIP3   OH263462   2.395   5.919   4.456  0.0276 -0.2646  0.4128
14016TIP3    H163463   2.343   5.901   4.534 -0.0396  0.5279  0.5554
14016TIP3    H263464   2.340   5.977   4.403  1.1305  1.3513  0.9988
14017TIP3   OH263465   6.349   4.283   5.420 -0.1945 -0.2137  0.3591
14017TIP3    H163466   6.283   4.269   5.488 -1.6755 -0.6233 -1.0984
14017TIP3    H263467   6.413   4.213   5.434 -1.4491 -1.4169  0.2165
14018TIP3   OH263468   6.536   3.564   5.162 -0.4710 -0.4451  0.3245
14018TIP3    H163469   6.545   3.527   5.074  2.4588 -0.8189  0.6629
14018TIP3    H263470   6.565   3.655   5.152 -1.9291  0.0743  0.6043
14019TIP3   OH263471   3.848   1.622   3.963  0.3058 -0.6131  0.6160
14019TIP3    H163472   3.772   1.565   3.962  0.5342 -1.0055  2.2266
14019TIP3    H263473   3.830   1.688   3.896 -1.5513 -0.5788  1.0965
14020TIP3   OH263474   6.643   4.032   9.384  0.3280 -0.0926 -0.0250
14020TIP3    H163475   6.577   3.963   9.379  0.0021  0.1911  0.3228
14020TIP3    H263476   6.595   4.110   9.411  0.7390  0.2110 -0.1496
14021TIP3   OH263477   4.177   6.869  15.564  0.0887  0.3419  0.7938
14021TIP3    H163478   4.254   6.844  15.615 -0.5603 -0.4219  1.4353
14021TIP3    H263479   4.130   6.931  15.619  0.2509  0.8180  0.3999
14022TIP3   OH263480   0.571   0.162  12.937  0.3112  0.2344 -0.0269
14022TIP3    H163481   0.558   0.162  12.842  0.5014 -0.4445 -0.0556
14022TIP3    H263482   0.632   0.234  12.952 -1.4034  1.7929 -0.1589
14023TIP3   OH263483   6.017   0.722   3.798  0.6239  0.3085  0.2222
14023TIP3    H163484   6.108   0.705   3.773  0.3769 -1.5174  0.4343
14023TIP3    H263485   5.967   0.703   3.719  0.4058  1.3231  0.1045
14024TIP3   OH263486   4.095   0.723   4.284 -0.0856  0.0070 -0.3602
14024TIP3    H163487   4.069   0.734   4.192  1.0425 -1.1773 -0.8586
14024TIP3    H263488   4.100   0.812   4.318 -2.5863  0.3988 -0.8088
14025TIP3   OH263489   2.327   0.562   3.062 -0.3144 -0.5105  0.1007
14025TIP3    H163490   2.322   0.592   3.153 -0.3330  0.5631 -0.2356
14025TIP3    H263491   2.301   0.470   3.065 -0.7109 -0.3731  1.1267
14026TIP3   OH263492   4.963   6.096  10.496 -0.6021 -0.4545 -0.4426
14026TIP3    H163493   5.044   6.091  10.445 -0.5449  0.3999 -0.4547
14026TIP3    H263494   4.927   6.182  10.473 -1.3983 -0.7438 -0.2689
14027TIP3   OH263495   0.933   5.090   0.195 -0.2264  0.1947  0.1738
14027TIP3    H163496   0.950   5.022   0.261  0.3872 -0.9514 -1.1169
14027TIP3    H263497   0.838   5.098   0.193 -0.2747 -0.1099  0.8577
14028TIP3   OH263498   7.042   3.132   0.686 -0.1431  0.0495 -0.3743
14028TIP3    H163499   7.012   3.116   0.775  0.3806  0.6467 -0.0844
14028TIP3    H263500   7.138   3.132   0.692 -0.1013  1.6374 -0.6402
14029TIP3   OH263501   3.991   1.085   1.070 -0.4548  0.0224  0.6018
14029TIP3    H163502   4.061   1.097   1.005 -1.4386  1.1647 -0.2851
14029TIP3    H263503   4.036   1.097   1.154  0.3812  1.1335  0.0390
14030TIP3   OH263504   2.139   0.356   0.651  0.1651 -0.5794  0.1639
14030TIP3    H163505   2.224   0.315   0.638 -0.1726 -0.9257 -1.1189
14030TIP3    H263506   2.092   0.297   0.709  1.2402  0.2789  1.9743
14031TIP3   OH263507   4.043   5.666  12.763  0.2421 -0.0314 -0.1365
14031TIP3    H163508   4.047   5.760  12.781  1.0010 -0.2428  0.9160
14031TIP3    H263509   4.010   5.627  12.845 -1.1638 -0.5881 -0.9390
14032TIP3   OH263510   3.647   3.440  11.913  0.3925 -0.4807 -0.2335
14032TIP3    H163511   3.726   3.483  11.945 -0.1816  0.3441  0.1038
14032TIP3    H263512   3.656   3.442  11.817 -0.4881  2.1786 -0.3482
14033TIP3   OH263513   3.405   0.554   2.972 -0.6094  0.6853 -0.3459
14033TIP3    H163514   3.500   0.553   2.983 -0.5074  0.7583 -1.1499
14033TIP3    H263515   3.374   0.478   3.022  0.0738 -0.4824 -1.6315
14034TIP3   OH263516   1.507   2.159  13.194  0.0906  0.2915  0.7200
14034TIP3    H163517   1.461   2.175  13.277 -2.2344  1.5342 -0.7122
14034TIP3    H263518   1.464   2.217  13.131  1.5284 -0.8983 -1.4837
14035TIP3   OH263519   0.338   4.458   2.285 -0.4055 -0.3325  0.0156
14035TIP3    H163520   0.271   4.389   2.291  0.7999 -1.4458  1.2889
14035TIP3    H263521   0.293   4.536   2.316 -0.3968 -1.6566  3.8178
14036TIP3   OH263522   3.205   1.280  13.043  0.5840  0.0143  0.2305
14036TIP3    H163523   3.140   1.231  12.993  0.4080 -0.1944  0.6548
14036TIP3    H263524   3.153   1.327  13.109  0.9194 -0.7778  1.0878
14037TIP3   OH263525   4.747   5.963   3.276 -0.1415  0.0061 -0.2567
14037TIP3    H163526   4.812   5.934   3.339  0.2271  1.9610  0.3220
14037TIP3    H263527   4.798   5.988   3.199 -0.1757  1.5654  0.2067
14038TIP3   OH263528   5.998   6.768   4.227 -0.1242  0.8842 -0.7111
14038TIP3    H163529   6.041   6.833   4.282  2.6931 -0.3765 -1.2515
14038TIP3    H263530   6.030   6.787   4.139 -0.3682 -0.3871 -1.0852
14039TIP3   OH263531   4.649   2.694  12.454 -0.2688 -0.2231  0.4090
14039TIP3    H163532   4.628   2.760  12.520  1.5583 -0.5024  1.3471
14039TIP3    H263533   4.693   2.743  12.385 -1.9478  0.0271 -0.5344
14040TIP3   OH263534   3.506   6.420   4.781  0.4077 -0.1317  0.0139
14040TIP3    H163535   3.534   6.449   4.868 -1.6397 -1.0288  1.0317
14040TIP3    H263536   3.492   6.501   4.732 -0.3880  0.4617  1.1904
14041TIP3   OH263537   4.418   3.593  12.802  0.8861 -0.1458  0.7585
14041TIP3    H163538   4.492   3.622  12.855  0.7891  0.3488  0.6323
14041TIP3    H263539   4.360   3.670  12.797  0.6976 -0.3104  0.2833
14042TIP3   OH263540   0.839   4.006   5.793  0.0964 -0.2102  0.4920
14042TIP3    H163541   0.765   4.035   5.845 -0.4824 -0.5253 -0.1349
14042TIP3    H263542   0.804   3.999   5.704  1.3248  1.4081 -0.1736
14043TIP3   OH263543   4.103   4.534   4.612 -0.7023 -0.1058  0.3854
14043TIP3    H163544   4.030   4.504   4.666 -0.7906  1.4862  1.2414
14043TIP3    H263545   4.093   4.630   4.611  1.0405  0.1029  0.0575
14044TIP3   OH263546   5.832   5.072   9.878  0.0891 -0.7432  0.3827
14044TIP3    H163547   5.900   5.041   9.937 -0.5055 -1.3267  0.7714
14044TIP3    H263548   5.880   5.099   9.799  0.9261  0.3929  1.2417
14045TIP3   OH263549   2.818   5.490   3.269 -0.5782  0.0943  0.4065
14045TIP3    H163550   2.772   5.417   3.227  0.0154 -0.2252  0.2987
14045TIP3    H263551   2.779   5.496   3.356  1.2817 -2.2361  1.5171
14046TIP3   OH263552   4.532   1.432   1.862 -0.1769  0.5611 -0.4208
14046TIP3    H163553   4.454   1.414   1.809  0.4675  0.0778 -1.2299
14046TIP3    H263554   4.596   1.368   1.833 -0.5156 -1.3584  2.6660
14047TIP3   OH263555   1.997   2.044  11.010 -0.6072 -0.1523  0.5841
14047TIP3    H163556   2.040   1.964  11.040 -1.0721 -1.2344 -1.4429
14047TIP3    H263557   1.903   2.025  11.016 -0.7172  0.0824 -0.2105
14048TIP3   OH263558   1.122   1.448   1.000 -0.0443 -0.0222 -0.1795
14048TIP3    H163559   1.116   1.434   1.095 -0.6910 -1.5526 -0.4228
14048TIP3    H263560   1.071   1.377   0.962  1.5853 -0.4147 -1.7338
14049TIP3   OH263561   0.824   4.701   0.030 -0.1876  0.2937  0.3132
14049TIP3    H163562   0.881   4.629   0.058  1.1736  1.7821  1.5788
14049TIP3    H263563   0.867   4.737  -0.048 -0.0844  0.6027  0.5106
14050TIP3   OH263564   4.250   2.771  14.632  0.1624 -0.3733  0.0110
14050TIP3    H163565   4.210   2.837  14.689 -0.5846 -0.8261  0.0161
14050TIP3    H263566   4.248   2.810  14.545  0.3044 -0.1351  0.1108
14051TIP3   OH263567   4.247   3.293  12.931  0.2708 -0.5335 -0.1295
14051TIP3    H163568   4.324   3.336  12.968  0.1926 -0.0093 -0.5636
14051TIP3    H263569   4.184   3.364  12.918  0.1157 -0.7919 -0.8120
14052TIP3   OH263570   4.465   2.716   2.149 -0.0705 -0.2073  0.4438
14052TIP3    H163571   4.421   2.737   2.231  1.0237  0.0088  0.9910
14052TIP3    H263572   4.474   2.799   2.104 -1.0431 -0.3821 -0.1059
14053TIP3   OH263573   1.956   4.382   1.774 -0.4795 -0.3595  0.4467
14053TIP3    H163574   2.029   4.389   1.836  0.0003  0.6025 -0.1883
14053TIP3    H263575   1.997   4.356   1.692 -1.2246 -2.5253  0.7066
14054TIP3   OH263576   6.927   6.420  14.577 -0.3016 -0.3859  0.8084
14054TIP3    H163577   6.935   6.360  14.503 -1.1044  0.0206  0.3702
14054TIP3    H263578   6.855   6.478  14.552 -1.2824 -0.8863  2.3558
14055TIP3   OH263579   6.398   5.607  11.132 -0.3851  0.0042  0.2909
14055TIP3    H163580   6.492   5.622  11.123 -0.3553  0.9496  1.8032
14055TIP3    H263581   6.385   5.516  11.104  1.1316 -0.4231  0.9053
14056TIP3   OH263582   4.971   6.017   6.160  1.0619  0.3410  0.2991
14056TIP3    H163583   4.963   6.030   6.254  2.7259  0.4715  0.4401
14056TIP3    H263584   4.881   6.025   6.127  0.4675  0.3135  1.8569
14057TIP3   OH263585   4.618   1.265  14.390 -0.0167  0.5439 -0.3050
14057TIP3    H163586   4.653   1.352  14.411  1.1184  0.3161 -1.1669
14057TIP3    H263587   4.531   1.265  14.430  0.2821  1.7649  0.4337
14058TIP3   OH263588   4.095   6.045   3.658  0.3462 -0.0757 -0.0342
14058TIP3    H163589   4.097   6.138   3.680  0.0818  0.3375 -1.6479
14058TIP3    H263590   4.178   6.029   3.614 -0.1027 -0.3088 -0.8196
14059TIP3   OH263591   1.619   4.884   4.035 -0.6411 -0.0694  0.8186
14059TIP3    H163592   1.563   4.838   4.097 -1.2086 -1.3419 -0.5746
14059TIP3    H263593   1.581   4.864   3.950  3.2387 -3.1359 -0.4973
14060TIP3   OH263594   4.577   5.064   2.460 -0.6759  0.0259 -0.0040
14060TIP3    H163595   4.530   5.068   2.543 -1.8285 -0.6867 -0.5992
14060TIP3    H263596   4.568   4.974   2.431 -0.2974  0.2645 -0.9127
14061TIP3   OH263597   6.647   0.803   2.444 -0.1670  0.0770  0.6499
14061TIP3    H163598   6.572   0.743   2.445  0.2326 -0.4409  1.6329
14061TIP3    H263599   6.612   0.885   2.478 -0.4020 -0.0228  0.6534
14062TIP3   OH263600   2.096   2.884   0.744  0.2527  0.1482 -0.0106
14062TIP3    H163601   2.049   2.910   0.823 -0.4207 -1.4953  0.1767
14062TIP3    H263602   2.030   2.840   0.690  1.2025 -0.7351 -0.4837
14063TIP3   OH263603   0.522   0.471  13.519 -0.3197  0.1235  0.7333
14063TIP3    H163604   0.491   0.441  13.605 -2.9963  2.4557  0.7041
14063TIP3    H263605   0.496   0.401  13.459  0.4646 -0.9624  1.6084
14064TIP3   OH263606   5.973   7.100   2.084 -0.0018 -0.9846  0.4150
14064TIP3    H163607   5.938   7.027   2.033 -1.2724 -1.8252  2.3477
14064TIP3    H263608   5.952   7.077   2.175  1.5705  0.7351  1.2718
14065TIP3   OH263609   6.644   3.661   4.205  0.1747 -0.0668 -0.3698
14065TIP3    H163610   6.570   3.603   4.185  0.1934 -0.4389  0.5731
14065TIP3    H263611   6.684   3.621   4.283  1.0465  0.4265 -0.5607
14066TIP3   OH263612   0.337   6.155   1.632 -0.0410 -0.0394 -0.5554
14066TIP3    H163613   0.279   6.146   1.556  0.8337 -3.8594 -0.9915
14066TIP3    H263614   0.365   6.066   1.651  2.2525  1.1386  2.3859
14067TIP3   OH263615   0.218   1.723  14.075  0.3735  0.3739 -0.4111
14067TIP3    H163616   0.297   1.716  14.128 -0.0418 -2.1150  0.0295
14067TIP3    H263617   0.181   1.808  14.098  2.2224  1.0306  0.3436
14068TIP3   OH263618   3.213   2.284   3.124  0.6376  0.3522  0.4794
14068TIP3    H163619   3.177   2.209   3.077 -0.6705  1.3702 -0.2256
14068TIP3    H263620   3.244   2.343   3.055  2.7586 -0.0207  1.0444
14069TIP3   OH263621   0.298   0.247   2.930 -0.8712 -0.1244  0.3092
14069TIP3    H163622   0.388   0.264   2.960 -1.1906  0.6798  0.8253
14069TIP3    H263623   0.305   0.164   2.883  0.0896 -0.2325  0.6062
14070TIP3   OH263624   2.033   1.874  14.603  0.3437 -0.0455 -0.2418
14070TIP3    H163625   2.122   1.844  14.581  0.4207  0.9492 -1.3898
14070TIP3    H263626   1.977   1.833  14.537 -0.4939 -2.8270  2.0194
14071TIP3   OH263627   6.958   5.226   5.173  0.6571 -0.2943 -0.2328
14071TIP3    H163628   6.951   5.147   5.225  0.0910 -0.8609 -1.1423
14071TIP3    H263629   7.038   5.269   5.204  0.2087 -0.4797  1.2533
14072TIP3   OH263630   2.630   1.333   3.211  0.1182 -0.0824  0.5121
14072TIP3    H163631   2.695   1.383   3.162 -0.3149  0.3278  0.3566
14072TIP3    H263632   2.631   1.371   3.299 -0.6864  0.6506  0.2141
14073TIP3   OH263633   6.488   7.078   3.596  0.3893 -0.4633  0.2327
14073TIP3    H163634   6.493   7.165   3.635  1.1553 -1.2628  2.0622
14073TIP3    H263635   6.564   7.073   3.538  1.2973 -0.4543  1.3813
14074TIP3   OH263636   6.829   0.051  15.004 -0.2436 -0.0645  0.2392
14074TIP3    H163637   6.765   0.109  14.962  0.9304 -1.1736 -3.4898
14074TIP3    H263638   6.907   0.106  15.014 -0.2182 -0.0531 -0.0073
14075TIP3   OH263639   4.514   6.441   0.941  0.1355  0.1687  0.6277
14075TIP3    H163640   4.483   6.529   0.918 -1.8589  0.0240  2.4832
14075TIP3    H263641   4.558   6.410   0.862  1.7981  3.1889  0.2218
14076TIP3   OH263642   1.636   0.421   3.997 -0.0402  0.2517  0.2042
14076TIP3    H163643   1.619   0.471   3.917  0.8001 -0.3934 -0.3978
14076TIP3    H263644   1.712   0.367   3.976 -0.8367 -1.1847  0.8729
14077TIP3   OH263645   3.860   3.678   1.708 -0.3222 -0.3842  0.4531
14077TIP3    H163646   3.815   3.688   1.791 -1.5305  0.3202 -0.2492
14077TIP3    H263647   3.790   3.676   1.643  0.6128 -0.3916 -0.5917
14078TIP3   OH263648   0.987   0.321   4.721 -0.0221  0.5099 -0.2180
14078TIP3    H163649   1.005   0.247   4.779  2.2129  1.5072  0.4378
14078TIP3    H263650   0.900   0.303   4.686  0.4189 -2.3835 -0.0278
14079TIP3   OH263651   1.211   0.649   4.908  0.0356  0.0931  0.2060
14079TIP3    H163652   1.121   0.617   4.918 -0.1312  0.8311  1.3170
14079TIP3    H263653   1.221   0.663   4.814 -1.0123 -0.0175  0.0575
14080TIP3   OH263654   6.262   2.706  14.018 -0.5863 -0.0855 -0.4834
14080TIP3    H163655   6.177   2.697  13.975 -0.7681 -0.0403 -0.1340
14080TIP3    H263656   6.264   2.634  14.082 -0.1916 -0.3387 -0.7726
14081TIP3   OH263657   3.432   1.040   3.428  0.0115 -0.8316 -0.1892
14081TIP3    H163658   3.381   1.097   3.484 -0.9030  0.0984 -1.8853
14081TIP3    H263659   3.512   1.089   3.409 -0.0681 -0.7661 -0.3669
14082TIP3   OH263660   0.151   3.612   3.699  0.2133  0.4981  0.0269
14082TIP3    H163661   0.102   3.688   3.668 -0.0393  0.4921  0.4024
14082TIP3    H263662   0.110   3.537   3.657  0.8145  0.6054 -0.7836
14083TIP3   OH263663   4.787   5.766   1.841 -0.5355  0.3475  0.5163
14083TIP3    H163664   4.834   5.768   1.925  2.2102  0.1896 -0.9338
14083TIP3    H263665   4.797   5.676   1.810 -1.3463  0.4709 -0.1314
14084TIP3   OH263666   1.608   6.364   4.499  0.1317 -0.3619  0.4210
14084TIP3    H163667   1.657   6.412   4.567 -0.0676  1.9400 -0.9466
14084TIP3    H263668   1.524   6.410   4.494 -0.1749 -1.0220 -0.7849
14085TIP3   OH263669   1.093   6.578   3.915 -0.4447 -0.4698  0.4074
14085TIP3    H163670   1.096   6.591   4.010 -0.4083 -1.8980  0.6098
14085TIP3    H263671   1.138   6.655   3.880  1.3254 -0.8763  1.6483
14086TIP3   OH263672   1.616   1.426  14.036 -0.1921 -0.1873  0.3397
14086TIP3    H163673   1.572   1.492  13.982 -0.5400  0.7175  1.6785
14086TIP3    H263674   1.689   1.396  13.983 -2.1775 -1.5238 -1.8635
14087TIP3   OH263675   3.181   4.896   4.929  0.6016  0.4505  0.5585
14087TIP3    H163676   3.185   4.881   5.024  1.0418 -0.7046  0.3719
14087TIP3    H263677   3.227   4.821   4.891  0.1607  0.7427 -0.5866
14088TIP3   OH263678   0.023   4.107  11.705 -0.2313 -0.2085  0.1969
14088TIP3    H163679   0.070   4.025  11.722 -2.0499 -1.4277 -0.4183
14088TIP3    H263680  -0.041   4.085  11.638 -0.8105  1.7247  0.0522
14089TIP3   OH263681   1.228   1.824   1.978 -0.3562  0.4829 -0.1092
14089TIP3    H163682   1.194   1.859   1.896 -0.2351 -0.4561 -0.5744
14089TIP3    H263683   1.293   1.889   2.007 -1.6217  1.6649  0.1547
14090TIP3   OH263684   5.905   6.614   0.287 -0.3483 -0.0735 -0.2924
14090TIP3    H163685   5.839   6.557   0.325 -2.2972  0.2782 -2.8851
14090TIP3    H263686   5.939   6.566   0.212 -0.2016  1.1493 -1.0410
14091TIP3   OH263687   1.355   1.491   4.917  0.1871  0.9797  0.5033
14091TIP3    H163688   1.293   1.474   4.987 -0.6415  3.5575  0.4773
14091TIP3    H263689   1.301   1.511   4.841  1.0815 -0.4515 -0.5617
14092TIP3   OH263690   2.745   0.626   5.235  0.0566  0.1010  0.0535
14092TIP3    H163691   2.837   0.649   5.251  0.3100 -0.1264 -0.9995
14092TIP3    H263692   2.706   0.624   5.322  0.4842  2.5280  0.3790
14093TIP3   OH263693   5.710   5.450  12.260  0.3254  0.0806 -0.0763
14093TIP3    H163694   5.632   5.464  12.313  1.5318  1.8470  1.3794
14093TIP3    H263695   5.705   5.518  12.192  0.0133 -0.5777 -0.7181
14094TIP3   OH263696   3.114   4.520  10.426  0.3074 -0.8061 -0.0908
14094TIP3    H163697   3.102   4.611  10.453 -0.6503 -0.9159 -0.1063
14094TIP3    H263698   3.028   4.480  10.438  0.6543 -1.6471 -0.3307
14095TIP3   OH263699   1.138   7.024   0.409  1.0023  0.7119 -0.1201
14095TIP3    H163700   1.157   7.114   0.381 -0.5381  1.2357  0.3901
14095TIP3    H263701   1.106   7.034   0.499  0.1883 -0.2588 -0.2808
14096TIP3   OH263702   4.495   0.775   0.590  0.5282 -0.2372  0.0055
14096TIP3    H163703   4.426   0.802   0.650  0.3976  0.3179 -0.3932
14096TIP3    H263704   4.573   0.767   0.645  0.1986 -0.6786  0.4214
14097TIP3   OH263705   5.257   4.648   3.085  0.5857  0.1943  0.3934
14097TIP3    H163706   5.233   4.562   3.052 -1.0346  0.8416 -0.2419
14097TIP3    H263707   5.294   4.693   3.009 -1.1032  0.9357 -0.0528
14098TIP3   OH263708   6.426   2.742   4.846 -0.3489  0.3220  0.1379
14098TIP3    H163709   6.365   2.724   4.774  0.4134  1.1448 -0.7324
14098TIP3    H263710   6.508   2.767   4.803  0.7079 -1.0094  1.2804
14099TIP3   OH263711   3.181   4.677   5.639  0.6010  0.2873  0.3277
14099TIP3    H163712   3.146   4.651   5.724 -2.2707  1.1860 -0.4526
14099TIP3    H263713   3.115   4.737   5.604  0.9484 -1.1276 -3.1212
14100TIP3   OH263714   6.009   3.920   5.667 -0.3196  0.6548 -0.3145
14100TIP3    H163715   6.038   3.973   5.741 -0.9551  2.1330 -1.0820
14100TIP3    H263716   6.001   3.832   5.702 -0.6583  1.3243  1.3903
14101TIP3   OH263717   5.244   4.058   3.696 -0.5333  0.3718  0.2166
14101TIP3    H163718   5.186   4.082   3.768 -0.1875  1.2689  0.2084
14101TIP3    H263719   5.237   4.131   3.634  0.1148  0.1874 -0.0827
14102TIP3   OH263720   6.874   3.357  14.083  0.2174  0.1205 -0.6818
14102TIP3    H163721   6.864   3.270  14.120  2.6726 -0.0691 -0.3030
14102TIP3    H263722   6.891   3.414  14.158 -0.8236  0.8554 -0.9768
14103TIP3   OH263723   5.149   3.209   3.326  0.0781 -0.0016 -0.1723
14103TIP3    H163724   5.115   3.173   3.244  0.9236 -1.7145  0.1878
14103TIP3    H263725   5.074   3.211   3.385 -0.3530  0.4754 -0.7239
14104TIP3   OH263726   4.541   1.815  12.490  0.4420 -0.4270  0.2645
14104TIP3    H163727   4.557   1.901  12.453 -0.7001  0.2246  1.2148
14104TIP3    H263728   4.557   1.826  12.584  0.3737 -1.2737  0.3847
14105TIP3   OH263729   0.259   3.606   5.421  0.5253 -0.0026  0.0817
14105TIP3    H163730   0.285   3.523   5.383 -0.0725  0.5173 -1.5198
14105TIP3    H263731   0.220   3.583   5.506  0.0164 -1.3827 -0.5070
14106TIP3   OH263732   6.071   2.507   5.309  0.2374 -0.5108 -0.2719
14106TIP3    H163733   6.103   2.579   5.255 -1.3074 -0.0347 -0.6132
14106TIP3    H263734   6.022   2.550   5.380  0.2190 -1.1901  0.1381
14107TIP3   OH263735   1.200   0.564  12.919  0.6264 -0.5273  0.4690
14107TIP3    H163736   1.280   0.523  12.953  1.0301 -0.2490 -0.1174
14107TIP3    H263737   1.183   0.519  12.837 -0.1287 -0.9417  0.8431
14108TIP3   OH263738   1.701   2.924   4.499  0.5791 -0.2045  0.3218
14108TIP3    H163739   1.774   2.865   4.516  0.4016 -1.7008 -3.2041
14108TIP3    H263740   1.733   2.981   4.428 -0.1758  2.2399  1.8306
14109TIP3   OH263741   6.322   2.532   2.874  0.0549  0.1992  0.3676
14109TIP3    H163742   6.295   2.441   2.864  1.6600 -0.2743  0.1051
14109TIP3    H263743   6.295   2.555   2.963 -1.3360 -0.1668  0.0648
14110TIP3   OH263744   0.558   3.786  12.186  0.0762 -0.4270  0.6641
14110TIP3    H163745   0.636   3.767  12.238 -0.1960 -0.3622  1.1075
14110TIP3    H263746   0.528   3.871  12.219  0.1387 -0.1866  0.1034
14111TIP3   OH263747   3.873   4.184   0.481  0.0389 -0.0262  0.3518
14111TIP3    H163748   3.916   4.098   0.479  0.3099  0.0938  0.8376
14111TIP3    H263749   3.865   4.205   0.574  4.4976  2.6425  0.4754
14112TIP3   OH263750   5.545   0.475   3.457  0.0025  0.5575  0.0561
14112TIP3    H163751   5.463   0.510   3.422  0.8190  2.9180  0.3110
14112TIP3    H263752   5.521   0.439   3.542 -0.7597  1.3973  0.2178
14113TIP3   OH263753   5.369   2.246   2.793 -0.0088  0.5400  0.0591
14113TIP3    H163754   5.377   2.170   2.735 -2.2529  0.0860  0.2311
14113TIP3    H263755   5.296   2.296   2.756 -0.1763  1.2920  1.3540
14114TIP3   OH263756   4.046   4.910   1.236  0.1441 -0.5389 -0.3242
14114TIP3    H163757   3.967   4.945   1.195  0.2473 -1.8191 -1.6727
14114TIP3    H263758   4.114   4.975   1.216 -0.1042 -0.4808 -0.9987
14115TIP3   OH263759   6.764   3.135   0.304 -0.4501 -0.1838 -0.0510
14115TIP3    H163760   6.799   3.081   0.232 -2.1396 -0.9814 -0.3160
14115TIP3    H263761   6.793   3.090   0.383 -1.8136 -1.5190 -0.2713
14116TIP3   OH263762   6.768   3.883  15.552  0.0712  0.2092  0.4400
14116TIP3    H163763   6.786   3.973  15.580  0.4159  0.0820  0.6371
14116TIP3    H263764   6.685   3.889  15.504 -0.3120  0.5050  1.1260
14117TIP3   OH263765   7.029   0.421   2.392  0.3306  0.5722 -0.3787
14117TIP3    H163766   7.030   0.486   2.462  0.3771  0.4359 -0.2523
14117TIP3    H263767   7.041   0.472   2.312  0.3060  0.7251 -0.2860
14118TIP3   OH263768   4.205   6.777   1.867  0.2042 -0.6555 -0.1835
14118TIP3    H163769   4.275   6.842   1.859 -0.0375 -0.4522 -0.7261
14118TIP3    H263770   4.134   6.811   1.812  0.2189 -1.5614 -0.7873
14119TIP3   OH263771   4.673   2.280   4.832 -0.0698  0.4854  0.3028
14119TIP3    H163772   4.688   2.236   4.916  1.2671 -0.2836 -0.2951
14119TIP3    H263773   4.638   2.365   4.855 -0.3897  0.0191  1.6159
14120TIP3   OH263774   5.709   5.657   4.201  0.6748  0.7491  0.5311
14120TIP3    H163775   5.797   5.643   4.234 -0.4300 -2.3770  2.6098
14120TIP3    H263776   5.709   5.617   4.114  1.4418  1.3667  0.2411
14121TIP3   OH263777   4.247   4.691  12.579  0.7749 -0.2929  0.1595
14121TIP3    H163778   4.305   4.767  12.575  2.0843 -1.3035 -1.6298
14121TIP3    H263779   4.292   4.630  12.637  1.1012 -0.7374 -0.5444
14122TIP3   OH263780   2.031   6.730  14.473  0.4163  0.0052 -0.0194
14122TIP3    H163781   2.098   6.684  14.422  1.0863 -0.1507  0.9787
14122TIP3    H263782   2.001   6.800  14.416  0.6177 -0.6179 -0.9102
14123TIP3   OH263783   6.755   7.016   3.995  0.0200 -0.3327 -0.5443
14123TIP3    H163784   6.842   7.052   4.009  0.1482 -0.6264 -0.5808
14123TIP3    H263785   6.743   7.017   3.900 -0.5352  0.9161 -0.4889
14124TIP3   OH263786   6.614   4.546   3.676  0.2052 -0.0148 -0.3666
14124TIP3    H163787   6.614   4.641   3.687 -1.7686  0.0446 -0.5242
14124TIP3    H263788   6.521   4.522   3.677  0.6299 -1.8472 -1.1763
14125TIP3   OH263789   2.051   5.997  13.313 -0.1291  0.4002  0.0975
14125TIP3    H163790   2.115   6.068  13.317  1.8090 -1.2951  0.8236
14125TIP3    H263791   2.011   5.997  13.400 -1.4540  1.6792 -0.4632
14126TIP3   OH263792   1.264   6.722   1.278 -0.0449 -0.9066  0.3088
14126TIP3    H163793   1.288   6.696   1.189  1.9709  0.3610  0.4313
14126TIP3    H263794   1.285   6.647   1.333 -0.2107 -1.2692 -0.1208
14127TIP3   OH263795   0.892   1.859   4.691 -0.4675 -0.1802  0.1595
14127TIP3    H163796   0.913   1.941   4.734 -2.0655  0.7588 -0.7658
14127TIP3    H263797   0.873   1.798   4.763  1.9841 -0.1784  0.9018
14128TIP3   OH263798   3.160   1.126  10.004 -0.2262 -0.3672  0.0532
14128TIP3    H163799   3.172   1.056   9.940  0.5210 -0.6365  0.4787
14128TIP3    H263800   3.248   1.159  10.021 -0.3574 -0.5403  1.1946
14129TIP3   OH263801   6.214   4.719   3.479 -1.0836 -0.5625  0.3111
14129TIP3    H163802   6.124   4.738   3.454 -0.2930  2.4884 -0.7234
14129TIP3    H263803   6.253   4.681   3.400 -0.9325  0.2668 -0.0264
14130TIP3   OH263804   5.225   5.923   2.963  0.2817 -0.2771  0.3597
14130TIP3    H163805   5.265   5.963   2.886 -0.8295  0.3885  0.0940
14130TIP3    H263806   5.297   5.883   3.010  1.0556 -0.2625 -0.7691
14131TIP3   OH263807   6.233   0.214   5.024 -0.3544 -0.1537 -0.2658
14131TIP3    H163808   6.196   0.186   5.107 -1.0200  0.5866 -0.3062
14131TIP3    H263809   6.286   0.139   4.996 -0.9884 -0.8393  0.2934
14132TIP3   OH263810   3.971   3.901   3.509  0.0308  0.1385  0.4190
14132TIP3    H163811   3.921   3.859   3.579 -0.3423  0.9236  0.6422
14132TIP3    H263812   3.976   3.993   3.535  0.4663  0.3190 -0.2605
14133TIP3   OH263813   2.358   3.228   2.357 -0.0584 -0.5708 -0.5510
14133TIP3    H163814   2.338   3.299   2.297  0.7660 -0.1655 -0.3625
14133TIP3    H263815   2.451   3.211   2.344  0.2521 -0.1544  0.9289
14134TIP3   OH263816   1.714   6.352   1.787 -0.0306 -0.2729  0.1643
14134TIP3    H163817   1.776   6.425   1.782  0.1166 -0.3189  1.1275
14134TIP3    H263818   1.762   6.278   1.750  0.2133 -0.1308  0.1909
14135TIP3   OH263819   2.882   1.458   3.118 -0.7931 -0.5237  0.3685
14135TIP3    H163820   2.864   1.552   3.106 -0.4163 -0.5849 -0.8752
14135TIP3    H263821   2.900   1.426   3.029  0.8745 -1.3957  0.9764
14136TIP3   OH263822   2.798   6.149   3.775  0.0827 -0.3885  0.4034
14136TIP3    H163823   2.811   6.144   3.870 -1.2686  0.9003  0.6873
14136TIP3    H263824   2.772   6.239   3.758 -1.1695 -0.9575 -0.9899
14137TIP3   OH263825   6.579   5.828   1.793 -0.3012  0.2872  0.1788
14137TIP3    H163826   6.582   5.876   1.876  0.2301  2.2510 -0.9163
14137TIP3    H263827   6.516   5.875   1.740 -0.2848 -0.6652 -0.7243
14138TIP3   OH263828   2.704   6.154   1.960  0.3461 -0.1217 -0.6334
14138TIP3    H163829   2.633   6.150   2.023 -0.9872 -3.3476 -2.1075
14138TIP3    H263830   2.768   6.090   1.992  1.2820  0.7072 -0.7978
14139TIP3   OH263831   6.991   6.795   3.037 -0.5358 -0.8284  0.0929
14139TIP3    H163832   7.031   6.857   3.098 -0.7415 -2.6651  2.1931
14139TIP3    H263833   6.979   6.846   2.957  1.2344  1.2378  1.0196
14140TIP3   OH263834   2.007   4.197   5.204  0.1203 -0.4506  0.3020
14140TIP3    H163835   2.004   4.249   5.284 -1.1235  0.1680 -0.1387
14140TIP3    H263836   1.916   4.189   5.176  0.5531 -0.4479 -1.1917
14141TIP3   OH263837   3.571   1.896   4.609  0.2719 -0.6129 -0.5476
14141TIP3    H163838   3.482   1.861   4.617  0.2242 -0.2479  0.7503
14141TIP3    H263839   3.624   1.820   4.582 -0.0989 -1.3274  0.6429
14142TIP3   OH263840   2.216   4.119   3.134 -0.5603 -0.1107 -0.3035
14142TIP3    H163841   2.191   4.075   3.215  0.7278 -0.0672  0.1404
14142TIP3    H263842   2.192   4.211   3.148  2.3025  0.5107  1.2770
14143TIP3   OH263843   0.217   0.859   4.002  0.3408  0.2365  0.3025
14143TIP3    H163844   0.202   0.856   3.908 -2.5727 -1.7038  0.7173
14143TIP3    H263845   0.153   0.923   4.034 -2.1205 -2.5621  1.3552
14144TIP3   OH263846   1.933   1.304  15.065  0.1994  0.2720  0.1467
14144TIP3    H163847   2.026   1.286  15.052  0.5244  0.5713  1.8536
14144TIP3    H263848   1.914   1.378  15.007  0.8999 -0.0702 -0.5435
14145TIP3   OH263849   5.904   3.917   6.025  0.0646 -0.5210 -0.1375
14145TIP3    H163850   5.941   4.002   6.000  1.3785 -0.7722  0.8497
14145TIP3    H263851   5.809   3.932   6.026  0.1959  0.5734 -1.2253
14146TIP3   OH263852   0.608   5.262   1.870 -0.1566  0.3003 -0.3326
14146TIP3    H163853   0.682   5.311   1.835  1.3344  1.3976  3.7608
14146TIP3    H263854   0.636   5.170   1.865  0.5610  0.5318 -0.6992
14147TIP3   OH263855   3.550   2.772   1.136  0.3242  0.5936 -0.8856
14147TIP3    H163856   3.481   2.795   1.198  0.0212  1.3862 -1.4867
14147TIP3    H263857   3.553   2.677   1.137 -0.5259  0.5571 -0.5709
14148TIP3   OH263858   3.347   6.925   3.393 -0.3450 -0.1663 -0.2056
14148TIP3    H163859   3.274   6.880   3.350 -0.5696  0.1456 -0.1564
14148TIP3    H263860   3.314   7.014   3.409 -0.3329 -0.3276  0.7775
14149TIP3   OH263861   5.959   5.568   5.945  0.0929 -0.6492  0.3072
14149TIP3    H163862   5.894   5.497   5.937  0.0370 -0.4334 -1.8322
14149TIP3    H263863   5.907   5.648   5.936  0.3987 -0.4106  0.6958
14150TIP3   OH263864   0.189   1.700   4.021 -0.0759 -0.1545 -0.3032
14150TIP3    H163865   0.186   1.605   4.034  1.8408 -0.1122  0.6997
14150TIP3    H263866   0.126   1.735   4.084  0.3477 -0.6719  0.4156
14151TIP3   OH263867   3.113   5.533   4.657 -0.5928 -0.4233 -0.3994
14151TIP3    H163868   3.191   5.568   4.700  0.3494  0.4533 -2.6672
14151TIP3    H263869   3.145   5.497   4.575 -2.1533 -3.0397  0.0125
14152TIP3   OH263870   2.338   1.294   0.564 -0.9250  0.3926  0.3549
14152TIP3    H163871   2.322   1.205   0.596  2.6523 -0.2903  0.6692
14152TIP3    H263872   2.293   1.297   0.479 -1.2865 -1.6623  0.4269
14153TIP3   OH263873   2.543   2.529   0.343 -0.4939  0.6802 -0.3313
14153TIP3    H163874   2.634   2.513   0.319 -0.1967  2.4513 -0.5318
14153TIP3    H263875   2.492   2.488   0.273  0.2544  2.2862 -1.8922
14154TIP3   OH263876   2.749   6.561  12.702  0.4376  0.8299 -0.1931
14154TIP3    H163877   2.747   6.486  12.762 -0.9112 -0.0937 -1.3228
14154TIP3    H263878   2.690   6.625  12.741 -2.2131 -0.6458 -1.5158
14155TIP3   OH263879   1.546   5.375   4.256 -0.3422 -0.2670  0.0521
14155TIP3    H163880   1.603   5.380   4.332 -1.8374  0.9012  1.1556
14155TIP3    H263881   1.511   5.464   4.246 -3.4182 -1.2685  0.6171
14156TIP3   OH263882   2.748   6.620   2.305 -0.2502 -0.4232 -0.2949
14156TIP3    H163883   2.729   6.573   2.223  1.6174 -1.9303  0.0559
14156TIP3    H263884   2.842   6.637   2.300 -0.4815  1.2931  0.6607
14157TIP3   OH263885   2.843   0.680  15.190  0.2444 -0.1639  0.0338
14157TIP3    H163886   2.872   0.685  15.100  1.3143  1.3916  0.4209
14157TIP3    H263887   2.899   0.613  15.230 -1.2778 -2.0141 -0.7623
14158TIP3   OH263888   2.074   6.321   3.080 -0.1697  0.0311 -0.4301
14158TIP3    H163889   2.017   6.395   3.059 -0.8664 -0.8199 -1.6661
14158TIP3    H263890   2.122   6.304   2.999  0.4827 -0.4395  0.0515
14159TIP3   OH263891   2.440   3.284  13.234 -0.4066  0.1365 -0.5516
14159TIP3    H163892   2.395   3.259  13.153  0.9790  1.1771 -1.6819
14159TIP3    H263893   2.491   3.207  13.257  0.0881  0.2327 -1.3144
14160TIP3   OH263894   3.835   5.371   4.442  0.1923  0.0961  0.7180
14160TIP3    H163895   3.884   5.297   4.478  0.2250 -0.8110 -1.0731
14160TIP3    H263896   3.901   5.439   4.428  0.2699  0.2535  1.7961
14161TIP3   OH263897   0.771   2.750  14.646  0.6111 -0.2443 -0.4934
14161TIP3    H163898   0.840   2.685  14.658  1.3406  0.6907  0.5970
14161TIP3    H263899   0.694   2.713  14.688  0.5377 -1.1250 -1.3723
14162TIP3   OH263900   3.777   5.330  14.347 -0.0332  0.3001 -0.2578
14162TIP3    H163901   3.750   5.239  14.334 -1.9044  0.6693  0.6500
14162TIP3    H263902   3.861   5.325  14.392 -1.1023 -1.0427  1.7386
14163TIP3   OH263903   3.421   0.450   1.084  0.2350 -0.0830 -0.2310
14163TIP3    H163904   3.506   0.492   1.069  1.7199 -3.4199 -2.2183
14163TIP3    H263905   3.377   0.455   0.999 -1.8135  1.7838  0.8184
14164TIP3   OH263906   1.814   6.550   3.612  0.0996 -0.2801 -0.8910
14164TIP3    H163907   1.785   6.574   3.524  2.3115  0.2890 -1.5324
14164TIP3    H263908   1.810   6.631   3.662 -1.8274 -0.7360 -0.1813
14165TIP3   OH263909   1.916   5.506   2.475  0.0913  0.1654 -1.0354
14165TIP3    H163910   1.874   5.587   2.501  0.4860  0.9385 -2.6693
14165TIP3    H263911   1.915   5.452   2.554  0.4775  2.0217  0.3126
14166TIP3   OH263912   1.686   5.917  14.953  0.1733  0.4389 -0.1796
14166TIP3    H163913   1.745   5.916  15.028 -0.8866 -1.2361  0.6878
14166TIP3    H263914   1.598   5.906  14.991 -0.2672 -2.1878 -1.6918
14167TIP3   OH263915   4.090   6.661   2.985  0.2059 -0.2764  0.5639
14167TIP3    H163916   4.047   6.747   2.978  0.8021 -0.0510 -0.7152
14167TIP3    H263917   4.043   6.616   3.055 -2.2979 -0.1292 -0.8973
14168TIP3   OH263918   6.444   5.372   3.287  0.0958 -0.1410  0.5087
14168TIP3    H163919   6.520   5.375   3.230 -0.9002 -1.5151 -1.0083
14168TIP3    H263920   6.415   5.463   3.294 -2.3647 -0.0904 -5.0623
14169TIP3   OH263921   3.227   0.224  14.882 -0.1104  0.6014 -1.0277
14169TIP3    H163922   3.310   0.220  14.929  1.0328 -0.0357 -2.9747
14169TIP3    H263923   3.160   0.224  14.951  1.3595 -2.4596  0.5989
14170TIP3   OH263924   7.063   2.599   2.979  0.3911  0.2259 -0.0528
14170TIP3    H163925   7.001   2.528   2.997  0.0286  0.5706  0.0982
14170TIP3    H263926   7.080   2.638   3.065  0.4510  0.4299 -0.1562
14171TIP3   OH263927   4.201   1.326   4.574  0.6862 -0.3355  0.1003
14171TIP3    H163928   4.220   1.290   4.487  1.9906  0.4700  0.0309
14171TIP3    H263929   4.286   1.334   4.616 -0.0527 -2.4457  2.2009
14172TIP3   OH263930   3.974   6.314  11.985  0.0042  0.4773 -0.4596
14172TIP3    H163931   4.023   6.311  12.067  0.5837  0.2351 -0.8132
14172TIP3    H263932   3.895   6.363  12.007  0.0602  0.2486  0.2915
14173TIP3   OH263933   5.199   1.965   4.559  0.0773  0.3758 -0.0106
14173TIP3    H163934   5.216   1.977   4.653  0.0938  1.2503 -0.1144
14173TIP3    H263935   5.156   2.046   4.532  0.3282  0.2522 -0.8223
14174TIP3   OH263936   2.241   4.455   0.672 -0.1476 -0.2328  0.2042
14174TIP3    H163937   2.253   4.446   0.767 -1.0674  0.1616  0.3640
14174TIP3    H263938   2.190   4.535   0.662 -0.2292 -0.3867 -0.6163
14175TIP3   OH263939   1.511   2.073   5.099 -0.4027 -0.4174 -0.1925
14175TIP3    H163940   1.541   2.147   5.151 -1.5409  0.3105 -0.5438
14175TIP3    H263941   1.549   2.088   5.012 -1.2893  0.1986 -0.4824
14176TIP3   OH263942   3.192   0.179   3.913 -0.0761 -0.0075  0.4257
14176TIP3    H163943   3.165   0.268   3.937 -1.1669  0.2975 -1.7547
14176TIP3    H263944   3.287   0.185   3.901 -0.1894  0.9385 -0.0335
14177TIP3   OH263945   2.763   3.834   4.275  0.0960  0.5237 -0.3538
14177TIP3    H163946   2.706   3.863   4.347 -1.9076 -3.0691 -0.2879
14177TIP3    H263947   2.838   3.795   4.319  0.2401  0.8300 -0.3219
14178TIP3   OH263948   4.813   3.981   4.022  0.5083 -0.1011 -0.4264
14178TIP3    H163949   4.792   3.919   4.092  0.7155  0.5131  0.1800
14178TIP3    H263950   4.810   4.067   4.063 -1.2207  0.4551 -1.5716
14179TIP3   OH263951   2.391   6.372   3.881  0.1738 -0.4290  0.2777
14179TIP3    H163952   2.407   6.296   3.938  2.4616 -0.3139 -0.1106
14179TIP3    H263953   2.458   6.436   3.907  1.9129 -0.6883 -3.0100
14180TIP3   OH263954   1.926   2.713  15.590 -0.4153 -0.5894  0.1892
14180TIP3    H163955   1.950   2.645  15.654 -0.0578 -0.6105  0.0360
14180TIP3    H263956   1.996   2.778  15.597  0.7722 -1.5885 -1.6484
14181TIP3   OH263957   1.740   6.067   4.081  0.3916  0.3216 -0.2394
14181TIP3    H163958   1.835   6.066   4.077  0.4398  2.1877 -0.5565
14181TIP3    H263959   1.712   6.012   4.008  1.2469  0.9461 -1.0631
14182TIP3   OH263960   2.858   0.562  13.570  0.0562  0.4819 -0.7623
14182TIP3    H163961   2.917   0.488  13.552  1.9115  1.8306 -0.5199
14182TIP3    H263962   2.852   0.609  13.487 -2.0482 -0.4964 -1.2338
14183TIP3   OH263963   5.708   0.791   0.781 -0.2291  0.0991  0.1749
14183TIP3    H163964   5.686   0.703   0.810 -2.3828  0.3660 -0.4514
14183TIP3    H263965   5.770   0.778   0.710 -0.8601 -0.9678 -0.2013
14184TIP3   OH263966   4.575   3.864  14.922  0.0095  0.0966  0.8569
14184TIP3    H163967   4.551   3.956  14.923  0.8812  0.3813 -0.7263
14184TIP3    H263968   4.522   3.826  14.852 -1.3742 -0.9423  2.4013
14185TIP3   OH263969   6.049   5.447   4.779  0.5188 -0.5810  0.8282
14185TIP3    H163970   5.955   5.432   4.788 -0.2478  0.5435 -3.1684
14185TIP3    H263971   6.056   5.542   4.764  2.3514 -0.6014  1.3914
14186TIP3   OH263972   4.137   0.905   2.946 -0.0679 -0.0389  0.4799
14186TIP3    H163973   4.217   0.928   2.993 -0.6674 -0.3114  1.6504
14186TIP3    H263974   4.095   0.989   2.928  1.2815  0.2648 -1.6845
14187TIP3   OH263975   6.272   4.447  14.182  0.0065 -0.3189  0.7576
14187TIP3    H163976   6.239   4.532  14.213  0.4734 -0.4494  1.6599
14187TIP3    H263977   6.348   4.430  14.238 -0.2662 -1.4786  0.7991
14188TIP3   OH263978   1.228   1.640   4.338 -0.6549 -0.1177  0.0718
14188TIP3    H163979   1.231   1.710   4.272 -1.3587  0.6883  0.8677
14188TIP3    H263980   1.152   1.661   4.392  0.0969 -0.5659  1.3515
14189TIP3   OH263981   2.373   6.378  14.348 -0.3478  0.1646 -0.5704
14189TIP3    H163982   2.365   6.473  14.359  0.9013  0.6287 -3.0416
14189TIP3    H263983   2.446   6.353  14.405  1.3290  1.2527 -2.1272
14190TIP3   OH263984   1.507   3.569   3.732  0.6692 -0.1504  0.0537
14190TIP3    H163985   1.531   3.528   3.815  1.4563 -0.5746 -0.3726
14190TIP3    H263986   1.411   3.563   3.730  0.5655  0.6874  1.3377
14191TIP3   OH263987   0.403   1.170   0.651 -0.4612 -0.3012 -0.1856
14191TIP3    H163988   0.449   1.220   0.718 -0.4169  0.4301 -0.7524
14191TIP3    H263989   0.466   1.103   0.624 -0.1720 -0.0661 -0.0952
14192TIP3   OH263990   0.757   5.628   1.634 -0.0617  0.5489 -0.0527
14192TIP3    H163991   0.724   5.571   1.703  1.6132  0.8473  1.0678
14192TIP3    H263992   0.826   5.680   1.677  0.8640  0.9172 -1.8802
14193TIP3   OH263993   6.633   5.736  13.568  0.3866 -0.6835  0.1524
14193TIP3    H163994   6.668   5.817  13.530 -0.4131  0.2828  1.3563
14193TIP3    H263995   6.566   5.707  13.507 -0.2131  0.2986  0.3195
14194TIP3   OH263996   0.088   5.811   3.173  0.0928 -0.2229 -0.6228
14194TIP3    H163997   0.013   5.753   3.185 -1.3492  1.6469 -0.2565
14194TIP3    H263998   0.109   5.802   3.080 -1.1417 -0.1558 -0.9324
14195TIP3   OH263999   1.129   5.913  12.917  0.0485  0.0569  0.4697
14195TIP3    H164000   1.115   5.838  12.860  1.9625 -0.8356  1.0988
14195TIP3    H264001   1.142   5.987  12.857  0.8996 -0.6482 -0.2400
14196TIP3   OH264002   0.440   2.421   2.642  0.1863 -0.1329  0.0141
14196TIP3    H164003   0.391   2.463   2.712  0.2796  2.4060 -1.3341
14196TIP3    H264004   0.376   2.362   2.600  0.1332 -1.6917  2.1051
14197TIP3   OH264005   2.422   2.759   3.812  0.3030  0.5810 -0.2810
14197TIP3    H164006   2.456   2.840   3.850  0.0452  0.5401  0.0332
14197TIP3    H264007   2.401   2.703   3.887 -2.2753  1.3140 -0.3533
14198TIP3   OH264008   2.625   5.494   2.907  0.0306 -0.0676 -0.0558
14198TIP3    H164009   2.629   5.586   2.931  3.2636  0.0526 -0.6037
14198TIP3    H264010   2.583   5.451   2.982 -0.8772  1.7222  0.5096
14199TIP3   OH264011   5.103   1.409   5.265  0.1587 -0.2251 -0.2786
14199TIP3    H164012   5.107   1.497   5.302 -0.3782 -0.7430  1.0533
14199TIP3    H264013   5.127   1.421   5.173 -0.3461  1.3703 -0.2326
14200TIP3   OH264014   5.920   4.445   3.463 -0.3392  0.1941  0.1027
14200TIP3    H164015   5.834   4.476   3.490 -0.7586  0.2908 -1.3215
14200TIP3    H264016   5.950   4.509   3.399 -0.4239 -1.3110 -1.4933
14201TIP3   OH264017   2.058   4.316   3.743 -0.4763  0.4889 -0.0760
14201TIP3    H164018   2.101   4.370   3.809 -1.1384  2.2822 -1.0591
14201TIP3    H264019   1.975   4.290   3.783 -0.2632  0.4069  0.3103
14202TIP3   OH264020   6.954   4.180  11.897 -0.5313  0.0390  0.0537
14202TIP3    H164021   7.012   4.185  11.821 -0.3989  0.7214  0.1902
14202TIP3    H264022   7.011   4.151  11.969 -0.2182  1.1986  0.3032
14203TIP3   OH264023   6.268   1.097   4.596  0.0282 -0.4889  0.4826
14203TIP3    H164024   6.324   1.175   4.601  0.3263 -0.5716 -1.1221
14203TIP3    H264025   6.186   1.125   4.637  1.1484 -0.3236  2.7507
14204TIP3   OH264026   2.790   6.540  14.165 -0.6243 -0.1000 -0.0331
14204TIP3    H164027   2.755   6.585  14.242  1.8919  0.8500  0.6402
14204TIP3    H264028   2.803   6.610  14.101  0.3445 -0.3601 -0.1301
14205TIP3   OH264029   0.400   5.400   2.732 -0.2178 -0.4253  0.2112
14205TIP3    H164030   0.347   5.415   2.653 -0.7696 -1.4405  0.3806
14205TIP3    H264031   0.409   5.487   2.771 -0.0743  0.0745 -0.8721
14206TIP3   OH264032   1.195   0.417   0.619 -0.1734  0.0537 -0.4428
14206TIP3    H164033   1.283   0.406   0.584  0.6720  1.3896  1.1510
14206TIP3    H264034   1.139   0.369   0.558  1.6619 -1.0222 -1.3573
14207TIP3   OH264035   0.722   6.657   3.347  0.4904  0.2973  0.2566
14207TIP3    H164036   0.791   6.596   3.373 -0.3708 -1.2943 -1.0104
14207TIP3    H264037   0.769   6.727   3.300  1.2936 -0.6305 -0.3759
14208TIP3   OH264038   3.995   5.374   0.989 -0.7208  0.5840 -0.4291
14208TIP3    H164039   3.942   5.332   0.921 -1.1112  0.6240 -0.1500
14208TIP3    H264040   3.981   5.468   0.975 -1.1412  0.5800 -0.0175
14209TIP3   OH264041   1.268   2.331   2.583  0.3283 -0.9580  0.3610
14209TIP3    H164042   1.215   2.285   2.648 -1.9560  2.0488  0.8512
14209TIP3    H264043   1.297   2.410   2.627 -0.3865  0.6594 -1.8870
14210TIP3   OH264044   1.390   0.578  12.066 -0.4573  0.0081  0.0114
14210TIP3    H164045   1.458   0.644  12.049  1.6280 -1.8689  0.5517
14210TIP3    H264046   1.430   0.495  12.039 -1.3993 -1.5707  2.9511
14211TIP3   OH264047   1.554   6.679   3.781 -0.0292  0.6169  0.7388
14211TIP3    H164048   1.555   6.586   3.805  0.4951  0.2335 -0.7066
14211TIP3    H264049   1.461   6.698   3.766 -0.0400  0.0338 -0.0025
14212TIP3   OH264050   4.177   5.285   2.999  0.1477  0.3419 -0.2837
14212TIP3    H164051   4.254   5.233   3.023 -0.5957 -0.4768  0.3555
14212TIP3    H264052   4.106   5.249   3.052 -0.4831  1.7121 -0.1606
14213TIP3   OH264053   6.596   0.643   4.594 -0.0434 -0.4745  0.0672
14213TIP3    H164054   6.612   0.579   4.664 -3.2864 -1.6051 -0.0474
14213TIP3    H264055   6.618   0.727   4.634  0.9413 -1.3338  1.4442
14214TIP3   OH264056   1.918   3.477   1.748 -0.0790 -0.0136 -0.1838
14214TIP3    H164057   1.980   3.549   1.735 -0.3126  0.9806  3.2305
14214TIP3    H264058   1.832   3.518   1.742 -0.2968 -0.5480 -0.7578
14215TIP3   OH264059   0.816   3.268  12.136 -0.4821  0.2138 -0.0404
14215TIP3    H164060   0.876   3.221  12.194  1.6476  2.1886 -0.5375
14215TIP3    H264061   0.771   3.330  12.194 -1.9616 -1.0472  0.2707
14216TIP3   OH264062   3.329   3.472  13.460 -0.1289  0.2824 -0.3744
14216TIP3    H164063   3.251   3.441  13.505 -1.6478  1.0773 -2.3195
14216TIP3    H264064   3.360   3.396  13.410  1.3596 -0.5011  1.6172
14217TIP3   OH264065   3.235   0.314   3.007  0.5688 -0.2694 -0.3293
14217TIP3    H164066   3.263   0.231   2.968  0.7709  0.5254 -2.0073
14217TIP3    H264067   3.159   0.341   2.954  2.5980  2.2771 -2.2498
14218TIP3   OH264068   2.932   0.523   3.114  0.0033 -0.3293 -0.0714
14218TIP3    H164069   3.009   0.579   3.114  0.2531 -0.6072 -1.5422
14218TIP3    H264070   2.879   0.556   3.041 -1.0700 -0.4077  0.6579
14219TIP3   OH264071   5.747   1.869   0.905 -0.8346  0.8673 -0.3261
14219TIP3    H164072   5.785   1.783   0.890 -3.9973 -0.9270  0.9304
14219TIP3    H264073   5.719   1.898   0.819  2.9232  2.2451 -1.2962
14220TIP3   OH264074   2.122   6.930  11.605 -0.1390  0.6382 -0.7249
14220TIP3    H164075   2.081   6.905  11.522  1.4983  1.0758 -1.7138
14220TIP3    H264076   2.204   6.880  11.607 -0.2883  0.4025  0.7921
14221TIP3   OH264077   5.022   6.408   3.567 -0.2870 -0.4614  0.3584
14221TIP3    H164078   4.965   6.335   3.544  2.0249 -1.8723 -1.3677
14221TIP3    H264079   5.087   6.370   3.626  2.5323 -0.6870 -2.5996
14222TIP3   OH264080   1.330   3.973   1.156 -0.3603 -0.3421  0.1753
14222TIP3    H164081   1.288   3.890   1.138  0.3965 -0.4948 -1.0080
14222TIP3    H264082   1.351   4.009   1.070  0.3306  0.5474  0.6912
14223TIP3   OH264083   0.013   1.110   3.383  0.0379 -0.6604  0.1552
14223TIP3    H164084  -0.025   1.025   3.362  0.2448 -0.3820 -1.4538
14223TIP3    H264085   0.002   1.162   3.303 -0.1005  0.8383  1.1007
14224TIP3   OH264086   5.243   2.509   1.714 -0.1046  0.3139 -0.1703
14224TIP3    H164087   5.271   2.490   1.804 -0.3345  0.7336 -0.0039
14224TIP3    H264088   5.169   2.450   1.699 -1.8104  2.0382  0.8904
14225TIP3   OH264089   4.542   3.823   3.651  0.1808 -0.1642 -0.1060
14225TIP3    H164090   4.515   3.915   3.650 -1.0552 -0.5205 -0.9421
14225TIP3    H264091   4.573   3.806   3.562  2.5238  0.0083  0.6129
14226TIP3   OH264092   1.790   4.025   5.519  0.1774 -0.4529 -0.3097
14226TIP3    H164093   1.739   4.099   5.487 -0.9451 -0.0392  2.1595
14226TIP3    H264094   1.879   4.059   5.526 -0.4127  0.9187  1.3131
14227TIP3   OH264095   0.276   5.799   2.643 -0.4298  0.3753  0.1707
14227TIP3    H164096   0.234   5.795   2.557  0.6674 -2.0942 -0.3267
14227TIP3    H264097   0.241   5.879   2.683 -4.0120 -0.4371 -0.9730
14228TIP3   OH264098   1.413   1.431  13.292 -0.6331  0.8609  0.2571
14228TIP3    H164099   1.478   1.361  13.288 -0.2319  1.1857  0.8874
14228TIP3    H264100   1.333   1.388  13.319 -0.3248  0.6814  0.8919
14229TIP3   OH264101   1.469   4.382   5.177 -0.1811  0.5438  0.7261
14229TIP3    H164102   1.526   4.328   5.232 -0.2986 -0.3642 -0.0228
14229TIP3    H264103   1.381   4.350   5.195 -0.4406  1.6908  1.5964
14230TIP3   OH264104   1.264   0.850   3.761  0.0263  0.1095 -0.3381
14230TIP3    H164105   1.285   0.830   3.670 -1.0367  0.7287 -0.7425
14230TIP3    H264106   1.267   0.946   3.765 -2.9149  0.2889 -0.5401
14231TIP3   OH264107   5.362   4.113  13.085 -0.3131 -0.4155 -0.6297
14231TIP3    H164108   5.298   4.043  13.074 -0.8057 -0.1603  0.4411
14231TIP3    H264109   5.387   4.109  13.178 -0.6769  1.0838 -0.4317
14232TIP3   OH264110   0.852   5.305  14.623 -0.0263  0.1120 -0.2327
14232TIP3    H164111   0.940   5.342  14.625  0.0396  0.0410 -1.3032
14232TIP3    H264112   0.832   5.294  14.530 -0.7560 -0.8485  0.0189
14233TIP3   OH264113   0.961   3.307   4.533  0.1166  0.1570  0.5950
14233TIP3    H164114   0.925   3.288   4.447 -0.1945 -2.9520  1.2905
14233TIP3    H264115   0.890   3.289   4.594  0.8173  0.6828  1.6089
14234TIP3   OH264116   2.333   2.027   1.231 -0.7323  0.2573 -0.4765
14234TIP3    H164117   2.408   1.976   1.200  0.9445  1.1382  1.9059
14234TIP3    H264118   2.344   2.032   1.325 -3.6922  0.6809 -0.0625
14235TIP3   OH264119   6.353   0.083   2.926  0.2378  0.2569  0.2750
14235TIP3    H164120   6.316   0.133   2.998 -1.5868 -0.0150 -0.4280
14235TIP3    H264121   6.284   0.022   2.901  1.6981 -1.3088 -0.1579
14236TIP3   OH264122   2.656   1.513  12.123  0.0653 -0.0061 -0.0020
14236TIP3    H164123   2.746   1.524  12.092  0.4415  0.4651  1.2061
14236TIP3    H264124   2.665   1.487  12.215 -1.0389  0.3687  0.2264
14237TIP3   OH264125   1.844   3.059   5.212  0.9104 -0.1268 -0.1481
14237TIP3    H164126   1.881   3.123   5.273 -0.0984 -1.0772  1.5533
14237TIP3    H264127   1.754   3.088   5.198  0.8101 -0.5091 -0.3181
14238TIP3   OH264128   2.788   4.030   3.321 -0.3551  0.1422 -0.0526
14238TIP3    H164129   2.771   4.006   3.412 -0.6821 -1.3237 -0.4847
14238TIP3    H264130   2.708   4.075   3.293  0.0669  1.3586  0.6065
14239TIP3   OH264131   0.363   5.827   1.369 -0.4907 -0.8653  0.6608
14239TIP3    H164132   0.337   5.757   1.309 -0.2619 -1.3489  1.1252
14239TIP3    H264133   0.455   5.811   1.387 -0.5599 -0.7297  1.1584
14240TIP3   OH264134   3.338   4.853   5.481 -0.6701 -0.1695 -0.0532
14240TIP3    H164135   3.262   4.903   5.452  0.1128 -0.1992 -2.4205
14240TIP3    H264136   3.311   4.811   5.562 -3.3333 -0.5381 -1.0479
14241TIP3   OH264137   3.053   0.281  12.724  0.3151 -0.2208  0.6666
14241TIP3    H164138   2.977   0.277  12.666 -0.3955  0.6700  1.5075
14241TIP3    H264139   3.037   0.212  12.788  0.4751 -0.3778  0.5371
14242TIP3   OH264140   4.234   4.874   4.668 -0.0358 -0.5738  0.4010
14242TIP3    H164141   4.276   4.885   4.754 -0.3418 -1.8311  0.7353
14242TIP3    H264142   4.306   4.872   4.606  0.1678  0.7254  0.5667
14243TIP3   OH264143   5.562   2.379  14.884 -0.1998  0.0140  0.8487
14243TIP3    H164144   5.569   2.396  14.978 -1.8026  0.1944  0.9559
14243TIP3    H264145   5.644   2.333  14.862 -0.6968 -1.9865  2.7703
14244TIP3   OH264146   5.135   6.431   3.298 -0.1614 -0.6521 -0.1234
14244TIP3    H164147   5.084   6.425   3.379  0.7356  1.9042  0.7098
14244TIP3    H264148   5.089   6.495   3.244  0.0360 -1.2804 -1.0820
14245TIP3   OH264149   0.680   2.327   4.635 -0.1014  0.0546  0.2202
14245TIP3    H164150   0.758   2.383   4.627  0.7710 -1.1242  0.2122
14245TIP3    H264151   0.614   2.371   4.581  0.3854  1.3472  0.6345
14246TIP3   OH264152   2.576   3.821   1.941 -0.0490  0.1000 -0.2039
14246TIP3    H164153   2.494   3.794   1.983  0.6802 -1.8901  0.0570
14246TIP3    H264154   2.642   3.811   2.009  0.8314 -1.1197 -1.2095
14247TIP3   OH264155   0.833   4.431   3.400 -0.3684 -0.2103 -0.3443
14247TIP3    H164156   0.790   4.346   3.384  0.8984 -1.0435  0.4483
14247TIP3    H264157   0.841   4.435   3.496 -1.0172  1.1299 -0.3331
14248TIP3   OH264158   3.637   4.619   0.294 -0.1176 -0.3812  0.1744
14248TIP3    H164159   3.712   4.601   0.351 -0.3364 -1.1000  0.2479
14248TIP3    H264160   3.591   4.691   0.337  1.2003  0.9265 -0.5244
14249TIP3   OH264161   6.530   2.334   2.611 -0.2719  0.3218  0.2658
14249TIP3    H164162   6.599   2.380   2.563 -0.0151 -0.6469 -0.3361
14249TIP3    H264163   6.459   2.325   2.547  0.2941 -1.4928 -0.1695
14250TIP3   OH264164   1.753   3.459   5.112  0.8669  0.6418 -0.1446
14250TIP3    H164165   1.846   3.480   5.118  0.5787  2.5036 -1.2706
14250TIP3    H264166   1.727   3.495   5.027 -0.3322 -2.1530 -1.0429
14251TIP3   OH264167   3.831   3.684   3.694  0.0880  0.6784  0.0817
14251TIP3    H164168   3.783   3.610   3.657 -0.3716  0.1725  1.6111
14251TIP3    H264169   3.771   3.722   3.758  0.1834  2.6166 -0.9057
14252TIP3   OH264170   0.468   4.591   5.152  0.0412  0.2706 -0.5273
14252TIP3    H164171   0.410   4.661   5.120 -0.7611 -0.1512 -0.0195
14252TIP3    H264172   0.543   4.638   5.189  0.3189  0.8055 -1.7258
14253TIP3   OH264173   3.635   4.353  11.542  0.0961  0.1006 -0.0206
14253TIP3    H164174   3.543   4.352  11.569  0.1759  1.2268  0.3480
14253TIP3    H264175   3.660   4.445  11.544  0.7094  0.0264 -1.9983
14254TIP3   OH264176   1.405   3.330   0.569 -0.0132 -0.4256  0.2102
14254TIP3    H164177   1.371   3.359   0.654 -0.0384 -0.4262  0.2004
14254TIP3    H264178   1.329   3.291   0.525  0.4310 -2.4154  1.0549
14255TIP3   OH264179   2.546   2.384   5.539  0.3354  0.1347 -0.5198
14255TIP3    H164180   2.491   2.431   5.601  0.5962  1.8105 -1.4771
14255TIP3    H264181   2.548   2.294   5.570 -1.0853  0.5320  0.7943
14256TIP3   OH264182   6.260   2.851   4.119  0.0468  0.3788 -0.5012
14256TIP3    H164183   6.274   2.876   4.028 -0.0875  0.8771 -0.3899
14256TIP3    H264184   6.197   2.915   4.152  0.8322  0.8118  0.2175
14257TIP3   OH264185   4.070   3.983  11.170  0.0872 -0.5841  0.0801
14257TIP3    H164186   4.098   3.989  11.079  1.2940 -0.0085  0.4614
14257TIP3    H264187   4.147   3.951  11.217  0.4542  1.8295  1.3040
14258TIP3   OH264188   6.185   2.820  13.204 -0.1664 -0.1748 -0.4465
14258TIP3    H164189   6.096   2.793  13.226 -0.1957 -1.1356 -1.6222
14258TIP3    H264190   6.238   2.789  13.276 -0.4054 -2.2242 -1.0893
14259TIP3   OH264191   2.910   4.796   1.813 -0.2378  0.1872  0.4810
14259TIP3    H164192   2.973   4.795   1.885 -0.8761  0.6581  1.0551
14259TIP3    H264193   2.828   4.825   1.852 -0.9675 -0.9204 -0.1479
14260TIP3   OH264194   1.402   5.379  14.984  0.2022 -0.2213  0.6698
14260TIP3    H164195   1.470   5.346  15.043  0.4286  0.5896  0.8740
14260TIP3    H264196   1.320   5.365  15.032  0.1723 -1.5814  0.2528
14261TIP3   OH264197   1.726   3.117  12.839  0.1506 -0.1564  0.0807
14261TIP3    H164198   1.769   3.197  12.810 -0.7278 -0.0527 -0.9938
14261TIP3    H264199   1.698   3.074  12.758 -0.9796 -0.6403  0.7092
14262TIP3   OH264200   5.841   2.136  12.364 -0.3923 -0.7312  0.0020
14262TIP3    H164201   5.904   2.096  12.304 -0.2261  1.3893 -1.3460
14262TIP3    H264202   5.878   2.222  12.384 -0.9474 -0.9975  2.4107
14263TIP3   OH264203   5.151   2.925  10.387  0.2727 -0.1339 -0.1232
14263TIP3    H164204   5.086   2.865  10.423  0.0410 -0.7569 -1.4939
14263TIP3    H264205   5.124   2.937  10.296  0.9815  1.1450 -0.1864
14264TIP3   OH264206   7.088   1.234  13.388  0.0526  0.0877 -0.2025
14264TIP3    H164207   7.099   1.199  13.476  0.3255  1.3210  0.2826
14264TIP3    H264208   7.114   1.326  13.396 -3.9497  1.4272 -0.5560
14265TIP3   OH264209   2.382   5.395   3.494  0.1492  0.3882  0.0652
14265TIP3    H164210   2.429   5.462   3.544  1.0337 -0.4797  0.4607
14265TIP3    H264211   2.417   5.312   3.528 -0.4189 -0.2564 -0.8763
14266TIP3   OH264212   5.783   2.643   0.059  0.1865  0.0939  0.1286
14266TIP3    H164213   5.705   2.641   0.004  0.8953  1.8559 -1.0463
14266TIP3    H264214   5.818   2.732   0.047  3.5085 -1.2215 -1.0272
14267TIP3   OH264215   2.616   5.976   4.218 -0.2376  0.2621 -0.1213
14267TIP3    H164216   2.702   6.017   4.208  0.1619 -0.6406 -0.5201
14267TIP3    H264217   2.588   5.999   4.307  0.1867  0.9703 -0.1638
14268TIP3   OH264218   4.761   0.943   4.533  0.5706 -0.2498 -0.0635
14268TIP3    H164219   4.736   0.929   4.624  1.5414  3.1110  0.8637
14268TIP3    H264220   4.682   0.922   4.482 -1.8267  2.7940  2.0563
14269TIP3   OH264221   1.624   4.706   4.887  0.6923  0.0730  0.2816
14269TIP3    H164222   1.706   4.724   4.840  1.5243 -0.5525  1.4489
14269TIP3    H264223   1.644   4.723   4.979  0.1255 -2.0023  0.8460
14270TIP3   OH264224   1.487   6.683   4.597  0.9132 -0.3300 -0.3952
14270TIP3    H164225   1.529   6.734   4.528  3.1858 -2.8125 -1.0194
14270TIP3    H264226   1.551   6.683   4.669  0.2014 -0.8202  0.2543
14271TIP3   OH264227   5.155   2.915   4.549 -0.2141 -0.3841 -0.2702
14271TIP3    H164228   5.196   2.999   4.528 -0.2313 -0.7129 -1.7086
14271TIP3    H264229   5.110   2.889   4.468  1.2129 -2.6038 -0.4331
14272TIP3   OH264230   3.180   2.874   0.580  0.0525 -0.1752  0.4548
14272TIP3    H164231   3.102   2.821   0.566 -0.9966  1.2517  0.7645
14272TIP3    H264232   3.148   2.956   0.616  1.4725  1.2601 -1.3385
14273TIP3   OH264233   1.008   0.048  15.599 -0.4895  0.5037 -0.3571
14273TIP3    H164234   0.919   0.038  15.565 -0.8373  0.4376  0.5578
14273TIP3    H264235   1.057  -0.022  15.557 -0.9157  0.3908 -0.6837
14274TIP3   OH264236   0.696   0.577   3.340 -0.1706 -0.1112 -0.3786
14274TIP3    H164237   0.685   0.628   3.420  0.2344  0.9735 -0.9984
14274TIP3    H264238   0.750   0.502   3.366  0.8224  0.7713  0.1524
14275TIP3   OH264239   5.889   4.715   0.311  0.2328 -0.6742 -0.4088
14275TIP3    H164240   5.931   4.671   0.238  0.0785  0.9588 -1.5368
14275TIP3    H264241   5.836   4.784   0.271  2.3551  2.1555  1.3112
14276TIP3   OH264242   0.542   4.210   3.883  0.6505  0.3251 -0.1070
14276TIP3    H164243   0.525   4.151   3.957  0.0083 -1.1698 -1.3905
14276TIP3    H264244   0.637   4.216   3.878  0.7805 -1.5421 -0.6121
14277TIP3   OH264245   2.893   5.717   5.762  0.5808 -1.0115 -0.1665
14277TIP3    H164246   2.822   5.780   5.755 -1.2709 -2.8847  0.5597
14277TIP3    H264247   2.960   5.749   5.701 -1.5005  0.0451 -2.0393
14278TIP3   OH264248   5.444   5.050   1.631 -0.5276  0.1031  0.4607
14278TIP3    H164249   5.487   5.058   1.546 -1.3891 -2.4500 -0.3052
14278TIP3    H264250   5.354   5.078   1.614 -0.0606  2.2630  1.2660
14279TIP3   OH264251   6.496   3.571   3.778  0.0057  0.3810 -0.6502
14279TIP3    H164252   6.499   3.607   3.690  3.2194  0.0384 -0.7970
14279TIP3    H264253   6.476   3.645   3.835  0.4734  1.1344 -1.4603
14280TIP3   OH264254   2.929   4.415   3.825  0.7602  0.3579 -0.2211
14280TIP3    H164255   3.006   4.366   3.853 -0.5315  0.0261  3.2185
14280TIP3    H264256   2.920   4.485   3.890 -1.6199  0.5933 -0.7245
14281TIP3   OH264257   5.425   0.418  15.164 -0.7744 -0.5414  0.2912
14281TIP3    H164258   5.364   0.347  15.145  0.3182 -0.8351 -2.6882
14281TIP3    H264259   5.380   0.497  15.133  0.0980 -0.7123 -1.5565
14282TIP3   OH264260   6.209   6.185  13.260  0.4784 -0.1356  0.2489
14282TIP3    H164261   6.234   6.272  13.226  0.0529 -0.0777  0.0719
14282TIP3    H264262   6.260   6.124  13.208  0.9707  0.0177  0.5445
14283TIP3   OH264263   2.302   2.528   2.323  0.1327  0.2174 -0.1973
14283TIP3    H164264   2.295   2.579   2.243 -0.3528  0.5610  0.0651
14283TIP3    H264265   2.220   2.543   2.369 -0.5300 -1.6821 -0.6354
14284TIP3   OH264266   3.310   5.722   4.759 -0.4435 -0.3961 -0.5541
14284TIP3    H164267   3.299   5.678   4.844 -0.8941  0.7821  0.0288
14284TIP3    H264268   3.270   5.808   4.772  0.3376  0.1554 -1.6753
14285TIP3   OH264269   3.960   2.631   0.652  0.2835  0.4489 -0.2709
14285TIP3    H164270   3.969   2.722   0.679  0.1688  0.5637 -0.6233
14285TIP3    H264271   3.902   2.633   0.576  0.5292  0.1132 -0.4713
14286TIP3   OH264272   4.162   0.329   3.440  0.1506  0.7538  0.1411
14286TIP3    H164273   4.095   0.278   3.395  0.7679  0.2635 -0.2543
14286TIP3    H264274   4.241   0.317   3.386  1.0190 -0.1628  1.5607
14287TIP3   OH264275   5.897   4.181   6.039 -0.0342  0.3983  0.0565
14287TIP3    H164276   5.807   4.149   6.046  0.1260 -0.2547 -0.7190
14287TIP3    H264277   5.889   4.276   6.038 -0.5275  0.4545  2.3603
14288TIP3   OH264278   5.026   3.413   1.410  0.4362 -0.5377 -0.1842
14288TIP3    H164279   5.015   3.352   1.338  1.3080 -1.2193  0.2557
14288TIP3    H264280   5.028   3.499   1.368  2.6104 -1.0132 -1.1765
14289TIP3   OH264281   0.793   6.143  14.386  0.1782  0.0230 -0.0658
14289TIP3    H164282   0.881   6.172  14.409  0.6415 -1.5624  0.2814
14289TIP3    H264283   0.803   6.051  14.363 -1.7537 -1.0081  2.6054
14290TIP3   OH264284   4.790   3.526   2.328 -0.5143  0.1190  0.3660
14290TIP3    H164285   4.803   3.435   2.303  0.0519  0.1506  0.5317
14290TIP3    H264286   4.878   3.564   2.327 -0.9034  1.0755 -1.2487
14291TIP3   OH264287   5.246   5.723  12.109  0.0709  0.2169  0.3532
14291TIP3    H164288   5.165   5.685  12.145  0.7392 -1.6998 -0.0358
14291TIP3    H264289   5.294   5.753  12.186 -0.2009 -0.3320  0.7462
14292TIP3   OH264290   2.942   2.445   5.614 -0.3710 -0.7326 -0.3239
14292TIP3    H164291   2.977   2.534   5.612 -0.9418 -0.3992  1.9247
14292TIP3    H264292   2.999   2.399   5.675 -0.7150 -1.6474 -0.6754
14293TIP3   OH264293   3.751   1.782   1.913 -0.5023  0.3402  0.8136
14293TIP3    H164294   3.774   1.875   1.911 -1.6324  0.6387  1.1633
14293TIP3    H264295   3.817   1.740   1.857 -0.1947  1.3886  0.3632
14294TIP3   OH264296   2.053   4.898   1.984 -0.7239  0.7072 -0.0162
14294TIP3    H164297   2.148   4.909   1.991 -0.6037 -0.5775  0.5429
14294TIP3    H264298   2.040   4.853   1.901 -0.9325  1.6321 -0.5054
14295TIP3   OH264299   5.503   1.602  12.603 -0.0135  0.2134 -0.3583
14295TIP3    H164300   5.468   1.682  12.564 -3.1683 -0.9485 -0.1699
14295TIP3    H264301   5.478   1.606  12.695  1.7351 -0.0338  0.1705
14296TIP3   OH264302   4.888   3.483   2.017 -0.7694  0.0155  0.3379
14296TIP3    H164303   4.862   3.426   1.944  1.7299 -0.6538 -0.1289
14296TIP3    H264304   4.922   3.423   2.083  1.7431  0.8341 -0.0834
14297TIP3   OH264305   0.469   0.603  13.235 -0.3588  0.0164  0.0370
14297TIP3    H164306   0.439   0.547  13.307  0.0372  0.5883  0.6650
14297TIP3    H264307   0.543   0.651  13.273  0.3211 -0.2020 -0.9816
14298TIP3   OH264308   3.783   1.358   2.571 -0.1648 -0.3384  0.1804
14298TIP3    H164309   3.728   1.383   2.496 -0.4347 -0.5397  0.3094
14298TIP3    H264310   3.735   1.287   2.614  0.5507 -1.0091 -0.1140
14299TIP3   OH264311   2.676   3.693  12.265  0.2475  0.0379 -0.7201
14299TIP3    H164312   2.753   3.636  12.258  0.8075  0.7811 -0.7585
14299TIP3    H264313   2.603   3.638  12.237  0.6548 -0.9053 -0.0049
14300TIP3   OH264314   0.197   0.007   9.862  0.1836  0.6107  0.4705
14300TIP3    H164315   0.191   0.102   9.854 -2.1811  0.3947 -1.6523
14300TIP3    H264316   0.119  -0.026   9.818  1.6579 -2.3781 -0.1954
14301TIP3   OH264317   5.774   1.226   5.298  0.4909 -0.3059  0.1985
14301TIP3    H164318   5.749   1.143   5.338 -1.1669  0.7853  1.5638
14301TIP3    H264319   5.798   1.282   5.371  0.8532  0.6498 -0.6261
14302TIP3   OH264320   1.313   5.898   3.381 -0.3482 -0.1706  0.6822
14302TIP3    H164321   1.280   5.987   3.363 -1.1720 -0.0712  2.4515
14302TIP3    H264322   1.393   5.891   3.329 -0.0459  1.7728  0.8101
14303TIP3   OH264323   2.796   1.259  11.355 -0.4436 -0.3957 -0.3543
14303TIP3    H164324   2.811   1.245  11.449  0.6011 -0.8609 -0.5717
14303TIP3    H264325   2.725   1.199  11.333 -0.0827 -0.9552 -0.0334
14304TIP3   OH264326   3.788   4.555  14.425 -0.0543  0.2152  0.3560
14304TIP3    H164327   3.847   4.622  14.460  0.9258  0.1940 -1.1470
14304TIP3    H264328   3.737   4.601  14.358 -0.0492 -0.3138 -0.0153
14305TIP3   OH264329   0.113   1.977  14.145 -0.4090 -0.0659  0.0357
14305TIP3    H164330   0.076   2.021  14.069 -1.2376 -1.5773 -0.4833
14305TIP3    H264331   0.038   1.959  14.202  0.1343  0.6236  0.9979
14306TIP3   OH264332   6.792   0.459   0.748 -0.1479 -0.0074  0.2181
14306TIP3    H164333   6.778   0.498   0.834  0.9843  0.2170  0.3148
14306TIP3    H264334   6.883   0.479   0.727 -0.5205  0.2889 -1.2163
14307TIP3   OH264335   6.717   1.580   4.444 -0.1924  0.3793  0.4623
14307TIP3    H164336   6.657   1.518   4.402 -0.1556  1.3408 -1.0775
14307TIP3    H264337   6.766   1.527   4.507  0.7925 -1.5008 -1.7398
14308TIP3   OH264338   3.459   5.199   0.313  0.5486  0.6401 -0.1289
14308TIP3    H164339   3.395   5.179   0.244  0.0644  1.5577  0.0293
14308TIP3    H264340   3.544   5.192   0.269  0.5239 -2.4719  0.1214
14309TIP3   OH264341   5.132   2.518   5.218 -0.4892 -0.1880 -0.9404
14309TIP3    H164342   5.177   2.557   5.143  1.9514 -0.0715  0.4878
14309TIP3    H264343   5.159   2.572   5.293 -1.6459 -1.1966  0.2428
14310TIP3   OH264344   6.018   4.877   4.632 -0.4199 -0.1891  0.8757
14310TIP3    H164345   6.030   4.971   4.640  0.5549 -0.0349 -1.5272
14310TIP3    H264346   5.933   4.867   4.589  0.0764 -0.3363 -0.0769
14311TIP3   OH264347   1.664   5.620  14.802 -0.0213 -0.4868 -0.5652
14311TIP3    H164348   1.650   5.645  14.893  1.3911 -2.9262  0.4160
14311TIP3    H264349   1.753   5.650  14.782 -0.6600  0.8808 -1.5100
14312TIP3   OH264350   4.038   4.834   4.865  0.3210 -0.7406  0.5979
14312TIP3    H164351   4.094   4.908   4.843 -1.7705  0.9908  0.7243
14312TIP3    H264352   4.088   4.783   4.929  2.1091  0.1500 -0.0458
14313TIP3   OH264353   6.377   6.581   4.952  0.1836 -0.0228 -0.5259
14313TIP3    H164354   6.353   6.673   4.967  0.5977 -0.0610  0.4159
14313TIP3    H264355   6.443   6.585   4.883  1.6030  0.5694  0.8176
14314TIP3   OH264356   5.998   5.587   4.244  0.1808 -0.3835 -0.6968
14314TIP3    H164357   6.005   5.493   4.264  2.9138  0.0934  1.2079
14314TIP3    H264358   6.070   5.627   4.294 -0.9225  2.7504 -1.4100
14315TIP3   OH264359   3.549   2.350  15.401 -0.0074 -0.2588 -0.0911
14315TIP3    H164360   3.574   2.276  15.456 -0.6445  1.6044  2.9454
14315TIP3    H264361   3.473   2.388  15.445 -0.8728  1.1160 -2.5768
14316TIP3   OH264362   0.883   5.401   1.460  0.9813  0.7699  0.3718
14316TIP3    H164363   0.845   5.449   1.533  0.3337  1.2232 -0.2513
14316TIP3    H264364   0.845   5.314   1.465  1.1726  0.7062  0.7461
14317TIP3   OH264365   3.562   5.187  10.036  0.1477 -0.0281  0.4243
14317TIP3    H164366   3.596   5.232  10.113  0.2705  0.4224  0.1079
14317TIP3    H264367   3.504   5.251   9.994 -1.1357 -0.7880  0.9675
14318TIP3   OH264368   1.525   3.460   1.543  0.4184  0.7305 -0.0199
14318TIP3    H164369   1.439   3.422   1.525  0.4208  0.5463  0.3616
14318TIP3    H264370   1.586   3.387   1.536  0.3025  0.4072  1.7958
14319TIP3   OH264371   6.425   2.562   3.465 -0.5120 -0.2923  0.2762
14319TIP3    H164372   6.479   2.604   3.397 -1.5053  1.0319  0.2611
14319TIP3    H264373   6.344   2.540   3.421 -1.6458  1.6591  1.2342
14320TIP3   OH264374   0.940   4.248   5.628  0.0453 -0.3664 -0.4622
14320TIP3    H164375   0.864   4.193   5.608 -0.5996  0.3458 -0.0509
14320TIP3    H264376   0.949   4.241   5.723  1.2601 -1.4088 -0.6356
14321TIP3   OH264377   5.607   3.581   1.650 -0.3832 -0.3375  0.5217
14321TIP3    H164378   5.630   3.541   1.567  2.0593  0.6185  0.6658
14321TIP3    H264379   5.511   3.580   1.652 -0.4840 -0.7566 -2.0869
14322TIP3   OH264380   4.503   6.939   0.352 -0.5827 -0.0462  0.4551
14322TIP3    H164381   4.512   6.850   0.319  0.7246 -0.7721  2.5479
14322TIP3    H264382   4.549   6.994   0.289 -0.9535 -0.8928 -0.5837
14323TIP3   OH264383   3.161   5.502   0.297 -0.2089 -0.5624 -0.4006
14323TIP3    H164384   3.077   5.505   0.342  0.7934  0.0189  1.5603
14323TIP3    H264385   3.188   5.593   0.289 -0.8280 -0.5293 -3.3014
14324TIP3   OH264386   4.720   3.737   0.204 -0.1830  0.2009 -0.5509
14324TIP3    H164387   4.757   3.792   0.135  2.3654 -0.9200 -0.1997
14324TIP3    H264388   4.796   3.711   0.257 -1.9160  0.3618  2.2295
14325TIP3   OH264389   4.031   3.842   2.941 -0.4151  0.1353 -0.6352
14325TIP3    H164390   3.958   3.822   2.883 -0.7316  1.6783 -0.8093
14325TIP3    H264391   4.101   3.871   2.883 -0.1891  0.1291 -0.3675
14326TIP3   OH264392   1.146   1.770  14.567 -0.4199  0.0169 -0.4299
14326TIP3    H164393   1.065   1.729  14.596 -0.2131 -0.1383 -0.0668
14326TIP3    H264394   1.155   1.848  14.621 -0.3481  0.0534 -0.4945
14327TIP3   OH264395   4.389   2.336  14.335  0.2842  0.3890  0.2320
14327TIP3    H164396   4.453   2.354  14.266 -1.2449  1.1243 -1.0574
14327TIP3    H264397   4.333   2.413  14.337 -0.6669 -0.2907  1.2116
14328TIP3   OH264398   4.886   1.263   3.780 -0.4179  0.4123 -0.4324
14328TIP3    H164399   4.834   1.285   3.703 -1.9881 -0.7420  0.2385
14328TIP3    H264400   4.874   1.169   3.790  0.2129  0.4571  0.9058
14329TIP3   OH264401   7.117   6.610   0.024 -0.4006  0.8085  0.2460
14329TIP3    H164402   7.096   6.522  -0.007  0.5500  0.4192  0.6719
14329TIP3    H264403   7.046   6.630   0.086  1.0798 -1.0868  2.7851
14330TIP3   OH264404   6.955   4.562  14.594 -0.0936  0.4530  0.4303
14330TIP3    H164405   6.942   4.534  14.504  0.4738  0.8149  0.2341
14330TIP3    H264406   6.989   4.485  14.640 -1.1754  0.0163  0.5414
14331TIP3   OH264407   4.592   2.913  15.264  0.3118  0.2623  0.2079
14331TIP3    H164408   4.656   2.979  15.235  0.6413 -0.6056 -1.1001
14331TIP3    H264409   4.521   2.919  15.201 -0.6663  0.8099  1.3245
14332TIP3   OH264410   6.069   0.570   2.733  0.0364  0.5999  0.3304
14332TIP3    H164411   6.161   0.571   2.756 -0.0588  0.3667  0.7376
14332TIP3    H264412   6.023   0.564   2.817 -0.3413  0.4464  0.1168
14333TIP3   OH264413   0.147   1.196   3.621 -0.2876 -0.0328  0.2711
14333TIP3    H164414   0.091   1.164   3.551  1.6381 -0.3008 -1.2516
14333TIP3    H264415   0.228   1.223   3.577  0.7940  0.3569  2.3272
14334TIP3   OH264416   2.796   2.544   3.335 -0.5133  0.0749  0.7484
14334TIP3    H164417   2.849   2.583   3.266 -2.3277 -0.8232 -1.2832
14334TIP3    H264418   2.838   2.460   3.354 -0.6532 -0.2204 -0.1856
14335TIP3   OH264419   6.044   5.495  13.923 -0.1985  0.2208  0.1263
14335TIP3    H164420   5.953   5.466  13.918  0.5503 -2.2320 -0.5985
14335TIP3    H264421   6.070   5.509  13.832  0.1254  1.1645  0.3426
14336TIP3   OH264422   3.232   5.243   3.276  0.0506 -0.2319  0.2683
14336TIP3    H164423   3.214   5.326   3.231  3.8829  0.5364 -0.2380
14336TIP3    H264424   3.265   5.269   3.362  3.6457 -0.9085 -0.7503
14337TIP3   OH264425   5.817   3.453  14.347  0.5716  0.3161  0.4866
14337TIP3    H164426   5.872   3.414  14.279 -0.4524 -0.7915  0.2641
14337TIP3    H264427   5.877   3.508  14.397  1.7767 -0.4484 -0.0576
14338TIP3   OH264428   6.767   4.121  10.632  0.0481 -0.1776 -0.1814
14338TIP3    H164429   6.825   4.171  10.689 -0.8864  0.4844  0.2237
14338TIP3    H264430   6.768   4.169  10.549 -0.5681  0.3302  0.0945
14339TIP3   OH264431   3.603   5.256  10.886  0.2315 -0.0605  0.1020
14339TIP3    H164432   3.567   5.169  10.901  0.8283 -0.3769 -0.2687
14339TIP3    H264433   3.628   5.256  10.794 -0.2164  0.6751 -0.0301
14340TIP3   OH264434   0.186   3.495   0.249  0.0071 -0.1051  0.3251
14340TIP3    H164435   0.123   3.434   0.211  0.2559  0.6322 -1.3414
14340TIP3    H264436   0.238   3.526   0.175  0.8332  1.0376  1.3365
14341TIP3   OH264437   3.962   3.035   5.645  0.0803 -0.4642  0.3345
14341TIP3    H164438   3.968   2.965   5.711 -1.0306  0.4704  1.4927
14341TIP3    H264439   3.887   3.087   5.673 -1.5047 -0.9277 -2.5732
14342TIP3   OH264440   4.164   4.076  12.130  0.1055 -0.5800 -0.2070
14342TIP3    H164441   4.239   4.063  12.188  0.8391  1.9594 -0.4554
14342TIP3    H264442   4.197   4.055  12.043  0.8242  1.2678 -0.4180
14343TIP3   OH264443   1.832   2.132  14.498 -0.4291  0.5026 -0.5142
14343TIP3    H164444   1.905   2.086  14.457 -0.4987 -0.1723  0.0866
14343TIP3    H264445   1.869   2.215  14.526  0.4532 -0.3026  0.8443
14344TIP3   OH264446   3.351   7.013   3.966  0.2041 -0.2608  0.0099
14344TIP3    H164447   3.409   6.939   3.984 -0.1189 -0.6761 -0.6060
14344TIP3    H264448   3.391   7.057   3.891 -1.3308 -1.7722 -1.7969
14345TIP3   OH264449   1.277   2.476   3.725  0.2456 -0.0356 -0.0888
14345TIP3    H164450   1.233   2.559   3.704 -2.2926 -1.4822 -0.8494
14345TIP3    H264451   1.308   2.444   3.640 -0.4283 -0.7135 -0.0910
14346TIP3   OH264452   6.495   6.953  10.792 -0.6612 -0.3942  0.5503
14346TIP3    H164453   6.497   6.915  10.880  0.1140  0.5902  0.9721
14346TIP3    H264454   6.587   6.972  10.772 -0.9514  0.4944  0.0181
14347TIP3   OH264455   3.791   5.296   3.024  0.4632  0.0678  0.5781
14347TIP3    H164456   3.833   5.380   3.002 -0.1133  0.2625  0.2132
14347TIP3    H264457   3.842   5.231   2.976 -1.2518  0.5449 -2.1363
14348TIP3   OH264458   4.443   3.188  15.380  0.4394  0.1889 -0.2039
14348TIP3    H164459   4.394   3.174  15.461 -1.6653  1.1741 -1.2351
14348TIP3    H264460   4.474   3.279  15.385 -1.4627  0.9472 -1.3367
14349TIP3   OH264461   5.247   2.333  14.250  0.8157 -0.0821  0.0722
14349TIP3    H164462   5.323   2.392  14.253 -0.3806  1.5898 -1.2307
14349TIP3    H264463   5.232   2.310  14.342  2.3980  0.1999  0.4340
14350TIP3   OH264464   3.869   5.151   4.058 -0.1618  0.3218 -0.4780
14350TIP3    H164465   3.861   5.079   3.996  1.7007  0.0483 -0.4674
14350TIP3    H264466   3.863   5.111   4.144 -0.1113  0.3065 -0.4810
14351TIP3   OH264467   5.722   4.537   0.467  0.1270 -0.4402  0.6875
14351TIP3    H164468   5.707   4.462   0.409  0.0303 -0.9729  1.3879
14351TIP3    H264469   5.798   4.582   0.429  0.5592 -1.2361  0.6002
14352TIP3   OH264470   7.107   0.395   5.257  0.3972  0.6614 -0.2310
14352TIP3    H164471   7.130   0.353   5.340  1.2934  0.2105 -0.6914
14352TIP3    H264472   7.146   0.338   5.190 -1.1625  0.4680 -1.0160
14353TIP3   OH264473   1.001   1.449  13.968 -0.0656  0.9996  0.1579
14353TIP3    H164474   0.910   1.418  13.963 -0.7855  3.0502 -0.8880
14353TIP3    H264475   1.023   1.472  13.878  2.7252 -2.4373 -0.2539
14354TIP3   OH264476   2.071   0.831  11.713  0.0195  0.2561 -0.1903
14354TIP3    H164477   2.007   0.883  11.761  0.9259 -0.7233  2.2302
14354TIP3    H264478   2.024   0.751  11.688 -0.1934  0.3120  0.0265
14355TIP3   OH264479   0.654   5.950   3.260  0.2825  0.2734  0.2956
14355TIP3    H164480   0.680   6.039   3.282  0.9247  0.2208 -0.2242
14355TIP3    H264481   0.727   5.915   3.209 -1.0774  0.3559 -1.8497
14356TIP3   OH264482   0.651   4.972   3.514 -0.0684 -0.3076 -0.4172
14356TIP3    H164483   0.573   5.027   3.508 -0.2705 -0.2205  2.1052
14356TIP3    H264484   0.663   4.939   3.425 -2.4497  0.3612 -1.0720
14357TIP3   OH264485   5.200   4.206   1.759 -0.7866 -0.0613 -0.4252
14357TIP3    H164486   5.286   4.184   1.793 -1.2230 -1.5867 -0.2580
14357TIP3    H264487   5.183   4.140   1.692 -2.1548 -0.2493  0.0837
14358TIP3   OH264488   0.353   4.879   4.594  0.4350 -0.6859  0.0010
14358TIP3    H164489   0.354   4.803   4.535 -0.5189  0.6643 -1.8712
14358TIP3    H264490   0.270   4.871   4.642 -0.6323  0.0927 -1.5932
14359TIP3   OH264491   4.564   4.439   2.432  0.1321 -0.3569  0.3538
14359TIP3    H164492   4.602   4.526   2.418 -2.2652  0.6365 -0.6062
14359TIP3    H264493   4.515   4.447   2.514  0.3274 -0.9753  0.5362
14360TIP3   OH264494   5.712   4.038  11.758  0.4879  0.0381 -0.1027
14360TIP3    H164495   5.660   3.971  11.803  1.6068 -0.6624  0.1784
14360TIP3    H264496   5.685   4.120  11.799 -0.5063 -0.2904 -0.0687
14361TIP3   OH264497   3.530   0.435   2.024 -0.0355  0.1434  0.2265
14361TIP3    H164498   3.571   0.493   2.088  1.7814 -0.0698 -0.6814
14361TIP3    H264499   3.436   0.440   2.044  0.4003  0.4775  2.5534
14362TIP3   OH264500   2.684   5.834   1.572  0.0880 -0.0657 -0.1076
14362TIP3    H164501   2.678   5.869   1.483 -1.0282  2.7230  0.9419
14362TIP3    H264502   2.639   5.750   1.567  0.6025 -0.2745 -2.2825
14363TIP3   OH264503   1.051   2.396   0.580  0.6581 -0.3456  0.4773
14363TIP3    H164504   0.990   2.322   0.587  0.9695 -0.5086  1.7890
14363TIP3    H264505   1.037   2.430   0.492 -1.5629 -0.1931  0.8233
14364TIP3   OH264506   5.004   5.203   5.663 -0.1639 -0.5902  0.3095
14364TIP3    H164507   5.016   5.294   5.636 -1.4482 -0.0988  1.3143
14364TIP3    H264508   5.034   5.152   5.588 -0.5700  0.6711 -0.7484
14365TIP3   OH264509   1.092   5.548   1.040  0.2059 -0.7072  0.2998
14365TIP3    H164510   0.999   5.546   1.016  0.6624 -4.0774 -1.7933
14365TIP3    H264511   1.132   5.606   0.976 -0.1611 -0.8308 -0.0454
14366TIP3   OH264512   1.979   2.436   5.299 -0.1782  0.2106  0.0081
14366TIP3    H164513   1.995   2.358   5.351  0.9609  0.9560  0.8088
14366TIP3    H264514   2.064   2.460   5.263 -0.6095  0.7788 -0.6900
14367TIP3   OH264515   3.994   3.165  12.408 -0.0431 -0.3574  0.1991
14367TIP3    H164516   4.064   3.116  12.452 -0.9120 -1.8547 -0.0205
14367TIP3    H264517   3.927   3.175  12.475  0.3863  1.1428  0.4295
14368TIP3   OH264518   1.203   5.551   4.676  0.0969  0.6033 -0.1790
14368TIP3    H164519   1.141   5.480   4.695 -0.7600  0.8204 -2.0097
14368TIP3    H264520   1.288   5.517   4.705 -0.6636 -0.1895  1.2192
14369TIP3   OH264521   1.641   1.077   5.897 -0.0929 -0.9507  0.1161
14369TIP3    H164522   1.660   0.987   5.925 -0.8284 -0.9796  0.5545
14369TIP3    H264523   1.726   1.121   5.897  0.2548 -1.6199  0.0096
14370TIP3   OH264524   3.909   5.394  14.722  0.4017  0.1370  0.4980
14370TIP3    H164525   3.874   5.474  14.760  0.4146  1.0501 -1.3236
14370TIP3    H264526   3.836   5.331  14.729 -0.6596  1.1797 -0.6565
14371TIP3   OH264527   4.817   6.099   5.563  0.4587  0.2658 -0.2033
14371TIP3    H164528   4.891   6.039   5.575 -0.6750 -1.0477  0.4363
14371TIP3    H264529   4.776   6.070   5.482 -0.0859  0.1852  0.0995
14372TIP3   OH264530   1.032   4.062   5.249 -0.5767 -0.5270  0.1306
14372TIP3    H164531   1.083   4.030   5.174 -0.7895 -1.7785  0.4983
14372TIP3    H264532   0.944   4.030   5.234 -1.3490  1.7737 -0.5781
14373TIP3   OH264533   6.110   6.983   4.387 -0.1097 -0.4399  0.1436
14373TIP3    H164534   6.206   6.985   4.384 -0.0691  3.2987 -0.9553
14373TIP3    H264535   6.088   7.028   4.469 -0.9864 -1.3344  0.4203
14374TIP3   OH264536   4.154   0.214  13.572  0.4872  0.2211 -0.2990
14374TIP3    H164537   4.193   0.137  13.613  1.1965  0.3689 -0.6776
14374TIP3    H264538   4.092   0.247  13.637  1.4873  0.3661  0.5981
14375TIP3   OH264539   2.290   1.042  14.730 -0.5414 -0.1105  0.0112
14375TIP3    H164540   2.215   0.987  14.710 -0.7657 -0.6506  2.0773
14375TIP3    H264541   2.310   1.023  14.822 -0.4171  2.9921  0.7450
14376TIP3   OH264542   2.328   0.324   1.547  0.2029  0.1016 -0.5991
14376TIP3    H164543   2.386   0.259   1.587 -0.1732  0.7677  1.1198
14376TIP3    H264544   2.336   0.402   1.603 -1.1351  0.7400 -1.2334
14377TIP3   OH264545   1.636   3.308   1.862 -0.5310  0.0800 -0.2606
14377TIP3    H164546   1.668   3.393   1.831 -0.0273  0.9736  2.3886
14377TIP3    H264547   1.715   3.259   1.885 -0.8448 -0.8818 -1.1674
14378TIP3   OH264548   0.930   6.163   4.608 -0.1026  0.2477  0.3506
14378TIP3    H164549   0.900   6.106   4.679 -0.4939 -0.9460 -0.7332
14378TIP3    H264550   1.023   6.177   4.626  0.3059 -1.7184  0.0554
14379TIP3   OH264551   3.942   5.960   3.876 -0.1811 -0.0363 -0.1121
14379TIP3    H164552   3.891   6.037   3.902 -0.6156 -0.2694 -0.2648
14379TIP3    H264553   4.003   5.992   3.810 -1.1580 -0.0462 -1.0440
14380TIP3   OH264554   3.611   3.579   0.798  0.1222 -0.2416  0.2035
14380TIP3    H164555   3.523   3.615   0.789 -0.2871 -1.4371 -0.8903
14380TIP3    H264556   3.615   3.547   0.888  0.6266  2.7462  1.3409
14381TIP3   OH264557   2.096   0.403   0.379  0.3274  1.0868 -0.0885
14381TIP3    H164558   2.065   0.493   0.377  1.7704  1.6089 -0.2274
14381TIP3    H264559   2.101   0.381   0.473 -1.7297  0.4901 -0.0662
14382TIP3   OH264560   4.170   7.081   0.920 -0.2272  0.5004  0.8057
14382TIP3    H164561   4.146   7.049   1.007 -1.3520 -1.1004 -0.0476
14382TIP3    H264562   4.265   7.089   0.923 -0.1874 -0.1296  1.9700
14383TIP3   OH264563   2.244   0.557  12.958 -0.3060  0.3371  0.0674
14383TIP3    H164564   2.171   0.520  12.908 -0.8058 -0.2435  1.2027
14383TIP3    H264565   2.315   0.493  12.947 -0.9358 -0.6300  1.4204
14384TIP3   OH264566   4.601   4.261   5.471 -0.0056  0.2268 -0.1438
14384TIP3    H164567   4.613   4.176   5.514  4.3159  0.8248  0.3696
14384TIP3    H264568   4.604   4.325   5.542 -0.4153  0.9386 -0.7468
14385TIP3   OH264569   0.456   3.364   4.353 -0.1533  0.6247  0.4093
14385TIP3    H164570   0.443   3.270   4.352 -0.5899  0.6635  1.5306
14385TIP3    H264571   0.551   3.375   4.353  0.0482  0.2811 -3.6483
14386TIP3   OH264572   3.875   2.010  14.662  0.0911  0.3422 -0.1904
14386TIP3    H164573   3.856   2.061  14.741 -0.8588 -1.3533  0.7365
14386TIP3    H264574   3.789   1.992  14.624  0.5114  0.7032 -1.3535
14387TIP3   OH264575   3.556   2.705   3.504 -0.5359  0.3726  0.2391
14387TIP3    H164576   3.511   2.775   3.551 -0.8062  0.2302  0.1951
14387TIP3    H264577   3.498   2.630   3.512 -1.0334  0.5951 -1.1083
14388TIP3   OH264578   4.794   2.814   1.369  0.1165 -0.1925 -0.3588
14388TIP3    H164579   4.720   2.861   1.329  1.2674 -0.0808 -2.5068
14388TIP3    H264580   4.855   2.800   1.297  1.2818 -2.1339  0.9054
14389TIP3   OH264581   6.810   0.714  13.437 -0.2813  0.2506 -0.0520
14389TIP3    H164582   6.810   0.621  13.415 -2.6206 -0.7409  3.4278
14389TIP3    H264583   6.741   0.752  13.383 -1.2423 -0.6650  0.4972
14390TIP3   OH264584   0.131   6.255   6.078  0.1360  0.0236 -0.6361
14390TIP3    H164585   0.094   6.332   6.036 -0.1412 -0.7838 -1.9089
14390TIP3    H264586   0.224   6.276   6.089  0.0076  0.6387 -0.7213
14391TIP3   OH264587   5.177   3.210  10.268  0.6157  0.0596 -0.0188
14391TIP3    H164588   5.171   3.175  10.180 -1.4727 -0.8565  0.4254
14391TIP3    H264589   5.110   3.163  10.318  0.2281  2.0671  1.5243
14392TIP3   OH264590   6.647   1.756  12.179  0.6536 -0.5966  0.6595
14392TIP3    H164591   6.604   1.795  12.255  0.6893  1.9102 -0.5209
14392TIP3    H264592   6.631   1.818  12.108  5.0703 -0.0868 -0.1604
14393TIP3   OH264593   4.862   1.412   1.733  0.0273 -0.3759 -0.1788
14393TIP3    H164594   4.904   1.328   1.713  0.6757  0.0486 -0.6548
14393TIP3    H264595   4.934   1.468   1.763  0.1181  0.8371 -2.4307
14394TIP3   OH264596   4.455   4.134  12.244 -0.2951 -0.4886 -0.1494
14394TIP3    H164597   4.475   4.208  12.187  1.4431 -0.2190  0.7329
14394TIP3    H264598   4.481   4.164  12.332 -3.3907 -0.6637  0.9543
14395TIP3   OH264599   6.407   6.176  10.748 -0.2942  0.0782 -0.0164
14395TIP3    H164600   6.363   6.217  10.673 -1.9706  0.7045  1.2538
14395TIP3    H264601   6.339   6.167  10.814  1.1057 -0.6023  1.4031
14396TIP3   OH264602   5.489   5.597  12.777  0.0776 -0.0964  0.7197
14396TIP3    H164603   5.470   5.690  12.775 -0.1255 -0.0502 -3.5782
14396TIP3    H264604   5.407   5.556  12.805 -0.2920  0.9273  1.1743
14397TIP3   OH264605   3.760   5.949   3.630 -0.0190 -0.0288 -0.7290
14397TIP3    H164606   3.761   5.952   3.534 -0.0772 -0.9324 -0.7729
14397TIP3    H264607   3.852   5.944   3.655 -0.0361 -0.8191 -0.7959
14398TIP3   OH264608   2.847   6.383   1.079  0.0600 -0.6326  0.3366
14398TIP3    H164609   2.901   6.426   1.013 -0.6051 -0.6377 -0.2265
14398TIP3    H264610   2.814   6.455   1.134 -2.5302 -0.1312 -1.6959
14399TIP3   OH264611   6.049   3.525  11.221 -0.1583  0.4795  0.2146
14399TIP3    H164612   5.995   3.459  11.178  0.0026  1.1553 -1.0760
14399TIP3    H264613   5.987   3.578  11.270 -0.2744 -0.6796  1.3715
14400TIP3   OH264614   4.559   0.198   4.390  0.3973  0.0779 -0.1043
14400TIP3    H164615   4.534   0.118   4.437 -1.6509 -0.6794 -2.2692
14400TIP3    H264616   4.517   0.190   4.305  0.9115  3.0570 -0.7618
14401TIP3   OH264617   3.724   2.502  10.962  0.5618  0.5024 -0.2454
14401TIP3    H164618   3.707   2.413  10.931  0.6744  0.6008 -0.5926
14401TIP3    H264619   3.789   2.490  11.032  0.1981  0.2663  0.0536
14402TIP3   OH264620   3.899   6.013   4.497 -0.8867 -0.3844  0.1819
14402TIP3    H164621   3.895   5.946   4.566 -1.0123  1.0009  1.5811
14402TIP3    H264622   3.940   6.088   4.539  0.5987 -0.0279 -1.7720
14403TIP3   OH264623   5.109   0.562   5.283  0.0542  0.7878  0.0317
14403TIP3    H164624   5.127   0.497   5.215  1.2933 -1.4938  2.3247
14403TIP3    H264625   5.148   0.643   5.251  2.6486 -0.7762 -1.0420
14404TIP3   OH264626   6.498   5.419   5.284 -0.2193  0.1622 -0.3115
14404TIP3    H164627   6.461   5.407   5.197 -0.3018  0.0851 -0.2658
14404TIP3    H264628   6.453   5.355   5.339 -0.0524  0.0990 -0.2458
14405TIP3   OH264629   6.636   4.891  11.897 -0.3880 -0.3261  0.5262
14405TIP3    H164630   6.589   4.907  11.816  0.2878 -1.8900 -0.2040
14405TIP3    H264631   6.701   4.962  11.901 -2.4528  1.6549  1.3868
14406TIP3   OH264632   3.979   6.306   2.187  0.3370  0.3793  0.0005
14406TIP3    H164633   3.955   6.396   2.206  0.7031  0.2536  1.1453
14406TIP3    H264634   4.036   6.280   2.260 -0.5955 -1.1082  0.2577
14407TIP3   OH264635   3.741   0.822   5.730 -0.0465 -0.4157 -0.2858
14407TIP3    H164636   3.742   0.815   5.825 -1.1151  0.0420 -0.2327
14407TIP3    H264637   3.829   0.854   5.707 -0.2881  0.9943  0.6674
14408TIP3   OH264638   6.699   4.842  15.134 -0.1117 -0.0868 -0.9747
14408TIP3    H164639   6.670   4.820  15.223  1.3261 -1.8051 -0.8773
14408TIP3    H264640   6.650   4.921  15.112  0.2644  1.0358  1.7600
14409TIP3   OH264641   2.503   3.498   4.485  0.2296  0.0249  0.8378
14409TIP3    H164642   2.493   3.530   4.395 -1.1393 -0.9996  0.5849
14409TIP3    H264643   2.549   3.415   4.476  0.5934  0.1876  1.1531
14410TIP3   OH264644   5.800   4.316   5.086 -0.5048 -0.4203  0.0390
14410TIP3    H164645   5.707   4.334   5.101 -0.1986  0.0709  1.5383
14410TIP3    H264646   5.804   4.285   4.996 -2.2717 -1.4412  0.2449
14411TIP3   OH264647   2.331   1.975   2.064 -0.0639  0.0155 -0.4515
14411TIP3    H164648   2.355   2.067   2.053  1.6643 -0.0578  1.8368
14411TIP3    H264649   2.405   1.927   2.028  1.0798 -0.3157  2.0983
14412TIP3   OH264650   4.668   3.202   4.778 -0.0960 -0.0781 -0.6671
14412TIP3    H164651   4.704   3.274   4.830 -1.5193  1.5898 -1.8922
14412TIP3    H264652   4.681   3.125   4.833 -1.0403  1.5001  1.9702
14413TIP3   OH264653   5.268   6.707   4.983 -0.3022  0.3516  0.4357
14413TIP3    H164654   5.277   6.784   4.927  0.2178  1.8040  2.4044
14413TIP3    H264655   5.218   6.645   4.931 -1.1846  2.2121 -1.0408
14414TIP3   OH264656   1.218   4.624  14.531 -0.2058 -0.1733  0.4774
14414TIP3    H164657   1.215   4.602  14.624 -0.2709 -1.7383  0.1267
14414TIP3    H264658   1.308   4.604  14.504 -0.6650 -1.4860 -0.1738
14415TIP3   OH264659   3.155   3.157   1.467 -0.1802  0.2323  0.1263
14415TIP3    H164660   3.133   3.080   1.519  0.0562 -1.7666 -2.4787
14415TIP3    H264661   3.245   3.178   1.490 -0.8062  0.9176  2.1458
14416TIP3   OH264662   2.619   4.839  13.712 -0.2401  0.4108  0.2769
14416TIP3    H164663   2.648   4.928  13.691  0.7606 -0.1156 -0.6365
14416TIP3    H264664   2.561   4.850  13.787  0.1461  1.7991  0.3942
14417TIP3   OH264665   2.245   5.240   2.483 -0.1132  0.2303  0.0801
14417TIP3    H164666   2.158   5.216   2.514  0.9971 -2.9542  1.1011
14417TIP3    H264667   2.284   5.158   2.454  2.4929  1.5927 -0.5947
14418TIP3   OH264668   5.488   5.573   2.239 -0.0765 -0.7092  0.1861
14418TIP3    H164669   5.479   5.594   2.146  0.2990  0.8328  0.4769
14418TIP3    H264670   5.416   5.620   2.281 -0.1311 -1.2479  0.7193
14419TIP3   OH264671   6.581   2.854   0.015  0.0540 -0.3572 -0.0368
14419TIP3    H164672   6.611   2.799  -0.058  1.1824 -1.4278  1.1693
14419TIP3    H264673   6.489   2.871  -0.004  0.8766  1.4862 -2.9485
14420TIP3   OH264674   2.303   2.795   1.260 -0.2171 -0.2015  0.0730
14420TIP3    H164675   2.257   2.773   1.341 -1.3533 -0.4034 -0.6033
14420TIP3    H264676   2.235   2.827   1.202  0.4037 -1.0343 -1.1560
14421TIP3   OH264677   2.809   3.191  13.149 -0.5219 -0.0081  0.5039
14421TIP3    H164678   2.832   3.184  13.241 -2.4107  1.1013  1.1027
14421TIP3    H264679   2.755   3.114  13.132 -0.9919  0.3010  0.5911
14422TIP3   OH264680   0.745   3.540   3.157  0.2238  0.2314  0.0538
14422TIP3    H164681   0.796   3.620   3.173  0.1753 -0.0134  1.6554
14422TIP3    H264682   0.664   3.554   3.206  0.4874 -1.0501  0.8989
14423TIP3   OH264683   0.925   6.374   2.751 -0.9685 -0.1163 -0.3060
14423TIP3    H164684   1.019   6.356   2.752 -1.1782 -1.2799 -0.3077
14423TIP3    H264685   0.914   6.443   2.685 -0.3545 -1.4057 -1.8137
14424TIP3   OH264686   4.980   5.840   2.887  0.4528  0.0263  0.3317
14424TIP3    H164687   5.027   5.877   2.812 -2.1453  1.5895 -0.6670
14424TIP3    H264688   5.036   5.858   2.962  2.1722  0.3024 -0.9485
14425TIP3   OH264689   2.000   3.685  10.416 -0.0083  0.1137 -0.4828
14425TIP3    H164690   2.026   3.765  10.370  0.0042 -1.1275 -2.8316
14425TIP3    H264691   2.074   3.625  10.403 -0.3779 -0.5644  0.4571
14426TIP3   OH264692   3.946   4.772   3.258 -0.1168 -0.1544 -0.3694
14426TIP3    H164693   3.967   4.775   3.351 -2.2475 -1.2267  0.2091
14426TIP3    H264694   4.005   4.706   3.222  0.9830  0.5385  0.1173
14427TIP3   OH264695   0.909   1.562   2.520 -0.7502 -0.6271  0.3492
14427TIP3    H164696   0.838   1.614   2.482  0.8667  1.0316 -0.5835
14427TIP3    H264697   0.925   1.493   2.456 -0.5334 -0.0922 -0.1838
14428TIP3   OH264698   2.727   0.211   4.011 -0.1116 -0.2804  0.1014
14428TIP3    H164699   2.767   0.241   3.929  0.5759 -0.6226  0.3099
14428TIP3    H264700   2.670   0.139   3.984  0.1733 -0.4446 -0.0699
14429TIP3   OH264701   3.937   4.700   2.892  0.2061 -0.3875  0.7735
14429TIP3    H164702   3.955   4.718   2.800  1.4653  1.1575  1.3009
14429TIP3    H264703   3.859   4.752   2.912  0.7947  0.4271  0.9559
14430TIP3   OH264704   6.272   2.936   2.954  0.4711 -0.1143  0.4930
14430TIP3    H164705   6.189   2.947   3.000  0.4825 -0.0779  0.5051
14430TIP3    H264706   6.318   3.019   2.967 -0.0245  0.3533 -0.5867
14431TIP3   OH264707   6.492   3.395   2.023 -0.2431  0.3812 -0.6737
14431TIP3    H164708   6.574   3.369   2.064 -0.4433 -0.1415 -0.5894
14431TIP3    H264709   6.495   3.490   2.021  1.2994  0.3538 -2.5743
14432TIP3   OH264710   7.015   3.229   5.052  1.1451  0.3711  0.2944
14432TIP3    H164711   7.109   3.227   5.035  1.3027 -2.3873  1.0435
14432TIP3    H264712   6.988   3.137   5.054 -1.4621  1.0470  0.7667
14433TIP3   OH264713   6.148   4.869   0.848  0.2247 -0.0101  0.3289
14433TIP3    H164714   6.122   4.808   0.779 -0.5831  1.8747 -1.1077
14433TIP3    H264715   6.150   4.955   0.805  0.8734  1.0650  2.3802
14434TIP3   OH264716   1.376   3.899   3.932 -0.7439 -0.6909 -0.4714
14434TIP3    H164717   1.468   3.877   3.948 -0.4366  0.1734 -0.9836
14434TIP3    H264718   1.365   3.888   3.838 -0.6248  1.0541 -0.7284
14435TIP3   OH264719   1.364   0.877  12.129  0.4079 -0.5307  0.0343
14435TIP3    H164720   1.417   0.929  12.069  0.7971 -0.8646  0.0852
14435TIP3    H264721   1.409   0.883  12.214 -0.7555  0.8876  0.5932
14436TIP3   OH264722   2.510   1.272   2.933 -0.3172 -0.1700 -0.5850
14436TIP3    H164723   2.515   1.273   3.028 -1.4832 -1.6642 -0.4752
14436TIP3    H264724   2.516   1.365   2.908 -2.0124  0.4587  1.0703
14437TIP3   OH264725   4.451   7.070   0.992 -0.1958  0.4948 -0.2010
14437TIP3    H164726   4.530   7.090   1.043 -0.1553  0.5395 -0.2811
14437TIP3    H264727   4.403   7.008   1.047  0.3344 -0.2449 -0.5447
14438TIP3   OH264728   1.502   4.503   1.984  0.4071 -0.4457  0.3738
14438TIP3    H164729   1.452   4.491   2.065  0.5077 -0.2424  0.4673
14438TIP3    H264730   1.538   4.592   1.991  0.5615 -0.4932  0.1862
14439TIP3   OH264731   3.454   4.385   1.277  0.1350 -0.3790 -0.2753
14439TIP3    H164732   3.458   4.428   1.363  2.4291  0.8436 -0.8891
14439TIP3    H264733   3.362   4.390   1.252 -0.3104  0.7674  1.3656
14440TIP3   OH264734   2.682   2.254   2.744  0.9052 -0.1877  0.4636
14440TIP3    H164735   2.671   2.349   2.749  0.0392 -0.3095  1.3294
14440TIP3    H264736   2.621   2.219   2.810 -0.3407 -1.4378 -1.2218
14441TIP3   OH264737   1.374   4.090   4.757  0.1890 -0.0241  0.5504
14441TIP3    H164738   1.305   4.125   4.700 -0.9470 -2.6391  0.2146
14441TIP3    H264739   1.378   3.997   4.737 -0.8780 -1.3451  5.3036
14442TIP3   OH264740   3.871   5.902   9.810  0.1627 -0.2097 -0.5150
14442TIP3    H164741   3.784   5.882   9.777 -0.2440 -1.9824  1.4485
14442TIP3    H264742   3.921   5.821   9.798  1.2890  0.4816 -0.7136
14443TIP3   OH264743   6.838   1.815  13.065  0.6551 -0.0200  0.2651
14443TIP3    H164744   6.915   1.862  13.034 -0.5099  2.1122  0.4283
14443TIP3    H264745   6.811   1.760  12.991  2.4009 -0.9596  0.2830
14444TIP3   OH264746   2.871   2.874   3.046  0.6203  0.3649 -0.2127
14444TIP3    H164747   2.874   2.958   3.093 -1.7754  0.8017 -0.7348
14444TIP3    H264748   2.851   2.809   3.113 -2.1971  0.9064 -0.4224
14445TIP3   OH264749   5.061   4.148   4.222  0.1669 -0.1825 -0.6445
14445TIP3    H164750   5.088   4.152   4.130  0.4014  0.3818 -0.5598
14445TIP3    H264751   5.022   4.234   4.239 -1.3370 -0.8302 -0.6425
14446TIP3   OH264752   4.492   5.616   4.550  0.1601  0.6456  0.2683
14446TIP3    H164753   4.514   5.528   4.521  1.8184  0.7755  1.0301
14446TIP3    H264754   4.523   5.673   4.479 -1.3826  0.6318 -0.4687
14447TIP3   OH264755   3.402   2.778   3.709  0.8850 -0.7533 -0.1015
14447TIP3    H164756   3.439   2.704   3.756  0.7304  0.3639  1.9219
14447TIP3    H264757   3.317   2.747   3.679  0.8592 -1.4386  0.6410
14448TIP3   OH264758   4.542   0.259   1.047  0.1506  0.0361 -0.7028
14448TIP3    H164759   4.462   0.283   1.093 -0.0464  1.2744 -1.6171
14448TIP3    H264760   4.530   0.168   1.022 -0.2646 -0.2708  0.5657
14449TIP3   OH264761   5.818   6.959   2.700  0.1375 -0.1551 -0.1266
14449TIP3    H164762   5.745   6.987   2.644  1.1343  0.1866 -1.3129
14449TIP3    H264763   5.896   6.992   2.655  1.0614 -0.9647  0.8355
14450TIP3   OH264764   3.543   7.076   5.607 -0.0982 -0.1772 -0.0145
14450TIP3    H164765   3.538   7.163   5.647  0.0405  0.0981 -0.5765
14450TIP3    H264766   3.452   7.045   5.606 -0.1300 -0.0956  0.3111
14451TIP3   OH264767   6.630   2.485   2.383 -0.2475  0.1858 -0.5159
14451TIP3    H164768   6.564   2.497   2.315 -1.0707 -2.1348 -0.2285
14451TIP3    H264769   6.708   2.456   2.336 -0.2767  0.2814 -0.6228
14452TIP3   OH264770   2.424   6.995  10.913 -0.3069  0.2776  0.0521
14452TIP3    H164771   2.505   7.036  10.942  1.7205 -2.5252 -1.1501
14452TIP3    H264772   2.392   6.946  10.989  0.0024  0.1305  0.0864
14453TIP3   OH264773   1.383   3.244   3.902 -0.3241  0.3942  0.4018
14453TIP3    H164774   1.306   3.291   3.934  0.0064  0.7398  0.7029
14453TIP3    H264775   1.368   3.153   3.928 -0.4651  0.5243  0.7858
14454TIP3   OH264776   0.263   1.065   3.087 -0.2565  0.3848  0.0090
14454TIP3    H164777   0.176   1.043   3.055 -0.1147 -0.4337  0.1684
14454TIP3    H264778   0.300   0.981   3.116 -0.2167  1.0251  1.9271
14455TIP3   OH264779   4.058   6.627   0.866 -0.2948  0.2424 -0.7940
14455TIP3    H164780   4.035   6.718   0.845 -0.1503 -0.0293 -2.2373
14455TIP3    H264781   4.067   6.584   0.780 -2.6143 -1.7269 -0.1404
14456TIP3   OH264782   3.529   2.058   0.306  0.1109  0.4957 -0.7995
14456TIP3    H164783   3.494   1.969   0.295  0.2542  0.3800 -0.3541
14456TIP3    H264784   3.624   2.045   0.311  0.0207  0.3374  2.0571
14457TIP3   OH264785   1.665   6.198   3.034  0.0071  0.2581  0.2633
14457TIP3    H164786   1.620   6.245   2.963  0.6127  2.4018  1.2265
14457TIP3    H264787   1.596   6.144   3.074 -0.6597  0.0955 -1.0294
14458TIP3   OH264788   2.019   2.097   3.949  0.5365 -1.0357  0.1601
14458TIP3    H164789   1.925   2.080   3.939  0.2197 -0.4850  1.9007
14458TIP3    H264790   2.027   2.192   3.943  1.3593 -1.1870 -2.4208
14459TIP3   OH264791   1.809   2.508  13.740  0.4492  0.3131  0.1848
14459TIP3    H164792   1.885   2.470  13.695  0.6204 -1.7862  2.0610
14459TIP3    H264793   1.838   2.595  13.768  2.4103 -0.6325  1.3316
14460TIP3   OH264794   6.374   1.878   1.099 -0.1348  0.0100  0.5560
14460TIP3    H164795   6.452   1.828   1.124  1.0126  1.8431  0.8407
14460TIP3    H264796   6.344   1.918   1.180  0.0901  1.2481  0.0472
14461TIP3   OH264797   4.092   4.354   3.848  0.5188 -0.1453 -0.4097
14461TIP3    H164798   4.053   4.439   3.867  2.5449  0.5773  0.8667
14461TIP3    H264799   4.083   4.344   3.753 -1.0507  0.7892 -0.3966
14462TIP3   OH264800   4.604   2.211  15.599  0.1671 -0.1240 -0.0940
14462TIP3    H164801   4.692   2.174  15.607  0.5347  1.0290  1.8031
14462TIP3    H264802   4.617   2.293  15.553  0.3613  0.7586  1.4470
14463TIP3   OH264803   0.533   0.366   5.034  0.0783  0.3628  0.1487
14463TIP3    H164804   0.598   0.306   4.998  0.1627  0.5814 -0.0683
14463TIP3    H264805   0.483   0.312   5.096 -1.2174 -0.5289 -1.5735
14464TIP3   OH264806   2.105   1.384  13.993  0.0269 -0.2326 -0.2382
14464TIP3    H164807   2.192   1.408  14.025 -0.5355 -0.3819  1.5295
14464TIP3    H264808   2.101   1.289  14.002 -0.4961 -0.1761  0.2197
14465TIP3   OH264809   2.844   5.046  10.459  0.3869  0.3164 -0.4140
14465TIP3    H164810   2.775   5.104  10.493  1.6261  1.7940 -0.3177
14465TIP3    H264811   2.805   5.005  10.382 -1.2078 -0.2632  0.6442
14466TIP3   OH264812   6.481   3.362  13.204 -0.0180 -0.0129  0.1999
14466TIP3    H164813   6.541   3.303  13.159 -0.2583  1.2117 -1.8434
14466TIP3    H264814   6.404   3.309  13.222  0.6500 -0.9075  0.5352
14467TIP3   OH264815   1.716   5.382   4.483  0.3892 -0.0581 -0.1268
14467TIP3    H164816   1.735   5.398   4.576 -1.3645 -1.0356  0.4556
14467TIP3    H264817   1.741   5.291   4.469 -1.1502 -0.5234 -0.0495
14468TIP3   OH264818   5.549   4.494   5.653  0.1819  0.3060 -0.7390
14468TIP3    H164819   5.519   4.555   5.720 -0.1100  0.2908 -0.8524
14468TIP3    H264820   5.552   4.409   5.698 -2.6668 -0.2442 -1.3982
14469TIP3   OH264821   2.761   6.543   0.258  0.5363 -0.2902  0.6045
14469TIP3    H164822   2.683   6.491   0.278  1.1768 -0.8767  1.6285
14469TIP3    H264823   2.824   6.520   0.326  1.6032  0.2072 -0.1877
14470TIP3   OH264824   4.671   3.820   1.102  0.4088 -0.5220 -0.2905
14470TIP3    H164825   4.690   3.844   1.192 -1.1228  0.0517 -0.0971
14470TIP3    H264826   4.727   3.745   1.085 -0.8111 -2.0262  1.8588
14471TIP3   OH264827   5.010   0.717  14.611 -0.0029 -0.5563  0.0005
14471TIP3    H164828   4.957   0.784  14.654 -0.4073 -0.0433 -1.2638
14471TIP3    H264829   4.970   0.634  14.638  0.0129 -0.2718  0.9296
14472TIP3   OH264830   7.053   1.735   5.121 -0.0254  0.5657 -0.2965
14472TIP3    H164831   7.071   1.688   5.203 -1.7768  1.7487  0.8515
14472TIP3    H264832   7.104   1.815   5.128  0.8295  0.0966 -0.9904
14473TIP3   OH264833   1.348   0.545   5.488 -0.2975  0.6498 -0.1782
14473TIP3    H164834   1.397   0.625   5.467 -0.4563  1.0328  0.8192
14473TIP3    H264835   1.350   0.493   5.408  1.5148  0.7731 -0.2484
14474TIP3   OH264836   2.704   1.322  13.634 -0.1617  0.5613 -0.1118
14474TIP3    H164837   2.645   1.360  13.700 -0.4704 -0.2089  0.0568
14474TIP3    H264838   2.658   1.245  13.602  0.3485  0.4809 -0.6574
14475TIP3   OH264839   6.085   0.507   0.242 -0.4060 -0.0219 -0.5240
14475TIP3    H164840   6.024   0.434   0.234  0.9455 -1.1409 -1.1240
14475TIP3    H264841   6.089   0.525   0.336 -2.4128  0.7929 -0.5467
14476TIP3   OH264842   4.182   6.867   4.803 -0.3554  0.4843  0.3780
14476TIP3    H164843   4.099   6.896   4.841 -0.6513 -0.0311  0.1389
14476TIP3    H264844   4.156   6.812   4.729  0.0203 -2.9995  2.5596
14477TIP3   OH264845   6.574   5.756   5.119 -0.4708 -0.1215  0.1201
14477TIP3    H164846   6.643   5.791   5.063 -0.5353  1.3943  0.9382
14477TIP3    H264847   6.516   5.710   5.059  0.0959  0.4479 -0.8930
14478TIP3   OH264848   3.827   5.601   3.410 -0.0490 -0.6563 -0.2175
14478TIP3    H164849   3.866   5.682   3.443  1.6984 -1.1436 -0.9287
14478TIP3    H264850   3.861   5.533   3.468  1.0724 -1.2185 -1.4655
14479TIP3   OH264851   4.120   5.910   0.590  0.0203 -0.6044 -0.2557
14479TIP3    H164852   4.033   5.950   0.591  0.6962  1.0347 -1.4295
14479TIP3    H264853   4.117   5.847   0.519 -0.2292 -0.5949 -0.2538
14480TIP3   OH264854   1.888   6.734  12.478 -0.1064 -0.2477 -0.0621
14480TIP3    H164855   1.795   6.760  12.478  0.3270  1.4496 -0.2153
14480TIP3    H264856   1.920   6.760  12.564  0.9441  2.2220 -1.0907
14481TIP3   OH264857   0.135   6.082   2.116 -0.2036  0.0801  0.0456
14481TIP3    H164858   0.195   6.123   2.054  0.1477 -0.6109 -0.0844
14481TIP3    H264859   0.096   6.010   2.067  2.9161 -2.9826  1.6077
14482TIP3   OH264860   5.595   3.331   5.870 -0.4058 -0.1558 -0.0021
14482TIP3    H164861   5.606   3.425   5.887  1.1370 -0.3319  0.0953
14482TIP3    H264862   5.611   3.323   5.776 -1.2211 -0.2379 -0.1379
14483TIP3   OH264863   4.271   1.708  13.215  0.8588  0.8118 -0.2727
14483TIP3    H164864   4.183   1.702  13.178  0.3018 -2.5174  1.2607
14483TIP3    H264865   4.270   1.789  13.266 -1.7975  0.2583  0.7061
14484TIP3   OH264866   3.541   4.756   4.144 -0.0892 -0.3079  0.5083
14484TIP3    H164867   3.447   4.744   4.159 -0.1359  1.4973  2.0149
14484TIP3    H264868   3.548   4.771   4.050 -1.4461  0.3919  0.4846
14485TIP3   OH264869   1.401   0.245   4.997  1.2059  0.1462 -0.0592
14485TIP3    H164870   1.424   0.295   4.919 -1.5774 -0.2384 -1.2603
14485TIP3    H264871   1.440   0.159   4.983  1.0133  0.1855 -0.8717
14486TIP3   OH264872   5.993   6.273   0.964 -0.0254  0.3335 -0.2685
14486TIP3    H164873   5.962   6.184   0.949  2.4985 -1.1903  2.3626
14486TIP3    H264874   6.049   6.266   1.042  1.6846  3.8945 -0.9463
14487TIP3   OH264875   1.884   4.421  12.779 -0.0810 -0.0500 -0.1099
14487TIP3    H164876   1.930   4.469  12.710  1.7710 -0.0495  1.0524
14487TIP3    H264877   1.918   4.332  12.773 -0.0522 -0.0997  0.6589
14488TIP3   OH264878   6.385   6.554  15.229  0.9137 -0.1142 -0.2377
14488TIP3    H164879   6.440   6.551  15.307  0.7615 -1.2287 -0.1501
14488TIP3    H264880   6.329   6.631  15.242 -1.3867 -1.9834  2.3702
14489TIP3   OH264881   6.297   5.690   1.099  0.1802 -0.1684 -0.0189
14489TIP3    H164882   6.226   5.692   1.035  0.7308 -1.2540 -0.7007
14489TIP3    H264883   6.285   5.607   1.146  0.1742  0.3057  0.8264
14490TIP3   OH264884   5.981   0.438   4.666 -0.1688  0.1585 -0.0151
14490TIP3    H164885   5.903   0.399   4.626 -1.5273  3.7363 -1.2860
14490TIP3    H264886   5.983   0.402   4.755 -2.0399 -1.6149 -0.6166
14491TIP3   OH264887   4.805   1.906   4.811  0.5372  0.4016 -0.4234
14491TIP3    H164888   4.825   1.990   4.770  0.1022  0.4363 -0.5712
14491TIP3    H264889   4.713   1.913   4.837  0.5833  0.0835 -0.1617
14492TIP3   OH264890   6.955   0.198   3.555  0.1597  0.2293 -0.1572
14492TIP3    H164891   7.038   0.233   3.522 -0.0943  0.6256 -0.3831
14492TIP3    H264892   6.889   0.235   3.496 -0.2774  0.7689  0.6614
14493TIP3   OH264893   5.092   4.802   2.826  0.1003  0.1331  0.2121
14493TIP3    H164894   5.158   4.779   2.760  0.9725 -2.3510  1.8045
14493TIP3    H264895   5.094   4.729   2.888 -3.6453  0.2944  0.7661
14494TIP3   OH264896   1.848   6.212   5.500  0.3240 -0.7493  0.1691
14494TIP3    H164897   1.787   6.167   5.560 -0.0737 -0.1277  0.2421
14494TIP3    H264898   1.927   6.225   5.552 -0.0504 -0.1352  0.5956
14495TIP3   OH264899   5.579   4.451  14.781  0.2024  0.0120  0.0960
14495TIP3    H164900   5.632   4.393  14.836 -1.4030 -1.0561  0.5813
14495TIP3    H264901   5.608   4.539  14.805  0.8407 -0.4988  1.2931
14496TIP3   OH264902   5.423   1.005   2.149 -0.3834  0.4069  0.0204
14496TIP3    H164903   5.336   0.967   2.159  0.0970 -0.5239  0.9375
14496TIP3    H264904   5.453   0.975   2.063 -1.1725  1.2051 -0.5474
14497TIP3   OH264905   5.333   3.343  15.198 -0.3469  0.1738 -0.2564
14497TIP3    H164906   5.381   3.290  15.261 -1.0157 -0.5817 -0.3754
14497TIP3    H264907   5.401   3.387  15.147  0.2064 -0.4267 -0.0419
14498TIP3   OH264908   6.716   1.610   0.261 -0.0689 -0.1691 -0.2372
14498TIP3    H164909   6.812   1.609   0.261 -0.0637 -1.1760 -1.0158
14498TIP3    H264910   6.691   1.584   0.172 -1.0538 -0.8562  0.2182
14499TIP3   OH264911   2.363   3.836   6.062 -0.2256  0.2477 -0.2871
14499TIP3    H164912   2.287   3.852   6.006 -0.7948  0.6376  0.5795
14499TIP3    H264913   2.384   3.744   6.048 -1.5480 -0.1623  0.2846
14500TIP3   OH264914   7.024   0.870   3.259  0.0629  0.0498 -0.0798
14500TIP3    H164915   7.036   0.782   3.294  1.4494  0.8780  1.6878
14500TIP3    H264916   6.929   0.885   3.263 -0.1046 -1.0645  0.3226
14501TIP3   OH264917   3.485   3.483  14.860  0.7008 -0.6350 -0.0724
14501TIP3    H164918   3.489   3.552  14.795  0.3981 -0.4194  0.1336
14501TIP3    H264919   3.435   3.413  14.818  1.7994 -1.1118 -0.6219
14502TIP3   OH264920   3.321   4.599   2.796 -0.3279  0.2833  0.5955
14502TIP3    H164921   3.369   4.571   2.874 -0.0620  1.9810  1.0936
14502TIP3    H264922   3.385   4.645   2.742 -1.3026  2.6569  1.3107
14503TIP3   OH264923   5.142   0.669   0.548 -0.1555  0.6995 -0.3138
14503TIP3    H164924   5.199   0.593   0.535  0.5775  1.2491 -0.4025
14503TIP3    H264925   5.053   0.633   0.545  0.1482 -0.0421 -1.1367
14504TIP3   OH264926   0.888   1.698  12.427  0.1353  0.2970  0.3642
14504TIP3    H164927   0.918   1.778  12.472  3.2583 -0.8585  0.6137
14504TIP3    H264928   0.883   1.632  12.496 -3.0597  0.3152  0.2768
14505TIP3   OH264929   2.082   4.957   3.452  0.0454 -0.4787  0.1216
14505TIP3    H164930   2.044   4.871   3.471 -0.9030  0.0613  0.7323
14505TIP3    H264931   2.174   4.948   3.476 -0.3839 -0.8569  1.7429
14506TIP3   OH264932   1.975   7.069   2.662  0.5704  0.0712 -0.5846
14506TIP3    H164933   1.895   7.022   2.639  0.6031 -1.4980  2.0717
14506TIP3    H264934   1.947   7.159   2.678 -0.8661 -0.6136  1.0397
14507TIP3   OH264935   1.927   0.880  12.595  0.5654  0.2231  0.1106
14507TIP3    H164936   1.898   0.807  12.540  2.0335 -0.5121  0.2802
14507TIP3    H264937   1.991   0.927  12.541 -0.4606  1.5117 -0.0511
14508TIP3   OH264938   6.833   5.231   2.923  0.1174 -0.5845  0.1039
14508TIP3    H164939   6.928   5.229   2.937  0.3342 -0.7805 -1.2325
14508TIP3    H264940   6.811   5.143   2.894 -0.5808 -0.6991  0.9649
14509TIP3   OH264941   5.726   4.254  13.991 -0.1412 -0.5678 -0.2461
14509TIP3    H164942   5.768   4.304  14.061 -1.3268 -0.9432  0.7670
14509TIP3    H264943   5.734   4.163  14.018  1.4022 -0.9381 -1.7514
14510TIP3   OH264944   5.438   3.926   5.038 -0.3265  0.4653 -0.3215
14510TIP3    H164945   5.405   3.998   5.091 -1.0351  1.7694 -2.4296
14510TIP3    H264946   5.528   3.952   5.016  0.4710 -0.7324  1.2966
14511TIP3   OH264947   1.338   4.681   0.048 -0.8516 -0.2506 -0.0153
14511TIP3    H164948   1.338   4.662   0.142 -1.4701 -0.0746  0.0268
14511TIP3    H264949   1.427   4.711   0.030 -0.6883 -0.4064  0.4858
14512TIP3   OH264950   5.778   4.959  11.736 -0.1642 -0.3073 -0.0393
14512TIP3    H164951   5.706   4.907  11.770 -0.1780 -0.1665  0.1479
14512TIP3    H264952   5.759   5.049  11.765 -1.5098  0.3027 -2.5125
14513TIP3   OH264953   6.784   3.892   5.264  0.1500 -0.0918  0.4059
14513TIP3    H164954   6.870   3.930   5.249  0.4470 -1.1516 -0.7566
14513TIP3    H264955   6.797   3.828   5.334 -0.1107  1.0441  1.5384
14514TIP3   OH264956   3.181   3.199  10.565  0.1617 -0.5122 -0.0951
14514TIP3    H164957   3.170   3.255  10.488 -0.5914 -0.8451 -0.2463
14514TIP3    H264958   3.219   3.256  10.631  0.4738 -0.1225 -0.5970
14515TIP3   OH264959   0.865   3.901   4.625 -0.0353 -0.4017  0.0022
14515TIP3    H164960   0.854   3.981   4.675  0.4333 -1.9446  2.7688
14515TIP3    H264961   0.959   3.899   4.603 -0.0429 -0.1992 -0.0449
14516TIP3   OH264962   3.423   3.523   2.505 -0.4785 -0.0657 -0.1544
14516TIP3    H164963   3.424   3.444   2.450  0.4744 -0.7820  0.8283
14516TIP3    H264964   3.500   3.513   2.561 -0.6900  1.2835  0.4041
14517TIP3   OH264965   5.041   1.263  14.706 -0.2542  0.1044  0.0093
14517TIP3    H164966   4.974   1.259  14.637 -1.0691  2.1848  0.6173
14517TIP3    H264967   5.097   1.336  14.681  2.4570 -2.1208 -0.9636
14518TIP3   OH264968   4.848   5.475  13.780  0.0946  0.0751  0.0382
14518TIP3    H164969   4.841   5.380  13.784  0.1889  0.0914  0.7945
14518TIP3    H264970   4.781   5.507  13.841  0.5662  0.4625  0.3724
14519TIP3   OH264971   0.675   6.388  11.714 -0.2789  0.5781 -0.2332
14519TIP3    H164972   0.586   6.409  11.687 -0.4174  0.5058  0.1691
14519TIP3    H264973   0.689   6.441  11.792 -0.1675  0.1566  0.0297
14520TIP3   OH264974   5.968   3.784  12.164 -0.4883  0.1153 -0.5759
14520TIP3    H164975   5.917   3.859  12.133 -0.0705  0.6067 -0.0983
14520TIP3    H264976   6.054   3.796  12.126 -0.3023  0.1018 -0.1660
14521TIP3   OH264977   2.212   5.225   2.926 -0.3315  0.1808  0.1009
14521TIP3    H164978   2.247   5.310   2.900  0.0656  0.4271  1.3485
14521TIP3    H264979   2.134   5.247   2.977 -0.9464 -0.2677 -0.6205
14522TIP3   OH264980   1.512   5.909   4.626  0.6147 -0.0955 -0.2619
14522TIP3    H164981   1.488   5.891   4.535  0.6130  1.1072 -0.5113
14522TIP3    H264982   1.437   5.956   4.661 -0.2627 -2.2603  0.9799
14523TIP3   OH264983   3.657   5.453   4.969 -0.3671  0.5440  0.1856
14523TIP3    H164984   3.657   5.549   4.971  0.5630  0.5553  0.4785
14523TIP3    H264985   3.724   5.431   4.904 -0.6798  0.0872  0.0143
14524TIP3   OH264986   5.090   1.993   1.541  0.8564 -0.7599 -0.0774
14524TIP3    H164987   5.078   1.973   1.448  0.8918 -2.4528  0.2545
14524TIP3    H264988   5.172   2.041   1.545  0.4179  0.1059 -1.0035
14525TIP3   OH264989   7.100   0.208   4.547  0.1756 -0.0132  0.2278
14525TIP3    H164990   7.103   0.303   4.560  0.8542 -0.2313  1.9642
14525TIP3    H264991   7.178   0.175   4.592  0.2073 -1.3677 -0.7443
14526TIP3   OH264992   1.209   1.810   4.117  0.3854  0.7075 -0.2414
14526TIP3    H164993   1.225   1.905   4.119  0.6670  0.6501  0.5321
14526TIP3    H264994   1.118   1.802   4.088  0.0145  1.2684  0.6991
14527TIP3   OH264995   3.566   7.051  15.399  0.1183 -0.7790  0.7618
14527TIP3    H164996   3.607   7.012  15.322  0.3078  0.2657  0.3141
14527TIP3    H264997   3.639   7.069  15.459  0.1719 -0.0584  0.4839
14528TIP3   OH264998   3.310   5.526   2.307 -0.1300 -0.0499  0.0429
14528TIP3    H164999   3.321   5.488   2.220  1.0886  0.1569  0.0872
14528TIP3    H265000   3.216   5.540   2.316 -0.2630 -0.0590 -1.2465
14529TIP3   OH265001   5.393   5.142  14.429 -0.0457 -1.0163  0.8109
14529TIP3    H165002   5.411   5.226  14.471  1.1051 -0.2365 -1.1152
14529TIP3    H265003   5.479   5.104  14.412 -0.4913 -1.7076  0.0059
14530TIP3   OH265004   4.751   4.170   3.651  0.2388  1.2833 -0.2898
14530TIP3    H165005   4.766   4.076   3.647 -1.1158  1.0409  0.0063
14530TIP3    H265006   4.736   4.196   3.561  0.6192  1.2208 -0.3725
14531TIP3   OH265007   0.042   6.718   3.678 -0.4555  0.4544 -0.2559
14531TIP3    H165008   0.085   6.724   3.592 -1.8697 -0.0891 -1.0299
14531TIP3    H265009   0.043   6.808   3.711 -0.8219  0.8615 -1.3203
14532TIP3   OH265010   4.534   3.607   0.825  0.0593 -0.2531  0.4866
14532TIP3    H165011   4.583   3.683   0.856  0.5225 -0.4458  0.2342
14532TIP3    H265012   4.584   3.531   0.855 -1.1891 -0.5119  2.0635
14533TIP3   OH265013   3.289   1.821   3.015  0.0827  0.1492  0.3006
14533TIP3    H165014   3.226   1.840   3.085 -1.3413 -1.4787 -0.4804
14533TIP3    H265015   3.329   1.906   2.996 -0.1092  0.8002  2.4728
14534TIP3   OH265016   2.921   5.452   0.868 -0.3903 -0.3156  0.0107
14534TIP3    H165017   2.891   5.475   0.780  3.1847  0.7803 -1.1044
14534TIP3    H265018   2.891   5.362   0.882 -2.1963 -0.0395 -1.6989
14535TIP3   OH265019   2.128   0.308  10.481  0.8933  0.5382  0.0957
14535TIP3    H165020   2.098   0.382  10.534 -0.4217 -0.0978  0.2955
14535TIP3    H265021   2.087   0.321  10.396 -0.6661 -0.7271  0.5915
14536TIP3   OH265022   0.206   6.655   3.147  0.0219 -0.2677 -0.1022
14536TIP3    H165023   0.278   6.661   3.085  2.4485  2.0687  2.6269
14536TIP3    H265024   0.241   6.601   3.218 -1.8929 -1.1348  0.2346
14537TIP3   OH265025   0.402   6.571   3.800  0.7242  0.2329  0.2555
14537TIP3    H165026   0.411   6.631   3.726 -0.0721 -1.0362 -0.9255
14537TIP3    H265027   0.484   6.521   3.800 -0.1614 -1.2928 -1.2211
14538TIP3   OH265028   2.471   6.207  10.072  0.1237  0.1081  0.0948
14538TIP3    H165029   2.375   6.214  10.068  0.1439 -0.1625 -1.1797
14538TIP3    H265030   2.502   6.294  10.050  0.1844  0.2360  0.6597
14539TIP3   OH265031   6.837   7.083   4.739  0.2498 -0.4852 -0.1822
14539TIP3    H165032   6.896   7.021   4.696  2.0130  1.0160 -0.0271
14539TIP3    H265033   6.856   7.074   4.832 -0.1730 -0.3797 -0.0837
14540TIP3   OH265034   3.563   2.108   1.751 -0.5664  0.3207  0.4222
14540TIP3    H165035   3.478   2.148   1.731 -1.3129 -0.6508  1.4534
14540TIP3    H265036   3.612   2.176   1.797 -1.3073  0.4942  0.9833
14541TIP3   OH265037   2.643   4.903  15.132  0.1078  0.0329 -0.1014
14541TIP3    H165038   2.612   4.992  15.149 -1.6796 -0.5504 -0.1833
14541TIP3    H265039   2.726   4.915  15.085  0.1352  1.6420  0.3114
14542TIP3   OH265040   4.585   5.538   3.736 -0.1141 -0.2746  0.6755
14542TIP3    H165041   4.520   5.468   3.744 -0.7848  0.4594  2.0599
14542TIP3    H265042   4.542   5.615   3.773  1.3516  0.3658  1.1460
14543TIP3   OH265043   2.739   4.543  15.412  0.8783  0.5889 -0.2246
14543TIP3    H165044   2.665   4.483  15.401  2.6207 -1.5664 -0.8242
14543TIP3    H265045   2.744   4.557  15.507  0.7822 -0.7494  0.0077
14544TIP3   OH265046   5.318   5.436  14.220 -0.0784 -1.2427 -0.4409
14544TIP3    H165047   5.371   5.476  14.289  1.3139 -2.6924 -0.6063
14544TIP3    H265048   5.243   5.399  14.266  0.2258 -1.1702  0.1210
14545TIP3   OH265049   2.859   0.855   3.193 -0.2046  0.3505  0.4068
14545TIP3    H165050   2.883   0.946   3.175  0.4581  0.0338 -0.3654
14545TIP3    H265051   2.937   0.805   3.169 -0.5759 -0.4254  0.8053
14546TIP3   OH265052   6.835   3.180  13.231 -0.8899  0.0932  0.1328
14546TIP3    H165053   6.911   3.121  13.226  0.3971  1.6725  0.0647
14546TIP3    H265054   6.784   3.161  13.152  0.9422  0.8775 -1.3305
14547TIP3   OH265055   5.024   2.293   4.895  0.2314  0.1093 -0.3728
14547TIP3    H165056   5.070   2.353   4.836 -0.2039 -0.9330 -1.8292
14547TIP3    H265057   4.969   2.349   4.949  0.2580  1.0607 -1.3074
14548TIP3   OH265058   3.235   1.794   5.290 -0.1931  0.8091 -0.6310
14548TIP3    H165059   3.264   1.876   5.330  0.1095  0.1171  0.5968
14548TIP3    H265060   3.192   1.746   5.361 -0.1166 -0.2175 -1.2628
14549TIP3   OH265061   2.083   2.836  13.144  0.6664  0.4209  0.2355
14549TIP3    H165062   2.059   2.888  13.068  0.2552  0.7230  0.5669
14549TIP3    H265063   2.041   2.880  13.218 -0.3232 -0.7847  0.4351
14550TIP3   OH265064   4.966   1.486   3.393 -0.1868  0.1129 -1.0279
14550TIP3    H165065   4.994   1.576   3.378 -0.4967  0.3570 -0.1887
14550TIP3    H265066   4.913   1.465   3.316 -1.3084  1.1572 -0.5821
14551TIP3   OH265067   3.760   1.272   4.089  0.1743  0.1127 -0.4768
14551TIP3    H165068   3.790   1.293   4.178 -0.9278  1.1284 -0.3233
14551TIP3    H265069   3.836   1.230   4.048  1.2135  1.0111  0.4445
14552TIP3   OH265070   5.832   4.136   2.060  0.6892  0.2300  0.2381
14552TIP3    H165071   5.921   4.105   2.044  0.1588  0.0676 -3.0291
14552TIP3    H265072   5.825   4.140   2.155  3.8217 -0.7437  0.6239
14553TIP3   OH265073   2.587   0.599  13.936  0.0553 -0.7673  0.5954
14553TIP3    H165074   2.588   0.664  13.866  3.8567 -0.3267  0.8246
14553TIP3    H265075   2.599   0.515  13.892 -1.5276 -0.9937  0.5330
14554TIP3   OH265076   3.778   6.291   0.236  0.0384  0.0331 -0.2605
14554TIP3    H165077   3.858   6.276   0.286 -0.2739  1.7967  0.8326
14554TIP3    H265078   3.809   6.316   0.149  0.5894 -2.3534 -0.8264
14555TIP3   OH265079   2.597   3.521   1.896 -0.2961 -0.0668 -0.6007
14555TIP3    H165080   2.568   3.612   1.901 -0.5258 -0.1135 -1.0668
14555TIP3    H265081   2.613   3.506   1.803  4.0895  0.8432 -0.2115
14556TIP3   OH265082   4.044   6.040   5.947 -0.0098  0.2820 -0.1038
14556TIP3    H165083   4.048   6.091   5.866 -0.6854 -0.5691 -0.6856
14556TIP3    H265084   4.124   5.987   5.946  0.0469  0.3688 -0.1487
14557TIP3   OH265085   4.965   4.832   4.012 -0.4228  0.1930  0.8603
14557TIP3    H165086   4.934   4.741   4.015 -1.8604  0.6754  2.4372
14557TIP3    H265087   4.885   4.884   4.000  0.4437  1.2340 -0.5835
14558TIP3   OH265088   5.524   5.454   6.533  0.2842 -0.3566  0.4624
14558TIP3    H165089   5.511   5.546   6.512 -1.4607 -1.0832 -2.0227
14558TIP3    H265090   5.436   5.421   6.553  0.3158 -2.1182 -1.8528
14559TIP3   OH265091   4.497   6.666   5.621 -0.0889 -0.7707 -0.0283
14559TIP3    H165092   4.560   6.731   5.651 -0.9186  0.3236 -0.6159
14559TIP3    H265093   4.416   6.686   5.668 -0.8468 -0.2641 -1.4846
14560TIP3   OH265094   1.612   1.829   0.448 -0.1847  0.0313 -0.4921
14560TIP3    H165095   1.554   1.758   0.423  0.3390 -0.8498  0.6926
14560TIP3    H265096   1.695   1.786   0.469  1.2978  1.3325 -3.1408
14561TIP3   OH265097   4.579   0.497   2.689 -0.2047 -0.2988  0.0561
14561TIP3    H165098   4.544   0.560   2.752  0.2888  0.8857 -0.8198
14561TIP3    H265099   4.530   0.515   2.609  2.5961  1.7439 -1.3674
14562TIP3   OH265100   2.795   4.116  10.444  0.8463  0.1226 -0.1916
14562TIP3    H165101   2.723   4.140  10.386  0.0404 -0.4769  0.5313
14562TIP3    H265102   2.754   4.060  10.511  1.9799 -0.2159  0.2387
14563TIP3   OH265103   5.500   2.650   2.131 -0.1175  0.9573  0.0008
14563TIP3    H165104   5.541   2.669   2.047  2.8775 -1.7342  0.6560
14563TIP3    H265105   5.451   2.569   2.116  2.4120 -0.9361  1.2190
14564TIP3   OH265106   6.254   1.265   2.977 -0.5594  0.0719 -0.4270
14564TIP3    H165107   6.283   1.180   2.944 -0.8966  0.1444 -0.9175
14564TIP3    H265108   6.332   1.302   3.019  0.0089  0.1577 -1.5019
14565TIP3   OH265109   2.110   3.650  13.478 -0.1111 -0.5563 -1.0707
14565TIP3    H165110   2.141   3.657  13.568 -0.3466  1.9840 -1.1023
14565TIP3    H265111   2.140   3.564  13.448 -0.5723 -1.7408  1.5989
14566TIP3   OH265112   1.023   0.414   2.513  1.0676 -0.8209  0.1927
14566TIP3    H165113   1.096   0.364   2.550  1.8585  0.2928  0.1980
14566TIP3    H265114   1.064   0.493   2.478 -0.1845 -0.0461  0.4380
14567TIP3   OH265115   1.102   2.100   5.656  0.3957  0.1248 -0.0480
14567TIP3    H165116   1.106   2.184   5.610  0.3500  0.9477  1.3843
14567TIP3    H265117   1.129   2.035   5.591  1.6201  1.3801 -0.8349
14568TIP3   OH265118   0.943   3.512  14.785  0.5669 -0.1651 -0.1479
14568TIP3    H165119   0.979   3.425  14.769 -1.8703 -1.6731  1.7918
14568TIP3    H265120   0.910   3.541  14.700  1.6732 -0.9687 -0.8736
14569TIP3   OH265121   1.675   3.921  11.547  0.3707 -0.0705  0.0994
14569TIP3    H165122   1.642   4.009  11.529 -3.9720 -1.5593 -0.5841
14569TIP3    H265123   1.685   3.918  11.642 -1.0168  0.7821  0.3106
14570TIP3   OH265124   3.490   6.579   1.572  0.0189  1.2759  0.6281
14570TIP3    H165125   3.476   6.622   1.656 -0.6170  0.6675  0.8414
14570TIP3    H265126   3.524   6.649   1.515  0.5620  1.6693  1.4038
14571TIP3   OH265127   6.380   6.835   5.031 -0.0795  0.8262 -0.3239
14571TIP3    H165128   6.308   6.812   5.090 -0.1869 -1.4755 -1.2703
14571TIP3    H265129   6.440   6.886   5.086 -1.0795  0.3880  1.2426
14572TIP3   OH265130   5.816   0.816  15.335  0.5290 -0.0247  0.3975
14572TIP3    H165131   5.744   0.784  15.280  0.2344 -0.8532  1.2344
14572TIP3    H265132   5.894   0.778  15.296  0.3448 -0.4153  0.3980
14573TIP3   OH265133   4.701   4.214   4.559  0.0716 -0.0323 -0.1683
14573TIP3    H165134   4.678   4.186   4.647 -3.0469  2.3703 -0.0338
14573TIP3    H265135   4.796   4.222   4.559  0.0760  1.2137  3.4046
14574TIP3   OH265136   6.044   1.651  15.649 -0.0427  0.1110  0.8528
14574TIP3    H165137   5.969   1.601  15.617 -0.7201  0.9678  1.0463
14574TIP3    H265138   6.086   1.593  15.712  0.6688 -1.1815 -0.7350
14575TIP3   OH265139   3.534   5.378  13.387 -0.9877  0.0771 -0.0820
14575TIP3    H165140   3.623   5.375  13.352 -0.6118  0.3613  0.8312
14575TIP3    H265141   3.490   5.304  13.345 -0.2827 -0.1513 -0.4398
14576TIP3   OH265142   7.043   6.722   0.938  0.3123 -0.1306  0.0244
14576TIP3    H165143   7.057   6.684   1.025 -2.7228 -0.9347  0.2472
14576TIP3    H265144   7.067   6.814   0.948  1.1720 -0.4693  1.3639
14577TIP3   OH265145   5.509   3.364   3.523 -0.1003 -0.5426  0.0656
14577TIP3    H165146   5.490   3.275   3.553  0.2990 -0.6788 -0.0734
14577TIP3    H265147   5.605   3.370   3.526 -0.1417  0.0439  0.5348
14578TIP3   OH265148   1.352   4.486   4.175  0.4953  0.2285 -0.0172
14578TIP3    H165149   1.367   4.401   4.134 -1.2121  0.0159 -0.2557
14578TIP3    H265150   1.420   4.492   4.242 -0.5010 -2.2198  1.3438
14579TIP3   OH265151   3.590   3.801   3.840  0.0092 -0.1442  0.0045
14579TIP3    H165152   3.640   3.811   3.921  0.1298  0.5791 -0.1501
14579TIP3    H265153   3.505   3.767   3.868 -0.2474  0.8928  0.5354
14580TIP3   OH265154   1.603   0.184   4.624  0.2023 -0.4461  0.3768
14580TIP3    H165155   1.697   0.199   4.634  0.1043  0.3262  0.1766
14580TIP3    H265156   1.593   0.089   4.627  0.9625 -0.5189  0.6341
14581TIP3   OH265157   2.113   2.936  14.969  0.5750  0.0255  0.2198
14581TIP3    H165158   2.032   2.948  15.020 -0.8626  0.3712 -1.9858
14581TIP3    H265159   2.135   2.844  14.980 -0.5123 -0.2354  0.3321
14582TIP3   OH265160   6.077   0.433   0.867  0.2385 -0.4160  0.1653
14582TIP3    H165161   6.140   0.366   0.895 -0.9048 -1.9268 -0.6970
14582TIP3    H265162   5.999   0.383   0.842 -0.6751  1.2626 -0.4885
14583TIP3   OH265163   6.069   3.609   3.329  0.1879 -0.3852 -0.3108
14583TIP3    H165164   6.066   3.680   3.393  0.2221 -1.3001  0.7281
14583TIP3    H265165   6.047   3.651   3.246 -2.8336  0.2959  0.7217
14584TIP3   OH265166   1.785   6.296  10.818 -0.0703  0.1130 -0.1768
14584TIP3    H165167   1.813   6.209  10.790  0.1028  0.3983 -0.9059
14584TIP3    H265168   1.782   6.290  10.913 -1.1117 -1.0236 -0.2416
14585TIP3   OH265169   3.265   6.314   1.687  0.5094  0.1056  0.4253
14585TIP3    H165170   3.245   6.357   1.604  0.5055 -1.1820 -0.2699
14585TIP3    H265171   3.310   6.233   1.662  0.0450 -0.5619  1.6511
14586TIP3   OH265172   5.227   6.470   1.737 -0.0360  0.2618 -0.1750
14586TIP3    H165173   5.170   6.431   1.803  0.4258 -2.7035 -1.3825
14586TIP3    H265174   5.288   6.400   1.713  1.1476  1.8804 -2.2733
14587TIP3   OH265175   0.419   1.857   4.156  0.5276  0.0252 -0.0077
14587TIP3    H165176   0.405   1.814   4.071  1.7592  1.2497 -0.8757
14587TIP3    H265177   0.342   1.835   4.207  1.4702 -4.1434  0.0353
14588TIP3   OH265178   4.664   4.450   3.143 -0.3863 -0.0753  0.5106
14588TIP3    H165179   4.744   4.455   3.091 -0.3526  1.1207  0.6593
14588TIP3    H265180   4.618   4.373   3.109  0.1114  0.1015 -0.5916
14589TIP3   OH265181   0.151   2.495  12.498 -0.3084 -0.0100  0.2245
14589TIP3    H165182   0.123   2.556  12.430 -0.0940 -1.2985 -1.0795
14589TIP3    H265183   0.101   2.415  12.480  1.5173 -1.1763  0.0445
14590TIP3   OH265184   2.258   3.161  15.053  0.1791 -0.0760  0.1665
14590TIP3    H165185   2.189   3.224  15.037  0.3478 -0.2126 -1.2467
14590TIP3    H265186   2.223   3.078  15.021  0.6125 -0.3434  0.3760
14591TIP3   OH265187   2.063   6.276   4.085  0.0720 -0.5806 -0.3394
14591TIP3    H165188   2.037   6.217   4.014  1.9565 -1.4764 -0.3707
14591TIP3    H265189   2.064   6.363   4.046 -1.6061 -0.6590 -0.6210
14592TIP3   OH265190   4.615   4.244   0.656  0.2252 -0.1334 -0.5138
14592TIP3    H165191   4.612   4.218   0.748 -1.1634  1.0547 -0.1832
14592TIP3    H265192   4.581   4.168   0.608  1.2082 -0.8575 -0.1002
14593TIP3   OH265193   6.268   0.643   4.175 -0.1106 -0.2040  0.3747
14593TIP3    H165194   6.200   0.598   4.125  0.2483 -0.0987 -0.2165
14593TIP3    H265195   6.337   0.662   4.111  0.0618  0.5374  0.7655
14594TIP3   OH265196   0.630   6.836   1.553  0.2288  0.2510 -0.0979
14594TIP3    H165197   0.536   6.837   1.569  0.3713 -1.1595  0.9723
14594TIP3    H265198   0.656   6.929   1.555 -1.4491  0.8594 -2.6542
14595TIP3   OH265199   2.313   5.743   3.189 -0.3496  0.5452  0.3872
14595TIP3    H165200   2.237   5.702   3.228 -0.1083 -0.9299 -0.6127
14595TIP3    H265201   2.310   5.834   3.219 -1.0023 -0.1372  2.5081
14596TIP3   OH265202   4.652   0.820   3.495 -0.1535  0.3428  0.3392
14596TIP3    H165203   4.731   0.811   3.442 -0.5933 -0.5417 -0.1795
14596TIP3    H265204   4.620   0.908   3.475  0.9294  0.8794  0.8887
14597TIP3   OH265205   1.955   2.621   2.757 -0.0247 -0.4529 -0.4089
14597TIP3    H165206   1.875   2.568   2.760 -1.6138  1.8022 -0.3101
14597TIP3    H265207   2.026   2.557   2.753 -1.7005 -2.6123  1.5680
14598TIP3   OH265208   5.711   6.971   4.252  0.0236 -0.1927 -0.2698
14598TIP3    H165209   5.642   6.994   4.314 -1.9187 -0.1636 -2.2854
14598TIP3    H265210   5.746   6.888   4.284  0.7352  0.9360  2.0794
14599TIP3   OH265211   6.768   5.820   3.196 -0.1988  0.0618  0.0107
14599TIP3    H165212   6.826   5.802   3.270 -0.0784 -0.4269 -0.1938
14599TIP3    H265213   6.695   5.870   3.233  0.3467  0.6801  0.2728
14600TIP3   OH265214   1.008   1.484  13.679 -0.0352 -0.0813 -0.0852
14600TIP3    H165215   1.045   1.568  13.651  0.6359 -0.1384  0.5740
14600TIP3    H265216   0.965   1.449  13.601 -0.4864  0.9571 -0.3141
14601TIP3   OH265217   0.245   2.931   0.946 -0.0708 -0.1564 -0.4201
14601TIP3    H165218   0.306   2.978   1.002 -3.0978  1.1947  2.0088
14601TIP3    H265219   0.170   2.989   0.938 -1.1204 -1.7126 -3.3035
14602TIP3   OH265220   0.072   2.477  13.373 -0.2453 -0.1293  0.2856
14602TIP3    H165221   0.057   2.566  13.340 -0.0643 -0.0784  0.3413
14602TIP3    H265222   0.063   2.421  13.296 -0.5869 -0.0886  0.2902
14603TIP3   OH265223   2.624   2.559   2.199  0.5587  0.7664 -0.4395
14603TIP3    H165224   2.577   2.638   2.224 -1.3192  0.1157 -1.7342
14603TIP3    H265225   2.563   2.511   2.143  2.2591 -0.8156 -1.0328
14604TIP3   OH265226   2.538   3.234   4.534 -0.2515 -0.1662  0.0662
14604TIP3    H165227   2.469   3.267   4.591  0.3013  0.7159  0.2414
14604TIP3    H265228   2.501   3.154   4.496 -1.3555  0.2658  0.1829
14605TIP3   OH265229   0.520   3.360   0.954  0.7363 -0.4129  0.2428
14605TIP3    H165230   0.561   3.428   0.900  0.2750 -0.5750 -0.3301
14605TIP3    H265231   0.449   3.405   1.000  1.1315 -0.2740  0.7227
14606TIP3   OH265232   3.533   6.211   4.591 -0.3866 -0.2533  0.0130
14606TIP3    H165233   3.480   6.142   4.631 -1.6429 -0.4968 -1.9411
14606TIP3    H265234   3.528   6.284   4.652 -0.8238 -1.1678  1.0927
14607TIP3   OH265235   2.607   0.154   1.931  0.4825  0.0887  0.0976
14607TIP3    H165236   2.623   0.090   2.001 -0.1147 -0.1527  0.0135
14607TIP3    H265237   2.669   0.129   1.862  1.3052  0.5251  0.6565
14608TIP3   OH265238   2.239   4.760  13.182  0.4983  0.1471  0.7016
14608TIP3    H165239   2.224   4.690  13.119 -0.2445  1.5319 -0.7588
14608TIP3    H265240   2.311   4.730  13.236  2.1837 -0.5475 -1.7599
14609TIP3   OH265241   6.645   3.995   1.086 -0.0541 -0.1912 -0.2922
14609TIP3    H165242   6.587   4.024   1.157  0.7971  0.1427  0.2810
14609TIP3    H265243   6.670   3.906   1.110 -0.0098 -0.1909 -0.3377
14610TIP3   OH265244   4.424   1.107   4.565  0.0830 -0.1436  0.4294
14610TIP3    H165245   4.477   1.127   4.642  0.8976 -2.6980  0.6437
14610TIP3    H265246   4.346   1.064   4.600 -1.0036  1.3744 -0.0358
14611TIP3   OH265247   4.209   4.817  13.925  0.4181  0.4151  0.3945
14611TIP3    H165248   4.144   4.759  13.964  1.7606 -2.1462 -0.9197
14611TIP3    H265249   4.256   4.854  14.000  0.3034 -1.1632  1.2936
14612TIP3   OH265250   2.275   1.859   1.792  0.2878  0.0818  0.5527
14612TIP3    H165251   2.265   1.937   1.737  0.9380 -0.2214 -0.0034
14612TIP3    H265252   2.363   1.865   1.828  0.2514 -0.2700  0.7105
14613TIP3   OH265253   6.971   1.279   0.776  0.3166 -0.4308 -0.3049
14613TIP3    H165254   7.061   1.253   0.796  0.9247  1.4594 -0.3877
14613TIP3    H265255   6.964   1.369   0.808 -1.5240 -0.5026 -0.3887
14614TIP3   OH265256   5.505   3.352   2.053 -0.7053 -0.4488  0.8925
14614TIP3    H165257   5.429   3.299   2.028 -0.9191  0.2514  0.0348
14614TIP3    H265258   5.493   3.435   2.008 -0.4493  0.4112  2.3423
14615TIP3   OH265259   0.094   4.175   4.775  0.3118 -0.7677  0.0517
14615TIP3    H165260   0.152   4.243   4.741  0.0308 -0.4598  0.1941
14615TIP3    H265261   0.043   4.146   4.699 -0.1291 -0.2652  0.1516
14616TIP3   OH265262   3.275   2.020   1.069  0.6234 -0.3205  0.4979
14616TIP3    H165263   3.284   2.110   1.101  1.5384  0.1079 -0.9205
14616TIP3    H265264   3.354   1.976   1.100 -0.4737 -1.0757  2.4270
14617TIP3   OH265265   6.444   1.463   3.972  0.0859  0.0794  0.2185
14617TIP3    H165266   6.360   1.509   3.970 -0.7992 -1.4566 -0.4918
14617TIP3    H265267   6.420   1.370   3.974  1.7183 -0.4746 -1.6881
14618TIP3   OH265268   2.455   4.494   4.960  0.2352 -0.5544 -0.0506
14618TIP3    H165269   2.412   4.432   5.017  0.2957 -1.4269 -0.9291
14618TIP3    H265270   2.411   4.485   4.876 -0.6197  1.5229  0.1151
14619TIP3   OH265271   7.092   1.246  14.712 -0.0577  0.0417  0.1258
14619TIP3    H165272   7.170   1.257  14.658  0.9265 -2.3814  0.8931
14619TIP3    H265273   7.125   1.245  14.802 -0.6492 -2.5152  0.4079
14620TIP3   OH265274   0.785   0.008   5.752  0.9805  0.2288 -0.0480
14620TIP3    H165275   0.844   0.032   5.824 -0.0810  1.2656  0.5047
14620TIP3    H265276   0.809  -0.083   5.731  2.4668  0.4869  0.4420
14621TIP3   OH265277   5.552   1.568   2.375  0.1682  0.4556 -0.1782
14621TIP3    H165278   5.568   1.510   2.449 -1.8060  0.6285  0.4552
14621TIP3    H265279   5.509   1.514   2.309  1.1306  0.5041 -0.8644
14622TIP3   OH265280   2.790   1.266  13.054 -0.5914  0.3274 -0.1770
14622TIP3    H165281   2.780   1.179  13.016 -2.3911  0.7484 -0.7141
14622TIP3    H265282   2.759   1.256  13.144  0.8479  0.0390  0.3179
14623TIP3   OH265283   2.193   5.620  13.080  0.8630 -0.4288  0.0533
14623TIP3    H165284   2.203   5.562  13.156  0.5489  0.4555  0.7844
14623TIP3    H265285   2.118   5.584  13.032  1.7720 -1.6793 -0.4997
14624TIP3   OH265286   4.690   4.226   2.901  1.1416 -0.0671 -0.1151
14624TIP3    H165287   4.752   4.294   2.929 -0.0244  0.5701  1.0066
14624TIP3    H265288   4.733   4.144   2.926  2.0400  0.3089 -0.3963
14625TIP3   OH265289   0.590   1.966   3.847 -0.2468  0.0579 -0.2867
14625TIP3    H165290   0.607   1.950   3.940 -0.6872 -3.3292 -0.6445
14625TIP3    H265291   0.527   1.898   3.822 -2.3702  2.5736 -2.4904
14626TIP3   OH265292   2.994   6.004   4.972 -0.4964 -0.1481 -0.2969
14626TIP3    H165293   2.906   6.028   4.942 -1.5163 -2.8633  0.2491
14626TIP3    H265294   2.984   5.988   5.066  0.8021  0.2583 -0.0650
14627TIP3   OH265295   0.536   2.076   4.765  0.7899  0.2656  0.7889
14627TIP3    H165296   0.628   2.069   4.791  1.0511 -1.0586 -0.3606
14627TIP3    H265297   0.525   2.169   4.743  2.2341  0.2155 -0.3420
14628TIP3   OH265298   2.115   5.475   3.600 -0.0579 -0.6325  0.5963
14628TIP3    H165299   2.196   5.451   3.555 -0.2644 -0.4900  0.1479
14628TIP3    H265300   2.140   5.546   3.659  0.2359 -0.8940  0.7881
14629TIP3   OH265301   3.585   6.423  15.211  0.3322 -0.7510 -0.5162
14629TIP3    H165302   3.524   6.460  15.275  2.8184  4.1559 -0.5013
14629TIP3    H265303   3.649   6.375  15.263  1.6847  2.2291  0.8171
14630TIP3   OH265304   5.297   2.735   2.320 -0.4231  0.2295 -0.1576
14630TIP3    H165305   5.343   2.683   2.386 -4.0449 -1.2212  1.4775
14630TIP3    H265306   5.345   2.719   2.239  1.7618 -1.2934  1.3129
14631TIP3   OH265307   0.333   1.764   4.960  0.2810 -0.0514 -0.4246
14631TIP3    H165308   0.391   1.688   4.961 -0.7356 -0.8953 -1.7192
14631TIP3    H265309   0.284   1.756   4.878 -2.6647 -0.1682  1.1928
14632TIP3   OH265310   4.742   4.253   2.581 -1.0063 -0.1416  0.3037
14632TIP3    H165311   4.707   4.165   2.571 -1.4566  0.3046 -3.6469
14632TIP3    H265312   4.667   4.311   2.564 -0.2419  0.9842  0.6180
14633TIP3   OH265313   1.555   3.352   0.122 -0.0638  0.5160  0.2068
14633TIP3    H165314   1.646   3.375   0.141 -0.0625  0.7763 -0.1033
14633TIP3    H265315   1.504   3.421   0.165 -0.0856  0.7363 -0.1642
14634TIP3   OH265316   5.090   6.458   0.765 -0.4011  0.8177 -0.4591
14634TIP3    H165317   5.123   6.415   0.686  0.6132  0.1365  0.3097
14634TIP3    H265318   5.154   6.437   0.833 -1.6057  0.7796  0.7252
14635TIP3   OH265319   6.928   0.374  15.119 -0.4921 -0.8124  0.0446
14635TIP3    H165320   7.013   0.340  15.150 -1.0488 -2.2588  0.0634
14635TIP3    H265321   6.951   0.435  15.050  0.6078 -0.5146  0.6359
14636TIP3   OH265322   4.978   0.934  13.742  0.0657 -0.5132 -0.2960
14636TIP3    H165323   4.917   0.925  13.816 -0.7207 -0.6401 -0.9492
14636TIP3    H265324   4.972   1.027  13.718  1.0036 -0.2667  0.3606
14637TIP3   OH265325   1.049   2.887   5.076  0.1176 -0.0370 -0.1744
14637TIP3    H165326   1.039   2.794   5.055 -0.4708 -0.2497  0.9633
14637TIP3    H265327   1.023   2.893   5.168 -1.0385  1.4574 -0.5605
14638TIP3   OH265328   0.737   0.149   1.404 -0.0464 -0.7521 -0.4831
14638TIP3    H165329   0.738   0.244   1.408 -1.6283 -0.7740  1.0196
14638TIP3    H265330   0.829   0.124   1.420  0.3594  0.4890 -0.7490
14639TIP3   OH265331   6.401   6.092   0.022 -0.3400  0.2075 -0.1864
14639TIP3    H165332   6.345   6.094  -0.056 -0.0006 -0.1536 -0.4421
14639TIP3    H265333   6.449   6.010   0.015 -0.7224 -0.1001  0.7025
14640TIP3   OH265334   5.529   0.366  11.473  0.2526 -0.2287  0.3320
14640TIP3    H165335   5.523   0.436  11.538  0.0485  1.7366 -1.6454
14640TIP3    H265336   5.439   0.339  11.458  0.0350  1.0154 -0.7855
14641TIP3   OH265337   3.222   6.538  11.234 -0.2023 -0.3746  0.0501
14641TIP3    H165338   3.244   6.542  11.141  1.4324 -1.1411  0.3619
14641TIP3    H265339   3.169   6.458  11.242 -2.1522  0.8028 -0.5116
14642TIP3   OH265340   1.986   4.580   5.230 -0.0582  0.1682  0.2801
14642TIP3    H165341   1.952   4.631   5.304  0.3847 -1.1906  1.4536
14642TIP3    H265342   1.991   4.644   5.158 -2.1088  1.1176  0.9164
14643TIP3   OH265343   5.669   6.143  13.269  0.3628 -0.1080 -0.1329
14643TIP3    H165344   5.750   6.110  13.229  2.3700  0.6397  2.9689
14643TIP3    H265345   5.654   6.085  13.343 -0.0170  1.7541  1.2987
14644TIP3   OH265346   0.571   5.751   4.751  0.7679  0.2789  0.2905
14644TIP3    H165347   0.613   5.833   4.727  0.8435 -0.0415 -0.7335
14644TIP3    H265348   0.629   5.713   4.817  1.0097  0.8047  0.3834
14645TIP3   OH265349   0.443   4.208  10.425  0.1182 -0.0602 -0.0944
14645TIP3    H165350   0.350   4.188  10.434  0.0567 -0.2460 -1.0768
14645TIP3    H265351   0.476   4.143  10.362  0.6691  0.7235 -0.6270
14646TIP3   OH265352   6.239   4.971   2.126  0.3502 -0.2832  0.1006
14646TIP3    H165353   6.231   4.913   2.202  0.2581 -0.5448 -0.1065
14646TIP3    H265354   6.156   4.963   2.080 -0.0215  0.7276  0.5634
14647TIP3   OH265355   0.380   1.586   3.634 -0.3127  0.4607 -0.1806
14647TIP3    H165356   0.301   1.555   3.679 -0.2166  0.4370 -0.0287
14647TIP3    H265357   0.423   1.506   3.603 -2.2576  0.5033 -3.5993
14648TIP3   OH265358   1.002   3.027  10.469  0.5487 -0.4967  0.2402
14648TIP3    H165359   0.990   3.093  10.401  0.9532  0.4253  1.0255
14648TIP3    H265360   1.072   2.970  10.436 -0.6304 -1.2883 -0.9783
14649TIP3   OH265361   6.900   1.443  11.077 -0.0122 -0.6984 -0.4653
14649TIP3    H165362   6.869   1.389  11.004  1.4365 -2.0858 -0.0880
14649TIP3    H265363   6.981   1.481  11.046 -1.7185  2.6173 -1.2997
14650TIP3   OH265364   0.347   3.040   1.165 -0.2789  0.6554 -0.1225
14650TIP3    H165365   0.404   2.994   1.226 -1.8456 -0.3578  0.6391
14650TIP3    H265366   0.267   3.057   1.215 -0.7384  1.8760 -1.2053
14651TIP3   OH265367   3.029   5.533   1.082  0.0230 -0.0656 -0.4074
14651TIP3    H165368   3.003   5.525   0.991  1.0258 -2.1140 -0.5563
14651TIP3    H265369   3.003   5.450   1.123  2.0266 -0.3148  0.4975
14652TIP3   OH265370   4.997   5.873   4.702 -0.6444 -0.2060  0.5009
14652TIP3    H165371   4.995   5.781   4.728  0.5788 -0.4022 -0.0267
14652TIP3    H265372   5.076   5.908   4.744 -0.9611  0.5374  0.4885
14653TIP3   OH265373   1.216   0.514  15.357 -0.2958  0.0442 -0.8269
14653TIP3    H165374   1.308   0.499  15.338  0.2775 -1.6617  2.5538
14653TIP3    H265375   1.213   0.602  15.395 -0.3257  0.6210 -2.1186
14654TIP3   OH265376   2.845   3.076   5.947  0.1117  0.1055 -0.0370
14654TIP3    H165377   2.904   3.135   5.993  0.2410  0.0763 -0.1664
14654TIP3    H265378   2.805   3.130   5.878 -0.2780  0.2180  0.2726
14655TIP3   OH265379   4.211   6.845   0.268 -0.2884 -0.1946  0.0906
14655TIP3    H165380   4.220   6.761   0.313 -1.0575  0.5181  1.6870
14655TIP3    H265381   4.297   6.863   0.232 -0.0539 -1.5456 -0.0526
14656TIP3   OH265382   0.237   3.644   2.900 -0.5356  0.6441  0.0297
14656TIP3    H165383   0.230   3.687   2.986 -1.3054  0.5343  0.0325
14656TIP3    H265384   0.271   3.557   2.920  0.1394  0.9243  0.1243
14657TIP3   OH265385   5.280   4.721   2.617 -0.3610  0.2738  0.6100
14657TIP3    H165386   5.307   4.812   2.603 -0.0132  0.2829  1.3170
14657TIP3    H265387   5.294   4.679   2.532 -1.1886  1.0419  0.0877
14658TIP3   OH265388   0.908   3.035   1.834 -0.8446  0.2142 -0.7175
14658TIP3    H165389   0.872   3.117   1.800  0.4982  0.3157 -1.9792
14658TIP3    H265390   0.999   3.035   1.805 -0.2368 -0.7626  1.0436
14659TIP3   OH265391   7.053   4.206   5.672 -0.1871 -0.3537  0.1436
14659TIP3    H165392   7.034   4.113   5.666 -0.3496 -0.4254  1.4689
14659TIP3    H265393   7.148   4.211   5.681 -0.1454 -0.3642 -0.2703
14660TIP3   OH265394   4.643   6.862   4.433 -0.1295 -0.4251  0.4585
14660TIP3    H165395   4.572   6.904   4.481 -0.4858  0.5538 -0.8640
14660TIP3    H265396   4.600   6.810   4.366  0.3550  1.1033 -1.1143
14661TIP3   OH265397   6.997   0.232   3.832 -0.1228 -0.2213  0.0868
14661TIP3    H165398   6.993   0.254   3.738 -2.1936 -0.5004  0.0579
14661TIP3    H265399   7.046   0.304   3.871 -0.0996  0.4334 -1.0935
14662TIP3   OH265400   5.552   3.791   4.579 -0.2474  0.0035  0.1159
14662TIP3    H165401   5.518   3.789   4.669 -0.3446  0.1182  0.0830
14662TIP3    H265402   5.474   3.807   4.525  0.0372  1.8123  0.1577
14663TIP3   OH265403   4.642   2.564   3.078 -0.5816  1.2667 -0.2760
14663TIP3    H165404   4.559   2.515   3.080 -1.0138  1.9650 -0.7068
14663TIP3    H265405   4.710   2.496   3.076 -1.1363  0.6867  0.2985
14664TIP3   OH265406   1.881   6.305   0.124 -0.4528 -0.1673  0.9311
14664TIP3    H165407   1.864   6.227   0.175  0.1335 -0.0740  1.2650
14664TIP3    H265408   1.797   6.351   0.122 -0.3056  0.1992  2.4344
14665TIP3   OH265409   4.562   6.603  12.930  0.4991 -0.6804  0.3294
14665TIP3    H165410   4.468   6.619  12.932  0.3671 -1.2128  3.7574
14665TIP3    H265411   4.587   6.618  12.838 -2.3361  2.4759 -0.1029
14666TIP3   OH265412   2.070   2.211   1.530  0.1986  0.2699 -0.8180
14666TIP3    H165413   2.146   2.191   1.475  0.2455  0.0619 -0.6808
14666TIP3    H265414   1.999   2.159   1.493  0.8662 -2.1340  0.9665
14667TIP3   OH265415   3.012   1.321   0.657  0.1647  0.3069 -0.2818
14667TIP3    H165416   3.041   1.374   0.730 -2.6397  0.3623  0.9064
14667TIP3    H265417   3.002   1.233   0.693 -0.1148  0.0674 -0.9158
14668TIP3   OH265418   2.612   0.847   2.940  0.1314 -0.2921  0.1136
14668TIP3    H165419   2.528   0.869   2.980  0.1884  1.1544 -0.4800
14668TIP3    H265420   2.660   0.930   2.938  0.8512 -0.7089 -1.2437
14669TIP3   OH265421   1.286   2.495  14.994  0.2806 -0.4273 -0.1398
14669TIP3    H165422   1.254   2.513  15.082 -0.4580  0.4948 -0.5824
14669TIP3    H265423   1.381   2.485  15.004 -0.0527 -3.3180  1.2309
14670TIP3   OH265424   5.458   2.349  14.484 -0.5151 -0.6105  0.4533
14670TIP3    H165425   5.447   2.339  14.579  0.0015 -0.0882  0.5698
14670TIP3    H265426   5.440   2.441  14.468  1.7687 -0.1391  0.3815
14671TIP3   OH265427   4.725   0.550   5.443  0.1218  0.3434  0.6013
14671TIP3    H165428   4.762   0.633   5.473  0.6307  0.6058 -0.6489
14671TIP3    H265429   4.802   0.495   5.425  0.1825  1.3819 -3.4325
14672TIP3   OH265430   6.702   5.667   9.571  0.2319 -0.3838  0.1859
14672TIP3    H165431   6.609   5.660   9.549 -0.2423 -0.4742  2.0778
14672TIP3    H265432   6.733   5.577   9.575  0.3655 -0.3602 -0.2348
14673TIP3   OH265433   4.440   1.800  11.634 -0.9034  0.4712  0.2121
14673TIP3    H165434   4.488   1.819  11.714  0.2512  1.4746 -0.6890
14673TIP3    H265435   4.469   1.712  11.610  0.1273  0.8648 -0.0472
14674TIP3   OH265436   6.383   4.787  15.578  0.6632  0.1298  0.1331
14674TIP3    H165437   6.373   4.873  15.538  0.4793 -0.2831 -0.7256
14674TIP3    H265438   6.298   4.770  15.619  1.1589  0.9791  1.6096
14675TIP3   OH265439   3.541   0.070  13.223  0.0940 -0.1111  0.2327
14675TIP3    H165440   3.542   0.046  13.130  0.4530  0.5687  0.0500
14675TIP3    H265441   3.580  -0.005  13.268  0.8683 -0.0278 -0.2764
14676TIP3   OH265442   5.344   6.546  12.960  0.0702  0.0423  0.3470
14676TIP3    H165443   5.410   6.487  12.924  0.5644  0.3725  0.7067
14676TIP3    H265444   5.352   6.537  13.055 -1.6817 -1.3259  0.4196
14677TIP3   OH265445   1.535   2.761   1.560 -0.5397  0.1281  0.4178
14677TIP3    H165446   1.556   2.800   1.645 -0.7915 -0.4800  0.7579
14677TIP3    H265447   1.613   2.710   1.538 -0.4173  0.3997  0.2115
14678TIP3   OH265448   3.702   1.949   5.905 -0.2868 -0.4642 -0.4700
14678TIP3    H165449   3.631   2.008   5.929  0.6262  0.6424 -0.3929
14678TIP3    H265450   3.773   1.972   5.965  0.5780 -0.6282 -1.4093
14679TIP3   OH265451   6.923   5.673  12.252 -0.1589 -0.3464 -0.2768
14679TIP3    H165452   7.013   5.663  12.220 -0.4991 -1.0473 -1.0788
14679TIP3    H265453   6.872   5.691  12.173 -0.7400 -0.0834  0.1523
14680TIP3   OH265454   0.373   5.920   4.777 -0.1454  0.2665  0.3483
14680TIP3    H165455   0.454   5.907   4.727  0.9229 -0.8158  2.2535
14680TIP3    H265456   0.319   5.975   4.720  1.0568 -0.7107 -1.8969
14681TIP3   OH265457   6.515   5.328  13.759 -0.1692 -0.5334 -1.0214
14681TIP3    H165458   6.481   5.246  13.794 -0.8011 -0.2689 -1.0082
14681TIP3    H265459   6.438   5.381  13.742  0.2553  0.1871 -0.7265
14682TIP3   OH265460   2.475   5.506   5.762 -0.3558 -0.0194 -0.4865
14682TIP3    H165461   2.460   5.583   5.707 -1.6807 -0.9357 -1.4563
14682TIP3    H265462   2.399   5.503   5.820 -1.0785 -1.4041 -1.4548
14683TIP3   OH265463   6.148   1.496   5.046 -0.2234 -0.0731  0.0789
14683TIP3    H165464   6.067   1.518   5.091  0.7940  2.6218  0.7719
14683TIP3    H265465   6.199   1.446   5.110 -0.5230 -0.0253  0.3527
14684TIP3   OH265466   4.491   4.406   5.235 -0.4008  0.9437 -0.2245
14684TIP3    H165467   4.422   4.445   5.289 -0.9310  1.0944 -1.0011
14684TIP3    H265468   4.533   4.341   5.293  0.4347  2.5550  1.0488
14685TIP3   OH265469   6.575   4.807   3.730 -0.3498  0.6111  0.0572
14685TIP3    H165470   6.653   4.790   3.784  0.7095  2.5346 -0.7502
14685TIP3    H265471   6.610   4.846   3.650 -1.9674 -1.0919 -1.5809
14686TIP3   OH265472   6.262   0.257   0.955  0.8724  0.1766 -0.0457
14686TIP3    H165473   6.348   0.285   0.926  0.1433  0.3633 -2.2127
14686TIP3    H265474   6.262   0.273   1.049  3.7834 -1.4379  0.3702
14687TIP3   OH265475   4.187   6.021  11.161  0.5681  0.2358 -0.1181
14687TIP3    H165476   4.169   6.113  11.182  0.8024  0.2245  0.1426
14687TIP3    H265477   4.103   5.978  11.170  1.0395 -0.2477  3.3448
14688TIP3   OH265478   1.292   6.780  14.735 -0.4174  0.2053 -0.1340
14688TIP3    H165479   1.277   6.726  14.658  1.3437  1.8876 -1.7722
14688TIP3    H265480   1.313   6.718  14.804 -0.9475 -1.3045 -1.2733
14689TIP3   OH265481   5.964   0.992  15.490 -0.7995  0.1880 -0.0876
14689TIP3    H165482   5.881   0.957  15.459 -2.0557  3.2645 -0.6092
14689TIP3    H265483   5.940   1.070  15.540  1.7650  1.1972 -0.2641
14690TIP3   OH265484   2.821   6.967  14.056  0.4737  0.2769 -0.3700
14690TIP3    H165485   2.910   6.934  14.061  0.1348 -0.6693 -0.3443
14690TIP3    H265486   2.769   6.892  14.029 -0.1974  1.0404 -1.2602
14691TIP3   OH265487   1.797   4.126  14.095 -0.2535  0.4098  0.7226
14691TIP3    H165488   1.806   4.221  14.098 -3.0205  0.8515 -1.1969
14691TIP3    H265489   1.797   4.099  14.187  1.0336  2.1700  1.2842
14692TIP3   OH265490   1.405   2.590   1.365 -0.0353 -0.4589 -0.5231
14692TIP3    H165491   1.349   2.655   1.322 -0.8578 -0.8279 -0.0307
14692TIP3    H265492   1.432   2.632   1.446  1.2492  0.1092 -1.2090
14693TIP3   OH265493   6.178   3.882  14.935 -0.7879 -0.2496  0.3866
14693TIP3    H165494   6.254   3.841  14.976 -0.8356 -1.0397 -0.2897
14693TIP3    H265495   6.158   3.958  14.991  1.0172  0.4779  0.1000
14694TIP3   OH265496   4.842   1.882  14.325  0.0568 -0.2310  0.2576
14694TIP3    H165497   4.870   1.916  14.410 -0.0003  0.7466 -0.1046
14694TIP3    H265498   4.768   1.937  14.300  1.2287  0.7215 -1.2612
14695TIP3   OH265499   7.021   0.915  12.965  0.5073 -0.0963 -0.5615
14695TIP3    H165500   7.103   0.910  13.013  0.9823 -0.7963 -1.4312
14695TIP3    H265501   7.045   0.902  12.874 -0.6553 -1.1122 -0.7467
14696TIP3   OH265502   2.212   3.998   2.042 -0.4552 -0.0098  0.1782
14696TIP3    H165503   2.261   4.080   2.031  0.3990 -0.5474 -0.1326
14696TIP3    H265504   2.169   4.007   2.127  2.0746 -0.4408  1.6119
14697TIP3   OH265505   2.965   6.038   0.007 -0.6177  0.2629 -0.4444
14697TIP3    H165506   2.902   6.076   0.069  0.1224  0.3923  0.2511
14697TIP3    H265507   2.982   5.950   0.042 -3.0948 -1.2238 -2.5933
14698TIP3   OH265508   2.927   1.521  14.741 -0.2834  0.4468 -0.0758
14698TIP3    H165509   2.871   1.579  14.689 -1.5199 -0.6431  0.0041
14698TIP3    H265510   2.876   1.441  14.753  1.5674 -0.8840 -0.5771
14699TIP3   OH265511   5.007   4.833  15.147 -0.0047 -0.4751 -0.1791
14699TIP3    H165512   5.007   4.783  15.065  1.1369 -0.5509 -0.1371
14699TIP3    H265513   4.963   4.774  15.210 -1.5797 -0.1160 -0.8825
14700TIP3   OH265514   5.091   5.363  14.331 -0.1044 -0.1944  0.2952
14700TIP3    H165515   5.012   5.417  14.343 -0.6988 -1.2259  1.1927
14700TIP3    H265516   5.071   5.308  14.256  0.8982  1.4619 -1.2701
14701TIP3   OH265517   0.120   2.658  11.622  0.0989  0.1092  0.6169
14701TIP3    H165518   0.149   2.585  11.676  0.5498 -0.4330 -0.3224
14701TIP3    H265519   0.048   2.698  11.670 -0.4173 -1.2037  0.9514
14702TIP3   OH265520   5.469   2.629   3.024 -0.0321  0.1904  0.2994
14702TIP3    H165521   5.443   2.686   3.097  0.8449  1.3504 -0.2471
14702TIP3    H265522   5.511   2.689   2.962 -1.3142 -0.6575 -1.4517
14703TIP3   OH265523   1.477   0.230   0.617  0.3150  0.3545 -0.3018
14703TIP3    H165524   1.516   0.315   0.637 -0.2317  0.2986  1.1477
14703TIP3    H265525   1.462   0.190   0.703  0.3373 -1.1106 -0.9409
14704TIP3   OH265526   6.997   6.921   4.579  0.1162  0.3186  0.4005
14704TIP3    H165527   7.090   6.898   4.575 -0.2682 -1.2964  0.0572
14704TIP3    H265528   6.966   6.913   4.488 -0.7110 -0.8421  0.7577
14705TIP3   OH265529   4.705   0.620   5.928 -0.1837  0.0736 -0.0067
14705TIP3    H165530   4.740   0.543   5.972  1.3176  1.2679  1.0246
14705TIP3    H265531   4.689   0.592   5.838 -0.4013 -1.6132  0.5160
14706TIP3   OH265532   2.494   6.694  13.865  0.3135 -0.4743 -0.5570
14706TIP3    H165533   2.479   6.768  13.924  1.8277 -0.7390  0.2147
14706TIP3    H265534   2.527   6.624  13.922  2.9531 -0.3774 -1.8024
14707TIP3   OH265535   2.025   3.079   3.557 -0.0672  0.2490  0.4770
14707TIP3    H165536   1.949   3.022   3.566  0.3497 -0.3910  0.0634
14707TIP3    H265537   2.023   3.107   3.466  0.8755 -0.7897  0.1100
14708TIP3   OH265538   1.811   1.574  15.471 -0.0219  0.2478 -0.1915
14708TIP3    H165539   1.830   1.505  15.407  1.4416 -0.9224  1.4203
14708TIP3    H265540   1.738   1.540  15.523  1.2853 -0.5605  1.1874
14709TIP3   OH265541   1.055   2.176   2.054  0.1575  0.4961  0.2797
14709TIP3    H165542   0.987   2.111   2.035  0.1879  0.3215  0.7438
14709TIP3    H265543   1.055   2.183   2.150  1.3420 -0.0904  0.3361
14710TIP3   OH265544   2.592   1.248   4.047 -0.1592 -0.0156  0.6097
14710TIP3    H165545   2.668   1.193   4.066  0.0638 -0.1853 -0.6927
14710TIP3    H265546   2.619   1.336   4.073  0.4489 -0.0906  0.2573
14711TIP3   OH265547   2.775   4.047  11.736 -0.3120  0.3876 -0.0781
14711TIP3    H165548   2.858   4.025  11.692 -0.3423  0.0942  0.0073
14711TIP3    H265549   2.728   4.101  11.673  0.0271  0.7126 -0.0532
14712TIP3   OH265550   3.731   7.026   4.970 -0.3175 -0.1210  0.4756
14712TIP3    H165551   3.659   7.028   4.908 -0.0177  0.2601  0.1396
14712TIP3    H265552   3.797   7.086   4.934 -0.5659  0.9082  1.6783
14713TIP3   OH265553   6.834   6.763   4.811  0.2268 -0.4939 -0.4589
14713TIP3    H165554   6.819   6.778   4.905  1.4430 -0.3459 -0.2770
14713TIP3    H265555   6.748   6.776   4.771 -0.2740 -0.3843  0.6150
14714TIP3   OH265556   2.245   4.478   3.947 -0.0366 -0.0991 -0.4338
14714TIP3    H165557   2.250   4.409   4.012  1.5954  0.0359 -0.3708
14714TIP3    H265558   2.325   4.529   3.959  0.3047 -0.0506 -2.5094
14715TIP3   OH265559   3.419   6.332   5.909  0.1191 -0.3056 -0.7521
14715TIP3    H165560   3.414   6.395   5.836 -0.3772  1.6076  0.8478
14715TIP3    H265561   3.513   6.319   5.923  0.3174  1.9488  0.3617
14716TIP3   OH265562   2.881   2.295  14.245 -0.2310 -0.3697 -0.5805
14716TIP3    H165563   2.973   2.277  14.224 -0.0544  0.1061 -0.2412
14716TIP3    H265564   2.871   2.263  14.334 -0.6714 -1.3518 -0.9808
14717TIP3   OH265565   3.515   4.913   0.132 -0.5631  0.1688  0.0587
14717TIP3    H165566   3.457   4.977   0.090 -0.9768  0.1070  0.5291
14717TIP3    H265567   3.577   4.888   0.064  0.1870  1.7596  0.0981
14718TIP3   OH265568   5.829   6.382  12.916 -0.2617 -0.1419  0.5682
14718TIP3    H165569   5.799   6.445  12.851  1.9162 -0.0113 -0.4043
14718TIP3    H265570   5.860   6.307  12.865 -1.8127 -1.6126  1.6559
14719TIP3   OH265571   5.275   6.614   4.232 -0.4021 -0.1910 -0.6341
14719TIP3    H165572   5.361   6.639   4.199 -1.5872  2.3955 -2.1597
14719TIP3    H265573   5.285   6.609   4.327  1.5756 -0.7571 -0.8358
14720TIP3   OH265574   1.689   4.559   5.585 -0.4878  0.3054  0.1623
14720TIP3    H165575   1.774   4.597   5.564  0.5820 -1.2413  1.4861
14720TIP3    H265576   1.645   4.551   5.500  0.0499  2.4844 -0.3876
14721TIP3   OH265577   1.227   5.010   4.062 -0.0043 -0.0246 -0.5635
14721TIP3    H165578   1.319   5.021   4.084 -0.3068  0.3212  0.6232
14721TIP3    H265579   1.193   5.100   4.055 -0.1603 -0.1433 -1.4201
14722TIP3   OH265580   5.870   3.096   0.281 -0.1633 -0.6676  0.3912
14722TIP3    H165581   5.784   3.133   0.301 -0.4518 -0.6822 -0.7409
14722TIP3    H265582   5.906   3.154   0.213  0.0413 -1.5676 -0.2862
14723TIP3   OH265583   6.334   1.351   0.638  0.3061  0.1742 -0.1587
14723TIP3    H165584   6.242   1.367   0.659 -0.0517 -0.5484 -1.0650
14723TIP3    H265585   6.343   1.382   0.548  0.3765 -1.7175 -0.8527
14724TIP3   OH265586   6.538   6.478  13.744  0.1488  0.3084 -0.1269
14724TIP3    H165587   6.564   6.401  13.794  0.6717  1.0169  0.7088
14724TIP3    H265588   6.464   6.515  13.792  0.4868  0.8470 -0.0154
14725TIP3   OH265589   4.506   1.716   4.540  0.6532  0.6261 -0.5153
14725TIP3    H165590   4.491   1.694   4.448 -0.8534 -0.4453 -0.0631
14725TIP3    H265591   4.560   1.795   4.538  1.4580  0.0762 -2.2999
14726TIP3   OH265592   4.899   2.466   0.448  0.2541  0.1620 -0.2258
14726TIP3    H165593   4.878   2.542   0.393 -0.0897 -0.4806 -1.0055
14726TIP3    H265594   4.873   2.390   0.395 -3.8043 -0.4896  2.2291
14727TIP3   OH265595   6.452   5.280   5.541  0.1312  0.1062 -0.4351
14727TIP3    H165596   6.486   5.202   5.499 -1.1991 -0.0819 -1.2196
14727TIP3    H265597   6.529   5.328   5.570  1.0516 -0.2863 -2.1375
14728TIP3   OH265598   5.679   4.884  12.821  0.0522 -0.1193  0.1461
14728TIP3    H165599   5.625   4.864  12.745 -0.6832  1.2652  0.2714
14728TIP3    H265600   5.767   4.896  12.785  0.2340 -1.9591 -0.1178
14729TIP3   OH265601   0.188   2.602  14.363  0.2113 -0.8024  0.1910
14729TIP3    H165602   0.180   2.671  14.297  1.6799 -1.8498 -1.1469
14729TIP3    H265603   0.174   2.648  14.447 -1.4725  0.5900 -0.7746
14730TIP3   OH265604   0.188   4.765  14.768 -0.3679 -0.2374 -0.2635
14730TIP3    H165605   0.187   4.676  14.731  1.2674 -1.4002  2.1809
14730TIP3    H265606   0.111   4.807  14.731 -1.2188 -2.6839 -1.5355
14731TIP3   OH265607   3.559   4.457  13.281  0.1476  0.7572 -0.5531
14731TIP3    H165608   3.605   4.530  13.322 -0.7619  1.3930 -0.6457
14731TIP3    H265609   3.506   4.420  13.352 -1.0728  1.5678 -1.0165
14732TIP3   OH265610   3.134   5.524  11.237  0.3923 -0.1283  0.0271
14732TIP3    H165611   3.209   5.508  11.294  0.8819 -0.8651 -0.7853
14732TIP3    H265612   3.128   5.620  11.231  1.1480 -0.0611  0.2606
14733TIP3   OH265613   2.896   7.074  13.336 -0.1272  0.3899 -0.2460
14733TIP3    H165614   2.806   7.042  13.345 -0.3004  0.8829 -0.1584
14733TIP3    H265615   2.915   7.115  13.420  0.3002 -0.0030 -0.1501
14734TIP3   OH265616   5.196   2.636  10.540 -0.0327  0.1878 -0.1173
14734TIP3    H165617   5.270   2.694  10.522 -0.6073  1.4190  1.2751
14734TIP3    H265618   5.225   2.583  10.614 -0.1084 -0.1634 -0.3393
14735TIP3   OH265619   2.342   6.741   0.634 -1.0201  0.2943  0.0397
14735TIP3    H165620   2.256   6.783   0.639 -0.5551  1.1142  1.6743
14735TIP3    H265621   2.330   6.656   0.677 -0.9361  0.5442  0.5575
14736TIP3   OH265622   0.825   0.107  15.123 -0.1162  0.1601 -0.2667
14736TIP3    H165623   0.865   0.191  15.100  1.0832 -0.8289 -2.0555
14736TIP3    H265624   0.891   0.042  15.097 -0.4574 -1.3076  2.2555
14737TIP3   OH265625   4.537   6.152   4.665 -0.4626  0.2224  0.0492
14737TIP3    H165626   4.628   6.143   4.694  0.2079  1.1829 -1.6253
14737TIP3    H265627   4.538   6.228   4.606 -2.0943 -0.5123 -0.9891
14738TIP3   OH265628   3.550   6.641   5.776 -0.2329 -0.2625  0.5803
14738TIP3    H165629   3.596   6.559   5.791 -0.5745 -0.5290  0.1999
14738TIP3    H265630   3.509   6.631   5.690 -0.8060  0.0525  0.8050
14739TIP3   OH265631   0.399   3.898   5.611 -0.2965 -0.2937  0.5001
14739TIP3    H165632   0.480   3.942   5.635  0.4232 -2.0827  1.6138
14739TIP3    H265633   0.330   3.963   5.625  0.9506  1.3984 -0.8883
14740TIP3   OH265634   1.429   2.411   2.919 -1.3016 -0.4785 -0.5650
14740TIP3    H165635   1.472   2.333   2.882  1.4282  0.8581 -0.4648
14740TIP3    H265636   1.410   2.466   2.843 -2.0061 -0.6378 -0.5139
14741TIP3   OH265637   6.113   5.411   0.907  0.0103  0.4358  0.1225
14741TIP3    H165638   6.129   5.328   0.952 -1.2680  0.2011  0.1819
14741TIP3    H265639   6.020   5.410   0.887  0.6018  0.2097 -3.1981
14742TIP3   OH265640   3.240   5.425  12.792 -0.2491 -0.5264 -0.3724
14742TIP3    H165641   3.245   5.460  12.703  0.3537 -0.6894 -0.4048
14742TIP3    H265642   3.217   5.333  12.780 -0.5247 -0.4639 -0.3396
14743TIP3   OH265643   4.163   2.945   2.880  0.1737 -0.3045  0.0807
14743TIP3    H165644   4.119   2.942   2.795 -0.3689  0.8814  0.2979
14743TIP3    H265645   4.254   2.922   2.861  0.3900  1.2834 -1.0792
14744TIP3   OH265646   3.206   4.869  13.250 -0.3912 -0.7563  0.3939
14744TIP3    H165647   3.181   4.782  13.218  2.0942 -1.3406 -0.1850
14744TIP3    H265648   3.275   4.897  13.190  0.9498  0.3000  2.3507
14745TIP3   OH265649   1.632   3.331   2.919 -0.2059 -0.1190 -0.1387
14745TIP3    H165650   1.671   3.299   2.838 -1.7976  0.7701 -1.3187
14745TIP3    H265651   1.542   3.351   2.896 -2.4868 -4.7426  3.0336
14746TIP3   OH265652   1.765   0.088   4.264  0.5976  0.8434  0.4328
14746TIP3    H165653   1.807   0.002   4.267 -0.9051  0.1118  1.8964
14746TIP3    H265654   1.820   0.143   4.319  0.8707  0.4927  0.5173
14747TIP3   OH265655   2.481   2.836   5.153  0.3083  0.0601  0.2933
14747TIP3    H165656   2.485   2.895   5.228 -0.7768 -1.3672  1.5399
14747TIP3    H265657   2.401   2.786   5.167  1.5793 -2.2554 -0.2530
14748TIP3   OH265658   6.276   3.514   0.723 -0.1066  1.2097  0.5261
14748TIP3    H165659   6.193   3.557   0.743 -1.0707 -1.0406  1.8322
14748TIP3    H265660   6.337   3.585   0.707 -1.4766  3.0661  2.9226
14749TIP3   OH265661   1.888   1.194   5.140  0.4894 -0.6438  0.0571
14749TIP3    H165662   1.964   1.250   5.154 -1.1170  1.4494  1.0959
14749TIP3    H265663   1.847   1.229   5.061 -0.9473  0.2499  1.1422
14750TIP3   OH265664   3.817   1.152  12.039 -0.0098  0.6953  0.0392
14750TIP3    H165665   3.759   1.131  12.112  0.7759  0.6886  0.6706
14750TIP3    H265666   3.890   1.090  12.047  0.3095  0.9939 -0.4830
14751TIP3   OH265667   3.398   3.876   2.431  0.0737  0.0546  0.3985
14751TIP3    H165668   3.486   3.911   2.443  0.0700  1.2175 -2.2896
14751TIP3    H265669   3.347   3.913   2.502  1.2886  1.1625  0.7183
14752TIP3   OH265670   0.542   0.884   0.267 -0.2415  0.0292  0.0563
14752TIP3    H165671   0.462   0.849   0.226 -1.6817  1.2087  1.7519
14752TIP3    H265672   0.545   0.843   0.353  0.1428  1.1549  0.5957
14753TIP3   OH265673   1.952   1.740  13.452  0.1817  0.3236  0.5479
14753TIP3    H165674   1.888   1.809  13.469 -1.8128 -0.5972 -2.3498
14753TIP3    H265675   1.913   1.661  13.491 -1.3505 -0.5288 -2.4077
14754TIP3   OH265676   2.955   1.842   1.264 -0.5035  0.1064  0.5297
14754TIP3    H165677   2.872   1.810   1.298 -0.8869 -0.2242 -0.6689
14754TIP3    H265678   2.994   1.767   1.220 -0.7116  0.8435 -1.0012
14755TIP3   OH265679   7.109   3.154   2.878  0.0840  0.0406 -0.0689
14755TIP3    H165680   7.021   3.175   2.907  0.4604  0.0610  1.1103
14755TIP3    H265681   7.103   3.065   2.843  0.0258 -0.8628  2.1097
14756TIP3   OH265682   2.440   2.226   3.959 -0.6525  0.0295  0.0227
14756TIP3    H165683   2.411   2.266   4.041 -2.0896  0.0053 -0.4373
14756TIP3    H265684   2.420   2.133   3.969 -1.8799  0.1882 -0.7526
14757TIP3   OH265685   2.919   5.176  14.755  0.2690  0.6777 -0.1872
14757TIP3    H165686   2.986   5.138  14.698  2.5222  3.1111  0.6448
14757TIP3    H265687   2.960   5.179  14.841 -1.7646  0.3388  0.8584
14758TIP3   OH265688   5.348   6.203  10.670  0.2709  0.1343  0.1347
14758TIP3    H165689   5.300   6.121  10.678  1.1461 -0.6157 -1.7328
14758TIP3    H265690   5.293   6.257  10.614 -0.5304  1.0732  1.7368
14759TIP3   OH265691   2.704   0.364   0.918 -0.0419  0.0586  0.8036
14759TIP3    H165692   2.753   0.329   0.992  3.5958  2.4625 -0.2080
14759TIP3    H265693   2.713   0.299   0.849 -0.5030 -0.6473  1.3945
14760TIP3   OH265694   2.217   2.584   0.580 -0.5278 -0.0551  0.3896
14760TIP3    H165695   2.183   2.661   0.626 -0.8397 -1.0115  1.8190
14760TIP3    H265696   2.312   2.592   0.587 -0.5766 -0.3654  1.5323
14761TIP3   OH265697   4.111   3.443   1.006  0.7864  0.0754 -0.3542
14761TIP3    H165698   4.044   3.455   1.074  0.0335  1.8964 -1.3441
14761TIP3    H265699   4.102   3.352   0.979  0.1382 -0.2777  0.9885
14762TIP3   OH265700   3.632   6.169   4.307 -0.0163  0.0134 -0.2816
14762TIP3    H165701   3.707   6.227   4.319  1.2142 -1.5451 -0.2576
14762TIP3    H265702   3.602   6.150   4.396 -1.1114  1.4306 -0.3123
14763TIP3   OH265703   5.992   0.601   2.251  0.3885 -0.2304  0.3759
14763TIP3    H165704   5.950   0.679   2.289 -0.8213 -0.9914  0.6463
14763TIP3    H265705   6.077   0.633   2.220 -0.1345  1.2321  0.3564
14764TIP3   OH265706   3.386   3.023   5.622  0.1639 -0.6181  0.1742
14764TIP3    H165707   3.348   2.945   5.662  0.0556 -0.1287  1.0382
14764TIP3    H265708   3.480   3.015   5.639  0.7844 -2.5929 -3.2498
14765TIP3   OH265709   4.999   1.625  14.245  0.6139 -0.1638 -0.6413
14765TIP3    H165710   4.948   1.683  14.301  3.6099  2.4299 -0.3312
14765TIP3    H265711   4.933   1.580  14.191 -2.0265  1.6585  0.8276
14766TIP3   OH265712   4.166   0.118   5.485  0.1442  0.4413  0.7542
14766TIP3    H165713   4.102   0.139   5.552  0.8824  1.4803  1.1630
14766TIP3    H265714   4.182   0.024   5.496 -1.9620 -0.0637  0.0126
14767TIP3   OH265715   3.246   3.608  13.883  0.2882  0.4868 -0.0677
14767TIP3    H165716   3.335   3.640  13.890  0.5186 -0.2113  0.2068
14767TIP3    H265717   3.212   3.609  13.972  0.2930 -0.0140 -0.0579
14768TIP3   OH265718   2.077   4.309   1.567  0.1057 -0.0923  0.0823
14768TIP3    H165719   2.171   4.314   1.552 -0.0615  0.5639 -0.7925
14768TIP3    H265720   2.038   4.348   1.489 -0.8693  0.9718  1.0673
14769TIP3   OH265721   5.133   2.507   0.956  0.1480 -0.9289 -0.0550
14769TIP3    H165722   5.175   2.507   1.042 -0.6347 -0.0499  0.3450
14769TIP3    H265723   5.042   2.479   0.974 -0.3294  0.3514 -0.4127
14770TIP3   OH265724   0.443   5.476  12.313  0.3448 -0.1944 -0.1082
14770TIP3    H165725   0.416   5.425  12.390  1.7721  0.7048  1.0444
14770TIP3    H265726   0.534   5.449  12.298  0.3013  0.1613 -1.0542
14771TIP3   OH265727   2.159   6.430  14.702 -0.1698 -0.4234 -0.3455
14771TIP3    H165728   2.181   6.361  14.639 -1.5424 -1.0752 -0.1590
14771TIP3    H265729   2.072   6.460  14.674  0.3373  1.1395 -0.3238
14772TIP3   OH265730   4.665   6.914   2.873  0.4042  0.4161 -0.5636
14772TIP3    H165731   4.684   7.001   2.908 -1.8926  0.7928 -0.0886
14772TIP3    H265732   4.676   6.855   2.948 -0.4519  0.6596 -0.2329
14773TIP3   OH265733   4.251   4.286   0.270 -0.3282  0.0419 -0.3166
14773TIP3    H165734   4.342   4.269   0.246 -0.4038  0.2855 -0.7822
14773TIP3    H265735   4.206   4.202   0.256  0.2866 -0.7807  2.2441
14774TIP3   OH265736   5.813   3.503   3.225 -0.0926  0.2088 -0.0722
14774TIP3    H165737   5.872   3.441   3.267  0.5434 -1.0089 -2.5850
14774TIP3    H265738   5.871   3.562   3.176 -0.8251  1.1198  0.1167
14775TIP3   OH265739   2.080   4.689   1.466 -0.0443 -0.2989 -0.0333
14775TIP3    H165740   2.136   4.697   1.390 -0.8773 -1.7328 -0.8438
14775TIP3    H265741   1.991   4.683   1.431 -0.6017  0.5429  1.1380
14776TIP3   OH265742   6.606   2.638   1.067  0.3412  0.1565  0.0357
14776TIP3    H165743   6.533   2.700   1.065 -0.0696 -0.3427 -0.9559
14776TIP3    H265744   6.566   2.554   1.091  0.6342 -0.0578 -0.2193
14777TIP3   OH265745   3.971   3.648  11.223  0.0065  0.5818  0.2019
14777TIP3    H165746   3.983   3.640  11.128 -1.7746  0.7893 -0.0685
14777TIP3    H265747   4.032   3.718  11.249  1.3663 -0.2673 -0.5661
14778TIP3   OH265748   1.472   4.352   0.433 -0.2804 -0.6752  0.2888
14778TIP3    H165749   1.482   4.304   0.351  1.7469 -2.0249  1.2254
14778TIP3    H265750   1.399   4.309   0.478 -2.4282  1.0349 -1.3352
14779TIP3   OH265751   5.778   2.907   4.721 -0.0723 -0.6063 -0.4897
14779TIP3    H165752   5.731   2.958   4.654  0.3558 -0.8592 -0.9902
14779TIP3    H265753   5.799   2.971   4.789 -0.2657 -0.2863 -0.7271
14780TIP3   OH265754   2.163   5.718  15.443  0.3201 -0.3553 -0.1646
14780TIP3    H165755   2.244   5.739  15.489 -1.0178 -1.1155  2.7433
14780TIP3    H265756   2.129   5.804  15.416  1.1110  0.1396  0.3595
14781TIP3   OH265757   5.175   2.663   5.002  0.0045 -0.3818  0.6603
14781TIP3    H165758   5.227   2.602   4.949 -1.2543 -1.0310  0.1358
14781TIP3    H265759   5.147   2.730   4.939  0.5901  0.2444  1.0452
14782TIP3   OH265760   0.457   6.649  12.623 -0.2797  0.0675  0.0833
14782TIP3    H165761   0.457   6.617  12.533 -0.1669 -1.1792  0.5022
14782TIP3    H265762   0.468   6.570  12.676  4.8554  1.1419  1.1020
14783TIP3   OH265763   2.511   5.864   1.797  0.0508 -0.4716  0.0044
14783TIP3    H165764   2.515   5.780   1.844 -0.3885 -0.7897 -0.5133
14783TIP3    H265765   2.593   5.867   1.748 -0.0275 -0.6967 -0.1416
14784TIP3   OH265766   1.768   6.138   4.528 -0.0952  0.3547  0.0598
14784TIP3    H165767   1.697   6.075   4.518  0.0073  0.0144  1.2762
14784TIP3    H265768   1.728   6.223   4.509 -0.1188 -0.0827 -2.0801
14785TIP3   OH265769   5.602   2.060   2.007 -0.9758 -0.1095  0.0145
14785TIP3    H165770   5.554   2.119   1.948 -0.8412  2.7618  2.5067
14785TIP3    H265771   5.691   2.057   1.972 -1.4586 -0.4276 -1.2216
14786TIP3   OH265772   4.507   0.158   4.112  0.0840  0.1929  0.4625
14786TIP3    H165773   4.502   0.253   4.099 -1.3839  0.3791  2.0822
14786TIP3    H265774   4.440   0.122   4.054 -1.7418  0.4804  2.2743
14787TIP3   OH265775   4.914   4.213  11.104  0.2646  0.0053  0.5170
14787TIP3    H165776   4.890   4.186  11.015 -0.0927  1.0857  0.2650
14787TIP3    H265777   5.006   4.191  11.112  0.1486 -0.6708  0.1035
14788TIP3   OH265778   0.927   1.724  10.109  0.2998  0.1530 -0.3250
14788TIP3    H165779   0.965   1.679  10.034  1.3113  2.0864 -1.0568
14788TIP3    H265780   1.002   1.744  10.165 -0.2043  0.3535  0.2918
14789TIP3   OH265781   1.672   2.319   0.482  0.0042  0.0066 -0.4348
14789TIP3    H165782   1.580   2.343   0.482  0.5219  2.1711  0.2627
14789TIP3    H265783   1.673   2.229   0.516 -1.6784  0.8013  1.9566
14790TIP3   OH265784   1.467   4.637  11.922 -0.3356 -0.2885  0.5882
14790TIP3    H165785   1.440   4.548  11.899 -2.0212  0.5871 -0.9985
14790TIP3    H265786   1.556   4.645  11.887 -0.1211 -1.3655  0.8573
14791TIP3   OH265787   2.876   5.992  15.401  0.2955  0.2411 -0.7298
14791TIP3    H165788   2.903   5.968  15.489  0.9482 -1.9245 -1.4534
14791TIP3    H265789   2.906   5.919  15.346  0.0981  1.6128 -2.7743
14792TIP3   OH265790   3.925   3.883   0.114  0.1653  0.2500  0.0086
14792TIP3    H165791   3.835   3.913   0.122 -0.5922 -1.5577 -1.3259
14792TIP3    H265792   3.919   3.791   0.089  2.3852  0.0939 -0.2018
14793TIP3   OH265793   0.033   6.165  12.408  0.7939  0.1280  0.3679
14793TIP3    H165794  -0.055   6.176  12.374  0.1281 -2.2372  1.1318
14793TIP3    H265795   0.035   6.217  12.488 -0.1202 -0.2497  0.6439
14794TIP3   OH265796   0.714   5.422   5.317  0.5005  0.3590 -0.6010
14794TIP3    H165797   0.791   5.420   5.260  0.7277 -2.4307 -0.3587
14794TIP3    H265798   0.749   5.427   5.406  0.3301  0.7669 -0.5567
14795TIP3   OH265799   0.315   6.436  14.487 -0.4819 -0.1226  0.1548
14795TIP3    H165800   0.401   6.475  14.468  0.8181 -2.2516  1.2414
14795TIP3    H265801   0.282   6.486  14.562  0.2495  0.1424  0.3129
14796TIP3   OH265802   3.804   4.023   1.072 -0.0545 -0.0372 -0.5999
14796TIP3    H165803   3.869   4.000   1.139 -1.8168 -1.6924  0.6393
14796TIP3    H265804   3.721   3.988   1.105 -1.0795 -0.6640 -3.4974
14797TIP3   OH265805   3.294   2.417  14.789  0.4874  0.3592 -0.2443
14797TIP3    H165806   3.346   2.379  14.719  1.3292  3.3712 -1.4120
14797TIP3    H265807   3.213   2.445  14.747 -1.3114 -2.3079  1.1299
14798TIP3   OH265808   4.122   2.513   4.320  0.1490 -0.5688 -0.2448
14798TIP3    H165809   4.200   2.527   4.375  0.7913  0.7880 -1.4387
14798TIP3    H265810   4.148   2.544   4.233 -1.5989 -0.5001 -0.7770
14799TIP3   OH265811   4.216   2.169   0.566 -0.1108 -0.2573  0.0748
14799TIP3    H165812   4.185   2.259   0.574 -0.0770 -0.3713  1.6942
14799TIP3    H265813   4.236   2.159   0.472 -0.0378  1.4321 -0.1186
14800TIP3   OH265814   3.908   0.884   4.736  0.0789  0.0371  0.4507
14800TIP3    H165815   3.921   0.790   4.751 -0.2841 -0.2221 -0.7169
14800TIP3    H265816   3.967   0.927   4.797  0.9938 -0.9820  0.3094
14801TIP3   OH265817   0.764   0.118  11.504  0.0973  0.0861  0.0678
14801TIP3    H165818   0.707   0.126  11.580  1.6828 -1.2860  1.4588
14801TIP3    H265819   0.719   0.056  11.447 -1.0373  1.0206 -0.1122
14802TIP3   OH265820   3.573   5.433   1.352 -0.1216 -0.5235 -0.3742
14802TIP3    H165821   3.518   5.476   1.286 -1.1985 -0.7061  0.3802
14802TIP3    H265822   3.660   5.472   1.339 -0.8093  1.0647 -0.4577
14803TIP3   OH265823   3.396   4.828   1.073 -0.0149  0.1739  0.0824
14803TIP3    H165824   3.470   4.887   1.088  0.2192  0.2933 -1.4063
14803TIP3    H265825   3.381   4.787   1.159 -0.6452  2.8493  1.3314
14804TIP3   OH265826   2.200   4.632  12.022 -0.2418  0.2264  0.4206
14804TIP3    H165827   2.115   4.590  12.005 -1.8212  3.5569 -0.8288
14804TIP3    H265828   2.210   4.627  12.117  0.1251 -3.4847  0.3437
14805TIP3   OH265829   0.175   4.166   4.006 -0.2433 -0.1861  0.0058
14805TIP3    H165830   0.183   4.081   3.962 -0.7897 -0.2419  0.0037
14805TIP3    H265831   0.259   4.178   4.050 -1.0060 -1.9800  2.2222
14806TIP3   OH265832   1.220   2.909  12.093 -0.5099 -0.6021 -0.1955
14806TIP3    H165833   1.136   2.944  12.125  0.1704  0.5612  0.3977
14806TIP3    H265834   1.264   2.986  12.056  0.7032 -0.9994  0.3987
14807TIP3   OH265835   0.076   6.200   5.032  0.4383  0.1414  0.1948
14807TIP3    H165836   0.097   6.255   4.956  0.1760 -1.5067 -1.1291
14807TIP3    H265837   0.132   6.123   5.022 -0.5461 -0.7068  0.9564
14808TIP3   OH265838   0.960   4.552  10.372  0.1655 -0.5574 -0.3130
14808TIP3    H165839   1.049   4.573  10.403 -0.2202  0.1020  0.3713
14808TIP3    H265840   0.902   4.590  10.438 -0.6269 -1.2983 -0.5646
14809TIP3   OH265841   4.413   2.515   0.816 -0.2995  0.7260  0.1591
14809TIP3    H165842   4.487   2.526   0.876 -1.5243  1.8279  1.5147
14809TIP3    H265843   4.426   2.427   0.779  0.0443 -0.3913  2.7047
14810TIP3   OH265844   2.405   5.575   2.348 -0.3639 -0.2880 -0.3996
14810TIP3    H165845   2.396   5.620   2.433  0.7834 -0.4139 -0.2038
14810TIP3    H265846   2.315   5.567   2.317 -0.6904  1.1538  0.0764
14811TIP3   OH265847   0.259   1.938  13.127 -0.0807 -0.2531 -0.2305
14811TIP3    H165848   0.310   1.896  13.197  0.5258 -2.0408 -1.6442
14811TIP3    H265849   0.265   2.031  13.146  1.2168 -0.5875  1.3236
14812TIP3   OH265850   6.023   4.838   3.113  0.0838 -0.0988  0.3898
14812TIP3    H165851   6.087   4.785   3.067 -1.1048 -0.9421 -0.3712
14812TIP3    H265852   5.978   4.887   3.044 -0.5430 -0.0332  0.8319
14813TIP3   OH265853   1.088   5.768   4.556 -0.3484 -0.2636 -0.1555
14813TIP3    H165854   1.037   5.813   4.623 -1.8528 -2.7541  0.5288
14813TIP3    H265855   1.142   5.706   4.604  0.3768 -0.3984 -1.1206
14814TIP3   OH265856   5.050   4.835  14.065  0.4261 -0.2710 -0.0935
14814TIP3    H165857   5.057   4.748  14.024  0.8205  0.6804 -2.1595
14814TIP3    H265858   5.127   4.841  14.121  0.9928 -0.8284 -0.7964
14815TIP3   OH265859   4.016   1.389  12.811 -0.5256 -0.0581  0.0079
14815TIP3    H165860   3.965   1.469  12.825  1.5284  1.2082  0.5283
14815TIP3    H265861   4.100   1.406  12.851  0.1224 -2.3621 -0.2242
14816TIP3   OH265862   1.787   0.442   4.644 -0.0096 -0.9094  0.1973
14816TIP3    H165863   1.705   0.491   4.653  1.8030  2.5016 -0.2828
14816TIP3    H265864   1.831   0.482   4.569  3.5919 -0.1313  2.4557
14817TIP3   OH265865   2.397   6.648   5.698  0.6717 -0.5040 -0.0261
14817TIP3    H165866   2.427   6.687   5.616 -0.4419  2.0562  0.6808
14817TIP3    H265867   2.475   6.646   5.754  0.9626 -0.2824 -0.4188
14818TIP3   OH265868   2.067   6.678   2.855 -0.4421  0.0286 -0.5604
14818TIP3    H165869   2.048   6.622   2.930  0.4628 -0.8995 -0.9815
14818TIP3    H265870   2.024   6.634   2.781 -1.9313  1.3119 -0.5059
14819TIP3   OH265871   0.924   1.576  11.062 -0.1847 -0.3737 -0.1704
14819TIP3    H165872   0.849   1.635  11.065  0.2871  0.2518 -0.3112
14819TIP3    H265873   0.919   1.534  10.976  0.0060  0.1909 -0.4654
14820TIP3   OH265874   3.118   2.472  13.098  0.1448 -0.3705  0.0906
14820TIP3    H165875   3.153   2.557  13.125 -1.5818 -0.0005  1.3066
14820TIP3    H265876   3.045   2.494  13.040 -0.3968 -1.0102  0.5163
14821TIP3   OH265877   0.381   6.612   0.887 -0.1010  0.4729 -0.0157
14821TIP3    H165878   0.453   6.643   0.831 -0.8501  0.8742 -0.7765
14821TIP3    H265879   0.334   6.549   0.833 -1.0616  1.1477  0.0229
14822TIP3   OH265880   0.952   6.534   4.379 -0.3446 -0.0987 -0.6716
14822TIP3    H165881   0.989   6.454   4.416  0.5859 -0.3683 -2.1344
14822TIP3    H265882   0.857   6.524   4.393 -0.1550 -0.9025  0.1917
14823TIP3   OH265883   1.282   6.765   4.346 -0.1738  0.0958  0.1245
14823TIP3    H165884   1.240   6.850   4.362  0.2842  0.6467 -1.4136
14823TIP3    H265885   1.376   6.785   4.342  0.2791 -1.0026  2.7772
14824TIP3   OH265886   2.528   2.970  10.273 -0.0478 -0.0772  0.6425
14824TIP3    H165887   2.523   2.882  10.236  1.6972 -0.0187  0.1732
14824TIP3    H265888   2.448   3.013  10.243 -1.0113 -1.5287  1.0164
14825TIP3   OH265889   0.345   1.049   4.497  0.0410  0.4096 -0.0948
14825TIP3    H165890   0.297   0.988   4.553  1.2953 -1.1827 -0.6460
14825TIP3    H265891   0.279   1.085   4.438 -0.4820 -2.0508 -1.1355
14826TIP3   OH265892   0.970   3.321  13.810  0.3989  1.0601 -0.0037
14826TIP3    H165893   0.937   3.388  13.870 -0.1867  0.3803  0.4634
14826TIP3    H265894   0.906   3.318  13.739  1.1797  1.9792 -0.7662
14827TIP3   OH265895   1.547   5.114  11.667 -0.6471 -0.9686  0.2820
14827TIP3    H165896   1.553   5.035  11.612  0.5060 -0.5908 -0.1500
14827TIP3    H265897   1.477   5.166  11.627  0.6652 -0.3640 -1.2823
14828TIP3   OH265898   6.974   6.423   1.143  0.1922  0.4728  0.3240
14828TIP3    H165899   7.022   6.365   1.202 -1.0482  0.5567  1.4435
14828TIP3    H265900   7.025   6.504   1.142  2.0393 -0.6007 -1.3813
14829TIP3   OH265901   0.286   4.902   0.687  0.5221  0.5504  0.5807
14829TIP3    H165902   0.318   4.836   0.626  0.1726  0.9658 -0.0624
14829TIP3    H265903   0.301   4.864   0.774  0.0047 -0.5251  0.2179
14830TIP3   OH265904   6.546   2.688   3.228 -0.2055  0.5491 -0.0968
14830TIP3    H165905   6.482   2.684   3.157  0.3856 -2.4047 -0.6115
14830TIP3    H265906   6.629   2.665   3.186  0.4453  0.3254  1.2649
14831TIP3   OH265907   3.469   0.186   3.898 -0.3145  0.1990  0.1233
14831TIP3    H165908   3.525   0.264   3.894 -1.3272  0.9325 -0.0546
14831TIP3    H265909   3.519   0.124   3.952  0.9387  0.6020 -0.5291
14832TIP3   OH265910   6.623   6.264  13.896 -0.3409 -0.1265 -0.0993
14832TIP3    H165911   6.556   6.226  13.838 -1.7228 -0.3074  1.5499
14832TIP3    H265912   6.675   6.189  13.924 -0.5907 -0.2498  0.0407
14833TIP3   OH265913   2.684   0.876   2.015 -0.1271 -0.0881  0.1390
14833TIP3    H165914   2.659   0.846   1.928 -2.8126 -0.3428  0.9054
14833TIP3    H265915   2.667   0.971   2.013 -1.5749 -0.3112  0.7639
14834TIP3   OH265916   4.277   2.485   5.258  0.2427  0.1549  0.5742
14834TIP3    H165917   4.329   2.404   5.264 -0.4617 -0.4320 -0.7754
14834TIP3    H265918   4.241   2.497   5.346  0.2696 -1.0803  0.7716
14835TIP3   OH265919   2.120   5.905  12.396  0.5609 -0.1221  0.6318
14835TIP3    H165920   2.150   5.980  12.447  0.7525 -1.7544  3.0835
14835TIP3    H265921   2.061   5.858  12.455  0.9001 -2.2169 -0.5939
14836TIP3   OH265922   4.728   1.667   3.233  0.0631  0.0303  0.2093
14836TIP3    H165923   4.780   1.745   3.214  0.9358 -0.3883  0.8008
14836TIP3    H265924   4.683   1.688   3.315  0.0961  0.0165  0.2310
14837TIP3   OH265925   4.684   0.271   0.316 -0.1472  0.3466  0.3728
14837TIP3    H165926   4.756   0.236   0.368 -1.0561 -1.6368  0.3791
14837TIP3    H265927   4.605   0.248   0.365 -0.9474 -0.2419 -1.1077
14838TIP3   OH265928   4.241   2.391  15.621  0.1941 -0.1014  0.7014
14838TIP3    H165929   4.305   2.363  15.556  0.3360  1.9980 -0.1712
14838TIP3    H265930   4.261   2.484  15.635 -0.3518 -0.2942  3.1729
14839TIP3   OH265931   2.357   3.584   2.773  0.9411  0.3131  0.1621
14839TIP3    H165932   2.275   3.575   2.724  1.4147 -0.7227 -0.4811
14839TIP3    H265933   2.365   3.678   2.789  0.8884  0.7353 -2.0116
14840TIP3   OH265934   3.950   6.446  12.713 -0.2356  0.0119 -0.4651
14840TIP3    H165935   3.864   6.469  12.750  0.1394  0.9182 -0.1193
14840TIP3    H265936   3.931   6.413  12.626 -0.7658  2.9513 -1.5799
14841TIP3   OH265937   1.900   5.035   0.600  0.4387 -0.1764  0.0678
14841TIP3    H165938   1.879   5.016   0.509  0.3398  1.4553 -0.2898
14841TIP3    H265939   1.844   5.110   0.623  0.4665 -0.5542  1.4685
14842TIP3   OH265940   4.988   2.002   0.302  0.6659  0.3094 -0.5162
14842TIP3    H165941   4.957   1.915   0.280 -1.0115  0.9093 -0.6494
14842TIP3    H265942   5.055   2.022   0.236  0.5383 -0.5765 -0.9215
14843TIP3   OH265943   4.345   6.158  12.429  0.0195 -0.1604 -0.0183
14843TIP3    H165944   4.412   6.148  12.496 -0.0313  0.6170  0.1639
14843TIP3    H265945   4.390   6.140  12.347  0.0666 -1.1904  0.2157
14844TIP3   OH265946   0.193   3.245   0.462  0.7760  0.0707 -0.0295
14844TIP3    H165947   0.182   3.279   0.551  0.2476 -0.5384  0.1414
14844TIP3    H265948   0.269   3.293   0.428  1.1970  0.0608  0.8682
14845TIP3   OH265949   0.494   7.083   3.774  0.1541  0.0233 -0.2311
14845TIP3    H165950   0.587   7.090   3.796  0.1100 -0.0088 -0.0330
14845TIP3    H265951   0.491   7.020   3.702  0.1380 -1.1841  0.7890
14846TIP3   OH265952   2.582   1.882   4.790 -0.2133  0.6042 -0.1757
14846TIP3    H165953   2.583   1.854   4.881 -2.0111  1.0932  0.0249
14846TIP3    H265954   2.671   1.915   4.774  0.0759  0.6973  1.4514
14847TIP3   OH265955   2.575   2.327  14.329 -0.2881  0.0245  0.2552
14847TIP3    H165956   2.494   2.348  14.375 -0.8873 -1.6054  0.0108
14847TIP3    H265957   2.564   2.365  14.242 -0.9587 -0.5011  0.1034
14848TIP3   OH265958   4.030   4.739  12.748  0.1243 -0.0854  0.1892
14848TIP3    H165959   4.106   4.729  12.691  1.0314  0.2116  1.3054
14848TIP3    H265960   3.963   4.683  12.708 -0.1861  2.0799 -2.5999
14849TIP3   OH265961   4.015   3.220   1.701 -0.7804 -0.3289  0.3867
14849TIP3    H165962   3.926   3.195   1.678 -0.8234 -1.2939  1.5066
14849TIP3    H265963   4.005   3.298   1.757 -1.1459 -1.8342  2.5595
14850TIP3   OH265964   0.400   1.033  14.652  0.6080  0.1774  0.2233
14850TIP3    H165965   0.337   0.978  14.607  1.0976 -1.6703  1.6824
14850TIP3    H265966   0.348   1.085  14.714  0.5047 -2.2715  2.3537
14851TIP3   OH265967   6.633   5.976   2.906 -0.2770 -0.2535 -0.0499
14851TIP3    H165968   6.663   6.063   2.933  1.4023 -1.0120  0.6908
14851TIP3    H265969   6.713   5.927   2.888 -1.1940 -1.5699 -0.7635
14852TIP3   OH265970   5.369   7.032   5.749  0.3890  0.5635 -0.3356
14852TIP3    H165971   5.346   7.010   5.659  0.3322  0.6255 -0.3358
14852TIP3    H265972   5.416   6.954   5.781 -0.0323  0.3372 -0.2556
14853TIP3   OH265973   6.601   4.851   4.320  0.5814  0.8353  0.1046
14853TIP3    H165974   6.673   4.862   4.257  2.1044 -0.6226  1.4884
14853TIP3    H265975   6.551   4.777   4.285  0.1538  1.3829 -0.4728
14854TIP3   OH265976   6.768   4.214   3.911 -0.5009  0.3989  0.0158
14854TIP3    H165977   6.862   4.231   3.915 -0.2412 -1.0322  0.4880
14854TIP3    H265978   6.743   4.193   4.001 -1.6991  2.6872  0.2953
14855TIP3   OH265979   2.203   4.984   4.915 -0.1775  0.5838 -0.2152
14855TIP3    H165980   2.296   4.960   4.920 -0.4982 -1.2364 -1.7829
14855TIP3    H265981   2.192   5.051   4.982  1.6685 -1.1315  1.9808
14856TIP3   OH265982   3.253   4.126   3.090  0.7775  0.1335 -0.3562
14856TIP3    H165983   3.196   4.134   3.166  0.4211  2.9642 -0.8180
14856TIP3    H265984   3.332   4.174   3.114  0.8953  0.5583 -1.5358
14857TIP3   OH265985   3.004   5.478  14.891  0.6659 -0.1441  0.7149
14857TIP3    H165986   3.073   5.535  14.924  1.1268 -0.1671 -0.1876
14857TIP3    H265987   3.019   5.473  14.797 -0.6352 -0.0582  0.4802
14858TIP3   OH265988   1.363   1.190   4.154 -0.2617 -0.3184  0.1506
14858TIP3    H165989   1.457   1.176   4.139 -0.3800 -0.7088 -0.2473
14858TIP3    H265990   1.327   1.209   4.068 -0.9443 -2.5626 -0.1368
14859TIP3   OH265991   4.152   3.884   3.218  0.0824  0.2763 -1.4365
14859TIP3    H165992   4.207   3.959   3.195 -0.6048  1.4134  0.3968
14859TIP3    H265993   4.081   3.885   3.154  0.8199  0.3020 -2.2813
14860TIP3   OH265994   7.114   3.101   3.430 -0.2919 -0.1930  0.6098
14860TIP3    H165995   7.051   3.171   3.413 -0.0988 -0.0421  0.5069
14860TIP3    H265996   7.117   3.051   3.348 -2.0719 -1.6648  1.3623
14861TIP3   OH265997   4.500   5.620   4.968 -0.2813 -0.2535  0.2372
14861TIP3    H165998   4.537   5.692   4.917  3.0527 -2.2021 -0.4140
14861TIP3    H265999   4.526   5.640   5.058 -0.1662 -0.1669  0.1859
14862TIP3   OH266000   5.804   0.390  13.686 -0.3804 -0.4072  0.3991
14862TIP3    H166001   5.738   0.443  13.731  0.9153  2.6161 -1.0138
14862TIP3    H266002   5.767   0.375  13.599  0.1717  0.0685  0.0778
14863TIP3   OH266003   6.336   4.293  11.295  0.2215  0.0565 -0.4037
14863TIP3    H166004   6.400   4.276  11.364  0.6503 -1.6966 -1.1852
14863TIP3    H266005   6.298   4.378  11.319 -0.0490 -0.7229  2.2693
14864TIP3   OH266006   6.192   6.440   5.109  0.2733 -0.6767 -0.2490
14864TIP3    H166007   6.176   6.355   5.066 -0.4842  0.1765 -1.7346
14864TIP3    H266008   6.258   6.483   5.056 -0.8832  0.5233 -0.7781
14865TIP3   OH266009   6.497   6.888  14.306  0.7005 -0.0292 -0.2124
14865TIP3    H166010   6.582   6.880  14.264  0.4275  0.8849 -0.9563
14865TIP3    H266011   6.454   6.961  14.262 -0.0199  0.2700  0.9363
14866TIP3   OH266012   4.271   5.533  14.014  0.0536 -0.8864  0.6220
14866TIP3    H166013   4.316   5.552  14.096 -0.8093 -2.6732  1.5752
14866TIP3    H266014   4.204   5.469  14.038 -1.0823 -0.4884 -1.2589
14867TIP3   OH266015   6.419   3.367   1.221 -0.3304  0.0502  0.6189
14867TIP3    H166016   6.458   3.309   1.156  0.8164  0.8269  0.5836
14867TIP3    H266017   6.325   3.367   1.200 -0.1167 -0.5060 -0.3821
14868TIP3   OH266018   0.974   2.563   4.123  0.1990  0.3660 -0.1671
14868TIP3    H166019   0.936   2.612   4.051  0.9217  0.1746 -0.6940
14868TIP3    H266020   1.069   2.572   4.110  0.3388 -0.8414 -0.0590
14869TIP3   OH266021   6.847   0.924   0.345  0.2741  0.6116  0.1355
14869TIP3    H166022   6.841   0.876   0.428  0.5316 -1.2137 -0.8602
14869TIP3    H266023   6.756   0.948   0.325  0.2039  1.0181  0.9049
14870TIP3   OH266024   4.161   0.605  14.204 -0.3839 -0.6449 -0.4373
14870TIP3    H166025   4.085   0.638  14.156 -0.3901 -0.4981 -0.3251
14870TIP3    H266026   4.211   0.683  14.227  1.1484 -0.8501 -2.7109
14871TIP3   OH266027   6.800   2.291  15.191 -0.2445  0.4466  0.7577
14871TIP3    H166028   6.720   2.337  15.164 -0.3571 -0.3249 -0.2262
14871TIP3    H266029   6.829   2.340  15.269 -1.2948  1.1466  0.7366
14872TIP3   OH266030   2.999   5.158  13.926  0.6260  0.3386  0.8194
14872TIP3    H166031   3.054   5.150  13.848  0.5827  0.0111  0.8205
14872TIP3    H266032   3.048   5.215  13.985  1.0578 -0.1082  0.8987
14873TIP3   OH266033   4.417   3.847  12.625  0.2206  0.2718  0.0193
14873TIP3    H166034   4.370   3.886  12.551  0.6841  1.0202  0.1126
14873TIP3    H266035   4.442   3.760  12.594 -0.8534  0.0125 -0.1785
14874TIP3   OH266036   2.477   3.190   1.708 -0.5245 -0.3532  0.7081
14874TIP3    H166037   2.487   3.282   1.684 -0.8549 -0.1664  1.2597
14874TIP3    H266038   2.528   3.142   1.643 -0.4269  0.2142  0.3621
14875TIP3   OH266039   5.457   2.630  11.028  0.2805  0.2398 -0.5653
14875TIP3    H166040   5.514   2.619  10.952 -2.1723 -0.5956 -2.4131
14875TIP3    H266041   5.431   2.541  11.052 -1.7077  0.6533 -1.0097
14876TIP3   OH266042   3.771   3.750   4.801  0.2843  0.5557 -0.4693
14876TIP3    H166043   3.789   3.743   4.895 -0.0279  0.2783 -0.4300
14876TIP3    H266044   3.794   3.841   4.779  0.4900  0.5813 -0.1556
14877TIP3   OH266045   1.918   6.048  11.793 -0.0282 -0.1351  0.2564
14877TIP3    H166046   1.870   5.966  11.794 -1.1750  0.5036  0.8956
14877TIP3    H266047   1.890   6.093  11.873  1.9731  0.1049  0.8809
14878TIP3   OH266048   5.232   6.285   1.392 -0.2085 -0.1260 -0.0511
14878TIP3    H166049   5.219   6.372   1.430  0.2305  0.2650 -0.7882
14878TIP3    H266050   5.185   6.286   1.309 -0.9186 -0.8873  0.3222
14879TIP3   OH266051   6.857   0.547   3.115  0.8248  0.0425 -0.4562
14879TIP3    H166052   6.792   0.617   3.117 -0.0316 -0.7358 -0.3654
14879TIP3    H266053   6.926   0.576   3.174  0.1131  0.4637  0.1795
14880TIP3   OH266054   2.669   6.164  15.346 -0.3197  0.1821  0.4203
14880TIP3    H166055   2.728   6.116  15.404 -1.3277 -0.4434  0.9693
14880TIP3    H266056   2.622   6.224  15.403  0.7724  1.7151 -0.2315
14881TIP3   OH266057   5.710   4.968  14.844 -0.2132 -0.0443  0.1332
14881TIP3    H166058   5.615   4.982  14.843 -0.3129 -0.7158 -0.1335
14881TIP3    H266059   5.747   5.052  14.818 -0.7840 -0.1105 -0.9543
14882TIP3   OH266060   3.790   3.924  10.746  0.1067  0.0957 -0.0492
14882TIP3    H166061   3.743   3.853  10.790  0.1552  0.1999  0.1729
14882TIP3    H266062   3.723   3.971  10.697 -0.2058  0.8594  1.0716
14883TIP3   OH266063   6.594   3.055  14.189 -0.3321  0.4801  0.3439
14883TIP3    H166064   6.608   3.133  14.135 -0.9824  0.5816  0.3197
14883TIP3    H266065   6.550   3.088  14.267 -1.7447 -0.0336 -0.2144
14884TIP3   OH266066   2.978   5.517  12.831  0.4262  0.2540 -0.0433
14884TIP3    H166067   2.941   5.436  12.795  0.8356  0.1431 -0.2214
14884TIP3    H266068   3.073   5.502  12.831  0.3928 -0.5442  2.9122
14885TIP3   OH266069   2.973   3.978  12.369 -0.1423 -0.1062  0.3729
14885TIP3    H166070   2.994   4.047  12.305  0.2775 -0.1358  0.4764
14885TIP3    H266071   3.005   4.013  12.452  0.2599 -0.5132  0.3917
14886TIP3   OH266072   1.022   6.776  14.136 -0.4795  0.1242 -0.4100
14886TIP3    H166073   0.998   6.723  14.060 -0.7497  0.3916 -0.5173
14886TIP3    H266074   0.956   6.846  14.137  0.0961  0.6764 -0.5016
14887TIP3   OH266075   4.882   4.455   2.959 -0.2116 -0.2796 -0.1392
14887TIP3    H166076   4.950   4.496   3.013 -1.8609 -0.3888  2.1797
14887TIP3    H266077   4.928   4.423   2.881  2.1445  0.7077  0.7764
14888TIP3   OH266078   4.048   5.371   4.756 -0.5607 -0.9208  0.3263
14888TIP3    H166079   4.131   5.408   4.726 -0.6246 -0.7640  0.3449
14888TIP3    H266080   4.013   5.325   4.680 -1.1461  0.2105 -0.0977
14889TIP3   OH266081   6.570   0.613   5.007  0.1770  0.5097 -0.4499
14889TIP3    H166082   6.612   0.574   5.083 -0.5135 -2.1481 -1.3172
14889TIP3    H266083   6.595   0.556   4.934 -1.4096  1.3424 -1.7103
14890TIP3   OH266084   6.887   2.687   2.493 -0.5382 -0.5889  0.2671
14890TIP3    H166085   6.953   2.631   2.532 -0.7202  0.3258  1.9924
14890TIP3    H266086   6.820   2.696   2.561 -1.9776 -0.7258 -1.0811
14891TIP3   OH266087   4.889   2.971   2.784  0.4790 -0.1571 -0.2180
14891TIP3    H166088   4.881   2.896   2.726 -0.6874  0.5806 -1.0358
14891TIP3    H266089   4.949   3.031   2.739 -0.3420  0.3692 -0.6174
14892TIP3   OH266090   1.997   4.200   4.316 -0.1123 -0.4161 -0.7994
14892TIP3    H166091   1.912   4.179   4.353  0.4702  0.1461  0.9657
14892TIP3    H266092   2.032   4.116   4.287 -1.0148 -0.7336 -1.0012
14893TIP3   OH266093   2.962   2.203   0.336  0.1509 -0.4395  0.0140
14893TIP3    H166094   3.025   2.200   0.407 -1.0104  0.3779  1.1245
14893TIP3    H266095   3.007   2.250   0.266  0.5821  0.6790  1.0134
14894TIP3   OH266096   0.324   0.085   2.303  0.8532  0.5316  0.7503
14894TIP3    H166097   0.257   0.022   2.274  1.2907  0.2791  0.2703
14894TIP3    H266098   0.305   0.099   2.395  1.2414 -0.9480  1.0847
14895TIP3   OH266099   2.402   4.641  13.339 -0.4949 -0.4117 -0.1813
14895TIP3    H166100   2.489   4.658  13.376 -0.3460  0.2927 -0.8470
14895TIP3    H266101   2.354   4.598  13.410  0.7239 -1.7831 -0.1379
14896TIP3   OH266102   3.956   5.359  12.081  0.6448 -0.1181 -0.5593
14896TIP3    H166103   4.029   5.378  12.022  0.9586 -0.3304 -0.2463
14896TIP3    H266104   3.949   5.438  12.136  0.5130 -0.0200 -0.7170
14897TIP3   OH266105   3.972   5.079   0.341 -0.2333 -0.7626  0.3810
14897TIP3    H166106   4.044   5.142   0.344 -0.1781 -0.8025 -0.0471
14897TIP3    H266107   4.012   4.996   0.369 -0.2634 -0.6477  0.7675
14898TIP3   OH266108   3.230   0.679   4.620 -0.3791 -0.3974 -0.3535
14898TIP3    H166109   3.280   0.703   4.542  0.6229  0.2808  0.4651
14898TIP3    H266110   3.142   0.658   4.587 -0.0115 -0.0221 -1.6351
14899TIP3   OH266111   4.134   5.282   4.102 -0.2109  0.1995 -0.1681
14899TIP3    H166112   4.080   5.351   4.140 -0.3948 -0.3923  0.6654
14899TIP3    H266113   4.071   5.216   4.072  0.0105 -0.0769 -0.0266
14900TIP3   OH266114   1.614   0.631   1.631 -0.1749  0.1804 -0.0480
14900TIP3    H166115   1.685   0.687   1.598 -0.5857  1.8680  1.6955
14900TIP3    H266116   1.540   0.691   1.640 -0.9613 -0.9006  0.8481
14901TIP3   OH266117   2.469   0.516  15.032  0.2274  0.4885 -0.2832
14901TIP3    H166118   2.552   0.471  15.047  0.8662  1.3666 -1.0556
14901TIP3    H266119   2.404   0.464  15.079  1.3915  0.4604  1.3542
14902TIP3   OH266120   0.823   1.908  15.213 -0.0764  0.2874  0.5027
14902TIP3    H166121   0.733   1.932  15.236 -0.2674 -0.9625  1.1486
14902TIP3    H266122   0.851   1.975  15.150 -2.0052 -0.1952 -0.9481
14903TIP3   OH266123   2.864   5.055   5.836  0.6181 -0.5182 -0.7019
14903TIP3    H166124   2.932   5.111   5.874 -0.7936  1.0474 -0.3502
14903TIP3    H266125   2.898   4.966   5.846  1.1884 -0.0852  2.5469
14904TIP3   OH266126   4.288   3.649   1.019  0.0054 -0.2518 -0.0103
14904TIP3    H166127   4.349   3.634   0.946  0.1027 -2.7172  0.5091
14904TIP3    H266128   4.228   3.575   1.015 -1.5857  0.9459  0.8842
14905TIP3   OH266129   4.843   2.757  12.234  0.0405  0.0622 -0.0697
14905TIP3    H166130   4.895   2.771  12.314  0.8569 -0.1796 -0.5480
14905TIP3    H266131   4.797   2.840  12.221 -1.5508 -0.4810  1.6524
14906TIP3   OH266132   0.052   1.498  14.067 -0.0952  0.7346  0.8456
14906TIP3    H166133   0.100   1.581  14.060  0.5209  0.5161  2.2318
14906TIP3    H266134  -0.033   1.516  14.028 -0.3621  2.3427  2.0793
14907TIP3   OH266135   1.955   6.657  14.908  0.5980 -0.6774 -0.0663
14907TIP3    H166136   1.968   6.611  14.991  1.4268  0.8869  0.7202
14907TIP3    H266137   2.042   6.690  14.886  0.2013 -0.2823 -1.0911
14908TIP3   OH266138   2.492   0.901  14.298 -0.0981  0.6069 -0.0354
14908TIP3    H166139   2.464   0.992  14.292 -1.6786  0.1406 -0.3284
14908TIP3    H266140   2.458   0.870  14.382 -1.9711 -0.4297 -1.1138
14909TIP3   OH266141   1.152   1.857   1.710  0.2076  0.3951  0.2649
14909TIP3    H166142   1.074   1.913   1.711  1.1542  1.7744  1.1137
14909TIP3    H266143   1.221   1.913   1.675  0.9579 -0.5954  0.1158
14910TIP3   OH266144   6.980   2.495  12.982 -0.3831 -0.0697 -0.2589
14910TIP3    H166145   7.001   2.408  12.948  1.6040  0.5228 -0.6732
14910TIP3    H266146   6.910   2.527  12.924 -1.0338 -1.3158 -0.1808
14911TIP3   OH266147   3.928   0.995  13.993  0.2627 -0.3513  0.0030
14911TIP3    H166148   3.905   0.903  14.007  0.4741 -0.4346 -0.1923
14911TIP3    H266149   4.023   0.998  14.005  0.0777  0.1265  1.5418
14912TIP3   OH266150   2.483   5.152   4.289 -0.0246 -0.4730 -0.1314
14912TIP3    H166151   2.471   5.244   4.266  0.0437 -0.3832  0.1869
14912TIP3    H266152   2.498   5.152   4.384  1.3629 -0.6764 -0.3289
14913TIP3   OH266153   2.221   2.868   2.371 -0.3273 -0.4650 -0.0800
14913TIP3    H166154   2.158   2.802   2.399 -0.0756 -0.9554 -0.6438
14913TIP3    H266155   2.226   2.929   2.444  1.0702 -2.2537  1.4267
14914TIP3   OH266156   2.633   6.770  12.901  0.6169  0.0798  0.2478
14914TIP3    H166157   2.658   6.762  12.993  1.0347  1.2688  0.2625
14914TIP3    H266158   2.636   6.864  12.884 -1.4238  0.0652 -0.4425
14915TIP3   OH266159   1.922   0.103   3.256 -0.3659 -0.2735 -0.3310
14915TIP3    H166160   1.970   0.184   3.241 -0.3921 -0.1330  0.3297
14915TIP3    H266161   1.830   0.129   3.260 -0.3286 -0.2429  0.4837
14916TIP3   OH266162   6.654   0.300  11.454  0.2007 -0.1364  0.4671
14916TIP3    H166163   6.679   0.208  11.459  0.0530 -0.1368  1.5088
14916TIP3    H266164   6.735   0.348  11.468  0.0127 -0.1293  1.6405
14917TIP3   OH266165   0.776   2.165   4.244  0.1637  0.1372  0.7322
14917TIP3    H166166   0.741   2.156   4.333  3.2732  0.1424  2.0875
14917TIP3    H266167   0.867   2.193   4.257  1.8024 -3.0580 -2.2716
14918TIP3   OH266168   5.747   2.257  13.247 -0.2345 -0.1669 -0.0121
14918TIP3    H166169   5.760   2.348  13.271 -0.3243 -0.0810 -0.2845
14918TIP3    H266170   5.832   2.229  13.211 -0.7613  0.3981 -1.8044
14919TIP3   OH266171   5.886   2.665   3.209 -0.4148 -0.4446  0.3785
14919TIP3    H166172   5.958   2.646   3.149  0.1481  0.3030  0.8063
14919TIP3    H266173   5.905   2.614   3.287  0.6135  1.1040  1.1757
14920TIP3   OH266174   5.517   2.258   0.452 -0.2274  0.3255 -0.0919
14920TIP3    H166175   5.488   2.336   0.405 -2.0303  1.5492  2.7470
14920TIP3    H266176   5.444   2.197   0.445  1.1373 -1.1726 -2.2104
14921TIP3   OH266177   3.346   4.294  11.842 -0.3004 -0.3895 -0.2657
14921TIP3    H166178   3.420   4.349  11.868  0.4670 -0.3035 -2.4218
14921TIP3    H266179   3.351   4.218  11.900 -0.5622  1.1310  1.8631
14922TIP3   OH266180   3.105   6.980  10.602  0.6980 -0.0957  0.5707
14922TIP3    H166181   3.153   7.032  10.538 -0.9617 -0.9886 -1.5519
14922TIP3    H266182   3.138   6.890  10.589  0.6025 -0.2247  1.2219
14923TIP3   OH266183   2.718   0.895  15.313 -0.3715 -0.1853  0.7952
14923TIP3    H166184   2.763   0.819  15.277 -1.2612 -0.9788  1.3056
14923TIP3    H266185   2.708   0.954  15.239  0.1981 -0.6288  0.3525
14924TIP3   OH266186   0.028   2.789   4.033 -0.6866 -0.4794 -0.1612
14924TIP3    H166187   0.114   2.748   4.044  0.5715  1.7101 -1.1618
14924TIP3    H266188   0.010   2.830   4.118  0.1298  0.5684 -0.4804
14925TIP3   OH266189   6.001   3.461   1.673 -0.2578 -0.2970 -0.3137
14925TIP3    H166190   6.058   3.500   1.607  0.2945  0.1878  0.4347
14925TIP3    H266191   5.972   3.536   1.726 -0.2525 -0.7398  0.3237
14926TIP3   OH266192   7.032   1.395  15.517  1.1401 -0.5380  0.0327
14926TIP3    H166193   6.965   1.365  15.579  0.5048 -0.0796 -0.4251
14926TIP3    H266194   7.102   1.430  15.573 -0.6294  2.5396  0.5579
14927TIP3   OH266195   4.541   5.338   4.464  0.5043 -0.0763 -0.5102
14927TIP3    H166196   4.467   5.336   4.404  0.3942  0.6115 -0.4022
14927TIP3    H266197   4.516   5.277   4.534  0.0382  0.1433 -0.4790
14928TIP3   OH266198   1.724   0.386   9.373 -0.1646 -0.5610 -0.0712
14928TIP3    H166199   1.819   0.384   9.386 -0.3272 -0.7667  1.2368
14928TIP3    H266200   1.706   0.308   9.321  0.4557 -0.1104 -0.9964
14929TIP3   OH266201   2.983   1.716  13.952 -0.3207  0.0312 -0.2297
14929TIP3    H166202   3.076   1.738  13.945 -0.1831 -0.6896 -0.9547
14929TIP3    H266203   2.944   1.752  13.873 -0.1745 -1.7947 -1.1931
14930TIP3   OH266204   0.536   1.880  10.688  0.1007  0.0662 -0.5834
14930TIP3    H166205   0.604   1.864  10.623  0.0318 -2.7842 -0.0854
14930TIP3    H266206   0.583   1.884  10.772 -0.2099 -0.9031 -0.3475
14931TIP3   OH266207   6.327   5.235   2.104  0.1521 -0.5847 -0.6037
14931TIP3    H166208   6.282   5.154   2.131 -0.4718  0.0450  0.3192
14931TIP3    H266209   6.401   5.242   2.165 -1.4098  0.9813  1.2790
14932TIP3   OH266210   2.236   4.838   6.059  0.1109 -0.1705 -0.4614
14932TIP3    H166211   2.300   4.823   6.129 -0.3871  3.1464  0.9215
14932TIP3    H266212   2.169   4.771   6.074  0.6044 -0.3033  1.5624
14933TIP3   OH266213   5.282   1.626  14.186 -0.2551  0.5946 -0.4676
14933TIP3    H166214   5.196   1.652  14.218  0.1549  1.0021  0.3076
14933TIP3    H266215   5.336   1.616  14.264  0.2817 -0.1386 -0.9098
14934TIP3   OH266216   6.418   5.990   1.611  0.1925 -0.0986  0.1765
14934TIP3    H166217   6.403   5.983   1.517  0.3068 -2.9495  0.2904
14934TIP3    H266218   6.338   5.956   1.651  0.3045  0.7143  1.1390
14935TIP3   OH266219   0.903   5.047  15.480  0.3341  0.0947  0.2284
14935TIP3    H166220   0.842   4.995  15.427 -0.3610 -0.1867  1.2745
14935TIP3    H266221   0.879   5.027  15.570  0.7362  1.4562  0.6586
14936TIP3   OH266222   0.974   2.462  11.814 -0.2577 -0.5797 -0.5086
14936TIP3    H166223   0.989   2.449  11.908 -0.8036 -0.3267 -0.3824
14936TIP3    H266224   0.952   2.555  11.806 -1.2094 -0.8123 -0.7477
14937TIP3   OH266225   4.190   2.785   5.547 -0.0790 -0.2427  0.3576
14937TIP3    H166226   4.140   2.704   5.555 -0.2588 -0.1989 -0.2837
14937TIP3    H266227   4.192   2.803   5.453 -0.5121  0.7893  0.5300
14938TIP3   OH266228   6.726   5.467  13.619 -0.6666  0.0151 -0.3402
14938TIP3    H166229   6.685   5.549  13.591  1.0453  1.9045  2.1914
14938TIP3    H266230   6.682   5.446  13.701  0.2316 -0.4986  0.0233
14939TIP3   OH266231   4.589   5.544   0.671 -0.3554 -0.5303 -0.2886
14939TIP3    H166232   4.551   5.536   0.758  1.3064 -2.2570  0.3486
14939TIP3    H266233   4.517   5.526   0.611 -1.4292  0.2887  0.7017
14940TIP3   OH266234   4.340   4.657  14.914  0.0733  0.6558 -0.2780
14940TIP3    H166235   4.428   4.655  14.951 -0.6066  0.4686  1.4189
14940TIP3    H266236   4.350   4.623  14.825  1.4904 -0.6812  0.3531
14941TIP3   OH266237   0.220   5.662  11.236  0.1774 -0.4600 -0.3868
14941TIP3    H166238   0.266   5.744  11.251 -0.8447  0.0672 -0.0312
14941TIP3    H266239   0.205   5.659  11.142 -0.0146 -0.1149 -0.3661
14942TIP3   OH266240   1.892   0.567  13.140 -0.1488  0.1262 -0.0041
14942TIP3    H166241   1.971   0.603  13.179 -0.4970  0.8135  0.0929
14942TIP3    H266242   1.906   0.572  13.046 -0.7404  1.8533 -0.0357
14943TIP3   OH266243   1.388   1.899   1.300  0.4499 -0.0033 -0.0769
14943TIP3    H166244   1.323   1.967   1.319  1.2773  0.6929  0.3325
14943TIP3    H266245   1.381   1.838   1.373  0.5504  0.3067  0.1953
14944TIP3   OH266246   5.955   5.782  12.573 -0.0067 -0.1921 -0.1334
14944TIP3    H166247   5.979   5.709  12.630 -0.3720  2.0026  3.1451
14944TIP3    H266248   6.036   5.833  12.564  0.1815 -0.7715 -2.1592
14945TIP3   OH266249   6.529   4.680   2.558 -0.0380 -0.2822 -0.1030
14945TIP3    H166250   6.534   4.706   2.466 -0.8197  0.0457 -0.0607
14945TIP3    H266251   6.604   4.724   2.600 -1.0766  1.6226 -0.1118
14946TIP3   OH266252   4.454   4.792   0.207 -0.1872  0.3013  0.1661
14946TIP3    H166253   4.428   4.870   0.256 -0.0561 -0.0047  0.7382
14946TIP3    H266254   4.395   4.724   0.238  1.2228 -0.4066  1.4809
14947TIP3   OH266255   2.154   1.072   3.592 -0.1527  0.1566  0.5036
14947TIP3    H166256   2.230   1.129   3.587 -0.1308  0.2852  2.0163
14947TIP3    H266257   2.103   1.092   3.513  0.6157  1.1475  0.2507
14948TIP3   OH266258   0.464   5.432  15.028 -0.4799 -0.2304 -0.3369
14948TIP3    H166259   0.554   5.447  15.058 -0.0567  0.1914 -1.7567
14948TIP3    H266260   0.414   5.504  15.064 -0.0967 -0.0535 -0.1530
14949TIP3   OH266261   2.367   2.729  14.137  0.0258 -0.3005  0.0172
14949TIP3    H166262   2.301   2.679  14.184  0.7989 -0.0508  1.4422
14949TIP3    H266263   2.429   2.663  14.106 -1.8657 -0.7847 -3.1804
14950TIP3   OH266264   7.069   2.203   2.770  0.2346  0.8718  0.0924
14950TIP3    H166265   7.069   2.125   2.715  0.1268  0.6472  0.4100
14950TIP3    H266266   7.091   2.172   2.858 -0.8558  1.0291  0.4402
14951TIP3   OH266267   2.523   1.238  11.600 -0.0956  0.1345 -0.0233
14951TIP3    H166268   2.597   1.178  11.593 -0.3930 -0.0527 -2.2101
14951TIP3    H266269   2.451   1.184  11.631 -0.6419 -1.0181 -2.9660
14952TIP3   OH266270   5.284   2.920   3.013 -0.5113 -0.7114  0.1076
14952TIP3    H166271   5.362   2.878   2.979 -1.0074 -0.8465 -0.8855
14952TIP3    H266272   5.274   3.000   2.961  0.3645  0.6377  1.8943
14953TIP3   OH266273   3.796   4.127   3.163 -0.8284 -0.1795 -0.4967
14953TIP3    H166274   3.774   4.052   3.217 -1.3695  1.4998  1.7846
14953TIP3    H266275   3.878   4.160   3.199 -1.3239  1.1338 -0.4969
14954TIP3   OH266276   6.497   2.093   0.195 -0.2920  0.0882  0.6044
14954TIP3    H166277   6.532   2.109   0.283 -0.3782 -2.6344  1.2161
14954TIP3    H266278   6.457   2.177   0.170 -0.1892  0.9762  3.1029
14955TIP3   OH266279   6.703   0.058  12.540 -0.3672  0.8784  0.4130
14955TIP3    H166280   6.713   0.137  12.593 -0.2391  1.5643 -0.6074
14955TIP3    H266281   6.626   0.014  12.576 -0.7242  1.7121  0.6945
14956TIP3   OH266282   4.786   2.002   2.364  0.4771  0.1216  0.3690
14956TIP3    H166283   4.872   2.037   2.340 -0.0260  0.3545 -1.1462
14956TIP3    H266284   4.740   1.991   2.281  0.0933 -2.8330  0.8756
14957TIP3   OH266285   6.306   3.880   2.099  0.2308  0.1980  0.1617
14957TIP3    H166286   6.311   3.798   2.051  0.5652 -0.9998  2.1704
14957TIP3    H266287   6.226   3.922   2.067  0.2066 -0.7580 -1.0783
14958TIP3   OH266288   1.376   0.676   2.820  0.1566  0.5331 -0.4597
14958TIP3    H166289   1.387   0.705   2.911  1.4803  1.2655 -0.8225
14958TIP3    H266290   1.298   0.620   2.822  0.6265 -0.1405  1.2895
14959TIP3   OH266291   1.564   1.151   1.393  0.0513 -0.0635  0.3438
14959TIP3    H166292   1.617   1.107   1.327 -1.8744  0.9391 -2.0158
14959TIP3    H266293   1.479   1.109   1.389 -0.4094  0.6962  1.5033
14960TIP3   OH266294   5.377   0.932   4.694 -0.0144 -0.1294  0.4357
14960TIP3    H166295   5.368   0.875   4.771 -0.4916 -0.2778  0.2730
14960TIP3    H266296   5.431   1.005   4.725 -0.8710  0.2280  1.1432
14961TIP3   OH266297   4.451   5.106  11.451 -0.6656 -0.0645 -0.1629
14961TIP3    H166298   4.447   5.196  11.482 -1.1436 -0.3482  0.6142
14961TIP3    H266299   4.507   5.110  11.373 -0.6479  0.8890 -0.1084
14962TIP3   OH266300   6.511   4.154  12.145 -0.4553 -0.6495  0.2406
14962TIP3    H166301   6.489   4.126  12.056  2.0686 -1.6857 -0.1516
14962TIP3    H266302   6.600   4.120  12.159  0.7773  2.7841  1.7374
14963TIP3   OH266303   4.068   0.679   2.707  0.3131 -0.7022  0.5025
14963TIP3    H166304   4.052   0.691   2.801 -0.0355  2.4827  0.1508
14963TIP3    H266305   3.988   0.712   2.665  0.7765 -1.3583 -0.9486
14964TIP3   OH266306   0.488   6.450   2.690  0.1333  0.2040 -0.4655
14964TIP3    H166307   0.526   6.389   2.626 -2.1789 -0.2003 -1.5424
14964TIP3    H266308   0.393   6.439   2.681 -0.3068  0.7724  2.4562
14965TIP3   OH266309   5.014   1.995  13.872  0.0227 -0.3900 -0.0322
14965TIP3    H166310   5.012   1.955  13.960  1.2146 -1.0148 -0.2642
14965TIP3    H266311   5.020   1.920  13.813 -2.4820 -0.0758 -0.7902
14966TIP3   OH266312   5.571   0.487  15.492  0.1040  0.4490 -0.1020
14966TIP3    H166313   5.556   0.403  15.448 -0.9345  0.1118  0.8651
14966TIP3    H266314   5.484   0.523  15.506  0.2286 -0.1935  3.0519
14967TIP3   OH266315   4.747   6.794   4.979  0.1832  0.1273 -0.2417
14967TIP3    H166316   4.828   6.803   5.029 -0.8216  1.7552  1.1622
14967TIP3    H266317   4.684   6.758   5.041 -0.0764 -1.7437 -1.4936
14968TIP3   OH266318   0.265   1.158  14.899 -0.2070  0.0737 -0.4026
14968TIP3    H166319   0.176   1.131  14.920 -0.2049 -1.6064 -2.2578
14968TIP3    H266320   0.316   1.141  14.978 -1.1539 -0.8428  0.0162
14969TIP3   OH266321   3.587   4.289  14.195  0.4199 -0.2805 -0.3752
14969TIP3    H166322   3.682   4.291  14.185  0.5936 -1.1572  0.8179
14969TIP3    H266323   3.562   4.200  14.170 -0.3935  0.5655 -2.7817
14970TIP3   OH266324   6.956   3.821  12.117  0.2467  0.1943 -0.3743
14970TIP3    H166325   6.956   3.731  12.151 -0.5413  0.7725  1.2552
14970TIP3    H266326   6.915   3.813  12.031 -0.1193 -0.9686 -0.1233
14971TIP3   OH266327   2.927   4.354   4.173 -0.2206  0.5760 -0.6865
14971TIP3    H166328   2.906   4.264   4.195  0.6873  0.6275  0.5246
14971TIP3    H266329   2.997   4.348   4.108  0.8451  0.3770  0.4465
14972TIP3   OH266330   3.411   0.120  13.845  0.3389  0.7379  0.4885
14972TIP3    H166331   3.375   0.031  13.852  0.9037  0.5412  0.9176
14972TIP3    H266332   3.505   0.107  13.836  0.7142  1.3551  2.8885
14973TIP3   OH266333   1.064   5.242   2.671 -0.0994 -0.3603  0.2094
14973TIP3    H166334   0.969   5.228   2.666  0.2767 -3.4690 -0.0749
14973TIP3    H266335   1.086   5.226   2.763  0.1851  0.3143  0.2650
14974TIP3   OH266336   6.223   5.094   5.571 -0.6730  0.2023 -0.1957
14974TIP3    H166337   6.265   5.088   5.657 -1.8709  2.5694  0.6457
14974TIP3    H266338   6.296   5.098   5.509  0.2317 -0.6117  0.7779
14975TIP3   OH266339   2.806   3.745  13.212  0.2772  0.4355 -0.0531
14975TIP3    H166340   2.825   3.678  13.147  0.4096  0.3505  0.0735
14975TIP3    H266341   2.805   3.827  13.163  0.0446  0.3329 -0.2208
14976TIP3   OH266342   3.571   0.449   4.489  0.3229 -0.0252  0.1594
14976TIP3    H166343   3.634   0.399   4.436  1.5938  0.6372  1.0000
14976TIP3    H266344   3.565   0.534   4.445  0.8163  0.2706  0.6573
14977TIP3   OH266345   2.861   4.929   4.975  0.2103  0.2695  0.3137
14977TIP3    H166346   2.956   4.920   4.962  0.0143  0.0427 -1.1657
14977TIP3    H266347   2.823   4.884   4.899 -1.0593  1.7049  0.0685
14978TIP3   OH266348   5.126   3.336  13.655  0.4498 -0.4806  0.2144
14978TIP3    H166349   5.106   3.340  13.749 -2.6032  1.4833 -0.4048
14978TIP3    H266350   5.062   3.276  13.619  1.7903 -1.4557 -0.6368
14979TIP3   OH266351   1.741   0.558   1.864 -0.4931 -0.1384 -0.1211
14979TIP3    H166352   1.691   0.614   1.924 -2.4020 -0.2242 -1.5328
14979TIP3    H266353   1.689   0.556   1.784  1.4664 -0.8450 -1.4586
14980TIP3   OH266354   1.426   5.888   2.294  0.0288  0.4865  0.5561
14980TIP3    H166355   1.393   5.944   2.223 -1.4647 -1.0399 -0.0357
14980TIP3    H266356   1.358   5.894   2.362 -0.8031 -1.4906 -0.0249
14981TIP3   OH266357   1.670   5.741  15.397 -0.3678  0.0679  0.6657
14981TIP3    H166358   1.728   5.812  15.427  1.1318  0.9531 -3.6943
14981TIP3    H266359   1.721   5.661  15.411  0.7021  0.5491 -0.3289
14982TIP3   OH266360   6.181   5.272  15.002 -0.1879 -0.0148 -0.2325
14982TIP3    H166361   6.185   5.196  14.943 -0.1687  1.7650 -2.7082
14982TIP3    H266362   6.271   5.306  15.002 -0.2195  0.0810  0.7812
14983TIP3   OH266363   3.064   0.388   1.729 -0.0506 -0.5876  0.3103
14983TIP3    H166364   3.002   0.363   1.661  0.7749 -3.4064  0.4342
14983TIP3    H266365   3.141   0.333   1.712  0.4391 -0.9098  3.0538
14984TIP3   OH266366   6.815   1.211   2.939  0.0618 -0.1598  0.2977
14984TIP3    H166367   6.850   1.238   2.855  1.3989  0.4307  1.0101
14984TIP3    H266368   6.860   1.267   3.003 -1.1024 -0.4175  1.3820
14985TIP3   OH266369   6.675   4.952   1.821  0.9117 -0.0941  0.3866
14985TIP3    H166370   6.741   4.906   1.873  3.3415 -0.8464 -3.0498
14985TIP3    H266371   6.606   4.887   1.806  1.5053 -0.7441  0.4257
14986TIP3   OH266372   7.034   4.534   2.979  0.9154 -0.6696  0.2789
14986TIP3    H166373   6.951   4.537   3.026 -0.1939 -2.7093 -1.3879
14986TIP3    H266374   7.100   4.526   3.047 -0.1463  1.3673  1.6684
14987TIP3   OH266375   4.696   1.177   3.274  0.3513 -0.2920 -0.0519
14987TIP3    H166376   4.611   1.221   3.269 -0.2213 -1.1730  1.3529
14987TIP3    H266377   4.675   1.084   3.263  0.8068 -0.7652  2.4852
14988TIP3   OH266378   3.690   5.316   4.694 -0.6378 -0.2644 -0.1364
14988TIP3    H166379   3.655   5.242   4.643  1.5496  0.6096 -3.2405
14988TIP3    H266380   3.764   5.279   4.742 -0.3753 -0.3831 -0.6243
14989TIP3   OH266381   6.985   4.664   1.411 -0.0598  0.8340  0.1671
14989TIP3    H166382   7.000   4.569   1.416  2.6418  1.2320  1.8188
14989TIP3    H266383   7.001   4.686   1.319  3.1151  0.1016  0.4196
14990TIP3   OH266384   3.423   5.986   4.698 -0.1807  0.0554  0.4241
14990TIP3    H166385   3.430   5.916   4.633 -1.2405 -0.6627  1.0663
14990TIP3    H266386   3.331   5.986   4.724  0.0584  0.8918  1.3092
14991TIP3   OH266387   3.533   5.050  14.638 -0.2630  0.3520  0.1448
14991TIP3    H166388   3.530   5.132  14.588  1.2393 -0.0446 -0.6540
14991TIP3    H266389   3.549   4.982  14.572  1.5454 -0.2144  1.1047
14992TIP3   OH266390   6.655   1.497   0.865 -0.4640  0.1321  0.3942
14992TIP3    H166391   6.590   1.428   0.851 -0.1559  0.0989 -0.9875
14992TIP3    H266392   6.615   1.576   0.829  0.1738  0.1406 -0.3318
14993TIP3   OH266393   0.672   1.282   3.811 -0.1546  0.7842 -0.1691
14993TIP3    H166394   0.588   1.282   3.764 -0.7886  0.3708  0.9435
14993TIP3    H266395   0.690   1.190   3.828  0.0673  0.9291  0.3992
14994TIP3   OH266396   1.134   1.052  12.158  0.6014  0.0886 -0.0881
14994TIP3    H166397   1.088   1.059  12.241  1.1314 -0.2142  0.2343
14994TIP3    H266398   1.194   0.978  12.169  1.1400  0.4500 -0.5119
14995TIP3   OH266399   3.658   6.219   9.784  0.1202 -0.2774 -0.0216
14995TIP3    H166400   3.586   6.176   9.830  0.8547 -0.2226  1.1995
14995TIP3    H266401   3.619   6.298   9.747 -1.0666 -1.5463 -1.6444
14996TIP3   OH266402   2.199   0.557  14.337  0.3283  0.2440  0.0131
14996TIP3    H166403   2.145   0.572  14.259  1.3034  1.2589 -0.4962
14996TIP3    H266404   2.254   0.482  14.314  1.0209  0.8908 -0.5393
14997TIP3   OH266405   5.158   2.379   2.653  0.3838 -0.1641 -0.8393
14997TIP3    H166406   5.101   2.454   2.670  1.8979  0.9572 -0.5133
14997TIP3    H266407   5.098   2.307   2.632 -1.5196 -0.3090  3.8815
14998TIP3   OH266408   2.569   7.039  13.693 -0.2299  0.0692  0.0367
14998TIP3    H166409   2.564   7.086  13.777 -0.7187  1.2820 -0.6479
14998TIP3    H266410   2.498   7.076  13.641 -1.9803 -2.8473  0.1166
14999TIP3   OH266411   1.456   1.912   3.287 -0.2622  0.3170 -0.1054
14999TIP3    H166412   1.381   1.860   3.260 -0.0544  0.7505 -1.6023
14999TIP3    H266413   1.531   1.853   3.279 -0.3695 -0.0170  1.0773
15000TIP3   OH266414   3.467   4.545   0.965  0.5352  0.6553 -0.1979
15000TIP3    H166415   3.477   4.450   0.974 -2.9565  0.2124  0.2102
15000TIP3    H266416   3.481   4.578   1.054 -1.1594  0.1407  0.2828
15001TIP3   OH266417   2.938   4.910  15.093  0.7725  0.6492 -0.3712
15001TIP3    H166418   2.973   4.851  15.025  0.7955  1.4751 -1.0836
15001TIP3    H266419   3.015   4.956  15.126  0.7696  0.2082  0.2716
15002TIP3   OH266420   3.499   6.611   4.973  0.1826 -0.4343  0.4587
15002TIP3    H166421   3.410   6.586   4.998 -0.6049  0.3331 -1.3747
15002TIP3    H266422   3.486   6.684   4.912  2.0442 -0.8762 -0.5067
15003TIP3   OH266423   1.398   2.941  14.768 -0.1842  0.0728 -0.0634
15003TIP3    H166424   1.452   2.863  14.759 -0.1520 -0.1978  1.9760
15003TIP3    H266425   1.414   2.991  14.688 -0.5557 -2.1873 -1.6479
15004TIP3   OH266426   0.035   2.651   1.180 -0.1619  0.5793 -0.3592
15004TIP3    H166427  -0.054   2.684   1.171  0.0389  1.2465 -0.0009
15004TIP3    H266428   0.059   2.620   1.093 -1.4141 -1.3762 -0.0615
15005TIP3   OH266429   6.206   6.794  15.047 -0.4474 -0.0955 -0.8023
15005TIP3    H166430   6.228   6.760  14.960  1.3470  0.9389 -0.8161
15005TIP3    H266431   6.257   6.875  15.054 -0.6796 -0.0743  1.1625
15006TIP3   OH266432   4.317   6.570   4.251  0.1854 -0.0070  0.2803
15006TIP3    H166433   4.247   6.636   4.254 -1.1671 -1.0497 -3.4678
15006TIP3    H266434   4.279   6.494   4.295 -0.5776 -0.1480 -0.5879
15007TIP3   OH266435   4.077   0.843   3.996  0.3029 -0.2891  0.5307
15007TIP3    H166436   4.057   0.802   3.911 -0.4666 -0.7719  0.9334
15007TIP3    H266437   4.037   0.930   3.990  1.4145  0.1985 -0.0967
15008TIP3   OH266438   2.474   5.963  10.319  0.8710  0.3045  0.0544
15008TIP3    H166439   2.424   5.886  10.290  0.3425  0.2717  1.0193
15008TIP3    H266440   2.408   6.022  10.356  1.6003 -0.0576  2.0348
15009TIP3   OH266441   3.772   5.529   3.927  0.0591 -0.4512  0.0310
15009TIP3    H166442   3.770   5.527   4.022  0.5120 -1.0934  0.0345
15009TIP3    H266443   3.685   5.561   3.902  0.2844  0.7135  0.6663
15010TIP3   OH266444   3.438   4.781  13.456 -0.3775  0.2211  0.1410
15010TIP3    H166445   3.463   4.689  13.453  0.1393  0.3403  0.6092
15010TIP3    H266446   3.465   4.817  13.372  0.1217  0.1197  0.2572
15011TIP3   OH266447   5.087   2.867   4.855 -0.1966  0.1879  0.1222
15011TIP3    H166448   5.120   2.860   4.766 -3.5450  1.7996 -1.4172
15011TIP3    H266449   5.107   2.957   4.882 -1.6027  0.6274 -0.1782
15012TIP3   OH266450   1.356   0.249   3.718  0.2035  0.1055  0.1569
15012TIP3    H166451   1.318   0.182   3.775 -0.3235  2.3749  2.6990
15012TIP3    H266452   1.297   0.324   3.727  0.6779  0.9403 -2.6990
15013TIP3   OH266453   6.042   1.790   2.889  0.3025  0.3816  0.1509
15013TIP3    H166454   6.012   1.879   2.871 -1.0390 -0.0670  0.0344
15013TIP3    H266455   5.962   1.742   2.907  0.8061 -1.2745 -1.7341
15014TIP3   OH266456   2.239   1.460   2.977  0.5426  0.0668  0.0007
15014TIP3    H166457   2.328   1.495   2.978  0.6862 -0.2440  1.8703
15014TIP3    H266458   2.239   1.391   3.043 -0.7335 -0.9062 -0.9552
15015TIP3   OH266459   6.546   4.394   0.222  0.3331 -0.4046  0.1432
15015TIP3    H166460   6.541   4.474   0.274 -0.5083  1.0023 -1.9804
15015TIP3    H266461   6.638   4.369   0.223  0.9080  1.5696 -0.5386
15016TIP3   OH266462   2.272   5.517  14.973  0.0304  0.7778  0.3613
15016TIP3    H166463   2.240   5.485  15.058  2.3595 -0.2387  0.9237
15016TIP3    H266464   2.237   5.606  14.966 -1.2645  0.4116  1.7820
15017TIP3   OH266465   4.918   1.030   2.249  0.1740  0.0284 -0.3531
15017TIP3    H166466   4.966   1.084   2.311  1.4104 -1.2725 -0.1414
15017TIP3    H266467   4.829   1.027   2.285  0.6872 -0.0943  0.9611
15018TIP3   OH266468   6.588   2.409  11.559  0.2588  0.2394 -0.0537
15018TIP3    H166469   6.657   2.412  11.626  1.9836  0.4258 -1.7488
15018TIP3    H266470   6.550   2.322  11.568  0.0780  0.4539  1.5071
15019TIP3   OH266471   2.891   1.383   2.843 -0.3971 -0.1564 -0.9202
15019TIP3    H166472   2.956   1.358   2.777 -0.3326 -0.1021 -0.8780
15019TIP3    H266473   2.807   1.381   2.797 -0.3700 -0.2630 -0.9660
15020TIP3   OH266474   3.102   4.533   1.695  0.2840  0.1974 -0.6015
15020TIP3    H166475   3.060   4.448   1.682  0.9099 -0.4060  0.9702
15020TIP3    H266476   3.087   4.580   1.614 -0.1621 -1.3812 -1.4827
15021TIP3   OH266477   2.783   4.640   4.902 -0.0073 -0.2851  0.0650
15021TIP3    H166478   2.874   4.653   4.928 -0.5869  2.3630  1.0792
15021TIP3    H266479   2.788   4.618   4.809  1.6431  1.1227 -0.2352
15022TIP3   OH266480   1.662   1.062   0.146  0.1737 -0.1383  0.3319
15022TIP3    H166481   1.587   1.121   0.138  1.4602  1.3461 -1.5994
15022TIP3    H266482   1.646   0.994   0.081  0.8553  0.6329 -0.6666
15023TIP3   OH266483   4.227   2.148  13.962 -0.3899 -0.0726  0.2242
15023TIP3    H166484   4.316   2.113  13.968 -0.6055 -0.6206  0.3542
15023TIP3    H266485   4.173   2.071  13.943 -1.1375 -0.1780  2.4797
15024TIP3   OH266486   6.283   2.880  10.851  0.2915  0.3914  0.4213
15024TIP3    H166487   6.212   2.852  10.909 -0.3566 -0.3953 -0.7287
15024TIP3    H266488   6.327   2.799  10.825 -0.1441  0.6148 -1.0866
15025TIP3   OH266489   2.834   4.073   4.718 -0.1411  0.0868  0.4076
15025TIP3    H166490   2.763   4.021   4.757  0.1540 -0.1911  0.5777
15025TIP3    H266491   2.789   4.141   4.668 -0.5277  0.8620  1.7639
15026TIP3   OH266492   6.246   1.716   0.219  0.1904  0.1325 -0.3487
15026TIP3    H166493   6.172   1.713   0.280  0.0991  1.1162 -0.3995
15026TIP3    H266494   6.233   1.639   0.163 -0.6441  0.1467 -0.1860
15027TIP3   OH266495   2.975   5.081   1.393  0.1528 -0.5981 -0.7103
15027TIP3    H166496   2.976   5.025   1.471 -1.8365 -0.2668 -0.3956
15027TIP3    H266497   3.023   5.032   1.327  0.0708 -1.8335  0.1265
15028TIP3   OH266498   5.881   1.240   1.024  0.3234  0.0986 -1.0847
15028TIP3    H166499   5.976   1.236   1.011  0.6110 -2.0465  0.9043
15028TIP3    H266500   5.870   1.273   1.113 -0.7274 -0.5791 -0.9429
15029TIP3   OH266501   3.883   2.092   2.223  0.3930 -0.4569  0.4522
15029TIP3    H166502   3.850   2.011   2.261  3.0053 -1.4062  0.8714
15029TIP3    H266503   3.892   2.073   2.130  0.5878 -0.5010  0.4800
15030TIP3   OH266504   3.160   6.137   2.877  0.5839  0.1224  0.2571
15030TIP3    H166505   3.087   6.123   2.937  0.3807  0.1201  0.0108
15030TIP3    H266506   3.206   6.053   2.875  0.4588  0.0550  0.2308
15031TIP3   OH266507   4.811   4.386   1.389  0.1769  0.0890  0.2901
15031TIP3    H166508   4.790   4.461   1.333 -0.2443 -1.4775 -1.7790
15031TIP3    H266509   4.808   4.310   1.330  3.5055 -1.2783  1.6132
15032TIP3   OH266510   3.646   0.831  10.878  0.7794 -0.1873  0.1842
15032TIP3    H166511   3.654   0.736  10.867  0.4277 -0.4616  1.8656
15032TIP3    H266512   3.716   0.868  10.824  0.1558 -1.3143 -1.4745
15033TIP3   OH266513   6.771   4.273  11.374  0.4270  0.2250  0.4097
15033TIP3    H166514   6.695   4.230  11.414  0.3945  0.4032  0.5469
15033TIP3    H266515   6.772   4.360  11.415  1.6682 -0.3328  1.6508
15034TIP3   OH266516   1.016   5.974   1.960  0.0029 -0.1751 -0.0902
15034TIP3    H166517   1.067   5.898   1.988 -0.0470  0.2339  1.2132
15034TIP3    H266518   1.082   6.038   1.932  0.0013 -1.0417 -2.2037
15035TIP3   OH266519   0.826   3.479  14.521  0.1700 -0.7510  0.1296
15035TIP3    H166520   0.837   3.396  14.475  0.8411 -1.2875  1.2302
15035TIP3    H266521   0.869   3.543  14.464  1.8713 -1.5527  0.4512
15036TIP3   OH266522   5.103   7.086   4.282 -0.2117 -0.9170 -0.2901
15036TIP3    H166523   5.133   7.141   4.354 -0.2366 -1.1742 -0.0814
15036TIP3    H266524   5.007   7.093   4.285 -0.1887  1.4023 -2.1181
15037TIP3   OH266525   3.317   2.620   9.928  0.1434  0.5031 -0.7472
15037TIP3    H166526   3.309   2.650   9.837  1.1204 -1.2106 -1.4533
15037TIP3    H266527   3.298   2.526   9.923  1.4269  0.1417  0.6109
15038TIP3   OH266528   1.206   0.481   3.723 -0.1885 -0.6432  0.0918
15038TIP3    H166529   1.170   0.532   3.651  1.1605  0.1538 -0.0607
15038TIP3    H266530   1.136   0.479   3.788 -0.1970  1.7822  0.2760
15039TIP3   OH266531   4.489   2.409   2.446 -0.0647  0.4108  0.0797
15039TIP3    H166532   4.457   2.493   2.479 -0.5143 -0.7068  2.7008
15039TIP3    H266533   4.427   2.385   2.377 -0.0616  2.0652 -0.5574
15040TIP3   OH266534   4.802   5.181   2.043 -0.2759 -0.6008  0.2000
15040TIP3    H166535   4.740   5.109   2.054 -0.2735 -0.4216  1.5634
15040TIP3    H266536   4.856   5.178   2.121  2.3429 -1.5601 -1.5000
15041TIP3   OH266537   6.369   5.085   5.297 -0.6507 -0.3517 -0.2092
15041TIP3    H166538   6.296   5.083   5.234 -1.4920 -0.7203  0.7355
15041TIP3    H266539   6.395   4.993   5.305  1.0296 -0.0673 -1.7317
15042TIP3   OH266540   6.496   6.554   3.952 -0.1747 -0.1519 -0.1416
15042TIP3    H166541   6.491   6.471   3.904  0.1867  0.6816 -1.7034
15042TIP3    H266542   6.501   6.621   3.884 -0.7513  1.1898  1.0761
15043TIP3   OH266543   4.802   5.585   3.120 -0.3892 -0.3369 -0.2897
15043TIP3    H166544   4.708   5.566   3.124 -0.2064 -1.0861  0.8899
15043TIP3    H266545   4.812   5.635   3.039 -1.7896 -0.3060 -0.4809
15044TIP3   OH266546   2.297   4.850  15.615 -0.3537 -0.1073  0.1825
15044TIP3    H166547   2.311   4.794  15.538 -2.3036 -0.2137 -0.1362
15044TIP3    H266548   2.249   4.795  15.676 -0.8000  0.6829  0.5582
15045TIP3   OH266549   1.322   6.511   4.468  0.1664 -0.2977 -0.0217
15045TIP3    H166550   1.391   6.531   4.532  0.0544 -0.2002  0.0698
15045TIP3    H266551   1.301   6.595   4.429 -0.0435 -0.2949  0.0959
15046TIP3   OH266552   3.281   3.941   5.998  0.4338 -0.2201 -0.0719
15046TIP3    H166553   3.194   3.963   6.031  0.8134  1.8799 -0.3173
15046TIP3    H266554   3.293   3.997   5.921  0.9038 -2.5595 -1.8220
15047TIP3   OH266555   1.726   4.591   2.410  0.3016  0.0953  0.6087
15047TIP3    H166556   1.668   4.665   2.425 -1.2523 -1.0712  0.5646
15047TIP3    H266557   1.791   4.623   2.348 -2.2614  0.5361 -2.0514
15048TIP3   OH266558   1.318   5.934   2.932 -0.1497  0.2328  0.1303
15048TIP3    H166559   1.339   6.009   2.876 -0.6541  0.3467  0.0865
15048TIP3    H266560   1.396   5.879   2.929  0.6496  1.2826  1.0268
15049TIP3   OH266561   3.436   5.942   4.347  0.2450 -0.1601 -0.0401
15049TIP3    H166562   3.511   5.979   4.393 -0.7902  0.0161  1.5598
15049TIP3    H266563   3.375   6.015   4.338 -0.4836 -0.7129  0.2902
15050TIP3   OH266564   3.440   4.207   2.133 -0.2369 -0.5280 -0.4459
15050TIP3    H166565   3.391   4.279   2.094  1.2307  1.3731  1.0376
15050TIP3    H266566   3.455   4.146   2.061 -0.0360  1.4660 -2.1815
15051TIP3   OH266567   2.374   0.912   3.054 -0.5861 -0.3041 -0.3302
15051TIP3    H166568   2.301   0.871   3.101  0.3356 -2.0203 -0.3088
15051TIP3    H266569   2.430   0.948   3.122 -0.2968 -0.9895 -0.1876
15052TIP3   OH266570   1.619   4.491   3.676 -0.4268  0.4382  0.3931
15052TIP3    H166571   1.671   4.436   3.735  2.0015  1.8168 -0.3203
15052TIP3    H266572   1.529   4.481   3.707  0.4182 -0.9314  2.6413
15053TIP3   OH266573   1.560   1.576   3.017 -0.0556 -0.5071  0.7015
15053TIP3    H166574   1.560   1.588   3.112  1.7606 -0.6599  0.7543
15053TIP3    H266575   1.651   1.591   2.991 -0.7177  0.6330 -1.1655
15054TIP3   OH266576   4.140   2.118   2.079 -0.0267  0.0098 -0.0019
15054TIP3    H166577   4.230   2.112   2.047 -0.3054  1.7699 -1.2515
15054TIP3    H266578   4.147   2.174   2.157 -0.1373  1.0998 -0.7450
15055TIP3   OH266579   1.687   4.343  11.899  0.6502  0.2997  0.2850
15055TIP3    H166580   1.664   4.275  11.836 -1.5866  0.7884  0.4834
15055TIP3    H266581   1.683   4.299  11.984  0.3535  0.3927  0.3218
15056TIP3   OH266582   1.213   2.741  10.679 -0.2366 -0.5970  0.0810
15056TIP3    H166583   1.245   2.747  10.589 -1.0190 -1.4966 -0.2669
15056TIP3    H266584   1.118   2.749  10.672 -0.2780 -0.2440  0.8747
15057TIP3   OH266585   2.577   2.673  15.168 -0.1903  0.5810 -0.0795
15057TIP3    H166586   2.604   2.588  15.203 -0.3532  0.2639 -0.7133
15057TIP3    H266587   2.657   2.710  15.131 -0.1142  0.7207  0.2166
15058TIP3   OH266588   0.701   1.224  15.069 -0.1703 -0.9703  0.0624
15058TIP3    H166589   0.724   1.260  15.155  1.3385 -0.6347 -0.4510
15058TIP3    H266590   0.761   1.268  15.009 -0.1767 -2.3270 -0.9631
15059TIP3   OH266591   2.263   0.899   3.995 -0.1679 -0.5132 -0.4785
15059TIP3    H166592   2.317   0.903   4.073 -0.4828  0.9654 -0.2922
15059TIP3    H266593   2.320   0.930   3.924 -0.6636  0.8673 -0.3129
15060TIP3   OH266594   3.643   6.827   4.435 -0.1505  0.1366  0.0305
15060TIP3    H166595   3.648   6.750   4.491 -1.0420 -0.1891 -0.3220
15060TIP3    H266596   3.712   6.885   4.469 -1.0226  0.1927  1.8365
15061TIP3   OH266597   4.404   3.973   0.418  0.3214 -0.7732  0.4090
15061TIP3    H166598   4.372   3.990   0.507 -0.2808 -1.2940  0.2914
15061TIP3    H266599   4.369   4.045   0.366  0.7912 -0.3896  0.6131
15062TIP3   OH266600   4.560   3.691  13.037  0.5136 -0.6866 -0.0116
15062TIP3    H166601   4.503   3.616  13.054  0.1996 -0.6319 -0.7792
15062TIP3    H266602   4.643   3.653  13.008  0.3818 -0.7370 -0.3205
15063TIP3   OH266603   6.424   4.550   1.842 -0.1213  0.0898  0.1747
15063TIP3    H166604   6.476   4.470   1.854 -1.2028 -0.5119  1.0060
15063TIP3    H266605   6.338   4.528   1.878 -0.6135  1.4431 -0.1371
15064TIP3   OH266606   5.292   5.720   3.913  0.1841 -0.3919  0.0609
15064TIP3    H166607   5.311   5.653   3.978 -2.1616 -1.8593 -0.6238
15064TIP3    H266608   5.216   5.686   3.865  0.6901  1.4543 -2.2402
15065TIP3   OH266609   0.992   0.141   4.987  0.2823 -0.3375 -0.3833
15065TIP3    H166610   1.060   0.079   4.962  0.5404 -0.1062 -0.2703
15065TIP3    H266611   0.947   0.099   5.061 -1.2822 -1.5671 -1.9655
15066TIP3   OH266612   4.903   1.657  13.786 -0.7826  0.4318 -0.7140
15066TIP3    H166613   4.985   1.706  13.777  0.2785 -0.7257  1.7763
15066TIP3    H266614   4.920   1.574  13.741 -0.7199  0.3372 -0.5163
15067TIP3   OH266615   5.679   4.701   4.319  0.7342 -0.3035 -0.1495
15067TIP3    H166616   5.628   4.650   4.256  0.7790  1.3807 -1.6207
15067TIP3    H266617   5.767   4.706   4.280  0.7364  0.8474 -0.0323
15068TIP3   OH266618   0.716   3.318  10.554 -0.2077  0.2014 -0.2576
15068TIP3    H166619   0.647   3.384  10.562  0.3965  0.8603 -0.3027
15068TIP3    H266620   0.719   3.275  10.639  0.7557  1.6430  0.4934
15069TIP3   OH266621   5.166   5.201  14.977 -0.1023  0.0102  0.0561
15069TIP3    H166622   5.149   5.211  15.071  1.0800 -2.2918  0.6017
15069TIP3    H266623   5.156   5.107  14.961  0.8699  0.1890 -1.8805
15070TIP3   OH266624   4.423   1.424   4.747 -0.0585  0.2204  0.2830
15070TIP3    H166625   4.452   1.364   4.815 -1.0017 -0.0925  0.4304
15070TIP3    H266626   4.497   1.483   4.732  0.1247  0.3690  1.6596
15071TIP3   OH266627   2.107   2.263  15.624 -0.5227  0.3709 -0.4204
15071TIP3    H166628   2.042   2.233  15.688  0.1248 -0.1080  0.0186
15071TIP3    H266629   2.066   2.340  15.583 -1.3348  0.1154 -0.1040
15072TIP3   OH266630   1.037   0.558  13.610  0.0784 -0.0064  0.5547
15072TIP3    H166631   0.969   0.561  13.543  0.5900 -2.7521 -0.2208
15072TIP3    H266632   1.000   0.503  13.679  0.4397  0.8743  1.4681
15073TIP3   OH266633   7.123   6.245   1.327 -0.6872  0.7445  0.5405
15073TIP3    H166634   7.209   6.219   1.358 -0.8462 -0.0799  0.3351
15073TIP3    H266635   7.070   6.165   1.334 -0.7106  0.4840 -1.8543
15074TIP3   OH266636   1.801   2.969   5.809  0.2607  0.4075 -0.0973
15074TIP3    H166637   1.848   2.953   5.890 -2.4212 -0.8300  1.3548
15074TIP3    H266638   1.717   2.925   5.821 -1.0492  1.9295 -2.7315
15075TIP3   OH266639   6.862   2.769   3.622  0.1426 -0.4918  0.6289
15075TIP3    H166640   6.774   2.750   3.654  0.1773  1.7476  2.2881
15075TIP3    H266641   6.913   2.786   3.701  2.1992 -2.0722 -0.2717
15076TIP3   OH266642   0.431   0.494  14.801  0.2940  0.1907  0.5620
15076TIP3    H166643   0.371   0.476  14.728  0.0813 -1.1612  1.0294
15076TIP3    H266644   0.510   0.445  14.780  0.3847  0.1299  1.0305
15077TIP3   OH266645   3.225   4.692   3.443 -0.3909  0.0648  0.2127
15077TIP3    H166646   3.130   4.695   3.454 -0.4520  0.0320 -0.2967
15077TIP3    H266647   3.243   4.753   3.372 -0.0449 -0.0198  0.2273
15078TIP3   OH266648   0.830   3.560  10.222  0.3176 -0.4981  1.1171
15078TIP3    H166649   0.896   3.531  10.159 -0.7758 -0.6198 -0.0194
15078TIP3    H266650   0.867   3.637  10.263  1.6150 -1.1913  1.2891
15079TIP3   OH266651   2.198   6.741   0.330  0.3269  1.1540  0.3664
15079TIP3    H166652   2.129   6.759   0.266  2.5687  1.3811 -2.1889
15079TIP3    H266653   2.157   6.755   0.415 -3.9725 -2.7462 -0.6738
15080TIP3   OH266654   5.194   0.202   3.538  0.0023 -0.1065 -0.6192
15080TIP3    H166655   5.210   0.141   3.465 -1.4284 -0.1942 -0.8948
15080TIP3    H266656   5.233   0.284   3.509 -0.5516 -0.1404 -1.5084
15081TIP3   OH266657   6.581   5.330   2.648 -0.6754 -0.1386 -0.8373
15081TIP3    H166658   6.608   5.269   2.580 -0.6655 -0.7218 -0.3150
15081TIP3    H266659   6.663   5.362   2.685 -0.6825 -1.1415  0.0668
15082TIP3   OH266660   3.776   4.421  10.570  0.6491  0.6840 -0.2104
15082TIP3    H166661   3.736   4.484  10.630 -0.2653  1.2653 -1.3806
15082TIP3    H266662   3.702   4.372  10.534  0.9831  1.4490 -2.0557
15083TIP3   OH266663   3.329   2.569  14.508  0.1784  0.1245 -0.2381
15083TIP3    H166664   3.355   2.481  14.537  2.8259  0.9147  0.0381
15083TIP3    H266665   3.266   2.598  14.574  1.6748 -0.3818  1.5154
15084TIP3   OH266666   4.313   4.019   5.078  0.4092  0.5169  0.6034
15084TIP3    H166667   4.234   4.068   5.099  0.6520  1.0733  0.2584
15084TIP3    H266668   4.364   4.079   5.023  0.4457 -0.3394 -0.3294
15085TIP3   OH266669   6.909   0.927  14.406  0.2320 -0.3756 -0.0509
15085TIP3    H166670   6.910   1.022  14.419  0.6971 -0.0992 -1.8449
15085TIP3    H266671   6.913   0.890  14.494  1.3835  1.2760  0.6280
15086TIP3   OH266672   4.413   6.636   1.589  0.4094  0.0604  0.2733
15086TIP3    H166673   4.439   6.544   1.586 -0.5158 -0.1855 -1.3652
15086TIP3    H266674   4.340   6.639   1.650 -0.0399 -0.4299 -0.2377
15087TIP3   OH266675   4.736   4.228   3.389 -0.4680  0.1717 -0.1516
15087TIP3    H166676   4.810   4.184   3.348 -0.9582 -1.1914  0.3624
15087TIP3    H266677   4.739   4.317   3.354  0.9058 -0.0888 -0.7787
15088TIP3   OH266678   4.054   6.864  14.828 -0.4322  0.2051  0.3399
15088TIP3    H166679   4.083   6.941  14.777  0.9217  0.3442  1.2606
15088TIP3    H266680   4.045   6.795  14.763 -0.9999  0.9677 -0.4112
15089TIP3   OH266681   6.369   3.643  15.465  0.2424 -0.3053  0.3667
15089TIP3    H166682   6.350   3.635  15.372 -0.1278 -1.2372  0.5044
15089TIP3    H266683   6.456   3.604  15.474  0.4015  0.0476  0.3719
15090TIP3   OH266684   3.017   3.506  12.187 -0.0364  0.0672  0.0637
15090TIP3    H166685   3.049   3.595  12.203  0.0152 -0.0030  0.3741
15090TIP3    H266686   2.956   3.490  12.260 -0.4227  0.0308 -0.2636
15091TIP3   OH266687   3.173   6.374   4.107  1.1333 -0.0521 -0.8759
15091TIP3    H166688   3.123   6.334   4.178  2.8136 -0.7485 -0.0268
15091TIP3    H266689   3.107   6.415   4.051 -0.2406  0.8588  1.2884
15092TIP3   OH266690   6.771   4.537   2.410 -0.0824 -0.2368 -0.1942
15092TIP3    H166691   6.770   4.624   2.371 -1.5835  0.4598  1.2820
15092TIP3    H266692   6.747   4.551   2.501 -1.9460 -2.3429 -0.2835
15093TIP3   OH266693   6.847   5.018   0.720  0.4575 -0.0546 -0.3461
15093TIP3    H166694   6.812   4.948   0.664  0.6137 -1.3919  1.1412
15093TIP3    H266695   6.876   5.086   0.659  0.3404 -1.3100 -1.8634
15094TIP3   OH266696   0.183   4.791   3.643 -0.4927 -0.1373  0.2054
15094TIP3    H166697   0.098   4.770   3.682 -1.1855  0.5493 -0.8386
15094TIP3    H266698   0.167   4.874   3.597  0.9349  0.3504  0.5550
15095TIP3   OH266699   4.902   3.245   0.235  0.3351  0.1908 -0.2016
15095TIP3    H166700   4.882   3.153   0.222 -0.9218  0.3456  0.4611
15095TIP3    H266701   4.823   3.281   0.276  0.9189  1.4923 -0.1705
15096TIP3   OH266702   3.107   5.927   1.362 -0.1231  0.7151 -0.0134
15096TIP3    H166703   3.067   5.994   1.418  0.6977  0.2347  1.1942
15096TIP3    H266704   3.105   5.847   1.416  0.9320  0.3018 -0.5637
15097TIP3   OH266705   6.763   2.969   1.174  0.8934  0.0846 -0.4650
15097TIP3    H166706   6.703   2.897   1.152  2.7259 -1.6990  0.0616
15097TIP3    H266707   6.759   2.974   1.270 -0.4922  1.9036 -0.5662
15098TIP3   OH266708   2.847   1.367   3.758  0.2396  0.4692 -0.1236
15098TIP3    H166709   2.908   1.440   3.745 -0.2474  1.1011  0.9950
15098TIP3    H266710   2.849   1.350   3.852  1.9646 -2.4482 -0.5751
15099TIP3   OH266711   1.862   4.525  15.498  0.1901  0.0476  0.6482
15099TIP3    H166712   1.952   4.525  15.464  0.9134 -0.0887  2.4547
15099TIP3    H266713   1.807   4.524  15.419  1.7640 -1.2789 -0.5130
15100TIP3   OH266714   5.388   6.816   2.086 -0.7640 -0.6185 -0.8433
15100TIP3    H166715   5.416   6.756   2.017 -0.4667 -0.5197 -0.8110
15100TIP3    H266716   5.348   6.760   2.152 -1.2756 -0.6876 -1.2087
15101TIP3   OH266717   5.475   4.838  14.060  0.5953 -0.7661  0.5748
15101TIP3    H166718   5.542   4.897  14.027 -0.1546  0.4615  1.1827
15101TIP3    H266719   5.412   4.830  13.988  0.2262 -0.0810  0.8203
15102TIP3   OH266720   6.291   4.542   0.161 -0.3211  0.3350  0.1239
15102TIP3    H166721   6.359   4.479   0.187  0.8766  1.6666  0.3214
15102TIP3    H266722   6.244   4.561   0.242  0.6383  1.2216  0.4899
15103TIP3   OH266723   1.166   5.978   4.971 -0.0267  0.5448 -0.1971
15103TIP3    H166724   1.107   6.005   5.043 -0.2491 -1.9619  0.6586
15103TIP3    H266725   1.107   5.945   4.904  0.3208 -1.3955  0.4062
15104TIP3   OH266726   1.407   4.827  14.394  0.2887  0.1880 -0.2981
15104TIP3    H166727   1.362   4.910  14.407 -0.7268 -0.0436 -1.9432
15104TIP3    H266728   1.442   4.804  14.480 -0.0779  1.9212  0.3497
15105TIP3   OH266729   5.669   5.614   2.532 -0.0574 -0.4951  0.7345
15105TIP3    H166730   5.692   5.587   2.443  1.5455 -1.0683  1.2890
15105TIP3    H266731   5.578   5.587   2.542 -0.5827  0.4706 -1.0456
15106TIP3   OH266732   4.727   0.768   3.875 -0.7779 -0.1307  0.2950
15106TIP3    H166733   4.713   0.862   3.862 -1.5521 -0.1541  0.9330
15106TIP3    H266734   4.739   0.758   3.969  2.1078 -0.3278  0.0062
15107TIP3   OH266735   7.101   0.787  14.805  0.7773 -0.0097 -0.0202
15107TIP3    H166736   7.045   0.796  14.728  1.6592  3.2536 -0.4553
15107TIP3    H266737   7.082   0.864  14.858  0.7599 -1.7777  2.7375
15108TIP3   OH266738   0.783   4.898   4.707  0.3507 -0.1991  0.3010
15108TIP3    H166739   0.694   4.886   4.739 -0.0088  0.7996 -0.2945
15108TIP3    H266740   0.775   4.896   4.611  1.0905 -0.8800  0.2365
15109TIP3   OH266741   6.065   2.769  10.985 -0.1839  0.4146 -0.2944
15109TIP3    H166742   6.076   2.698  11.048  1.4243 -1.3511 -2.4122
15109TIP3    H266743   6.000   2.735  10.923  0.7916  0.6355 -1.4709
15110TIP3   OH266744   0.493   3.356   4.863 -0.2687 -0.1536  0.5374
15110TIP3    H166745   0.448   3.410   4.928 -0.3545  1.2043 -0.5898
15110TIP3    H266746   0.587   3.371   4.880 -0.2869  0.9765 -0.2151
15111TIP3   OH266747   2.502   1.507  15.328 -0.7106 -0.3621  0.0040
15111TIP3    H166748   2.505   1.417  15.296  0.6357 -0.6437  0.8482
15111TIP3    H266749   2.413   1.536  15.309 -0.5493 -1.1402 -2.2043
15112TIP3   OH266750   1.877   2.230  10.553 -0.3560 -0.0090 -0.8474
15112TIP3    H166751   1.886   2.262  10.643 -2.8972 -0.4645 -0.3537
15112TIP3    H266752   1.865   2.135  10.563  1.3529 -0.3709 -1.8622
15113TIP3   OH266753   4.918   5.829   3.790  0.2044 -0.1110 -0.4469
15113TIP3    H166754   4.986   5.763   3.796 -0.2980 -0.5196  2.2305
15113TIP3    H266755   4.928   5.881   3.870 -1.9182  0.4848 -0.5082
15114TIP3   OH266756   6.404   0.953   3.070  0.2862 -0.0941 -0.1489
15114TIP3    H166757   6.460   0.890   3.024  0.9457 -1.1218  1.9327
15114TIP3    H266758   6.315   0.933   3.040  0.5052 -1.9448  0.3480
15115TIP3   OH266759   2.724   1.013   1.067 -0.5736 -0.5974 -0.3859
15115TIP3    H166760   2.784   0.989   1.138 -0.6567  0.6226  0.1231
15115TIP3    H266761   2.649   0.954   1.078 -0.4658 -0.6047  0.4029
15116TIP3   OH266762   3.031   3.772  10.495  0.2861  0.6271  0.0651
15116TIP3    H166763   2.937   3.753  10.495  0.3794  0.1214  0.9277
15116TIP3    H266764   3.037   3.865  10.474 -0.2851  0.1825 -2.3576
15117TIP3   OH266765   1.890   3.599   4.794  0.3696 -0.9033  0.3536
15117TIP3    H166766   1.822   3.663   4.773  0.2124 -1.4397 -0.8780
15117TIP3    H266767   1.969   3.652   4.810 -0.6648 -0.1401  3.5855
15118TIP3   OH266768   3.950   5.358  15.259 -0.5754 -0.1444  0.5677
15118TIP3    H166769   3.997   5.311  15.191  0.9426  3.4987 -1.1851
15118TIP3    H266770   3.864   5.377  15.219 -0.5749 -0.0649  0.6036
15119TIP3   OH266771   2.409   1.050   2.831 -0.0801  0.1946 -0.1429
15119TIP3    H166772   2.440   1.136   2.857  1.0884 -0.6141  1.2567
15119TIP3    H266773   2.389   1.005   2.913  1.1669 -1.5145 -0.7066
15120TIP3   OH266774   6.442   3.356  15.530 -0.2129  0.4188 -0.6969
15120TIP3    H166775   6.476   3.393  15.448 -2.3434  1.3864 -1.2091
15120TIP3    H266776   6.517   3.355  15.589  1.3038  0.0120 -2.5329
15121TIP3   OH266777   0.665   2.760  15.426 -0.6331 -0.1210  0.1924
15121TIP3    H166778   0.696   2.778  15.337 -0.5590 -1.8275 -0.1600
15121TIP3    H266779   0.571   2.780  15.422 -0.4678  0.6611 -0.0053
15122TIP3   OH266780   0.610   0.411   1.895 -0.2675  0.6654 -0.2567
15122TIP3    H166781   0.703   0.408   1.872 -0.3323  2.2381 -0.8412
15122TIP3    H266782   0.607   0.383   1.987  0.6476 -0.3585 -0.5214
15123TIP3   OH266783   5.392   0.028  13.216  0.1859 -0.2137  0.5974
15123TIP3    H166784   5.315   0.043  13.271  0.3291 -1.3737  1.1344
15123TIP3    H266785   5.427   0.116  13.199 -0.6940  0.2527  1.1453
15124TIP3   OH266786   6.562   4.380   4.196  0.0608 -0.0149  0.3455
15124TIP3    H166787   6.519   4.297   4.176 -0.4590 -0.0493  1.5677
15124TIP3    H266788   6.527   4.441   4.130  1.5242 -1.0401 -1.4891
15125TIP3   OH266789   4.620   0.570   2.219 -0.2099 -0.1185  0.3212
15125TIP3    H166790   4.556   0.632   2.255 -0.8920 -0.4622 -0.2556
15125TIP3    H266791   4.596   0.486   2.258  0.0680 -0.1964  0.3241
15126TIP3   OH266792   3.949   4.562   0.746 -0.1874 -0.1337 -0.2207
15126TIP3    H166793   3.854   4.556   0.747 -0.2156  0.1611 -0.7747
15126TIP3    H266794   3.979   4.472   0.757 -0.4932  0.0135  2.2771
15127TIP3   OH266795   3.084   4.304  15.327  0.1875  0.1779  0.0277
15127TIP3    H166796   3.048   4.266  15.248  1.6006  0.5214 -0.8267
15127TIP3    H266797   3.108   4.229  15.381 -1.2263 -0.0491  0.3542
15128TIP3   OH266798   2.681   6.781   1.492 -0.6470 -0.2034 -0.4406
15128TIP3    H166799   2.728   6.851   1.537  1.0213 -2.1125  0.9661
15128TIP3    H266800   2.615   6.826   1.439  1.2921  2.4726 -0.7428
15129TIP3   OH266801   3.834   6.600   2.546 -0.0184  0.0132  0.0490
15129TIP3    H166802   3.849   6.671   2.608 -1.8297  0.4995 -0.0096
15129TIP3    H266803   3.865   6.522   2.591  1.4831  0.7316  0.3348
15130TIP3   OH266804   3.658   0.545   4.742  0.5511  0.2166 -0.0135
15130TIP3    H166805   3.597   0.495   4.688  1.7387 -0.3676 -0.8549
15130TIP3    H266806   3.740   0.545   4.692  1.3203  0.7684  1.2051
15131TIP3   OH266807   2.446   5.974  11.805  0.0501  0.0075  0.1941
15131TIP3    H166808   2.540   5.974  11.824  0.3906  0.7863 -1.3499
15131TIP3    H266809   2.421   6.066  11.805 -0.5728 -0.1550 -0.0833
15132TIP3   OH266810   5.360   0.523   0.509 -0.7516 -0.3633 -0.0578
15132TIP3    H166811   5.405   0.589   0.456  1.1738 -0.3151  1.5088
15132TIP3    H266812   5.427   0.457   0.526 -2.1047 -1.7750  0.0155
15133TIP3   OH266813   1.130   6.781  11.491  0.1619  0.1965  0.4282
15133TIP3    H166814   1.124   6.770  11.586  0.4960 -0.3899  0.3888
15133TIP3    H266815   1.124   6.875  11.477 -0.8344  0.2249  0.9565
15134TIP3   OH266816   5.261   6.988   2.530  0.3651 -0.3223  0.1251
15134TIP3    H166817   5.184   7.020   2.482  0.4429 -2.0286 -1.2229
15134TIP3    H266818   5.309   7.067   2.553 -1.4467  0.7552  0.4431
15135TIP3   OH266819   2.976   5.272  15.282  0.7207  0.2036 -0.6434
15135TIP3    H166820   2.955   5.179  15.271  0.9200  0.2194 -1.2034
15135TIP3    H266821   2.934   5.314  15.207 -0.9542  0.8219  0.5953
15136TIP3   OH266822   3.850   6.271  14.332  0.3245 -0.1317 -0.6016
15136TIP3    H166823   3.846   6.364  14.352  0.0780  0.0051 -1.2487
15136TIP3    H266824   3.899   6.266  14.250  1.0069 -0.6372 -0.1679
15137TIP3   OH266825   5.399   4.530  14.568 -0.1435  0.6388 -0.5555
15137TIP3    H166826   5.461   4.506  14.637 -1.6394 -1.4236  0.1593
15137TIP3    H266827   5.432   4.487  14.489  0.8427  1.9081 -0.8683
15138TIP3   OH266828   2.575   3.318   5.512 -0.2989  0.0951 -0.2929
15138TIP3    H166829   2.589   3.241   5.567  0.4006  0.5292  0.1435
15138TIP3    H266830   2.662   3.341   5.479 -0.1473  1.9588  1.2935
15139TIP3   OH266831   2.036   2.928   0.069 -0.3986  0.2506 -0.0814
15139TIP3    H166832   2.062   2.900   0.158 -0.3495 -0.3174 -0.2679
15139TIP3    H266833   1.942   2.941   0.075 -0.3346  0.6311  0.1606
15140TIP3   OH266834   3.347   1.852   2.242  0.0654  0.0955 -0.3098
15140TIP3    H166835   3.294   1.778   2.274 -1.0881  1.4948  1.1659
15140TIP3    H266836   3.416   1.810   2.189 -0.4930 -2.0432  0.5193
15141TIP3   OH266837   2.468   4.979   1.149 -1.1474 -0.2434 -0.0538
15141TIP3    H166838   2.416   5.007   1.224 -0.4748 -1.2024  0.7876
15141TIP3    H266839   2.403   4.953   1.083 -1.8532  3.3776 -1.0163
15142TIP3   OH266840   4.484   0.971   0.117  0.1279 -0.5387 -0.1999
15142TIP3    H166841   4.542   0.951   0.044 -1.3835  0.3546 -1.7244
15142TIP3    H266842   4.453   1.060   0.098 -1.3635 -0.8256  0.7906
15143TIP3   OH266843   5.535   1.859   3.378 -0.0737 -0.5193 -0.3122
15143TIP3    H166844   5.462   1.803   3.405  1.1048 -1.0769  1.9727
15143TIP3    H266845   5.589   1.868   3.456  0.1115  3.4434 -0.6584
15144TIP3   OH266846   1.014   5.802   3.486 -1.0526  0.0560  0.2393
15144TIP3    H166847   0.986   5.825   3.575  0.4527 -0.1660  0.8133
15144TIP3    H266848   0.978   5.871   3.430 -0.9404  0.9283  1.2125
15145TIP3   OH266849   0.523   2.387   3.453  0.7055 -0.1421  0.2589
15145TIP3    H166850   0.543   2.428   3.369  0.2791 -1.7020 -0.6364
15145TIP3    H266851   0.461   2.447   3.495 -1.2701 -0.6468 -1.7629
15146TIP3   OH266852   6.472   3.222   4.871  0.4023 -0.4997 -0.5524
15146TIP3    H166853   6.480   3.317   4.862 -0.9220 -0.1477  1.4399
15146TIP3    H266854   6.557   3.194   4.905  0.5240  0.0782 -0.3800
15147TIP3   OH266855   5.189   4.376  13.069 -0.3286 -0.1952  0.3913
15147TIP3    H166856   5.242   4.384  13.148 -0.4017  0.1913  0.4031
15147TIP3    H266857   5.170   4.282  13.062  0.9603 -0.4564 -0.0034
15148TIP3   OH266858   1.927   1.378   0.348 -0.3821 -0.0022  0.6111
15148TIP3    H166859   1.956   1.354   0.260 -0.4609  0.9614  0.3025
15148TIP3    H266860   1.943   1.301   0.401  0.5595 -0.2752 -0.0523
15149TIP3   OH266861   3.104   2.302  14.420 -0.1047 -0.4574 -0.4440
15149TIP3    H166862   3.178   2.268  14.370  0.0169 -1.5438  0.4419
15149TIP3    H266863   3.122   2.275  14.510 -0.3444  1.3909  0.2037
15150TIP3   OH266864   4.637   1.306  15.627  1.1810 -0.2828 -0.1091
15150TIP3    H166865   4.597   1.392  15.638 -0.2980 -0.7184 -1.6456
15150TIP3    H266866   4.719   1.311  15.676 -0.6295  0.7319  3.0967
15151TIP3   OH266867   1.919   2.053   2.953 -0.3701 -0.1556  0.1182
15151TIP3    H166868   1.929   2.001   2.874  0.5274 -2.2639  1.5101
15151TIP3    H266869   1.984   2.122   2.945 -1.0387  0.3409 -1.4259
15152TIP3   OH266870   5.520   5.047  12.291  0.2770 -0.0058  0.3523
15152TIP3    H166871   5.427   5.058  12.310  0.4166  0.3508  0.8586
15152TIP3    H266872   5.552   4.991  12.363  0.6520  0.6988  0.7430
15153TIP3   OH266873   6.159   0.583  10.578  0.0194  0.0045 -0.4280
15153TIP3    H166874   6.086   0.550  10.525 -0.8922  0.0855  0.7203
15153TIP3    H266875   6.157   0.529  10.657  2.8957 -1.7974 -1.4276
15154TIP3   OH266876   1.213   0.458   3.412  0.1484  0.5701 -0.0747
15154TIP3    H166877   1.166   0.541   3.401 -0.5119  0.1785 -0.2692
15154TIP3    H266878   1.270   0.472   3.488 -0.1372  1.1229  0.0397
15155TIP3   OH266879   5.519   5.398   2.883 -0.0088  0.5662 -0.7716
15155TIP3    H166880   5.524   5.493   2.868  0.6620  0.7166  0.3039
15155TIP3    H266881   5.431   5.384   2.916  0.5910  1.1607  1.1900
15156TIP3   OH266882   6.113   3.791   5.927 -0.1539 -0.2256  0.0417
15156TIP3    H166883   6.040   3.821   5.981  0.3874  0.5106  0.3952
15156TIP3    H266884   6.162   3.732   5.984 -0.9355 -1.4146 -0.4842
15157TIP3   OH266885   5.758   2.474   4.553 -0.2883  0.0596  0.4737
15157TIP3    H166886   5.754   2.529   4.475  0.3762  0.9401  1.0579
15157TIP3    H266887   5.670   2.480   4.591 -1.4064 -2.2659 -1.4418
15158TIP3   OH266888   4.373   6.085   4.269  0.1549  0.4202  0.2882
15158TIP3    H166889   4.324   6.064   4.190  0.1866  2.1085 -0.2092
15158TIP3    H266890   4.318   6.147   4.317 -0.2892 -1.2427  2.1060
15159TIP3   OH266891   3.435   6.445   0.051  0.2664 -0.4414  0.4187
15159TIP3    H166892   3.510   6.454  -0.008 -0.6725  1.2216 -0.5949
15159TIP3    H266893   3.362   6.423  -0.006 -0.4223 -0.0132  1.1178
15160TIP3   OH266894   1.077   4.571   2.347  0.2986 -0.5237  0.3606
15160TIP3    H166895   0.996   4.613   2.317  0.5026 -0.3125  0.0951
15160TIP3    H266896   1.049   4.484   2.376  0.2231 -1.1398 -1.4017
15161TIP3   OH266897   2.132   6.194  13.875 -0.2274  0.6538 -0.0557
15161TIP3    H166898   2.139   6.227  13.785  0.8232  2.1507  0.5290
15161TIP3    H266899   2.112   6.272  13.927 -3.7799 -0.5709  0.7437
15162TIP3   OH266900   5.757   4.065   0.167 -0.2393  0.5930  0.1772
15162TIP3    H166901   5.845   4.034   0.187 -0.4632 -0.2836 -0.1487
15162TIP3    H266902   5.726   4.007   0.097 -1.6373 -0.1042  1.3087
15163TIP3   OH266903   3.877   5.081  10.499 -0.0807  0.2814 -0.2066
15163TIP3    H166904   3.855   5.080  10.406  1.1846 -0.8114 -0.5154
15163TIP3    H266905   3.813   5.022  10.539 -2.5054  2.8997  0.1486
15164TIP3   OH266906   1.993   0.014   0.603  0.2195  0.7581  0.3597
15164TIP3    H166907   1.968   0.089   0.657 -1.0508  0.7363 -0.1432
15164TIP3    H266908   1.912  -0.011   0.558  0.3957 -1.4371  1.1258
15165TIP3   OH266909   3.123   4.069   1.116  0.0347 -0.3534 -0.5823
15165TIP3    H166910   3.179   4.063   1.193 -0.4553  2.2893  0.0520
15165TIP3    H266911   3.068   3.990   1.121 -2.0337  1.0581  3.5045
15166TIP3   OH266912   1.809   6.381   5.034  0.1378 -0.4133 -0.0903
15166TIP3    H166913   1.787   6.473   5.048 -1.0504 -1.0105  2.5863
15166TIP3    H266914   1.902   6.382   5.013  0.3885  1.3438  0.8770
15167TIP3   OH266915   1.735   3.103  14.089 -0.6154  0.1174 -0.1394
15167TIP3    H166916   1.763   3.134  14.003 -0.7737  0.0570 -0.2149
15167TIP3    H266917   1.801   3.038  14.114 -2.1771 -2.2378 -1.6407
15168TIP3   OH266918   4.264   2.714   4.784  0.4052 -0.4327 -0.0875
15168TIP3    H166919   4.238   2.671   4.865  1.1974  0.6659  0.7880
15168TIP3    H266920   4.181   2.734   4.740  0.0267 -2.8756 -0.5887
15169TIP3   OH266921   4.896   4.508  13.336  0.5620  0.0771 -0.2429
15169TIP3    H166922   4.883   4.460  13.418 -0.0445  0.6842  0.0301
15169TIP3    H266923   4.867   4.598  13.356  0.8602  0.3440 -0.9836
15170TIP3   OH266924   4.360   0.984   1.831  0.3209  0.0028 -0.5380
15170TIP3    H166925   4.412   1.060   1.857  0.5880 -0.0944 -0.7803
15170TIP3    H266926   4.269   1.010   1.848  0.2389  1.1277 -2.4143
15171TIP3   OH266927   4.538   2.864   0.885  0.1623 -1.0967 -0.4632
15171TIP3    H166928   4.625   2.903   0.897 -0.7413  0.8304  0.2593
15171TIP3    H266929   4.522   2.869   0.791  0.2348 -0.0405 -0.4313
15172TIP3   OH266930   6.164   0.636   1.465 -0.2127  0.1578  0.0265
15172TIP3    H166931   6.233   0.652   1.530 -0.2261 -1.1101  0.3694
15172TIP3    H266932   6.145   0.723   1.429  0.7573  0.6860  0.7398
15173TIP3   OH266933   5.815   5.016  13.930  0.3175  0.2862 -0.8893
15173TIP3    H166934   5.807   5.081  13.999  1.1758 -1.3191  0.8309
15173TIP3    H266935   5.736   5.027  13.877 -0.2898  1.6893  0.2459
15174TIP3   OH266936   3.080   3.136   4.303 -0.5322  0.8912  0.2764
15174TIP3    H166937   3.149   3.134   4.237  0.7541  3.4522  1.4171
15174TIP3    H266938   3.040   3.049   4.298  0.8302  0.3144 -2.4284
15175TIP3   OH266939   2.058   5.321  10.931 -0.3119  0.4100 -0.4452
15175TIP3    H166940   2.115   5.246  10.947 -1.3256  0.1079  2.4899
15175TIP3    H266941   2.105   5.396  10.969 -1.2210  0.3897  0.7929
15176TIP3   OH266942   5.583   6.720   3.400  0.1055  0.3844 -0.6242
15176TIP3    H166943   5.576   6.724   3.496  2.3260 -0.5992 -0.3646
15176TIP3    H266944   5.507   6.668   3.373 -0.8766  1.1656  0.5215
15177TIP3   OH266945   3.456   0.095  10.941 -0.2125  0.1108 -0.2209
15177TIP3    H166946   3.456   0.189  10.922  0.5934  0.0713 -0.4316
15177TIP3    H266947   3.500   0.055  10.866  0.2701 -0.3415  0.2957
15178TIP3   OH266948   6.059   3.373  13.275  0.3317 -0.2075  0.4500
15178TIP3    H166949   5.979   3.335  13.311 -0.1846 -0.0537 -0.5098
15178TIP3    H266950   6.073   3.326  13.193  1.4502 -0.5011  0.7769
15179TIP3   OH266951   6.123   0.114  12.902  0.6890  0.1337  0.2848
15179TIP3    H166952   6.086   0.157  12.980 -2.0517 -0.7712 -0.4123
15179TIP3    H266953   6.199   0.066  12.935  0.8989  1.5251  1.9729
15180TIP3   OH266954   0.678   6.268   0.325 -0.8474  0.1068 -0.8547
15180TIP3    H166955   0.721   6.348   0.355 -0.7312  0.5402 -2.1052
15180TIP3    H266956   0.584   6.284   0.340 -0.7725  0.1896 -0.4627
15181TIP3   OH266957   2.567   4.519   2.104 -0.1310 -0.1721 -0.1390
15181TIP3    H166958   2.503   4.569   2.053  2.0082  2.6457 -0.2460
15181TIP3    H266959   2.558   4.551   2.193 -0.7740 -1.8752  0.4628
15182TIP3   OH266960   2.755   3.955   0.802  0.3306 -0.0109  0.0443
15182TIP3    H166961   2.763   4.012   0.878 -0.4627 -0.8943  0.8157
15182TIP3    H266962   2.818   3.884   0.819 -0.4263 -0.6360  0.2894
15183TIP3   OH266963   5.100   4.316   3.983  0.1304  0.3673 -0.6572
15183TIP3    H166964   5.167   4.340   3.919  0.2890  0.5661 -0.4189
15183TIP3    H266965   5.075   4.227   3.959  0.3347  0.3677 -0.8744
15184TIP3   OH266966   0.856   2.510   4.555  0.6246  0.4841 -0.2638
15184TIP3    H166967   0.812   2.551   4.481 -0.2963  0.0817  0.0411
15184TIP3    H266968   0.946   2.541   4.550  0.9356 -0.5370 -2.3235
15185TIP3   OH266969   4.267   6.916  14.037 -0.3379  0.4700  0.1674
15185TIP3    H166970   4.290   6.833  14.080  0.5773  1.7114  2.2102
15185TIP3    H266971   4.298   6.905  13.947  2.1539 -0.5018  1.0494
15186TIP3   OH266972   6.380   2.591   5.422 -0.3598  0.0228  0.1000
15186TIP3    H166973   6.344   2.505   5.445 -3.4397  1.2496  0.3733
15186TIP3    H266974   6.408   2.629   5.505 -2.4096  0.6184  0.5967
15187TIP3   OH266975   0.254   5.295   6.401 -0.6929  0.1227  0.3514
15187TIP3    H166976   0.312   5.344   6.343 -0.5838  0.1062  0.4456
15187TIP3    H266977   0.166   5.315   6.370 -0.6381  0.1846  0.2368
15188TIP3   OH266978   1.794   1.904  11.400 -0.3197  0.1964 -0.5203
15188TIP3    H166979   1.855   1.834  11.423  0.5600  0.8700 -0.7330
15188TIP3    H266980   1.718   1.889  11.455 -0.2521 -1.0655 -0.7337
15189TIP3   OH266981   7.018   6.647   3.333 -0.1359  0.4197 -0.2909
15189TIP3    H166982   7.084   6.593   3.291 -1.5222 -0.7599 -1.0554
15189TIP3    H266983   7.022   6.731   3.288  1.1337  0.5360  0.0003
15190TIP3   OH266984   5.780   3.262  15.629 -0.0107 -0.5424  0.7666
15190TIP3    H166985   5.840   3.218  15.569 -0.2662 -0.3207  0.3406
15190TIP3    H266986   5.808   3.354  15.627 -1.0609 -0.2225 -0.3190
15191TIP3   OH266987   5.613   1.725  11.310 -0.1076  0.1117 -0.0989
15191TIP3    H166988   5.637   1.783  11.382  1.9137 -0.8547  0.0819
15191TIP3    H266989   5.680   1.742  11.243 -1.4962  0.4316 -1.4500
15192TIP3   OH266990   2.808   4.103   5.199 -0.2219 -0.3978 -0.0303
15192TIP3    H166991   2.866   4.092   5.274 -0.0710 -0.4757 -0.1587
15192TIP3    H266992   2.775   4.193   5.207  0.2238 -0.2227 -0.1804
15193TIP3   OH266993   5.560   5.248  15.111  0.1631 -0.4372 -0.6498
15193TIP3    H166994   5.650   5.220  15.123  0.9080  1.7349 -0.7115
15193TIP3    H266995   5.527   5.263  15.200  0.6627  0.9756 -0.6727
15194TIP3   OH266996   3.228   6.160   3.181 -0.1311 -0.1388  0.4103
15194TIP3    H166997   3.213   6.242   3.228 -2.5193  0.7624 -1.6998
15194TIP3    H266998   3.140   6.129   3.158  0.6521 -3.5277  1.3629
15195TIP3   OH266999   0.794   3.743   1.767 -0.3046  1.0218  0.2680
15195TIP3    H167000   0.880   3.749   1.726 -0.0834 -0.1704  0.5171
15195TIP3    H267001   0.790   3.819   1.825 -0.0481  1.9357 -0.8752
15196TIP3   OH267002   4.961   5.529   4.787 -0.3319 -0.7038 -0.2094
15196TIP3    H167003   5.042   5.493   4.750 -0.5828 -1.7445  0.2232
15196TIP3    H267004   4.901   5.454   4.790 -1.0218 -0.1384  0.2870
15197TIP3   OH267005   0.395   4.395   2.015 -0.1895  0.6168  0.2556
15197TIP3    H167006   0.376   4.411   2.107  0.4268 -0.3250  0.5619
15197TIP3    H267007   0.362   4.307   1.998  2.1430 -0.3679  0.3464
15198TIP3   OH267008   1.081   5.067  11.795  0.1582  0.2035  0.4624
15198TIP3    H167009   1.125   4.991  11.832  0.2876 -0.6635 -1.3413
15198TIP3    H267010   1.003   5.030  11.752  0.4289  1.0154 -0.7648
15199TIP3   OH267011   5.438   3.402   2.769  0.0111  0.7410  0.1846
15199TIP3    H167012   5.426   3.485   2.813  0.3884  1.3956 -0.9097
15199TIP3    H267013   5.530   3.379   2.784  0.5795  1.7455 -1.5167
15200TIP3   OH267014   5.744   5.239   0.831 -0.1493 -0.3456 -0.0444
15200TIP3    H167015   5.800   5.172   0.870  1.5149  0.4410 -0.9541
15200TIP3    H267016   5.793   5.321   0.844 -1.5041  0.5040 -0.1341
15201TIP3   OH267017   4.248   5.820  14.875 -0.0936  0.0676  0.1038
15201TIP3    H167018   4.218   5.819  14.966 -0.8552 -4.0025  0.0083
15201TIP3    H267019   4.172   5.848  14.824 -0.8703 -1.2383  0.5093
15202TIP3   OH267020   0.763   4.689  11.064 -0.2426 -0.0915  0.0977
15202TIP3    H167021   0.849   4.715  11.031 -0.6046  0.4989 -0.4057
15202TIP3    H267022   0.779   4.605  11.107  0.6463  0.1726  0.3133
15203TIP3   OH267023   0.690   6.887   1.268 -0.6267  0.1100 -0.2979
15203TIP3    H167024   0.678   6.831   1.345 -0.7005 -0.0629 -0.4333
15203TIP3    H267025   0.762   6.946   1.292  0.2106 -0.7669 -0.5524
15204TIP3   OH267026   0.634   2.732  11.496  0.4642 -0.1075  0.3306
15204TIP3    H167027   0.654   2.824  11.480 -1.1083 -0.1867 -2.6804
15204TIP3    H267028   0.541   2.731  11.520  0.2577 -0.9629 -0.4686
15205TIP3   OH267029   3.918   5.180  12.258  0.3859  0.1083  0.0545
15205TIP3    H167030   3.857   5.226  12.315 -0.9284 -2.1673  0.6106
15205TIP3    H267031   3.917   5.230  12.176  0.1112  1.7939  1.0441
15206TIP3   OH267032   0.323   6.905   2.296 -0.0583  0.8972  0.5656
15206TIP3    H167033   0.299   6.814   2.315 -0.9952  0.6481 -1.5274
15206TIP3    H267034   0.332   6.946   2.383 -0.6688 -0.9138  1.5374
15207TIP3   OH267035   1.450   4.030   1.626  0.2112 -0.0560  0.0862
15207TIP3    H167036   1.543   4.052   1.631  0.5445 -1.0648 -1.1810
15207TIP3    H267037   1.445   3.941   1.661 -0.0591 -0.5050 -1.0669
15208TIP3   OH267038   1.379   2.236   0.378  0.2070  0.0031  0.0211
15208TIP3    H167039   1.314   2.305   0.383 -0.3675 -0.5327  0.0750
15208TIP3    H267040   1.429   2.244   0.460 -0.2180  0.0016  0.2848
15209TIP3   OH267041   3.843   2.011   4.861 -0.1664  0.3871  0.1630
15209TIP3    H167042   3.850   2.026   4.955  0.0463  0.6652  0.1033
15209TIP3    H267043   3.757   2.044   4.837  0.0628  0.9764  0.1361
15210TIP3   OH267044   3.281   2.022  12.993  0.3930  0.6941 -0.4435
15210TIP3    H167045   3.249   2.085  13.059  1.3621  0.3946  0.3392
15210TIP3    H267046   3.224   2.035  12.918 -2.0894 -0.3326  1.1256
15211TIP3   OH267047   0.566   0.431   4.547 -0.8346  0.2453  0.0550
15211TIP3    H167048   0.538   0.482   4.471  0.5509 -1.5245 -1.7775
15211TIP3    H267049   0.569   0.341   4.514 -0.5626 -0.6465  2.3681
15212TIP3   OH267050   7.100   3.728  11.731 -0.5202 -0.2371 -0.3910
15212TIP3    H167051   7.062   3.785  11.664  1.4476  1.0743 -0.4858
15212TIP3    H267052   7.107   3.643  11.690 -1.7723 -0.1048 -0.9182
15213TIP3   OH267053   0.557   6.102   1.404  0.4112 -0.0114 -0.0032
15213TIP3    H167054   0.619   6.079   1.473  0.1367 -0.3563  0.1271
15213TIP3    H267055   0.549   6.197   1.410  1.4487  0.1203 -0.4593
15214TIP3   OH267056   6.223   1.499   1.777 -0.3409 -0.6692  0.0587
15214TIP3    H167057   6.311   1.494   1.812 -0.9611  0.6765  2.0021
15214TIP3    H267058   6.186   1.412   1.791 -0.3325 -0.3756  2.2532
15215TIP3   OH267059   2.497   6.709   5.443 -0.6640  0.1153 -0.4422
15215TIP3    H167060   2.456   6.666   5.368 -1.0445  0.2928 -0.3376
15215TIP3    H267061   2.562   6.767   5.405 -0.6810  0.0160 -0.6237
15216TIP3   OH267062   4.946   3.893   0.100 -0.1108  0.0324 -0.4064
15216TIP3    H167063   4.989   3.864   0.181  0.1262  0.4806 -0.3637
15216TIP3    H267064   4.926   3.985   0.115 -4.1394 -0.8617  0.8751
15217TIP3   OH267065   0.222   6.470   1.329  0.0885  0.1510  0.1050
15217TIP3    H167066   0.242   6.485   1.237  0.7757 -0.6502  0.1090
15217TIP3    H267067   0.175   6.549   1.357 -0.0151  0.4548 -0.8900
15218TIP3   OH267068   4.571   5.479   3.326  0.2827 -0.2644  0.2795
15218TIP3    H167069   4.491   5.528   3.345  0.1361 -1.1320  2.1734
15218TIP3    H267070   4.544   5.411   3.264 -0.4721 -0.5689  0.9284
15219TIP3   OH267071   0.241   1.806   2.883 -0.1281  0.2329  0.2470
15219TIP3    H167072   0.165   1.760   2.847 -0.9664 -0.0652  2.2706
15219TIP3    H267073   0.313   1.781   2.825 -1.5494  0.6422 -1.8115
15220TIP3   OH267074   5.569   5.472  10.682 -0.1879 -0.5510 -0.0605
15220TIP3    H167075   5.589   5.390  10.637  0.6041 -0.4720  0.1475
15220TIP3    H267076   5.537   5.444  10.769 -0.4443 -0.6537 -0.1855
15221TIP3   OH267077   0.004   5.713   0.170 -0.1937 -0.0093  0.1531
15221TIP3    H167078  -0.072   5.655   0.175 -0.6719  0.3001 -2.3184
15221TIP3    H267079   0.075   5.658   0.136  0.9655 -0.4445  2.9622
15222TIP3   OH267080   1.583   3.485   0.849 -0.2738  0.5005 -0.0325
15222TIP3    H167081   1.631   3.409   0.814  0.0009  1.0608 -0.9069
15222TIP3    H267082   1.573   3.543   0.774 -0.8716  1.1399  0.5322
15223TIP3   OH267083   0.604   5.116  12.891 -0.0744  0.2422 -0.0308
15223TIP3    H167084   0.661   5.050  12.932  0.7487  1.6248  1.1337
15223TIP3    H267085   0.569   5.167  12.964 -0.9090  0.9318 -0.8927
15224TIP3   OH267086   3.342   0.421  14.602 -0.1576 -0.6550  0.3476
15224TIP3    H167087   3.376   0.492  14.657 -0.0466 -0.9533  0.6635
15224TIP3    H267088   3.278   0.464  14.545  0.6105 -0.1113 -0.1382
15225TIP3   OH267089   0.371   7.008   0.450 -0.8454 -0.1240 -0.1863
15225TIP3    H167090   0.455   7.053   0.463 -1.5560  0.6776  2.2459
15225TIP3    H267091   0.387   6.918   0.478 -0.7881  0.0237  0.2600
15226TIP3   OH267092   1.179   3.668   4.971  0.1928 -0.2307  0.0921
15226TIP3    H167093   1.142   3.657   4.884 -0.1044  0.7013  0.0918
15226TIP3    H267094   1.155   3.757   4.997  1.1429 -0.1340  0.7102
15227TIP3   OH267095   1.168   1.510   2.593 -0.4251  0.2392  0.5674
15227TIP3    H167096   1.224   1.582   2.623  0.4758  0.7222 -2.0202
15227TIP3    H267097   1.079   1.541   2.609 -0.0332  1.4502  0.5246
15228TIP3   OH267098   7.044   3.737   2.013 -0.0358  0.6014  0.1493
15228TIP3    H167099   7.015   3.647   1.996  1.0266  0.1917  0.4473
15228TIP3    H267100   6.996   3.762   2.092  0.1260  0.0691  0.4220
15229TIP3   OH267101   4.745   4.439   9.708  0.0926 -0.2887  0.5786
15229TIP3    H167102   4.840   4.446   9.711  0.0037  2.0380  0.1089
15229TIP3    H267103   4.724   4.445   9.615 -0.5149 -0.9675  0.6660
15230TIP3   OH267104   5.351   3.481   4.089  0.0908  1.1122 -0.4918
15230TIP3    H167105   5.371   3.414   4.024  0.4479  1.5204 -0.8150
15230TIP3    H267106   5.432   3.532   4.095  0.0809  1.0378  0.3246
15231TIP3   OH267107   4.400   0.724   3.639  0.0072  0.4883  0.2874
15231TIP3    H167108   4.336   0.795   3.628 -1.2362 -0.8325 -1.7946
15231TIP3    H267109   4.480   0.757   3.599 -0.1702  1.1870  0.4992
15232TIP3   OH267110   2.318   1.356  14.444 -0.0045 -0.3272 -0.2791
15232TIP3    H167111   2.359   1.282  14.399 -1.5519 -1.8429  0.6458
15232TIP3    H267112   2.236   1.370  14.396 -1.2090 -1.3205  1.3845
15233TIP3   OH267113   1.212   5.632  14.165  0.2030  0.8433 -0.1350
15233TIP3    H167114   1.136   5.651  14.109 -0.1082  1.6848  0.5425
15233TIP3    H267115   1.178   5.640  14.254  1.0027  0.8322  0.1790
15234TIP3   OH267116   5.974   3.281   3.327 -0.5003 -1.0558 -0.4436
15234TIP3    H167117   5.905   3.256   3.388  1.1661 -2.2951  1.0559
15234TIP3    H267118   6.029   3.203   3.320 -0.0223 -0.6029 -2.7475
15235TIP3   OH267119   4.998   1.743   4.994 -0.5610 -0.6069  0.5988
15235TIP3    H167120   4.932   1.783   4.938  1.0196 -0.7864 -1.5115
15235TIP3    H267121   5.056   1.814   5.019 -0.2667 -0.8135  0.5197
15236TIP3   OH267122   0.215   5.332  15.126  0.5318 -0.2235 -0.0079
15236TIP3    H167123   0.238   5.301  15.214  1.5465 -0.4046 -0.3270
15236TIP3    H267124   0.299   5.352  15.085  0.0335  0.4968 -0.7110
15237TIP3   OH267125   5.218   3.970   2.926  0.0221 -0.2397 -0.4708
15237TIP3    H167126   5.261   3.887   2.946  0.7386  0.3187  0.3557
15237TIP3    H267127   5.281   4.019   2.873  0.3040  0.4512  0.4744
15238TIP3   OH267128   2.628   6.725   5.961 -0.5817 -0.3262 -0.6216
15238TIP3    H167129   2.547   6.750   6.004 -0.9851  1.3737 -2.2338
15238TIP3    H267130   2.612   6.636   5.929 -1.4185 -0.3972 -0.0321
15239TIP3   OH267131   0.648   6.025  10.115  0.5669  0.2892  0.4038
15239TIP3    H167132   0.626   6.049  10.025 -0.9590  2.2527  1.2107
15239TIP3    H267133   0.743   6.031  10.119  0.6362  0.4956 -0.9848
15240TIP3   OH267134   2.616   6.628   2.554 -0.2955 -0.0094 -0.0012
15240TIP3    H167135   2.546   6.690   2.573 -1.6183 -1.2546 -0.5957
15240TIP3    H267136   2.629   6.635   2.459  1.6819  1.4856  0.3262
15241TIP3   OH267137   1.168   1.120   2.500 -0.4942  0.0842  0.3336
15241TIP3    H167138   1.241   1.059   2.493 -0.7085 -0.0740 -0.6935
15241TIP3    H267139   1.124   1.115   2.415 -1.7288  0.1474  0.9461
15242TIP3   OH267140   5.842   4.443  12.992  0.6140 -0.0401 -0.3209
15242TIP3    H167141   5.796   4.362  12.970  0.3722 -0.1262  0.4703
15242TIP3    H267142   5.832   4.452  13.086 -1.2700  2.0523 -0.6213
15243TIP3   OH267143   0.485   3.800   2.722  0.6323 -0.0776  0.0543
15243TIP3    H167144   0.531   3.742   2.661  0.7360  1.2175 -1.1580
15243TIP3    H267145   0.514   3.772   2.809  0.4760 -1.9761 -0.4763
15244TIP3   OH267146   0.131   6.547   3.882 -0.5461 -1.0703 -0.1776
15244TIP3    H167147   0.227   6.543   3.890 -0.5282 -0.3250 -0.0081
15244TIP3    H267148   0.116   6.607   3.809 -0.9112 -0.0583  0.7177
15245TIP3   OH267149   6.465   6.313   2.865 -0.0810 -0.0062 -0.7471
15245TIP3    H167150   6.402   6.328   2.795 -2.2054 -0.8774  0.8811
15245TIP3    H267151   6.496   6.400   2.889 -1.5905  0.5512 -0.7760
15246TIP3   OH267152   6.688   6.448   0.360 -0.1730  0.0598 -0.1525
15246TIP3    H167153   6.718   6.361   0.332  0.8755  0.2613  0.2817
15246TIP3    H267154   6.669   6.494   0.278  0.9300 -0.0175 -0.4713
15247TIP3   OH267155   1.749   1.494   5.951  0.6475  0.1080  0.5911
15247TIP3    H167156   1.750   1.589   5.941  1.6477  0.2460  1.7964
15247TIP3    H267157   1.679   1.477   6.014  0.3410  0.0221  0.2311
15248TIP3   OH267158   6.842   6.689  15.201 -0.5322 -0.0555 -0.3666
15248TIP3    H167159   6.856   6.712  15.109 -0.0909 -1.2357 -0.6096
15248TIP3    H267160   6.852   6.594  15.204 -0.6266 -0.0417  0.8935
15249TIP3   OH267161   3.048   1.996  15.441  0.3553 -0.0143  0.0688
15249TIP3    H167162   3.125   2.014  15.495  0.1726 -1.3476  0.8097
15249TIP3    H267163   3.040   2.073  15.384  2.3750  0.0448 -0.1956
15250TIP3   OH267164   6.798   1.769  15.511 -0.0066  0.3783  1.2065
15250TIP3    H167165   6.746   1.757  15.432 -0.2761  0.0942  1.4208
15250TIP3    H267166   6.735   1.800  15.576  0.0147 -0.2767  1.5561
15251TIP3   OH267167   5.667   2.368   1.959  0.7315  0.4483  0.5659
15251TIP3    H167168   5.740   2.393   1.902  1.2013 -1.0590  0.4644
15251TIP3    H267169   5.697   2.289   2.004 -0.9184 -0.3640  0.3258
15252TIP3   OH267170   2.458   5.887   4.781  0.2985 -0.2100 -0.6440
15252TIP3    H167171   2.433   5.890   4.873  1.3024 -3.3337 -0.1469
15252TIP3    H267172   2.377   5.865   4.735  0.3384 -1.5870 -0.1067
15253TIP3   OH267173   1.837   4.591  14.758 -0.0382 -0.0524  0.1636
15253TIP3    H167174   1.848   4.682  14.785  0.4108  0.4326 -1.5349
15253TIP3    H267175   1.863   4.540  14.834 -0.4002  1.2256  1.1871
15254TIP3   OH267176   4.495   3.422  10.239  0.4821  0.4276 -0.2770
15254TIP3    H167177   4.548   3.381  10.171 -1.0877 -0.2700 -1.1359
15254TIP3    H267178   4.525   3.513  10.241  2.1874 -0.1084 -0.2033
15255TIP3   OH267179   0.121   6.792   4.530  0.3998 -0.1183  0.4216
15255TIP3    H167180   0.186   6.860   4.550  0.7302 -0.2010 -0.3318
15255TIP3    H267181   0.172   6.718   4.497 -0.0210 -0.4507  0.4997
15256TIP3   OH267182   6.735   1.859   0.435  0.2796 -0.3183  0.0131
15256TIP3    H167183   6.780   1.807   0.368  1.0888  1.2962 -0.7392
15256TIP3    H267184   6.646   1.869   0.401  0.4632 -0.1759 -0.4354
15257TIP3   OH267185   0.006   5.434  14.250 -0.5038 -0.0781 -0.1479
15257TIP3    H167186  -0.075   5.445  14.301 -0.5582 -1.5410  0.1337
15257TIP3    H267187  -0.018   5.371  14.181  0.4050 -0.5934 -0.0120
15258TIP3   OH267188   1.345   5.544   1.960  0.4413  0.3000  0.0440
15258TIP3    H167189   1.411   5.484   1.994  0.0624  0.5965  1.3517
15258TIP3    H267190   1.305   5.497   1.887  1.8840  0.0015 -0.5850
15259TIP3   OH267191   4.763   6.621  12.602 -0.6199  0.3186  0.0955
15259TIP3    H167192   4.679   6.577  12.585 -0.7689 -0.2005  1.9288
15259TIP3    H267193   4.821   6.551  12.632 -0.2321  1.0248  1.0336
15260TIP3   OH267194   5.686   3.064  10.375  0.3629 -0.2113  0.2249
15260TIP3    H167195   5.626   3.097  10.309  0.5766  0.2884  0.2776
15260TIP3    H267196   5.676   2.969  10.371  0.8651 -0.2290 -0.9896
15261TIP3   OH267197   1.402   4.023   5.362  0.6385  0.1878  0.3197
15261TIP3    H167198   1.482   3.985   5.324  0.3671 -0.0019 -0.0750
15261TIP3    H267199   1.343   4.033   5.287 -1.5901 -4.2117  1.1712
15262TIP3   OH267200   6.368   5.374   4.081 -0.5161 -0.2245 -0.2074
15262TIP3    H167201   6.455   5.387   4.043 -0.8866 -0.2458 -1.0822
15262TIP3    H267202   6.368   5.283   4.109 -0.5579 -0.4839 -1.0191
15263TIP3   OH267203   2.356   4.413   3.358  0.6618 -0.2777 -0.4561
15263TIP3    H167204   2.377   4.437   3.449  1.4533 -2.4098 -0.0172
15263TIP3    H267205   2.442   4.407   3.315  0.3404 -0.0598 -1.1339
15264TIP3   OH267206   0.310   6.799  14.479  0.8319 -0.2552 -0.1502
15264TIP3    H167207   0.286   6.759  14.563  3.0875 -0.6804  0.3666
15264TIP3    H267208   0.332   6.724  14.423  1.4758  0.0992 -0.3857
15265TIP3   OH267209   6.986   4.369   4.248 -0.6759  0.1637  0.1304
15265TIP3    H167210   6.937   4.439   4.290  1.4594 -0.0874  3.4087
15265TIP3    H267211   7.028   4.410   4.172  0.3604  2.4417  1.8376
15266TIP3   OH267212   6.872   5.861   0.302  0.1464 -0.2461 -0.3381
15266TIP3    H167213   6.822   5.940   0.324  0.6073  0.4985 -1.8257
15266TIP3    H267214   6.958   5.876   0.342  0.5724  0.5093 -1.5062
15267TIP3   OH267215   0.310   6.855   4.908  0.4197  0.3042 -0.1659
15267TIP3    H167216   0.326   6.769   4.870 -1.8846 -1.4940  2.4521
15267TIP3    H267217   0.365   6.858   4.986 -0.5398  0.5344  0.5309
15268TIP3   OH267218   5.941   3.928  14.389  0.6255 -0.2208  0.6333
15268TIP3    H167219   5.965   3.840  14.417 -0.9378 -0.9006 -0.0356
15268TIP3    H267220   5.851   3.939  14.420  1.8095  2.4441  3.6400
15269TIP3   OH267221   6.282   1.610  14.560  0.1589  0.4439 -0.1759
15269TIP3    H167222   6.295   1.703  14.581 -1.1427  1.4979 -3.4541
15269TIP3    H267223   6.188   1.596  14.570  0.4490 -0.8650  1.1813
15270TIP3   OH267224   3.264   2.691   3.364  0.3245 -0.0898 -0.4588
15270TIP3    H167225   3.174   2.691   3.333 -0.9217 -1.6386  2.6512
15270TIP3    H267226   3.310   2.630   3.306 -1.2501 -1.1494 -0.6353
15271TIP3   OH267227   3.272   3.453  10.715 -0.1255  0.1535  0.1327
15271TIP3    H167228   3.192   3.423  10.757  0.1779 -1.9234 -0.6242
15271TIP3    H267229   3.250   3.538  10.678 -2.1364 -0.5760 -0.4593
15272TIP3   OH267230   6.330   3.322   0.326 -0.6388 -0.0444  0.0500
15272TIP3    H167231   6.270   3.347   0.395  0.1621  0.0730  0.7230
15272TIP3    H267232   6.353   3.231   0.346 -0.2056  0.0717  0.0839
15273TIP3   OH267233   4.585   0.518   1.424  0.2038  0.4966 -0.3024
15273TIP3    H167234   4.601   0.533   1.331  0.0734 -1.2376 -0.6304
15273TIP3    H267235   4.491   0.497   1.430  0.2582  0.3680  0.1899
15274TIP3   OH267236   2.098   1.688   2.950 -0.1723  0.5568 -0.3525
15274TIP3    H167237   2.141   1.614   2.993 -0.4630 -0.3996 -1.6594
15274TIP3    H267238   2.086   1.752   3.020 -0.4992 -0.8721  0.9677
15275TIP3   OH267239   2.361   4.144  14.883  0.4278 -0.0454 -0.1771
15275TIP3    H167240   2.373   4.049  14.889  2.7197  0.2271  0.5243
15275TIP3    H267241   2.387   4.166  14.793  0.4606 -0.0299 -0.1640
15276TIP3   OH267242   1.659   6.062   2.633  0.4410  0.4194  0.1245
15276TIP3    H167243   1.588   6.066   2.570  1.0161  1.6655 -0.4803
15276TIP3    H267244   1.683   6.154   2.648  1.4086  0.0603  0.8940
15277TIP3   OH267245   5.912   6.957   4.919  0.5729 -0.0197  0.3469
15277TIP3    H167246   5.939   6.866   4.929  0.0531 -0.3887 -1.2411
15277TIP3    H267247   5.914   6.972   4.824  0.5463  1.5869  0.5760
15278TIP3   OH267248   2.322   0.676   4.671 -0.8682 -0.0313  0.3654
15278TIP3    H167249   2.304   0.749   4.730 -0.8215  0.2043  0.0875
15278TIP3    H267250   2.292   0.599   4.719 -0.9686  0.1744  0.6362
15279TIP3   OH267251   3.652   6.787  12.522 -0.0743  0.7075  0.1931
15279TIP3    H167252   3.573   6.739  12.496 -2.6533  3.2162  2.5584
15279TIP3    H267253   3.679   6.745  12.604  0.5593  0.3690 -0.1865
15280TIP3   OH267254   4.955   7.124   3.013 -0.2199  0.3104 -0.3539
15280TIP3    H167255   4.975   7.124   3.107 -0.1928  1.7207 -0.3319
15280TIP3    H267256   5.040   7.135   2.971 -0.3126  0.4296 -0.5109
15281TIP3   OH267257   2.381   4.015   5.498 -0.8258 -0.9552  0.5583
15281TIP3    H167258   2.467   3.981   5.475  0.1068  1.4418  0.1579
15281TIP3    H267259   2.368   3.988   5.589  0.4751 -1.1390  0.7087
15282TIP3   OH267260   1.171   4.602  12.181 -0.3943  0.4530 -0.3203
15282TIP3    H167261   1.112   4.563  12.116 -0.9644 -0.2539  0.5829
15282TIP3    H267262   1.114   4.622  12.256  0.1956  1.4870 -0.1180
15283TIP3   OH267263   3.327   2.261   1.783 -0.5428 -0.2125  0.0404
15283TIP3    H167264   3.249   2.316   1.794  0.3639  0.6154  3.4083
15283TIP3    H267265   3.295   2.171   1.797 -1.1886 -0.0693 -0.4759
15284TIP3   OH267266   2.341   4.504  14.982 -0.3177 -0.3455  0.1597
15284TIP3    H167267   2.369   4.595  14.983  1.2505 -0.7862 -0.2015
15284TIP3    H267268   2.251   4.505  15.016 -0.8888  1.4934 -1.2862
15285TIP3   OH267269   4.235   6.627  15.442 -0.3997  0.3115 -0.4255
15285TIP3    H167270   4.154   6.600  15.485  0.3377 -1.3676 -0.0075
15285TIP3    H267271   4.278   6.685  15.504  0.1888 -1.3104  0.7448
15286TIP3   OH267272   3.194   6.429   3.259  0.5262 -0.2809 -0.1400
15286TIP3    H167273   3.144   6.500   3.300  0.3035  0.0770 -0.9921
15286TIP3    H267274   3.271   6.472   3.224 -1.2323  0.3216 -3.7596
15287TIP3   OH267275   5.340   4.661   0.707  0.2718  0.7089 -0.2808
15287TIP3    H167276   5.367   4.750   0.684  1.0236  0.2217 -1.3844
15287TIP3    H267277   5.253   4.671   0.745  1.1082  2.1182  1.4182
15288TIP3   OH267278   1.357   6.087   2.684 -0.4097  0.8484  0.2353
15288TIP3    H167279   1.417   6.134   2.626  1.2071 -1.0516  0.2563
15288TIP3    H267280   1.308   6.029   2.626 -0.3590  0.5183  0.5202
15289TIP3   OH267281   2.644   2.733   5.503 -0.1951  0.3869 -0.2186
15289TIP3    H167282   2.735   2.733   5.472  0.0448 -0.4465  0.4344
15289TIP3    H267283   2.603   2.662   5.454 -0.5417  0.8588 -0.6209
15290TIP3   OH267284   5.936   0.977   4.674  0.4528 -0.2513  0.0545
15290TIP3    H167285   5.934   0.996   4.580 -1.1849  0.0345  0.1146
15290TIP3    H267286   5.980   0.892   4.680  0.9975 -0.0476 -0.9289
15291TIP3   OH267287   6.006   4.723  12.111  0.0263  0.0991  0.6944
15291TIP3    H167288   6.055   4.641  12.113 -1.7510 -1.1661 -1.6225
15291TIP3    H267289   5.994   4.746  12.204  1.8774 -1.4007  1.3753
15292TIP3   OH267290   3.821   1.038   0.219  0.0668  0.5740  0.1496
15292TIP3    H167291   3.858   1.010   0.303  0.8241  1.9544  0.3118
15292TIP3    H267292   3.822   1.134   0.224  0.3022  0.6786 -1.5074
15293TIP3   OH267293   5.555   4.217   3.698 -0.0354 -0.3308 -0.7999
15293TIP3    H167294   5.623   4.228   3.765 -0.8874 -0.3490  0.0898
15293TIP3    H267295   5.549   4.122   3.686 -0.0809 -0.3401 -0.7016
15294TIP3   OH267296   2.417   1.220   4.275 -0.5400  0.0953 -0.6497
15294TIP3    H167297   2.331   1.256   4.255  0.5084  2.8335 -0.6462
15294TIP3    H267298   2.470   1.236   4.197  0.9479  1.9900  0.6516
15295TIP3   OH267299   5.311   3.616   5.854  0.2484  0.6816  0.1176
15295TIP3    H167300   5.349   3.598   5.769  0.1882 -1.6135  0.5044
15295TIP3    H267301   5.386   3.640   5.909  0.8666 -1.4227  0.2758
15296TIP3   OH267302   6.766   3.667   5.436  0.0027 -0.1705 -0.4490
15296TIP3    H167303   6.806   3.581   5.447 -0.7492 -0.5541 -0.5893
15296TIP3    H267304   6.718   3.682   5.518  0.2523  0.1791 -0.3672
15297TIP3   OH267305   0.920   3.673   0.544 -0.6354  0.6290  0.3316
15297TIP3    H167306   0.939   3.580   0.553 -1.0172  0.6950  2.3281
15297TIP3    H267307   0.825   3.679   0.546 -0.6254  1.0446 -0.1956
15298TIP3   OH267308   3.723   4.433   4.358 -0.0510  0.8579  0.0924
15298TIP3    H167309   3.788   4.367   4.378  0.6380  1.8037  1.1456
15298TIP3    H267310   3.725   4.443   4.263  0.5369  0.0842  0.0248
15299TIP3   OH267311   0.327   5.314   4.297  0.1323  0.6219 -0.2840
15299TIP3    H167312   0.281   5.367   4.232  0.0546 -0.1225 -0.8449
15299TIP3    H267313   0.404   5.282   4.251  0.5043  0.7492  0.2418
15300TIP3   OH267314   5.096   6.992   5.006 -0.0037  0.3170 -0.6186
15300TIP3    H167315   5.124   6.932   4.937 -1.1952  1.7390 -2.4317
15300TIP3    H267316   5.177   7.034   5.035  0.6150 -0.8622 -0.5790
15301TIP3   OH267317   6.706   2.873   2.095  0.0885  0.3976 -0.4793
15301TIP3    H167318   6.640   2.804   2.094 -1.0184  1.4210 -0.1755
15301TIP3    H267319   6.676   2.936   2.030 -0.7592  2.2199  1.5666
15302TIP3   OH267320   3.281   6.095  11.142  0.6118 -0.4272 -0.2806
15302TIP3    H167321   3.314   6.106  11.231  2.4495  0.0753 -0.9701
15302TIP3    H267322   3.197   6.050  11.152  0.2741  0.5495  1.7499
15303TIP3   OH267323   0.354   2.511  11.249  0.7889  0.8626  0.0253
15303TIP3    H167324   0.332   2.466  11.168 -0.0889 -0.1674  0.8151
15303TIP3    H267325   0.447   2.491  11.263  0.8167  0.6394 -0.4553
15304TIP3   OH267326   1.799   0.392  14.136  0.2319  0.7307 -0.0381
15304TIP3    H167327   1.768   0.383  14.226 -0.6365 -1.2945 -0.4762
15304TIP3    H267328   1.814   0.302  14.107  2.3010  1.4211 -1.3403
15305TIP3   OH267329   2.709   1.071   3.783  0.4684 -0.1299  0.8167
15305TIP3    H167330   2.755   1.154   3.769  1.2769 -0.1356  2.9899
15305TIP3    H267331   2.617   1.095   3.791  0.2871  0.1550 -1.3598
15306TIP3   OH267332   3.148   4.223   3.845  0.1223  0.1892  0.0798
15306TIP3    H167333   3.124   4.175   3.925 -0.7406  0.4325 -0.0306
15306TIP3    H267334   3.243   4.232   3.852  0.0580  0.2619  1.1166
15307TIP3   OH267335   1.751   1.909   3.115  0.4573  0.5986  0.0702
15307TIP3    H167336   1.715   1.881   3.030  0.3123  0.0383  0.3123
15307TIP3    H267337   1.826   1.964   3.092 -0.1894  1.2976 -0.4360
15308TIP3   OH267338   3.977   3.427   0.444  0.3811 -0.5777  0.5195
15308TIP3    H167339   3.915   3.494   0.415 -0.0358 -1.0727  0.2475
15308TIP3    H267340   4.043   3.423   0.375  0.8683  0.1306  0.9308
15309TIP3   OH267341   5.122   0.173  10.503  0.2835  0.0574  0.0168
15309TIP3    H167342   5.181   0.128  10.443 -0.1657 -1.1166  0.4154
15309TIP3    H267343   5.162   0.161  10.589 -1.0237 -1.7348  0.4550
15310TIP3   OH267344   0.787   2.481   5.641 -0.6257 -0.1266 -0.3463
15310TIP3    H167345   0.826   2.394   5.635 -1.0828 -0.6702  3.0153
15310TIP3    H267346   0.861   2.541   5.631  0.0735 -0.9564 -0.2561
15311TIP3   OH267347   0.412   6.884  14.130  0.2530 -0.4299  0.0700
15311TIP3    H167348   0.322   6.876  14.098 -0.0494  0.7975  0.5729
15311TIP3    H267349   0.420   6.815  14.196 -1.6325  1.8031  2.8759
15312TIP3   OH267350   4.268   5.784   1.158 -0.0491 -0.1216 -0.4132
15312TIP3    H167351   4.188   5.770   1.106  0.9316 -1.9448 -1.5541
15312TIP3    H267352   4.305   5.696   1.169  1.9738  0.7040 -0.2198
15313TIP3   OH267353   6.469   3.620   3.042  0.1294  0.0541 -0.0146
15313TIP3    H167354   6.562   3.618   3.019 -0.0595  0.6426 -0.8516
15313TIP3    H267355   6.427   3.561   2.979 -0.1855  0.4934 -0.2160
15314TIP3   OH267356   2.694   3.298   5.774 -0.4755 -0.0758  0.2574
15314TIP3    H167357   2.787   3.287   5.755 -0.6721  1.6485 -2.3504
15314TIP3    H267358   2.685   3.391   5.797 -1.4559 -0.4299  1.4317
15315TIP3   OH267359   0.559   4.618   0.081  0.0893  0.1723 -0.1291
15315TIP3    H167360   0.635   4.666   0.047 -2.4238  3.9379 -1.0487
15315TIP3    H267361   0.519   4.578   0.004 -0.2212  0.3324 -0.0521
15316TIP3   OH267362   4.320   2.015  10.434 -0.0154 -0.1131 -0.5675
15316TIP3    H167363   4.357   2.101  10.456  0.4824 -0.2530 -0.8531
15316TIP3    H267364   4.311   1.970  10.518 -0.1274  0.1554 -0.4348
15317TIP3   OH267365   4.807   0.793   1.175  0.5347  0.0401  0.5576
15317TIP3    H167366   4.761   0.855   1.117  2.7230  0.9765 -0.2684
15317TIP3    H267367   4.773   0.813   1.262 -1.0782  0.2360 -0.0798
15318TIP3   OH267368   0.576   5.849   2.917 -0.8705 -0.4256  0.0327
15318TIP3    H167369   0.655   5.852   2.971 -0.9822 -1.2420  0.2656
15318TIP3    H267370   0.513   5.903   2.965  0.5206  3.2694 -1.9272
15319TIP3   OH267371   5.619   6.196   2.557 -0.7574  0.4569 -0.2759
15319TIP3    H167372   5.629   6.263   2.625 -0.4842 -0.5391  0.7029
15319TIP3    H267373   5.524   6.191   2.542 -0.7813  1.0311 -0.3352
15320TIP3   OH267374   5.319   1.677  12.004  0.6146 -0.3985 -0.2367
15320TIP3    H167375   5.230   1.685  11.970  0.2535  0.6872  0.8959
15320TIP3    H267376   5.314   1.711  12.094  2.1951 -0.1595 -0.2047
15321TIP3   OH267377   6.355   0.627  14.147  0.5455 -0.1776 -0.1107
15321TIP3    H167378   6.356   0.547  14.094  2.6152 -0.7464  0.7006
15321TIP3    H267379   6.372   0.697  14.084 -0.1411 -0.4754 -0.6494
15322TIP3   OH267380   3.768   1.422  13.609  0.3762  0.3641 -0.3828
15322TIP3    H167381   3.767   1.416  13.705  2.9778  1.1754 -0.2352
15322TIP3    H267382   3.748   1.514  13.592  2.0263  0.7341 -0.4675
15323TIP3   OH267383   0.574   4.155  11.363  0.0200 -0.2149  0.4739
15323TIP3    H167384   0.549   4.097  11.291 -1.4463 -0.1255  0.8812
15323TIP3    H267385   0.637   4.215  11.323 -0.3522 -0.5092 -0.6093
15324TIP3   OH267386   4.122   5.732   3.523  0.2737  0.6003  0.1070
15324TIP3    H167387   4.107   5.699   3.612  1.2848  0.1649  0.1212
15324TIP3    H267388   4.210   5.703   3.501 -0.5381 -0.6376 -1.6540
15325TIP3   OH267389   4.016   5.144   3.175 -0.0696  0.0965 -0.1387
15325TIP3    H167390   3.947   5.202   3.207 -0.1544  0.0999 -0.3282
15325TIP3    H267391   3.989   5.057   3.205 -0.1929  0.0881 -0.2732
15326TIP3   OH267392   2.965   2.295   1.200 -0.0176 -0.0641 -0.0665
15326TIP3    H167393   2.988   2.210   1.162 -0.1509 -0.8423  1.4740
15326TIP3    H267394   2.873   2.285   1.225 -0.0918  0.6109 -0.0654
15327TIP3   OH267395   3.523   0.288   3.064 -0.2819  0.0051 -0.2642
15327TIP3    H167396   3.435   0.298   3.099 -0.2681 -0.5345 -0.0602
15327TIP3    H267397   3.580   0.318   3.134 -0.2644 -0.8271  0.0941
15328TIP3   OH267398   2.474   3.508  15.588  0.2424  0.1449 -0.5614
15328TIP3    H167399   2.411   3.443  15.618  0.2105  0.4470  0.0512
15328TIP3    H267400   2.420   3.575  15.545  0.2916 -0.3059 -1.3513
15329TIP3   OH267401   4.458   6.621   3.368  0.3133 -0.2717 -0.3830
15329TIP3    H167402   4.418   6.534   3.359 -0.8506  0.1960  0.0677
15329TIP3    H267403   4.431   6.667   3.288 -0.7519  0.3096  0.2970
15330TIP3   OH267404   6.324   0.723   0.547 -0.4870 -0.4005 -0.4507
15330TIP3    H167405   6.295   0.659   0.612 -0.3322  0.4084  0.4317
15330TIP3    H267406   6.314   0.677   0.463 -0.1558 -1.6677  0.1653
15331TIP3   OH267407   1.199   0.160   4.102  0.0582  0.6460 -0.2415
15331TIP3    H167408   1.217   0.244   4.060  1.0308  1.2995  1.4016
15331TIP3    H267409   1.277   0.141   4.154 -1.5179  0.5379  2.2803
15332TIP3   OH267410   1.217   1.113   2.761  0.5360  0.0822 -0.7977
15332TIP3    H167411   1.152   1.167   2.806  0.8943  0.4812 -0.7602
15332TIP3    H267412   1.193   1.120   2.668  1.0820  0.9760 -0.8734
15333TIP3   OH267413   4.443   0.051   1.886 -0.1902 -0.1053 -0.2358
15333TIP3    H167414   4.479   0.129   1.929  1.4783 -1.0562  0.2082
15333TIP3    H267415   4.450  -0.019   1.952 -1.7378 -0.6397 -0.5889
15334TIP3   OH267416   1.278   3.357  12.603 -0.5035 -0.8980  0.3139
15334TIP3    H167417   1.259   3.308  12.523  0.8712 -1.8208  0.5222
15334TIP3    H267418   1.233   3.308  12.673 -0.3681 -1.0140  0.3204
15335TIP3   OH267419   3.225   2.275   3.658 -0.3009  0.2004 -0.0013
15335TIP3    H167420   3.179   2.191   3.652  0.8955 -0.5864  1.1240
15335TIP3    H267421   3.204   2.307   3.746 -1.3953  1.4993 -0.7168
15336TIP3   OH267422   4.517   2.747   3.249 -0.0695 -0.2345 -0.3023
15336TIP3    H167423   4.553   2.687   3.184 -0.8801  1.2030 -2.1646
15336TIP3    H267424   4.594   2.787   3.289  0.4549  0.1066 -1.6018
15337TIP3   OH267425   1.474   2.145   3.110 -0.4712 -0.0336 -0.0834
15337TIP3    H167426   1.507   2.083   3.175 -2.3143 -0.8538  0.1402
15337TIP3    H267427   1.552   2.171   3.060  0.3539 -2.8499 -0.4504
15338TIP3   OH267428   2.708   0.193   3.278  0.3087 -0.0082  0.0635
15338TIP3    H167429   2.726   0.272   3.329 -0.3114  0.0522  0.1962
15338TIP3    H267430   2.782   0.186   3.218  0.2763  0.7707 -0.0755
15339TIP3   OH267431   5.637   4.558  12.561  0.1110 -0.5024  0.8322
15339TIP3    H167432   5.730   4.562  12.541  0.1940  0.0843  1.2918
15339TIP3    H267433   5.598   4.509  12.488  0.7136 -0.3565  0.4095
15340TIP3   OH267434   5.307   4.885  12.583 -0.6109  0.0642 -0.0137
15340TIP3    H167435   5.258   4.846  12.511 -0.8727 -1.5495  0.9973
15340TIP3    H267436   5.372   4.819  12.606  1.5460  1.7877 -0.7355
15341TIP3   OH267437   3.214   1.719  12.297 -0.2446 -0.6266 -0.2023
15341TIP3    H167438   3.203   1.788  12.233 -0.0873  0.6830  1.1303
15341TIP3    H267439   3.303   1.687  12.284 -0.8318 -1.7226 -1.8645
15342TIP3   OH267440   0.458   6.235   0.915  0.1714  0.3267  0.4722
15342TIP3    H167441   0.366   6.259   0.929 -0.4461 -1.5189 -0.0876
15342TIP3    H267442   0.507   6.301   0.963 -1.5267  0.0361  2.8220
15343TIP3   OH267443   2.153   2.321   4.449 -0.4296  0.5898 -0.5669
15343TIP3    H167444   2.057   2.320   4.457 -0.3635  0.9797  0.3454
15343TIP3    H267445   2.183   2.379   4.519  0.4513  0.9241 -1.1984
15344TIP3   OH267446   4.291   3.277   4.052 -0.1179  0.1087  0.3946
15344TIP3    H167447   4.195   3.284   4.050 -0.2089 -0.7388  1.3220
15344TIP3    H267448   4.308   3.185   4.036  0.5611  0.2932  0.0452
15345TIP3   OH267449   5.600   4.071   3.142 -0.2039 -0.0518 -0.2913
15345TIP3    H167450   5.653   4.148   3.164 -1.0903  0.2969  0.7311
15345TIP3    H267451   5.644   3.999   3.187 -0.4642  0.2048  0.3922
15346TIP3   OH267452   3.787   6.585   4.900  0.1596 -0.2076 -0.6618
15346TIP3    H167453   3.707   6.612   4.944 -0.6415 -2.4564 -0.5879
15346TIP3    H267454   3.838   6.540   4.967 -0.2267 -2.0081 -1.5005
15347TIP3   OH267455   4.521   5.334   3.061  0.1535 -0.5475  0.8184
15347TIP3    H167456   4.505   5.414   3.009 -0.7562 -1.2795 -0.0619
15347TIP3    H267457   4.587   5.286   3.011 -0.1273 -0.8709  0.7540
15348TIP3   OH267458   0.491   6.033   3.741  0.2997 -0.1319  0.2580
15348TIP3    H167459   0.569   6.068   3.784  0.3857  0.3631 -0.2853
15348TIP3    H267460   0.519   5.951   3.701 -0.0217 -1.1186  1.9618
15349TIP3   OH267461   0.260   1.263   3.338 -0.1123 -0.0306  0.3034
15349TIP3    H167462   0.169   1.290   3.325 -0.5601 -0.5845  2.0359
15349TIP3    H267463   0.281   1.211   3.261 -2.7263 -3.5538  1.7023
15350TIP3   OH267464   1.445   4.733   2.801  0.3029 -0.2602 -0.7588
15350TIP3    H167465   1.397   4.654   2.827  2.7073 -0.7674  2.9344
15350TIP3    H267466   1.536   4.712   2.820  1.6419  1.9139 -4.0419
15351TIP3   OH267467   3.699   0.343   3.828  0.0532  0.2164  0.3789
15351TIP3    H167468   3.752   0.265   3.810 -0.4131 -0.2212  0.8807
15351TIP3    H267469   3.763   0.409   3.857  0.4467  0.0251 -0.0430
15352TIP3   OH267470   5.906   6.308   2.853  0.7851 -0.3022 -0.2001
15352TIP3    H167471   5.829   6.349   2.813  1.3338 -0.8740 -1.9599
15352TIP3    H267472   5.877   6.218   2.872  1.1575 -0.7167 -1.4613
15353TIP3   OH267473   3.243   6.372   1.038 -0.4831 -0.4866  0.0655
15353TIP3    H167474   3.205   6.454   1.007  1.1338  0.0362 -0.6457
15353TIP3    H267475   3.330   6.369   0.999 -0.4816 -2.5433  0.0888
15354TIP3   OH267476   0.862   0.471   5.148  0.4319 -0.6825  0.1306
15354TIP3    H167477   0.795   0.402   5.147  0.1022 -0.3710 -0.8502
15354TIP3    H267478   0.912   0.457   5.068  1.4926 -0.8413  0.8022
15355TIP3   OH267479   6.392   6.151   2.295 -0.3596  0.2651  0.2829
15355TIP3    H167480   6.398   6.056   2.297  1.3852  0.3592  1.8726
15355TIP3    H267481   6.448   6.177   2.222 -0.9561  0.1003 -0.2488
15356TIP3   OH267482   0.674   0.696   2.112  0.3269  0.1597 -0.2893
15356TIP3    H167483   0.727   0.734   2.182 -0.0041 -1.6695  1.0465
15356TIP3    H267484   0.684   0.601   2.124 -0.5294 -0.2041 -2.1333
15357TIP3   OH267485   6.520   6.579  15.009 -0.6432 -0.2334 -0.4867
15357TIP3    H167486   6.580   6.646  15.043 -1.4052 -0.1761  0.8317
15357TIP3    H267487   6.457   6.566  15.080 -1.8130 -0.7546 -1.5886
15358TIP3   OH267488   5.964   5.974   3.807 -0.3062 -0.2681 -0.0736
15358TIP3    H167489   6.058   5.958   3.799 -0.3763 -1.6465  1.4516
15358TIP3    H267490   5.923   5.891   3.781 -0.9974 -0.3996  1.3660
15359TIP3   OH267491   5.969   3.890   4.962 -0.1061  0.2675  0.0064
15359TIP3    H167492   6.018   3.968   4.936 -0.0284  0.0541 -0.4984
15359TIP3    H267493   6.022   3.817   4.931 -0.7050  0.0318 -0.4797
15360TIP3   OH267494   3.104   0.923   3.460  0.1418  0.8926  0.2880
15360TIP3    H167495   3.143   0.948   3.544  1.1089  1.3580 -0.2814
15360TIP3    H267496   3.013   0.900   3.481 -0.2143  2.8864  1.1845
15361TIP3   OH267497   5.339   0.698   6.112 -0.4491  0.8164 -0.0804
15361TIP3    H167498   5.353   0.635   6.041 -1.0607  1.2883 -0.6350
15361TIP3    H267499   5.406   0.765   6.099 -0.1822  0.5917  0.1451
15362TIP3   OH267500   3.534   1.184   1.891  0.2520 -0.3662  0.1192
15362TIP3    H167501   3.440   1.172   1.879 -0.1438  1.1972  1.3282
15362TIP3    H267502   3.566   1.096   1.914 -1.5604 -0.3861  3.2777
15363TIP3   OH267503   6.805   4.711   0.539 -0.1945  0.2453 -0.3475
15363TIP3    H167504   6.836   4.622   0.528 -1.1995 -0.2159  0.3968
15363TIP3    H267505   6.722   4.714   0.490 -0.2977  0.6938 -0.1578
15364TIP3   OH267506   6.315   1.572   4.488  0.1518 -0.5154  0.6868
15364TIP3    H167507   6.297   1.615   4.405 -0.4038 -1.0540  0.5189
15364TIP3    H267508   6.229   1.561   4.529  0.3061 -1.2427  0.8320
15365TIP3   OH267509   2.450   2.953   2.756  0.1353 -0.1731  0.0970
15365TIP3    H167510   2.441   2.918   2.668  0.6800  1.1227 -0.5059
15365TIP3    H267511   2.535   2.922   2.786 -0.1615 -0.8232  0.2711
15366TIP3   OH267512   6.047   4.994  14.881 -0.3620 -0.2922 -0.0264
15366TIP3    H167513   6.037   4.954  14.967 -0.3575 -0.6377 -0.1824
15366TIP3    H267514   6.140   5.018  14.876 -0.1272 -1.2117 -0.3265
15367TIP3   OH267515   3.216   5.593   2.665 -0.8039 -0.0790 -0.0080
15367TIP3    H167516   3.283   5.659   2.650 -2.7695  1.7583 -1.3050
15367TIP3    H267517   3.134   5.642   2.667 -2.1914 -2.2788  1.0118
15368TIP3   OH267518   3.237   2.452   4.726 -0.1565  0.0893  0.1608
15368TIP3    H167519   3.332   2.457   4.712 -0.3469  1.1142 -0.8894
15368TIP3    H267520   3.228   2.429   4.818  1.1317 -2.1944 -0.1979
15369TIP3   OH267521   2.472   1.486   4.662 -0.7155 -0.1230  0.0316
15369TIP3    H167522   2.432   1.483   4.749 -0.9190 -1.0261 -0.0851
15369TIP3    H267523   2.467   1.397   4.630  1.3985 -0.2964  0.0052
15370TIP3   OH267524   4.073   6.875   2.416  0.2436  0.7544 -0.4101
15370TIP3    H167525   4.110   6.963   2.415 -2.7742  2.1428 -1.0298
15370TIP3    H267526   4.050   6.860   2.508  1.2651  0.3085 -0.2043
15371TIP3   OH267527   0.212   5.681   3.871 -0.6170 -0.4750  0.2190
15371TIP3    H167528   0.148   5.737   3.826 -0.0293 -0.2759 -0.3877
15371TIP3    H267529   0.279   5.742   3.902 -0.7959 -0.6641  0.9949
15372TIP3   OH267530   4.439   3.343  12.699 -0.0598  0.1673 -0.4922
15372TIP3    H167531   4.407   3.414  12.755 -0.8329 -0.1771 -0.4895
15372TIP3    H267532   4.534   3.344  12.711  0.1308  2.2380 -1.7131
15373TIP3   OH267533   3.562   3.557   3.581 -0.6509 -0.1359 -0.2891
15373TIP3    H167534   3.521   3.568   3.667 -1.2680  0.7030 -0.6840
15373TIP3    H267535   3.563   3.462   3.567 -1.5389 -0.2237  0.1715
15374TIP3   OH267536   5.011   2.056   0.590 -0.1244  0.3397  0.3267
15374TIP3    H167537   5.002   2.056   0.495 -0.8094 -1.7219  0.3415
15374TIP3    H267538   5.028   2.148   0.613 -1.8096  1.2039 -1.5928
15375TIP3   OH267539   6.246   1.049  10.565 -0.2767 -0.0083 -0.4376
15375TIP3    H167540   6.223   1.073  10.475  1.0375 -1.1811 -1.1264
15375TIP3    H267541   6.171   1.001  10.597 -0.3186 -0.5469 -1.3132
15376TIP3   OH267542   0.021   1.423   2.027  0.2300 -0.3375 -0.4047
15376TIP3    H167543   0.059   1.465   1.950 -1.2176  0.8040 -0.5393
15376TIP3    H267544   0.047   1.479   2.100 -0.1969 -0.2043 -0.3516
15377TIP3   OH267545   4.335   6.570   2.688  0.0089 -0.0671  0.6424
15377TIP3    H167546   4.401   6.502   2.705  0.1041  0.1370  1.1179
15377TIP3    H267547   4.259   6.542   2.738 -1.1035 -1.5118 -1.7020
15378TIP3   OH267548   4.579   5.394   1.671  0.0534  0.1530 -0.1345
15378TIP3    H167549   4.669   5.384   1.703 -0.0346  3.1549  1.3115
15378TIP3    H267550   4.561   5.311   1.625  2.7297 -1.4434  1.4448
15379TIP3   OH267551   3.201   6.705   4.327 -0.6416  0.6166 -0.0054
15379TIP3    H167552   3.146   6.730   4.253  0.0559  1.0666 -0.3904
15379TIP3    H267553   3.146   6.719   4.404 -1.4107  0.0418 -0.4380
15380TIP3   OH267554   0.710   1.100   5.949  0.0978  0.4602 -0.2700
15380TIP3    H167555   0.679   1.100   5.859 -0.5500 -1.8313 -0.1064
15380TIP3    H267556   0.632   1.116   6.002  0.3429  1.0497 -0.0771
15381TIP3   OH267557   1.671   4.105   5.098  0.1021  0.1583  0.3523
15381TIP3    H167558   1.647   4.131   5.009  0.8797  0.6383  0.2671
15381TIP3    H267559   1.634   4.018   5.109  0.7514 -0.2834 -0.7621
15382TIP3   OH267560   3.718   3.584   4.175  0.4587  0.8017 -0.1136
15382TIP3    H167561   3.747   3.507   4.126 -2.4164 -0.2450 -0.3446
15382TIP3    H267562   3.720   3.655   4.111  1.6023  0.6010 -0.3256
15383TIP3   OH267563   4.003   3.941   2.544 -0.0534 -0.0478 -0.1279
15383TIP3    H167564   3.937   3.931   2.475 -1.2393  0.7741  0.8253
15383TIP3    H267565   4.076   3.986   2.501 -1.5485  2.2639 -0.4658
15384TIP3   OH267566   1.271   4.850  12.610  0.2750  0.0461  0.3891
15384TIP3    H167567   1.361   4.822  12.595 -0.3109 -1.4554 -0.6129
15384TIP3    H267568   1.273   4.945  12.600  1.6767 -0.0014  0.0602
15385TIP3   OH267569   6.316   3.708   2.325  0.1742  0.6578  0.3056
15385TIP3    H167570   6.351   3.753   2.248 -1.6510  3.7412  1.0861
15385TIP3    H267571   6.356   3.752   2.400  1.5453 -1.9538  1.2300
15386TIP3   OH267572   5.827   2.503  14.014 -0.0269  0.5827  0.4140
15386TIP3    H167573   5.854   2.451  13.938  0.0397  1.2778 -0.0388
15386TIP3    H267574   5.765   2.567  13.979 -0.0663  0.8531  0.9641
15387TIP3   OH267575   5.732   3.921  14.588 -0.1807 -0.2684  0.2788
15387TIP3    H167576   5.707   4.014  14.582  0.9368 -0.0195 -1.3987
15387TIP3    H267577   5.817   3.923  14.633  1.1472 -0.1479 -2.0769
15388TIP3   OH267578   1.180   3.256  14.559 -0.2673 -0.1292  0.5052
15388TIP3    H167579   1.117   3.294  14.498 -0.0383  1.9213  1.4604
15388TIP3    H267580   1.257   3.237  14.506 -1.4139 -2.1441 -0.5653
15389TIP3   OH267581   4.449   5.191   1.496 -0.4350  0.4313  0.5381
15389TIP3    H167582   4.376   5.251   1.476 -0.1787  0.7619  0.5868
15389TIP3    H267583   4.485   5.168   1.410 -0.3257  0.6078  0.5368
15390TIP3   OH267584   4.042   5.403  14.473 -0.1881 -0.0205 -0.3319
15390TIP3    H167585   3.991   5.451  14.537  1.6810  0.4285  0.8753
15390TIP3    H267586   4.057   5.317  14.513 -0.1268 -0.2131 -0.7551
15391TIP3   OH267587   5.619   3.161  15.199  0.3030  0.2405  0.7374
15391TIP3    H167588   5.625   3.253  15.173 -0.3737  0.2238  0.5101
15391TIP3    H267589   5.554   3.159  15.269 -0.9151 -0.2860 -0.3817
15392TIP3   OH267590   0.684   1.793   4.539 -0.1645 -0.4116  0.3986
15392TIP3    H167591   0.748   1.845   4.588 -0.6944  0.9030 -0.2543
15392TIP3    H267592   0.708   1.806   4.447 -1.7326  0.6517  0.1055
15393TIP3   OH267593   3.188   0.170  15.518 -0.2706 -0.1621  0.4933
15393TIP3    H167594   3.262   0.229  15.531  0.8989 -1.8595  2.0599
15393TIP3    H267595   3.216   0.112  15.447 -0.1108 -0.7460  1.0218
15394TIP3   OH267596   6.207   2.314  10.979 -0.2548 -0.0736 -0.1271
15394TIP3    H167597   6.233   2.222  10.978  0.7276  0.1893 -1.7888
15394TIP3    H267598   6.211   2.340  11.071 -1.1105 -1.8250  0.4420
15395TIP3   OH267599   5.043   6.051   0.387  0.4309  0.2051 -0.0553
15395TIP3    H167600   4.988   6.043   0.465 -0.6017 -1.2190 -0.8856
15395TIP3    H267601   5.087   6.135   0.398  1.9998 -0.8520  3.1195
15396TIP3   OH267602   3.170   6.380   2.383  0.8025  0.2053 -0.3639
15396TIP3    H167603   3.242   6.333   2.342  1.9707 -0.2218  2.0348
15396TIP3    H267604   3.186   6.372   2.477 -1.3336  1.7433  0.2049
15397TIP3   OH267605   5.449   3.730   3.799  0.0748 -0.1981  0.2517
15397TIP3    H167606   5.537   3.693   3.799  0.1122 -0.2547  2.4575
15397TIP3    H267607   5.396   3.666   3.751  1.5243  0.8363 -2.9394
15398TIP3   OH267608   3.798   4.692  15.390 -0.0012 -0.3810  0.0310
15398TIP3    H167609   3.838   4.737  15.464 -0.6510 -0.6916  0.5756
15398TIP3    H267610   3.868   4.638  15.353  0.4993  0.2705  0.0152
15399TIP3   OH267611   6.594   4.772   3.057 -0.6937  0.0303  0.5225
15399TIP3    H167612   6.667   4.751   3.114 -0.9337 -0.0732  0.7954
15399TIP3    H267613   6.580   4.866   3.071  0.2654  0.3562 -0.5645
15400TIP3   OH267614   3.727   5.250  12.964 -0.5150  0.0408 -0.3610
15400TIP3    H167615   3.679   5.330  12.983 -0.7612  0.1616 -1.4294
15400TIP3    H267616   3.660   5.185  12.944 -0.3130 -0.4103  0.4064
15401TIP3   OH267617   3.968   1.792   1.310  0.2397 -0.6504  0.0286
15401TIP3    H167618   3.886   1.832   1.281 -1.0653 -3.2933 -0.2198
15401TIP3    H267619   4.029   1.865   1.318 -2.0595  1.3801 -0.0038
15402TIP3   OH267620   1.216   6.008  14.024  0.2575  0.3314 -0.1453
15402TIP3    H167621   1.309   6.010  14.047  0.0556 -1.6406  1.0154
15402TIP3    H267622   1.209   5.941  13.956 -0.3241  0.4926 -0.2517
15403TIP3   OH267623   3.905   5.195   5.692  0.6339 -0.1255 -0.3493
15403TIP3    H167624   3.829   5.148   5.727 -1.6428  3.7105  0.4443
15403TIP3    H267625   3.958   5.215   5.770  0.9950 -0.3721 -0.5296
15404TIP3   OH267626   0.175   2.361   0.435 -0.6556  0.2067 -0.8524
15404TIP3    H167627   0.133   2.412   0.365  1.8540  3.5115 -0.2224
15404TIP3    H267628   0.267   2.355   0.407 -0.2471 -1.1860  0.6905
15405TIP3   OH267629   0.126   1.414  13.738 -0.0564  0.1117  0.0363
15405TIP3    H167630   0.141   1.413  13.833 -1.1758  0.5953  0.2390
15405TIP3    H267631   0.161   1.498  13.709  1.6703 -0.6789 -0.2456
15406TIP3   OH267632   2.567   3.970  15.199 -0.3913  0.1835  0.3871
15406TIP3    H167633   2.646   4.015  15.230 -0.8401  0.5876  0.9835
15406TIP3    H267634   2.495   4.026  15.228 -0.8490  1.7921 -3.2899
15407TIP3   OH267635   3.294   1.417   5.010  0.0890  0.2726  0.1526
15407TIP3    H167636   3.227   1.467   4.963  0.7922  0.8109 -0.3009
15407TIP3    H267637   3.276   1.326   4.987  0.0332  0.4810 -0.6648
15408TIP3   OH267638   3.558   5.177   2.277  0.6294  0.3188 -0.1262
15408TIP3    H167639   3.466   5.159   2.298  1.0763 -1.1387  0.7217
15408TIP3    H267640   3.574   5.126   2.198  0.8295  0.1893 -0.0022
15409TIP3   OH267641   1.790   2.355   4.856 -0.0236  0.1622  0.1671
15409TIP3    H167642   1.875   2.316   4.877 -0.8788 -1.5912  0.6065
15409TIP3    H267643   1.771   2.414   4.928  0.1921 -0.5382  0.8056
15410TIP3   OH267644   3.309   3.326   1.869 -0.2854 -0.3588 -0.3190
15410TIP3    H167645   3.328   3.366   1.954 -0.6688  1.0355 -0.8546
15410TIP3    H267646   3.281   3.237   1.890 -0.6006  0.0321  1.0242
15411TIP3   OH267647   3.681   1.630   0.494 -0.7949 -0.0831 -0.1337
15411TIP3    H167648   3.646   1.687   0.426 -0.9472 -0.0207 -0.0054
15411TIP3    H267649   3.604   1.604   0.545 -0.4267  2.0805  1.7249
15412TIP3   OH267650   1.629   5.302   4.939  1.1900 -0.2155 -0.2202
15412TIP3    H167651   1.652   5.394   4.952  0.8248 -0.1175 -0.2674
15412TIP3    H267652   1.562   5.303   4.871  0.5719 -0.4531  0.3800
15413TIP3   OH267653   4.122   3.177   0.109 -0.3867  0.7738 -0.0536
15413TIP3    H167654   4.039   3.220   0.088 -1.5820 -0.4265  1.9237
15413TIP3    H267655   4.115   3.156   0.202  1.4009 -0.9798 -0.2666
15414TIP3   OH267656   7.125   3.143  15.152 -0.0050 -0.1783 -0.1720
15414TIP3    H167657   7.090   3.232  15.147  2.7182  1.0568  0.4404
15414TIP3    H267658   7.111   3.116  15.243 -1.0372 -0.4704 -0.4163
15415TIP3   OH267659   0.574   2.332   4.169  0.8502 -0.7173 -0.2003
15415TIP3    H167660   0.519   2.267   4.125  0.1154 -1.0850  1.1947
15415TIP3    H267661   0.658   2.288   4.181  0.0072 -1.8827  1.7663
15416TIP3   OH267662   1.626   1.512   4.200  0.3987  0.1674  0.1578
15416TIP3    H167663   1.545   1.480   4.160  0.0489  3.2814 -1.9324
15416TIP3    H267664   1.669   1.433   4.234 -1.7275 -2.0501 -1.9695
15417TIP3   OH267665   6.446   3.802   3.883 -0.2513 -0.4433  0.7192
15417TIP3    H167666   6.399   3.827   3.963 -0.6583  1.3137 -0.0056
15417TIP3    H267667   6.403   3.853   3.814  1.3480 -0.4250 -0.3072
15418TIP3   OH267668   1.052   1.055  12.408 -0.0210 -0.8405  0.0644
15418TIP3    H167669   1.115   0.989  12.438  1.3775 -0.0304 -0.9737
15418TIP3    H267670   1.083   1.137  12.447 -1.1488 -0.6103  0.5116
15419TIP3   OH267671   3.590   2.115  14.386  0.1418 -0.6711  0.6522
15419TIP3    H167672   3.682   2.140  14.382 -0.1598  0.3600 -0.2801
15419TIP3    H267673   3.584   2.037  14.330 -0.1885  1.5010 -2.6328
15420TIP3   OH267674   1.973   0.551  12.513 -0.1451 -0.3121  0.5853
15420TIP3    H167675   2.024   0.626  12.482 -0.5102 -0.3747 -0.2036
15420TIP3    H267676   2.037   0.492  12.551  0.1414  0.4419  1.3102
15421TIP3   OH267677   3.691   5.611  12.780 -0.1103 -0.7611  0.5862
15421TIP3    H167678   3.783   5.611  12.804  0.0476 -1.2408  0.0099
15421TIP3    H267679   3.649   5.556  12.845 -0.1757  0.2899  1.4722
15422TIP3   OH267680   2.567   6.272   3.465 -0.0536 -0.3862 -0.4747
15422TIP3    H167681   2.557   6.180   3.486 -0.1189 -0.8178 -2.2536
15422TIP3    H267682   2.597   6.313   3.546  0.6482 -2.0847  0.1499
15423TIP3   OH267683   1.151   1.879   5.181  0.5663 -0.5556 -0.5566
15423TIP3    H167684   1.205   1.895   5.104  1.8874 -0.5169  0.3342
15423TIP3    H267685   1.081   1.944   5.176  0.6353 -0.5517 -1.7038
15424TIP3   OH267686   2.007   3.622   5.416 -0.0603  0.5184 -0.4421
15424TIP3    H167687   1.925   3.643   5.372 -0.9242 -1.3818  0.1645
15424TIP3    H267688   2.003   3.668   5.499 -0.0782  1.1749 -0.8021
15425TIP3   OH267689   2.109   3.930  15.312 -0.2606  0.2319 -0.0978
15425TIP3    H167690   2.169   3.947  15.385 -1.0472  0.3893  0.5188
15425TIP3    H267691   2.138   3.990  15.243  0.1885  0.4186  0.2455
15426TIP3   OH267692   4.017   7.007   2.051 -0.2238 -0.0076 -0.4945
15426TIP3    H167693   4.023   6.992   1.957 -1.9585  0.3043 -0.6871
15426TIP3    H267694   3.954   7.078   2.060  0.8837  0.8766  0.8546
15427TIP3   OH267695   4.070   3.865   1.766 -0.5574  0.1736  0.0530
15427TIP3    H167696   4.017   3.805   1.713  0.3111  0.2419 -0.9178
15427TIP3    H267697   4.159   3.832   1.756 -0.0219  1.7497 -0.6889
15428TIP3   OH267698   2.955   4.645   0.545  0.5778 -0.0241  0.4961
15428TIP3    H167699   2.894   4.573   0.563  1.8076 -1.2112  0.0721
15428TIP3    H267700   2.998   4.621   0.463  1.3503  0.9711  0.5854
15429TIP3   OH267701   2.840   3.625   0.319 -0.0256 -0.3246  0.0487
15429TIP3    H167702   2.791   3.571   0.258 -0.8260 -1.0010  1.2338
15429TIP3    H267703   2.930   3.593   0.313 -0.3452 -1.2936  0.1735
15430TIP3   OH267704   6.492   5.487   2.061 -0.0312 -0.7479 -0.2150
15430TIP3    H167705   6.412   5.501   2.111  1.0280 -0.1637  1.3656
15430TIP3    H267706   6.466   5.505   1.970 -1.0993  2.0310  0.5448
15431TIP3   OH267707   5.105   4.645   5.988 -0.1611  0.5134 -0.5729
15431TIP3    H167708   5.103   4.596   5.906  1.5424  1.0550 -0.9764
15431TIP3    H267709   5.046   4.719   5.973 -1.5770 -0.5573 -0.4897
15432TIP3   OH267710   5.739   6.866   5.161 -0.4443  0.0060 -0.1940
15432TIP3    H167711   5.809   6.912   5.114  1.5521 -1.2668  1.3448
15432TIP3    H267712   5.752   6.891   5.253 -1.6482 -0.7550  0.2083
15433TIP3   OH267713   4.904   3.690   5.132  0.0134 -0.4577  0.2912
15433TIP3    H167714   4.974   3.743   5.171 -1.8183 -1.4151  5.6328
15433TIP3    H267715   4.848   3.754   5.088  0.1186  1.5181  2.8219
15434TIP3   OH267716   4.417   6.018   2.110  0.6152 -0.3789 -0.0430
15434TIP3    H167717   4.368   5.937   2.127 -1.0079  0.1278 -1.9933
15434TIP3    H267718   4.509   5.991   2.112  0.0935 -2.4233 -1.2532
15435TIP3   OH267719   1.011   3.522  11.963 -0.0093 -0.6673 -0.1226
15435TIP3    H167720   0.966   3.585  11.907 -1.5822 -3.0640 -1.7257
15435TIP3    H267721   1.036   3.573  12.041 -0.4302  2.0716 -1.6607
15436TIP3   OH267722   5.372   5.526  13.670  0.5555  0.1325 -0.1223
15436TIP3    H167723   5.280   5.551  13.669  0.1494 -1.0953 -2.4892
15436TIP3    H267724   5.375   5.445  13.721  0.0908 -0.4689 -1.0292
15437TIP3   OH267725   0.253   1.203  15.566 -0.9695  0.2417  0.1414
15437TIP3    H167726   0.303   1.239  15.493  1.9007 -1.3733  1.1579
15437TIP3    H267727   0.233   1.279  15.621 -0.1656  1.0288 -0.6305
15438TIP3   OH267728   5.451   1.301   0.171  0.0664 -0.8021 -0.0874
15438TIP3    H167729   5.461   1.276   0.262  1.6930 -1.5361 -0.4262
15438TIP3    H267730   5.399   1.231   0.132 -0.1854 -0.7573  0.1712
15439TIP3   OH267731   3.723   6.544   1.956  0.5521  0.8171 -0.1210
15439TIP3    H167732   3.802   6.518   1.909  0.6217 -0.2678  0.5447
15439TIP3    H267733   3.652   6.497   1.911  0.3314  1.4432 -0.4437
15440TIP3   OH267734   4.621   0.587   3.377 -0.5648  0.3240  0.1607
15440TIP3    H167735   4.609   0.676   3.410 -0.0574  0.4346  0.0555
15440TIP3    H267736   4.715   0.578   3.366 -0.5973 -0.2983  0.3576
15441TIP3   OH267737   4.813   6.801   5.530 -0.0214  0.0587 -0.1673
15441TIP3    H167738   4.753   6.811   5.603  1.1388  3.2112  0.5004
15441TIP3    H267739   4.756   6.782   5.455 -1.6934  1.0637  0.7824
15442TIP3   OH267740   3.200   3.185  12.424  0.1396  0.4536 -0.1159
15442TIP3    H167741   3.138   3.132  12.374  0.5032  1.8605 -2.1971
15442TIP3    H267742   3.280   3.185  12.371  1.2927  0.2348  1.5725
15443TIP3   OH267743   4.231   6.218  15.037  0.3435 -0.2675 -0.7684
15443TIP3    H167744   4.272   6.203  14.952  1.3174 -0.8139 -0.2227
15443TIP3    H267745   4.137   6.226  15.017  0.5500 -0.4023 -1.8825
15444TIP3   OH267746   3.344   0.399   3.283  0.1402  0.2698 -0.4049
15444TIP3    H167747   3.313   0.489   3.276 -0.8222 -0.1118 -1.2727
15444TIP3    H267748   3.277   0.346   3.240 -0.0473 -1.0393  1.3669
15445TIP3   OH267749   5.176   3.462   3.501 -0.6971 -0.9850 -0.0111
15445TIP3    H167750   5.162   3.368   3.491 -1.4794 -0.9528  0.6781
15445TIP3    H267751   5.239   3.469   3.572  0.0478 -1.0064 -0.6551
15446TIP3   OH267752   4.859   3.515  14.435 -0.4719  0.1624 -0.4402
15446TIP3    H167753   4.778   3.473  14.404 -0.7521  0.6528 -0.3901
15446TIP3    H267754   4.845   3.608  14.418  0.7473  0.1198 -1.9563
15447TIP3   OH267755   1.029   5.584   1.335  0.1659 -0.1725 -0.0365
15447TIP3    H167756   1.059   5.571   1.244  1.6518  0.7250  0.2920
15447TIP3    H267757   0.963   5.516   1.348 -0.1174 -0.2878 -1.8048
15448TIP3   OH267758   5.432   2.944   1.736 -0.6783 -0.1387  0.4916
15448TIP3    H167759   5.358   2.978   1.785  0.1821  2.7893 -0.0419
15448TIP3    H267760   5.459   2.865   1.784 -3.3482 -0.6210  1.3357
15449TIP3   OH267761   1.234   4.976  13.571 -0.1256  0.3240  0.6396
15449TIP3    H167762   1.225   5.071  13.561 -1.5975  0.2007  0.5990
15449TIP3    H267763   1.156   4.949  13.620  0.6413 -0.7745  1.2965
15450TIP3   OH267764   0.251   0.615  13.923  0.2666 -0.1066 -0.5390
15450TIP3    H167765   0.178   0.567  13.961  0.7765  0.1211  0.7897
15450TIP3    H267766   0.327   0.558  13.935  0.6954  0.5807  0.1328
15451TIP3   OH267767   2.363   3.993   4.296 -0.2487  0.0792 -0.7058
15451TIP3    H167768   2.415   3.961   4.370 -1.3172  0.4349  0.2362
15451TIP3    H267769   2.281   3.944   4.302  0.2078 -1.0099 -2.5967
15452TIP3   OH267770   2.623   2.051   1.128 -0.3970 -0.2571 -0.0708
15452TIP3    H167771   2.633   2.096   1.044 -0.4341 -2.0202 -1.0668
15452TIP3    H267772   2.565   1.977   1.110 -3.1368  1.1318  2.2564
15453TIP3   OH267773   1.659   4.727   2.040 -0.2646  0.3329 -0.2387
15453TIP3    H167774   1.642   4.732   2.134  0.4211  1.3685 -0.1489
15453TIP3    H267775   1.633   4.813   2.007  2.9002  1.3594 -0.3637
15454TIP3   OH267776   0.518   2.113   2.789 -0.0426 -0.1299  0.2168
15454TIP3    H167777   0.545   2.200   2.758 -1.9768  0.5357  0.2953
15454TIP3    H267778   0.552   2.109   2.879 -2.4137  1.8432  1.3417
15455TIP3   OH267779   3.737   6.354  10.450  0.4910 -0.5117  0.4104
15455TIP3    H167780   3.716   6.314  10.535  1.7721 -0.1528  0.9301
15455TIP3    H267781   3.757   6.280  10.393  1.8062 -0.7040  1.0689
15456TIP3   OH267782   0.981   4.520  15.456 -0.2891 -0.1911  0.1140
15456TIP3    H167783   1.045   4.508  15.526  0.3168 -0.1999 -0.4346
15456TIP3    H267784   0.999   4.448  15.395  0.7057  1.1020 -1.1900
15457TIP3   OH267785   6.686   1.253   0.442 -0.0612  0.2713  0.1975
15457TIP3    H167786   6.678   1.260   0.347 -3.3110 -0.0947  0.3023
15457TIP3    H267787   6.660   1.339   0.475 -0.7775 -0.1389  0.7426
15458TIP3   OH267788   7.026   7.055   3.471  0.1505 -0.2032  0.3975
15458TIP3    H167789   6.972   7.080   3.395 -0.4364 -1.5626  0.3388
15458TIP3    H267790   7.076   7.134   3.492  0.7500  0.0658 -1.7595
15459TIP3   OH267791   3.561   3.903   5.112  0.4404  0.6492 -0.1435
15459TIP3    H167792   3.557   3.833   5.046  0.2857  0.3204  0.2126
15459TIP3    H267793   3.474   3.905   5.151  0.8885 -0.0282  0.9382
15460TIP3   OH267794   1.861   2.101   1.406  0.0653 -0.6579 -0.4910
15460TIP3    H167795   1.806   2.037   1.362 -0.9938 -0.7508  0.8895
15460TIP3    H267796   1.818   2.185   1.390  0.9189 -0.3885 -1.4833
15461TIP3   OH267797   2.590   1.936   0.531 -0.5005 -0.1528  0.2211
15461TIP3    H167798   2.597   1.998   0.459 -0.6374  1.9516  1.9014
15461TIP3    H267799   2.643   1.975   0.601  1.1333 -3.0028  0.7274
15462TIP3   OH267800   3.551   6.315   3.144 -0.1938 -0.3664 -0.6409
15462TIP3    H167801   3.537   6.390   3.202  2.6398  0.4200 -0.8627
15462TIP3    H267802   3.491   6.330   3.071 -0.6344  0.9502 -0.0372
15463TIP3   OH267803   1.728   2.531  13.133 -0.3106 -0.0037 -0.5014
15463TIP3    H167804   1.811   2.484  13.140 -1.2779 -1.7002  0.4050
15463TIP3    H267805   1.686   2.495  13.055 -0.1276  1.0064 -1.0815
15464TIP3   OH267806   4.538   4.850   4.795 -0.3665  0.5849 -0.1543
15464TIP3    H167807   4.467   4.891   4.845 -0.8194  1.9642 -1.8291
15464TIP3    H267808   4.492   4.796   4.730  0.1860 -0.1991  0.0923
15465TIP3   OH267809   0.374   5.299  13.223  0.4621  0.1188  0.4280
15465TIP3    H167810   0.428   5.375  13.199  1.8581 -0.1786  2.3853
15465TIP3    H267811   0.426   5.254  13.289 -1.9679 -0.5403  1.9844
15466TIP3   OH267812   6.796   0.990   1.764  0.4448 -0.2205  0.5132
15466TIP3    H167813   6.825   1.066   1.815  1.1814 -0.4267  0.4117
15466TIP3    H267814   6.877   0.947   1.738  0.0190 -1.2788  0.9179
15467TIP3   OH267815   2.002   2.392   1.091  0.2450  0.2638  0.7927
15467TIP3    H167816   2.085   2.345   1.102  0.5471  0.7113  0.4911
15467TIP3    H267817   1.955   2.344   1.024  1.2568  1.2960 -0.7279
15468TIP3   OH267818   2.990   3.620   4.748  0.3242 -0.8272  0.0487
15468TIP3    H167819   2.904   3.626   4.789  1.0545  0.5025  1.4856
15468TIP3    H267820   3.015   3.710   4.730  1.7617 -1.1152  0.4409
15469TIP3   OH267821   0.574   2.671   5.553  0.3412  0.1129 -0.1549
15469TIP3    H167822   0.652   2.616   5.553 -0.6322 -1.3453 -1.0689
15469TIP3    H267823   0.501   2.610   5.557 -0.7821  1.3904 -0.2632
15470TIP3   OH267824   0.586   1.640   1.854  0.1743 -0.1036 -0.0808
15470TIP3    H167825   0.607   1.727   1.888  1.4901 -0.6108  0.4831
15470TIP3    H267826   0.670   1.593   1.854 -0.7093 -1.8045  0.8706
15471TIP3   OH267827   2.589   1.122  13.519 -0.2767 -0.0621  0.2976
15471TIP3    H167828   2.595   1.051  13.583 -1.9926 -0.7485 -0.2436
15471TIP3    H267829   2.532   1.087  13.450 -2.3365  2.3079  0.6710
15472TIP3   OH267830   6.239   1.708   4.255  0.1352  0.2241 -0.0116
15472TIP3    H167831   6.236   1.770   4.182 -0.6073 -0.8844 -0.9562
15472TIP3    H267832   6.153   1.715   4.297  0.1129 -0.0268 -0.0106
15473TIP3   OH267833   3.913   4.147   5.386 -0.2506  0.1047 -0.1919
15473TIP3    H167834   3.851   4.122   5.455  0.4584 -2.1484 -0.2841
15473TIP3    H267835   3.989   4.181   5.432 -0.2622 -0.2621  0.1061
15474TIP3   OH267836   1.152   6.251  13.605 -0.5785 -0.1447  0.2434
15474TIP3    H167837   1.143   6.245  13.700 -0.8825 -1.1641  0.1615
15474TIP3    H267838   1.229   6.197  13.586 -1.5459 -1.4139 -0.2416
15475TIP3   OH267839   3.187   3.992   1.984  0.5095  0.0002  0.2645
15475TIP3    H167840   3.108   4.035   1.952 -0.7845 -0.1219  2.9728
15475TIP3    H267841   3.259   4.049   1.955 -0.6764  0.9178 -1.0104
15476TIP3   OH267842   5.710   2.782   1.610 -0.0463  0.6118  0.2601
15476TIP3    H167843   5.752   2.700   1.636 -0.8181  0.7177  1.9827
15476TIP3    H267844   5.714   2.837   1.688 -1.7162  1.2933 -0.0853
15477TIP3   OH267845   1.222   2.152   1.826 -0.0943  0.0673 -0.2234
15477TIP3    H167846   1.276   2.230   1.809 -0.1979 -0.0879 -1.2956
15477TIP3    H267847   1.167   2.178   1.900 -1.8998  1.9579 -2.0827
15478TIP3   OH267848   3.737   3.197  14.488 -0.1632  0.0783  0.1372
15478TIP3    H167849   3.647   3.166  14.478 -0.1275  0.1749 -0.5935
15478TIP3    H267850   3.731   3.273  14.544 -0.4101 -0.5103  0.9230
15479TIP3   OH267851   3.634   7.127  13.995 -0.1504  0.1301 -0.2455
15479TIP3    H167852   3.636   7.035  13.971  1.9166 -0.0776  0.5306
15479TIP3    H267853   3.713   7.165  13.956 -0.3564  1.3052  0.4106
15480TIP3   OH267854   2.219   4.850   4.377  0.2904 -0.0705  0.3144
15480TIP3    H167855   2.272   4.926   4.403  0.9759  0.1928 -1.6956
15480TIP3    H267856   2.138   4.888   4.343  0.2593 -0.2880  0.1440
15481TIP3   OH267857   1.320   4.702   3.180 -0.4630  0.7589  0.1167
15481TIP3    H167858   1.266   4.692   3.101  0.2662  0.3431 -0.3386
15481TIP3    H267859   1.407   4.721   3.147  0.1163 -0.6053  0.7807
15482TIP3   OH267860   3.676   2.428  13.687  0.3724 -0.6367 -0.1466
15482TIP3    H167861   3.604   2.403  13.629 -1.8521  2.2989  1.0522
15482TIP3    H267862   3.754   2.429  13.631 -1.0871 -0.9767 -2.2933
15483TIP3   OH267863   2.444   0.256   2.775  0.0833 -0.0664 -0.0555
15483TIP3    H167864   2.369   0.207   2.740 -1.0335  1.7918 -0.4416
15483TIP3    H267865   2.457   0.220   2.862  0.4613 -2.1937 -0.9146
15484TIP3   OH267866   3.788   6.352   2.775  0.2469 -0.3690 -0.1950
15484TIP3    H167867   3.879   6.342   2.749  0.6501  0.3933  0.8611
15484TIP3    H267868   3.786   6.328   2.867 -0.4536  0.4544  0.0193
15485TIP3   OH267869   2.023   1.451  13.714  0.0279  0.9014  0.2982
15485TIP3    H167870   2.085   1.417  13.779 -0.2008 -1.0946 -0.4696
15485TIP3    H267871   2.030   1.546  13.722  0.7347  0.7195  2.5373
15486TIP3   OH267872   6.320   5.495   4.610 -0.2525 -0.3924  0.2659
15486TIP3    H167873   6.250   5.557   4.629  1.2011  1.6561 -0.6989
15486TIP3    H267874   6.328   5.496   4.515  0.5696 -1.1936  0.3117
15487TIP3   OH267875   3.505   6.682  15.465  0.3232  0.0681  0.0062
15487TIP3    H167876   3.435   6.630  15.425  0.8422 -1.7062  1.2408
15487TIP3    H267877   3.573   6.686  15.398  0.2547 -0.8755 -0.1423
15488TIP3   OH267878   6.086   2.045  13.536 -0.1088  0.7171  0.2534
15488TIP3    H167879   6.115   2.091  13.458  2.1071 -1.9635 -0.7070
15488TIP3    H267880   6.085   1.953  13.510  0.3872 -0.2591  3.2532
15489TIP3   OH267881   4.284   0.595   0.280 -0.1751  0.2371 -0.8955
15489TIP3    H167882   4.232   0.671   0.255 -1.8007 -0.7290 -0.6214
15489TIP3    H267883   4.271   0.587   0.375  0.7105  0.1327 -0.7769
15490TIP3   OH267884   5.742   1.401   3.124  0.5201  0.2001 -0.0842
15490TIP3    H167885   5.654   1.420   3.156  0.0764  0.1377 -1.2295
15490TIP3    H267886   5.773   1.329   3.180 -0.6081 -0.5593 -0.4118
15491TIP3   OH267887   0.809   3.824   2.776  0.1202  0.4831 -0.4966
15491TIP3    H167888   0.789   3.761   2.707 -1.7023 -0.5182  0.8562
15491TIP3    H267889   0.727   3.872   2.789  0.8061  1.5346  0.0932
15492TIP3   OH267890   3.237   6.810   0.851  0.3952 -0.4697  0.2013
15492TIP3    H167891   3.219   6.860   0.930 -2.3438  1.3226 -1.3601
15492TIP3    H267892   3.176   6.736   0.855 -1.0715  0.6023 -0.9326
15493TIP3   OH267893   3.918   6.806   0.232 -0.6840 -0.4344 -0.1540
15493TIP3    H167894   3.869   6.750   0.172 -1.3769 -0.6433  0.5814
15493TIP3    H267895   4.009   6.800   0.202 -0.9769 -0.7219 -1.0203
15494TIP3   OH267896   3.437   4.379  14.736  0.2428  0.0928 -0.6572
15494TIP3    H167897   3.494   4.448  14.705 -0.7830  0.8740 -0.8581
15494TIP3    H267898   3.369   4.372  14.669 -1.3330  0.9808  0.7788
15495TIP3   OH267899   2.770   5.160   1.909 -0.0918 -0.2709 -0.0704
15495TIP3    H167900   2.859   5.125   1.896  0.6241  1.7673 -0.9871
15495TIP3    H267901   2.748   5.133   1.998  1.9815  0.2254  0.6648
15496TIP3   OH267902   5.752   0.209  13.415 -0.4656 -0.0827  0.1183
15496TIP3    H167903   5.696   0.173  13.484  0.6857  1.0957  1.7714
15496TIP3    H267904   5.742   0.148  13.342 -4.3472  0.4021  0.0270
15497TIP3   OH267905   3.040   1.690   2.747 -0.0722  0.2525 -0.2540
15497TIP3    H167906   3.073   1.706   2.658 -0.5505 -0.1230 -0.5012
15497TIP3    H267907   2.945   1.680   2.736 -0.5893  3.1079  0.6663
15498TIP3   OH267908   3.528   2.698   5.424  0.2571  0.3610 -0.2427
15498TIP3    H167909   3.577   2.751   5.362  0.6379  1.3572  0.8792
15498TIP3    H267910   3.542   2.740   5.509 -2.3989  0.6133  0.1766
15499TIP3   OH267911   1.169   0.765  11.373 -0.0462 -0.8777 -0.0250
15499TIP3    H167912   1.160   0.670  11.375 -0.0256 -0.8632  0.9510
15499TIP3    H267913   1.129   0.791  11.290  1.7653 -1.9193 -1.3078
15500TIP3   OH267914   5.674   0.978   1.038 -0.8679  0.7379  0.4756
15500TIP3    H167915   5.663   0.913   0.969 -1.2984  1.0691  0.2300
15500TIP3    H267916   5.595   1.032   1.034 -1.0976  0.4993  1.5077
15501TIP3   OH267917   6.825   6.577   3.011  0.1457  0.0191 -0.3657
15501TIP3    H167918   6.812   6.521   3.089  0.4544 -0.9968 -1.0184
15501TIP3    H267919   6.878   6.650   3.043 -0.0125 -0.2073  0.4510
15502TIP3   OH267920   1.135   1.607   4.786  0.3522 -0.0170 -0.2580
15502TIP3    H167921   1.062   1.547   4.772  0.0693  0.3146 -0.2195
15502TIP3    H267922   1.117   1.681   4.727 -1.2169  1.7528  2.2306
15503TIP3   OH267923   6.390   2.886  11.464 -0.3758 -0.2139  0.0321
15503TIP3    H167924   6.388   2.791  11.480 -0.9681 -1.0290 -3.9525
15503TIP3    H267925   6.302   2.915  11.487 -2.2914 -1.9145 -4.1839
15504TIP3   OH267926   0.733   6.476  12.935  0.3319 -0.4283 -0.0626
15504TIP3    H167927   0.715   6.561  12.974  2.2283 -0.8148  1.7957
15504TIP3    H267928   0.662   6.464  12.871 -0.2306  2.3117 -0.0864
15505TIP3   OH267929   5.594   4.075  12.421  0.3857  0.4361  0.0099
15505TIP3    H167930   5.686   4.084  12.399  0.0017 -0.7782 -2.4845
15505TIP3    H267931   5.590   3.999  12.480  0.9674  0.4004  0.0015
15506TIP3   OH267932   3.967   0.802   5.089 -0.0472  0.1700  0.3724
15506TIP3    H167933   3.897   0.757   5.041 -0.4502  1.3399 -0.1899
15506TIP3    H267934   4.048   0.762   5.058 -0.4622 -1.4225  1.2655
15507TIP3   OH267935   1.360   5.449   2.865 -0.4430 -0.2218 -0.0551
15507TIP3    H167936   1.303   5.410   2.799 -0.4812 -0.6270  0.2127
15507TIP3    H267937   1.396   5.374   2.913  2.4314 -0.1479 -1.9048
15508TIP3   OH267938   2.151   3.217  13.697 -0.2760 -0.3074 -0.2126
15508TIP3    H167939   2.149   3.131  13.655 -1.2371 -1.7047  2.4041
15508TIP3    H267940   2.236   3.220  13.741 -1.4400 -1.4200  2.3197
15509TIP3   OH267941   5.619   4.793  13.638  0.0850  0.1517 -0.6104
15509TIP3    H167942   5.652   4.785  13.549  0.4795 -1.0618 -0.3714
15509TIP3    H267943   5.567   4.714  13.651 -0.6575  0.7267 -0.0458
15510TIP3   OH267944   6.163   0.050   4.103  0.5338  0.0809  0.0770
15510TIP3    H167945   6.139  -0.037   4.073 -0.2158  0.1728  0.3848
15510TIP3    H267946   6.259   0.050   4.105  0.5502 -1.4201  2.0606
15511TIP3   OH267947   4.505   7.049   0.071  0.2465 -0.8555 -0.5139
15511TIP3    H167948   4.458   7.132   0.079  1.6965 -0.0529  0.0279
15511TIP3    H267949   4.591   7.074   0.036  2.0331 -1.6163  2.8915
15512TIP3   OH267950   1.911   0.371   4.051  0.6772 -0.6201 -0.5231
15512TIP3    H167951   1.990   0.425   4.055  0.7776 -0.8170  0.2591
15512TIP3    H267952   1.855   0.405   4.122 -0.0291 -0.3543 -1.1837
15513TIP3   OH267953   6.965   1.019  14.845 -1.0086  0.0165 -0.1829
15513TIP3    H167954   6.889   1.075  14.831 -0.2298  1.5052  1.1573
15513TIP3    H267955   7.034   1.079  14.872  0.0801 -1.5219  0.6286
15514TIP3   OH267956   2.037   5.667   0.778 -0.0369  0.1100 -0.0131
15514TIP3    H167957   2.086   5.586   0.765  0.2850  0.3833 -0.4914
15514TIP3    H267958   1.961   5.658   0.720  0.5357  0.5986 -0.8545
15515TIP3   OH267959   2.141   4.191   0.541 -0.1365 -0.0237  0.4031
15515TIP3    H167960   2.181   4.247   0.608 -0.8499  0.8019  0.1540
15515TIP3    H267961   2.213   4.137   0.509  0.8675  1.6141 -0.2224
15516TIP3   OH267962   4.856   4.487  10.974 -0.4310 -0.0338  0.0559
15516TIP3    H167963   4.819   4.415  11.026 -1.5902  0.8303  0.4722
15516TIP3    H267964   4.822   4.474  10.886 -1.5028  0.5762  0.3670
15517TIP3   OH267965   2.847   6.373   4.852 -0.1622 -0.3160  0.3376
15517TIP3    H167966   2.904   6.434   4.900  0.7828 -1.9599  1.4095
15517TIP3    H267967   2.815   6.313   4.919 -2.2014 -0.1862 -0.4630
15518TIP3   OH267968   3.644   1.686  14.494 -1.1220 -0.7230 -0.1931
15518TIP3    H167969   3.716   1.638  14.453 -0.3281 -0.7248  1.1447
15518TIP3    H267970   3.683   1.726  14.572 -2.3960 -0.0853  0.1448
15519TIP3   OH267971   4.141   1.063   5.228  0.3797 -0.1764  0.6954
15519TIP3    H167972   4.153   0.974   5.262  1.0583  0.0106  0.9703
15519TIP3    H267973   4.120   1.115   5.306 -0.2979 -0.1462  0.4934
15520TIP3   OH267974   4.036   5.567   4.455 -0.8888 -0.5235  0.0266
15520TIP3    H167975   4.094   5.521   4.395 -0.0373 -1.3345  1.4201
15520TIP3    H267976   4.093   5.624   4.507 -1.7728  1.2047 -0.8015
15521TIP3   OH267977   2.464   6.806   3.981  0.9683 -0.8133  0.2260
15521TIP3    H167978   2.520   6.857   4.040  0.1010  0.4964 -0.0264
15521TIP3    H267979   2.509   6.809   3.896  0.4968  0.3108  0.0021
15522TIP3   OH267980   1.708   0.760   4.541  0.0087  0.4049 -0.1252
15522TIP3    H167981   1.744   0.701   4.474 -0.6615  0.0986 -0.2229
15522TIP3    H267982   1.673   0.701   4.607  1.0735  0.7029  0.7337
15523TIP3   OH267983   5.322   0.125  10.677 -0.2432 -0.8185 -0.4438
15523TIP3    H167984   5.409   0.109  10.714  0.5332  0.4929 -1.6018
15523TIP3    H267985   5.261   0.091  10.742  1.1271 -0.9549  0.8074
15524TIP3   OH267986   2.237   3.719   0.523 -0.2740  0.6467 -0.0733
15524TIP3    H167987   2.320   3.745   0.484  1.0840 -0.1817  2.0447
15524TIP3    H267988   2.210   3.642   0.473  0.6376  0.4843 -0.3451
15525TIP3   OH267989   3.024   5.209  13.127  0.2676 -0.3616 -0.7587
15525TIP3    H167990   3.064   5.194  13.042  0.0478  0.4069 -1.0031
15525TIP3    H267991   2.941   5.161  13.123  0.7054 -1.1478 -0.6068
15526TIP3   OH267992   6.129   1.178   3.499  0.1657 -0.2696 -0.3888
15526TIP3    H167993   6.130   1.263   3.544  0.4731  0.2045 -1.2696
15526TIP3    H267994   6.104   1.199   3.409  0.6409 -1.0676 -0.7186
15527TIP3   OH267995   6.665   5.197  14.748  0.0110  0.1048 -0.5912
15527TIP3    H167996   6.688   5.289  14.737  1.3970 -0.0845  0.3115
15527TIP3    H267997   6.750   5.153  14.757 -0.6530 -1.1222 -0.1085
15528TIP3   OH267998   2.078   5.068   2.749  0.3184 -0.2435  0.3637
15528TIP3    H167999   2.026   5.089   2.827 -0.3477  1.0617 -0.4049
15528TIP3    H268000   2.163   5.111   2.764  0.8611 -1.5397  1.1693
15529TIP3   OH268001   0.972   1.745   5.363  0.0703 -1.0848 -0.1522
15529TIP3    H168002   0.927   1.667   5.393 -0.2253 -2.0982 -2.9342
15529TIP3    H268003   1.020   1.717   5.285 -0.6347  1.6060 -1.6966
15530TIP3   OH268004   3.610   4.325   4.681 -0.5552 -0.1476 -0.5895
15530TIP3    H168005   3.585   4.320   4.773 -0.1291  1.7944 -0.3255
15530TIP3    H268006   3.698   4.288   4.678  0.4874  2.0262  0.3140
15531TIP3   OH268007   1.744   2.167  11.798 -0.7462 -0.1854 -0.1076
15531TIP3    H168008   1.725   2.201  11.885  0.7030 -0.3975  0.3241
15531TIP3    H268009   1.792   2.086  11.815  1.3663  0.7988 -1.0588
15532TIP3   OH268010   5.784   0.396   5.219 -0.6307  0.3713  0.7748
15532TIP3    H168011   5.814   0.370   5.132 -0.1001  2.3664  0.3040
15532TIP3    H268012   5.789   0.317   5.271  0.8286 -0.4481 -0.5395
15533TIP3   OH268013   6.011   5.144   1.001 -0.4375 -0.2311 -0.3652
15533TIP3    H168014   6.049   5.124   1.086  0.0458 -0.4130 -0.6265
15533TIP3    H268015   5.948   5.074   0.985  0.4055 -0.9031 -0.7467
15534TIP3   OH268016   5.715   6.204   3.687 -0.2166 -0.0019 -0.0381
15534TIP3    H168017   5.697   6.231   3.598  1.0822  0.8869 -0.0657
15534TIP3    H268018   5.660   6.127   3.701 -0.2781 -0.2807 -1.6622
15535TIP3   OH268019   5.889   5.012   2.922 -0.8640  0.4232 -0.0237
15535TIP3    H168020   5.810   5.063   2.931 -0.7127  0.3593  2.3432
15535TIP3    H268021   5.960   5.073   2.943 -0.5323 -0.1925  0.7132
15536TIP3   OH268022   5.554   6.802   0.737  0.2541 -0.1503  0.0489
15536TIP3    H168023   5.608   6.809   0.659 -0.7930  0.4137 -0.6565
15536TIP3    H268024   5.542   6.708   0.750  0.3645 -0.2442 -0.5243
15537TIP3   OH268025   6.600   3.878   0.400 -0.0633 -0.2912 -0.3290
15537TIP3    H168026   6.628   3.965   0.429 -0.5309 -0.5918  1.0963
15537TIP3    H268027   6.681   3.827   0.396  0.0473 -0.1610  0.1841
15538TIP3   OH268028   3.429   1.402  11.182 -0.3334  0.2140 -0.1612
15538TIP3    H168029   3.339   1.407  11.149 -0.9176  1.1315  1.4894
15538TIP3    H268030   3.441   1.482  11.232  1.0560 -0.3852  0.5272
15539TIP3   OH268031   6.264   5.412   1.490  0.0017 -0.3146 -0.8213
15539TIP3    H168032   6.244   5.504   1.508  3.0343  0.9047 -2.9593
15539TIP3    H268033   6.352   5.399   1.524 -0.0466 -2.1862 -1.3098
15540TIP3   OH268034   1.366   1.803   0.665 -0.1876  0.3053  0.3405
15540TIP3    H168035   1.368   1.875   0.601 -1.1389 -0.5923 -0.7275
15540TIP3    H268036   1.377   1.847   0.750 -0.0793  1.6378 -0.3309
15541TIP3   OH268037   0.388   0.239  13.424  0.0709  0.1846 -0.1809
15541TIP3    H168038   0.305   0.267  13.462  1.5217  0.0357  3.5594
15541TIP3    H268039   0.370   0.153  13.387 -1.7973  0.9586 -1.2196
15542TIP3   OH268040   4.510   5.880   1.312 -0.1334 -0.2764 -0.1920
15542TIP3    H168041   4.595   5.923   1.315 -0.5410  0.4727  1.4209
15542TIP3    H268042   4.457   5.934   1.253  0.2612 -0.3169 -0.5894
15543TIP3   OH268043   6.427   3.925   1.692 -0.2981 -0.2091  0.0514
15543TIP3    H168044   6.516   3.894   1.675 -0.2947 -1.6558  2.2541
15543TIP3    H268045   6.439   4.013   1.728  0.0538  0.4355 -1.5544
15544TIP3   OH268046   1.538   5.404  11.520  0.2028 -0.2680  0.0678
15544TIP3    H168047   1.564   5.415  11.611 -0.0778 -0.5254  0.1778
15544TIP3    H268048   1.525   5.494  11.488 -1.1789 -0.2159  0.7094
15545TIP3   OH268049   0.515   4.069   1.468 -0.1615  0.1361  0.0992
15545TIP3    H168050   0.421   4.073   1.450  0.0245 -0.3345 -1.0941
15545TIP3    H268051   0.554   4.046   1.384  0.9767 -0.2521  0.7165
15546TIP3   OH268052   0.251   2.308   4.511 -0.5953 -0.2722 -0.1803
15546TIP3    H168053   0.306   2.348   4.579  1.1412  2.4196 -2.9167
15546TIP3    H268054   0.302   2.235   4.479 -0.4907 -0.2815  0.0031
15547TIP3   OH268055   4.920   0.448   4.330 -0.2841  0.4911 -0.2464
15547TIP3    H168056   4.979   0.491   4.392 -0.1861  0.7831 -0.5389
15547TIP3    H268057   4.896   0.366   4.373  2.8180 -1.2008 -1.4488
15548TIP3   OH268058   2.721   6.915   2.369  0.1871  0.1432 -0.5473
15548TIP3    H168059   2.759   6.829   2.351  0.2488  0.4032 -1.7700
15548TIP3    H268060   2.629   6.907   2.342 -0.2768 -0.0399  0.9901
15549TIP3   OH268061   3.800   6.766  13.608  0.0213  0.6145  0.7674
15549TIP3    H168062   3.779   6.682  13.651 -1.9032  0.1460 -0.9160
15549TIP3    H268063   3.895   6.772  13.612  0.2560 -1.8943  0.5739
15550TIP3   OH268064   1.536   5.558   1.553  0.5680 -1.1807 -0.0336
15550TIP3    H168065   1.616   5.602   1.524  0.3574 -0.3395  0.6293
15550TIP3    H268066   1.519   5.492   1.485 -0.0041  0.8039 -1.9411
15551TIP3   OH268067   6.481   1.893  13.744  0.2806 -0.1394  0.3771
15551TIP3    H168068   6.564   1.892  13.697  0.3845  2.3200  0.3813
15551TIP3    H268069   6.440   1.975  13.719 -0.9876 -0.1099  2.3391
15552TIP3   OH268070   0.230   3.779   1.368 -0.4227 -0.4173 -0.1683
15552TIP3    H168071   0.225   3.874   1.362 -0.0295 -0.4349 -0.7692
15552TIP3    H268072   0.312   3.755   1.324 -0.3845 -1.0133  0.2038
15553TIP3   OH268073   4.935   3.211   3.542 -0.4880  0.7390 -0.3361
15553TIP3    H168074   4.878   3.247   3.474 -0.2081  0.6891 -0.5998
15553TIP3    H268075   4.887   3.224   3.623 -2.6591 -2.7087 -0.8862
15554TIP3   OH268076   1.878   6.772   4.699 -0.2070  0.1662  0.4793
15554TIP3    H168077   1.830   6.721   4.764  1.9000 -1.1723  1.0677
15554TIP3    H268078   1.905   6.851   4.746 -0.1769  0.0242  0.6987
15555TIP3   OH268079   5.646   2.677  12.878 -0.6786 -1.0149 -0.1441
15555TIP3    H168080   5.562   2.632  12.866 -0.7197 -0.9354 -0.1635
15555TIP3    H268081   5.656   2.684  12.972 -1.5062  0.4466 -0.1332
15556TIP3   OH268082   2.862   2.254  13.803 -0.6436 -0.6369  0.2945
15556TIP3    H168083   2.791   2.189  13.799  0.5765 -2.0034 -0.1646
15556TIP3    H268084   2.942   2.202  13.800  0.3953  0.8871  0.4504
15557TIP3   OH268085   0.180   4.260   9.987 -0.3540 -0.3315 -0.4808
15557TIP3    H168086   0.187   4.284   9.895  0.2493 -1.5896 -0.7894
15557TIP3    H268087   0.109   4.196   9.989 -0.8264  0.2018  0.0473
15558TIP3   OH268088   6.365   0.010   4.875 -0.3688 -0.5081 -0.1216
15558TIP3    H168089   6.359  -0.034   4.959 -1.0954 -0.5998 -0.2142
15558TIP3    H268090   6.306  -0.039   4.817  0.7695 -0.9683 -0.9231
15559TIP3   OH268091   0.787   5.134   2.971 -0.4878  0.2059 -0.4249
15559TIP3    H168092   0.712   5.156   2.916 -1.0727  0.0250  0.2863
15559TIP3    H268093   0.761   5.160   3.059  0.3548  0.2930 -0.1920
15560TIP3   OH268094   6.723   1.199  10.974 -0.9724  0.1941  0.1105
15560TIP3    H168095   6.646   1.254  10.962 -0.0905  1.0325 -2.4175
15560TIP3    H268096   6.790   1.239  10.918  1.0981 -0.9163  1.6330
15561TIP3   OH268097   2.167   0.473   4.254  0.8104 -0.0574 -0.2270
15561TIP3    H168098   2.262   0.488   4.258  1.1846 -2.1862  0.2274
15561TIP3    H268099   2.131   0.526   4.325  1.6451  0.7495 -0.3813
15562TIP3   OH268100   6.562   1.625  10.930  0.0974  0.2291  0.5232
15562TIP3    H168101   6.631   1.676  10.890 -0.1333 -0.2598 -0.5227
15562TIP3    H268102   6.481   1.661  10.894 -0.0223 -1.5899 -1.1321
15563TIP3   OH268103   6.928   2.840   3.362 -0.1869 -0.2033 -0.2006
15563TIP3    H168104   6.843   2.884   3.364  0.0175  0.1939  0.0639
15563TIP3    H268105   6.939   2.806   3.451  0.1032  0.0947 -0.1196
15564TIP3   OH268106   2.660   6.397   3.698 -0.4115 -0.4815  0.1140
15564TIP3    H168107   2.632   6.404   3.789 -0.3326 -1.4574  0.2171
15564TIP3    H268108   2.738   6.453   3.692 -0.6156 -0.1450  0.5555
15565TIP3   OH268109   5.991   0.888   0.319  0.3412  0.5712 -0.3513
15565TIP3    H168110   5.972   0.887   0.225  0.6113  1.9816 -0.4510
15565TIP3    H268111   6.084   0.868   0.326  0.0446 -0.8868 -0.2626
15566TIP3   OH268112   5.356   5.417   2.572  0.0840  0.5500  0.2430
15566TIP3    H168113   5.309   5.356   2.628 -1.9757  0.6582 -1.2657
15566TIP3    H268114   5.437   5.370   2.548 -0.8049 -1.0386  0.2340
15567TIP3   OH268115   4.521   4.948   1.289 -0.2207  0.1164 -0.1730
15567TIP3    H168116   4.525   4.974   1.197  1.0499 -0.6760 -0.3723
15567TIP3    H268117   4.613   4.942   1.316 -0.3068 -3.9751 -0.1458
15568TIP3   OH268118   2.101   4.283   1.112 -0.0192  0.2450  0.2409
15568TIP3    H168119   2.013   4.246   1.113 -0.4098  1.0143 -1.6310
15568TIP3    H268120   2.105   4.333   1.030  1.8706  0.9244  0.7011
15569TIP3   OH268121   5.395   3.227  13.918  0.2258 -0.7226  0.5388
15569TIP3    H168122   5.367   3.189  13.835  1.4519 -0.3765 -0.0540
15569TIP3    H268123   5.325   3.204  13.979  0.3579 -2.9435 -0.0439
15570TIP3   OH268124   1.982   5.078  15.473  0.3125 -0.0627 -0.0963
15570TIP3    H168125   2.017   5.068  15.562 -1.2597 -0.8536  0.4534
15570TIP3    H268126   1.950   5.168  15.470 -0.2274 -0.2339  0.3716
15571TIP3   OH268127   0.733   5.030   0.461  0.1420 -0.1151  0.1934
15571TIP3    H168128   0.811   5.030   0.517  0.7862 -0.9844 -0.6714
15571TIP3    H268129   0.690   4.946   0.480  0.9688 -0.9301 -1.3990
15572TIP3   OH268130   1.686   6.302  10.158  1.1112  0.3255 -0.0503
15572TIP3    H168131   1.707   6.210  10.176 -0.6887 -0.1881 -0.4301
15572TIP3    H268132   1.738   6.322  10.080  0.0776 -0.9800 -1.1244
15573TIP3   OH268133   4.672   0.494   3.893  0.0189 -0.6550  0.5064
15573TIP3    H168134   4.595   0.470   3.943 -0.5030 -0.7859 -0.3369
15573TIP3    H268135   4.679   0.589   3.905  0.0089 -0.7121  0.9738
15574TIP3   OH268136   1.771   4.741   4.511  0.1949  0.5124  1.0297
15574TIP3    H168137   1.777   4.718   4.418  2.8658  2.8751  0.4717
15574TIP3    H268138   1.839   4.688   4.553  1.3333  1.8501  0.9684
15575TIP3   OH268139   4.033   1.192  10.867 -0.4362 -0.0857  0.1757
15575TIP3    H168140   3.945   1.225  10.850 -0.5416 -0.5572 -0.2174
15575TIP3    H268141   4.066   1.165  10.782 -0.0765 -0.3250  0.3841
15576TIP3   OH268142   6.148   4.943   9.618  0.1303  0.1512  0.4384
15576TIP3    H168143   6.208   4.890   9.566  1.1030  0.5378  1.1384
15576TIP3    H268144   6.163   5.033   9.589  0.6782  0.3704  1.3516
15577TIP3   OH268145   0.117   0.422  11.639  0.0141  0.0379 -0.0010
15577TIP3    H168146   0.079   0.485  11.577 -0.7874 -0.9885 -0.5819
15577TIP3    H268147   0.130   0.473  11.720  2.6861  1.8628 -1.4456
15578TIP3   OH268148   3.402   3.112  13.784 -0.1395 -0.1711 -0.0678
15578TIP3    H168149   3.455   3.060  13.845 -0.0997  0.7176  0.6739
15578TIP3    H268150   3.392   3.056  13.707 -0.2860 -1.3666  0.7928
15579TIP3   OH268151   6.302   5.844   0.688  0.1782 -0.4792  0.1013
15579TIP3    H168152   6.323   5.779   0.755  1.9560  0.4918  0.5662
15579TIP3    H268153   6.369   5.832   0.621 -1.6525 -1.5313 -1.6645
15580TIP3   OH268154   0.686   2.659  12.565 -0.3230 -0.0133  0.0210
15580TIP3    H168155   0.644   2.729  12.516 -1.0103  1.9271  3.0817
15580TIP3    H268156   0.614   2.601  12.592  0.1300 -1.4754 -1.6992
15581TIP3   OH268157   2.767   2.638   5.111  0.3033  0.1485  0.8756
15581TIP3    H168158   2.686   2.684   5.088  0.9076  1.1957  0.7737
15581TIP3    H268159   2.744   2.586   5.188 -1.0071 -1.2278 -0.3774
15582TIP3   OH268160   0.097   6.366   0.463  0.5380  0.3397 -0.0069
15582TIP3    H168161   0.109   6.286   0.514  1.0697  0.6965  0.4365
15582TIP3    H268162   0.085   6.336   0.373 -1.2883 -0.3577  0.4268
15583TIP3   OH268163   0.006   2.310  13.166  0.9098 -0.7089  0.6414
15583TIP3    H168164  -0.007   2.224  13.128  0.5469  0.6322 -2.6501
15583TIP3    H268165  -0.060   2.365  13.124  3.1718  1.8115  0.1032
15584TIP3   OH268166   5.455   4.617   3.761  0.6822  0.2986 -0.9802
15584TIP3    H168167   5.421   4.705   3.747  0.0725 -0.0856 -2.1265
15584TIP3    H268168   5.456   4.605   3.856  0.6493  1.4796 -0.8222
15585TIP3   OH268169   4.927   1.758  11.373 -0.4788  0.3449  0.2539
15585TIP3    H168170   4.933   1.787  11.282 -0.1824 -0.1760  0.0976
15585TIP3    H268171   4.956   1.833  11.424 -2.2185  1.2134  0.0329
15586TIP3   OH268172   0.651   2.649   1.770  0.1393  0.3864  0.0044
15586TIP3    H168173   0.593   2.607   1.707  0.3147  0.2497 -0.0656
15586TIP3    H268174   0.664   2.737   1.735  2.5175 -0.5402 -1.6939
15587TIP3   OH268175   0.356   5.114   1.136  0.0101 -0.2274 -0.1497
15587TIP3    H168176   0.410   5.102   1.058 -0.3743 -0.5112 -0.3732
15587TIP3    H268177   0.336   5.207   1.138  1.9666  0.2199  0.8992
15588TIP3   OH268178   6.679   0.280   3.923  0.1553 -0.4314  0.0483
15588TIP3    H168179   6.626   0.246   3.851  0.7829 -0.6127 -0.3389
15588TIP3    H268180   6.766   0.243   3.908  0.1978 -0.8060  1.1381
15589TIP3   OH268181   6.228   6.504  13.165  0.2765 -0.2374 -0.1542
15589TIP3    H168182   6.182   6.525  13.246 -0.0051  0.3637 -0.4670
15589TIP3    H268183   6.175   6.543  13.095  0.8823 -0.1376 -0.5740
15590TIP3   OH268184   6.549   6.972   4.700 -0.1470  0.2265  0.1498
15590TIP3    H168185   6.480   7.019   4.746  0.3709 -0.0597  1.2685
15590TIP3    H268186   6.619   7.037   4.689 -0.3897  0.3822 -0.5420
15591TIP3   OH268187   2.722   4.232   3.937  0.4172  0.9093 -0.4813
15591TIP3    H168188   2.798   4.272   3.894  1.7056 -0.7887  0.1066
15591TIP3    H268189   2.750   4.218   4.027 -0.0642 -0.9961 -0.5869
15592TIP3   OH268190   3.430   6.065   1.046 -0.1422 -0.0012 -0.0061
15592TIP3    H168191   3.499   6.008   1.010 -0.3783 -1.2065  1.3488
15592TIP3    H268192   3.430   6.141   0.988  1.3211 -0.6325 -0.9181
15593TIP3   OH268193   1.628   6.883   4.423  0.4525  0.0558  0.3613
15593TIP3    H168194   1.721   6.878   4.448  0.0201  0.2523  2.2133
15593TIP3    H268195   1.614   6.975   4.401  1.3255 -0.4924 -2.8838
15594TIP3   OH268196   5.421   5.001   3.605 -0.5687 -0.2808  0.6006
15594TIP3    H168197   5.351   4.944   3.638 -1.3308  0.2768  0.0023
15594TIP3    H268198   5.434   5.065   3.675  3.1130 -3.3606  3.1310
15595TIP3   OH268199   2.888   6.582   4.009  0.1256 -0.3824 -0.1738
15595TIP3    H168200   2.922   6.671   4.003  0.3753 -0.5601 -1.7022
15595TIP3    H268201   2.902   6.558   4.100 -0.7239  1.4328  0.4897
15596TIP3   OH268202   3.047   0.927   0.306 -0.5493  0.1562  0.2709
15596TIP3    H168203   2.975   0.903   0.364  0.9431 -3.4223  0.8920
15596TIP3    H268204   3.017   0.899   0.219 -0.6384  0.4428  0.2081
15597TIP3   OH268205   6.669   1.483   5.277  0.3428  0.1960  0.0114
15597TIP3    H168206   6.658   1.446   5.365  0.1111 -1.5548 -0.7155
15597TIP3    H268207   6.764   1.480   5.262  0.3959  0.6235  0.2387
15598TIP3   OH268208   2.913   3.398  14.602  0.0057  0.3969  0.2108
15598TIP3    H168209   2.844   3.365  14.659  0.2299  0.2742  0.4144
15598TIP3    H268210   2.869   3.415  14.518 -0.0368 -0.8311 -0.0410
15599TIP3   OH268211   6.342   3.763   4.443 -0.1143 -0.1616  0.0316
15599TIP3    H168212   6.298   3.727   4.520 -2.1546 -0.6814 -1.3201
15599TIP3    H268213   6.284   3.742   4.370  3.3838 -2.9807 -2.2891
15600TIP3   OH268214   1.934   0.014  11.000  0.2487  0.0607 -0.5867
15600TIP3    H168215   2.018   0.023  10.954  1.7198 -0.3607  1.8369
15600TIP3    H268216   1.915  -0.079  10.997  0.2109  0.0671 -0.5526
15601TIP3   OH268217   4.695   5.745  14.497 -0.2875 -0.3078  0.4433
15601TIP3    H168218   4.629   5.704  14.554 -0.7187  1.0428  0.9514
15601TIP3    H268219   4.693   5.692  14.417 -0.8243 -1.2675  1.0710
15602TIP3   OH268220   5.833   2.343   3.135  0.1097 -0.2228 -0.4757
15602TIP3    H168221   5.760   2.390   3.175 -1.9534 -2.3809 -1.4483
15602TIP3    H268222   5.882   2.308   3.210  0.1757  1.2204  0.1911
15603TIP3   OH268223   1.544   7.099   1.561  0.7869 -0.5381  0.1893
15603TIP3    H168224   1.472   7.131   1.616  1.1092 -0.5453  0.6205
15603TIP3    H268225   1.501   7.038   1.500  0.4254 -0.5371  0.4364
15604TIP3   OH268226   6.286   6.246   3.504  0.2096  0.1731 -0.0805
15604TIP3    H168227   6.256   6.178   3.565  2.8850 -1.4637 -0.4081
15604TIP3    H268228   6.205   6.280   3.466 -1.4008 -0.9322  2.0470
15605TIP3   OH268229   7.105   4.600   2.168 -0.3477  0.5021 -0.8987
15605TIP3    H168230   7.180   4.602   2.109 -0.6509  0.7627 -1.2785
15605TIP3    H268231   7.115   4.518   2.216  0.4640  0.7812 -0.5682
15606TIP3   OH268232   3.090   0.529   4.421 -0.3718 -0.8627 -0.0444
15606TIP3    H168233   3.034   0.451   4.420  0.4731 -1.4832 -0.6864
15606TIP3    H268234   3.179   0.495   4.405  0.4570 -0.1029  2.4089
15607TIP3   OH268235   1.781   0.424   1.538  0.3240 -0.3665 -0.0743
15607TIP3    H168236   1.713   0.487   1.562  2.0042  1.4305  0.2224
15607TIP3    H268237   1.776   0.417   1.443 -0.3928 -0.4016 -0.0372
15608TIP3   OH268238   6.633   2.341   9.748 -0.5060 -0.1728 -0.3106
15608TIP3    H168239   6.660   2.319   9.659 -0.4660  3.8360 -1.4722
15608TIP3    H268240   6.540   2.319   9.752 -1.1969  2.0201 -2.3668
15609TIP3   OH268241   6.337   1.262   4.306 -0.2923  0.5537 -0.2484
15609TIP3    H168242   6.340   1.269   4.401  0.6386  0.1360 -0.2303
15609TIP3    H268243   6.251   1.296   4.281 -1.3698 -1.1774  0.9049
15610TIP3   OH268244   1.619   6.358   2.788  0.0539  0.4276  0.1193
15610TIP3    H168245   1.569   6.411   2.725 -0.0989 -0.5228 -0.5811
15610TIP3    H268246   1.710   6.369   2.761 -0.0251 -0.1160 -0.3908
15611TIP3   OH268247   4.437   4.744   4.521 -0.1457 -0.1876  0.0413
15611TIP3    H168248   4.458   4.783   4.436 -0.7336 -0.4875 -0.2429
15611TIP3    H268249   4.478   4.658   4.518 -2.1045 -1.1394 -0.8694
15612TIP3   OH268250   1.009   0.956  15.598 -0.2382 -0.0463 -0.1342
15612TIP3    H168251   1.073   1.011  15.643 -0.7518 -0.4388  1.1223
15612TIP3    H268252   0.930   0.963  15.651 -0.1877 -2.3591  0.3503
15613TIP3   OH268253   5.980   2.655   1.759 -0.1051  0.1380 -0.3690
15613TIP3    H168254   6.043   2.726   1.743  0.4667 -0.3484 -0.3308
15613TIP3    H268255   5.959   2.662   1.852 -0.4093  0.5463 -0.4685
15614TIP3   OH268256   5.362   2.413   1.957 -0.3917 -0.8283 -0.2479
15614TIP3    H168257   5.349   2.346   2.025 -0.5232  0.0860  0.6554
15614TIP3    H268258   5.456   2.413   1.941 -0.2768 -0.6536  0.3748
15615TIP3   OH268259   0.888   6.843   3.203 -0.3359  0.4066 -0.1074
15615TIP3    H168260   0.974   6.844   3.161 -0.1748  0.1693  0.2197
15615TIP3    H268261   0.827   6.830   3.130 -0.0825  0.3690 -0.3145
15616TIP3   OH268262   5.808   3.864   2.500 -0.2736  0.6203 -0.5906
15616TIP3    H168263   5.852   3.861   2.415 -1.2829  1.3729 -1.1596
15616TIP3    H268264   5.736   3.802   2.492  0.7493 -0.7713  0.4131
15617TIP3   OH268265   2.211   2.876  11.197 -0.0201  0.2415  0.6052
15617TIP3    H168266   2.251   2.937  11.135  0.6128 -2.1727 -1.5518
15617TIP3    H268267   2.122   2.863  11.164 -0.1704  0.0443  1.0777
15618TIP3   OH268268   5.795   6.957  14.771 -0.5259  0.2056 -0.7352
15618TIP3    H168269   5.774   7.048  14.750  1.3886  0.4949 -1.6489
15618TIP3    H268270   5.813   6.957  14.865 -1.3619  0.5866 -0.5685
15619TIP3   OH268271   6.162   3.854   1.718 -0.7881  0.0631  0.2395
15619TIP3    H168272   6.255   3.867   1.700 -0.2589  1.3659  3.2982
15619TIP3    H268273   6.118   3.921   1.665 -0.0756 -0.6288 -1.3154
15620TIP3   OH268274   2.917   1.972   1.785 -0.3852 -0.4222 -0.0116
15620TIP3    H168275   2.968   2.040   1.828 -0.2061 -0.8590  0.4711
15620TIP3    H268276   2.968   1.948   1.707  0.1806 -0.8969  0.4968
15621TIP3   OH268277   2.510   3.572  12.533 -0.0937 -0.6513  0.2924
15621TIP3    H168278   2.464   3.625  12.468  1.2336 -0.8855 -0.8786
15621TIP3    H268279   2.482   3.482  12.514  0.4045 -0.7361 -0.0902
15622TIP3   OH268280   6.200   0.365   2.281  0.0228 -0.5177  0.4580
15622TIP3    H168281   6.229   0.330   2.197 -0.2132 -1.2690  0.6767
15622TIP3    H268282   6.128   0.424   2.259  1.5094  1.1751 -0.0592
15623TIP3   OH268283   0.217   0.977   1.351 -0.1397 -0.6140  0.1533
15623TIP3    H168284   0.213   0.910   1.283  0.7718 -0.1118 -0.4115
15623TIP3    H268285   0.281   0.942   1.414 -1.6401 -1.4986  1.2471
15624TIP3   OH268286   4.006   0.060   5.190 -0.1515  0.2193 -0.2659
15624TIP3    H168287   3.974  -0.003   5.254 -0.6231  0.2016 -0.5113
15624TIP3    H268288   3.975   0.144   5.221  1.0585  0.4323  0.4289
15625TIP3   OH268289   1.174   5.266   0.818  0.6560 -0.1433  0.3199
15625TIP3    H168290   1.096   5.292   0.868 -1.0255  0.6086 -2.4791
15625TIP3    H268291   1.231   5.343   0.821 -1.5882  1.8492 -2.7932
15626TIP3   OH268292   1.093   6.035  13.289  0.2975  0.3736  0.0744
15626TIP3    H168293   1.048   6.103  13.239  1.0289  1.0294  0.2755
15626TIP3    H268294   1.054   6.039  13.377 -0.3443 -0.1476 -0.1799
15627TIP3   OH268295   4.257   2.073  12.541 -0.2286 -0.4125 -0.5597
15627TIP3    H168296   4.310   2.046  12.467  1.1963  0.5185  0.0650
15627TIP3    H268297   4.312   2.056  12.618 -0.9575  0.2744  0.1447
15628TIP3   OH268298   5.301   6.304  13.332  0.1312  0.0921 -0.5238
15628TIP3    H168299   5.320   6.392  13.300 -1.1574  0.7827  0.5347
15628TIP3    H268300   5.208   6.291  13.314 -0.1013 -0.3671  0.8990
15629TIP3   OH268301   1.702   3.090   3.047  0.9389  0.4588 -0.3709
15629TIP3    H168302   1.747   3.131   3.121 -1.3125  1.6867  0.4047
15629TIP3    H268303   1.672   3.163   2.994  0.2325 -0.3290 -1.0742
15630TIP3   OH268304   0.746   6.562  14.632  0.2083  0.4130 -0.4470
15630TIP3    H168305   0.711   6.474  14.645  1.6934 -0.1001  0.3241
15630TIP3    H268306   0.695   6.597  14.560 -2.2653 -0.0453  0.9631
15631TIP3   OH268307   3.030   1.198  15.593  0.5308  0.1419 -0.1404
15631TIP3    H168308   3.059   1.244  15.672  0.1969  2.0583 -1.0853
15631TIP3    H268309   2.992   1.116  15.626  1.8958  0.1201  1.5324
15632TIP3   OH268310   6.874   4.900   4.241 -0.0299 -0.2930 -0.3466
15632TIP3    H168311   6.969   4.894   4.253  0.0799  1.1353 -0.3496
15632TIP3    H268312   6.845   4.956   4.313 -0.8990 -0.8160 -0.2769
15633TIP3   OH268313   4.507   3.485   0.216  0.3177  0.0481  0.4675
15633TIP3    H168314   4.449   3.512   0.145  0.2245  1.4175  1.0271
15633TIP3    H268315   4.506   3.559   0.276  0.3640 -1.0888  1.9195
15634TIP3   OH268316   1.545   4.564   4.338 -0.1242  0.1777  0.4315
15634TIP3    H168317   1.620   4.622   4.321  0.0039 -0.6089 -1.9132
15634TIP3    H268318   1.577   4.505   4.407  1.0709  0.4641  0.1509
15635TIP3   OH268319   4.784   6.550   1.617 -0.2272 -0.3324  0.5221
15635TIP3    H168320   4.736   6.628   1.590 -0.0410 -0.5097 -0.3734
15635TIP3    H268321   4.814   6.570   1.706 -1.9128 -0.2161  1.0880
15636TIP3   OH268322   3.426   4.524   4.670  0.1530  0.1852  0.1163
15636TIP3    H168323   3.489   4.453   4.672 -0.5319 -0.4317 -0.0098
15636TIP3    H268324   3.456   4.580   4.598  1.1851  0.5012  0.7696
15637TIP3   OH268325   5.652   3.383  10.397  0.3052 -0.1687 -0.5129
15637TIP3    H168326   5.648   3.288  10.383  2.4372 -0.4723  0.5654
15637TIP3    H268327   5.691   3.417  10.316 -2.7596  0.1916 -1.9850
15638TIP3   OH268328   5.727   5.513  15.233 -0.3077  0.4033  0.1574
15638TIP3    H168329   5.715   5.563  15.314 -0.1115  2.4450 -1.0063
15638TIP3    H268330   5.652   5.536  15.179  0.2488  0.1449 -0.7541
15639TIP3   OH268331   3.010   6.586   3.368 -0.2687  0.2348  0.8160
15639TIP3    H168332   3.056   6.668   3.385 -0.5528  0.3112  1.2631
15639TIP3    H268333   2.963   6.600   3.286  0.7565  0.0366  0.1831
15640TIP3   OH268334   2.905   3.499  11.081 -0.2874 -0.3853 -0.5452
15640TIP3    H168335   2.828   3.455  11.118  0.6678 -2.9432 -1.3291
15640TIP3    H268336   2.890   3.592  11.097 -1.8006 -1.0273  2.5720
15641TIP3   OH268337   3.017   4.773   5.904 -0.3028  0.6123 -0.0365
15641TIP3    H168338   3.104   4.784   5.944 -0.2952  0.1806  0.0717
15641TIP3    H268339   3.022   4.689   5.859 -0.1356  1.3533 -1.4379
15642TIP3   OH268340   6.366   0.726  14.962 -0.4502  0.3011 -0.1039
15642TIP3    H168341   6.275   0.742  14.937 -1.0109 -0.6751  1.2049
15642TIP3    H268342   6.401   0.671  14.891 -1.9785 -2.3081  0.9961
15643TIP3   OH268343   5.839   0.476  13.385 -0.1393 -0.3576  0.2228
15643TIP3    H168344   5.796   0.390  13.391 -1.2775  0.0404 -1.3548
15643TIP3    H268345   5.791   0.521  13.315  0.8311  1.3431  0.6021
15644TIP3   OH268346   3.687   2.435   3.620  0.6966  0.0685  0.3265
15644TIP3    H168347   3.761   2.438   3.559  1.7502 -0.0233  1.5576
15644TIP3    H268348   3.657   2.344   3.616 -0.0359  0.3372 -0.9312
15645TIP3   OH268349   0.021   0.749   3.586 -1.0121 -0.4590 -0.1169
15645TIP3    H168350   0.077   0.803   3.531 -1.4271  0.8432  0.6860
15645TIP3    H268351  -0.018   0.811   3.648  0.9165 -2.0663  2.9452
15646TIP3   OH268352   3.714   4.287   2.867 -0.1136 -0.2150 -0.0003
15646TIP3    H168353   3.805   4.258   2.856 -0.6732 -1.9637 -0.3434
15646TIP3    H268354   3.713   4.376   2.834  1.4883 -0.1549  0.0329
15647TIP3   OH268355   3.196   0.934   5.175  0.2371 -0.1946 -0.1631
15647TIP3    H168356   3.139   0.955   5.102  0.7044 -0.0388 -0.4897
15647TIP3    H268357   3.280   0.911   5.134  0.5849  0.1776  0.3359
15648TIP3   OH268358   7.093   4.393   1.235  0.5850 -0.4389 -0.1548
15648TIP3    H168359   7.067   4.327   1.299  0.8915 -2.4190 -1.9406
15648TIP3    H268360   7.033   4.380   1.161  0.0823  1.9281 -0.2476
15649TIP3   OH268361   5.772   1.048   9.992  0.7547 -0.0362  0.0861
15649TIP3    H168362   5.791   0.955   9.994 -1.0541 -0.5309 -1.8898
15649TIP3    H268363   5.735   1.063   9.905 -1.7595  1.9245  1.3518
15650TIP3   OH268364   3.649   5.630   1.637 -0.3675  0.0118 -0.2322
15650TIP3    H168365   3.667   5.648   1.730 -0.4067  1.2768 -0.4570
15650TIP3    H268366   3.563   5.669   1.622 -1.0802 -1.5676 -0.4274
15651TIP3   OH268367   3.810   3.780   4.005 -0.0657  0.4675 -0.0484
15651TIP3    H168368   3.838   3.823   3.924  0.1686 -0.1150 -0.2848
15651TIP3    H268369   3.856   3.827   4.074  0.4298  0.4062 -0.3302
15652TIP3   OH268370   5.618   3.120   0.884 -0.3021 -0.7129  0.0100
15652TIP3    H168371   5.672   3.072   0.821  0.8169 -0.0048  0.3853
15652TIP3    H268372   5.633   3.212   0.863 -0.3502 -0.4801  0.9546
15653TIP3   OH268373   6.391   0.336  11.372  0.4095  0.1603 -0.3749
15653TIP3    H168374   6.372   0.319  11.280  1.3187  0.0427 -0.5499
15653TIP3    H268375   6.481   0.304  11.385 -0.4202 -1.7920  1.0783
15654TIP3   OH268376   1.198   6.251   4.561 -0.2208 -0.0658 -0.4776
15654TIP3    H168377   1.246   6.326   4.597  0.2846 -0.7903  0.4080
15654TIP3    H268378   1.214   6.256   4.467  2.9161 -1.0789 -0.1426
15655TIP3   OH268379   3.160   5.963   4.761  0.6657 -0.3909  0.3471
15655TIP3    H168380   3.102   5.985   4.833 -1.1507 -2.1522 -0.4731
15655TIP3    H268381   3.104   5.964   4.684  1.7257 -1.9751 -0.5083
15656TIP3   OH268382   6.525   0.112  11.701  0.0777 -0.0949  0.2183
15656TIP3    H168383   6.476   0.188  11.732  3.6334  2.5979 -0.1214
15656TIP3    H268384   6.552   0.135  11.612  3.5588 -0.3238  1.0400
15657TIP3   OH268385   1.218   4.802  14.840  0.0789 -0.1398  0.1055
15657TIP3    H168386   1.205   4.867  14.909 -0.0653 -0.1668  0.1042
15657TIP3    H268387   1.187   4.720  14.879 -0.5452 -0.0478 -0.1932
15658TIP3   OH268388   1.331   6.848   0.832 -0.0497 -0.1210 -0.4826
15658TIP3    H168389   1.248   6.837   0.877  0.4970  1.0745  0.8671
15658TIP3    H268390   1.331   6.939   0.803  0.2115 -0.4898 -1.7139
15659TIP3   OH268391   4.312   1.369   0.903  0.0598  0.2520  0.1181
15659TIP3    H168392   4.381   1.381   0.838 -0.7054  1.4014 -0.5111
15659TIP3    H268393   4.271   1.286   0.880  1.9652 -1.0928  1.2352
15660TIP3   OH268394   2.636   5.555  14.707 -0.6666  0.4091  0.0079
15660TIP3    H168395   2.609   5.529  14.795  0.9849  1.9278  1.0447
15660TIP3    H268396   2.702   5.491  14.682  0.2426  1.0167  0.7332
15661TIP3   OH268397   6.918   5.899   2.818  0.6484 -0.2506 -0.6416
15661TIP3    H168398   6.976   5.956   2.868 -1.4426  1.7075 -0.2980
15661TIP3    H268399   6.906   5.944   2.734 -0.3423 -0.6136 -0.7110
15662TIP3   OH268400   1.905   5.649   3.137 -0.2085  0.3197  0.7178
15662TIP3    H168401   1.895   5.608   3.223 -3.2287 -1.9298 -0.5141
15662TIP3    H268402   1.826   5.702   3.126 -0.6750 -0.6646 -1.2083
15663TIP3   OH268403   6.229   6.559   4.224 -0.7968 -0.0230 -0.0512
15663TIP3    H168404   6.278   6.635   4.256 -1.8744  0.2323  1.0932
15663TIP3    H268405   6.261   6.545   4.135  0.4645  0.8683  0.2377
15664TIP3   OH268406   4.978   6.139   6.411  0.4684 -0.0142 -0.0918
15664TIP3    H168407   4.968   6.210   6.348 -0.0290  0.6886  0.7409
15664TIP3    H268408   4.894   6.138   6.458 -0.4909 -2.6967 -1.6032
15665TIP3   OH268409   2.633   0.597  12.425 -0.3269 -0.3921 -0.0868
15665TIP3    H168410   2.561   0.655  12.400 -0.6044 -0.7588 -0.1422
15665TIP3    H268411   2.601   0.509  12.405  1.0028 -0.4331 -2.3651
15666TIP3   OH268412   0.185   1.834   3.605 -0.5944 -0.2159 -0.0962
15666TIP3    H168413   0.253   1.773   3.576  0.8345 -0.4539  3.2576
15666TIP3    H268414   0.192   1.908   3.546  1.0485 -1.2146 -1.2158
15667TIP3   OH268415   3.729   2.738   1.731 -0.6041 -0.0812  0.0780
15667TIP3    H168416   3.780   2.761   1.653  2.4281  1.5932  2.3529
15667TIP3    H268417   3.709   2.645   1.719 -0.4049  0.1288 -2.6980
15668TIP3   OH268418   1.875   0.603   0.027 -0.4808 -0.4503 -0.5528
15668TIP3    H168419   1.831   0.519   0.028  0.3318 -0.8966 -1.2614
15668TIP3    H268420   1.808   0.665  -0.003 -1.1043 -0.8117  0.0510
15669TIP3   OH268421   0.870   0.866  14.424 -0.1156 -0.1733  1.0377
15669TIP3    H168422   0.875   0.960  14.443 -2.3663  0.1960  0.1166
15669TIP3    H268423   0.795   0.836  14.476  0.2593 -1.3560  0.9113
15670TIP3   OH268424   1.036   6.777  14.427 -1.0057  0.1142 -0.0206
15670TIP3    H168425   0.976   6.818  14.365 -0.1651  1.7535  0.2141
15670TIP3    H268426   1.065   6.848  14.484 -0.3959 -1.0309  1.1506
15671TIP3   OH268427   5.100   3.733   0.659 -0.0598 -0.0068 -0.6642
15671TIP3    H168428   5.084   3.649   0.614  0.2095 -1.5262  1.8653
15671TIP3    H268429   5.012   3.766   0.678 -0.2352 -1.2461  0.8809
15672TIP3   OH268430   0.384   5.634   1.685  0.2954 -0.4847  0.0683
15672TIP3    H168431   0.307   5.597   1.727 -1.7802  2.4253 -0.9046
15672TIP3    H268432   0.457   5.583   1.720 -2.0534 -3.9801  0.3750
15673TIP3   OH268433   0.326   3.397   3.327  0.8347 -0.9079 -0.1292
15673TIP3    H168434   0.363   3.310   3.316 -0.9570 -1.5698 -1.4746
15673TIP3    H268435   0.241   3.382   3.369  0.8734  0.2685  0.4105
15674TIP3   OH268436   4.049   2.934   2.143  0.3245  0.3608 -0.1656
15674TIP3    H168437   4.031   2.869   2.075 -1.5008  0.3201  0.2909
15674TIP3    H268438   4.042   3.018   2.097  1.8447  0.2830 -0.5784
15675TIP3   OH268439   5.611   6.480   3.795 -0.0395 -0.2569 -0.3681
15675TIP3    H168440   5.519   6.453   3.784 -0.2369  0.6313 -0.9522
15675TIP3    H268441   5.659   6.427   3.732  0.0298 -1.5981  0.7650
15676TIP3   OH268442   0.956   2.139  11.914  0.4941 -0.4467 -0.3951
15676TIP3    H168443   0.963   2.121  11.821  0.3680 -2.4024 -0.0658
15676TIP3    H268444   0.908   2.064  11.950  1.0383 -0.0287  1.3189
15677TIP3   OH268445   4.281   6.721  13.270  0.2558  0.5684 -0.2788
15677TIP3    H168446   4.365   6.751  13.235  1.7860 -1.8006  1.1085
15677TIP3    H268447   4.261   6.642  13.220 -0.9306  0.8458 -0.2635
15678TIP3   OH268448   0.287   1.792   3.252  0.1110  0.2724 -0.3739
15678TIP3    H168449   0.318   1.703   3.268 -0.1688  0.2573  0.1122
15678TIP3    H268450   0.363   1.847   3.268 -0.5533  0.4452  3.0836
15679TIP3   OH268451   1.933   5.187   4.566 -0.1359 -0.3905 -0.5036
15679TIP3    H168452   2.005   5.219   4.512 -0.7600 -1.0422 -1.7773
15679TIP3    H268453   1.957   5.097   4.588 -1.2535 -1.1903 -2.3224
15680TIP3   OH268454   0.311   6.897   0.786 -0.0191 -0.3025  0.2175
15680TIP3    H168455   0.369   6.834   0.743 -1.1951 -2.3756  1.5051
15680TIP3    H268456   0.234   6.901   0.730 -0.5618 -1.1823  0.8810
15681TIP3   OH268457   1.721   5.474   0.130  0.1421  0.1314  0.1116
15681TIP3    H168458   1.802   5.494   0.178  0.8439 -1.0720 -0.5119
15681TIP3    H268459   1.732   5.516   0.045  0.5409 -0.7616 -0.3013
15682TIP3   OH268460   3.120   4.657   4.632 -0.0251 -0.6156 -0.6602
15682TIP3    H168461   3.108   4.667   4.726  1.7908 -2.5164 -0.1450
15682TIP3    H268462   3.191   4.718   4.610 -1.0948  0.5441 -1.0405
15683TIP3   OH268463   0.062   4.494   4.440 -0.0058 -0.0570 -0.0869
15683TIP3    H168464   0.011   4.549   4.499  0.4906  0.7420 -0.3931
15683TIP3    H268465   0.001   4.468   4.372 -0.8320 -1.7099  1.1907
15684TIP3   OH268466   6.401   4.490  12.712 -0.3694 -0.2250  0.1617
15684TIP3    H168467   6.344   4.413  12.706 -1.3605  0.4606  0.4241
15684TIP3    H268468   6.464   4.479  12.641  0.0632 -1.7066  0.7193
15685TIP3   OH268469   0.871   5.477  13.658 -0.1821 -0.2611  0.0162
15685TIP3    H168470   0.846   5.513  13.573  0.1794  0.2749  0.1294
15685TIP3    H268471   0.959   5.512  13.674  0.4109 -1.6337 -0.1098
15686TIP3   OH268472   1.758   0.180  13.746  0.9924 -0.0335 -0.2773
15686TIP3    H168473   1.698   0.149  13.678  0.7201 -1.7686  0.6827
15686TIP3    H268474   1.701   0.218  13.812  1.2096  1.1007 -0.7286
15687TIP3   OH268475   4.432   7.048   5.430 -0.0079 -0.0095  0.0371
15687TIP3    H168476   4.486   6.978   5.395 -0.0817  0.3593 -0.8177
15687TIP3    H268477   4.342   7.021   5.412 -0.1137 -0.4297  1.0977
15688TIP3   OH268478   0.208   4.359   5.640  0.3257  0.7571 -0.7139
15688TIP3    H168479   0.239   4.339   5.551  0.2232 -2.1810 -0.1864
15688TIP3    H268480   0.235   4.284   5.692 -0.2716  2.0784  1.6280
15689TIP3   OH268481   4.153   3.030  15.118  0.0783  0.1932  0.5553
15689TIP3    H168482   4.142   3.087  15.042 -1.2618  0.1241  0.6811
15689TIP3    H268483   4.115   2.946  15.091  0.5382 -0.1545  0.9515
15690TIP3   OH268484   3.860   1.617  14.050 -0.0756  0.3238  0.0268
15690TIP3    H168485   3.857   1.687  14.115 -0.9691  2.2993 -1.9700
15690TIP3    H268486   3.897   1.542  14.096  0.6209  1.9983  2.3874
15691TIP3   OH268487   4.064   4.623  15.585  0.1966  0.1425 -0.0711
15691TIP3    H168488   4.095   4.627  15.495 -2.6831  0.0131 -1.1576
15691TIP3    H268489   4.064   4.529  15.606 -1.2480 -0.0278 -0.7694
15692TIP3   OH268490   6.371   2.443  15.350  0.6970 -0.1965 -0.2926
15692TIP3    H168491   6.459   2.459  15.382  0.5872  0.4267 -0.2869
15692TIP3    H268492   6.318   2.433  15.428  0.5218  0.8083 -0.2703
15693TIP3   OH268493   4.347   2.955   1.555 -0.0554  0.2288  0.2773
15693TIP3    H168494   4.392   2.933   1.472 -1.7535 -0.5547 -0.4772
15693TIP3    H268495   4.356   2.875   1.608  0.0391  0.3246  0.4059
15694TIP3   OH268496   1.954   2.916  12.748  0.0210  0.7475  0.3955
15694TIP3    H168497   1.864   2.916  12.717  0.1494 -0.1254 -0.0055
15694TIP3    H268498   1.986   3.005  12.730 -0.5181  0.8320 -0.1758
15695TIP3   OH268499   6.255   0.771   2.221  0.5416  0.6041 -0.4945
15695TIP3    H168500   6.263   0.866   2.219  0.2272  0.6206 -1.2952
15695TIP3    H268501   6.327   0.742   2.278 -0.2427  1.4005  0.9530
15696TIP3   OH268502   1.034   5.048   4.975 -0.1138 -0.1293  0.0051
15696TIP3    H168503   1.019   5.077   4.885 -1.3368 -0.2763  0.1409
15696TIP3    H268504   1.050   4.954   4.967 -1.3012 -0.3426  0.0287
15697TIP3   OH268505   5.878   1.424   3.739  0.0747 -0.3350  0.3560
15697TIP3    H168506   5.830   1.345   3.716  0.4297 -0.2535 -0.7271
15697TIP3    H268507   5.851   1.489   3.673  2.0159 -0.4401 -0.6182
15698TIP3   OH268508   5.416   5.362  13.925  0.3787  0.1314  0.2606
15698TIP3    H168509   5.377   5.351  14.012 -0.3467 -0.4986 -0.1356
15698TIP3    H268510   5.506   5.331  13.936 -1.0786 -5.3447 -0.4032
15699TIP3   OH268511   1.631   1.433  10.907  0.3407  0.0235 -0.2482
15699TIP3    H168512   1.694   1.486  10.955 -0.7349  1.0220  0.0827
15699TIP3    H268513   1.560   1.493  10.885  0.5715 -0.5001 -2.7115
15700TIP3   OH268514   5.410   5.314  14.904  0.3659 -0.0893  0.2673
15700TIP3    H168515   5.325   5.273  14.918 -0.3170  1.5348  1.0710
15700TIP3    H268516   5.465   5.278  14.973  0.1003 -0.4943  0.2739
15701TIP3   OH268517   2.679   2.905  12.787  0.1554 -0.0283 -0.3589
15701TIP3    H168518   2.703   2.814  12.802  1.0700  0.3488  0.6330
15701TIP3    H268519   2.761   2.947  12.759  0.7908  1.2681  2.9598
15702TIP3   OH268520   2.270   5.084  13.852  0.5217  1.6204  0.0029
15702TIP3    H168521   2.249   5.177  13.841  0.1037  1.4361 -0.9125
15702TIP3    H268522   2.232   5.042  13.775 -0.3239  0.5207  0.9842
15703TIP3   OH268523   5.006   6.498  13.181  0.3288  1.1285  0.4781
15703TIP3    H168524   4.923   6.534  13.151 -0.0769 -1.7880 -2.4971
15703TIP3    H268525   5.069   6.569  13.168 -1.2830  2.6871  0.7660
15704TIP3   OH268526   0.254   0.339   3.768 -0.1865 -0.7673 -0.3557
15704TIP3    H168527   0.216   0.252   3.780 -1.8457  0.0185  0.6126
15704TIP3    H268528   0.297   0.335   3.683  0.3827 -2.7164 -0.0338
15705TIP3   OH268529   1.665   5.498   1.799  0.2216  0.0198 -0.5112
15705TIP3    H168530   1.659   5.403   1.789 -1.9943  0.0987 -0.2766
15705TIP3    H268531   1.606   5.533   1.732  0.1937  1.1909  0.0942
15706TIP3   OH268532   6.547   4.571   5.396  0.3063  0.1988 -0.4308
15706TIP3    H168533   6.603   4.648   5.390  0.4345  0.2204  0.8018
15706TIP3    H268534   6.606   4.497   5.383  0.3676  0.2628 -0.5227
15707TIP3   OH268535   0.858   6.442   3.273  0.3244  0.4840  0.1490
15707TIP3    H168536   0.953   6.452   3.264  0.4401 -0.5350  0.0373
15707TIP3    H268537   0.823   6.471   3.189  0.5089  1.1412  0.2939
15708TIP3   OH268538   3.295   2.287   1.139  0.3830  0.6738  0.2180
15708TIP3    H168539   3.217   2.341   1.154 -0.2069  0.2533 -1.1418
15708TIP3    H268540   3.368   2.344   1.160 -0.1681  2.4776 -2.3339
15709TIP3   OH268541   4.677   2.740  12.846  0.0285 -0.5600 -0.3207
15709TIP3    H168542   4.741   2.681  12.807  1.7894  0.6667  0.5719
15709TIP3    H268543   4.704   2.747  12.938 -1.4743 -0.0973  0.1161
15710TIP3   OH268544   5.989   4.598   5.198  0.5081  0.2269  0.2976
15710TIP3    H168545   5.996   4.564   5.109  0.1232  2.3363 -0.5997
15710TIP3    H268546   6.077   4.589   5.234  1.4217  1.8621 -1.3325
15711TIP3   OH268547   5.064   6.785   0.073  0.4116 -0.6539  0.0897
15711TIP3    H168548   5.034   6.757   0.159  0.8927  0.0479  0.5018
15711TIP3    H268549   5.006   6.742   0.011 -1.5980  0.8243  0.8550
15712TIP3   OH268550   4.698   4.725  13.642 -0.0723  0.3913  0.1217
15712TIP3    H168551   4.647   4.788  13.692 -0.1551  0.5240 -0.1304
15712TIP3    H268552   4.636   4.654  13.623  0.8118 -1.4672  3.3394
15713TIP3   OH268553   2.162   0.951   4.400 -0.0397 -0.4987 -0.0028
15713TIP3    H168554   2.233   0.974   4.340 -0.7136 -1.4206 -1.1974
15713TIP3    H268555   2.087   1.003   4.370  0.4320  1.6811  2.2068
15714TIP3   OH268556   0.271   0.661   5.346 -0.0567 -0.2664 -0.1824
15714TIP3    H168557   0.331   0.596   5.384  2.7416  2.6354  0.7726
15714TIP3    H268558   0.256   0.630   5.257  0.9980 -2.2969  0.2779
15715TIP3   OH268559   3.228   1.576   2.953  0.4319 -0.1409  0.0253
15715TIP3    H168560   3.159   1.592   2.887 -0.3627  0.9112  1.0667
15715TIP3    H268561   3.251   1.664   2.984  2.8837 -0.3874 -0.8710
15716TIP3   OH268562   2.462   6.561   2.033 -0.1602 -0.3461 -0.3694
15716TIP3    H168563   2.544   6.532   2.073  0.3864  0.8163 -0.5955
15716TIP3    H268564   2.400   6.568   2.106 -0.3888 -2.2723 -0.3517
15717TIP3   OH268565   4.801   7.022  11.125 -0.1853 -0.2040  0.3942
15717TIP3    H168566   4.798   7.027  11.221  1.2625 -0.5209  0.4895
15717TIP3    H268567   4.854   6.944  11.108 -0.7169 -0.3373 -0.6771
15718TIP3   OH268568   2.316   5.791   1.489 -0.4881 -0.1569  0.2075
15718TIP3    H168569   2.329   5.709   1.441 -0.1550 -0.1362  0.2567
15718TIP3    H268570   2.405   5.818   1.513 -0.5959  0.2327  0.1669
15719TIP3   OH268571   0.320   4.496   3.867  0.5025 -0.5234 -0.8309
15719TIP3    H168572   0.389   4.456   3.816  0.0087  1.1570 -2.9592
15719TIP3    H268573   0.276   4.423   3.910  3.3296 -1.6621  0.3805
15720TIP3   OH268574   5.358   5.140   0.612  0.0059  0.0511 -0.5767
15720TIP3    H168575   5.392   5.179   0.531 -0.7317  0.4291 -0.7153
15720TIP3    H268576   5.281   5.193   0.634  1.7082  1.7113  1.8947
15721TIP3   OH268577   2.071   2.326   5.799 -0.4478  0.2367 -0.7801
15721TIP3    H168578   1.990   2.372   5.823 -1.4773 -1.9027  0.0942
15721TIP3    H268579   2.138   2.368   5.853 -1.1395  1.4000 -0.7804
15722TIP3   OH268580   2.463   2.438   0.971  0.1709  0.0468  0.0841
15722TIP3    H168581   2.497   2.522   0.942 -1.5584  0.5562 -0.5843
15722TIP3    H268582   2.448   2.449   1.065 -0.1199  0.5136 -0.0138
15723TIP3   OH268583   2.946   3.148   4.947 -0.5875  0.0194 -0.2440
15723TIP3    H168584   2.897   3.067   4.954 -0.7985 -0.1104 -2.5302
15723TIP3    H268585   2.884   3.212   4.912  0.4721  0.1952 -1.9293
15724TIP3   OH268586   3.385   1.124  10.555 -0.0273  0.6443  0.6610
15724TIP3    H168587   3.326   1.151  10.484 -0.3155 -1.6468 -0.0643
15724TIP3    H268588   3.382   1.196  10.618 -2.3256  1.3355 -0.1390
15725TIP3   OH268589   3.034   3.688   4.057  0.5086  0.2753  0.1232
15725TIP3    H168590   3.018   3.705   4.150 -1.7902 -1.9191  0.2479
15725TIP3    H268591   3.129   3.678   4.051  0.6509 -0.4489  2.4522
15726TIP3   OH268592   3.198   5.748   2.030 -0.6616 -0.0282 -0.0386
15726TIP3    H168593   3.265   5.716   1.970  0.0293 -1.1386  1.2731
15726TIP3    H268594   3.242   5.817   2.080 -0.4349 -0.8013  0.8664
15727TIP3   OH268595   6.090   6.223   3.100  0.1150  0.1844  0.1549
15727TIP3    H168596   6.040   6.286   3.048 -1.6279 -1.0795  0.2233
15727TIP3    H268597   6.106   6.268   3.183 -0.0464  0.9700 -0.2266
15728TIP3   OH268598   5.313   4.206   5.068  1.3636 -0.0497 -0.5419
15728TIP3    H168599   5.276   4.242   4.987 -0.3064  0.0672  0.2272
15728TIP3    H268600   5.384   4.265   5.091  0.3841  1.2448 -0.7259
15729TIP3   OH268601   0.042   0.324   5.535  0.1832  0.5511  0.2114
15729TIP3    H168602   0.133   0.301   5.556  0.2469  1.1711  0.6235
15729TIP3    H268603   0.041   0.420   5.534 -0.5117  0.5495  0.4002
15730TIP3   OH268604   3.722   3.562  10.013  0.2966 -0.3786  0.5142
15730TIP3    H168605   3.669   3.624   9.963 -1.3151  0.6611  3.3120
15730TIP3    H268606   3.803   3.609  10.031  0.4429 -0.3663 -0.1316
15731TIP3   OH268607   1.664   6.417   2.100  0.3299  0.0098 -0.1435
15731TIP3    H168608   1.729   6.350   2.080 -1.5687 -1.1598 -2.9900
15731TIP3    H268609   1.655   6.468   2.019 -0.4046  1.8416  1.0134
15732TIP3   OH268610   4.260   5.934   5.424  0.5725  0.2393 -0.1838
15732TIP3    H168611   4.268   5.862   5.361  2.8083  0.4609 -0.2216
15732TIP3    H268612   4.206   5.899   5.495  0.4313 -0.9713 -0.8763
15733TIP3   OH268613   3.071   5.169   1.926  0.0900  0.7288 -0.2443
15733TIP3    H168614   3.130   5.119   1.982  1.1207  2.1787  0.0183
15733TIP3    H268615   3.099   5.148   1.837 -1.4279 -1.4307 -0.2899
15734TIP3   OH268616   4.444   1.294   5.414 -0.2496  0.4350  0.3346
15734TIP3    H168617   4.413   1.297   5.323 -0.5363 -2.3313  0.2685
15734TIP3    H268618   4.537   1.274   5.407 -0.2949  0.1151  0.6605
15735TIP3   OH268619   2.380   1.417   2.040 -0.0244  0.6705 -0.0450
15735TIP3    H168620   2.405   1.338   2.088 -1.7005  0.7865  1.1112
15735TIP3    H268621   2.464   1.459   2.018  0.8646 -0.8490  0.2765
15736TIP3   OH268622   4.115   2.607  15.394  0.5686  0.4876 -0.2217
15736TIP3    H168623   4.141   2.515  15.392  0.6464  0.4140  2.0101
15736TIP3    H268624   4.195   2.656  15.378  0.5401  0.1940 -1.3349
15737TIP3   OH268625   4.674   3.136   0.731  0.0053  0.0752  0.3963
15737TIP3    H168626   4.710   3.111   0.816  0.0778  1.6175  0.8477
15737TIP3    H268627   4.750   3.136   0.672  0.4462  1.4251  0.9145
15738TIP3   OH268628   0.155   1.552   5.210 -0.0226  0.3274  0.3192
15738TIP3    H168629   0.134   1.463   5.181  1.0903 -0.6039  2.1601
15738TIP3    H268630   0.202   1.591   5.137  3.0030 -2.0441  0.7794
15739TIP3   OH268631   4.426   6.372   1.773 -0.7127  0.4143  0.2498
15739TIP3    H168632   4.501   6.429   1.791 -0.2793 -0.0359 -0.1015
15739TIP3    H268633   4.440   6.341   1.684 -0.1895 -1.3500  0.9019
15740TIP3   OH268634   4.314   2.416   3.790  0.1085 -0.7697  0.0831
15740TIP3    H168635   4.221   2.428   3.810 -0.0360 -1.1444 -0.3599
15740TIP3    H268636   4.345   2.356   3.858  0.5779  1.1282  1.6403
15741TIP3   OH268637   1.887   5.734   4.876 -0.2683  0.0112 -0.3440
15741TIP3    H168638   1.966   5.742   4.823  0.0662  0.0595  0.1522
15741TIP3    H268639   1.838   5.815   4.858 -0.7720 -0.5451 -1.5421
15742TIP3   OH268640   5.534   5.558  14.990 -0.6936  0.8416 -0.5324
15742TIP3    H168641   5.490   5.476  14.968  0.1524  0.1244  0.3865
15742TIP3    H268642   5.608   5.563  14.930  1.1103 -0.6920  1.3724
15743TIP3   OH268643   2.479   1.826   1.103  0.2579 -0.2338 -0.1026
15743TIP3    H168644   2.481   1.767   1.028  0.0802  1.0004 -1.1113
15743TIP3    H268645   2.496   1.769   1.178  0.4707 -1.4971 -1.0643
15744TIP3   OH268646   2.791   5.333  13.945  0.1173  0.1849  0.0650
15744TIP3    H168647   2.835   5.317  14.029 -1.1493  0.0489  0.7231
15744TIP3    H268648   2.826   5.267  13.886 -1.2349 -1.7857  1.3426
15745TIP3   OH268649   1.399   5.133   0.739  0.3261  0.4842  0.0498
15745TIP3    H168650   1.317   5.182   0.749  0.5993  0.8563  0.5238
15745TIP3    H268651   1.391   5.060   0.801 -0.5047 -0.6748 -1.3709
15746TIP3   OH268652   0.663   1.041  14.106 -0.7300  0.3388 -0.4971
15746TIP3    H168653   0.700   0.988  14.035  0.5776  1.5816 -0.7886
15746TIP3    H268654   0.629   0.977  14.168  0.0458 -0.8214 -1.2258
15747TIP3   OH268655   5.364   3.481   3.720  0.4388  0.5156 -0.5746
15747TIP3    H168656   5.398   3.416   3.781  0.2099 -1.0583 -2.0458
15747TIP3    H268657   5.408   3.461   3.637  0.0891  2.0343 -1.1671
15748TIP3   OH268658   2.498   7.116   4.338  0.1017  0.5580 -0.2338
15748TIP3    H168659   2.455   7.168   4.270 -0.5497  1.6086  0.9436
15748TIP3    H268660   2.427   7.073   4.384  0.6056 -0.9360 -0.8125
15749TIP3   OH268661   6.524   0.659   3.059 -0.4339 -0.3206 -0.0578
15749TIP3    H168662   6.514   0.564   3.065 -4.2293 -0.0970 -0.7101
15749TIP3    H268663   6.550   0.675   2.968 -1.7533 -0.6749 -0.5153
15750TIP3   OH268664   1.063   5.718  15.305  0.2851 -0.2796  0.2448
15750TIP3    H168665   1.010   5.690  15.379  1.5182 -3.2593  0.1279
15750TIP3    H268666   1.026   5.671  15.230  0.9309  0.3253 -0.4736
15751TIP3   OH268667   1.617   1.922  12.077 -0.1580  0.6528  0.0787
15751TIP3    H168668   1.557   1.856  12.112  0.1911 -0.2274 -0.9168
15751TIP3    H268669   1.620   1.903  11.983  3.1770 -0.5940  0.3135
15752TIP3   OH268670   2.561   1.756  12.913  0.0551  0.5656 -0.3977
15752TIP3    H168671   2.523   1.709  12.838  0.0284 -1.3328  0.7335
15752TIP3    H268672   2.655   1.737  12.907  0.0511  0.4097  0.0395
15753TIP3   OH268673   1.967   2.199   0.209  0.4247  0.3136  0.0690
15753TIP3    H168674   1.999   2.209   0.299 -0.0163  1.1274  0.1451
15753TIP3    H268675   1.976   2.105   0.191  1.7989  0.3479  0.4698
15754TIP3   OH268676   1.662   2.478  15.339 -0.5790  0.5454 -0.2305
15754TIP3    H168677   1.692   2.434  15.418 -0.0178  0.2138 -0.6196
15754TIP3    H268678   1.592   2.422  15.304 -0.1727  0.1874 -0.4820
15755TIP3   OH268679   3.882   3.752   5.819  0.0172  0.4741  0.4142
15755TIP3    H168680   3.808   3.807   5.796 -0.1718 -0.2814 -0.9236
15755TIP3    H268681   3.875   3.677   5.760  1.8722  0.4079  0.2306
15756TIP3   OH268682   3.762   6.876   5.219 -0.3132  0.0562 -0.4289
15756TIP3    H168683   3.688   6.910   5.270  1.0471  2.3638  0.1833
15756TIP3    H268684   3.748   6.910   5.131 -0.6392 -0.6302 -0.6501
15757TIP3   OH268685   2.765   2.254   2.347 -0.1846  0.0101  0.5980
15757TIP3    H168686   2.792   2.188   2.411  1.0963 -1.3271 -1.2026
15757TIP3    H268687   2.673   2.235   2.331 -0.0787 -0.7287  0.8187
15758TIP3   OH268688   6.662   5.520  13.100  0.4271  0.3029  0.4674
15758TIP3    H168689   6.585   5.568  13.070  0.8668 -0.1491 -1.5875
15758TIP3    H268690   6.730   5.587  13.109  0.1375  0.5261  0.9814
15759TIP3   OH268691   3.373   4.713   1.330  0.0139  0.4994  0.1047
15759TIP3    H168692   3.465   4.690   1.320  0.1703  1.5136 -0.9703
15759TIP3    H268693   3.347   4.672   1.413  1.3501 -0.0134  0.2936
15760TIP3   OH268694   6.910   6.512   1.650 -0.8193  0.2951  0.0190
15760TIP3    H168695   6.896   6.578   1.718 -1.9003  0.8455 -0.7132
15760TIP3    H268696   6.822   6.489   1.620 -0.3982 -0.6075 -0.5714
15761TIP3   OH268697   3.953   3.644  10.946 -0.9987  0.4571  0.1728
15761TIP3    H168698   4.045   3.622  10.929 -1.3341 -0.5812 -0.4090
15761TIP3    H268699   3.920   3.671  10.860 -0.6274  3.3048  0.8360
15762TIP3   OH268700   6.095   1.248   5.419  0.5174 -0.3568  0.5250
15762TIP3    H168701   6.074   1.194   5.496  1.2033 -0.1762  0.8479
15762TIP3    H268702   6.072   1.337   5.446  0.4145 -0.3428  0.3889
15763TIP3   OH268703   0.746   3.459   1.897  0.0551 -0.4814  0.1608
15763TIP3    H168704   0.760   3.553   1.894  1.5395 -0.6841 -0.6579
15763TIP3    H268705   0.695   3.444   1.977 -0.7796  1.0594 -0.0594
15764TIP3   OH268706   0.045   3.889   9.563  0.5374 -0.1507  0.7682
15764TIP3    H168707   0.044   3.794   9.568  1.4959 -0.2611 -0.4486
15764TIP3    H268708   0.133   3.910   9.531 -0.8763  0.8575 -3.0659
15765TIP3   OH268709   0.611   2.476   3.180 -0.0946 -0.0954  0.5195
15765TIP3    H168710   0.523   2.485   3.143  0.3623  0.2230 -0.5293
15765TIP3    H268711   0.667   2.460   3.104  0.4068 -3.1188  1.3837
15766TIP3   OH268712   3.550   5.603   3.391  0.2545  0.1226 -0.1605
15766TIP3    H168713   3.534   5.671   3.325  0.0068  1.7640  1.5182
15766TIP3    H268714   3.646   5.595   3.394  0.2575 -0.6742 -1.3467
15767TIP3   OH268715   4.957   3.307  13.025  0.0092 -0.0504  0.1537
15767TIP3    H168716   4.983   3.215  13.025 -0.0210 -0.0621 -0.3233
15767TIP3    H268717   4.865   3.305  13.050 -0.4260 -0.2937 -1.3492
15768TIP3   OH268718   3.551   4.064  13.154  0.3379 -0.0738  0.1399
15768TIP3    H168719   3.611   4.133  13.123 -0.2550  0.2197 -0.3657
15768TIP3    H268720   3.609   3.996  13.188  1.1112 -0.9121 -2.5834
15769TIP3   OH268721   5.642   6.559   4.368  0.3319 -0.4708 -0.1441
15769TIP3    H168722   5.579   6.586   4.302 -0.3800  1.9879  1.3934
15769TIP3    H268723   5.624   6.467   4.383 -2.1036 -0.1393 -0.6375
15770TIP3   OH268724   4.120   2.461  12.622  0.3738 -0.2054 -0.7962
15770TIP3    H168725   4.145   2.548  12.652 -3.0805  0.1570  1.7016
15770TIP3    H268726   4.129   2.406  12.700 -2.3482 -0.8284 -0.8109
15771TIP3   OH268727   3.785   1.410   0.704  0.4281  0.0176 -0.0632
15771TIP3    H168728   3.744   1.478   0.757 -0.0592  0.2075 -0.6813
15771TIP3    H268729   3.878   1.434   0.703  0.2063  0.8967 -0.5943
15772TIP3   OH268730   4.891   3.160   5.307 -0.8650 -0.0823  0.2397
15772TIP3    H168731   4.980   3.156   5.340 -1.4098  1.0191  1.9856
15772TIP3    H268732   4.861   3.069   5.307  0.1607 -0.4374 -0.1646
15773TIP3   OH268733   2.234   4.047  11.278  0.4196 -0.0758 -0.3170
15773TIP3    H168734   2.310   4.100  11.303  0.0474 -0.0872  0.8800
15773TIP3    H268735   2.167   4.111  11.254  0.2036 -0.0086  0.4407
15774TIP3   OH268736   3.909   4.013   1.351 -0.0994 -0.1077  0.1221
15774TIP3    H168737   3.865   3.965   1.422 -0.1084  0.8081  0.7601
15774TIP3    H268738   3.999   3.980   1.352 -0.2245 -0.4538  0.2315
15775TIP3   OH268739   1.591   5.046   5.420  0.1314 -0.2328  0.6878
15775TIP3    H168740   1.556   5.018   5.335 -2.0581  0.8915  1.1381
15775TIP3    H268741   1.571   5.139   5.424  3.5880  0.6307  0.9254
15776TIP3   OH268742   4.773   4.624   2.341 -0.0205  0.2177 -0.2335
15776TIP3    H168743   4.828   4.698   2.314  0.4951 -0.2943 -0.5969
15776TIP3    H268744   4.823   4.546   2.316  0.0902 -0.2778  1.4259
15777TIP3   OH268745   2.808   0.090   4.761 -0.1543  0.1722 -0.1166
15777TIP3    H168746   2.840   0.078   4.671  1.1325  0.5439  0.2681
15777TIP3    H268747   2.843   0.014   4.808  0.8722  0.9800  0.4803
15778TIP3   OH268748   1.507   5.880  15.607 -0.2838  0.4016  0.3335
15778TIP3    H168749   1.513   5.852  15.698 -0.7049  0.9217  0.5271
15778TIP3    H268750   1.573   5.829  15.561  0.3848  0.6144  1.0509
15779TIP3   OH268751   6.365   3.302  10.150  0.4585 -0.0733  0.1657
15779TIP3    H168752   6.391   3.287  10.059  0.5800  0.6383  0.0775
15779TIP3    H268753   6.443   3.277  10.201  0.9165  0.9255 -0.0239
15780TIP3   OH268754   0.841   4.372   5.098  0.1772  0.2037 -0.8577
15780TIP3    H168755   0.761   4.413   5.066 -1.0276 -0.5863  0.9800
15780TIP3    H268756   0.879   4.438   5.157 -0.8433 -0.5827  0.7419
15781TIP3   OH268757   1.918   0.350   1.020  0.4139 -0.2313  0.4425
15781TIP3    H168758   1.918   0.269   0.970  1.4675  0.3620 -0.5724
15781TIP3    H268759   1.988   0.339   1.085 -0.1727 -0.5456  1.0319
15782TIP3   OH268760   3.083   2.267   3.383  0.1592  0.0234  0.6542
15782TIP3    H168761   3.122   2.273   3.296 -1.3123  1.1972  0.0253
15782TIP3    H268762   3.156   2.247   3.442  1.7217  2.1175 -0.4455
15783TIP3   OH268763   6.341   5.570  13.651  0.9196  0.0514 -0.4255
15783TIP3    H168764   6.419   5.592  13.601  0.4080  0.3792 -1.0894
15783TIP3    H268765   6.289   5.515  13.592  0.5923 -0.0740 -0.0296
15784TIP3   OH268766   6.661   3.727   5.675  0.1881  0.0529  0.7271
15784TIP3    H168767   6.687   3.818   5.684  1.4112 -0.2959  0.8697
15784TIP3    H268768   6.633   3.701   5.763  0.5090  0.0902  0.8401
15785TIP3   OH268769   5.057   5.630   3.222 -0.2429 -0.7022 -0.1496
15785TIP3    H168770   4.963   5.645   3.214 -0.5107 -1.3993  1.4355
15785TIP3    H268771   5.066   5.566   3.292  1.3699 -1.3939 -0.9349
15786TIP3   OH268772   4.170   0.334   4.568 -0.7641 -0.2568  0.1335
15786TIP3    H168773   4.173   0.374   4.655  0.0406  1.6440 -0.7128
15786TIP3    H268774   4.113   0.390   4.517  0.5901  0.0184 -1.1651
15787TIP3   OH268775   2.923   1.930  13.331  0.4689 -0.2435  0.3593
15787TIP3    H168776   2.841   1.885  13.311  0.6422 -0.4651  0.1455
15787TIP3    H268777   2.897   2.021  13.343  0.4855  0.1245 -1.9534
15788TIP3   OH268778   0.713   4.008  14.360 -0.1454  0.0221 -0.2532
15788TIP3    H168779   0.767   4.022  14.437 -0.4086 -1.0739  0.1399
15788TIP3    H268780   0.636   4.063  14.375  0.9873  1.9221 -1.0079
15789TIP3   OH268781   3.143   3.949   2.935  0.4135  0.3527 -0.0452
15789TIP3    H168782   3.191   4.012   2.989  1.6489  0.6152 -1.3719
15789TIP3    H268783   3.108   3.886   2.997  0.4800  1.4733  1.1834
15790TIP3   OH268784   6.550   2.088   3.984 -0.6290 -0.1303 -0.5826
15790TIP3    H168785   6.495   2.075   4.061  0.4287 -0.7502  0.0874
15790TIP3    H268786   6.639   2.070   4.014  0.1191  1.9383 -1.3445
15791TIP3   OH268787   5.072   5.525   0.731 -0.5928 -0.2774  0.5277
15791TIP3    H168788   5.029   5.525   0.816 -0.6158 -2.5987  0.5796
15791TIP3    H268789   5.164   5.542   0.750 -0.9741  1.7796  0.7119
15792TIP3   OH268790   7.117   0.846   0.732  0.1955  0.1267  0.2873
15792TIP3    H168791   7.173   0.869   0.658 -0.9348  0.3575 -0.5268
15792TIP3    H268792   7.029   0.841   0.695 -0.3688  0.0009  1.5752
15793TIP3   OH268793   1.900   0.244  14.931 -0.2810  0.0108 -0.5945
15793TIP3    H168794   1.841   0.186  14.978 -0.2883  0.9965  0.6576
15793TIP3    H268795   1.846   0.320  14.909  0.4533  0.8295  0.3858
15794TIP3   OH268796   0.666   5.118  15.167  0.8495  0.2459  0.0588
15794TIP3    H168797   0.738   5.059  15.189  0.7042  0.5154  1.2912
15794TIP3    H268798   0.605   5.112  15.240 -0.9047 -0.7036 -1.4005
15795TIP3   OH268799   6.956   4.086  12.821 -0.5153  0.4003 -0.2741
15795TIP3    H168800   6.879   4.142  12.816 -0.7134  0.3394  1.5140
15795TIP3    H268801   6.968   4.069  12.914  1.7661  0.5443 -0.4690
15796TIP3   OH268802   6.397   4.182  15.251  0.1853 -0.7816 -0.3570
15796TIP3    H168803   6.400   4.234  15.170 -0.2590 -0.0657  0.0677
15796TIP3    H268804   6.308   4.196  15.285  0.7705  0.0546  0.9509
15797TIP3   OH268805   5.961   6.496  13.653  0.5429 -0.7872  0.7472
15797TIP3    H168806   6.041   6.444  13.655 -0.3597 -2.2710  0.4721
15797TIP3    H268807   5.974   6.565  13.718  2.4783 -0.2879 -0.1213
15798TIP3   OH268808   2.731   2.760   2.476 -0.5774 -0.0486  0.5534
15798TIP3    H168809   2.798   2.707   2.518 -1.3788  0.2792  2.3759
15798TIP3    H268810   2.719   2.835   2.535 -1.0224  1.0084 -0.8261
15799TIP3   OH268811   5.815   2.556   0.321 -0.1760  0.0360 -0.7562
15799TIP3    H168812   5.870   2.601   0.386 -0.5268  1.2417 -1.2531
15799TIP3    H268813   5.821   2.612   0.243 -2.4780  0.4912 -0.6830
15800TIP3   OH268814   4.855   2.238   1.436 -0.2546 -0.0094 -1.0260
15800TIP3    H168815   4.826   2.160   1.483  1.8455  0.5963  1.5370
15800TIP3    H268816   4.829   2.223   1.345 -0.7380 -3.2498 -0.4648
15801TIP3   OH268817   0.166   3.786   4.128 -0.1073 -0.1093  0.7414
15801TIP3    H168818   0.079   3.779   4.168 -1.1331  2.8106 -0.7068
15801TIP3    H268819   0.226   3.793   4.203 -1.2475 -0.7252  1.7597
15802TIP3   OH268820   1.717   4.763   3.731  0.5949  0.4192  0.3114
15802TIP3    H168821   1.798   4.730   3.694  1.1323  0.1376  1.7083
15802TIP3    H268822   1.653   4.693   3.717  1.3634 -0.6567  1.9416
15803TIP3   OH268823   6.858   2.848   0.772 -0.5295  0.3963 -0.1133
15803TIP3    H168824   6.808   2.770   0.798 -1.0691  1.0157  0.7840
15803TIP3    H268825   6.948   2.818   0.766 -0.9321 -0.6767 -1.4311
15804TIP3   OH268826   2.964   1.962   2.800 -0.4691  0.6142  0.0378
15804TIP3    H168827   2.903   1.958   2.874  1.4233 -0.7203  1.6483
15804TIP3    H268828   2.979   1.871   2.776 -0.2463  0.9874 -1.3237
15805TIP3   OH268829   5.935   6.237   5.645  0.1631  0.6385  0.3449
15805TIP3    H168830   5.855   6.197   5.679  0.6164 -0.0258  0.6463
15805TIP3    H268831   5.987   6.164   5.613  0.5536  1.0892 -0.0690
15806TIP3   OH268832   1.962   0.135   2.893  0.1013 -0.0423 -0.0091
15806TIP3    H168833   2.009   0.212   2.862  0.3038 -0.5129 -0.9239
15806TIP3    H268834   2.030   0.079   2.931  0.1658 -0.3612 -0.5845
15807TIP3   OH268835   1.780   2.197  12.078  0.0875  0.2630  0.6972
15807TIP3    H168836   1.714   2.128  12.084 -1.2625  0.9344 -3.2159
15807TIP3    H268837   1.732   2.278  12.095 -0.1522  0.7140 -1.7172
15808TIP3   OH268838   3.972   7.060  11.999  0.0850  0.1598  0.2160
15808TIP3    H168839   3.924   7.014  12.068  0.1838  1.7033  1.3619
15808TIP3    H268840   4.046   7.003  11.978 -0.9094 -1.1416  0.1119
15809TIP3   OH268841   4.893   3.287   5.714  0.4203  0.5490  0.1844
15809TIP3    H168842   4.859   3.324   5.633 -0.6067 -1.0437 -0.1496
15809TIP3    H268843   4.900   3.362   5.774  0.1046  1.5467 -0.9944
15810TIP3   OH268844   5.284   2.971  15.497  0.3594  0.2953 -0.3310
15810TIP3    H168845   5.245   2.913  15.432  1.1525 -0.5855 -0.0286
15810TIP3    H268846   5.353   2.920  15.538 -0.9044  0.3971  2.0840
15811TIP3   OH268847   5.378   1.867   2.797  0.0298 -0.1853  0.2615
15811TIP3    H168848   5.418   1.782   2.778 -0.2171 -0.2570  0.0579
15811TIP3    H268849   5.291   1.862   2.757  0.1907  0.3373 -0.1670
15812TIP3   OH268850   6.812   5.525  13.331  0.3646  0.1950  0.4853
15812TIP3    H168851   6.834   5.613  13.301  1.3028  0.5028  2.0111
15812TIP3    H268852   6.743   5.496  13.270 -0.1929  2.0863  0.1489
15813TIP3   OH268853   3.143   1.451   3.219  0.4756  0.7016  0.6903
15813TIP3    H168854   3.060   1.442   3.172  0.5673 -0.7932  0.7767
15813TIP3    H268855   3.202   1.494   3.157 -0.0577  0.8272  0.2612
15814TIP3   OH268856   6.331   3.242   9.603  0.1610 -0.0289 -0.1228
15814TIP3    H168857   6.243   3.278   9.605 -0.0175 -0.4554 -0.2453
15814TIP3    H268858   6.321   3.154   9.566  0.5541 -0.3087  0.4099
15815TIP3   OH268859   5.096   2.098   2.624 -0.2308  0.1001  0.1025
15815TIP3    H168860   5.165   2.105   2.558 -1.1262  1.2849 -0.7727
15815TIP3    H268861   5.070   2.006   2.621  2.6133 -0.8738  1.9026
15816TIP3   OH268862   0.931   3.061  11.652 -0.2628  0.3762 -0.0457
15816TIP3    H168863   0.928   2.966  11.660  1.7584  0.4254  3.1425
15816TIP3    H268864   0.864   3.093  11.712  0.7910  0.9034  0.9002
15817TIP3   OH268865   6.739   1.019   3.845 -0.5044  0.2556 -1.0002
15817TIP3    H168866   6.760   0.979   3.761  0.3118  0.8842 -1.1056
15817TIP3    H268867   6.804   0.984   3.906  0.4498  1.6625 -1.1739
15818TIP3   OH268868   6.245   2.036   4.527  0.2953 -0.1821  0.4202
15818TIP3    H168869   6.289   1.978   4.465  2.8266  2.2492 -0.2516
15818TIP3    H268870   6.208   2.105   4.473 -3.5827 -1.4773  1.0970
15819TIP3   OH268871   4.241   6.673  11.370 -0.0750  0.1085  0.1477
15819TIP3    H168872   4.238   6.689  11.276 -1.6263  1.1762  0.3392
15819TIP3    H268873   4.262   6.759  11.408  1.5828 -0.5298  0.7482
15820TIP3   OH268874   2.917   0.955  11.902  0.2232 -0.2979 -0.2169
15820TIP3    H168875   2.869   0.911  11.973 -0.8140 -0.8333 -1.2242
15820TIP3    H268876   2.960   0.884  11.855  1.4817  0.1217  0.2557
15821TIP3   OH268877   2.757   1.640  15.319  0.2473  0.8347  0.1448
15821TIP3    H168878   2.751   1.735  15.311 -0.7990  0.9045  1.4552
15821TIP3    H268879   2.667   1.609  15.312  0.3371  0.1260  1.6796
15822TIP3   OH268880   2.700   4.898   3.778 -0.0268 -0.7412 -0.1082
15822TIP3    H168881   2.718   4.990   3.762  1.2049 -0.6094  1.7902
15822TIP3    H268882   2.775   4.852   3.740 -0.5819 -0.9804 -0.9482
15823TIP3   OH268883   1.700   0.756   3.739 -0.1456 -0.1557 -0.2778
15823TIP3    H168884   1.668   0.834   3.694 -0.1403  0.2305  0.3780
15823TIP3    H268885   1.643   0.686   3.709 -0.3350  0.1512 -0.6454
15824TIP3   OH268886   1.459   3.391  13.980 -0.4574 -0.4119 -0.0282
15824TIP3    H168887   1.443   3.302  14.013 -0.0385 -0.4844 -0.0139
15824TIP3    H268888   1.498   3.378  13.893  0.4977 -0.2651  0.3696
15825TIP3   OH268889   0.409   5.167   0.062 -0.5017  0.2351  0.4016
15825TIP3    H168890   0.396   5.075   0.036  0.7210 -0.0295  0.6934
15825TIP3    H268891   0.501   5.172   0.088 -0.7907  1.3308  1.2787
15826TIP3   OH268892   5.458   2.387   5.221 -0.0863 -0.3406 -0.2796
15826TIP3    H168893   5.490   2.344   5.301  1.4943 -0.2352 -0.8186
15826TIP3    H268894   5.474   2.480   5.237  2.1000 -0.4508 -1.4435
15827TIP3   OH268895   6.399   2.371   0.443  0.5282 -0.0327 -0.3759
15827TIP3    H168896   6.324   2.421   0.410  0.8378  0.2356 -0.6811
15827TIP3    H268897   6.473   2.431   0.437  0.7367 -0.2403  0.0851
15828TIP3   OH268898   0.425   6.742   0.329  0.2500  0.2754  0.2824
15828TIP3    H168899   0.358   6.696   0.277  1.7659 -2.0754  0.2603
15828TIP3    H268900   0.493   6.764   0.266 -0.4230  2.7029  0.3020
15829TIP3   OH268901   4.936   0.540  10.490 -0.8086 -0.0922 -0.3723
15829TIP3    H168902   4.963   0.626  10.459 -0.0876 -0.4730 -0.8166
15829TIP3    H268903   5.012   0.507  10.538 -0.8638 -0.7357 -0.7252
15830TIP3   OH268904   4.018   1.144   5.459 -0.0061 -0.6604 -0.1722
15830TIP3    H168905   4.090   1.154   5.521 -0.2862  0.8536 -0.0390
15830TIP3    H268906   3.978   1.231   5.456 -0.8427 -1.0697 -1.4454
15831TIP3   OH268907   2.252   2.995  12.010 -0.1383 -0.4574 -0.1612
15831TIP3    H168908   2.164   3.023  11.985 -0.4095 -0.3916  0.8376
15831TIP3    H268909   2.308   3.070  11.987 -0.5577  0.0836  0.5383
15832TIP3   OH268910   5.991   5.670   1.788  0.3057 -0.2542  0.4445
15832TIP3    H168911   5.998   5.653   1.882 -0.7647  1.3486  0.8509
15832TIP3    H268912   5.987   5.583   1.748  0.6075 -0.9567  1.8946
15833TIP3   OH268913   2.416   6.019   2.737 -0.2584 -0.1507 -0.0136
15833TIP3    H168914   2.479   6.043   2.668 -0.4855 -0.8341 -0.4615
15833TIP3    H268915   2.346   5.973   2.691 -0.9615  0.3617  0.5232
15834TIP3   OH268916   4.924   2.799   1.087  0.0217 -0.4032 -0.5962
15834TIP3    H168917   5.017   2.820   1.085  0.6666 -2.4698  1.7093
15834TIP3    H268918   4.921   2.705   1.103 -2.5138 -0.6278 -1.8226
15835TIP3   OH268919   7.035   0.701   4.159 -0.0534  0.2082 -0.2249
15835TIP3    H168920   7.120   0.712   4.202  0.7835 -0.0200 -1.7371
15835TIP3    H268921   7.025   0.606   4.152 -0.6887  0.2216  0.3932
15836TIP3   OH268922   3.706   1.229  14.063  0.0735 -0.2845  0.2145
15836TIP3    H168923   3.667   1.227  14.151 -0.4107 -1.7079 -0.0152
15836TIP3    H268924   3.792   1.189  14.074  0.1584 -0.1384  0.0934
15837TIP3   OH268925   6.035   1.638   4.835  0.1716 -0.5529  0.1277
15837TIP3    H168926   6.100   1.612   4.901  0.6190 -0.0134 -0.0964
15837TIP3    H268927   5.966   1.572   4.843  1.0285 -1.5048 -0.0590
15838TIP3   OH268928   4.178   3.982   4.331  0.2182 -0.0338  0.0218
15838TIP3    H168929   4.270   3.969   4.309  0.7601  3.6219 -0.6069
15838TIP3    H268930   4.180   4.025   4.417 -0.8256  0.5212 -0.2095
15839TIP3   OH268931   3.498   0.074   2.149 -0.3733  0.2957 -0.3722
15839TIP3    H168932   3.555   0.026   2.089  0.8733  0.4336  0.6696
15839TIP3    H268933   3.424   0.101   2.095  0.8066  0.5868 -1.9048
15840TIP3   OH268934   3.386   5.671   4.289  0.4471 -0.5160 -0.6765
15840TIP3    H168935   3.410   5.763   4.292  0.8643 -0.5197 -2.5250
15840TIP3    H268936   3.430   5.632   4.365  0.7543  0.6902 -0.2207
15841TIP3   OH268937   5.879   6.194   1.622 -0.0240  0.6831  0.4217
15841TIP3    H168938   5.955   6.252   1.613 -0.8377  1.6706 -0.4394
15841TIP3    H268939   5.820   6.241   1.682 -0.1316  0.1207  0.7615
15842TIP3   OH268940   4.543   1.636  10.530  0.1368  0.3255  0.4662
15842TIP3    H168941   4.511   1.584  10.604  2.2605 -0.9468  0.5896
15842TIP3    H268942   4.565   1.721  10.569 -1.0491  0.5248  0.7610
15843TIP3   OH268943   6.319   4.678   3.217  0.9093 -0.0511  0.4038
15843TIP3    H168944   6.297   4.654   3.127  1.0776  2.1427 -0.2819
15843TIP3    H268945   6.411   4.654   3.227  0.0431 -3.5115  1.2220
15844TIP3   OH268946   1.186   6.360   4.279 -0.1371  0.2207 -0.1207
15844TIP3    H168947   1.229   6.403   4.352  1.0917 -0.0574 -0.6513
15844TIP3    H268948   1.150   6.432   4.226  0.0991  0.4819  0.0756
15845TIP3   OH268949   5.997   6.728   0.648  0.0873 -1.0215  0.1801
15845TIP3    H168950   5.976   6.795   0.712  0.7101 -1.9866  1.4460
15845TIP3    H268951   6.071   6.764   0.599  0.2253 -0.6613  0.6454
15846TIP3   OH268952   4.617   2.330   4.576  0.4872 -0.3435  1.1329
15846TIP3    H168953   4.663   2.413   4.563 -0.2704  0.1938  1.8032
15846TIP3    H268954   4.630   2.310   4.669 -0.7200 -0.1232  1.3581
15847TIP3   OH268955   6.003   1.246  12.866 -0.1890 -0.3398  0.5560
15847TIP3    H168956   5.981   1.199  12.946 -0.7334  0.6294  1.0067
15847TIP3    H268957   6.048   1.325  12.897  2.3549 -1.3667 -0.2580
15848TIP3   OH268958   6.386   6.478  13.514  0.0612 -0.5884  0.5179
15848TIP3    H168959   6.419   6.464  13.603  0.8206  0.0718  0.3510
15848TIP3    H268960   6.412   6.568  13.493 -0.5641 -0.5619 -0.1829
15849TIP3   OH268961   1.675   6.151   1.057 -0.4683 -0.1322 -0.1990
15849TIP3    H168962   1.606   6.110   1.108 -0.1356 -0.5459 -0.0697
15849TIP3    H268963   1.734   6.078   1.034  0.1106  0.2659  0.0024
15850TIP3   OH268964   2.878   4.800  14.065 -0.1264 -1.0102 -0.1327
15850TIP3    H168965   2.922   4.813  13.981  0.6010 -0.6152  0.3008
15850TIP3    H268966   2.797   4.850  14.058  0.9032  0.7643  0.1477
15851TIP3   OH268967   2.498   2.468   1.954 -0.0478  0.3547  0.3977
15851TIP3    H168968   2.456   2.469   1.868  0.4047  0.6420  0.1788
15851TIP3    H268969   2.576   2.522   1.944  0.1989  0.1015  0.8932
15852TIP3   OH268970   4.815   0.961   4.822  0.6179  0.1276  0.3226
15852TIP3    H168971   4.891   1.020   4.819 -0.1093  1.1314  1.1958
15852TIP3    H268972   4.830   0.908   4.900  0.2963  0.5158  0.6527
15853TIP3   OH268973   5.048   3.905   5.737 -0.0638  0.1578  0.1060
15853TIP3    H168974   5.013   3.950   5.815 -0.0447  0.8946 -0.2969
15853TIP3    H268975   5.055   3.814   5.763  2.5046  0.7669  1.9112
15854TIP3   OH268976   6.688   5.978   0.516  0.3404 -0.1099  0.5003
15854TIP3    H168977   6.763   6.026   0.551  2.4018 -0.1927 -3.2719
15854TIP3    H268978   6.641   6.043   0.464  1.0068 -1.1691 -1.5617
15855TIP3   OH268979   5.739   6.172   3.959  0.3156 -0.1256  0.0127
15855TIP3    H168980   5.825   6.164   4.000  0.5042  0.6657 -0.2192
15855TIP3    H268981   5.757   6.179   3.865  0.0312  0.4957 -0.0012
15856TIP3   OH268982   1.014   5.376  12.033  0.0136 -0.1991  0.4441
15856TIP3    H168983   1.028   5.341  12.121  0.3392 -0.3327  0.3392
15856TIP3    H268984   1.099   5.368  11.990  0.7499  2.6408  1.0899
15857TIP3   OH268985   0.458   3.773   1.189  0.6366 -0.2355 -0.4231
15857TIP3    H168986   0.525   3.707   1.168 -0.6315 -1.6348 -0.2494
15857TIP3    H268987   0.432   3.808   1.104 -0.5793 -1.9270 -0.7856
15858TIP3   OH268988   5.075   2.241   3.970  0.0206  0.5176  0.3095
15858TIP3    H168989   5.158   2.272   3.933  1.5447 -0.6757  2.4832
15858TIP3    H268990   5.093   2.152   3.999 -1.9047  0.3757  1.2428
15859TIP3   OH268991   1.414   4.133   3.476  0.2553 -0.0036  0.1597
15859TIP3    H168992   1.493   4.133   3.531  0.9903  0.2310 -0.8550
15859TIP3    H268993   1.399   4.225   3.456  2.0394 -0.2252 -2.7870
15860TIP3   OH268994   0.701   3.998  10.543  0.4905  0.7546 -0.2150
15860TIP3    H168995   0.636   3.962  10.603 -0.0852  1.6730 -0.2603
15860TIP3    H268996   0.669   4.086  10.523  2.1087  1.5277  0.3275
15861TIP3   OH268997   0.274   3.776  13.970  0.3110 -0.7236 -0.9889
15861TIP3    H168998   0.215   3.724  14.024  0.1331  3.2314  3.2762
15861TIP3    H268999   0.362   3.751  13.999  0.3347 -0.4577 -0.8281
15862TIP3   OH269000   2.967   2.938  13.819 -0.3100 -0.7973  0.0577
15862TIP3    H169001   3.012   2.935  13.903 -3.2451  0.3205  1.8175
15862TIP3    H269002   2.978   3.027  13.788  2.7355 -1.7553 -2.0764
15863TIP3   OH269003   6.849   4.611  14.327  0.2033  0.5245 -0.2848
15863TIP3    H169004   6.809   4.552  14.391 -0.9323  0.8689 -0.6569
15863TIP3    H269005   6.808   4.695  14.343  0.2187  0.7108 -1.1944
15864TIP3   OH269006   4.679   0.965  12.509 -0.0835  0.0733  0.7266
15864TIP3    H169007   4.744   1.036  12.512 -2.2070  2.1319  2.8075
15864TIP3    H269008   4.720   0.897  12.455  2.8312  2.1251  0.0937
15865TIP3   OH269009   4.591   6.265   2.307 -0.2246  0.1743 -0.1240
15865TIP3    H169010   4.647   6.275   2.385  0.3112 -0.0809 -0.4661
15865TIP3    H269011   4.608   6.176   2.277 -1.2662 -0.1141  0.0974
15866TIP3   OH269012   0.162   5.269   1.495  0.2988 -0.4925 -0.6026
15866TIP3    H169013   0.199   5.353   1.470  0.4405 -0.5324 -0.5254
15866TIP3    H269014   0.077   5.290   1.532  1.3428 -0.1361  1.7721
15867TIP3   OH269015   0.583   3.601   3.980  0.0373  0.3114 -0.5408
15867TIP3    H169016   0.550   3.511   3.980  0.3807  0.1851 -0.8184
15867TIP3    H269017   0.545   3.640   4.059  0.3923 -0.2693 -0.0720
15868TIP3   OH269018   6.284   5.693   5.428  0.0029  0.1925  0.0199
15868TIP3    H169019   6.380   5.698   5.427  0.1443 -0.0317  3.3015
15868TIP3    H269020   6.264   5.610   5.385  1.1696  0.6092 -1.4418
15869TIP3   OH269021   1.116   6.612   4.188 -0.1351  0.4151  0.2038
15869TIP3    H169022   1.175   6.659   4.247  0.9528  0.0189 -0.5325
15869TIP3    H269023   1.046   6.579   4.244  1.2163 -0.5278  1.4049
15870TIP3   OH269024   1.817   2.162   1.754  0.0264  0.7043 -0.5412
15870TIP3    H169025   1.864   2.080   1.736 -0.9560  0.1253 -0.5699
15870TIP3    H269026   1.864   2.200   1.828  0.9365  0.4844 -0.9803
15871TIP3   OH269027   1.317   4.054   5.082 -0.6814  0.0694  0.3263
15871TIP3    H169028   1.305   4.074   4.989 -2.3685 -0.5146  0.3887
15871TIP3    H269029   1.374   3.977   5.083 -0.8952 -0.0982 -0.2459
15872TIP3   OH269030   1.480   3.003   3.409 -0.5367  0.3217  0.6897
15872TIP3    H169031   1.467   3.006   3.504 -4.3699  1.4919  0.3188
15872TIP3    H269032   1.526   3.085   3.389 -0.6673  0.5936  1.4551
15873TIP3   OH269033   0.224   6.868  12.431 -0.0361  0.3332  0.0339
15873TIP3    H169034   0.150   6.851  12.373 -0.1501  1.3567 -0.1475
15873TIP3    H269035   0.298   6.823  12.389 -0.1490  0.9435 -0.8448
15874TIP3   OH269036   1.774   3.142  15.453  0.3476 -0.0744 -0.3612
15874TIP3    H169037   1.685   3.164  15.478  0.0214 -1.1573 -0.5352
15874TIP3    H269038   1.802   3.215  15.398 -0.8295 -0.2495 -1.2184
15875TIP3   OH269039   1.557   6.428   3.871 -0.1567 -0.0954 -0.1415
15875TIP3    H169040   1.490   6.360   3.878  1.3539 -1.4940  2.4743
15875TIP3    H269041   1.634   6.383   3.837  1.4640 -0.3774  3.4116
15876TIP3   OH269042   5.752   3.063   5.635 -0.2190  0.2798 -0.9322
15876TIP3    H169043   5.803   2.983   5.646 -1.7192 -0.6598 -0.5603
15876TIP3    H269044   5.789   3.124   5.699  0.3285 -0.4160 -0.5714
15877TIP3   OH269045   4.056   5.708   5.862  0.4183 -0.2750 -0.1752
15877TIP3    H169046   3.981   5.750   5.904  1.4098 -0.9480  2.4093
15877TIP3    H269047   4.020   5.627   5.824 -0.3805  0.0463 -0.1245
15878TIP3   OH269048   4.884   6.746  15.317 -0.2364 -0.3937 -0.4899
15878TIP3    H169049   4.959   6.750  15.258  0.9870  0.9272  1.0531
15878TIP3    H269050   4.810   6.776  15.264  1.3514  3.8189 -0.7047
15879TIP3   OH269051   4.802   2.965   0.923  0.4503 -0.2210  0.8523
15879TIP3    H169052   4.840   2.906   0.988  0.6973 -0.8979  0.0970
15879TIP3    H269053   4.846   2.943   0.841  1.0147  1.4483  0.6662
15880TIP3   OH269054   6.486   6.532   1.928 -0.3355 -0.0383 -0.1077
15880TIP3    H169055   6.425   6.464   1.956 -0.1096 -1.1995 -2.2613
15880TIP3    H269056   6.431   6.597   1.884 -0.1831 -0.5136 -1.0220
15881TIP3   OH269057   6.622   0.157   1.976 -0.6205  0.3899  0.9378
15881TIP3    H169058   6.579   0.072   1.966 -1.3522  0.6332  1.8752
15881TIP3    H269059   6.626   0.192   1.887  0.6007 -1.0321  0.3943
15882TIP3   OH269060   5.078   2.475  13.562 -0.0362 -0.1469 -0.0178
15882TIP3    H169061   5.046   2.553  13.516 -0.1159 -0.8829 -1.2505
15882TIP3    H269062   5.004   2.445  13.614  0.4138  1.4006  1.6440
15883TIP3   OH269063   3.271   0.456  15.361 -0.6399  0.3650 -0.7422
15883TIP3    H169064   3.328   0.391  15.402 -1.0747 -0.0291 -0.7563
15883TIP3    H269065   3.226   0.497  15.434  1.1776  2.1654 -0.5389
15884TIP3   OH269066   2.207   5.757  15.106  0.4801 -0.6535 -0.6790
15884TIP3    H169067   2.215   5.702  15.184 -2.3297 -0.9401 -0.4925
15884TIP3    H269068   2.177   5.842  15.139  1.7204  0.0659 -1.2785
15885TIP3   OH269069   2.443   3.313  14.278 -0.4381 -0.0414  0.2962
15885TIP3    H169070   2.401   3.317  14.192 -0.4010  1.1283  0.3281
15885TIP3    H269071   2.372   3.293  14.338 -0.5734 -0.2262  0.0766
15886TIP3   OH269072   5.747   4.957   1.443 -0.1480  0.0529  0.3547
15886TIP3    H169073   5.677   4.896   1.465 -1.0881  0.4497 -1.3256
15886TIP3    H269074   5.821   4.902   1.419 -0.9747 -0.4717 -1.1090
15887TIP3   OH269075   5.352   6.425   2.080  0.0935  0.1625  0.9956
15887TIP3    H169076   5.384   6.460   1.998 -1.1280 -2.6938 -0.8693
15887TIP3    H269077   5.405   6.346   2.095 -0.6046 -0.0995  2.2116
15888TIP3   OH269078   2.255   5.606   2.028  0.2571  0.0555  0.0390
15888TIP3    H169079   2.252   5.601   1.933  0.4329 -1.4583  0.0830
15888TIP3    H269080   2.185   5.547   2.057  0.5305  0.1157  0.8414
15889TIP3   OH269081   6.367   2.085   4.183 -0.1153 -0.0364  0.5785
15889TIP3    H169082   6.275   2.077   4.159  0.6209 -2.9352 -1.9770
15889TIP3    H269083   6.371   2.050   4.273 -1.6552  1.7376  1.3993
15890TIP3   OH269084   2.400   5.848  10.976  0.2761  0.2603  0.0902
15890TIP3    H169085   2.382   5.754  10.984  0.2198  0.4107  2.2441
15890TIP3    H269086   2.454   5.855  10.898 -1.4961 -1.2896 -1.3875
15891TIP3   OH269087   2.302   1.403  12.907 -0.4539 -0.6027  0.2647
15891TIP3    H169088   2.349   1.436  12.984 -0.7183 -0.0964  0.2132
15891TIP3    H269089   2.232   1.466  12.893 -1.0625 -1.2666  0.2528
15892TIP3   OH269090   0.949   0.910   1.473  0.1077 -0.3325  0.3017
15892TIP3    H169091   0.915   0.979   1.530  0.5583  0.7945 -0.7321
15892TIP3    H269092   0.913   0.829   1.508 -1.5330  0.5593  0.7736
15893TIP3   OH269093   0.879   5.586   0.688  0.1969 -0.0436 -0.2297
15893TIP3    H169094   0.964   5.587   0.643 -0.9270  0.2008 -2.5058
15893TIP3    H269095   0.836   5.667   0.658 -0.9880 -0.3551  0.5731
15894TIP3   OH269096   3.381   2.877  13.959  0.2497 -0.3515  0.2266
15894TIP3    H169097   3.444   2.871  14.031  0.2490 -0.0448  0.2542
15894TIP3    H269098   3.304   2.919  13.998 -0.2911 -1.4590  0.4008
15895TIP3   OH269099   5.328   6.207   5.994  0.7453  0.3929  0.0414
15895TIP3    H169100   5.419   6.237   5.987  1.7482 -2.7192 -3.2313
15895TIP3    H269101   5.301   6.191   5.903 -1.8864 -1.9843  1.0995
15896TIP3   OH269102   2.301   3.710   2.017 -0.5486 -0.0195  0.8683
15896TIP3    H169103   2.261   3.796   2.008  0.5158  0.5978  1.8550
15896TIP3    H269104   2.269   3.676   2.101 -1.6547 -0.9869  0.0914
15897TIP3   OH269105   3.538   4.045   9.540 -0.1654 -0.2932  0.0927
15897TIP3    H169106   3.588   4.117   9.502 -1.5096 -0.2931 -1.7859
15897TIP3    H269107   3.485   4.087   9.609 -0.8828  0.5304 -0.9346
15898TIP3   OH269108   6.916   3.864   0.438  0.1918 -0.1624 -0.0459
15898TIP3    H169109   6.929   3.802   0.510 -2.2601 -0.8205 -0.0652
15898TIP3    H269110   6.955   3.822   0.362  2.3590  0.3141  0.7348
15899TIP3   OH269111   1.942   3.558  13.005  0.1222  0.6066  0.3888
15899TIP3    H169112   1.924   3.624  13.073  1.8030  1.2545  0.2661
15899TIP3    H269113   1.875   3.572  12.939 -1.1984  0.3595  1.6187
15900TIP3   OH269114   2.917   2.475   4.324  0.0542 -0.3294 -0.2604
15900TIP3    H169115   2.955   2.456   4.410  2.1569  0.5997 -0.9160
15900TIP3    H269116   2.841   2.529   4.342 -0.4215 -1.3978  1.0772
15901TIP3   OH269117   4.283   6.239   5.200 -0.3631  0.1443  0.1106
15901TIP3    H169118   4.354   6.290   5.240  0.5140 -1.5883  0.9134
15901TIP3    H269119   4.297   6.249   5.106  0.6363  0.2885  0.2577
15902TIP3   OH269120   0.116   2.460   0.186 -0.2339 -0.2522 -0.1182
15902TIP3    H169121   0.056   2.404   0.137 -0.5368 -1.2515  1.3101
15902TIP3    H269122   0.077   2.547   0.182  0.8428  0.2092 -3.3539
15903TIP3   OH269123   4.402   3.369   4.275  0.1098  0.2613  0.5032
15903TIP3    H169124   4.493   3.341   4.267  0.1844  0.5396  0.3802
15903TIP3    H269125   4.363   3.349   4.190  0.1630  0.5308  0.4155
15904TIP3   OH269126   0.001   2.096   1.149 -0.1317  0.3187 -0.3953
15904TIP3    H169127  -0.072   2.035   1.159 -0.4135  0.6624 -0.3171
15904TIP3    H269128   0.015   2.130   1.237  1.5695 -1.3673  0.0432
15905TIP3   OH269129   7.029   6.136   2.255  0.2352  0.0515 -0.1237
15905TIP3    H169130   7.109   6.107   2.211 -0.7523 -1.5838 -0.9669
15905TIP3    H269131   6.978   6.178   2.186  0.1803  0.7171  0.3147
15906TIP3   OH269132   3.058   1.210   3.626 -0.5011  0.3026 -0.0120
15906TIP3    H169133   3.052   1.206   3.531  0.0539 -0.3408 -0.0257
15906TIP3    H269134   2.993   1.276   3.652 -2.1269 -0.9617 -0.6916
15907TIP3   OH269135   6.309   3.587  15.159 -0.4500 -0.4666  0.0757
15907TIP3    H169136   6.316   3.682  15.155  0.4798 -0.5199  0.2556
15907TIP3    H269137   6.353   3.556  15.079 -0.2697 -0.7597  0.2878
15908TIP3   OH269138   6.071   5.117   4.810  0.0306  0.3084 -0.1358
15908TIP3    H169139   5.981   5.095   4.786 -0.0091 -1.1370  1.1683
15908TIP3    H269140   6.073   5.213   4.810 -0.8773  0.3706 -2.2966
15909TIP3   OH269141   0.222   0.440   2.114 -0.2635  0.3416  0.1389
15909TIP3    H169142   0.245   0.502   2.044 -0.9040 -1.5459 -1.8398
15909TIP3    H269143   0.148   0.390   2.079  0.3117 -1.6547  1.5922
15910TIP3   OH269144   4.923   3.170  13.551 -0.0849 -0.3820 -0.2594
15910TIP3    H169145   4.948   3.189  13.460  0.4359 -0.9698 -0.2445
15910TIP3    H269146   4.850   3.108  13.543  1.1530 -1.8950 -0.2829
15911TIP3   OH269147   4.235   4.997   2.526  0.3533 -0.2569 -0.0749
15911TIP3    H169148   4.307   5.035   2.576  0.0217 -0.0349  0.2403
15911TIP3    H269149   4.160   5.053   2.545  0.2192 -0.1610 -0.8334
15912TIP3   OH269150   3.712   1.038   4.881  0.0394 -0.5801 -0.0604
15912TIP3    H169151   3.803   1.031   4.850 -1.2884 -0.9396 -4.6482
15912TIP3    H269152   3.674   0.953   4.860 -1.6515 -0.0530  0.7582
15913TIP3   OH269153   5.679   3.960  15.161 -0.2164  0.6606  0.1802
15913TIP3    H169154   5.663   4.011  15.082  1.4147  2.3713  0.8860
15913TIP3    H269155   5.749   3.899  15.137  0.1515  1.0573  0.2195
15914TIP3   OH269156   5.070   3.151   2.628 -0.4580 -0.1265 -0.5984
15914TIP3    H169157   5.115   3.105   2.557  0.4610  0.0496 -0.1477
15914TIP3    H269158   5.048   3.236   2.591 -0.4097 -0.2079 -0.8183
15915TIP3   OH269159   0.438   0.981   1.706 -0.5468 -0.5241 -0.0007
15915TIP3    H169160   0.356   1.030   1.708  0.9956  2.3135 -0.8863
15915TIP3    H269161   0.499   1.035   1.755  1.2618 -1.6085 -0.9561
15916TIP3   OH269162   2.313   0.181   2.136  0.3434  0.7865  0.2727
15916TIP3    H169163   2.376   0.113   2.160 -0.1449 -0.0644 -0.8257
15916TIP3    H269164   2.252   0.184   2.210  0.5717  0.2995  0.4871
15917TIP3   OH269165   3.473   5.757   5.223  0.4458  0.6777  0.3440
15917TIP3    H169166   3.392   5.707   5.222  0.2012  0.7865  3.8063
15917TIP3    H269167   3.536   5.702   5.270  2.0158  1.1437 -1.1053
15918TIP3   OH269168   4.722   3.182   2.668 -0.1801 -1.4092  0.2466
15918TIP3    H169169   4.770   3.120   2.723  1.4517 -1.8872 -1.6172
15918TIP3    H269170   4.640   3.138   2.648 -0.5146 -1.4971  1.7139
15919TIP3   OH269171   1.428   0.958  11.136  0.1608 -0.0102  0.1073
15919TIP3    H169172   1.516   0.973  11.172  0.1800 -0.5970  0.3058
15919TIP3    H269173   1.410   1.037  11.085  2.2333 -1.3310 -2.8895
15920TIP3   OH269174   4.006   6.995   4.088 -0.2148 -0.5424 -0.0033
15920TIP3    H169175   4.050   7.019   4.169  0.0199 -2.8273  0.6149
15920TIP3    H269176   4.050   7.047   4.021  0.2898  0.6158  1.1765
15921TIP3   OH269177   3.751   1.110  15.404 -0.1837 -0.2466 -0.1684
15921TIP3    H169178   3.803   1.129  15.482  0.6121 -1.5420 -0.3488
15921TIP3    H269179   3.679   1.173  15.406  0.4979  0.5122  0.9645
15922TIP3   OH269180   1.676   6.950  10.704  0.1174 -0.1742 -0.2419
15922TIP3    H169181   1.731   6.995  10.640  0.5530  0.3255  0.4658
15922TIP3    H269182   1.590   6.990  10.693  0.7770  1.8048  1.2363
15923TIP3   OH269183   6.067   6.372   5.847 -0.3824 -0.1480  0.5273
15923TIP3    H169184   6.014   6.450   5.860 -0.7559 -0.3596  0.2884
15923TIP3    H269185   6.028   6.329   5.771  1.0693  0.4906 -0.6238
15924TIP3   OH269186   3.759   6.163  15.125  0.2571  0.9355 -0.0803
15924TIP3    H169187   3.753   6.216  15.204 -1.3585  1.7203 -0.6833
15924TIP3    H269188   3.668   6.140  15.104  0.7651 -0.4885 -0.9091
15925TIP3   OH269189   4.363   6.396   1.165  0.3740  0.2796 -0.1785
15925TIP3    H169190   4.420   6.394   1.088 -0.6561  0.0337 -0.9597
15925TIP3    H269191   4.275   6.400   1.129 -0.1182  0.4997  1.0043
15926TIP3   OH269192   5.196   6.871   4.776 -0.1789 -0.0392  0.3636
15926TIP3    H169193   5.232   6.933   4.712  2.6501 -0.5537  1.3352
15926TIP3    H269194   5.148   6.808   4.723 -3.2252  2.8385 -0.6676
15927TIP3   OH269195   1.894   1.249   4.097 -0.2301  0.3371 -0.1181
15927TIP3    H169196   1.937   1.211   4.173 -0.2531  3.0515  1.3607
15927TIP3    H269197   1.961   1.248   4.029 -0.1554 -1.9522 -0.1020
15928TIP3   OH269198   0.148   4.148  14.462  0.3032 -0.6953  0.6352
15928TIP3    H169199   0.148   4.100  14.379  2.3499  0.7246 -0.2631
15928TIP3    H269200   0.059   4.181  14.470  0.3463  0.1884 -1.6807
15929TIP3   OH269201   1.625   5.028  15.523  0.1699 -0.3598  0.3617
15929TIP3    H169202   1.698   4.966  15.518  1.1024  0.7510 -0.1468
15929TIP3    H269203   1.576   5.014  15.442  0.8637  0.1427 -0.1537
15930TIP3   OH269204   2.391   6.585   1.278  0.0057 -0.3121 -0.2528
15930TIP3    H169205   2.325   6.579   1.208 -1.8141 -0.2519  1.3836
15930TIP3    H269206   2.395   6.679   1.298 -0.9877 -0.5165  1.0419
15931TIP3   OH269207   0.000   2.817   4.297  0.8344 -0.5695 -0.3910
15931TIP3    H169208   0.014   2.902   4.339  0.9164 -0.2513 -1.0491
15931TIP3    H269209   0.038   2.754   4.358  0.3680 -0.1808  0.3201
15932TIP3   OH269210   1.679   1.012  15.302  0.0163 -0.1897 -0.2862
15932TIP3    H169211   1.633   0.938  15.263  0.1639 -0.0308 -0.7720
15932TIP3    H269212   1.717   1.058  15.228  0.9860 -0.3376  0.1069
15933TIP3   OH269213   2.488   4.557  12.060 -0.1098  0.1382  0.5946
15933TIP3    H169214   2.449   4.644  12.058 -1.8641 -0.6196 -0.9740
15933TIP3    H269215   2.577   4.571  12.094 -0.7291  2.3468  1.4446
15934TIP3   OH269216   2.234   0.756   5.556  0.6567  0.5182 -0.1749
15934TIP3    H169217   2.264   0.846   5.564  0.9869  0.4347 -0.4574
15934TIP3    H269218   2.290   0.718   5.488 -0.4317  0.4973 -1.0795
15935TIP3   OH269219   6.277   0.708   3.733  0.2864  0.2605  0.1899
15935TIP3    H169220   6.312   0.697   3.822  0.2540  0.8682  0.2842
15935TIP3    H269221   6.350   0.744   3.683  1.1815 -2.6031 -0.7376
15936TIP3   OH269222   4.915   1.746   0.126  0.2875  0.4956  0.2619
15936TIP3    H169223   4.940   1.665   0.081  0.1140  0.0091  1.0079
15936TIP3    H269224   4.871   1.716   0.206 -1.1748  1.3360 -0.2018
15937TIP3   OH269225   6.136   5.138   3.798  0.0965  0.2151 -0.1168
15937TIP3    H169226   6.189   5.058   3.791 -0.8264 -0.3350 -1.2794
15937TIP3    H269227   6.086   5.140   3.716  1.0041  2.6512 -0.7068
15938TIP3   OH269228   6.608   4.439   2.655  0.2668 -0.2151  0.4598
15938TIP3    H169229   6.563   4.435   2.739 -3.9013 -0.2119 -1.5261
15938TIP3    H269230   6.594   4.528   2.624  2.8384  0.1690  0.1900
15939TIP3   OH269231   6.606   0.130  14.011  0.1423  0.4071 -0.3073
15939TIP3    H169232   6.620   0.068  13.939 -1.1449 -1.0272  0.6212
15939TIP3    H269233   6.694   0.152  14.041  0.6837 -2.2890  0.3794
15940TIP3   OH269234   1.793   0.792  13.601  0.4085 -0.1830  0.6806
15940TIP3    H169235   1.768   0.882  13.620  0.0017 -0.2108  0.2988
15940TIP3    H269236   1.867   0.774  13.660  0.6099  0.4560  0.6302
15941TIP3   OH269237   6.046   6.836   1.787  0.9107 -0.1989  0.4348
15941TIP3    H169238   6.062   6.759   1.733 -0.6232 -0.5222  0.3947
15941TIP3    H269239   5.951   6.837   1.801  1.1028  0.6355  1.9960
15942TIP3   OH269240   6.702   4.898  11.436 -0.0749 -0.6133  0.0071
15942TIP3    H169241   6.661   4.949  11.507 -1.3811 -1.4502 -0.1148
15942TIP3    H269242   6.796   4.913  11.448 -0.2977 -0.1401  1.4605
15943TIP3   OH269243   4.975   0.986   4.029 -0.2890 -0.2948 -0.4166
15943TIP3    H169244   4.997   1.072   4.064  0.5565 -0.6273 -0.1196
15943TIP3    H269245   4.996   0.925   4.100 -1.0359 -0.7391 -0.5630
15944TIP3   OH269246   1.938   4.793  14.890  0.4179  0.5681 -0.2654
15944TIP3    H169247   1.962   4.788  14.982 -1.4701 -0.8469  0.2189
15944TIP3    H269248   1.990   4.865  14.855  0.6213  1.6300  2.0673
15945TIP3   OH269249   0.621   7.101   0.478  0.0999 -0.1504  0.0463
15945TIP3    H169250   0.689   7.094   0.411  1.0302 -2.2598  1.1115
15945TIP3    H269251   0.667   7.139   0.554 -0.1561 -0.5924  0.4293
15946TIP3   OH269252   1.888   5.562   3.907  0.3406  0.1213 -0.2005
15946TIP3    H169253   1.890   5.630   3.974 -1.2386  0.8598 -0.8597
15946TIP3    H269254   1.827   5.497   3.941 -0.2937  0.3890 -0.7963
15947TIP3   OH269255   0.608   2.020  14.732  0.5956 -0.3537 -0.2220
15947TIP3    H169256   0.639   1.953  14.792 -0.5968  1.7478  2.9925
15947TIP3    H269257   0.683   2.078  14.719  0.2288  0.4969  1.2712
15948TIP3   OH269258   4.579   0.007  15.053  0.5193 -0.0235  0.0579
15948TIP3    H169259   4.518  -0.036  14.994 -0.9625  0.4136  1.2091
15948TIP3    H269260   4.581  -0.050  15.130 -0.2143  1.1042  0.9409
15949TIP3   OH269261   3.066   7.089   1.799  0.6074 -0.1220 -0.7603
15949TIP3    H169262   2.981   7.051   1.820  0.6120 -0.2755 -1.0226
15949TIP3    H269263   3.046   7.167   1.747  0.6652 -0.7991 -1.8232
15950TIP3   OH269264   6.832   4.522   6.177 -0.4037 -0.1297 -0.0815
15950TIP3    H169265   6.910   4.546   6.128 -0.0245 -0.6042  0.2766
15950TIP3    H269266   6.840   4.428   6.191 -0.4576  0.0064  0.9591
15951TIP3   OH269267   3.487   6.093   4.028  0.0042  0.2619  0.4851
15951TIP3    H169268   3.511   6.057   4.113  0.4853 -0.2880  0.1262
15951TIP3    H269269   3.570   6.125   3.992 -0.2221  0.6262  0.2809
15952TIP3   OH269270   6.169   1.813   3.607  0.3585  0.2663 -0.0375
15952TIP3    H169271   6.235   1.832   3.674  1.4906  2.5505 -1.6304
15952TIP3    H269272   6.202   1.736   3.562  1.8505  1.2009 -0.6160
15953TIP3   OH269273   1.772   6.699   0.002 -0.3549 -0.4632  0.6237
15953TIP3    H169274   1.748   6.649  -0.077  0.4384  1.0216 -0.6046
15953TIP3    H269275   1.692   6.747   0.025 -1.0837 -2.1010  1.7345
15954TIP3   OH269276   1.337   0.461   9.616 -0.1027 -0.0378  0.4207
15954TIP3    H169277   1.427   0.436   9.635  0.2734 -0.1812 -1.4157
15954TIP3    H269278   1.343   0.516   9.538 -1.6193 -0.1528  0.1972
15955TIP3   OH269279   6.510   4.695   0.905 -0.4620 -0.1218 -0.4081
15955TIP3    H169280   6.552   4.614   0.932  0.2217  1.0088  2.2608
15955TIP3    H269281   6.416   4.679   0.917 -0.3879 -0.7746 -0.6787
15956TIP3   OH269282   7.046   1.719  15.362  0.0675 -0.3468 -0.0824
15956TIP3    H169283   6.979   1.713  15.294 -0.8719 -0.0455  0.7774
15956TIP3    H269284   6.996   1.717  15.444  1.0184  0.9227  0.5698
15957TIP3   OH269285   1.415   2.401   1.091  0.6026 -1.0362 -0.6220
15957TIP3    H169286   1.431   2.364   1.004 -0.8451 -0.2366 -1.2774
15957TIP3    H269287   1.382   2.489   1.073 -0.7890 -1.2498  0.6757
15958TIP3   OH269288   5.919   4.081  12.048  0.2000 -0.1659 -0.2829
15958TIP3    H169289   5.886   4.160  12.006  1.5771  1.0222  0.7558
15958TIP3    H269290   5.850   4.056  12.110 -0.7240 -0.4385 -1.4042
15959TIP3   OH269291   1.739   2.951   0.112 -0.5229  0.2156 -0.3234
15959TIP3    H169292   1.715   2.865   0.147 -0.0504  0.5499  0.8677
15959TIP3    H269293   1.660   2.981   0.067 -0.2987 -1.3697 -1.8669
15960TIP3   OH269294   0.481   3.596   5.194 -0.1904  0.5837  0.6147
15960TIP3    H169295   0.472   3.662   5.262  0.4600  0.2226  1.0719
15960TIP3    H269296   0.575   3.590   5.179 -0.3770  1.3246 -1.0048
15961TIP3   OH269297   2.306   7.122  13.267 -0.2377 -0.7563  0.3462
15961TIP3    H169298   2.359   7.158  13.338  0.4605  1.9363 -1.4260
15961TIP3    H269299   2.216   7.126  13.301  0.1171  0.0570  1.2409
15962TIP3   OH269300   2.988   4.031   4.435  0.1649  0.3127 -0.0925
15962TIP3    H169301   3.035   4.103   4.478 -1.6281  1.0693  0.7141
15962TIP3    H269302   2.996   3.958   4.497 -0.6859  0.7863  0.5881
15963TIP3   OH269303   2.437   3.741   0.332 -0.0090  0.7146  0.0469
15963TIP3    H169304   2.506   3.807   0.342  1.3805 -0.7756  0.6849
15963TIP3    H269305   2.474   3.675   0.274 -1.8717  1.0819 -1.6607
15964TIP3   OH269306   3.839   2.988   5.964 -0.4351 -0.5420 -0.3206
15964TIP3    H169307   3.903   2.931   5.921 -1.1472 -2.1910  0.7192
15964TIP3    H269308   3.862   3.076   5.935  0.9896 -1.3031 -1.6230
15965TIP3   OH269309   2.917   1.444   4.483  0.1703 -0.4227  0.1184
15965TIP3    H169310   2.885   1.364   4.525 -0.9754 -1.2105 -2.0886
15965TIP3    H269311   2.840   1.484   4.444  1.0424  0.6915 -0.5361
15966TIP3   OH269312   3.301   2.349  12.944  0.4248 -0.2342 -0.1619
15966TIP3    H169313   3.379   2.405  12.945 -0.6754  1.3864 -0.6032
15966TIP3    H269314   3.242   2.390  13.007 -1.2762  0.4438 -2.0983
15967TIP3   OH269315   6.544   4.123   4.781 -0.2553  0.1248 -0.6434
15967TIP3    H169316   6.476   4.168   4.730  0.7462 -0.0265 -2.1602
15967TIP3    H269317   6.497   4.089   4.857 -1.6788  0.9122 -1.1180
15968TIP3   OH269318   2.965   2.166   4.970 -0.3763 -0.4762 -0.1597
15968TIP3    H169319   3.020   2.238   4.999  1.1636 -1.0770 -1.4408
15968TIP3    H269320   2.881   2.208   4.950  0.6781  1.1565 -1.5476
15969TIP3   OH269321   1.998   3.603   5.121 -0.3018 -0.1903  0.1345
15969TIP3    H169322   2.032   3.579   5.207  0.5758  1.4557  0.3043
15969TIP3    H269323   2.072   3.589   5.062 -0.0384  1.1353  0.1093
15970TIP3   OH269324   0.705   5.292  14.338  0.6788  0.0240 -0.6458
15970TIP3    H169325   0.799   5.276  14.335  1.1605  0.5865  4.1782
15970TIP3    H269326   0.697   5.379  14.376 -1.7760 -0.5680  0.3609
15971TIP3   OH269327   6.088   2.160  12.694 -0.0993  0.0109 -0.0996
15971TIP3    H169328   6.121   2.178  12.782 -1.7702  1.2789  0.3192
15971TIP3    H269329   6.004   2.117  12.708 -0.2749  0.0146 -1.0872
15972TIP3   OH269330   3.793   3.963  14.151 -0.1093 -0.1596 -0.3921
15972TIP3    H169331   3.699   3.963  14.171  0.1076 -0.1778  0.6888
15972TIP3    H269332   3.820   3.873  14.164  0.3490  0.1328  0.8217
15973TIP3   OH269333   2.195   5.236   5.087 -0.3838 -0.2715  0.5058
15973TIP3    H169334   2.120   5.286   5.118  1.0241  2.6937 -0.4841
15973TIP3    H269335   2.241   5.210   5.168 -1.9129 -1.3274  1.0786
15974TIP3   OH269336   6.740   1.532   3.098 -0.2660 -0.0140 -0.1240
15974TIP3    H169337   6.677   1.599   3.069  2.8359  2.7548 -1.0758
15974TIP3    H269338   6.753   1.551   3.191 -0.4773 -0.2663 -0.0430
15975TIP3   OH269339   2.268   2.407   5.973 -0.0877  0.2707 -0.2512
15975TIP3    H169340   2.219   2.434   6.052  0.6408  1.3551 -0.1455
15975TIP3    H269341   2.300   2.320   5.994 -1.0259 -0.0076  0.1168
15976TIP3   OH269342   3.458   0.688   5.075  0.2150  0.0752  0.2608
15976TIP3    H169343   3.411   0.647   5.002 -2.1907  0.9673  1.2152
15976TIP3    H269344   3.463   0.620   5.142 -0.1045  0.1047  0.3148
15977TIP3   OH269345   0.414   0.685   4.585 -0.1218  0.1549  0.3747
15977TIP3    H169346   0.387   0.629   4.512 -1.4646  0.4900  0.5916
15977TIP3    H269347   0.447   0.624   4.651  0.9477 -0.1613 -0.4180
15978TIP3   OH269348   4.308   2.265  12.928 -0.3845 -0.0669  0.1591
15978TIP3    H169349   4.245   2.243  12.859  0.2345 -0.0069 -0.4389
15978TIP3    H269350   4.312   2.187  12.983 -1.3272  0.0976  0.4850
15979TIP3   OH269351   4.943   6.506   2.744 -0.3338 -0.5007 -0.3098
15979TIP3    H169352   4.886   6.582   2.755 -0.6699 -0.8610  0.4859
15979TIP3    H269353   5.027   6.544   2.715 -1.0448 -0.0040 -1.8657
15980TIP3   OH269354   5.951   3.219   2.838  0.3379  0.5728 -0.0621
15980TIP3    H169355   5.992   3.288   2.889  0.6088 -0.4436  1.1493
15980TIP3    H269356   6.003   3.215   2.757  2.1826 -0.1421  1.0891
15981TIP3   OH269357   2.203   3.385   5.235  0.6832  0.4380  0.8676
15981TIP3    H169358   2.249   3.383   5.151 -1.0681  0.7349 -0.1679
15981TIP3    H269359   2.161   3.299   5.241  0.0214  0.7608  0.9575
15982TIP3   OH269360   6.217   0.897   3.395  0.1367 -0.3143  0.2842
15982TIP3    H169361   6.157   0.905   3.469  0.2378  0.5898  0.2773
15982TIP3    H269362   6.241   0.987   3.373  0.0116 -0.5464 -0.9259
15983TIP3   OH269363   3.229   2.803   2.590 -0.3726  0.8665  0.1132
15983TIP3    H169364   3.170   2.786   2.663  2.8614 -2.5802  2.2760
15983TIP3    H269365   3.193   2.752   2.517 -0.7144 -0.2769  1.0530
15984TIP3   OH269366   4.148   4.924   4.197  0.2378 -0.6661 -0.6607
15984TIP3    H169367   4.076   4.923   4.260  0.7521  0.1929 -0.0431
15984TIP3    H269368   4.183   4.835   4.199 -1.0370 -1.2037 -1.2588
15985TIP3   OH269369   6.326   1.469   0.393  0.2013 -0.2516  0.3821
15985TIP3    H169370   6.318   1.431   0.305  0.6170  0.1122  0.1825
15985TIP3    H269371   6.253   1.529   0.399  0.7645  0.5149 -0.1307
15986TIP3   OH269372   5.898   5.912  15.466  0.1110  0.1964 -0.2012
15986TIP3    H169373   5.885   5.931  15.559 -0.3594 -1.4175  0.0966
15986TIP3    H269374   5.929   5.994  15.429 -0.1333  1.0020  1.2941
15987TIP3   OH269375   6.714   3.846   1.620  0.2650  0.2740 -0.1906
15987TIP3    H169376   6.725   3.754   1.643  0.4006  0.3533  0.0637
15987TIP3    H269377   6.764   3.894   1.686  0.0468  0.5400 -0.2166
15988TIP3   OH269378   1.091   0.787   2.432 -0.0399 -0.2278  0.4500
15988TIP3    H169379   1.093   0.869   2.382  2.2259 -0.5024 -0.0123
15988TIP3    H269380   1.082   0.815   2.523 -2.0035  0.3704  0.1170
15989TIP3   OH269381   1.211   0.340  13.894 -0.4064 -0.2058 -0.1907
15989TIP3    H169382   1.205   0.264  13.836 -0.0123 -0.3517 -0.0437
15989TIP3    H269383   1.236   0.412  13.837 -0.8660 -0.1693 -0.3450
15990TIP3   OH269384   1.631   2.656   2.889 -0.1529  0.6503 -0.0953
15990TIP3    H169385   1.638   2.561   2.903  0.0782  0.7895  0.8063
15990TIP3    H269386   1.596   2.664   2.800 -0.1430 -0.2790 -0.2013
15991TIP3   OH269387   0.837   6.229   1.851  0.4163 -0.6253 -0.3262
15991TIP3    H169388   0.903   6.257   1.915 -1.8175  1.0132  1.4376
15991TIP3    H269389   0.767   6.293   1.860 -0.7852 -1.3821 -3.2346
15992TIP3   OH269390   5.962   0.761   0.649 -0.5479  0.7463  0.4703
15992TIP3    H169391   6.033   0.820   0.622 -1.7797  1.9448 -0.2868
15992TIP3    H269392   5.979   0.744   0.741  0.2298  1.7561  0.5353
15993TIP3   OH269393   6.977   1.384   5.238 -0.5091  0.2169  0.1702
15993TIP3    H169394   7.053   1.333   5.264 -1.0123  0.0919  1.4451
15993TIP3    H269395   6.975   1.458   5.299 -0.9690  0.6426 -0.3445
15994TIP3   OH269396   1.626   3.984   0.497  0.5920  0.1887  0.4706
15994TIP3    H169397   1.710   4.016   0.528  0.0733  1.0464  1.0179
15994TIP3    H269398   1.563   4.011   0.564 -0.2105  0.0787 -0.2152
15995TIP3   OH269399   1.101   0.624   4.337  0.1469 -0.3233 -0.2385
15995TIP3    H169400   1.035   0.655   4.398  0.9121 -0.2832  0.5797
15995TIP3    H269401   1.052   0.570   4.274 -0.7255  0.0939  0.0707
15996TIP3   OH269402   1.008   6.923   4.849  0.6933  0.5023 -0.7295
15996TIP3    H169403   0.934   6.883   4.895  1.8470 -0.8554 -0.0003
15996TIP3    H269404   1.054   6.972   4.917  0.5489  1.2790 -1.1697
15997TIP3   OH269405   2.882   0.128   5.187  0.0118  0.4821  0.0992
15997TIP3    H169406   2.847   0.044   5.218  1.9776 -0.5150 -0.2314
15997TIP3    H269407   2.861   0.189   5.257 -1.2623 -0.3019  0.4522
15998TIP3   OH269408   2.823   4.574   2.837  0.3384 -0.3885  0.1622
15998TIP3    H169409   2.763   4.506   2.804  1.0952 -1.0803  0.1819
15998TIP3    H269410   2.910   4.535   2.830  0.8696  0.8401 -0.4635
15999TIP3   OH269411   2.615   6.647  11.835  0.6076  0.4710 -0.2440
15999TIP3    H169412   2.666   6.643  11.916 -0.3835  0.3356  0.3917
15999TIP3    H269413   2.635   6.733  11.798  0.9183  0.6126  0.2483
16000TIP3   OH269414   1.674   4.384   1.089 -0.4577 -0.1173  0.0787
16000TIP3    H169415   1.723   4.304   1.068  0.5333  0.3582  0.5410
16000TIP3    H269416   1.584   4.363   1.064  0.2261 -0.4297 -2.3519
16001TIP3   OH269417   1.910   3.830   0.388  0.0498 -0.3594 -0.5594
16001TIP3    H169418   1.992   3.799   0.425  0.9816  1.4180 -0.9942
16001TIP3    H269419   1.881   3.898   0.449  1.5479  2.5372 -2.8028
16002TIP3   OH269420   4.981   4.614   3.155 -0.1795  0.1330 -0.1219
16002TIP3    H169421   5.066   4.613   3.200  0.1947 -1.3564 -0.8145
16002TIP3    H269422   4.959   4.707   3.150  1.4667  0.5726 -0.0091
16003TIP3   OH269423   0.137   4.345   5.959  0.5090 -0.2861  0.3638
16003TIP3    H169424   0.158   4.262   5.918 -0.1874  0.8680 -2.5658
16003TIP3    H269425   0.218   4.396   5.954  0.2723  0.0495 -0.0718
16004TIP3   OH269426   6.681   4.906   0.042 -0.0458  0.1156 -0.1660
16004TIP3    H169427   6.669   4.811   0.047  1.2678  0.0032  2.1132
16004TIP3    H269428   6.601   4.942   0.080 -0.0231 -0.1314  0.1264
16005TIP3   OH269429   5.114   0.349   1.970  0.6061 -0.1874  0.2632
16005TIP3    H169430   5.206   0.322   1.968  0.9231  0.8616  0.0529
16005TIP3    H269431   5.096   0.380   1.882 -0.4042 -1.7842 -0.1182
16006TIP3   OH269432   3.721   6.453   4.048  0.2008 -0.4382 -0.4244
16006TIP3    H169433   3.629   6.466   4.068  0.0947 -1.1051 -0.4571
16006TIP3    H269434   3.768   6.501   4.116 -0.1674  0.7426 -0.9843
16007TIP3   OH269435   1.607   3.613   1.284 -0.6253  0.1718  0.5961
16007TIP3    H169436   1.626   3.693   1.334 -0.2682  0.4361  0.0518
16007TIP3    H269437   1.567   3.554   1.348 -0.4574  0.6127  1.1219
16008TIP3   OH269438   0.370   2.615   2.239  0.3674  0.8380  0.1176
16008TIP3    H169439   0.402   2.526   2.253  0.8150  0.9474 -0.2122
16008TIP3    H269440   0.426   2.651   2.170  0.4853  1.5356  0.5695
16009TIP3   OH269441   1.418   6.138   3.622  0.2333  0.1652 -0.1171
16009TIP3    H169442   1.503   6.093   3.621  1.0501  1.6560  0.4264
16009TIP3    H269443   1.435   6.221   3.667 -1.2836  0.9471 -0.9297
16010TIP3   OH269444   5.824   4.593   4.720  0.1682 -0.0885  0.6338
16010TIP3    H169445   5.826   4.674   4.669  1.9582 -0.4923 -0.0011
16010TIP3    H269446   5.778   4.530   4.663 -0.2936  0.1929  0.6930
16011TIP3   OH269447   3.658   1.429   3.866  0.4914  0.0514 -0.3612
16011TIP3    H169448   3.661   1.370   3.790  2.4954 -0.3011 -0.0647
16011TIP3    H269449   3.675   1.372   3.941 -1.5448  0.3827  0.4240
16012TIP3   OH269450   3.128   5.621   5.371 -0.0918 -0.2988  0.4576
16012TIP3    H169451   3.091   5.535   5.353  0.5271 -0.5541  0.3637
16012TIP3    H269452   3.155   5.616   5.463  1.2357 -0.7121  0.0733
16013TIP3   OH269453   6.954   5.688   5.636  0.3497  0.5695  0.4008
16013TIP3    H169454   6.864   5.668   5.658 -0.1559  2.2161  0.0173
16013TIP3    H269455   7.002   5.682   5.718 -0.3438  0.8100  0.8237
16014TIP3   OH269456   5.111   4.979   5.519 -0.2561  0.6195 -0.0246
16014TIP3    H169457   5.040   4.958   5.459 -1.5603  3.1042  0.5089
16014TIP3    H269458   5.084   4.943   5.603  0.0592 -0.0957 -0.2209
16015TIP3   OH269459   6.274   0.170  11.033 -0.3285 -1.0890  0.2051
16015TIP3    H169460   6.280   0.191  10.940 -0.7005 -0.3802  0.3389
16015TIP3    H269461   6.307   0.248  11.077  0.0699 -1.5134  0.6655
16016TIP3   OH269462   5.143   6.121   4.909  0.2542 -0.0542 -0.6464
16016TIP3    H169463   5.081   6.121   4.837 -2.5098  1.0693  1.5316
16016TIP3    H269464   5.218   6.171   4.877 -1.1233  0.9251 -2.5186
16017TIP3   OH269465   4.960   2.684   9.789  0.4207  0.6076 -0.1333
16017TIP3    H169466   4.909   2.680   9.870 -0.7448 -0.1810 -0.8934
16017TIP3    H269467   5.015   2.762   9.801 -0.5704  1.1912  0.9327
16018TIP3   OH269468   0.739   4.488   4.071  0.0410 -0.4850  0.7383
16018TIP3    H169469   0.699   4.438   4.142 -0.6487 -1.6245 -0.4167
16018TIP3    H269470   0.670   4.547   4.040 -0.9175 -2.5217 -1.3211
16019TIP3   OH269471   5.545   6.153  13.718 -0.1839 -0.0197  0.0261
16019TIP3    H169472   5.491   6.132  13.642  0.5650 -1.0378 -0.2356
16019TIP3    H269473   5.633   6.125  13.693  0.2736  0.6384  0.8608
16020TIP3   OH269474   2.597   3.045  11.066 -0.5378  0.1439 -0.4641
16020TIP3    H169475   2.689   3.053  11.041  0.3275 -0.4775  2.2159
16020TIP3    H269476   2.564   3.135  11.065  0.4324  0.5163 -0.3139
16021TIP3   OH269477   3.823   7.092   5.429  0.1138  0.1505  0.0919
16021TIP3    H169478   3.751   7.101   5.492 -0.4446  0.6196 -0.5935
16021TIP3    H269479   3.872   7.016   5.459 -1.8661 -1.4875 -0.5724
16022TIP3   OH269480   0.535   5.657   2.580 -0.1068 -0.0679  0.8656
16022TIP3    H169481   0.440   5.671   2.579 -0.2188 -0.7938 -0.6890
16022TIP3    H269482   0.572   5.746   2.576 -0.7710  0.1551 -1.7389
16023TIP3   OH269483   6.000   0.343   1.875 -0.4896 -0.5079 -0.3068
16023TIP3    H169484   5.935   0.375   1.938 -0.5664 -1.1466 -0.0553
16023TIP3    H269485   5.948   0.302   1.805 -0.4001  0.0828 -0.7320
16024TIP3   OH269486   4.913   4.210   5.840 -0.4497 -0.0832  0.1161
16024TIP3    H169487   4.992   4.215   5.894  2.0050  1.8232 -3.2556
16024TIP3    H269488   4.888   4.118   5.842  1.3055 -0.5922  1.9957
16025TIP3   OH269489   3.287   3.802   1.259 -0.4292  0.3250  0.1489
16025TIP3    H169490   3.278   3.751   1.340 -0.0718  2.0751  1.3549
16025TIP3    H269491   3.303   3.891   1.289  0.1440  0.9583 -1.8827
16026TIP3   OH269492   5.962   5.992  13.828 -0.6813 -0.3500  0.5059
16026TIP3    H169493   5.921   6.070  13.790  1.0893 -0.4581 -1.8641
16026TIP3    H269494   6.054   6.017  13.839 -0.0092 -2.1407 -0.5812
16027TIP3   OH269495   2.947   2.978  15.357  0.3999 -0.6568 -0.5342
16027TIP3    H169496   2.985   2.968  15.444 -0.0203 -1.9801 -0.4781
16027TIP3    H269497   2.944   3.072  15.343  1.1882 -0.4462  0.5591
16028TIP3   OH269498   6.119   5.104  11.941  0.0021 -0.0162 -0.3929
16028TIP3    H169499   6.039   5.064  11.976  0.7056 -0.0568  1.2544
16028TIP3    H269500   6.113   5.196  11.966  0.4513 -0.0107 -0.2946
16029TIP3   OH269501   6.422   3.721   0.594 -0.4835  0.9495 -0.3643
16029TIP3    H169502   6.484   3.759   0.532 -0.4877 -1.8266 -2.2864
16029TIP3    H269503   6.356   3.789   0.608  0.6488  2.4092 -1.7733
16030TIP3   OH269504   1.643   0.491   6.057 -0.5141  0.0744  0.9765
16030TIP3    H169505   1.555   0.475   6.094  0.0615  1.2138  2.9940
16030TIP3    H269506   1.703   0.461   6.126  0.7522 -1.4443 -0.6963
16031TIP3   OH269507   3.631   4.187  15.238 -0.8617  0.0182 -0.0283
16031TIP3    H169508   3.671   4.227  15.161  0.2112  2.2309  1.5803
16031TIP3    H269509   3.702   4.136  15.278 -1.1051 -0.2223  0.1009
16032TIP3   OH269510   4.281   4.190   2.685  0.5915 -0.3163  0.5639
16032TIP3    H169511   4.255   4.272   2.642 -1.5253 -1.5525 -0.6936
16032TIP3    H269512   4.356   4.159   2.636  0.7234  0.3205  0.3531
16033TIP3   OH269513   2.303   5.152   5.329 -0.1982 -0.0395 -0.2651
16033TIP3    H169514   2.293   5.102   5.411 -0.1434  0.6069  0.1449
16033TIP3    H269515   2.397   5.160   5.317 -0.1593 -1.5394 -1.2854
16034TIP3   OH269516   0.835   5.932   5.814  0.8219  0.5295 -0.5986
16034TIP3    H169517   0.836   5.845   5.853  1.4904 -0.0637 -1.8896
16034TIP3    H269518   0.829   5.917   5.720 -2.9242  1.9391 -0.7697
16035TIP3   OH269519   4.439   4.000   1.053  0.0771 -0.3034  0.0654
16035TIP3    H169520   4.516   3.946   1.071  2.2445  2.0559 -1.5199
16035TIP3    H269521   4.384   3.945   0.997  0.0263 -2.4190  2.0654
16036TIP3   OH269522   6.281   4.843   4.869 -0.2074  0.4110 -0.1459
16036TIP3    H169523   6.215   4.911   4.857  0.2917  0.8223 -0.6293
16036TIP3    H269524   6.304   4.849   4.962  1.1107  2.1482 -0.5164
16037TIP3   OH269525   2.682   1.027  15.555 -0.5206 -0.1528 -0.0988
16037TIP3    H169526   2.767   1.011  15.595 -0.1349 -2.7087 -1.7559
16037TIP3    H269527   2.683   0.976  15.474 -4.1293 -1.4211  0.4854
16038TIP3   OH269528   5.281   0.686  14.165  0.1684 -0.4701 -0.0179
16038TIP3    H169529   5.286   0.655  14.255  0.6388 -1.3877 -0.3493
16038TIP3    H269530   5.239   0.772  14.172 -0.1119 -0.6751  1.0335
16039TIP3   OH269531   3.659   5.357  15.149  0.3186 -0.4129 -0.1082
16039TIP3    H169532   3.582   5.381  15.097 -0.8100 -1.8065  0.8500
16039TIP3    H269533   3.634   5.375  15.240  1.7510  0.6536  0.1219
16040TIP3   OH269534   3.602   1.847   1.671  0.4332 -0.2564  0.3848
16040TIP3    H169535   3.551   1.774   1.705 -3.5272  0.8392 -2.3647
16040TIP3    H269536   3.576   1.922   1.726 -0.3182  0.1305 -0.4601
16041TIP3   OH269537   3.665   3.755   1.529 -0.1365  0.1241  0.0300
16041TIP3    H169538   3.689   3.761   1.437  0.1881  0.7153  0.1478
16041TIP3    H269539   3.705   3.832   1.570 -1.0596  0.3891  0.4917
16042TIP3   OH269540   2.498   5.075   3.870  0.0169  0.4303  1.1011
16042TIP3    H169541   2.557   5.021   3.922 -2.7349 -1.4067  2.5987
16042TIP3    H269542   2.418   5.081   3.923 -1.8064  1.2396 -1.5249
16043TIP3   OH269543   4.774   2.219   1.165  0.5476  0.2036  0.0595
16043TIP3    H169544   4.805   2.136   1.128  0.0679 -1.1492  2.5187
16043TIP3    H269545   4.679   2.211   1.167  0.5139  0.6831  0.5978
16044TIP3   OH269546   3.015   5.459  13.255  0.2870  0.0589  0.0399
16044TIP3    H169547   3.011   5.375  13.210  0.5746 -0.7680  1.4913
16044TIP3    H269548   2.951   5.451  13.326 -1.0583  1.7772 -0.8905
16045TIP3   OH269549   2.828   6.785   0.979 -0.0424 -0.6000 -0.2660
16045TIP3    H169550   2.894   6.728   1.018  1.0972  0.0381 -1.1915
16045TIP3    H269551   2.820   6.754   0.889  1.0489  1.0332 -0.9711
16046TIP3   OH269552   2.299   6.054  12.561 -0.2236  0.0957 -0.1369
16046TIP3    H169553   2.321   5.961  12.566  0.2516  0.2128 -0.0379
16046TIP3    H269554   2.254   6.072  12.644 -0.5458 -0.1038 -0.2665
16047TIP3   OH269555   0.809   5.807  14.002  0.0627 -0.8467 -0.4099
16047TIP3    H169556   0.887   5.754  13.982  0.2612 -0.8823  0.4195
16047TIP3    H269557   0.788   5.850  13.920  0.1425 -1.9054 -1.0049
16048TIP3   OH269558   6.306   6.231   3.938  0.0213  0.6656  1.4627
16048TIP3    H169559   6.239   6.296   3.959 -1.4080 -0.1013 -0.4769
16048TIP3    H269560   6.377   6.282   3.900 -1.4890  1.1071 -0.9770
16049TIP3   OH269561   6.178   2.367  15.520  0.1438 -0.3442  0.1013
16049TIP3    H169562   6.130   2.286  15.502  0.1310 -0.4877  0.7715
16049TIP3    H269563   6.110   2.428  15.549  0.2231 -0.2394  0.0631
16050TIP3   OH269564   4.452   4.957   5.239  0.0399 -0.4351  0.0489
16050TIP3    H169565   4.463   4.862   5.234  0.9151 -0.3907  0.7729
16050TIP3    H269566   4.440   4.975   5.333 -1.0852  0.0863 -0.1715
16051TIP3   OH269567   1.056   4.073   3.760 -0.3159  0.0718  0.1432
16051TIP3    H169568   0.979   4.069   3.703 -0.7512  0.9793  0.6350
16051TIP3    H269569   1.129   4.049   3.704 -1.0429 -1.6004 -0.1440
16052TIP3   OH269570   0.571   1.576   4.671 -0.2333 -0.1132 -0.3892
16052TIP3    H169571   0.477   1.591   4.664 -0.2686 -0.0884  0.1241
16052TIP3    H269572   0.610   1.647   4.620 -0.4927 -0.1426 -0.6315
16053TIP3   OH269573   2.584   1.326   0.990  1.3947  0.3800  0.0688
16053TIP3    H169574   2.678   1.325   0.970  1.5101 -1.7216  0.4915
16053TIP3    H269575   2.563   1.234   1.008 -0.3811  1.0520  1.6911
16054TIP3   OH269576   1.278   4.743   3.450 -0.0963  0.0848  0.3325
16054TIP3    H169577   1.318   4.734   3.364 -0.8363  3.7450 -0.5929
16054TIP3    H269578   1.184   4.732   3.434 -0.0845 -1.2011  1.0787
16055TIP3   OH269579   2.650   6.337  13.582 -0.1346 -0.7530 -0.8849
16055TIP3    H169580   2.635   6.418  13.533  0.1026 -0.2334 -0.1082
16055TIP3    H269581   2.574   6.329  13.640  1.6781  1.0789  1.9610
16056TIP3   OH269582   1.532   2.433   4.461 -0.6590 -0.3253 -0.2416
16056TIP3    H169583   1.596   2.363   4.454 -1.2489 -1.0724  1.2929
16056TIP3    H269584   1.538   2.480   4.378  1.0510 -1.0596 -0.5739
16057TIP3   OH269585   0.360   6.182   2.409 -0.2648  0.1199 -0.3597
16057TIP3    H169586   0.323   6.232   2.336 -0.4168 -1.1225 -1.1581
16057TIP3    H269587   0.298   6.112   2.424  0.4361 -0.4226  0.0799
16058TIP3   OH269588   5.675   5.133   1.177 -0.1383  0.0997 -0.3876
16058TIP3    H169589   5.732   5.056   1.167 -0.5523 -0.4118  1.0102
16058TIP3    H269590   5.652   5.134   1.270 -0.5166  1.6627 -0.4786
16059TIP3   OH269591   3.970   0.193   3.236 -0.1698  0.1821  0.2610
16059TIP3    H169592   4.001   0.203   3.146 -2.4617  0.3287 -0.5728
16059TIP3    H269593   3.899   0.257   3.244  0.4600  0.7110  2.4429
16060TIP3   OH269594   3.518   1.970   2.665  0.2323  0.1305  0.6354
16060TIP3    H169595   3.521   1.874   2.675 -0.4078 -0.0561 -0.7898
16060TIP3    H269596   3.514   1.984   2.571 -2.1882  1.4857  0.8839
16061TIP3   OH269597   1.614   1.023   3.380  0.5080  0.7186  0.1438
16061TIP3    H169598   1.592   0.968   3.305 -1.0622 -0.0021  1.0830
16061TIP3    H269599   1.625   1.111   3.344 -1.3134  0.6010 -0.8084
16062TIP3   OH269600   3.519   0.112   4.473  0.3283 -0.0573 -0.1896
16062TIP3    H169601   3.429   0.142   4.459  0.0043 -1.2960 -0.9057
16062TIP3    H269602   3.554   0.172   4.539  0.3105  3.0654 -2.7138
16063TIP3   OH269603   3.781   3.540   1.020  0.0926 -0.1583 -0.0128
16063TIP3    H169604   3.839   3.616   1.014  1.7384 -1.4521 -1.4003
16063TIP3    H269605   3.831   3.475   1.068 -1.9680  0.1063  2.7505
16064TIP3   OH269606   0.416   5.401  13.918  0.0152 -0.4792  0.0195
16064TIP3    H169607   0.505   5.410  13.951  0.2686 -2.8118  0.1335
16064TIP3    H269608   0.425   5.405  13.823 -0.1601  1.8903  0.0364
16065TIP3   OH269609   1.128   6.983   4.307 -0.5430  0.5081 -0.6879
16065TIP3    H169610   1.167   7.060   4.349 -0.5660  1.5122 -2.4159
16065TIP3    H269611   1.054   6.960   4.362 -0.3937  1.5857 -0.0104
16066TIP3   OH269612   1.043   3.902   0.993  0.0636 -0.0822 -1.1669
16066TIP3    H169613   1.112   3.857   0.946  1.6773  2.4476 -1.4294
16066TIP3    H269614   1.019   3.843   1.064  3.6974 -0.4400 -0.0579
16067TIP3   OH269615   0.374   3.959   2.950  1.0194 -0.0195 -0.4517
16067TIP3    H169616   0.279   3.975   2.951  0.9957 -0.0593  1.2003
16067TIP3    H269617   0.382   3.865   2.965  1.2977  0.3922  2.7382
16068TIP3   OH269618   5.232   2.458   1.222 -0.6773  0.0058 -0.1081
16068TIP3    H169619   5.318   2.416   1.220 -0.1659  1.0403 -0.4880
16068TIP3    H269620   5.246   2.539   1.271 -0.8356  1.4264 -2.2806
16069TIP3   OH269621   6.061   6.225  10.676 -0.3694 -0.2347  0.1810
16069TIP3    H169622   6.092   6.170  10.748  1.1232 -1.5942 -1.3893
16069TIP3    H269623   6.127   6.213  10.608 -1.8263  0.8376 -1.4912
16070TIP3   OH269624   3.745   2.878   5.500  0.1652  0.1036 -0.2979
16070TIP3    H169625   3.769   2.971   5.507 -0.6561  0.3585 -0.6837
16070TIP3    H269626   3.743   2.861   5.406  1.5642 -0.6629 -0.2144
16071TIP3   OH269627   4.408   6.198   2.928  0.2045 -0.1352  0.4058
16071TIP3    H169628   4.456   6.174   3.008  2.8871  0.4763 -0.9136
16071TIP3    H269629   4.394   6.292   2.936 -2.5085 -0.5196  1.5538
16072TIP3   OH269630   1.354   1.117   5.921 -0.1443 -0.7156  0.1271
16072TIP3    H169631   1.449   1.122   5.907 -0.4172 -0.1986 -1.8951
16072TIP3    H269632   1.338   1.026   5.942  0.6982 -1.0673 -0.6496
16073TIP3   OH269633   4.250   6.970   3.901  0.1500 -0.3155  0.1232
16073TIP3    H169634   4.312   7.043   3.901 -1.3060  0.9900 -0.6791
16073TIP3    H269635   4.167   7.009   3.872 -0.4257 -2.5148 -1.4515
16074TIP3   OH269636   1.668   1.434   0.431  0.2870 -0.0461 -0.7766
16074TIP3    H169637   1.668   1.341   0.455 -0.5649 -0.3101 -1.7328
16074TIP3    H269638   1.756   1.450   0.398 -0.1604 -1.0677 -2.5727
16075TIP3   OH269639   3.728   0.922   4.218  0.3868  0.4623  0.2492
16075TIP3    H169640   3.772   0.887   4.296 -1.2754  0.7174  1.3459
16075TIP3    H269641   3.652   0.865   4.206  0.2731  0.8123 -0.8365
16076TIP3   OH269642   6.017   1.501   2.080 -0.3592 -0.6675  0.2978
16076TIP3    H169643   5.936   1.480   2.125  0.1172 -0.3213  1.3540
16076TIP3    H269644   6.082   1.443   2.119  0.1041 -0.2319  0.1885
16077TIP3   OH269645   1.322   2.746  11.313  0.1192  0.1292  0.2658
16077TIP3    H169646   1.268   2.731  11.235  1.4866  0.6926 -0.8217
16077TIP3    H269647   1.356   2.659  11.336  0.0452  0.0241 -0.0213
16078TIP3   OH269648   5.645   2.545   3.244 -0.5156  0.1171 -0.4575
16078TIP3    H169649   5.696   2.623   3.264  0.8631 -0.5600 -1.2204
16078TIP3    H269650   5.583   2.573   3.177 -3.1671  1.6490  2.3544
16079TIP3   OH269651   4.042   3.044  10.762 -0.7964 -0.3742 -0.0952
16079TIP3    H169652   4.031   2.949  10.758 -1.6057 -0.2421 -1.5928
16079TIP3    H269653   3.954   3.077  10.783 -1.0792  0.1373 -1.8995
16080TIP3   OH269654   3.393   1.881   3.518  0.7358 -0.3177  0.0926
16080TIP3    H169655   3.349   1.891   3.603 -0.1532 -0.3704 -0.3451
16080TIP3    H269656   3.415   1.788   3.513  1.8389 -0.1094  0.7516
16081TIP3   OH269657   4.561   6.036   0.080 -0.3963  0.0868  0.0541
16081TIP3    H169658   4.571   5.948   0.043  0.3696  0.2003 -0.0243
16081TIP3    H269659   4.646   6.055   0.119 -1.5307 -0.5490  3.0766
16082TIP3   OH269660   6.109   1.887  14.756  0.4300 -0.1997 -0.0792
16082TIP3    H169661   6.092   1.981  14.754 -1.9523 -0.5493  0.3853
16082TIP3    H269662   6.144   1.871  14.843 -0.9494  0.0333  0.5403
16083TIP3   OH269663   6.936   5.591   1.484  0.1984 -0.6538  0.2204
16083TIP3    H169664   6.973   5.661   1.429  0.5765 -2.1351 -1.4884
16083TIP3    H269665   6.847   5.620   1.503  1.1116  1.4531  1.6877
16084TIP3   OH269666   4.786   3.601   1.053 -0.4223  0.0274  0.1290
16084TIP3    H169667   4.837   3.555   0.986  2.1924 -2.1810  3.2925
16084TIP3    H269668   4.729   3.535   1.091 -3.1487  1.6393 -0.8963
16085TIP3   OH269669   2.064   5.350   3.117  0.2921 -0.1404  0.9440
16085TIP3    H169670   2.126   5.314   3.181  0.5711  1.1830  1.4452
16085TIP3    H269671   2.032   5.430   3.158  0.2684  0.5850 -0.4559
16086TIP3   OH269672   5.592   1.263   1.028  0.1011 -0.1593  0.3892
16086TIP3    H169673   5.685   1.249   1.050  0.3719  0.2653 -0.4490
16086TIP3    H269674   5.592   1.344   0.977 -0.4862 -1.1891 -1.2884
16087TIP3   OH269675   4.673   6.200  13.459 -0.4451  0.3085  0.4212
16087TIP3    H169676   4.603   6.258  13.487 -0.1606 -0.7571  3.7317
16087TIP3    H269677   4.631   6.137  13.400 -1.1674  2.4703 -1.5433
16088TIP3   OH269678   6.341   1.914   0.070 -0.1897  0.0048  0.0703
16088TIP3    H169679   6.394   1.968   0.128  2.7675 -0.7664 -1.6915
16088TIP3    H269680   6.307   1.844   0.126 -1.2801  1.7373  1.6766
16089TIP3   OH269681   4.454   5.140   6.044 -0.2129  0.5893 -0.0606
16089TIP3    H169682   4.524   5.145   6.109  0.6236  0.5861 -0.9240
16089TIP3    H269683   4.385   5.195   6.078  0.3276  0.8242  0.6854
16090TIP3   OH269684   6.362   4.222   4.606  0.6961 -0.4769 -0.1406
16090TIP3    H169685   6.288   4.210   4.546 -1.0735 -0.0043  1.8077
16090TIP3    H269686   6.394   4.310   4.587  0.5579 -0.5564 -0.7751
16091TIP3   OH269687   3.576   0.052   9.660  0.2122  0.5927 -0.0674
16091TIP3    H169688   3.570  -0.033   9.703 -0.7657  1.0631  0.7660
16091TIP3    H269689   3.487   0.087   9.663  0.6244  1.7075 -0.2507
16092TIP3   OH269690   2.704   0.120  12.090  0.3631 -0.5232 -0.1084
16092TIP3    H169691   2.716   0.106  11.996  1.0748 -1.7010  0.1265
16092TIP3    H269692   2.783   0.084  12.129  0.5065  0.8149  0.8978
16093TIP3   OH269693   0.668   5.453  15.203 -0.2343  0.1492 -0.1373
16093TIP3    H169694   0.644   5.481  15.291  1.1574 -0.3605  0.4291
16093TIP3    H269695   0.722   5.525  15.169 -0.0817 -0.0238 -0.2626
16094TIP3   OH269696   4.802   2.388   2.493  0.4147  0.4337  0.1801
16094TIP3    H169697   4.868   2.443   2.534  0.4637  0.3493  0.2148
16094TIP3    H269698   4.719   2.428   2.517  0.4936  1.4202 -1.1107
16095TIP3   OH269699   6.225   3.904  14.620  0.4252  0.4415  0.3690
16095TIP3    H169700   6.187   3.826  14.579 -0.7424  0.3421  1.5615
16095TIP3    H269701   6.308   3.875  14.658  0.3137 -0.0563  0.2287
16096TIP3   OH269702   0.801   0.609   3.083  0.0013  0.7905  0.4744
16096TIP3    H169703   0.735   0.619   3.152 -0.7118  1.5296 -0.2799
16096TIP3    H269704   0.846   0.528   3.104 -2.2450 -0.6576  0.1443
16097TIP3   OH269705   0.422   4.926  10.925  0.0126 -0.1021 -0.1040
16097TIP3    H169706   0.336   4.950  10.961 -0.0465  0.4691 -0.6166
16097TIP3    H269707   0.429   4.832  10.941 -0.8248 -0.2031 -0.2919
16098TIP3   OH269708   6.976   6.877  13.963  0.2241  0.1844  0.0452
16098TIP3    H169709   6.986   6.954  13.907  0.9046  0.5246  0.6221
16098TIP3    H269710   6.884   6.877  13.988  0.7072  2.3198  2.1362
16099TIP3   OH269711   0.900   6.129   5.450 -0.1385  0.6261  0.1733
16099TIP3    H169712   0.954   6.200   5.487  0.4921  0.4832 -0.4475
16099TIP3    H269713   0.963   6.060   5.430 -0.7520 -0.1231  0.7739
16100TIP3   OH269714   2.263   5.952   3.947  0.0349 -0.0669  0.7559
16100TIP3    H169715   2.330   6.017   3.969  2.6479 -2.7560  1.4269
16100TIP3    H269716   2.269   5.887   4.017 -0.6144 -2.3063 -1.1289
16101TIP3   OH269717   2.726   0.428   4.184  0.0538  0.0450  0.0583
16101TIP3    H169718   2.814   0.466   4.190 -0.1195  0.2509  1.7196
16101TIP3    H269719   2.737   0.351   4.128  1.2268  0.2318 -0.0054
16102TIP3   OH269720   0.759   0.006   5.435  0.3062 -0.0794 -0.1477
16102TIP3    H169721   0.764  -0.066   5.498 -0.3169 -0.3778 -0.4296
16102TIP3    H269722   0.804   0.079   5.478  2.2094 -1.0213 -0.4214
16103TIP3   OH269723   6.855   3.690   4.023 -0.7899 -0.3728 -0.0850
16103TIP3    H169724   6.771   3.695   4.070 -0.9444 -0.7983 -0.3133
16103TIP3    H269725   6.890   3.779   4.029  0.0687 -0.7970  2.3899
16104TIP3   OH269726   1.698   5.047   4.971 -0.6793 -0.2640 -0.6081
16104TIP3    H169727   1.678   4.999   4.890 -0.2209  1.4819 -1.8159
16104TIP3    H269728   1.692   5.139   4.946  2.8307  0.3868  0.4483
16105TIP3   OH269729   2.734   4.219  12.409  0.6236  0.3603 -0.0993
16105TIP3    H169730   2.699   4.215  12.319  1.0470 -1.2408 -0.2086
16105TIP3    H269731   2.816   4.267  12.400  2.0926 -2.1413 -1.0990
16106TIP3   OH269732   0.069   5.600   1.723 -0.7998  0.0068 -0.2962
16106TIP3    H169733   0.102   5.524   1.676 -1.7971 -0.8340  0.3169
16106TIP3    H269734   0.079   5.673   1.662 -2.0345 -1.0357 -1.7910
16107TIP3   OH269735   6.172   6.326   6.099 -0.6243  0.3966  0.2585
16107TIP3    H169736   6.122   6.322   6.017  0.3084  0.7327 -0.3370
16107TIP3    H269737   6.149   6.412   6.136 -0.6736  0.4448  0.1174
16108TIP3   OH269738   3.102   2.003   3.662 -0.7783 -0.3252 -0.1337
16108TIP3    H169739   3.110   1.911   3.688  0.6446 -0.6740 -1.6556
16108TIP3    H269740   3.024   2.005   3.606 -2.0761 -0.1461  1.6048
16109TIP3   OH269741   5.884   5.685   1.454 -0.1091 -0.4013 -0.2569
16109TIP3    H169742   5.803   5.637   1.436 -0.2048 -1.2486  2.1060
16109TIP3    H269743   5.921   5.642   1.531  1.0484  1.8653  0.5463
16110TIP3   OH269744   1.773   7.111   1.697  0.2965  0.4164 -0.1348
16110TIP3    H169745   1.689   7.129   1.653  0.2419 -0.4932 -0.4295
16110TIP3    H269746   1.749   7.099   1.789  0.2943  1.4766  0.0161
16111TIP3   OH269747   1.475   4.908   5.623 -0.1593  0.1800  0.1543
16111TIP3    H169748   1.416   4.843   5.585  0.8377 -0.1092 -0.9531
16111TIP3    H269749   1.523   4.944   5.549  1.9084 -0.4474  1.0913
16112TIP3   OH269750   0.876   3.272   5.677  0.0493 -0.3139  0.0551
16112TIP3    H169751   0.950   3.237   5.727 -0.9268 -3.1134 -0.2828
16112TIP3    H269752   0.874   3.221   5.596 -0.2871  2.0054 -1.5092
16113TIP3   OH269753   2.733   6.265   2.368 -0.2550  1.0501  0.9793
16113TIP3    H169754   2.796   6.303   2.306 -2.1859  1.4307 -0.8749
16113TIP3    H269755   2.648   6.301   2.341 -1.1330  1.9421  4.4410
16114TIP3   OH269756   6.405   2.978   4.991  0.1948 -0.0292 -0.6994
16114TIP3    H169757   6.428   2.915   4.923  2.3789  0.0917 -0.1712
16114TIP3    H269758   6.382   3.057   4.943  2.3752  0.2764 -1.3838
16115TIP3   OH269759   1.960   3.424   2.766  0.0760 -0.1129  0.3734
16115TIP3    H169760   2.043   3.454   2.730  1.6022 -2.5374  1.6103
16115TIP3    H269761   1.900   3.497   2.752  2.6579  2.1819  0.4036
16116TIP3   OH269762   5.325   5.576   4.937 -0.1770  0.5379 -0.2237
16116TIP3    H169763   5.348   5.591   4.845 -1.1047 -1.0367 -0.7522
16116TIP3    H269764   5.408   5.556   4.980  0.2751  1.3671 -0.6816
16117TIP3   OH269765   3.957   4.631   4.293 -0.4047 -0.5877  0.0900
16117TIP3    H169766   4.048   4.639   4.324 -0.3952  0.3998 -0.1610
16117TIP3    H269767   3.946   4.537   4.276  0.8091 -0.6209 -0.5934
16118TIP3   OH269768   6.834   3.744   4.411  0.3586  0.5177  0.1177
16118TIP3    H169769   6.741   3.743   4.437  0.2348  1.8811 -0.2059
16118TIP3    H269770   6.881   3.768   4.491  0.1524  2.6986 -0.3573
16119TIP3   OH269771   1.348   5.195   2.412 -0.1437 -0.4879  0.4103
16119TIP3    H169772   1.274   5.200   2.350  0.9017 -1.7347 -1.0218
16119TIP3    H269773   1.363   5.286   2.438 -0.7508  0.0790 -1.0539
16120TIP3   OH269774   3.787   5.745   0.663 -0.5865 -0.1387  0.3320
16120TIP3    H169775   3.754   5.784   0.582  0.7190 -0.6055 -0.4531
16120TIP3    H269776   3.749   5.799   0.732 -0.4161  1.3021 -0.6495
16121TIP3   OH269777   0.546   6.457   4.626  0.3978  0.4670 -0.3406
16121TIP3    H169778   0.585   6.389   4.571 -0.4244 -1.0415  0.8780
16121TIP3    H269779   0.620   6.513   4.651  0.8602  0.9918 -2.6029
16122TIP3   OH269780   3.035   4.785  13.847 -0.0639  0.0787 -0.6720
16122TIP3    H169781   3.006   4.694  13.846  0.9834 -0.2632 -1.4505
16122TIP3    H269782   3.091   4.793  13.770  1.8678  0.7042  0.7134
16123TIP3   OH269783   4.960   7.068   0.413  0.8821  1.0155  0.2440
16123TIP3    H169784   4.946   7.080   0.319  2.1673  3.4207  0.2759
16123TIP3    H269785   4.883   7.020   0.443 -0.5087  1.8770 -1.7288
16124TIP3   OH269786   0.873   4.728   3.960 -0.6202 -0.2667  0.1117
16124TIP3    H169787   0.832   4.770   3.885 -0.1908 -1.0766 -0.5896
16124TIP3    H269788   0.813   4.656   3.983 -0.4252 -0.4281  0.1230
16125TIP3   OH269789   2.257   5.131  10.970 -0.3590  0.0868 -0.5127
16125TIP3    H169790   2.284   5.079  11.045 -0.3904  0.0281 -0.5419
16125TIP3    H269791   2.312   5.101  10.898 -1.3863 -0.9507 -0.8871
16126TIP3   OH269792   6.111   3.018   0.439 -0.7275  0.4441 -0.2591
16126TIP3    H169793   6.039   3.043   0.380 -0.7191  1.1138 -0.0044
16126TIP3    H269794   6.187   3.010   0.383 -0.9337  0.0645 -0.4849
16127TIP3   OH269795   4.694   5.381  13.097 -0.2535 -0.0831 -0.3967
16127TIP3    H169796   4.748   5.346  13.169  0.0212  2.1690  0.5767
16127TIP3    H269797   4.719   5.328  13.021  1.5356 -0.6982  0.5555
16128TIP3   OH269798   6.635   2.052   1.238 -0.7800 -0.4917  0.2379
16128TIP3    H169799   6.552   2.039   1.283 -0.5233 -0.1816  0.8172
16128TIP3    H269800   6.664   2.139   1.266 -1.6005  0.6273 -2.1679
16129TIP3   OH269801   1.682   5.664  11.258  0.5418  0.1881 -0.0115
16129TIP3    H169802   1.747   5.608  11.299 -0.8347 -1.5375 -0.0499
16129TIP3    H269803   1.696   5.654  11.164 -0.0421 -0.5553 -0.0289
16130TIP3   OH269804   6.105   0.542  15.004 -0.3709  0.0835  0.1695
16130TIP3    H169805   6.131   0.478  14.938 -0.2736 -0.2993  0.5779
16130TIP3    H269806   6.068   0.490  15.075 -1.1090  0.5365  0.1301
16131TIP3   OH269807   2.197   1.506   5.495 -0.0330 -0.3488  0.2607
16131TIP3    H169808   2.260   1.528   5.563 -1.0481  1.2480  0.7338
16131TIP3    H269809   2.245   1.517   5.413 -0.0176  2.2680  0.5336
16132TIP3   OH269810   1.110   1.013  14.721  0.0035  0.3239  0.3746
16132TIP3    H169811   1.052   0.943  14.693  1.3406 -0.4556 -0.5714
16132TIP3    H269812   1.194   0.993  14.679  0.0929  3.2420 -1.0953
16133TIP3   OH269813   1.416   1.340   2.765 -0.3520 -0.5648  0.2521
16133TIP3    H169814   1.358   1.266   2.783  0.3941 -0.5474  3.0553
16133TIP3    H269815   1.370   1.415   2.802  0.0066 -0.0045 -0.4261
16134TIP3   OH269816   2.233   6.933   3.991 -0.5634  0.2590 -0.1255
16134TIP3    H169817   2.309   6.875   3.998 -1.3355 -0.7898 -0.0513
16134TIP3    H269818   2.167   6.880   3.945 -1.6774  0.6811  0.9403
16135TIP3   OH269819   0.826   5.674   2.132  0.4405 -0.2101  0.2042
16135TIP3    H169820   0.880   5.719   2.197 -0.6142 -0.5352  1.3328
16135TIP3    H269821   0.746   5.652   2.178  0.2953 -1.8748 -0.7711
16136TIP3   OH269822   5.585   0.623   4.017  0.0445 -0.0654 -0.3925
16136TIP3    H169823   5.603   0.646   3.926  1.7217 -2.0248 -0.6401
16136TIP3    H269824   5.666   0.643   4.064 -0.0865 -0.9552  0.2448
16137TIP3   OH269825   0.570   2.395  14.613  0.1469 -0.1487 -0.0818
16137TIP3    H169826   0.487   2.425  14.575 -0.6894 -2.0836  0.0712
16137TIP3    H269827   0.559   2.409  14.707  0.0513 -0.2302 -0.0798
16138TIP3   OH269828   5.439   3.178   4.757 -0.3094 -0.3670 -0.0069
16138TIP3    H169829   5.356   3.216   4.727  0.1026  0.4338 -0.1450
16138TIP3    H269830   5.471   3.239   4.822  0.7847 -0.0185 -0.8464
16139TIP3   OH269831   1.555   4.181   3.921 -0.0869  0.3692 -0.4540
16139TIP3    H169832   1.459   4.181   3.921 -0.1144  1.9236 -1.2233
16139TIP3    H269833   1.579   4.198   4.012 -0.5011 -1.2658 -0.0119
16140TIP3   OH269834   2.048   3.028  13.331 -0.5085 -0.1654 -0.3642
16140TIP3    H169835   2.062   3.104  13.274 -1.6773  0.2704 -0.0950
16140TIP3    H269836   2.117   3.035  13.398  0.5696 -0.4145 -1.4062
16141TIP3   OH269837   3.119   4.459   3.609 -0.2087 -0.5310 -0.8505
16141TIP3    H169838   3.036   4.448   3.654  0.1935 -2.6120 -0.5247
16141TIP3    H269839   3.173   4.509   3.671 -0.6246 -0.7576 -0.2963
16142TIP3   OH269840   5.382   1.066   0.780  0.3968 -0.3417  0.9817
16142TIP3    H169841   5.374   0.990   0.838 -0.8879 -0.0075  1.2943
16142TIP3    H269842   5.323   1.047   0.707  0.3520  0.1785  0.8775
16143TIP3   OH269843   6.212   0.757  12.927  0.3264 -0.2241  0.0269
16143TIP3    H169844   6.276   0.741  12.857  0.3150 -1.5134  0.2815
16143TIP3    H269845   6.265   0.774  13.005  0.3416  1.5313 -0.3235
16144TIP3   OH269846   3.235   0.804  15.383  0.0867  0.5955  0.0079
16144TIP3    H169847   3.315   0.770  15.342 -0.5403 -1.7423  0.5984
16144TIP3    H269848   3.168   0.795  15.315  0.2294  2.4013 -0.4294
16145TIP3   OH269849   5.745   2.290   4.894 -0.1305 -0.0512  0.0362
16145TIP3    H169850   5.801   2.351   4.846 -1.2397  0.6187 -0.4686
16145TIP3    H269851   5.795   2.267   4.972  0.2609  1.6537  0.3407
16146TIP3   OH269852   0.251   1.669   9.529 -0.4900 -0.1646  0.5760
16146TIP3    H169853   0.200   1.606   9.580  0.2920 -0.5710  0.8737
16146TIP3    H269854   0.295   1.615   9.463 -0.2675  0.1471  0.4711
16147TIP3   OH269855   2.766   0.179  10.347 -0.1234  0.3882 -0.4913
16147TIP3    H169856   2.740   0.243  10.413 -0.6464  2.2520 -2.3919
16147TIP3    H269857   2.859   0.195  10.333  0.0648 -0.2335  0.0055
16148TIP3   OH269858   1.521   4.446   4.918 -0.3261  0.3494 -0.3776
16148TIP3    H169859   1.564   4.531   4.911  2.7731 -1.0862 -0.3379
16148TIP3    H269860   1.494   4.440   5.009  1.9629  0.2403  0.3414
16149TIP3   OH269861   6.071   0.754   1.990  0.3394  0.4400  0.0183
16149TIP3    H169862   6.083   0.682   1.928  0.2220  0.7908 -0.4202
16149TIP3    H269863   6.151   0.756   2.042  1.4364  1.5940 -1.6418
16150TIP3   OH269864   1.419   0.615  11.660  0.2617  0.4347  0.3557
16150TIP3    H169865   1.326   0.637  11.663  0.4639  1.8845 -1.6125
16150TIP3    H269866   1.445   0.609  11.752 -1.3300  2.0912  0.9813
16151TIP3   OH269867   6.670   3.063  15.507  0.6564 -0.0808  0.6387
16151TIP3    H169868   6.610   3.062  15.432  0.0400 -1.5587  1.1219
16151TIP3    H269869   6.617   3.035  15.581  2.1667 -2.6195  0.8650
16152TIP3   OH269870   0.855   6.790   0.059  0.2114  0.2399 -0.1994
16152TIP3    H169871   0.918   6.857   0.084 -0.3139  0.8220 -0.4101
16152TIP3    H269872   0.905   6.708   0.062  0.6222  0.5189  0.9444
16153TIP3   OH269873   6.952   5.170   5.957 -0.4140  0.2357 -0.5740
16153TIP3    H169874   6.929   5.200   6.045  1.1925 -2.1739  0.7977
16153TIP3    H269875   6.998   5.243   5.917  0.2713  0.8461  1.2344
16154TIP3   OH269876   3.000   2.263   1.734 -0.1399  0.0919 -0.2573
16154TIP3    H169877   2.949   2.291   1.810 -1.3454  0.3433 -1.1363
16154TIP3    H269878   3.042   2.343   1.702  1.6045 -0.2610  0.9979
16155TIP3   OH269879   0.042   1.875   0.417 -0.3614  0.2826  0.1662
16155TIP3    H169880   0.091   1.942   0.464  1.5697 -0.9556  0.0266
16155TIP3    H269881   0.086   1.867   0.333 -2.4634  0.9579 -1.0929
16156TIP3   OH269882   5.172   5.147   1.585 -0.0999  0.1121  0.1577
16156TIP3    H169883   5.160   5.205   1.510 -1.2443  1.2424  1.1669
16156TIP3    H269884   5.117   5.185   1.654  0.8664 -0.9149  1.5591
16157TIP3   OH269885   3.055   4.326   4.503  0.0113  0.7608 -0.2119
16157TIP3    H169886   3.087   4.359   4.587  0.9583  2.1743 -1.0887
16157TIP3    H269887   3.115   4.363   4.438 -0.9195  0.0085 -1.5507
16158TIP3   OH269888   6.019   3.606   0.705 -0.1237  0.2143  0.0200
16158TIP3    H169889   5.950   3.569   0.761  1.4754 -0.8941  1.3355
16158TIP3    H269890   6.001   3.700   0.706  0.5063  0.4636  3.5468
16159TIP3   OH269891   6.497   6.311   1.239  0.2799 -0.4431  1.2423
16159TIP3    H169892   6.451   6.354   1.312 -1.6137  0.6385 -0.4868
16159TIP3    H269893   6.552   6.380   1.202  3.2993 -1.6496  3.1065
16160TIP3   OH269894   0.245   3.247   0.017 -0.7998  0.8026 -0.2579
16160TIP3    H169895   0.226   3.164   0.060  0.5006 -0.3161 -1.7230
16160TIP3    H269896   0.340   3.247   0.006 -0.8917  1.9739 -1.2628
16161TIP3   OH269897   4.806   3.655   6.055 -0.3904  0.5474  0.2527
16161TIP3    H169898   4.794   3.561   6.040 -1.6343  0.8699 -0.9666
16161TIP3    H269899   4.719   3.693   6.042  0.1121  1.8875  0.6094
16162TIP3   OH269900   1.446   6.241   4.263  0.2885  0.1575  0.4276
16162TIP3    H169901   1.363   6.277   4.232 -0.1020  0.2452  1.5087
16162TIP3    H269902   1.485   6.313   4.313  0.6937 -0.1062  0.4913
16163TIP3   OH269903   2.361   6.557   0.829  0.7446  0.0521  0.1120
16163TIP3    H169904   2.284   6.554   0.886  0.4981  0.7299 -0.1766
16163TIP3    H269905   2.435   6.545   0.888  0.4800  0.5770  0.5524
16164TIP3   OH269906   2.716   6.100   4.914 -0.0090 -0.0881 -0.0925
16164TIP3    H169907   2.648   6.042   4.947  0.4807  0.7799  2.7205
16164TIP3    H269908   2.672   6.155   4.849 -1.3909 -1.0799 -0.0231
16165TIP3   OH269909   1.526   6.210  14.607  0.0434  1.0651  0.1864
16165TIP3    H169910   1.586   6.284  14.599  1.5568 -0.1431 -0.2155
16165TIP3    H269911   1.576   6.135  14.574 -2.1720  0.2134 -1.4521
16166TIP3   OH269912   2.711   2.479   3.712  0.4481 -0.2911  0.0194
16166TIP3    H169913   2.703   2.424   3.790  1.5467  1.3484  1.3594
16166TIP3    H269914   2.764   2.426   3.652  0.1674 -1.3216  0.6438
16167TIP3   OH269915   2.904   0.665  15.518  0.0457  0.1694  0.3802
16167TIP3    H169916   2.949   0.582  15.509  0.7359  0.5242  0.4683
16167TIP3    H269917   2.962   0.718  15.572  1.2341  1.8574 -2.3381
16168TIP3   OH269918   3.493   2.376  13.955  0.2186 -0.2605  0.1586
16168TIP3    H169919   3.448   2.324  13.888 -0.0243  0.0987  0.0357
16168TIP3    H269920   3.425   2.434  13.989  0.9197  1.4388 -1.1605
16169TIP3   OH269921   5.111   6.924   3.767  0.1114 -0.4503 -0.0372
16169TIP3    H169922   5.022   6.900   3.794 -0.2961  1.8303  0.8896
16169TIP3    H269923   5.165   6.905   3.844  0.2765 -0.9099 -0.2601
16170TIP3   OH269924   4.742   1.038   3.903  0.9304  0.2988 -0.1623
16170TIP3    H169925   4.827   1.004   3.931  0.4164 -1.2439 -0.3963
16170TIP3    H269926   4.731   1.119   3.953  2.4268  0.4069  0.0396
16171TIP3   OH269927   2.236   4.568   3.111 -0.1561 -0.1421 -0.4010
16171TIP3    H169928   2.331   4.574   3.118 -0.2397  0.2113  0.5168
16171TIP3    H269929   2.217   4.595   3.021  0.6257 -0.4152 -0.6497
16172TIP3   OH269930   6.668   3.982  14.190 -0.1968 -0.3155  0.4920
16172TIP3    H169931   6.582   3.947  14.166 -0.6198  0.6170  0.6188
16172TIP3    H269932   6.712   3.997  14.106 -0.3254 -0.3666  0.4152
16173TIP3   OH269933   0.700   3.997  14.760  0.1453 -0.0483  0.0383
16173TIP3    H169934   0.742   3.999  14.674 -1.3116  1.7134 -0.6988
16173TIP3    H269935   0.653   3.914  14.762  2.5485 -1.5166  0.4230
16174TIP3   OH269936   6.028   1.331   0.725  0.0712  0.2279 -0.0288
16174TIP3    H169937   5.962   1.394   0.753 -0.4032  0.1826 -1.0040
16174TIP3    H269938   6.003   1.249   0.766 -1.8308 -0.3445 -2.1403
16175TIP3   OH269939   4.103   1.877   4.905 -0.4897  0.1432  0.8515
16175TIP3    H169940   4.132   1.845   4.819  1.7312 -0.3351  1.6963
16175TIP3    H269941   4.028   1.933   4.886 -0.6455 -0.6867 -1.3006
16176TIP3   OH269942   3.354   6.024   0.089  0.3629  0.7588  0.4777
16176TIP3    H169943   3.416   6.082   0.133  1.3637  0.6198 -0.6965
16176TIP3    H269944   3.311   5.976   0.161  2.7785 -0.3303  1.2803
16177TIP3   OH269945   6.986   2.721   0.452  0.5367  0.3552 -0.1037
16177TIP3    H169946   6.962   2.649   0.393 -1.5883  0.6821  0.2511
16177TIP3    H269947   7.026   2.787   0.395  0.2425 -0.1126 -0.8695
16178TIP3   OH269948   1.860   7.066  10.548  0.1233  0.2532  0.0656
16178TIP3    H169949   1.933   7.124  10.571  0.8071  1.3915 -4.1463
16178TIP3    H269950   1.900   6.978  10.547  1.2092  0.7222 -1.0528
16179TIP3   OH269951   3.204   4.838  13.603 -0.0620  0.3008  0.0121
16179TIP3    H169952   3.254   4.814  13.525 -1.3714 -0.2528 -0.6767
16179TIP3    H269953   3.265   4.821  13.675  0.6294 -0.7167 -0.7779
16180TIP3   OH269954   3.206   1.310   4.234 -0.2225 -0.2335  0.3371
16180TIP3    H169955   3.235   1.289   4.145  0.5410  2.8187 -0.2585
16180TIP3    H269956   3.168   1.229   4.267 -0.3361 -1.5350 -2.6874
16181TIP3   OH269957   1.788   3.859  10.315 -0.8257  0.2865 -0.1126
16181TIP3    H169958   1.872   3.904  10.313 -1.1772  1.2951  3.0767
16181TIP3    H269959   1.727   3.919  10.273 -0.3192  0.3390 -0.7922
16182TIP3   OH269960   4.984   5.154   3.411 -0.1044 -0.3379  0.1830
16182TIP3    H169961   5.050   5.144   3.342 -0.1345  0.2323  0.0687
16182TIP3    H269962   4.925   5.222   3.378  0.1041  0.2253  0.9416
16183TIP3   OH269963   1.220   4.130   3.075  0.7962  0.8445  0.0194
16183TIP3    H169964   1.306   4.161   3.101  0.5839  0.4183  1.2852
16183TIP3    H269965   1.159   4.193   3.113  0.5245  0.8888 -0.4771
16184TIP3   OH269966   5.740   4.763   2.211 -0.1031  0.0063 -0.6502
16184TIP3    H169967   5.672   4.798   2.267 -0.0471  0.5403 -0.9070
16184TIP3    H269968   5.804   4.725   2.271  0.4311  1.4164 -0.2837
16185TIP3   OH269969   2.898   4.595   5.304 -0.7119  0.1320  0.6526
16185TIP3    H169970   2.942   4.513   5.283  1.3679  0.8531  1.8700
16185TIP3    H269971   2.862   4.625   5.220 -1.3089 -1.8492  0.1451
16186TIP3   OH269972   2.350   7.128   3.709  0.0984  0.2082  0.2744
16186TIP3    H169973   2.270   7.077   3.699  0.2833 -0.1587  0.6012
16186TIP3    H269974   2.390   7.129   3.622  1.2605 -2.1939  0.6920
16187TIP3   OH269975   6.279   0.224   5.318  0.4071 -0.3385 -0.5346
16187TIP3    H169976   6.240   0.311   5.313 -0.4690 -0.5480  1.4513
16187TIP3    H269977   6.373   0.240   5.321  0.2216  0.6648  1.0127
16188TIP3   OH269978   4.737   6.971  15.595 -0.1991 -0.5661 -0.5855
16188TIP3    H169979   4.701   6.888  15.564 -2.2845  1.1786 -3.2930
16188TIP3    H269980   4.803   6.994  15.530 -0.9726  0.7513 -0.9289
16189TIP3   OH269981   3.704   2.767  15.192  0.0498 -0.2785 -0.1214
16189TIP3    H169982   3.616   2.787  15.223  0.9767  1.7221  1.4181
16189TIP3    H269983   3.724   2.682  15.231  0.0708  0.8509  2.5774
16190TIP3   OH269984   4.022   4.578   1.683 -0.2674  0.7894 -0.2515
16190TIP3    H169985   4.036   4.672   1.680  0.5434  0.6909  0.1560
16190TIP3    H269986   4.056   4.546   1.599  0.1445  0.7821 -0.0862
16191TIP3   OH269987   3.516   5.886  15.581  0.1208  0.5499 -0.5309
16191TIP3    H169988   3.463   5.858  15.506  0.1194  2.2072 -1.1731
16191TIP3    H269989   3.458   5.942  15.632  0.5253  0.4658  0.0285
16192TIP3   OH269990   2.711   3.236   3.289 -0.0527 -0.2319  0.0712
16192TIP3    H169991   2.709   3.249   3.384  0.6490  0.3250  0.0149
16192TIP3    H269992   2.625   3.199   3.268  0.2968 -1.7147  1.1095
16193TIP3   OH269993   6.621   4.762  14.798  0.4826 -0.3811 -0.2609
16193TIP3    H169994   6.691   4.711  14.838  1.3761  1.7450  1.1133
16193TIP3    H269995   6.666   4.823  14.739 -0.1070  1.3002  0.9480
16194TIP3   OH269996   4.734   6.965   4.032 -0.0335  0.2414 -0.4717
16194TIP3    H169997   4.731   7.060   4.041 -0.9715  0.0839  1.3392
16194TIP3    H269998   4.768   6.950   3.944  0.0343  2.2416 -0.8255
16195TIP3   OH269999   3.705   0.286  15.274  0.1818  0.5240  0.0044
16195TIP3    H170000   3.683   0.259  15.184  1.1553  1.4684 -0.5507
16195TIP3    H270001   3.774   0.225  15.301  1.0781  1.2480 -0.5554
16196TIP3   OH270002   1.938   4.375   5.391  0.8454 -0.2234  0.2607
16196TIP3    H170003   1.976   4.453   5.350 -0.5908  0.0511 -0.5855
16196TIP3    H270004   1.951   4.389   5.485  0.1080  1.3075  0.1564
16197TIP3   OH270005   5.261   5.691  14.662  0.0827  0.0129  0.2652
16197TIP3    H170006   5.182   5.638  14.649 -0.9902  1.6771 -0.2841
16197TIP3    H270007   5.333   5.635  14.630 -1.2901 -0.1564 -2.7886
16198TIP3   OH270008   0.396   6.226  13.733 -0.3178  0.1311  0.5418
16198TIP3    H170009   0.370   6.183  13.814  1.3579  1.0519  1.6186
16198TIP3    H270010   0.335   6.193  13.667 -1.3913 -1.0221  2.0668
16199TIP3   OH270011   7.121   3.722   3.448  0.1127 -0.0596 -0.1856
16199TIP3    H170012   7.104   3.672   3.368 -0.2470  0.0016 -0.1512
16199TIP3    H270013   7.089   3.810   3.428 -0.2126 -0.1071  0.1068
16200TIP3   OH270014   3.745   1.790  15.073 -0.2838  0.0438 -0.0083
16200TIP3    H170015   3.783   1.735  15.141  0.6112  0.3536 -0.2313
16200TIP3    H270016   3.776   1.878  15.094 -1.4587  0.4291  0.1855
16201TIP3   OH270017   4.793   6.927  10.665 -0.9562 -0.1015 -0.1604
16201TIP3    H170018   4.818   7.015  10.637 -2.1730  0.1985 -0.3396
16201TIP3    H270019   4.765   6.938  10.756  0.7738 -0.6714  0.4849
16202TIP3   OH270020   3.998   6.264   4.910  0.8375  0.0825  0.3989
16202TIP3    H170021   3.995   6.170   4.932  0.6729  0.4777  2.2636
16202TIP3    H270022   3.924   6.302   4.956  1.0929  1.1908 -0.0728
16203TIP3   OH270023   1.885   0.924   4.726 -1.0189  0.2500 -0.2040
16203TIP3    H170024   1.844   0.850   4.681 -1.5925 -0.3522  1.2357
16203TIP3    H270025   1.814   0.988   4.735 -0.6907  0.7129 -0.8725
16204TIP3   OH270026   3.871   3.989  14.972 -0.0477  0.0231 -1.0537
16204TIP3    H170027   3.922   4.067  14.951 -1.5817  1.2829 -0.3105
16204TIP3    H270028   3.807   3.982  14.902 -1.5403  0.9622  0.1388
16205TIP3   OH270029   5.799   1.220  11.369 -0.5455  0.7986 -0.1571
16205TIP3    H170030   5.883   1.229  11.413  0.3365  1.3791 -1.8911
16205TIP3    H270031   5.794   1.295  11.310 -1.3841 -0.2792 -1.5147
16206TIP3   OH270032   4.710   7.002   3.209 -0.2304 -0.0593  0.3429
16206TIP3    H170033   4.700   7.026   3.301  0.2448 -0.2122  0.4383
16206TIP3    H270034   4.757   7.077   3.170  0.6662 -0.5257  0.4974
16207TIP3   OH270035   5.967   6.560   4.716  0.0874  0.0221  0.0572
16207TIP3    H170036   5.897   6.497   4.733  0.7966 -1.1739 -1.1920
16207TIP3    H270037   5.941   6.603   4.634  0.7652 -0.3793 -0.3759
16208TIP3   OH270038   2.950   6.702  14.418  0.5976  0.4318  0.1345
16208TIP3    H170039   2.855   6.716  14.420  1.0231  4.3259  0.3171
16208TIP3    H270040   2.977   6.712  14.509  1.5700  4.3630 -0.4236
16209TIP3   OH270041   3.221   3.243   4.514 -0.3804 -0.6349  0.0076
16209TIP3    H170042   3.265   3.162   4.541  0.5902  0.3297  1.4966
16209TIP3    H270043   3.162   3.216   4.444  2.3551 -2.0711 -1.9360
16210TIP3   OH270044   4.285   1.241  14.009 -0.6201  0.4669  0.0791
16210TIP3    H170045   4.325   1.256  13.923  2.7924  0.0436  1.4177
16210TIP3    H270046   4.260   1.148  14.008  1.9820 -0.3407  0.3268
16211TIP3   OH270047   4.535   7.087  10.747  0.0777 -0.0579  0.1183
16211TIP3    H170048   4.466   7.022  10.742  0.3433 -0.2852 -0.9811
16211TIP3    H270049   4.578   7.082  10.661  0.9156  0.6610  0.4830
16212TIP3   OH270050   6.080   3.376   5.332  0.0823 -0.3632  0.0352
16212TIP3    H170051   6.078   3.440   5.403  0.6080 -2.0952  1.7334
16212TIP3    H270052   6.158   3.323   5.350  0.2914 -0.8027 -1.9259
16213TIP3   OH270053   5.932   6.964   4.613 -0.0320  0.1517  0.5830
16213TIP3    H170054   5.910   6.884   4.566 -1.2811 -0.3777  1.9771
16213TIP3    H270055   5.859   7.023   4.595 -0.8257 -0.2620  2.2374
16214TIP3   OH270056   2.246   2.956   4.212  0.2653 -0.4415 -0.2401
16214TIP3    H170057   2.290   2.998   4.138 -0.7042  0.4949 -0.2953
16214TIP3    H270058   2.158   2.993   4.213  0.2353 -0.4822  1.3515
16215TIP3   OH270059   0.524   3.220   2.298 -0.3524  0.5814 -0.0308
16215TIP3    H170060   0.468   3.146   2.324  0.6888  0.3637  1.7490
16215TIP3    H270061   0.504   3.288   2.362  0.7543  0.8103  0.0894
16216TIP3   OH270062   1.207   6.472   1.784  0.6027 -0.0394 -0.0636
16216TIP3    H170063   1.121   6.460   1.742  0.4084 -2.3139  0.8339
16216TIP3    H270064   1.239   6.555   1.749 -1.8183  0.7329 -0.6778
16217TIP3   OH270065   4.453   1.014   0.488  1.0135 -0.3485  0.2571
16217TIP3    H170066   4.510   1.058   0.426  1.3823  0.0150  0.8458
16217TIP3    H270067   4.479   0.922   0.485  0.8543 -0.3762 -0.3099
16218TIP3   OH270068   1.476   6.271  13.764  0.6251  0.7170 -0.3669
16218TIP3    H170069   1.461   6.252  13.672  2.5418  1.5050 -0.9041
16218TIP3    H270070   1.487   6.186  13.806 -2.0423  0.2508 -0.4517
16219TIP3   OH270071   2.937   6.076   3.067  0.4243  0.0243 -0.7766
16219TIP3    H170072   2.901   5.988   3.053 -0.4597 -0.4100  3.0706
16219TIP3    H270073   2.873   6.119   3.123  2.6136  1.7294  0.5892
16220TIP3   OH270074   4.334   0.536   4.361  0.6084  0.5052  0.1642
16220TIP3    H170075   4.272   0.606   4.340  1.0560  1.1874  1.0400
16220TIP3    H270076   4.278   0.462   4.386  0.0753 -0.1525 -2.6617
16221TIP3   OH270077   2.662   5.279   2.223  0.0872  0.3711  0.5057
16221TIP3    H170078   2.753   5.267   2.195 -0.5685 -0.3766 -1.4997
16221TIP3    H270079   2.635   5.362   2.183 -0.7371 -0.4943 -0.8288
16222TIP3   OH270080   2.383   5.740  10.564 -0.4862  0.1166 -0.1847
16222TIP3    H170081   2.310   5.770  10.618 -0.0006  1.7726 -0.3939
16222TIP3    H270082   2.347   5.740  10.474 -0.8410 -1.1741 -0.0689
16223TIP3   OH270083   3.252   2.672  14.884 -0.0229 -0.0302  0.4792
16223TIP3    H170084   3.323   2.714  14.835 -0.1310 -0.7793 -0.3434
16223TIP3    H270085   3.240   2.588  14.841 -1.6391  0.2189  0.3841
16224TIP3   OH270086   4.156   5.732   0.392  0.4078 -0.2292 -0.3761
16224TIP3    H170087   4.104   5.665   0.346 -0.4334  0.4609 -0.4718
16224TIP3    H270088   4.237   5.738   0.342  1.4325 -2.6289  0.8196
16225TIP3   OH270089   3.235   2.675   5.062  0.2851 -0.2498  0.3419
16225TIP3    H170090   3.168   2.691   4.996 -0.1101 -1.7288  0.3663
16225TIP3    H270091   3.197   2.611   5.122  2.3450 -2.6282 -0.7068
16226TIP3   OH270092   6.384   2.411   4.195 -0.2455 -0.4386 -0.7065
16226TIP3    H170093   6.350   2.321   4.192 -0.5126 -0.3345 -0.8897
16226TIP3    H270094   6.315   2.463   4.155 -0.2412 -0.1046 -0.2923
16227TIP3   OH270095   2.083   6.652   3.510 -0.2705  0.1313 -0.1761
16227TIP3    H170096   2.008   6.595   3.519  1.0541 -1.6914 -0.1520
16227TIP3    H270097   2.086   6.702   3.592 -0.9154 -0.4398  0.2038
16228TIP3   OH270098   3.286   4.497   4.385 -0.2617 -0.4109  0.2291
16228TIP3    H170099   3.371   4.540   4.382 -0.2612 -0.4568 -0.5941
16228TIP3    H270100   3.223   4.569   4.395 -0.1483 -0.3626  0.6204
16229TIP3   OH270101   0.913   4.618   9.831  0.1779  0.4070  0.1349
16229TIP3    H170102   0.987   4.647   9.883  1.0416  0.0991 -0.8796
16229TIP3    H270103   0.951   4.560   9.765 -1.1246 -0.7639  0.3584
16230TIP3   OH270104   2.358   3.638   1.459  0.6251 -0.5354  0.2724
16230TIP3    H170105   2.349   3.622   1.553  1.0647 -2.5763  0.0233
16230TIP3    H270106   2.275   3.609   1.422  0.2219  0.8248  0.0615
16231TIP3   OH270107   2.354   5.605   4.926 -0.5577  0.8510  0.1228
16231TIP3    H170108   2.351   5.509   4.924 -0.1767  0.8204  0.6260
16231TIP3    H270109   2.281   5.630   4.982  0.5844  0.7413  1.7205
16232TIP3   OH270110   1.700   5.060   5.710 -0.6623  0.4612 -0.6766
16232TIP3    H170111   1.760   5.135   5.708 -1.4248  1.1837  1.1221
16232TIP3    H270112   1.668   5.053   5.619  0.5267  1.3791 -1.1948
16233TIP3   OH270113   4.579   3.818   4.489  0.0867  0.3041 -0.5185
16233TIP3    H170114   4.625   3.788   4.567  1.1763  1.3889 -0.7056
16233TIP3    H270115   4.527   3.743   4.461  0.6364 -0.4955  0.5483
16234TIP3   OH270116   1.209   5.791   2.022  0.0064  0.7047  0.4863
16234TIP3    H170117   1.262   5.712   2.039 -0.3858  0.4596  0.5847
16234TIP3    H270118   1.273   5.861   2.014  0.3101  0.5403  1.3345
16235TIP3   OH270119   1.147   0.412  10.278  0.2368  0.2418 -0.6263
16235TIP3    H170120   1.083   0.348  10.309 -0.8359  1.1364 -0.9155
16235TIP3    H270121   1.231   0.367  10.284 -0.3826 -0.8743  0.0212
16236TIP3   OH270122   1.779   0.973   3.971  0.3686 -0.2335  0.0227
16236TIP3    H170123   1.684   0.968   3.981  0.0659  1.5600 -1.4673
16236TIP3    H270124   1.799   1.066   3.985  1.1718  0.5094 -4.6671
16237TIP3   OH270125   2.377   6.040   5.289 -0.5813  0.1050  0.2142
16237TIP3    H170126   2.462   6.028   5.330 -0.0683  0.1624 -0.7853
16237TIP3    H270127   2.339   5.953   5.285 -1.2800  0.2896  2.0940
16238TIP3   OH270128   2.084   5.186   3.667 -0.2635  0.6083 -0.3528
16238TIP3    H170129   2.076   5.257   3.604  0.2136  0.3211 -0.7446
16238TIP3    H270130   2.087   5.107   3.613 -0.7878  0.2835  0.0758
16239TIP3   OH270131   5.677   4.940   0.334 -0.6563 -0.1375  0.5591
16239TIP3    H170132   5.692   4.965   0.425  0.4310  0.4402  0.2391
16239TIP3    H270133   5.704   5.017   0.283  0.2853 -1.0260 -0.3231
16240TIP3   OH270134   5.037   2.819   3.454  0.1554 -0.9068  0.5752
16240TIP3    H170135   5.020   2.800   3.362  0.1156  3.1275 -0.4209
16240TIP3    H270136   4.951   2.827   3.494 -0.2189  3.5043 -0.6727
16241TIP3   OH270137   3.247   3.254   0.137  0.1807  0.2193 -0.2725
16241TIP3    H170138   3.324   3.301   0.169  0.1403  0.3801 -0.4114
16241TIP3    H270139   3.253   3.168   0.178  1.3354 -0.3646 -1.5980
16242TIP3   OH270140   2.144   3.255   4.061 -0.2616 -1.0811 -0.3676
16242TIP3    H170141   2.198   3.297   4.127 -2.0212 -2.1363  1.8812
16242TIP3    H270142   2.202   3.190   4.020  0.8035 -0.5689  0.2995
16243TIP3   OH270143   0.714   0.759  10.830 -0.1960  0.1079 -0.2883
16243TIP3    H170144   0.728   0.678  10.880 -1.4718  0.9363  1.5149
16243TIP3    H270145   0.619   0.771  10.830 -0.0481  1.3832 -0.8770
16244TIP3   OH270146   4.920   1.894  14.853  0.2683 -0.5431  0.3508
16244TIP3    H170147   4.986   1.873  14.919  1.1365 -2.2129 -0.9453
16244TIP3    H270148   4.913   1.989  14.855  0.8666 -0.5031  2.2506
16245TIP3   OH270149   6.712   1.803  13.589 -0.0419 -0.8231  0.5714
16245TIP3    H170150   6.671   1.800  13.502  2.5161  1.3913 -0.8920
16245TIP3    H270151   6.788   1.745  13.581  0.4880 -0.2211  1.1796
16246TIP3   OH270152   5.810   3.208   2.184  0.0189  0.3474  0.1150
16246TIP3    H170153   5.789   3.294   2.222  1.2959  0.3518  0.8543
16246TIP3    H270154   5.818   3.150   2.259 -3.2607 -1.0712 -0.4530
16247TIP3   OH270155   3.167   6.057  13.395 -0.1472 -0.4652  0.1703
16247TIP3    H170156   3.168   5.965  13.367 -0.7981 -1.0647  1.9832
16247TIP3    H270157   3.087   6.093  13.356  0.1463 -0.6158 -0.6056
16248TIP3   OH270158   6.813   2.658   3.871  0.1448 -0.1541 -0.0571
16248TIP3    H170159   6.901   2.683   3.844  0.7097 -2.9937 -1.1919
16248TIP3    H270160   6.808   2.686   3.963  1.9351  0.7484 -0.1827
16249TIP3   OH270161   5.224   3.945  11.367 -0.1875 -0.5866  0.4412
16249TIP3    H170162   5.316   3.974  11.371  0.5405 -2.7928  0.7443
16249TIP3    H270163   5.216   3.903  11.281 -1.3945  0.9289 -0.2449
16250TIP3   OH270164   4.270   5.573   5.955  0.4420  0.7086 -0.3702
16250TIP3    H170165   4.201   5.626   5.914 -0.8085 -1.3713 -1.1290
16250TIP3    H270166   4.346   5.583   5.897  0.3407  1.8641 -0.3353
16251TIP3   OH270167   0.254   6.631  14.710 -0.5521  0.1423 -0.2989
16251TIP3    H170168   0.172   6.635  14.759 -0.8220  0.6362 -0.7770
16251TIP3    H270169   0.322   6.654  14.775 -0.7310 -0.7392  0.2129
16252TIP3   OH270170   1.718   1.532  15.154 -0.2891  0.3854  0.3711
16252TIP3    H170171   1.732   1.451  15.202 -0.9416  0.7027  1.1175
16252TIP3    H270172   1.657   1.509  15.084  1.3952 -0.2917 -0.9380
16253TIP3   OH270173   6.739   6.689  11.713 -0.8160  0.3852 -0.3841
16253TIP3    H170174   6.697   6.618  11.762 -0.5707  1.2286  1.1114
16253TIP3    H270175   6.681   6.764  11.725 -0.5757  0.7010 -1.1215
16254TIP3   OH270176   3.423   6.270  10.691 -0.3156 -0.6349  0.2059
16254TIP3    H170177   3.410   6.267  10.786  0.7466 -0.8959  0.3526
16254TIP3    H270178   3.518   6.270  10.680 -0.4315 -0.0930 -0.8511
16255TIP3   OH270179   1.418   7.047   3.237 -0.7732 -0.2110 -0.4898
16255TIP3    H170180   1.348   6.982   3.234 -0.4180 -0.5873 -0.6535
16255TIP3    H270181   1.476   7.017   3.307 -0.3187 -0.3742 -0.9289
16256TIP3   OH270182   5.874   6.018   1.016 -0.0150  0.0595 -0.0217
16256TIP3    H170183   5.815   6.054   1.083 -0.2798  0.3785 -0.4213
16256TIP3    H270184   5.929   5.956   1.064 -1.5201 -1.2274  0.1251
16257TIP3   OH270185   5.881   5.315   4.214  0.1438 -0.5521 -0.1979
16257TIP3    H170186   5.938   5.242   4.238 -0.9035 -1.6534 -0.9142
16257TIP3    H270187   5.860   5.298   4.122 -1.8544 -0.5668  0.2177
16258TIP3   OH270188   2.908   5.049   5.360 -0.1813  0.2159 -0.1922
16258TIP3    H170189   2.868   5.111   5.421  1.0143  0.7602  0.0607
16258TIP3    H270190   2.834   5.005   5.319 -1.0314 -0.3449  1.8184
16259TIP3   OH270191   3.306   4.967  10.784 -0.6685 -0.3339 -0.6403
16259TIP3    H170192   3.301   4.924  10.699  0.2158 -1.2083 -0.2646
16259TIP3    H270193   3.216   4.969  10.815 -0.9693 -0.1961 -1.4996
16260TIP3   OH270194   6.371   1.470   4.901  0.7262 -0.1175  0.8114
16260TIP3    H170195   6.291   1.480   4.952  1.3217  0.5328  1.6332
16260TIP3    H270196   6.438   1.514   4.952  1.4294  0.1685 -0.3279
16261TIP3   OH270197   3.881   2.339   4.680  0.2251  0.0085 -0.0206
16261TIP3    H170198   3.969   2.375   4.665  0.8346 -1.3133  0.2088
16261TIP3    H270199   3.862   2.360   4.771  1.6210 -2.2437  0.8858
16262TIP3   OH270200   5.449   6.816   1.330  0.6179  0.1886  0.3255
16262TIP3    H170201   5.370   6.867   1.347  1.1673  0.9695  0.5885
16262TIP3    H270202   5.504   6.830   1.407  0.2463 -1.9124  1.0554
16263TIP3   OH270203   0.894   6.987   1.419 -0.0632 -0.1586  0.6148
16263TIP3    H170204   0.962   6.919   1.413  1.8600  1.7493 -1.3388
16263TIP3    H270205   0.933   7.055   1.474 -0.3001  0.9987 -0.5847
16264TIP3   OH270206   5.001   4.681  14.914 -0.1249  0.1377 -1.2859
16264TIP3    H170207   4.955   4.727  14.844  1.5970 -0.5492 -2.9387
16264TIP3    H270208   4.990   4.588  14.893  0.4545 -0.0785 -0.6762
16265TIP3   OH270209   0.732   6.635   4.756  0.5506  0.0867  0.3281
16265TIP3    H170210   0.801   6.591   4.706 -0.7381 -0.8155 -0.7269
16265TIP3    H270211   0.772   6.654   4.841  2.6043  1.0724 -0.7771
16266TIP3   OH270212   6.783   3.675   3.028 -0.0955  0.1627 -0.5769
16266TIP3    H170213   6.763   3.584   3.051  1.0217 -0.1927 -0.9456
16266TIP3    H270214   6.878   3.678   3.023 -0.0896  1.4887 -0.0679
16267TIP3   OH270215   6.142   0.033   1.751  0.4200 -0.1718 -0.3482
16267TIP3    H170216   6.116  -0.059   1.748  1.1429 -0.4532  1.0707
16267TIP3    H270217   6.194   0.040   1.831 -2.5758  2.2357  1.6055
16268TIP3   OH270218   2.686   3.790   2.873 -0.5660  0.1213  0.3734
16268TIP3    H170219   2.741   3.857   2.832 -1.8268  2.8263  2.8003
16268TIP3    H270220   2.608   3.786   2.818 -0.3045  0.2784 -0.0192
16269TIP3   OH270221   6.396   3.098  15.329 -0.1384 -0.5565 -0.2615
16269TIP3    H170222   6.318   3.084  15.276 -0.3926 -0.1653  0.0035
16269TIP3    H270223   6.395   3.192  15.348  1.3133 -0.2260 -1.6554
16270TIP3   OH270224   5.207   4.540   1.767 -0.0630 -0.2099 -0.0452
16270TIP3    H170225   5.210   4.634   1.785 -2.0845 -0.1223  0.0342
16270TIP3    H270226   5.114   4.519   1.765  0.3595 -2.5308  1.5204
16271TIP3   OH270227   3.540   5.162  13.754  0.3974 -0.3173 -0.1689
16271TIP3    H170228   3.502   5.125  13.675 -4.4740 -0.5511  1.8947
16271TIP3    H270229   3.558   5.086  13.810  0.9806 -0.0213  0.0593
16272TIP3   OH270230   4.377   4.628   2.786 -0.5244  0.3800 -0.1443
16272TIP3    H170231   4.419   4.708   2.757  0.2655  0.6365  1.5657
16272TIP3    H270232   4.344   4.649   2.874  0.2848 -1.3317  0.6206
16273TIP3   OH270233   5.409   1.359   4.228  0.2204  0.2045  0.6714
16273TIP3    H170234   5.450   1.276   4.252  0.7874  0.9194  2.2961
16273TIP3    H270235   5.331   1.364   4.283  0.2498  0.8037  0.6604
16274TIP3   OH270236   5.705   6.718  12.921  0.1744  0.0347  0.2632
16274TIP3    H170237   5.693   6.706  13.016 -0.0132  0.9399  0.3614
16274TIP3    H270238   5.644   6.788  12.898 -1.7930 -1.9436 -1.0422
16275TIP3   OH270239   6.968   5.196  15.009  0.3851  0.1330 -0.5266
16275TIP3    H170240   6.918   5.184  15.090  0.9447  0.6919 -0.0912
16275TIP3    H270241   7.059   5.180  15.035  0.4535 -0.7856 -1.2915
16276TIP3   OH270242   3.748   1.136   4.506 -0.6518 -0.0686  0.2968
16276TIP3    H170243   3.787   1.223   4.520 -2.9256  1.1099 -0.1850
16276TIP3    H270244   3.719   1.108   4.593  2.4498 -1.6869  0.9631
16277TIP3   OH270245   4.022   6.978   3.747 -0.1598  0.5592 -0.1750
16277TIP3    H170246   3.982   6.891   3.750  1.1255 -0.1304 -1.3120
16277TIP3    H270247   3.951   7.039   3.765 -0.6899 -0.7944  2.8563
16278TIP3   OH270248   3.939   2.599   3.000  0.3649 -0.2797 -0.3156
16278TIP3    H170249   4.023   2.634   2.970 -0.5914  2.2187 -0.3003
16278TIP3    H270250   3.894   2.572   2.919  0.0915  1.0339 -0.6262
16279TIP3   OH270251   4.505   2.130  13.977 -0.1076  0.1526  0.4700
16279TIP3    H170252   4.600   2.135  13.991  0.4537  0.2297 -2.5194
16279TIP3    H270253   4.490   2.038  13.953 -0.8551  0.0767  1.1969
16280TIP3   OH270254   5.759   1.427   2.163 -0.2197 -0.4355 -0.3110
16280TIP3    H170255   5.717   1.408   2.080  0.6790 -0.6172 -0.7408
16280TIP3    H270256   5.717   1.368   2.226  0.6823 -1.9905 -1.1049
16281TIP3   OH270257   4.485   3.804   5.137  0.3983  0.0522  0.1083
16281TIP3    H170258   4.511   3.815   5.228  0.1752 -0.4806  0.2404
16281TIP3    H270259   4.423   3.875   5.120  0.5571  0.2412  0.3265
16282TIP3   OH270260   0.010   6.805   2.173 -0.6883 -0.3132 -0.3152
16282TIP3    H170261  -0.011   6.888   2.217 -0.2293  0.2698 -1.1626
16282TIP3    H270262   0.078   6.766   2.227  0.0576  0.5180 -0.6333
16283TIP3   OH270263   1.221   0.052   3.872  0.2870  0.4990  0.8294
16283TIP3    H170264   1.227   0.053   3.968  2.1735 -0.9537  0.7925
16283TIP3    H270265   1.170  -0.027   3.853 -0.6724  1.1524  0.6243
16284TIP3   OH270266   2.531   3.062  12.390 -0.1097  0.2143 -0.0475
16284TIP3    H170267   2.439   3.053  12.365 -0.1846 -0.5999  0.4884
16284TIP3    H270268   2.569   3.120  12.324 -0.9030  0.1939 -0.5257
16285TIP3   OH270269   0.460   0.240   2.134  0.0624 -0.1498  0.2758
16285TIP3    H170270   0.414   0.315   2.094  0.1846 -0.0217  0.3746
16285TIP3    H270271   0.398   0.203   2.196 -0.1713 -0.4183 -0.1140
16286TIP3   OH270272   6.990   2.581  13.991 -0.8223  0.2880 -0.0472
16286TIP3    H170273   6.990   2.486  13.998 -0.1925  0.2111 -0.9661
16286TIP3    H270274   6.907   2.608  14.030 -1.1538 -0.6621 -0.0807
16287TIP3   OH270275   6.063   5.111   1.869  0.3273  0.0957 -0.2630
16287TIP3    H170276   6.158   5.120   1.862  0.1889  0.6842 -1.8617
16287TIP3    H270277   6.042   5.042   1.805 -0.3182 -0.0745  0.1285
16288TIP3   OH270278   3.624   6.011  12.375  0.4999 -0.2859  0.3990
16288TIP3    H170279   3.646   5.918  12.371  3.0258  0.2582  0.2645
16288TIP3    H270280   3.706   6.055  12.396 -0.6529  1.9321  0.6089
16289TIP3   OH270281   5.373   1.112   5.782 -0.0922  0.3716 -0.1903
16289TIP3    H170282   5.385   1.056   5.858 -0.7663 -0.0572 -0.3921
16289TIP3    H270283   5.282   1.097   5.755  0.6229 -0.8575 -2.1306
16290TIP3   OH270284   5.275   4.712   1.430  0.2039 -0.6053  0.3607
16290TIP3    H170285   5.217   4.684   1.359  2.9453 -0.9401 -1.9616
16290TIP3    H270286   5.218   4.758   1.491 -2.1172  1.7020 -3.1322
16291TIP3   OH270287   5.416   2.598  11.670  0.8466 -0.1535 -0.3884
16291TIP3    H170288   5.443   2.523  11.723 -1.3527 -1.6189 -1.1639
16291TIP3    H270289   5.394   2.666  11.733  2.2694 -0.3641  0.3664
16292TIP3   OH270290   1.783   1.568  11.114  0.5026 -0.2817  0.6343
16292TIP3    H170291   1.730   1.516  11.174 -1.4827 -1.8303 -2.1870
16292TIP3    H270292   1.764   1.658  11.137  0.0788 -0.7944  2.4773
16293TIP3   OH270293   2.403   0.883   4.866 -0.4200 -0.4320 -0.2160
16293TIP3    H170294   2.457   0.827   4.922  1.5262  1.8567  0.3343
16293TIP3    H270295   2.333   0.913   4.924 -2.6123 -3.5596 -0.9794
16294TIP3   OH270296   5.388   2.487   0.359  0.2589 -0.2730 -0.1947
16294TIP3    H170297   5.345   2.430   0.295  0.0708 -0.1566 -0.1718
16294TIP3    H270298   5.422   2.560   0.307 -0.3156  0.0648 -0.0946
16295TIP3   OH270299   2.916   3.409   3.528  0.4257 -0.2334 -0.4845
16295TIP3    H170300   3.012   3.412   3.533  0.5120  1.6095 -2.0646
16295TIP3    H270301   2.890   3.499   3.510 -1.6116 -0.7481 -0.3565
16296TIP3   OH270302   5.705   2.420   3.578 -0.3914 -0.9379 -0.2725
16296TIP3    H170303   5.774   2.384   3.633  1.5761  0.7021 -1.5308
16296TIP3    H270304   5.659   2.343   3.544  0.6045 -2.0742  0.8560
16297TIP3   OH270305   0.507   0.033  14.519  0.1330 -0.4513 -0.5570
16297TIP3    H170306   0.573   0.087  14.475 -1.2772  0.2290 -1.9539
16297TIP3    H270307   0.507   0.065  14.609  0.4275  0.8095 -0.9718
16298TIP3   OH270308   6.785   3.362   5.124  0.5711 -0.6025 -0.9697
16298TIP3    H170309   6.863   3.308   5.108  0.9250  0.1935 -2.0782
16298TIP3    H270310   6.787   3.427   5.054  0.0066  0.6747  0.1686
16299TIP3   OH270311   4.459   0.484   0.841  0.4227  0.4465 -0.3749
16299TIP3    H170312   4.465   0.399   0.885  0.9809  0.2334 -0.8504
16299TIP3    H270313   4.474   0.465   0.749  1.4177  1.1716 -0.3827
16300TIP3   OH270314   0.081   0.265   2.546  0.9560 -0.0027  0.3250
16300TIP3    H170315   0.146   0.325   2.511  1.9835 -1.2697 -0.0144
16300TIP3    H270316   0.002   0.283   2.496  1.4368  0.5805 -0.2394
16301TIP3   OH270317   1.929   2.708  12.034  0.3642 -0.3247  0.2058
16301TIP3    H170318   1.837   2.720  12.012  0.7540 -2.2827 -3.1056
16301TIP3    H270319   1.948   2.777  12.098 -3.0532  0.8754  0.0909
16302TIP3   OH270320   6.131   3.603   1.214  0.0638 -0.4757  0.1514
16302TIP3    H170321   6.081   3.538   1.165 -1.0464  0.9493 -0.7114
16302TIP3    H270322   6.068   3.674   1.231  0.7801 -0.3050  2.4965
16303TIP3   OH270323   1.307   5.732  15.037 -0.1700 -0.2726  0.3110
16303TIP3    H170324   1.392   5.744  15.079 -0.1150  2.2079 -0.3548
16303TIP3    H270325   1.256   5.808  15.064 -0.3113  1.2013 -3.5368
16304TIP3   OH270326   0.514   6.452   5.133  0.3435 -0.3072 -0.0098
16304TIP3    H170327   0.521   6.371   5.082  2.5903 -1.1599  1.4980
16304TIP3    H270328   0.591   6.502   5.109 -0.5400  1.0019 -0.2106
16305TIP3   OH270329   3.939   1.705   3.456 -0.1487  0.4316 -0.1936
16305TIP3    H170330   4.006   1.720   3.389 -1.7629  0.6559 -1.8333
16305TIP3    H270331   3.977   1.741   3.536  1.7520  0.3862 -1.0171
16306TIP3   OH270332   2.992   1.044  14.838  0.5930  0.0065 -0.3192
16306TIP3    H170333   3.065   1.095  14.802 -0.6587  0.4961 -2.3370
16306TIP3    H270334   2.989   0.965  14.784 -0.0597 -0.2559  0.0935
16307TIP3   OH270335   6.304   5.877   4.612 -0.0637  0.0182  1.3595
16307TIP3    H170336   6.256   5.959   4.620 -0.1061  0.3559 -1.4249
16307TIP3    H270337   6.396   5.904   4.606  0.0197 -0.2183  1.5715
16308TIP3   OH270338   6.576   0.118   4.145  0.1824  0.2527 -0.0644
16308TIP3    H170339   6.612   0.182   4.084  2.3913 -1.6390 -0.8937
16308TIP3    H270340   6.558   0.041   4.092  0.1314 -0.7186  1.2915
16309TIP3   OH270341   5.103   6.484   4.793  0.3955  0.5253  0.1428
16309TIP3    H170342   5.062   6.550   4.737 -0.2872 -0.4321 -0.5029
16309TIP3    H270343   5.037   6.416   4.804  0.3130  0.8924  2.5562
16310TIP3   OH270344   3.901   3.319  13.486 -0.6097 -0.0026 -0.4806
16310TIP3    H170345   3.988   3.352  13.464 -1.3523  0.0839 -3.8006
16310TIP3    H270346   3.915   3.267  13.565  2.2657  0.7659 -0.3627
16311TIP3   OH270347   0.519   5.517  13.133  0.3498  0.4577 -0.2418
16311TIP3    H170348   0.606   5.525  13.173 -0.2364 -1.8294  1.7181
16311TIP3    H270349   0.468   5.588  13.171  0.6366  0.1548  0.7246
16312TIP3   OH270350   4.871   2.804   0.735  0.7375 -0.0948  0.3008
16312TIP3    H170351   4.834   2.718   0.755  1.1034 -0.1237  0.8762
16312TIP3    H270352   4.848   2.819   0.643 -0.9912  0.0486  0.7247
16313TIP3   OH270353   4.197   0.548  10.767 -0.8142 -0.4395  0.0772
16313TIP3    H170354   4.248   0.470  10.744 -0.6388 -0.3847  0.2701
16313TIP3    H270355   4.220   0.565  10.858  1.3442  1.4604 -0.7161
16314TIP3   OH270356   6.282   6.986   2.636  0.0247 -0.1147 -0.3254
16314TIP3    H170357   6.234   7.004   2.717 -0.6343 -0.4863 -0.6206
16314TIP3    H270358   6.354   7.049   2.636 -0.0877  0.0257  0.4469
16315TIP3   OH270359   6.774   3.801   2.476  0.2040  0.1466  0.0553
16315TIP3    H170360   6.720   3.877   2.495  1.7869  1.4274 -0.2991
16315TIP3    H270361   6.836   3.796   2.549  0.1499 -0.7708  0.0481
16316TIP3   OH270362   1.999   2.043  11.982 -0.2789 -0.3426  0.1339
16316TIP3    H170363   1.943   2.113  12.017 -0.3380 -1.5313  2.6127
16316TIP3    H270364   2.063   2.028  12.051  1.7577 -0.5734 -1.7132
16317TIP3   OH270365   1.741   1.229  12.175  0.8559 -0.1969  0.1131
16317TIP3    H170366   1.717   1.203  12.264  1.0496 -0.2089  0.1620
16317TIP3    H270367   1.796   1.306  12.186 -1.5703  1.6897 -0.1137
16318TIP3   OH270368   0.397   0.497   1.168  0.1800  0.1352 -0.4402
16318TIP3    H170369   0.458   0.539   1.229 -0.8217  1.8548 -0.5521
16318TIP3    H270370   0.411   0.403   1.181  2.1380  0.4772  0.2230
16319TIP3   OH270371   5.984   6.283   3.776  0.5600  0.0570 -0.4240
16319TIP3    H170372   5.949   6.282   3.688  0.5874 -0.3241 -0.4328
16319TIP3    H270373   5.993   6.190   3.800 -0.5600  0.1435  0.4260
16320TIP3   OH270374   1.303   1.059   3.460  0.2294  0.2975 -0.6280
16320TIP3    H170375   1.310   0.966   3.480  2.4351  0.9683  2.3789
16320TIP3    H270376   1.394   1.088   3.447 -0.3110  2.2283 -0.4217
16321TIP3   OH270377   5.762   1.286  13.279  0.1427  1.0923  0.0540
16321TIP3    H170378   5.714   1.311  13.358 -1.0137 -4.6668  1.6168
16321TIP3    H270379   5.696   1.248  13.222  1.8697 -1.0972 -0.6184
16322TIP3   OH270380   0.405   3.512  12.618  0.3137 -0.3507 -0.0264
16322TIP3    H170381   0.409   3.428  12.573  1.1515 -0.9931  1.2005
16322TIP3    H270382   0.426   3.492  12.709 -1.9841  0.8083  0.8378
16323TIP3   OH270383   4.575   4.003  14.456 -0.0423  0.0001  0.1956
16323TIP3    H170384   4.624   4.070  14.409  2.0128 -1.5497 -0.0040
16323TIP3    H270385   4.641   3.954  14.505 -1.5277 -1.5058  0.8087
16324TIP3   OH270386   1.627   4.528   0.214 -0.5126 -0.0811  0.3164
16324TIP3    H170387   1.621   4.435   0.193 -2.5888 -0.0602  0.5341
16324TIP3    H270388   1.553   4.543   0.274  0.0968  1.5989  0.6963
16325TIP3   OH270389   1.540   5.011   0.528  0.1273 -0.0276  0.0815
16325TIP3    H170390   1.544   5.078   0.596  1.3390 -0.6478  0.6554
16325TIP3    H270391   1.558   4.929   0.573 -1.5763 -0.8001 -0.5712
16326TIP3   OH270392   4.813   2.517   4.304 -0.1068  0.0025 -0.2141
16326TIP3    H170393   4.854   2.541   4.387 -0.8607  2.8066 -0.5407
16326TIP3    H270394   4.727   2.559   4.307  1.0494  3.1272 -3.6261
16327TIP3   OH270395   3.861   0.649   5.527  0.2768 -0.4706 -0.9608
16327TIP3    H170396   3.917   0.590   5.578 -1.4665 -0.5263  1.0537
16327TIP3    H270397   3.818   0.703   5.593  0.1894  1.6143 -2.6366
16328TIP3   OH270398   4.889   1.786   0.557  0.0657 -0.3496 -0.0381
16328TIP3    H170399   4.804   1.797   0.598  0.0725 -2.6652  0.7244
16328TIP3    H270400   4.937   1.866   0.579 -0.9855 -0.1912  1.8798
16329TIP3   OH270401   3.091   2.085  13.808  0.4235  0.0793 -0.3643
16329TIP3    H170402   3.108   2.114  13.897 -3.2312 -1.9929  1.2423
16329TIP3    H270403   3.154   2.015  13.793  0.9060  0.2670  0.7136
16330TIP3   OH270404   4.250   0.038   5.057  0.2225 -0.2018 -0.1826
16330TIP3    H170405   4.326   0.068   5.107 -0.8670  0.3349  1.2342
16330TIP3    H270406   4.175   0.057   5.114 -0.8370 -2.3456 -0.7677
16331TIP3   OH270407   6.915   3.459   2.179  0.1998  0.0209  0.0149
16331TIP3    H170408   6.825   3.487   2.200 -0.3527 -1.6368 -0.0151
16331TIP3    H270409   6.915   3.451   2.084  0.5797  0.6137 -0.0397
16332TIP3   OH270410   5.688   0.278  14.283  0.2500  0.5895 -0.1643
16332TIP3    H170411   5.768   0.253  14.328  0.4025 -0.5973 -1.0186
16332TIP3    H270412   5.707   0.363  14.245  0.2657  1.4056  1.5849
16333TIP3   OH270413   2.372   2.512   5.713 -0.9116 -0.1210  0.0795
16333TIP3    H170414   2.350   2.472   5.797  0.9525  0.3803  0.8549
16333TIP3    H270415   2.304   2.577   5.699 -0.9946  0.1272  1.4633
16334TIP3   OH270416   0.908   1.882   1.597 -1.0151 -0.0086  0.1239
16334TIP3    H170417   0.904   1.906   1.504 -1.0788  0.1581  0.1700
16334TIP3    H270418   0.895   1.788   1.598  1.6410 -0.4799 -0.2908
16335TIP3   OH270419   2.700   5.107   1.337 -0.4073  0.2053  0.8726
16335TIP3    H170420   2.678   5.077   1.249 -0.0234  0.6848  0.6055
16335TIP3    H270421   2.793   5.088   1.346 -0.7732 -1.3199  1.7902
16336TIP3   OH270422   6.362   4.262   5.009 -0.2288 -0.2647  0.0117
16336TIP3    H170423   6.383   4.326   4.940  2.5243 -0.7745  0.2562
16336TIP3    H270424   6.282   4.296   5.049  0.6845  2.6365 -0.3540
16337TIP3   OH270425   5.977   1.132   2.385 -0.6522 -0.1552  0.0239
16337TIP3    H170426   5.890   1.145   2.346 -0.2646 -0.5177 -1.0143
16337TIP3    H270427   5.972   1.173   2.471 -1.4335  1.0717 -0.5807
16338TIP3   OH270428   4.571   4.218   3.893  0.1164  0.1502 -0.0341
16338TIP3    H170429   4.621   4.210   3.812  0.0432  1.2156 -0.2030
16338TIP3    H270430   4.637   4.232   3.960  0.1097  0.5638 -0.1099
16339TIP3   OH270431   6.522   5.085  10.610 -0.0349 -0.7641 -0.4821
16339TIP3    H170432   6.479   5.024  10.670 -0.8376  1.1349  1.0039
16339TIP3    H270433   6.564   5.150  10.667 -1.0524  1.2834 -1.9151
16340TIP3   OH270434   3.234   2.589   2.376 -0.1589  0.0233  0.0118
16340TIP3    H170435   3.278   2.505   2.367  1.7155  1.0838 -1.3974
16340TIP3    H270436   3.237   2.627   2.288 -1.9203  1.1347  0.3788
16341TIP3   OH270437   0.058   3.669   4.875  0.3366 -0.1293 -0.2933
16341TIP3    H170438   0.112   3.695   4.949 -0.3495  0.5319 -0.0079
16341TIP3    H270439   0.120   3.660   4.802  0.8997  0.0617  0.1520
16342TIP3   OH270440   0.269   5.181  13.842  0.7680  0.5795 -0.6021
16342TIP3    H170441   0.336   5.243  13.872  3.1905 -1.1512 -2.0718
16342TIP3    H270442   0.276   5.183  13.746  0.3002 -1.2912 -0.7074
16343TIP3   OH270443   2.740   2.093   3.698  0.2883  0.4052  1.3397
16343TIP3    H170444   2.735   2.130   3.786  0.2755 -1.0031  1.9630
16343TIP3    H270445   2.677   2.020   3.698 -0.0820  0.6874  0.0005
16344TIP3   OH270446   3.717   2.839  13.997 -0.1289  0.3164 -0.4533
16344TIP3    H170447   3.808   2.813  14.007  0.0778  1.1216 -0.1954
16344TIP3    H270448   3.681   2.778  13.932  1.0840  1.1889 -1.9834
16345TIP3   OH270449   4.863   1.496   4.468 -0.9460 -0.3487  0.0580
16345TIP3    H170450   4.892   1.576   4.512  0.7412 -1.2350  0.6515
16345TIP3    H270451   4.800   1.457   4.528  2.7494 -2.5589  2.9046
16346TIP3   OH270452   5.445   1.349   0.699 -0.8525 -0.1132  0.7880
16346TIP3    H170453   5.467   1.265   0.661 -2.0101  0.7715 -2.0581
16346TIP3    H270454   5.477   1.414   0.637 -1.2220  1.5373  2.2102
16347TIP3   OH270455   4.839   4.544  11.722 -0.4547  0.6281 -0.4733
16347TIP3    H170456   4.823   4.627  11.677  0.1661  1.5735  0.9604
16347TIP3    H270457   4.870   4.570  11.809  1.8857 -1.0942 -0.7170
16348TIP3   OH270458   3.917   1.703   4.245  0.3817 -0.3477 -0.8664
16348TIP3    H170459   3.836   1.664   4.213 -0.0398  0.9611 -1.4445
16348TIP3    H270460   3.892   1.747   4.326  0.4745  0.1838 -1.1212
16349TIP3   OH270461   4.381   1.982   1.163 -0.4801  0.3139  0.3905
16349TIP3    H170462   4.369   1.935   1.246  2.4287 -1.5981 -0.1363
16349TIP3    H270463   4.316   1.944   1.104 -0.5275 -0.5200  0.9694
16350TIP3   OH270464   3.392   2.481   3.215  0.5809  0.6549  0.2068
16350TIP3    H170465   3.470   2.446   3.173  0.2183  0.1376 -0.0392
16350TIP3    H270466   3.332   2.407   3.221  0.3483  0.8936  0.9751
16351TIP3   OH270467   1.801   1.258   4.586 -0.2450 -0.0057  0.2335
16351TIP3    H170468   1.822   1.239   4.678 -2.0623 -0.2604  0.6384
16351TIP3    H270469   1.776   1.351   4.587 -1.1225 -0.2335  0.1832
16352TIP3   OH270470   1.805   0.768   3.207  0.4905  0.2470  0.0748
16352TIP3    H170471   1.712   0.782   3.189  0.4586  1.0596  0.7930
16352TIP3    H270472   1.834   0.850   3.248  1.1253 -0.5933  1.3798
16353TIP3   OH270473   4.601   4.865  11.070 -0.4201 -0.5306  0.2602
16353TIP3    H170474   4.608   4.946  11.121 -2.0512 -0.0799 -0.1699
16353TIP3    H270475   4.691   4.845  11.044  0.1225  0.6376  1.1450
16354TIP3   OH270476   2.395   4.100   3.484 -0.3769 -0.2804  0.1249
16354TIP3    H170477   2.301   4.085   3.478 -0.0757 -1.9381 -0.9904
16354TIP3    H270478   2.423   4.119   3.394  0.6698 -2.0617  0.0263
16355TIP3   OH270479   0.920   3.413  15.181  0.0091  0.6195 -0.3767
16355TIP3    H170480   0.830   3.408  15.147  0.6723 -1.6714 -2.0327
16355TIP3    H270481   0.931   3.331  15.230  1.1792  0.9499 -0.0675
16356TIP3   OH270482   0.426   5.431   3.412  0.2139 -0.8023 -0.3376
16356TIP3    H170483   0.372   5.401   3.340  0.0001 -0.4894 -0.3116
16356TIP3    H270484   0.438   5.525   3.396  1.9986 -1.1257 -1.1640
16357TIP3   OH270485   5.774   1.856  15.519  0.3597  0.2816 -0.1897
16357TIP3    H170486   5.758   1.790  15.451 -0.2557 -0.2173  0.4271
16357TIP3    H270487   5.713   1.927  15.498 -0.2621 -0.1391  0.1953
16358TIP3   OH270488   5.241   3.136   0.057 -0.6370  0.3138  0.3164
16358TIP3    H170489   5.204   3.071   0.117  0.6186 -0.7696 -0.0371
16358TIP3    H270490   5.261   3.086  -0.023  0.4764  1.0991  0.0847
16359TIP3   OH270491   0.125   3.406   2.043  0.6537  0.3159  0.1887
16359TIP3    H170492   0.102   3.438   2.131  1.1111  2.1356 -0.3260
16359TIP3    H270493   0.120   3.310   2.051 -2.9837  0.4291  1.2195
16360TIP3   OH270494   0.310   4.553   4.117 -0.5554  0.2997 -0.1056
16360TIP3    H170495   0.318   4.550   4.021  0.5817 -0.5443 -0.0042
16360TIP3    H270496   0.315   4.646   4.138 -0.9368  0.5013 -0.8712
16361TIP3   OH270497   5.152   1.706   1.138  0.1952  0.1416  0.0752
16361TIP3    H170498   5.139   1.663   1.053  1.2707  0.3669 -0.2192
16361TIP3    H270499   5.151   1.635   1.202  0.1780 -0.1191 -0.2129
16362TIP3   OH270500   5.051   1.058   4.931 -0.4774 -0.1195 -0.4772
16362TIP3    H170501   5.036   1.067   5.025  0.2792 -1.2209 -0.2262
16362TIP3    H270502   5.101   1.136   4.907 -0.2874 -0.0439  0.1296
16363TIP3   OH270503   2.885   3.661   3.431  0.3080  0.4922  0.3891
16363TIP3    H170504   2.808   3.671   3.374  0.1515 -0.4055  0.4240
16363TIP3    H270505   2.896   3.747   3.472 -0.6239  0.6558  0.3150
16364TIP3   OH270506   2.833   4.494   0.297  0.0320 -0.1165 -0.0475
16364TIP3    H170507   2.878   4.411   0.313  1.7875  0.5170 -1.3900
16364TIP3    H270508   2.887   4.538   0.231 -0.6757  2.2480  0.8710
16365TIP3   OH270509   6.239   7.077   0.507  0.4372 -0.2161  0.5242
16365TIP3    H170510   6.233   7.068   0.411  2.1970  2.3042  0.0782
16365TIP3    H270511   6.281   6.996   0.536  0.1684 -0.8884 -0.8395
16366TIP3   OH270512   1.236   3.104  15.212 -0.0687  0.4082 -0.3020
16366TIP3    H170513   1.311   3.078  15.265 -1.0358 -1.0438  0.4195
16366TIP3    H270514   1.201   3.181  15.257 -0.3442 -0.2701  0.6841
16367TIP3   OH270515   1.782   1.044   2.149  0.4126  0.2760  0.4113
16367TIP3    H170516   1.783   1.019   2.056  1.0569  2.4368 -0.2362
16367TIP3    H270517   1.698   1.088   2.160  0.8634  1.1506  0.4787
16368TIP3   OH270518   3.485   6.847   9.443 -0.1594 -0.3182 -0.1284
16368TIP3    H170519   3.422   6.777   9.459  0.4766 -0.6608  1.0094
16368TIP3    H270520   3.561   6.825   9.498 -0.2870  1.6957  0.9680
16369TIP3   OH270521   6.929   6.814  12.418  0.3630 -0.2811  0.5896
16369TIP3    H170522   6.925   6.906  12.390 -0.5661 -0.2539  0.7776
16369TIP3    H270523   6.963   6.817  12.507  3.4041 -0.3693 -0.4442
16370TIP3   OH270524   5.836   1.411  15.092 -0.1693  0.6296 -0.8421
16370TIP3    H170525   5.829   1.316  15.102 -3.1351  0.7345 -0.9055
16370TIP3    H270526   5.894   1.423  15.017  0.1469 -1.1201 -0.9328
16371TIP3   OH270527   4.896   1.573   2.064 -0.3641 -0.4469 -0.0029
16371TIP3    H170528   4.919   1.570   1.971  1.0212 -1.2503  0.3382
16371TIP3    H270529   4.869   1.483   2.084 -1.5932 -0.0549  0.1673
16372TIP3   OH270530   6.952   4.484   4.888 -0.4587  0.2020  0.2561
16372TIP3    H170531   6.908   4.568   4.896 -1.1991 -0.2806  1.5577
16372TIP3    H270532   6.884   4.419   4.906  0.5962 -0.5838  1.6260
16373TIP3   OH270533   5.036   5.549   4.470  0.3440  0.3060 -0.0828
16373TIP3    H170534   4.956   5.551   4.417  1.7795 -1.5748 -2.5497
16373TIP3    H270535   5.030   5.465   4.516  0.1466  0.9379  1.0743
16374TIP3   OH270536   6.776   7.131  11.815 -0.0427  0.1631 -0.3421
16374TIP3    H170537   6.741   7.080  11.888  1.6637  0.8989  1.0427
16374TIP3    H270538   6.699   7.175  11.779 -0.8542  0.3136  1.4485
16375TIP3   OH270539   5.236   0.770   1.384  0.0317 -0.0094  0.3415
16375TIP3    H170540   5.197   0.854   1.362  0.0214 -0.0307  0.2776
16375TIP3    H270541   5.249   0.727   1.299 -1.6192 -0.8202  0.4468
16376TIP3   OH270542   2.422   5.504  11.550  0.8134 -0.2417  0.1410
16376TIP3    H170543   2.348   5.466  11.502 -0.6138  2.4110  0.0427
16376TIP3    H270544   2.489   5.519  11.484  0.7141 -0.9723 -0.1257
16377TIP3   OH270545   0.998   3.534  12.454  0.0500 -0.4438 -0.5838
16377TIP3    H170546   1.039   3.510  12.371  1.1454 -1.4789  0.2121
16377TIP3    H270547   1.070   3.533  12.517 -0.6937  0.6589  0.3323
16378TIP3   OH270548   5.351   2.059   2.999 -0.4757 -0.1181  0.0500
16378TIP3    H170549   5.354   2.006   2.919 -0.4533 -1.3829  0.8523
16378TIP3    H270550   5.381   2.146   2.972 -0.7148 -0.4475 -1.3618
16379TIP3   OH270551   3.275   5.612   5.670  0.1548  0.2688  0.1096
16379TIP3    H170552   3.339   5.627   5.739  0.7643 -1.0993 -0.1318
16379TIP3    H270553   3.287   5.685   5.609 -0.4712  1.5608  1.4666
16380TIP3   OH270554   6.637   4.382   1.944  0.3062  0.0501  0.0184
16380TIP3    H170555   6.729   4.405   1.958  0.6246  0.0843 -1.9579
16380TIP3    H270556   6.640   4.299   1.897 -0.7510 -0.8988  1.5215
16381TIP3   OH270557   2.473   0.012   2.265  0.6076  0.1654  0.0175
16381TIP3    H170558   2.462  -0.081   2.246  3.2505 -0.1992 -0.1452
16381TIP3    H270559   2.505   0.015   2.355  2.3826  0.7071 -0.5802
16382TIP3   OH270560   4.601   2.441  14.816 -0.1206  0.0933 -0.5732
16382TIP3    H170561   4.568   2.429  14.727  1.6551 -1.6925 -1.0648
16382TIP3    H270562   4.553   2.378  14.869 -0.2989  0.2921 -0.4953
16383TIP3   OH270563   4.314   0.271  10.032  0.0788 -0.6447 -0.3244
16383TIP3    H170564   4.345   0.249   9.944  0.9930  2.6058 -0.9525
16383TIP3    H270565   4.392   0.261  10.088  0.0029 -0.8401 -0.2529
16384TIP3   OH270566   6.122   3.550   5.551  0.2317  0.2307  0.0907
16384TIP3    H170567   6.188   3.614   5.524 -0.4899  1.6581  1.5549
16384TIP3    H270568   6.169   3.488   5.607  0.2635  1.5851  1.6240
16385TIP3   OH270569   1.831   2.433   1.642  0.8389 -0.5880  0.1947
16385TIP3    H170570   1.764   2.368   1.663  0.6252 -0.9102 -1.3321
16385TIP3    H270571   1.906   2.381   1.612  1.9271 -0.2537  2.1126
16386TIP3   OH270572   0.758   7.104   3.778 -0.4845 -0.2394 -0.6193
16386TIP3    H170573   0.800   7.166   3.838  0.8199  0.5449 -2.2409
16386TIP3    H270574   0.813   7.025   3.783 -0.9047 -0.5033 -0.1237
16387TIP3   OH270575   4.713   6.204   5.053  0.7510 -0.1576 -0.1486
16387TIP3    H170576   4.725   6.114   5.022  2.4562  0.1898 -0.6006
16387TIP3    H270577   4.712   6.195   5.149 -0.7129 -0.8077 -0.1953
16388TIP3   OH270578   5.195   0.807   5.210 -0.2489  0.0478  0.0504
16388TIP3    H170579   5.113   0.849   5.183  0.1852  0.4320 -0.6969
16388TIP3    H270580   5.251   0.879   5.240 -0.4664 -0.2995  1.3520
16389TIP3   OH270581   3.059   4.566  11.188 -0.1793 -0.3198  0.0311
16389TIP3    H170582   3.144   4.608  11.202  0.1129 -0.9287  0.0847
16389TIP3    H270583   3.054   4.496  11.253 -1.1603  0.3508  0.7112
16390TIP3   OH270584   0.074   4.416   5.178 -0.7004 -0.5388 -0.4219
16390TIP3    H170585   0.057   4.334   5.132  1.0838 -1.6053  0.7095
16390TIP3    H270586   0.088   4.480   5.107 -1.0990 -1.4221 -1.3291
16391TIP3   OH270587   0.106   0.175   5.092 -0.2900  0.2972  0.6858
16391TIP3    H170588   0.129   0.097   5.042  1.0307  0.6495  0.7109
16391TIP3    H270589   0.050   0.143   5.162 -0.1788 -0.5474  0.3987
16392TIP3   OH270590   0.546   5.815  14.577 -0.9309 -0.1202 -0.2193
16392TIP3    H170591   0.517   5.899  14.614  0.0277  1.1069 -2.0993
16392TIP3    H270592   0.629   5.797  14.622  0.1904  1.3222 -1.5955
16393TIP3   OH270593   6.644   0.363   2.498  0.9824  0.5005  0.0340
16393TIP3    H170594   6.648   0.275   2.462 -2.2182 -0.4657  1.6390
16393TIP3    H270595   6.718   0.368   2.559  1.8204 -0.6479 -0.8432
16394TIP3   OH270596   4.082   5.421  13.145  0.2714 -0.2987  0.2040
16394TIP3    H170597   4.104   5.431  13.237  3.8865  0.3544 -0.5767
16394TIP3    H270598   4.126   5.340  13.118  1.4611  0.8366 -1.4544
16395TIP3   OH270599   6.095   6.647   2.682  0.0259 -0.2189 -0.5829
16395TIP3    H170600   6.102   6.612   2.771  1.1413  0.4409 -0.3909
16395TIP3    H270601   6.185   6.667   2.657 -0.3787  0.6090 -1.4430
16396TIP3   OH270602   1.809   2.979   4.815  0.2328  0.2191 -0.0796
16396TIP3    H170603   1.772   3.028   4.889  3.0050  2.4525 -0.0117
16396TIP3    H270604   1.754   2.901   4.808 -2.6215  1.9048  1.7083
16397TIP3   OH270605   4.031   5.521   4.986  0.2290 -0.2785 -0.0759
16397TIP3    H170606   4.043   5.483   4.899 -0.4377  0.5460 -0.5475
16397TIP3    H270607   4.077   5.461   5.045  1.6862 -0.2484 -1.1142
16398TIP3   OH270608   2.531   4.768   0.030  0.1584  0.7419 -0.0173
16398TIP3    H170609   2.465   4.829  -0.003 -1.8033 -0.1311  1.9556
16398TIP3    H270610   2.562   4.808   0.111 -0.2766 -0.2713  0.6749
16399TIP3   OH270611   6.778   2.270  14.129 -0.4513  0.0609 -0.1795
16399TIP3    H170612   6.745   2.194  14.176 -1.5484 -1.3262 -2.9854
16399TIP3    H270613   6.704   2.330  14.123 -0.9875 -0.7143 -1.8832
16400TIP3   OH270614   6.683   7.008   5.252  0.0230  0.5255 -0.1071
16400TIP3    H170615   6.620   7.011   5.324  2.3317  1.0023  2.0022
16400TIP3    H270616   6.674   7.093   5.209  0.5345  1.3717  1.3884
16401TIP3   OH270617   0.941   4.799   1.436  0.0791  0.5229 -0.1551
16401TIP3    H170618   0.881   4.812   1.509  2.2797  0.2954  1.7911
16401TIP3    H270619   0.973   4.887   1.415  1.1200  0.3642  0.6905
16402TIP3   OH270620   5.042   2.788   1.601 -0.0082 -0.4785 -0.8463
16402TIP3    H170621   5.119   2.735   1.582  1.2743  0.9398  0.0944
16402TIP3    H270622   5.054   2.868   1.549 -0.7583 -0.1793 -0.5799
16403TIP3   OH270623   6.234   2.063  12.931  0.0253 -0.2575  0.7970
16403TIP3    H170624   6.288   2.137  12.902 -0.8480 -0.5609 -1.8481
16403TIP3    H270625   6.296   2.004  12.974  1.3445  0.5267  0.0542
16404TIP3   OH270626   5.778   1.273   3.509 -0.3160  1.0290  0.1333
16404TIP3    H170627   5.692   1.288   3.550 -0.8217  1.7985 -1.1459
16404TIP3    H270628   5.761   1.205   3.443 -0.3163  2.2385 -1.1689
16405TIP3   OH270629   4.786   0.976   0.226  0.5195 -0.0111 -0.2702
16405TIP3    H170630   4.793   0.883   0.204  1.2640  0.0491 -0.3110
16405TIP3    H270631   4.751   0.976   0.316 -2.3548 -0.2549 -1.2942
16406TIP3   OH270632   4.762   1.353   0.912 -0.0042 -0.1886  0.4460
16406TIP3    H170633   4.844   1.305   0.919 -0.3446 -0.7217  0.8963
16406TIP3    H270634   4.714   1.330   0.992  0.0713  1.3705  0.9582
16407TIP3   OH270635   1.099   3.299   5.842 -0.0173  0.2778 -0.1967
16407TIP3    H170636   1.016   3.291   5.889  1.0375 -0.8171  1.5861
16407TIP3    H270637   1.134   3.385   5.868  0.2012  0.0006  0.4519
16408TIP3   OH270638   4.470   3.056  14.709 -0.0952 -0.2058  0.0387
16408TIP3    H170639   4.525   3.100  14.644  0.8118 -0.1712  0.7985
16408TIP3    H270640   4.532   3.005  14.761 -1.0343 -1.8932 -0.4196
16409TIP3   OH270641   4.342   5.925   4.647  0.3586 -0.6023  0.0266
16409TIP3    H170642   4.386   5.961   4.570 -1.7922  1.5993 -0.2733
16409TIP3    H270643   4.309   6.001   4.694 -2.9787 -2.0183  0.2598
16410TIP3   OH270644   1.818   1.677   1.821  0.5301 -0.5713 -0.0096
16410TIP3    H170645   1.793   1.658   1.911  0.0619  0.3029  0.0525
16410TIP3    H270646   1.740   1.717   1.782  0.1982 -2.3292 -1.2588
16411TIP3   OH270647   1.905   4.685   2.658  0.0996 -0.2124  0.2026
16411TIP3    H170648   1.823   4.731   2.671  0.1715  0.2039 -0.7753
16411TIP3    H270649   1.958   4.743   2.603 -0.0150 -1.6448 -1.5269
16412TIP3   OH270650   1.046   1.155   1.824  0.2423 -0.0484 -0.2803
16412TIP3    H170651   1.038   1.061   1.808  0.4805 -0.2981  0.9719
16412TIP3    H270652   0.971   1.176   1.879  0.1645  0.5041 -0.5969
16413TIP3   OH270653   0.022   0.574  13.108  0.5870 -0.2206  1.1163
16413TIP3    H170654  -0.017   0.660  13.127  1.6155  0.6213 -0.3811
16413TIP3    H270655   0.066   0.549  13.189  0.7903  0.9659  1.3868
16414TIP3   OH270656   0.246   2.666  13.085  0.0583 -0.4548  0.1436
16414TIP3    H170657   0.290   2.636  13.005  0.8339 -0.0701  0.4180
16414TIP3    H270658   0.303   2.637  13.156 -1.0866 -1.6027  0.6295
16415TIP3   OH270659   0.216   0.786   1.866  0.3735 -0.5486  0.3421
16415TIP3    H170660   0.274   0.750   1.934  2.1643 -2.2978 -1.9405
16415TIP3    H270661   0.168   0.710   1.833 -1.1118  0.4197  0.2004
16416TIP3   OH270662   5.055   5.668   5.758 -0.7196  0.0090  0.3198
16416TIP3    H170663   4.999   5.640   5.831 -2.1225  2.2027  0.1848
16416TIP3    H270664   5.113   5.734   5.797 -3.7075  3.7967 -0.9349
16417TIP3   OH270665   1.325   2.045   4.208  0.0760  0.0155 -0.4207
16417TIP3    H170666   1.401   2.025   4.152  0.1574 -1.0343  0.0402
16417TIP3    H270667   1.302   2.135   4.185  1.8709  0.6126 -0.1123
16418TIP3   OH270668   5.326   0.375   4.714 -0.2612  0.2279 -0.0707
16418TIP3    H170669   5.348   0.424   4.635  0.1917 -0.9161 -0.6863
16418TIP3    H270670   5.263   0.430   4.760 -0.6094  0.8796 -1.2845
16419TIP3   OH270671   1.474   1.953   1.033  0.7010  0.0498  0.1740
16419TIP3    H170672   1.521   1.952   1.116  0.9085  3.6377  0.2647
16419TIP3    H270673   1.389   1.993   1.053  0.7215  0.9228 -1.2682
16420TIP3   OH270674   5.930   2.979   5.354 -0.0872 -0.4641  0.1489
16420TIP3    H170675   6.011   2.983   5.405  1.5342 -1.9341 -2.0848
16420TIP3    H270676   5.960   2.970   5.263 -2.7825  2.2576 -1.1900
16421TIP3   OH270677   3.055   5.819  14.081 -0.2578 -0.0728  0.2568
16421TIP3    H170678   3.009   5.853  14.005 -0.0679  0.1105  0.2228
16421TIP3    H270679   3.129   5.878  14.093 -0.9058  0.5738  1.2560
16422TIP3   OH270680   0.921   5.985   4.135  0.3303  0.1789 -0.2784
16422TIP3    H170681   0.959   5.922   4.074  1.8127  0.8855 -0.1419
16422TIP3    H270682   0.982   5.987   4.208 -0.3194  0.9034  0.2630
16423TIP3   OH270683   6.724   4.309   4.838  0.5524  0.5442  0.4414
16423TIP3    H170684   6.664   4.243   4.805  0.8883 -0.6229  2.0452
16423TIP3    H270685   6.713   4.307   4.933  1.7395  1.6600  0.6435
16424TIP3   OH270686   6.708   4.364   5.396 -0.2492 -0.1605 -0.0283
16424TIP3    H170687   6.689   4.271   5.408 -0.5586 -0.0957 -0.0222
16424TIP3    H270688   6.788   4.378   5.447  0.1227 -0.5469 -0.4911
16425TIP3   OH270689   5.479   2.167  13.902 -0.4425 -0.0667  0.5066
16425TIP3    H170690   5.388   2.174  13.933 -0.7134 -0.7818 -0.1039
16425TIP3    H270691   5.491   2.244  13.847 -1.5703 -1.3040 -1.5976
16426TIP3   OH270692   6.235   5.703   1.482 -0.2174 -0.2551 -0.1873
16426TIP3    H170693   6.149   5.687   1.442 -1.6974  1.9474  1.8102
16426TIP3    H270694   6.281   5.759   1.420 -0.8675 -0.1258 -0.5622
16427TIP3   OH270695   5.042   3.715   1.951 -1.2377 -0.0077 -0.1365
16427TIP3    H170696   5.022   3.796   1.998  1.0438  0.6277 -0.1437
16427TIP3    H270697   4.990   3.648   1.996  0.0417  0.7451  2.7021
16428TIP3   OH270698   5.299   1.068   2.985  0.5656 -0.1202 -0.2647
16428TIP3    H170699   5.359   1.073   2.910  0.7907  1.2135 -0.0220
16428TIP3    H270700   5.356   1.054   3.060  0.4659 -0.0827 -0.1819
16429TIP3   OH270701   0.157   1.452   3.690 -0.3537 -0.1259 -0.4090
16429TIP3    H170702   0.165   1.357   3.684 -0.9280 -0.1870 -0.2202
16429TIP3    H270703   0.071   1.467   3.728  1.1022  0.3667  3.0684
16430TIP3   OH270704   1.858   4.370  14.156  0.2844 -0.3114 -0.2611
16430TIP3    H170705   1.925   4.437  14.169  1.3791 -1.5848  1.1390
16430TIP3    H270706   1.801   4.379  14.233 -0.0728 -0.4378 -0.5087
16431TIP3   OH270707   6.975   4.189  14.450 -0.3561 -0.1163  0.0190
16431TIP3    H170708   6.939   4.234  14.374  0.6262  1.1540  0.2759
16431TIP3    H270709   6.898   4.153  14.495 -0.9942 -0.3490 -1.2225
16432TIP3   OH270710   5.468   1.011   3.192  0.1090 -0.2300  0.4920
16432TIP3    H170711   5.456   1.095   3.236 -1.8059 -0.8163  1.1949
16432TIP3    H270712   5.431   0.947   3.253  0.3505 -1.4424 -0.5880
16433TIP3   OH270713   3.188   4.376   4.754 -0.7811  0.4523 -0.1710
16433TIP3    H170714   3.201   4.382   4.848  0.7020 -0.5447 -0.2676
16433TIP3    H270715   3.243   4.445   4.717 -0.0309 -0.2338 -0.3621
16434TIP3   OH270716   1.185   4.285  10.841  0.7253  0.3646  0.2007
16434TIP3    H170717   1.261   4.251  10.888  0.8544  0.9428  0.4141
16434TIP3    H270718   1.203   4.265  10.749  2.2976  2.6195 -0.0642
16435TIP3   OH270719   6.850   5.718   5.343 -0.7313 -0.7955  0.0953
16435TIP3    H170720   6.861   5.809   5.369  0.5323 -0.2479 -2.1217
16435TIP3    H270721   6.755   5.707   5.335 -0.8872  0.4277  0.0768
16436TIP3   OH270722   5.258   0.821   4.487 -0.2415  0.2893  0.3812
16436TIP3    H170723   5.170   0.820   4.526 -0.0642  1.2733  0.8287
16436TIP3    H270724   5.312   0.866   4.551  0.7217 -0.7727  0.3458
16437TIP3   OH270725   2.680   1.402   1.671  0.1279 -0.1004 -0.0058
16437TIP3    H170726   2.633   1.328   1.708  0.4324 -0.7596 -0.9103
16437TIP3    H270727   2.772   1.378   1.675  0.6342  1.7737  3.0851
16438TIP3   OH270728   3.724   3.294   0.278  0.3627  0.5195 -0.1071
16438TIP3    H170729   3.683   3.208   0.272 -1.8667  1.5785 -1.3168
16438TIP3    H270730   3.708   3.323   0.367  0.1715  0.1282 -0.0147
16439TIP3   OH270731   3.594   6.443  11.172  0.5026  0.2437  0.6375
16439TIP3    H170732   3.579   6.356  11.206  0.7793 -0.1467 -0.2020
16439TIP3    H270733   3.658   6.482  11.231  1.1343 -0.4921  0.4495
16440TIP3   OH270734   0.044   3.537   4.569 -0.2412 -0.1557 -0.1129
16440TIP3    H170735   0.048   3.614   4.626  0.9153 -0.3616  0.1065
16440TIP3    H270736   0.134   3.505   4.565  0.2249  1.1006 -3.8011
16441TIP3   OH270737   3.210   1.069   4.388 -1.1010  0.1380  0.2964
16441TIP3    H170738   3.171   0.982   4.393 -0.7350 -0.0076  0.6551
16441TIP3    H270739   3.303   1.053   4.368 -1.2170  0.4802 -0.5906
16442TIP3   OH270740   2.729   1.477   4.736 -0.0047 -0.0062 -0.3274
16442TIP3    H170741   2.764   1.388   4.735 -0.0671 -0.0378  0.0452
16442TIP3    H270742   2.638   1.467   4.706 -0.5440 -0.3160  1.3156
16443TIP3   OH270743   5.920   2.032   2.304  0.2034  0.0020  0.0285
16443TIP3    H170744   5.896   1.957   2.359  0.2570 -0.2918 -0.3476
16443TIP3    H270745   5.984   2.080   2.357 -2.0717  1.5072  1.6127
16444TIP3   OH270746   3.294   1.492   0.261 -0.2700 -0.3716  0.3320
16444TIP3    H170747   3.234   1.436   0.310 -0.7360 -0.9399 -0.8440
16444TIP3    H270748   3.313   1.565   0.320  0.4017 -1.7780  1.9358
16445TIP3   OH270749   7.057   3.910   5.086 -0.0474  0.4103 -0.0709
16445TIP3    H170750   7.100   3.844   5.141 -0.6775 -0.0020 -0.0635
16445TIP3    H270751   7.037   3.865   5.005  1.8355  1.3085 -1.0990
16446TIP3   OH270752   0.850   1.147   1.384 -0.4841 -0.6085 -0.0475
16446TIP3    H170753   0.800   1.107   1.313 -2.4416  0.4180  0.6744
16446TIP3    H270754   0.937   1.106   1.378 -0.7281 -0.9413 -2.6625
16447TIP3   OH270755   2.054   3.801  13.938  0.5839  0.1359 -0.4144
16447TIP3    H170756   2.061   3.848  14.021  0.2061  0.1665 -0.3973
16447TIP3    H270757   1.979   3.840  13.895 -1.7098 -2.4248  0.9196
16448TIP3   OH270758   4.687   6.314   5.673  0.9142  0.2499  0.5908
16448TIP3    H170759   4.700   6.284   5.763 -0.0942 -0.6208  0.4648
16448TIP3    H270760   4.750   6.263   5.621  1.0079  0.2440  0.7104
16449TIP3   OH270761   3.562   4.638   5.036 -0.3014  0.0199 -0.2931
16449TIP3    H170762   3.544   4.669   5.125 -0.5907  1.3092 -0.7679
16449TIP3    H270763   3.638   4.688   5.009  0.8380 -1.5930 -0.1964
16450TIP3   OH270764   6.720   2.324   1.252  0.1982  0.3056  0.2840
16450TIP3    H170765   6.796   2.372   1.218  1.3455 -2.0047 -0.6365
16450TIP3    H270766   6.656   2.327   1.181  1.2602 -1.5723 -0.8490
16451TIP3   OH270767   2.057   7.119   5.332  0.2478  0.2005  0.2836
16451TIP3    H170768   2.051   7.056   5.404  1.8153  0.8114  0.9919
16451TIP3    H270769   1.967   7.127   5.300 -0.0756 -2.0698  0.4252
16452TIP3   OH270770   3.336   6.683   2.269 -0.1262  0.2533  0.2298
16452TIP3    H170771   3.326   6.696   2.363  0.0417  1.2597  0.1266
16452TIP3    H270772   3.424   6.647   2.258 -0.8250 -1.6796  0.5820
16453TIP3   OH270773   3.196   0.342   2.411 -0.2272 -0.5566 -0.5982
16453TIP3    H170774   3.201   0.363   2.318  1.6597  0.3988 -0.3330
16453TIP3    H270775   3.271   0.285   2.427 -0.4857 -0.6442  0.3643
16454TIP3   OH270776   1.935   2.794   4.282  0.6529  0.3863 -0.0648
16454TIP3    H170777   1.925   2.743   4.201  1.1929 -1.8618  1.1887
16454TIP3    H270778   1.925   2.885   4.254 -2.1281 -0.4079 -2.1825
16455TIP3   OH270779   2.150   4.864  11.431  0.3549 -0.0529 -0.6251
16455TIP3    H170780   2.136   4.954  11.403 -2.2271 -0.1794  0.0142
16455TIP3    H270781   2.104   4.811  11.366  0.4879 -0.8042 -0.1246
16456TIP3   OH270782   0.036   1.188   1.900 -0.3200 -0.5420  0.0210
16456TIP3    H170783   0.041   1.274   1.942  1.4426 -0.9333  0.7276
16456TIP3    H270784  -0.010   1.133   1.963  1.0549 -0.7728  0.8689
16457TIP3   OH270785   3.314   6.773   5.868  0.1044  0.2242 -0.0987
16457TIP3    H170786   3.395   6.741   5.829 -0.1652  0.5509 -0.9478
16457TIP3    H270787   3.342   6.817   5.949  0.6108 -0.9338  0.3797
16458TIP3   OH270788   3.605   0.326  14.008 -0.0638  0.5324 -0.4465
16458TIP3    H170789   3.540   0.271  14.053  0.7757 -1.1316 -1.2012
16458TIP3    H270790   3.671   0.344  14.076 -0.0800  0.1688 -0.3314
16459TIP3   OH270791   2.534   3.758   2.589  0.0463  0.0902 -0.2194
16459TIP3    H170792   2.522   3.667   2.559 -2.1789  0.9014 -2.0904
16459TIP3    H270793   2.624   3.779   2.566  0.0437 -1.0978 -1.4491
16460TIP3   OH270794   6.179   6.689   3.859 -0.0708 -0.0204  0.1408
16460TIP3    H170795   6.213   6.633   3.789  0.6645  0.8332 -0.1994
16460TIP3    H270796   6.135   6.629   3.919 -1.4626 -0.7031 -1.4674
16461TIP3   OH270797   0.441   0.196   1.255 -0.2944 -0.4115 -0.0400
16461TIP3    H170798   0.444   0.101   1.245 -0.3961 -0.3381 -0.9006
16461TIP3    H270799   0.531   0.225   1.242  0.2330 -0.5618  2.6530
16462TIP3   OH270800   5.799   0.271  15.181  0.0072 -0.4965  0.1291
16462TIP3    H170801   5.884   0.311  15.195 -0.1072 -0.4866  0.8208
16462TIP3    H270802   5.760   0.321  15.109  0.4851 -0.3529 -0.0299
16463TIP3   OH270803   1.606   6.167   9.567 -0.1643  0.2069 -0.0038
16463TIP3    H170804   1.657   6.240   9.603  1.2692 -0.0390 -1.4421
16463TIP3    H270805   1.616   6.097   9.631  2.3958 -0.2484 -0.8261
16464TIP3   OH270806   6.169   0.940  15.287  0.3453 -0.0911 -0.6938
16464TIP3    H170807   6.149   0.855  15.249  1.7880 -0.4923 -0.6001
16464TIP3    H270808   6.099   0.955  15.350  0.3357 -1.4336 -0.3634
16465TIP3   OH270809   2.567   0.041   0.925  0.0060  0.9251  0.3444
16465TIP3    H170810   2.611   0.001   1.000  0.0548  2.2757  1.0625
16465TIP3    H270811   2.543  -0.033   0.869 -0.2140 -0.1368  1.7777
16466TIP3   OH270812   4.827   1.239  15.142  0.8932  0.3518  0.4098
16466TIP3    H170813   4.872   1.301  15.085 -1.3047  2.4714  0.8194
16466TIP3    H270814   4.790   1.292  15.212 -0.3436 -1.5628  1.3056
16467TIP3   OH270815   0.370   4.958   3.111  0.4254 -0.5499 -0.1639
16467TIP3    H170816   0.374   5.043   3.066  0.6504 -0.5736 -0.1908
16467TIP3    H270817   0.454   4.952   3.156  0.6455 -1.0152 -0.6263
16468TIP3   OH270818   2.641   3.288  11.861 -0.3664  0.2987 -0.7536
16468TIP3    H170819   2.633   3.374  11.820 -2.0790  0.3087 -0.4595
16468TIP3    H270820   2.565   3.239  11.831  0.5591 -1.1266 -0.8857
16469TIP3   OH270821   5.302   3.829   3.558  0.7439 -0.0445  0.1285
16469TIP3    H170822   5.315   3.910   3.607  0.5277  0.6265 -0.8822
16469TIP3    H270823   5.387   3.812   3.518  0.6876 -0.1130  0.0377
16470TIP3   OH270824   6.995   6.640   3.958  0.1709 -0.0316 -0.8064
16470TIP3    H170825   7.014   6.692   4.036 -0.4252 -1.6020  0.4595
16470TIP3    H270826   7.077   6.637   3.909  1.1703 -0.7349  0.8437
16471TIP3   OH270827   0.553   4.703   4.047 -0.0053  0.0857 -0.2930
16471TIP3    H170828   0.549   4.799   4.046  1.7168  0.1793 -1.0535
16471TIP3    H270829   0.554   4.680   4.140 -2.3430  0.6561 -0.0559
16472TIP3   OH270830   0.514   0.408   6.052  0.1515 -0.0545  0.0809
16472TIP3    H170831   0.518   0.494   6.012  0.3734  0.2667  0.7841
16472TIP3    H270832   0.597   0.366   6.029 -0.2031 -0.3228 -0.7690
16473TIP3   OH270833   5.388   5.593   4.169 -0.5030  0.0468  0.5439
16473TIP3    H170834   5.417   5.504   4.189 -3.6280 -0.6457  2.7021
16473TIP3    H270835   5.432   5.648   4.233 -0.2522 -0.2534  0.6293
16474TIP3   OH270836   0.703   3.210   1.383 -0.2363 -0.1806  0.1706
16474TIP3    H170837   0.649   3.132   1.383  0.8263 -0.9415  0.2558
16474TIP3    H270838   0.660   3.269   1.445  0.2026 -1.6091  1.9258
16475TIP3   OH270839   4.805   6.484   3.305  0.1214 -0.0294 -0.3362
16475TIP3    H170840   4.855   6.565   3.293  0.0808  0.1074  0.3210
16475TIP3    H270841   4.733   6.510   3.364 -0.4686 -0.3203 -0.9230
16476TIP3   OH270842   6.292   6.539   3.690  0.1513 -0.2788  0.0017
16476TIP3    H170843   6.280   6.607   3.624  0.8165 -2.3483 -2.4464
16476TIP3    H270844   6.364   6.485   3.655 -1.3059 -3.0592  0.9716
16477TIP3   OH270845   6.008   3.896   0.059 -0.0039  0.0553 -0.3537
16477TIP3    H170846   6.085   3.844   0.078 -0.0132 -0.2649 -1.1758
16477TIP3    H270847   5.937   3.852   0.106  0.0160 -0.5841 -0.9148
16478TIP3   OH270848   0.933   4.367   1.458 -0.7794  0.7166 -0.0826
16478TIP3    H170849   1.005   4.377   1.520  1.1014  0.9847 -2.1735
16478TIP3    H270850   0.924   4.272   1.448  0.6104  0.6714 -1.1931
16479TIP3   OH270851   3.617   1.903   5.424  0.1042  0.2220 -0.1848
16479TIP3    H170852   3.703   1.944   5.429  0.5366 -0.4069 -1.7447
16479TIP3    H270853   3.629   1.830   5.363 -0.9780 -1.3564  1.3906
16480TIP3   OH270854   0.740   0.944   3.347 -0.3845 -0.0505  0.5835
16480TIP3    H170855   0.706   1.007   3.283 -0.5466  0.7496  1.4260
16480TIP3    H270856   0.685   0.956   3.425  0.9541  0.3315  1.5181
16481TIP3   OH270857   4.170   4.460   2.217 -0.2463 -0.0372  0.2758
16481TIP3    H170858   4.186   4.446   2.124 -0.1634 -1.8759  0.5247
16481TIP3    H270859   4.252   4.493   2.252  0.0524 -0.3491 -0.1271
16482TIP3   OH270860   6.713   6.700   3.320 -0.0363  0.2774  0.0526
16482TIP3    H170861   6.699   6.793   3.301  1.8057  0.2677 -1.6337
16482TIP3    H270862   6.642   6.655   3.275  0.0890  0.7594 -0.6388
16483TIP3   OH270863   4.050   1.028   4.930 -0.2405  0.5167 -0.8816
16483TIP3    H170864   4.023   0.998   5.017 -1.4058  1.2402 -0.9759
16483TIP3    H270865   4.111   1.100   4.947 -1.8981  1.9313 -0.6053
16484TIP3   OH270866   6.079   5.212   1.463 -0.0491 -0.4074  0.4170
16484TIP3    H170867   6.015   5.272   1.424 -0.7032 -0.2639  1.6723
16484TIP3    H270868   6.149   5.269   1.495  1.3218 -0.6350 -1.9426
16485TIP3   OH270869   2.444   6.853   1.358  0.7728  0.3664  0.1598
16485TIP3    H170870   2.444   6.932   1.304 -1.6375  1.2303  1.2766
16485TIP3    H270871   2.367   6.862   1.413  2.0444 -1.4021  2.4002
16486TIP3   OH270872   5.079   3.645   2.766  0.2358 -0.4656 -0.3609
16486TIP3    H170873   5.006   3.649   2.828  0.1793  3.1689 -0.4565
16486TIP3    H270874   5.042   3.674   2.683  1.5543  0.5463 -0.6308
16487TIP3   OH270875   3.890   1.903   2.837 -0.2737 -0.1731 -0.2280
16487TIP3    H170876   3.885   1.855   2.754  0.4314 -1.8752  0.6445
16487TIP3    H270877   3.803   1.894   2.875  0.1400 -1.8053  0.4253
16488TIP3   OH270878   2.302   4.518   5.436 -0.2571 -0.5761  0.3921
16488TIP3    H170879   2.252   4.588   5.479  2.4614  1.9505 -0.2146
16488TIP3    H270880   2.334   4.558   5.355  0.1798 -3.0813 -0.7548
16489TIP3   OH270881   2.107   2.624   1.805 -0.1001  0.1981  0.1623
16489TIP3    H170882   2.065   2.653   1.725 -0.8575 -0.3338  0.3498
16489TIP3    H270883   2.171   2.692   1.825 -0.5716  0.8124 -0.3720
16490TIP3   OH270884   4.043   0.423   4.313 -0.5427 -0.9458 -0.4052
16490TIP3    H170885   4.017   0.514   4.329  0.0246 -0.7712 -0.4849
16490TIP3    H270886   3.960   0.378   4.296 -0.9781 -0.7453  1.0643
16491TIP3   OH270887   3.415   4.531   3.976  0.2520  0.9312 -0.4966
16491TIP3    H170888   3.497   4.490   4.001 -0.1868  1.2488  1.7383
16491TIP3    H270889   3.422   4.621   4.007 -1.2030  0.7485  0.5026
16492TIP3   OH270890   0.579   4.759   1.530 -0.5122 -0.3841  0.1972
16492TIP3    H170891   0.551   4.805   1.451 -1.2677  0.0224  0.6901
16492TIP3    H270892   0.627   4.682   1.497  2.2647  1.5641 -0.6615
16493TIP3   OH270893   6.197   4.782   2.314  0.3419  0.0820 -0.3640
16493TIP3    H170894   6.268   4.724   2.342  0.4751 -0.0967 -1.0425
16493TIP3    H270895   6.117   4.731   2.329  0.2911  0.5290  1.0175
16494TIP3   OH270896   3.344   5.113   2.871 -0.0156 -0.2460  0.0327
16494TIP3    H170897   3.313   5.193   2.829 -1.3716 -0.4773  0.5195
16494TIP3    H270898   3.414   5.142   2.929 -0.7438  0.6738  0.4894
16495TIP3   OH270899   1.976   5.213   5.274 -0.1303  0.1741 -0.4616
16495TIP3    H170900   1.946   5.155   5.344 -0.3605  0.0810 -0.6369
16495TIP3    H270901   2.057   5.251   5.308 -0.0797 -0.1016 -0.2686
16496TIP3   OH270902   0.248   3.923   3.915 -0.0556  0.0114  0.0807
16496TIP3    H170903   0.343   3.929   3.925 -0.3533  3.0168  2.5322
16496TIP3    H270904   0.220   3.861   3.983  0.0191  0.9176  0.9633
16497TIP3   OH270905   2.509   1.455  11.443 -0.2393 -0.1448  0.2171
16497TIP3    H170906   2.515   1.371  11.490  0.1934  0.1657  0.7323
16497TIP3    H270907   2.545   1.519  11.505  1.5480  0.0902 -0.9982
16498TIP3   OH270908   0.299   4.820   4.173 -0.3527 -0.2328 -0.3871
16498TIP3    H170909   0.275   4.844   4.084 -1.7325 -0.6234 -0.1499
16498TIP3    H270910   0.326   4.902   4.214 -0.2691  0.0450 -0.9961
16499TIP3   OH270911   6.820   5.842   0.721 -0.6079  0.0256 -0.2262
16499TIP3    H170912   6.798   5.852   0.628 -0.8100  1.2218 -0.0627
16499TIP3    H270913   6.913   5.864   0.726 -0.6191  0.0501 -0.1309
16500TIP3   OH270914   0.995   1.309   3.665 -0.2585 -0.1042  0.3217
16500TIP3    H170915   1.001   1.230   3.719 -0.0666  0.5737  1.3304
16500TIP3    H270916   1.065   1.300   3.601  0.8189 -0.0317  1.4419
16501TIP3   OH270917   2.150   2.974   2.624 -0.2770  0.2980 -0.1166
16501TIP3    H170918   2.124   3.050   2.676 -1.3173 -0.1467  0.0354
16501TIP3    H270919   2.178   2.909   2.688  1.1322  0.7267 -0.2736
16502TIP3   OH270920   3.919   1.662   5.077  0.1754  0.1076 -0.0639
16502TIP3    H170921   3.929   1.704   4.992  0.4236 -0.3855 -0.2837
16502TIP3    H270922   3.955   1.725   5.139 -0.0988  0.5109 -0.3112
16503TIP3   OH270923   1.636   4.549  13.458 -0.7015  0.8996 -0.2765
16503TIP3    H170924   1.609   4.486  13.525 -1.6103  0.9250 -0.5970
16503TIP3    H270925   1.714   4.510  13.418 -1.0686  0.1195 -0.2596
16504TIP3   OH270926   6.548   6.639   0.194  0.6468 -0.4836 -0.4599
16504TIP3    H170927   6.469   6.688   0.219 -0.2250 -2.9041  2.1392
16504TIP3    H270928   6.599   6.700   0.142 -0.8582  2.7620  1.5632
16505TIP3   OH270929   2.655   0.926  10.857 -0.0423 -0.1899  0.0516
16505TIP3    H170930   2.719   0.857  10.840 -0.9645 -1.1942  0.5612
16505TIP3    H270931   2.631   0.914  10.949  0.3992  1.3476  0.3967
16506TIP3   OH270932   4.782   6.204  10.741  0.2346  0.0064  0.3435
16506TIP3    H170933   4.859   6.210  10.684 -0.2588 -0.0187 -0.3411
16506TIP3    H270934   4.818   6.183  10.827  1.0170  0.2789  0.0987
16507TIP3   OH270935   3.505   3.310   3.563 -0.4883 -0.0555 -0.3317
16507TIP3    H170936   3.538   3.239   3.619  0.2731 -0.7042 -1.5775
16507TIP3    H270937   3.469   3.265   3.487 -1.4964  0.8287 -0.4031
16508TIP3   OH270938   5.927   5.571   2.055 -0.1268  0.6143 -0.0627
16508TIP3    H170939   5.853   5.587   1.997  0.4465  1.2689 -0.6327
16508TIP3    H270940   5.887   5.542   2.138 -0.9420 -0.8736 -0.9278
16509TIP3   OH270941   6.454   5.316  14.422 -0.2073  0.0725 -0.2041
16509TIP3    H170942   6.486   5.231  14.393 -0.3087  0.9449 -3.2392
16509TIP3    H270943   6.531   5.362  14.454  0.3632 -0.2563 -1.0640
16510TIP3   OH270944   0.284   3.624   4.758  0.2794 -0.1050 -0.4290
16510TIP3    H170945   0.307   3.587   4.843  1.0356  0.4580 -0.3761
16510TIP3    H270946   0.287   3.549   4.698 -1.3148 -0.7113  0.1971
16511TIP3   OH270947   2.516   5.171   5.031  0.5294 -0.7623  1.1242
16511TIP3    H170948   2.605   5.184   4.997  0.8797 -0.2149  2.2203
16511TIP3    H270949   2.529   5.143   5.122 -0.4003 -1.9269  0.9150
16512TIP3   OH270950   3.300   0.474   1.338 -0.3910 -0.4983 -0.0312
16512TIP3    H170951   3.362   0.463   1.410 -0.1239 -0.9347 -0.3191
16512TIP3    H270952   3.353   0.464   1.259 -0.7752 -0.5819 -0.2829
16513TIP3   OH270953   6.536   1.522  13.527 -0.9834 -0.2656 -0.0203
16513TIP3    H170954   6.603   1.518  13.460 -0.9662 -1.4699  0.0525
16513TIP3    H270955   6.564   1.460  13.594 -2.0694 -0.6763  0.0841
16514TIP3   OH270956   2.098   0.676  15.545  0.0931  0.0363 -0.2866
16514TIP3    H170957   2.021   0.641  15.589 -0.3869  1.0660 -0.2775
16514TIP3    H270958   2.172   0.629  15.584 -0.2916  1.0143  1.7684
16515TIP3   OH270959   6.592   3.552  13.394 -0.1091 -0.4363  0.5513
16515TIP3    H170960   6.544   3.486  13.344  2.0770 -0.8052 -1.2017
16515TIP3    H270961   6.574   3.529  13.485 -0.8194 -2.4032 -0.0124
16516TIP3   OH270962   5.011   1.531   0.555  0.1278 -0.2970 -0.0669
16516TIP3    H170963   4.955   1.496   0.485 -0.7770 -0.2973  0.6354
16516TIP3    H270964   4.983   1.622   0.564 -1.3478 -0.8737  1.7765
16517TIP3   OH270965   1.097   1.290  12.874  0.3193  0.2104 -0.3885
16517TIP3    H170966   1.062   1.376  12.896  1.3669  0.7700 -0.8496
16517TIP3    H270967   1.154   1.267  12.947  1.9608  1.0277 -1.3575
16518TIP3   OH270968   4.573   4.790   0.724 -0.2700  0.0208  0.3370
16518TIP3    H170969   4.569   4.696   0.705 -0.5018 -0.1393  1.1367
16518TIP3    H270970   4.655   4.819   0.684 -0.3740 -0.4447 -0.2314
16519TIP3   OH270971   4.714   2.222  12.826  0.1541 -1.1312  0.2889
16519TIP3    H170972   4.791   2.272  12.856 -1.0912  0.2857  1.2899
16519TIP3    H270973   4.741   2.131  12.834  2.2527 -0.6864 -0.8599
16520TIP3   OH270974   4.673   1.971   3.922  0.0411 -0.2768  0.0871
16520TIP3    H170975   4.744   2.035   3.926 -1.1451  1.1931 -1.5261
16520TIP3    H270976   4.643   1.963   4.013  0.5129  1.0879  0.3797
16521TIP3   OH270977   3.632   2.363   4.882  0.5715  0.0907  0.6548
16521TIP3    H170978   3.607   2.343   4.973  1.1232  1.9896  1.2644
16521TIP3    H270979   3.637   2.277   4.840 -1.7057 -0.7382  1.8637
16522TIP3   OH270980   4.695   5.227   5.451  0.2541 -0.1820  0.2210
16522TIP3    H170981   4.700   5.295   5.517  0.2620  1.5389 -1.4725
16522TIP3    H270982   4.611   5.184   5.468  0.3278  0.1041  1.4115
16523TIP3   OH270983   5.755   3.598   3.463  0.2589  0.1051 -0.4464
16523TIP3    H170984   5.756   3.567   3.372 -0.7508  1.6132 -1.0198
16523TIP3    H270985   5.779   3.522   3.515 -0.0264 -1.0316 -1.9206
16524TIP3   OH270986   3.836   4.962   2.076 -0.3223 -0.5579  0.2054
16524TIP3    H170987   3.905   5.023   2.052  0.3893 -0.9950  1.0555
16524TIP3    H270988   3.766   4.978   2.013  0.7211 -0.3964 -0.9445
16525TIP3   OH270989   3.677   1.187   3.383  0.4007  0.2580  0.0316
16525TIP3    H170990   3.752   1.143   3.344  1.3184  1.7720  0.0176
16525TIP3    H270991   3.657   1.260   3.323 -0.0585  0.8275  0.8502
16526TIP3   OH270992   1.600   1.292   3.017 -0.5376  0.4819  0.2733
16526TIP3    H170993   1.516   1.246   3.020 -0.4033  0.3048  2.0401
16526TIP3    H270994   1.576   1.384   3.004 -1.0409  0.4791  1.0888
16527TIP3   OH270995   4.779   4.177  12.280  0.0308  0.0805  0.1746
16527TIP3    H170996   4.723   4.254  12.281  1.5768  1.2464  1.2146
16527TIP3    H270997   4.859   4.205  12.324  0.4827 -2.2489  0.9536
16528TIP3   OH270998   0.916   1.954   2.663 -0.4234  0.8024  0.1390
16528TIP3    H170999   0.958   1.921   2.743 -0.5392 -0.1229 -0.1609
16528TIP3    H271000   0.987   1.957   2.599 -0.5612  0.4092 -0.0365
16529TIP3   OH271001   1.701   3.779  15.329  0.4898  0.2893 -0.1727
16529TIP3    H171002   1.700   3.742  15.417 -2.3551 -0.8266 -0.5701
16529TIP3    H271003   1.780   3.833  15.326  0.8502  0.0739  2.9212
16530TIP3   OH271004   2.941   4.918   3.648 -0.0626 -0.1461 -0.8010
16530TIP3    H171005   3.026   4.936   3.687 -0.5008  0.1597  0.0217
16530TIP3    H271006   2.959   4.849   3.584  0.8295  0.0306 -0.7575
16531TIP3   OH271007   2.991   5.091  14.213  0.2956  0.0642 -0.1723
16531TIP3    H171008   2.903   5.067  14.243  0.7656 -2.4396 -0.5670
16531TIP3    H271009   2.985   5.092  14.118  0.4475  0.9714 -0.1771
16532TIP3   OH271010   6.986   2.560  15.192  0.3352 -0.3114 -0.2228
16532TIP3    H171011   7.004   2.561  15.098 -2.1526  1.7251 -0.7937
16532TIP3    H271012   7.032   2.637  15.226 -1.1235  0.6844 -0.3872
16533TIP3   OH271013   0.802   3.660   2.172  0.7034 -0.0775  0.1331
16533TIP3    H171014   0.878   3.649   2.229  2.0353  0.0190 -1.5388
16533TIP3    H271015   0.756   3.576   2.176  2.5625 -1.2117 -1.0740
16534TIP3   OH271016   2.868   5.966   2.069  0.1214  0.1544  0.6100
16534TIP3    H171017   2.963   5.960   2.052 -0.1262 -2.9981 -0.2830
16534TIP3    H271018   2.860   5.949   2.163  0.3960 -0.7133  0.4860
16535TIP3   OH271019   2.963   4.508  13.803  0.0638  0.0926  0.2309
16535TIP3    H171020   3.010   4.427  13.820  0.1456  0.2996  1.0563
16535TIP3    H271021   2.871   4.481  13.793  0.3160 -0.2946 -1.2384
16536TIP3   OH271022   6.537   5.869   5.605 -0.1814 -0.5203 -0.1627
16536TIP3    H171023   6.544   5.822   5.688  0.0276  0.0377  0.1402
16536TIP3    H271024   6.576   5.809   5.540  0.8641 -0.4320  0.3538
16537TIP3   OH271025   4.356   5.453  13.592  0.2869  0.2543 -0.1839
16537TIP3    H171026   4.419   5.496  13.650  0.9455 -0.6938 -0.1600
16537TIP3    H271027   4.279   5.437  13.646  1.4226 -1.9418  0.9366
16538TIP3   OH271028   1.554   2.537   2.206 -0.1794 -0.4825 -0.0997
16538TIP3    H171029   1.628   2.517   2.148 -0.3154 -1.8068  0.1611
16538TIP3    H271030   1.477   2.532   2.149  0.0152  3.9859 -1.1614
16539TIP3   OH271031   5.840   3.066   2.420  0.1080  0.2654  0.2262
16539TIP3    H171032   5.873   3.097   2.504 -0.3805  1.0301  0.1491
16539TIP3    H271033   5.768   3.007   2.443 -0.0559  0.5104  0.3484
16540TIP3   OH271034   4.284   2.682  15.640  0.2487 -0.4552 -0.3542
16540TIP3    H171035   4.340   2.746  15.685  0.5637  0.1526 -1.5622
16540TIP3    H271036   4.318   2.679  15.551  0.5389 -2.6868 -0.2185
16541TIP3   OH271037   2.666   6.300   0.046 -0.1397 -0.0537 -0.1618
16541TIP3    H171038   2.717   6.239   0.099 -1.5864 -0.3325  0.9954
16541TIP3    H271039   2.729   6.367   0.019  0.8319 -0.3224  1.2989
16542TIP3   OH271040   0.271   0.816  14.274 -0.1546  0.2565  0.3798
16542TIP3    H171041   0.184   0.779  14.288 -0.5432  1.3752  1.0331
16542TIP3    H271042   0.257   0.887  14.211  0.3603  0.1454  0.1388
16543TIP3   OH271043   3.564   0.671   1.802  0.3005  0.6684  0.2595
16543TIP3    H171044   3.539   0.601   1.862  2.1311 -0.6002 -0.3612
16543TIP3    H271045   3.499   0.666   1.732  0.6142 -0.6991  0.0370
16544TIP3   OH271046   1.049   3.274   3.184  0.0526  0.3239  0.6411
16544TIP3    H171047   1.084   3.229   3.260  1.7274 -0.5720 -0.5916
16544TIP3    H271048   1.093   3.359   3.184  1.0014 -0.1439  0.0460
16545TIP3   OH271049   0.756   3.449  12.728  0.5668  0.6313  0.3106
16545TIP3    H171050   0.759   3.370  12.782  0.9369  1.1544  1.0691
16545TIP3    H271051   0.848   3.473  12.717  0.5236  0.3291 -0.8725
16546TIP3   OH271052   1.156   2.903  13.420  0.4231 -0.4077  0.5499
16546TIP3    H171053   1.129   2.944  13.501 -1.9618 -0.4470 -0.1650
16546TIP3    H271054   1.248   2.879  13.434  0.1403 -0.1767  3.1041
16547TIP3   OH271055   0.814   1.720   4.932 -0.3989 -0.0488  0.0618
16547TIP3    H171056   0.774   1.636   4.910  0.7567 -0.2472 -1.4874
16547TIP3    H271057   0.746   1.768   4.978 -1.3936 -1.4738  0.1495
16548TIP3   OH271058   3.461   1.159  13.070 -0.0908 -0.0919 -0.1449
16548TIP3    H171059   3.519   1.176  13.144  0.1965  1.2155 -0.6347
16548TIP3    H271060   3.380   1.205  13.092 -0.5960 -1.0779  0.0879
16549TIP3   OH271061   1.273   6.235  11.495  0.2911  0.2164 -0.2642
16549TIP3    H171062   1.258   6.153  11.542  0.4996  0.4885  0.2820
16549TIP3    H271063   1.248   6.216  11.404  1.7098 -0.8693 -0.4569
16550TIP3   OH271064   5.139   5.595  11.054  0.3600 -0.3148 -0.2216
16550TIP3    H171065   5.168   5.546  11.131  0.9655 -0.9371 -0.8266
16550TIP3    H271066   5.219   5.637  11.021 -0.3228  1.9417  0.8558
16551TIP3   OH271067   1.572   5.799   9.902  0.5652 -0.2682  0.3073
16551TIP3    H171068   1.549   5.770   9.814  0.3972 -1.3521  0.6908
16551TIP3    H271069   1.596   5.891   9.892  1.5027 -0.6397 -1.0200
16552TIP3   OH271070   4.326   0.532   3.059  0.6452 -0.5994  0.2917
16552TIP3    H171071   4.337   0.463   3.125  0.7286 -1.1370 -0.2811
16552TIP3    H271072   4.244   0.575   3.083  1.6967  0.6104  2.0170
16553TIP3   OH271073   5.869   3.508   1.178  0.0018  0.1193 -0.2718
16553TIP3    H171074   5.842   3.515   1.270  0.1302  0.6543 -0.2716
16553TIP3    H271075   5.806   3.562   1.131  1.8602  2.5846 -0.1114
16554TIP3   OH271076   0.359   5.178   0.695 -0.1349  0.1272 -0.3493
16554TIP3    H171077   0.337   5.085   0.695 -0.8677  0.2401 -2.6382
16554TIP3    H271078   0.409   5.191   0.776 -0.8331 -2.0275  0.5012
16555TIP3   OH271079   0.739   5.665   4.014  0.3795  0.5070  0.3578
16555TIP3    H171080   0.828   5.697   4.023 -0.0161  1.8856 -0.3318
16555TIP3    H271081   0.689   5.713   4.081  0.0005  0.3972  0.1597
16556TIP3   OH271082   1.430   0.739  15.547  0.0867 -0.4307  0.2533
16556TIP3    H171083   1.342   0.749  15.512 -0.2594  0.4523  1.3276
16556TIP3    H271084   1.431   0.652  15.586  0.2326 -1.1070 -1.2081
16557TIP3   OH271085   7.069   4.792   3.753 -0.0516  0.2383  0.7723
16557TIP3    H171086   7.075   4.878   3.795  2.9537  0.9417 -0.8426
16557TIP3    H271087   7.049   4.732   3.825 -1.9376  2.1929  1.9844
16558TIP3   OH271088   1.595   5.453  15.429 -0.3870 -0.0520 -0.2405
16558TIP3    H171089   1.672   5.440  15.373  0.7434  0.3156  1.1828
16558TIP3    H271090   1.550   5.528  15.389  0.5791  0.4219 -0.4784
16559TIP3   OH271091   7.115   5.329   0.688  0.0539  1.2607 -0.6610
16559TIP3    H171092   7.188   5.390   0.675  0.4969  0.8318 -0.2466
16559TIP3    H271093   7.148   5.245   0.656  0.3467  0.6934  1.0183
16560TIP3   OH271094   6.973   3.972   3.519 -0.0154 -0.2447 -0.0886
16560TIP3    H171095   6.969   3.894   3.574 -0.8172  0.4505  0.8712
16560TIP3    H271096   6.882   3.999   3.509  0.3230  1.3157  0.7034
16561TIP3   OH271097   3.995   3.108   4.897 -0.2526 -0.2440 -0.0241
16561TIP3    H171098   3.960   3.055   4.826  0.3830  0.1999 -0.6780
16561TIP3    H271099   4.059   3.051   4.940  1.0418  0.2270 -1.2395
16562TIP3   OH271100   0.506   1.302  11.806  0.4477 -0.5858  0.2470
16562TIP3    H171101   0.573   1.362  11.837  0.6699 -1.1080  0.7952
16562TIP3    H271102   0.456   1.353  11.741  1.0555 -0.0396  0.1991
16563TIP3   OH271103   3.812   6.000  12.678 -0.1418 -0.0632 -0.4448
16563TIP3    H171104   3.816   6.046  12.594  0.6295 -0.6829 -0.7604
16563TIP3    H271105   3.756   6.055  12.732 -0.5952  0.3858 -1.3396
16564TIP3   OH271106   4.722   3.625   1.436 -0.0984  0.0124 -0.3734
16564TIP3    H171107   4.742   3.596   1.525  1.9249 -0.9307 -1.0695
16564TIP3    H271108   4.727   3.720   1.440 -1.5389  0.0804  0.8061
16565TIP3   OH271109   4.725   6.730  11.226 -0.0749  0.1172 -0.1204
16565TIP3    H171110   4.724   6.814  11.273 -1.0299 -0.6054  1.2498
16565TIP3    H271111   4.653   6.736  11.164  0.1827  0.5053 -0.3799
16566TIP3   OH271112   2.956   2.894   4.300 -0.2047 -0.0565 -0.1736
16566TIP3    H171113   2.892   2.853   4.358 -0.3850 -0.0251 -0.3489
16566TIP3    H271114   2.999   2.820   4.257 -0.5667 -0.0644 -0.5293
16567TIP3   OH271115   2.292   5.544   4.473  0.3495 -0.4873  0.4511
16567TIP3    H171116   2.371   5.522   4.425  1.1842  1.1113  0.9951
16567TIP3    H271117   2.321   5.553   4.564 -0.2055  1.1266  0.4990
16568TIP3   OH271118   6.391   0.288   2.627 -0.0511 -0.3102 -0.0982
16568TIP3    H171119   6.440   0.348   2.570 -0.5985  1.8948  1.5994
16568TIP3    H271120   6.458   0.232   2.666  0.4556 -1.0422 -1.9199
16569TIP3   OH271121   5.058   3.330   2.224 -0.2793 -0.3535 -0.2272
16569TIP3    H171122   5.108   3.283   2.157 -3.5437 -2.1577 -1.5854
16569TIP3    H271123   5.119   3.338   2.298  1.8349 -2.8557 -1.5325
16570TIP3   OH271124   2.648   6.319  10.606  0.5186 -0.2932  0.4957
16570TIP3    H171125   2.650   6.412  10.587  2.0557 -0.2571  0.6587
16570TIP3    H271126   2.666   6.276  10.523  1.9467 -0.3353  0.7967
16571TIP3   OH271127   5.848   1.230   4.720  0.6871  0.8600  0.5840
16571TIP3    H171128   5.874   1.275   4.639  2.6551  0.1556  0.7675
16571TIP3    H271129   5.860   1.137   4.701  0.3510  0.6377  1.4203
16572TIP3   OH271130   3.763   2.438   4.087  0.0384 -0.2298  0.0733
16572TIP3    H171131   3.709   2.448   4.166  0.9810 -0.8170  0.8066
16572TIP3    H271132   3.773   2.343   4.076 -0.0057 -0.1542 -0.7152
16573TIP3   OH271133   1.869   0.268   5.241 -0.0380 -0.1139  0.2482
16573TIP3    H171134   1.821   0.185   5.240  0.3680 -0.3624 -1.1966
16573TIP3    H271135   1.906   0.275   5.153 -1.7191  2.6096 -0.3549
16574TIP3   OH271136   4.432   0.674   5.203 -0.0005  0.3835  0.0943
16574TIP3    H171137   4.374   0.720   5.142  1.5322  2.6536  0.2321
16574TIP3    H271138   4.515   0.666   5.157  0.1958 -1.0529  0.6320
16575TIP3   OH271139   4.525   0.547  15.624 -0.3998  0.3284  0.2825
16575TIP3    H171140   4.465   0.480  15.656 -0.8029  0.7794  0.4762
16575TIP3    H271141   4.543   0.601  15.700 -0.8201  1.0006 -0.0925
16576TIP3   OH271142   6.133   2.195  14.279  0.4899  0.1052 -0.7771
16576TIP3    H171143   6.065   2.150  14.329  1.4050  1.6538  2.0688
16576TIP3    H271144   6.087   2.268  14.238  0.0247 -0.2320 -0.8748
16577TIP3   OH271145   2.208   2.213  13.056 -0.1325  0.0088  0.1785
16577TIP3    H171146   2.169   2.152  12.994  0.6452  0.9047 -1.2762
16577TIP3    H271147   2.195   2.173  13.142 -1.9870 -0.8874 -0.4698
16578TIP3   OH271148   6.009   6.523  14.419 -0.3345 -0.2008 -0.3207
16578TIP3    H171149   5.992   6.501  14.510  0.3196  0.3977 -0.0470
16578TIP3    H271150   5.976   6.448  14.370  1.0151 -1.4088  0.5274
16579TIP3   OH271151   2.134   4.522   2.166  0.3616 -0.3730 -0.0454
16579TIP3    H171152   2.112   4.578   2.241  1.9743 -0.4544  0.5252
16579TIP3    H271153   2.206   4.467   2.197 -0.5293 -2.1162 -0.9142
16580TIP3   OH271154   0.098   0.558   1.776 -0.0489 -0.5077  0.0143
16580TIP3    H171155   0.161   0.522   1.714  1.7100  1.0161  0.8426
16580TIP3    H271156   0.079   0.485   1.835  0.4171 -1.1709 -0.6262
16581TIP3   OH271157   6.741   1.734  14.501 -0.1741  0.0392 -0.4534
16581TIP3    H171158   6.730   1.796  14.429  2.7111  1.9252  0.5582
16581TIP3    H271159   6.830   1.701  14.491 -0.8468 -2.2392  0.4099
16582TIP3   OH271160   1.573   4.958   3.275  0.1986 -0.3796 -0.3712
16582TIP3    H171161   1.539   5.040   3.311 -0.6458 -0.3899 -1.1180
16582TIP3    H271162   1.646   4.985   3.219  2.5777 -0.4700  2.4247
16583TIP3   OH271163   2.481   3.904   1.513  0.1406 -0.1269 -0.3992
16583TIP3    H171164   2.442   3.821   1.488 -0.3131  0.3939 -1.4827
16583TIP3    H271165   2.442   3.968   1.453  0.3508  0.8926  0.5193
16584TIP3   OH271166   3.231   1.039   1.195  0.1906 -0.1245  0.4082
16584TIP3    H171167   3.162   1.062   1.134 -0.5073 -0.7625  0.9464
16584TIP3    H271168   3.210   1.087   1.275 -0.9208 -2.0098  1.3309
16585TIP3   OH271169   0.029   4.147   4.266  0.2265  0.2978  0.6786
16585TIP3    H171170  -0.040   4.212   4.251 -0.6954 -0.8550 -0.3529
16585TIP3    H271171   0.067   4.132   4.180  1.0561  0.1529  1.0662
16586TIP3   OH271172   4.280   3.507   2.119  0.0219 -0.2449  0.0493
16586TIP3    H171173   4.354   3.568   2.124 -1.3571  1.4587  0.6025
16586TIP3    H271174   4.253   3.494   2.211 -0.3344 -0.9056 -0.1381
16587TIP3   OH271175   2.667   4.257   2.906 -0.4626 -0.0632  0.0879
16587TIP3    H171176   2.618   4.176   2.913  0.4760 -0.5620  1.2729
16587TIP3    H271177   2.747   4.241   2.956 -0.6672  1.8926  1.1539
16588TIP3   OH271178   1.352   4.887   3.696 -0.2944  0.2107 -0.4616
16588TIP3    H171179   1.363   4.819   3.629 -0.0230  0.2376 -0.4443
16588TIP3    H271180   1.262   4.918   3.684 -0.1590  0.4065 -0.9942
16589TIP3   OH271181   3.409   1.607   3.615  0.0188  0.4404  0.4309
16589TIP3    H171182   3.384   1.531   3.562  0.4924 -0.2505  1.1608
16589TIP3    H271183   3.496   1.585   3.648 -0.3467  0.7402  1.6685
16590TIP3   OH271184   0.384   2.483  10.647 -0.1262  0.5035  0.3786
16590TIP3    H171185   0.364   2.530  10.567 -0.8116  0.3835  0.4704
16590TIP3    H271186   0.320   2.412  10.650 -0.5971  0.9503  1.4043
16591TIP3   OH271187   4.965   1.093  14.473  0.3940 -0.0392 -0.2387
16591TIP3    H171188   5.050   1.082  14.517  0.3890 -1.1342 -0.4670
16591TIP3    H271189   4.911   1.022  14.507 -0.8403  1.3420  0.7963
16592TIP3   OH271190   2.542   3.382   5.220  0.0167  0.1536 -0.1121
16592TIP3    H171191   2.549   3.477   5.213 -0.3358  0.3884  1.9824
16592TIP3    H271192   2.599   3.359   5.294  0.3248 -1.3107 -0.7626
16593TIP3   OH271193   3.221   6.829   3.769  0.3050 -0.2838 -0.2487
16593TIP3    H171194   3.309   6.839   3.806 -0.2173 -1.3153  1.4020
16593TIP3    H271195   3.197   6.739   3.790 -0.4697 -0.6003 -2.2853
16594TIP3   OH271196   0.789   2.515   2.980 -0.0529 -0.2547  0.6998
16594TIP3    H171197   0.770   2.609   2.986  2.6080  0.3382  1.1301
16594TIP3    H271198   0.824   2.504   2.891  1.0283 -0.5276  1.1534
16595TIP3   OH271199   5.886   5.627   3.104 -0.1790  0.1625  0.2868
16595TIP3    H171200   5.853   5.651   3.190 -0.1789  2.2177 -0.2334
16595TIP3    H271201   5.981   5.628   3.113 -0.1752  0.5820  0.2239
16596TIP3   OH271202   4.900   0.493   1.367 -0.7015  0.0877 -0.2294
16596TIP3    H171203   4.835   0.499   1.297 -2.3162 -0.4121  1.1544
16596TIP3    H271204   4.859   0.437   1.433  0.5820  0.8649  1.3039
16597TIP3   OH271205   0.736   6.525   3.653  0.3920 -0.1912  0.2458
16597TIP3    H171206   0.720   6.447   3.707  2.0443  1.6430  3.7212
16597TIP3    H271207   0.801   6.496   3.588  0.9768 -1.7306  1.4474
16598TIP3   OH271208   3.901   5.562   2.922 -0.3139 -0.1896  0.5437
16598TIP3    H171209   3.819   5.610   2.910  0.3586  0.7350 -0.5124
16598TIP3    H271210   3.969   5.622   2.892  0.6340 -1.5160 -0.0668
16599TIP3   OH271211   2.689   7.105   0.224 -0.0755 -0.3719  0.4485
16599TIP3    H171212   2.720   7.142   0.306  1.2854 -1.5803  0.5143
16599TIP3    H271213   2.703   7.011   0.233  0.1856 -0.5218 -1.1826
16600TIP3   OH271214   6.993   1.921  15.626 -0.0446  0.2791  0.7878
16600TIP3    H171215   6.913   1.896  15.579  0.7378  0.9177 -0.9770
16600TIP3    H271216   6.965   1.990  15.687 -0.8536  0.4506  0.2373
16601TIP3   OH271217   2.757   1.107   2.940  0.1598  0.3195  0.1061
16601TIP3    H171218   2.816   1.099   2.865 -0.8653 -0.8562 -0.6082
16601TIP3    H271219   2.700   1.181   2.917  0.0497  0.1602 -0.1401
16602TIP3   OH271220   3.407   5.764   1.582  0.0015 -0.5909  0.4974
16602TIP3    H171221   3.415   5.798   1.493 -0.3241 -1.0976  0.2650
16602TIP3    H271222   3.320   5.724   1.584 -0.5739  0.6525  1.4778
16603TIP3   OH271223   2.303   0.552  15.657 -0.4453  0.4836 -0.0620
16603TIP3    H171224   2.290   0.483  15.722  0.0136  1.4947  1.1399
16603TIP3    H271225   2.323   0.505  15.576  0.4502 -0.7936  0.8600
16604TIP3   OH271226   1.279   2.458   3.147 -0.0757  0.1523 -0.8303
16604TIP3    H171227   1.322   2.447   3.062 -0.8181  2.2886 -1.5407
16604TIP3    H271228   1.244   2.372   3.168  0.7657 -0.5850 -2.3305
16605TIP3   OH271229   1.448   0.572   1.041  0.1888  0.4755 -0.2286
16605TIP3    H171230   1.355   0.588   1.059 -0.2461  0.8610 -2.4711
16605TIP3    H271231   1.451   0.481   1.012  0.0348  1.1494 -2.5571
16606TIP3   OH271232   6.509   5.611   2.770 -0.2929  0.2122  0.7625
16606TIP3    H171233   6.581   5.568   2.817  0.6213  0.5074 -0.3173
16606TIP3    H271234   6.534   5.605   2.678 -1.6551  0.3457  0.3570
16607TIP3   OH271235   4.341   1.209   0.067 -0.3665  0.0678 -0.5518
16607TIP3    H171236   4.258   1.257   0.068 -1.0669 -1.0744  1.1866
16607TIP3    H271237   4.391   1.250  -0.003 -0.8307  3.4725  0.8880
16608TIP3   OH271238   2.569   5.022   2.305 -0.0397  0.2560  0.2772
16608TIP3    H171239   2.585   5.114   2.283  1.5520  1.2593  4.7358
16608TIP3    H271240   2.626   5.004   2.379 -1.4279 -3.9567  0.6081
16609TIP3   OH271241   2.214   6.913  15.648  0.1986 -0.2226  0.3008
16609TIP3    H171242   2.288   6.963  15.613  0.8721 -0.7870  0.8805
16609TIP3    H271243   2.236   6.822  15.629  0.0910 -0.4582  1.2821
16610TIP3   OH271244   0.255   4.204   2.428  0.1765 -0.2639  0.2797
16610TIP3    H171245   0.340   4.164   2.447  0.3064  0.1199  0.5254
16610TIP3    H271246   0.221   4.228   2.514 -0.8148 -1.6590  0.3271
16611TIP3   OH271247   2.962   0.926   1.626  0.2555  0.4083 -0.0223
16611TIP3    H171248   2.954   0.911   1.532 -1.7812  0.2841  0.1155
16611TIP3    H271249   2.996   0.844   1.661  1.1228  0.4906 -0.6329
16612TIP3   OH271250   1.535   1.543   3.311 -0.3925 -0.2918 -0.1662
16612TIP3    H171251   1.615   1.596   3.305 -1.7129  1.6796 -1.6339
16612TIP3    H271252   1.532   1.515   3.402  0.1906  2.5334  0.8208
16613TIP3   OH271253   4.713   4.917  14.580 -0.1462 -0.1600  0.0077
16613TIP3    H171254   4.704   5.009  14.555  0.6569 -0.7727 -3.0207
16613TIP3    H271255   4.805   4.898  14.565  0.3857 -0.8548  3.3560
16614TIP3   OH271256   2.157   6.952   5.126  0.6865 -0.5040  0.0237
16614TIP3    H171257   2.134   7.041   5.154 -0.5530 -0.5607 -0.7090
16614TIP3    H271258   2.137   6.897   5.201  0.2876 -0.2949  0.0759
16615TIP3   OH271259   2.731   0.822  10.459  0.5867  0.3074  0.1046
16615TIP3    H171260   2.686   0.882  10.518  0.5584  0.3694  0.0203
16615TIP3    H271261   2.784   0.767  10.516  0.0660 -0.0563  0.2484
16616TIP3   OH271262   0.734   1.414   4.942  0.8641  0.4116 -0.6896
16616TIP3    H171263   0.755   1.330   4.982  0.3334  0.2220 -0.8052
16616TIP3    H271264   0.670   1.393   4.874 -0.1386  1.0423  0.0370
16617TIP3   OH271265   4.436   6.434  13.254 -0.2771 -0.0281  0.2456
16617TIP3    H171266   4.526   6.442  13.222 -1.2382  2.3176 -2.2957
16617TIP3    H271267   4.398   6.365  13.200 -0.4021  0.1309  0.1257
16618TIP3   OH271268   6.200   5.627   0.436 -0.6539 -0.2868 -0.1145
16618TIP3    H171269   6.250   5.706   0.416 -0.7594 -0.0783  0.4399
16618TIP3    H271270   6.114   5.643   0.399 -0.9487  0.2354  0.7634
16619TIP3   OH271271   5.780   5.933  12.880 -0.0797 -0.1838 -0.2449
16619TIP3    H171272   5.750   6.010  12.832  1.3355  0.7612  0.3211
16619TIP3    H271273   5.771   5.861  12.818  0.1601  0.7287 -1.3700
16620TIP3   OH271274   0.675   4.962   4.450  0.5631 -0.4187  0.6555
16620TIP3    H171275   0.654   4.877   4.410  0.2061  0.3636 -0.8666
16620TIP3    H271276   0.753   4.992   4.403  0.1182  0.5348  0.5093
16621TIP3   OH271277   3.597   3.151  13.539  0.0515 -0.0188  0.3702
16621TIP3    H171278   3.617   3.191  13.454  0.9157 -0.4479  0.3560
16621TIP3    H271279   3.597   3.224  13.601  0.6857  0.1407  0.1931
16622TIP3   OH271280   1.174   1.763  13.645  0.1923  0.1435 -0.6748
16622TIP3    H171281   1.145   1.854  13.633  2.0795  0.6886 -1.5349
16622TIP3    H271282   1.188   1.731  13.556  0.1548 -0.7896 -0.3497
16623TIP3   OH271283   1.158   3.167   2.617 -0.2425  0.3116 -0.1970
16623TIP3    H171284   1.093   3.218   2.666  0.9622  1.4069  0.3434
16623TIP3    H271285   1.112   3.138   2.539 -1.3873  1.0455  0.1770
16624TIP3   OH271286   3.496   6.109  10.928  0.1752  0.3801 -0.2601
16624TIP3    H171287   3.412   6.093  10.971  0.3701  1.3828  0.5358
16624TIP3    H271288   3.550   6.151  10.995  1.8459 -1.5621 -0.2904
16625TIP3   OH271289   6.699   7.086  12.175  0.1427 -0.4179  0.2550
16625TIP3    H171290   6.663   7.164  12.217  2.2991  0.7210  0.1477
16625TIP3    H271291   6.716   7.025  12.246 -1.1442 -0.6658  0.3853
16626TIP3   OH271292   5.078   3.268   9.438  0.6327  0.2160 -0.1061
16626TIP3    H171293   5.149   3.314   9.484 -0.1305  0.9077  0.3969
16626TIP3    H271294   5.000   3.285   9.491  0.3694 -1.9580  0.3128
16627TIP3   OH271295   2.466   5.196  14.916 -0.1098 -0.1632 -0.1226
16627TIP3    H171296   2.494   5.282  14.947  2.2023 -0.8682 -0.0633
16627TIP3    H271297   2.545   5.142  14.920 -1.2961 -2.0748 -0.9580
16628TIP3   OH271298   5.566   1.282  13.677  0.2944 -0.1848  0.3802
16628TIP3    H171299   5.606   1.366  13.702  0.5763 -0.4744  0.9335
16628TIP3    H271300   5.551   1.238  13.761  0.3689 -0.7840  0.0806
16629TIP3   OH271301   1.955   3.724   4.284  0.0589  0.6629  0.0141
16629TIP3    H171302   1.990   3.653   4.230  0.7322  0.7232  0.3699
16629TIP3    H271303   1.870   3.744   4.244  0.5810  0.7679 -1.0853
16630TIP3   OH271304   6.396   6.513   5.752  0.3665  0.1626  0.0548
16630TIP3    H171305   6.437   6.523   5.667  0.2449  1.1595  0.1009
16630TIP3    H271306   6.351   6.596   5.767  1.1329  0.3430  1.4903
16631TIP3   OH271307   1.728   1.654   2.082  0.6342  0.1390  0.5172
16631TIP3    H171308   1.663   1.723   2.099  0.3537  0.0381 -0.1490
16631TIP3    H271309   1.786   1.658   2.158 -0.4274 -0.1052  1.3727
16632TIP3   OH271310   2.454   1.676   4.035  0.3938  0.1280  0.3301
16632TIP3    H171311   2.391   1.626   4.086 -0.5776  1.3661  0.3808
16632TIP3    H271312   2.539   1.636   4.056  0.0544  0.6160  2.9512
16633TIP3   OH271313   0.818   1.866   1.012  0.0972 -0.0716  0.3136
16633TIP3    H171314   0.748   1.818   0.968  1.1244 -0.9450 -0.4149
16633TIP3    H271315   0.890   1.804   1.018  1.5531  1.4126 -0.8303
16634TIP3   OH271316   5.458   1.571   0.519  0.0866 -0.4119  0.1684
16634TIP3    H171317   5.532   1.562   0.458 -0.0765 -0.6406  0.0061
16634TIP3    H271318   5.490   1.632   0.586  0.5975 -0.8865  0.3659
16635TIP3   OH271319   1.746   0.518   0.309 -0.1890  0.1397  0.0990
16635TIP3    H171320   1.716   0.490   0.396  0.9431  0.1575  0.5196
16635TIP3    H271321   1.732   0.441   0.253 -1.4961  0.3299  0.1363
16636TIP3   OH271322   0.342   0.471   2.750 -0.2661 -0.2087  0.6161
16636TIP3    H171323   0.300   0.405   2.806 -1.2166 -0.8394 -0.7773
16636TIP3    H271324   0.285   0.477   2.673  1.0522  0.5398 -0.3421
16637TIP3   OH271325   2.946   6.596   0.034 -0.3388 -0.0238  0.3072
16637TIP3    H171326   2.915   6.559   0.117  3.5964 -0.4236  1.8266
16637TIP3    H271327   2.989   6.678   0.058  3.2863 -1.4039 -0.6743
16638TIP3   OH271328   1.218   3.570   3.775 -0.0697  0.0181 -0.4836
16638TIP3    H171329   1.142   3.521   3.744  0.2337 -0.2823 -0.7632
16638TIP3    H271330   1.218   3.556   3.870 -0.3969  0.0737 -0.4740
16639TIP3   OH271331   4.970   0.149   3.245  0.2103  0.2531 -0.2199
16639TIP3    H171332   4.878   0.142   3.272  0.0807 -3.2670 -1.1269
16639TIP3    H271333   4.969   0.213   3.173 -1.2127  1.4384  0.7844
16640TIP3   OH271334   7.036   3.056   4.659  0.3192 -0.2861 -0.4533
16640TIP3    H171335   6.956   3.003   4.655  1.1818 -1.6069 -1.1358
16640TIP3    H271336   7.073   3.050   4.571  0.5080  1.4083 -0.5142
16641TIP3   OH271337   0.190   6.965  15.318  0.1816 -0.5956 -0.8308
16641TIP3    H171338   0.171   6.875  15.343  0.7413 -0.6794 -0.7003
16641TIP3    H271339   0.278   6.962  15.281  0.2248 -0.0904 -0.7750
16642TIP3   OH271340   3.482   3.371   4.260 -0.3068 -0.2290 -0.0099
16642TIP3    H171341   3.558   3.419   4.227 -0.0088 -0.3363  0.5160
16642TIP3    H271342   3.514   3.281   4.270 -1.0438 -0.7230 -1.6563
16643TIP3   OH271343   2.086   1.416   4.418  0.6679 -0.3859  0.2908
16643TIP3    H171344   1.997   1.443   4.395  0.6555 -0.5454  0.1535
16643TIP3    H271345   2.117   1.484   4.478 -0.2998 -1.3462  1.9746
16644TIP3   OH271346   1.207   1.314  15.518 -0.4405  0.0692 -0.6229
16644TIP3    H171347   1.299   1.291  15.503 -0.5481  0.0654 -1.3395
16644TIP3    H271348   1.196   1.397  15.472 -0.6085  0.4577  0.1053
16645TIP3   OH271349   4.603   6.111   1.893  0.3302  0.0063 -0.3140
16645TIP3    H171350   4.592   6.026   1.851 -1.5725  0.8100 -1.6281
16645TIP3    H271351   4.692   6.138   1.872  1.3369 -2.0650  1.0220
16646TIP3   OH271352   4.655   0.589   5.070 -0.1101  0.2567  0.1798
16646TIP3    H171353   4.653   0.576   4.975 -0.7265  0.0081  0.2212
16646TIP3    H271354   4.704   0.515   5.104 -1.2026 -0.4824  0.1782
16647TIP3   OH271355   3.869   3.713  13.389  0.1254 -0.2258  0.1378
16647TIP3    H171356   3.829   3.778  13.332  0.7955 -0.4561 -0.6159
16647TIP3    H271357   3.833   3.731  13.476  1.2442  1.9761  0.2278
16648TIP3   OH271358   6.766   4.308   2.916  0.6103 -0.3347  1.1528
16648TIP3    H171359   6.679   4.269   2.910  0.2350  0.6403 -0.5746
16648TIP3    H271360   6.796   4.287   3.005 -0.8898 -1.6762  1.3892
16649TIP3   OH271361   4.247   3.465   1.545 -0.1957  0.0046  0.6507
16649TIP3    H171362   4.280   3.547   1.583  3.8711  0.2391 -2.5907
16649TIP3    H271363   4.315   3.401   1.566 -1.9942 -1.9213  0.8419
16650TIP3   OH271364   4.932   2.589  12.827 -0.9874 -0.0505 -0.2670
16650TIP3    H171365   4.933   2.497  12.853 -0.0299 -0.1652 -0.6807
16650TIP3    H271366   4.943   2.637  12.909 -2.8948 -0.2389  0.1358
16651TIP3   OH271367   0.665   2.978   4.792 -0.1268  0.4450  0.9406
16651TIP3    H171368   0.753   2.941   4.784 -0.8027 -0.8178 -2.6861
16651TIP3    H271369   0.676   3.070   4.769  0.2012  0.1194 -0.3082
16652TIP3   OH271370   0.889   1.893   1.327 -0.6674 -0.1069 -0.0264
16652TIP3    H171371   0.970   1.945   1.327  0.1892 -1.3095  1.9523
16652TIP3    H271372   0.835   1.932   1.258  0.6507  2.2255  0.1530
16653TIP3   OH271373   3.256   2.264   5.462 -0.1171 -0.0673  0.4706
16653TIP3    H171374   3.293   2.335   5.410  0.3261 -0.5029  0.1787
16653TIP3    H271375   3.260   2.295   5.552 -0.3148  0.4434  0.3038
16654TIP3   OH271376   0.909   0.781   4.523  0.2817  0.1085  0.0470
16654TIP3    H171377   0.879   0.821   4.604 -1.2362  0.2373 -0.5461
16654TIP3    H271378   0.873   0.837   4.454  0.9232 -0.4182 -0.7272
16655TIP3   OH271379   3.230   4.936   1.380 -0.0058  0.2943 -0.0691
16655TIP3    H171380   3.299   4.983   1.428 -1.6505  0.3058  2.5050
16655TIP3    H271381   3.253   4.844   1.388 -0.1981  0.3034  0.7158
16656TIP3   OH271382   3.882   7.095   3.155 -0.3373  0.2987 -0.1013
16656TIP3    H171383   3.934   7.169   3.187 -0.3548  0.5897 -0.7292
16656TIP3    H271384   3.804   7.094   3.212 -0.6718  1.1999 -0.5238
16657TIP3   OH271385   3.497   0.156   5.768  0.2747 -0.1180 -0.4439
16657TIP3    H171386   3.562   0.186   5.831  1.6334 -0.9780 -1.3995
16657TIP3    H271387   3.501   0.219   5.696 -0.9390  0.5906  0.0651
16658TIP3   OH271388   1.970   1.638   5.809  0.0530  0.1180  0.1403
16658TIP3    H171389   1.913   1.693   5.861 -1.1372  1.0989 -2.0694
16658TIP3    H271390   1.914   1.565   5.781  0.7246 -0.5019  0.3812
16659TIP3   OH271391   1.045   3.619   1.898 -0.7947 -0.1481  0.7906
16659TIP3    H171392   1.140   3.620   1.885 -0.4948 -1.5897  2.4547
16659TIP3    H271393   1.009   3.617   1.809  0.6662  1.7108  0.1027
16660TIP3   OH271394   0.930   0.651   2.842 -0.1028 -0.2004 -0.0636
16660TIP3    H171395   0.903   0.612   2.759 -2.2323  2.0126 -0.5425
16660TIP3    H271396   0.882   0.603   2.909  0.5715 -1.1045 -0.2164
16661TIP3   OH271397   0.135   1.576   1.789  0.3129  0.7405 -0.1483
16661TIP3    H171398   0.173   1.661   1.809  1.7837  0.0951 -0.1090
16661TIP3    H271399   0.195   1.536   1.727 -0.5916 -0.0967 -0.5117
16662TIP3   OH271400   3.002   4.900   1.593  0.1053 -0.3688 -0.4259
16662TIP3    H171401   3.060   4.963   1.636  1.5968 -2.1909  0.4022
16662TIP3    H271402   2.963   4.851   1.665 -0.0831 -1.1719 -1.0571
16663TIP3   OH271403   4.943   3.331  14.164  0.0362  0.2260 -0.3750
16663TIP3    H171404   5.007   3.402  14.162 -0.3065  0.5687  0.3366
16663TIP3    H271405   4.862   3.372  14.195 -0.3010 -0.3746 -0.4350
16664TIP3   OH271406   4.793   1.274  13.795  0.3792  1.0494 -0.3798
16664TIP3    H171407   4.704   1.248  13.770 -0.5346  0.0087  3.3269
16664TIP3    H271408   4.826   1.200  13.846  2.5097  2.3377  0.2419
16665TIP3   OH271409   4.251   2.694   4.125  0.0265 -0.0276 -0.3881
16665TIP3    H171410   4.322   2.660   4.071 -0.1685  1.9217 -1.9833
16665TIP3    H271411   4.179   2.708   4.063 -1.1510 -0.2597  0.8788
16666TIP3   OH271412   2.768   5.207   4.896  0.4191  0.7826  0.3030
16666TIP3    H171413   2.834   5.262   4.854 -0.0760  0.4039 -1.0186
16666TIP3    H271414   2.800   5.118   4.885  0.3818  0.6852  0.9288
16667TIP3   OH271415   0.650   1.650   3.706 -0.6353  0.3599 -0.1110
16667TIP3    H171416   0.558   1.626   3.718 -0.3857 -1.6848 -1.7559
16667TIP3    H271417   0.678   1.679   3.792 -1.7431 -2.9843  1.5646
16668TIP3   OH271418   0.960   5.893   4.753 -0.2161 -0.1499  0.1460
16668TIP3    H171419   0.939   5.816   4.806 -1.5803 -0.3269 -0.6163
16668TIP3    H271420   0.891   5.955   4.774  0.5357  0.6561  0.2865
16669TIP3   OH271421   1.857   1.539   4.952 -0.4358 -0.4767 -0.2117
16669TIP3    H171422   1.885   1.619   4.997 -0.6430 -1.2583  1.3802
16669TIP3    H271423   1.762   1.538   4.961 -0.3977 -1.1090  0.1523
16670TIP3   OH271424   3.063   6.986   2.149 -0.1727 -0.5936 -0.2465
16670TIP3    H171425   3.149   6.954   2.125 -0.2024 -0.3466 -0.6967
16670TIP3    H271426   3.072   7.014   2.240  0.5209  0.4720 -0.6260
16671TIP3   OH271427   0.908   6.523   5.438  0.0213  0.0191  0.7713
16671TIP3    H171428   0.994   6.489   5.463 -0.5278 -2.1067 -0.0452
16671TIP3    H271429   0.848   6.482   5.501 -0.6063 -0.0962  0.1004
16672TIP3   OH271430   3.923   3.244   5.310  0.2416  0.2143  0.4834
16672TIP3    H171431   4.002   3.291   5.281  1.2318 -0.5829  1.8036
16672TIP3    H271432   3.948   3.152   5.310 -1.4759 -0.3286 -1.4156
16673TIP3   OH271433   6.818   1.985   4.036 -0.3397 -0.1428 -0.2663
16673TIP3    H171434   6.888   2.044   4.063 -0.9679  0.3084  0.4327
16673TIP3    H271435   6.806   1.927   4.112 -2.2251  1.2260  0.5561
16674TIP3   OH271436   2.503   6.950  15.427  0.3293  0.1197 -0.3763
16674TIP3    H171437   2.597   6.957  15.409  0.3162  0.0116 -0.4946
16674TIP3    H271438   2.496   6.874  15.485  0.6946  2.2336  2.6428
16675TIP3   OH271439   6.946   4.104  13.113  0.1818 -0.4173  0.4313
16675TIP3    H171440   6.899   4.021  13.122 -1.4720  0.6808  2.5491
16675TIP3    H271441   7.030   4.089  13.158  0.8624 -1.5592 -1.1100
16676TIP3   OH271442   0.427   4.766   0.506 -0.5682  0.0200 -0.1199
16676TIP3    H171443   0.519   4.754   0.529 -0.8040 -1.1219  0.3101
16676TIP3    H271444   0.429   4.814   0.423  0.3916  0.5436  0.1855
16677TIP3   OH271445   6.439   7.109  12.584 -0.8661  0.1968  0.0016
16677TIP3    H171446   6.375   7.174  12.613  1.9147  1.8595  3.2209
16677TIP3    H271447   6.407   7.026  12.619 -1.4620  0.9303  1.2858
16678TIP3   OH271448   4.513   6.617   4.605 -0.4396 -0.6354 -0.0306
16678TIP3    H171449   4.588   6.599   4.662 -1.1736  0.8483  1.4757
16678TIP3    H271450   4.492   6.709   4.621 -1.6552 -0.6114 -1.5632
16679TIP3   OH271451   5.692   5.967   1.349  0.2719 -0.0448 -0.3578
16679TIP3    H171452   5.750   6.042   1.334  0.8449  0.1229  2.2893
16679TIP3    H271453   5.742   5.892   1.317  0.3406  0.4740 -1.5590
16680TIP3   OH271454   0.366   6.485  13.068  0.6152 -0.0247  0.7457
16680TIP3    H171455   0.382   6.576  13.042  1.7930 -1.0972 -2.9022
16680TIP3    H271456   0.426   6.470  13.141  0.0678  2.2124  1.7312
16681TIP3   OH271457   6.472   5.604  13.393  0.1079 -0.6656 -0.2404
16681TIP3    H171458   6.452   5.532  13.334  0.6462 -0.5829 -0.5303
16681TIP3    H271459   6.406   5.670  13.375 -1.2561 -1.6321  1.0083
16682TIP3   OH271460   0.775   3.939   5.239 -0.1785  0.5690 -0.2508
16682TIP3    H171461   0.695   3.948   5.189  0.2034  0.7030 -0.8433
16682TIP3    H271462   0.806   3.850   5.220 -0.2963  0.4419  0.1419
16683TIP3   OH271463   2.157   6.183  13.605 -0.2747 -0.2380  0.1198
16683TIP3    H171464   2.218   6.145  13.543  3.4362  1.0286  2.6667
16683TIP3    H271465   2.108   6.248  13.554 -0.5874 -2.2457 -2.3171
16684TIP3   OH271466   1.399   6.797  12.447 -0.1809  0.3847  0.5734
16684TIP3    H171467   1.379   6.712  12.408 -0.9056 -0.0963  1.9180
16684TIP3    H271468   1.314   6.841  12.454  0.3267  1.7842 -1.2655
16685TIP3   OH271469   2.654   0.167   0.700  1.1098 -0.1353 -0.1086
16685TIP3    H171470   2.624   0.133   0.785  1.5182 -2.5288 -0.8595
16685TIP3    H271471   2.580   0.220   0.668 -1.0126 -2.9872 -0.3147
16686TIP3   OH271472   4.548   4.975   0.010 -0.2982 -0.4547  0.0586
16686TIP3    H171473   4.552   5.035   0.085  0.4395 -0.3456 -0.0676
16686TIP3    H271474   4.523   4.891   0.049 -1.1328 -0.1257  0.2624
16687TIP3   OH271475   2.788   2.715  15.480  0.5383 -0.0199  0.2578
16687TIP3    H171476   2.761   2.690  15.391 -1.7717 -0.7292  1.1038
16687TIP3    H271477   2.758   2.805  15.490 -1.4761 -0.7441  1.1316
16688TIP3   OH271478   6.160   2.310   2.796 -0.3964 -0.1844  0.0648
16688TIP3    H171479   6.109   2.278   2.721  0.1004 -0.8397 -0.0057
16688TIP3    H271480   6.111   2.386   2.828 -1.4572 -0.8478  0.0595
16689TIP3   OH271481   1.407   4.848  14.650 -0.1364 -0.0452  0.8031
16689TIP3    H171482   1.440   4.933  14.678 -1.8209  1.4379 -1.3723
16689TIP3    H271483   1.330   4.833  14.705  0.4043 -0.3877  1.4761
16690TIP3   OH271484   6.055   3.996   0.822 -0.3572  0.1106  0.1719
16690TIP3    H171485   5.974   3.946   0.824 -0.8495  0.7242 -1.6647
16690TIP3    H271486   6.041   4.068   0.883  0.5251 -2.0858  3.1906
16691TIP3   OH271487   2.429   5.650  13.402  0.2945 -0.0054  0.3659
16691TIP3    H171488   2.509   5.599  13.390 -0.6782 -1.3319 -0.7986
16691TIP3    H271489   2.427   5.711  13.328  0.4789  0.3900  0.6825
16692TIP3   OH271490   1.209   3.028   0.254  0.1934 -0.6222 -0.1751
16692TIP3    H171491   1.141   3.071   0.203  0.2887  0.8105  0.8357
16692TIP3    H271492   1.286   3.026   0.197 -0.1991 -0.6737 -0.7021
16693TIP3   OH271493   2.160   5.706   2.270 -0.5555 -0.3098 -0.2349
16693TIP3    H171494   2.197   5.672   2.189  1.9525 -0.1877  0.7656
16693TIP3    H271495   2.122   5.630   2.313  0.0487 -0.7872 -0.5326
16694TIP3   OH271496   1.486   2.747  15.334  0.5314 -0.4340 -0.2930
16694TIP3    H171497   1.406   2.760  15.384  0.4111 -0.0855 -0.5735
16694TIP3    H271498   1.531   2.676  15.379  0.4887 -0.0381  0.3830
16695TIP3   OH271499   7.111   2.109   4.875 -0.1604 -0.1552  0.5473
16695TIP3    H171500   7.204   2.096   4.856 -0.2451 -1.6284  1.0160
16695TIP3    H271501   7.068   2.102   4.789  0.2283  1.5964  0.1702
16696TIP3   OH271502   6.336   4.145   4.133 -0.1563  0.3439  0.1715
16696TIP3    H171503   6.361   4.053   4.132 -4.3821 -1.0106 -1.1637
16696TIP3    H271504   6.284   4.157   4.053 -1.3913  3.3490  1.2696
16697TIP3   OH271505   4.210   1.836   4.239 -0.3511  0.5619 -0.1796
16697TIP3    H171506   4.257   1.753   4.250 -2.2580 -0.4501  0.8892
16697TIP3    H271507   4.212   1.876   4.326 -1.7188  0.3256 -0.0192
16698TIP3   OH271508   5.193   2.180  13.948  0.1459 -0.8402  0.0927
16698TIP3    H171509   5.161   2.203  14.035  0.7229 -0.2915  0.1686
16698TIP3    H271510   5.124   2.126  13.910 -1.6989  1.6876 -0.3948
16699TIP3   OH271511   5.040   5.847  11.702  0.2560 -0.2457  0.2871
16699TIP3    H171512   5.037   5.817  11.611  0.8858 -0.4513  0.3290
16699TIP3    H271513   4.960   5.813  11.742 -1.0757  1.5540 -0.7083
16700TIP3   OH271514   5.540   4.727   6.090 -0.1196  0.0011  0.1323
16700TIP3    H171515   5.507   4.663   6.152  0.0579  0.6910  0.9586
16700TIP3    H271516   5.611   4.772   6.136 -0.1934  0.7464 -0.4410
16701TIP3   OH271517   2.138   0.504   2.543  0.1188 -0.3758  0.6876
16701TIP3    H171518   2.133   0.571   2.474  1.5689 -1.1395 -0.2245
16701TIP3    H271519   2.201   0.539   2.605 -0.8499  0.1074  1.4224
16702TIP3   OH271520   0.465   2.294   0.996 -0.1616  0.2200  0.5891
16702TIP3    H171521   0.381   2.248   1.000  0.3783 -0.7261  2.3110
16702TIP3    H271522   0.450   2.377   1.042  0.1979 -0.6427  2.3514
16703TIP3   OH271523   5.060   3.449   1.112  0.1154  0.5318 -0.2043
16703TIP3    H171524   5.006   3.502   1.053 -0.2928  2.0025  1.3800
16703TIP3    H271525   5.020   3.362   1.111 -1.7606  1.3329  0.2077
16704TIP3   OH271526   2.343   4.552   3.648 -0.1745 -0.2225 -0.8432
16704TIP3    H171527   2.364   4.642   3.671  2.4348 -0.1995 -2.7641
16704TIP3    H271528   2.340   4.505   3.731  0.8520  1.1984  0.0309
16705TIP3   OH271529   5.028   6.246  13.310 -1.1192  0.4653  0.2343
16705TIP3    H171530   4.976   6.210  13.239  0.0450  1.5237 -1.1978
16705TIP3    H271531   4.987   6.330  13.331 -0.2720  1.1124 -0.6219
16706TIP3   OH271532   6.741   0.104   3.711 -0.3137  0.0899 -0.5387
16706TIP3    H171533   6.691   0.172   3.667 -0.2408 -0.1889 -1.0688
16706TIP3    H271534   6.832   0.121   3.686 -0.3012 -0.2318 -0.7215
16707TIP3   OH271535   4.158   6.380   3.203 -0.4291 -1.0779  0.5333
16707TIP3    H171536   4.183   6.378   3.296 -0.9997  0.3604  0.7468
16707TIP3    H271537   4.088   6.445   3.199  0.4325 -0.2022 -1.0929
16708TIP3   OH271538   5.794   6.870   3.315  0.2206  0.5560  0.1159
16708TIP3    H171539   5.736   6.943   3.292  0.9718  0.7561 -1.2256
16708TIP3    H271540   5.735   6.796   3.327 -0.4778  1.1825  0.6564
16709TIP3   OH271541   3.044   6.458  14.275 -0.0365  0.4099  0.0654
16709TIP3    H171542   2.954   6.459  14.243  0.9675  0.6711 -3.0916
16709TIP3    H271543   3.067   6.551  14.286  1.1989  0.7520 -3.8570
16710TIP3   OH271544   3.538   1.922  14.179 -0.0773  0.2710  0.0162
16710TIP3    H171545   3.555   1.944  14.088  0.1476  1.9845  0.4503
16710TIP3    H271546   3.443   1.912  14.185 -0.1985  1.2737 -0.1760
16711TIP3   OH271547   4.502   4.537  13.538  0.3345 -0.3948 -0.0806
16711TIP3    H171548   4.471   4.495  13.618  1.7809 -0.3739  0.5296
16711TIP3    H271549   4.444   4.612  13.527 -1.0021 -1.3900 -0.0651
16712TIP3   OH271550   5.157   7.050   0.081 -0.3567 -0.0836  0.8444
16712TIP3    H171551   5.069   7.085   0.094 -1.3847 -1.5958 -1.4289
16712TIP3    H271552   5.146   6.955   0.088  0.9097 -0.3434 -0.2470
16713TIP3   OH271553   6.061   6.035   5.479  0.1423  0.5711  0.5892
16713TIP3    H171554   6.146   6.008   5.512  0.3166  2.2127  1.5804
16713TIP3    H271555   6.042   5.973   5.409  1.7918 -0.2893  0.8507
16714TIP3   OH271556   5.540   6.917   1.761 -0.4296 -0.1865  0.0789
16714TIP3    H171557   5.499   6.833   1.785 -0.6851 -0.0726  0.0431
16714TIP3    H271558   5.575   6.901   1.673 -0.0414 -0.4088  0.2725
16715TIP3   OH271559   7.009   2.489  10.161  0.4427 -0.4007  0.2010
16715TIP3    H171560   7.046   2.497  10.249 -0.7907 -0.4903  0.7468
16715TIP3    H271561   6.993   2.395  10.150  0.6158 -0.3927 -0.1294
16716TIP3   OH271562   2.936   2.963   2.416 -0.0197 -0.3098 -0.3308
16716TIP3    H171563   2.855   2.955   2.466  0.1172  0.1069 -0.0325
16716TIP3    H271564   2.967   2.873   2.405  0.5583 -0.3582  1.3674
16717TIP3   OH271565   2.493   6.197   2.125 -0.3560 -0.0936 -0.3318
16717TIP3    H171566   2.428   6.129   2.143  0.6220 -1.0008 -0.1383
16717TIP3    H271567   2.454   6.249   2.055 -1.1724 -0.7966 -0.4147
16718TIP3   OH271568   4.771   1.331   0.611  0.3588  0.2781  0.6554
16718TIP3    H171569   4.810   1.251   0.576 -0.1793 -0.7254  2.2721
16718TIP3    H271570   4.832   1.361   0.678  1.5008  2.3265 -1.1638
16719TIP3   OH271571   4.769   3.786   2.191 -0.0591  0.1708  0.2000
16719TIP3    H171572   4.774   3.698   2.228 -0.9282  1.0850  2.6858
16719TIP3    H271573   4.860   3.815   2.184  0.1690  0.5074  3.2541
16720TIP3   OH271574   4.736   6.919  14.557 -0.1876 -0.3165  0.1572
16720TIP3    H171575   4.776   6.986  14.500 -0.0239 -0.5939 -0.0588
16720TIP3    H271576   4.658   6.891  14.510  0.8362 -1.7633 -0.7768
16721TIP3   OH271577   4.971   4.786   4.922 -0.2339 -0.2487  0.1743
16721TIP3    H171578   4.966   4.740   4.839 -0.4261 -0.0795  0.0922
16721TIP3    H271579   4.987   4.877   4.898 -2.0162  0.1210  0.2471
16722TIP3   OH271580   4.619   1.509   5.598 -0.3435  0.0170  0.5626
16722TIP3    H171581   4.525   1.497   5.612 -0.5940  0.3670 -0.6894
16722TIP3    H271582   4.631   1.604   5.601 -0.3615  0.1009 -1.0868
16723TIP3   OH271583   4.755   2.837   4.334 -0.3878 -0.4836  0.2142
16723TIP3    H171584   4.660   2.838   4.323 -0.4247  0.9956  0.4563
16723TIP3    H271585   4.769   2.864   4.424  0.2801 -0.0719 -0.0078
16724TIP3   OH271586   0.435   2.154  15.499  0.0048  0.5154  0.0065
16724TIP3    H171587   0.411   2.224  15.560  0.3916  1.5621 -1.0075
16724TIP3    H271588   0.409   2.187  15.413  2.9261  0.7857 -0.8783
16725TIP3   OH271589   2.114   5.303   5.567  0.3032  0.3940  0.5821
16725TIP3    H171590   2.168   5.224   5.573 -0.5124 -0.2112  0.1982
16725TIP3    H271591   2.065   5.304   5.650 -1.2215 -0.6833 -0.2475
16726TIP3   OH271592   1.901   1.868   5.084  0.4108  0.6050 -0.1665
16726TIP3    H171593   1.925   1.933   5.150 -2.5621  1.9182 -0.2152
16726TIP3    H271594   1.848   1.916   5.021  0.4031 -1.3213 -1.7247
16727TIP3   OH271595   6.596   3.792   4.537 -0.1755 -0.0063 -0.8712
16727TIP3    H171596   6.509   3.767   4.505  0.3048 -1.0559 -1.3822
16727TIP3    H271597   6.587   3.885   4.558 -1.2528  0.0527 -1.5014
16728TIP3   OH271598   1.206   0.951   5.106  0.5946  0.4171 -0.5517
16728TIP3    H171599   1.254   0.868   5.117 -1.2078 -0.7189 -0.7961
16728TIP3    H271600   1.116   0.930   5.131 -0.0379  2.1691 -1.1954
16729TIP3   OH271601   3.414   2.730  13.343  0.2204  0.3043 -0.4864
16729TIP3    H171602   3.427   2.649  13.393 -0.7795 -0.1527 -0.9400
16729TIP3    H271603   3.345   2.709  13.280 -0.2049  1.5680 -0.4734
16730TIP3   OH271604   2.574   4.253  11.624  0.2663 -0.2114 -0.1393
16730TIP3    H171605   2.586   4.332  11.677  0.5833 -0.7740  0.6446
16730TIP3    H271606   2.533   4.191  11.683 -0.2908 -0.5330 -0.8520
16731TIP3   OH271607   5.257   4.784   4.710  0.1637 -0.1803 -0.2622
16731TIP3    H171608   5.243   4.870   4.749 -0.6346 -0.6700  0.5829
16731TIP3    H271609   5.170   4.756   4.681  0.3159 -0.9131 -0.0427
16732TIP3   OH271610   4.102   1.309  12.552 -0.0609 -0.1279 -0.6841
16732TIP3    H171611   4.081   1.316  12.645 -0.2739 -0.5788 -0.6928
16732TIP3    H271612   4.026   1.344  12.506 -0.1156 -0.2602 -0.6942
16733TIP3   OH271613   1.886   0.986   3.349  0.8103  0.1037 -0.2872
16733TIP3    H171614   1.936   1.068   3.342  1.8247 -0.4266  0.4935
16733TIP3    H271615   1.805   1.012   3.395  2.0265  0.3488  1.8371
16734TIP3   OH271616   0.212   0.452   2.379  0.2460  0.1041 -0.3184
16734TIP3    H171617   0.178   0.448   2.290  0.3783  0.7212 -0.3991
16734TIP3    H271618   0.307   0.456   2.368  0.4073 -1.9102 -0.0907
16735TIP3   OH271619   3.539   4.664  12.334 -0.0988  0.1568 -0.5646
16735TIP3    H171620   3.546   4.588  12.276  0.6911 -0.2705  0.0708
16735TIP3    H271621   3.588   4.639  12.412 -1.0381  0.7731  0.2466
16736TIP3   OH271622   6.274   3.461   2.884  0.4746 -0.4405 -0.0282
16736TIP3    H171623   6.204   3.404   2.916  0.6418 -0.2566  0.6814
16736TIP3    H271624   6.268   3.455   2.789  0.6497 -1.8449  0.0266
16737TIP3   OH271625   1.748   2.443   5.099  0.2868 -0.4749  0.3218
16737TIP3    H171626   1.671   2.403   5.140  0.5722  0.6781  2.1261
16737TIP3    H271627   1.816   2.440   5.167  1.3917 -0.1628 -0.7275
16738TIP3   OH271628   1.616   4.108   3.665 -0.0246 -0.0384  0.1733
16738TIP3    H171629   1.674   4.031   3.668 -1.3512 -1.1410 -1.0140
16738TIP3    H271630   1.587   4.118   3.756  2.2424  0.7759  0.8803
16739TIP3   OH271631   1.252   0.380   2.667 -0.1797 -0.2596 -0.0749
16739TIP3    H171632   1.246   0.438   2.743 -0.9190  0.1439 -0.4258
16739TIP3    H271633   1.269   0.293   2.704 -2.6202 -0.4783  0.7549
16740TIP3   OH271634   4.256   2.921   1.838 -0.5213 -0.4744  0.3326
16740TIP3    H171635   4.261   2.826   1.826 -1.2985 -0.3136 -1.5475
16740TIP3    H271636   4.230   2.955   1.753  1.7714  1.6473  0.3555
16741TIP3   OH271637   4.488   2.984   1.979 -0.6940  0.7282 -0.1225
16741TIP3    H171638   4.422   2.942   1.924 -1.1265  1.1523  0.0636
16741TIP3    H271639   4.569   2.938   1.958 -0.3568  2.3041 -2.7975
16742TIP3   OH271640   3.925   1.839   5.520  0.1453  0.2761  0.2330
16742TIP3    H171641   3.881   1.907   5.572 -1.6667  0.3406 -1.2609
16742TIP3    H271642   3.871   1.761   5.530 -0.8948  0.5642 -2.2801
16743TIP3   OH271643   3.880   3.238   5.871 -0.5810  0.2683 -0.6976
16743TIP3    H171644   3.963   3.270   5.836  0.2113 -1.0810 -0.1240
16743TIP3    H271645   3.820   3.312   5.862  0.8509  1.5016 -0.5202
16744TIP3   OH271646   1.766   0.080   0.102 -0.0111  0.4342  0.3373
16744TIP3    H171647   1.782   0.035   0.185  1.0171 -1.2515 -0.7217
16744TIP3    H271648   1.849   0.124   0.083 -0.5021  1.4968  0.5646
16745TIP3   OH271649   0.086   2.662   3.208  0.5735 -0.6042  1.2928
16745TIP3    H171650   0.148   2.597   3.175 -0.3404 -1.5957  1.4519
16745TIP3    H271651   0.034   2.614   3.273 -1.4533 -0.2996 -0.0036
16746TIP3   OH271652   5.266   2.996   2.469 -0.3487 -0.4373  0.3265
16746TIP3    H171653   5.337   3.059   2.456  0.4032 -0.3689  3.7192
16746TIP3    H271654   5.289   2.922   2.413  2.7747 -0.6251  1.6455
16747TIP3   OH271655   6.567   4.461   1.026  0.2261  0.0706  0.7068
16747TIP3    H171656   6.492   4.402   1.024  1.0683 -1.0383  1.2784
16747TIP3    H271657   6.609   4.445   1.110  0.1472  1.9247  1.1485
16748TIP3   OH271658   2.490   6.316  13.323 -0.2428 -0.2926 -0.6801
16748TIP3    H171659   2.578   6.314  13.285 -0.7993  1.1812 -2.1324
16748TIP3    H271660   2.494   6.254  13.396  1.1456 -2.5078 -2.5261
16749TIP3   OH271661   1.682   4.704  11.186 -0.5573  0.0042  0.3172
16749TIP3    H171662   1.602   4.736  11.226 -2.5534 -1.1051 -2.4684
16749TIP3    H271663   1.704   4.771  11.121  0.5426  0.0688  0.7332
16750TIP3   OH271664   0.647   6.928  14.472 -0.7868 -0.2694  0.3657
16750TIP3    H171665   0.683   6.908  14.558 -0.1979 -0.7303  0.0173
16750TIP3    H271666   0.582   6.996  14.489  0.4085  0.7600  0.9711
16751TIP3   OH271667   0.227   1.402   2.819 -0.2448  0.0195  0.5919
16751TIP3    H171668   0.291   1.422   2.888 -0.1293  0.1308  0.4513
16751TIP3    H271669   0.258   1.449   2.742 -0.6852  0.3499  0.6124
16752TIP3   OH271670   4.000   3.154   3.931 -0.0573  0.4803  0.5900
16752TIP3    H171671   3.990   3.222   3.998 -1.4368  0.8124  0.0831
16752TIP3    H271672   4.078   3.179   3.882  0.6250  0.5605  1.6831
16753TIP3   OH271673   6.982   2.640  10.740 -0.2601 -0.1695 -0.0120
16753TIP3    H171674   6.934   2.646  10.658 -0.8956  0.1513  0.3791
16753TIP3    H271675   6.929   2.689  10.803  0.9398  0.8377  0.2630
16754TIP3   OH271676   4.358   4.168   5.342 -0.3908 -0.2313 -0.4844
16754TIP3    H171677   4.386   4.122   5.263  0.9539 -0.3597  0.0472
16754TIP3    H271678   4.439   4.198   5.383 -1.0320 -0.5367  1.0815
16755TIP3   OH271679   6.609   4.953   2.108 -0.1124  0.2264 -0.4767
16755TIP3    H171680   6.549   4.914   2.044  1.7651 -3.3088 -0.2762
16755TIP3    H271681   6.696   4.929   2.078  0.9277  0.0778  2.3885
16756TIP3   OH271682   5.639   6.927   1.487 -0.2511  0.0834 -0.0654
16756TIP3    H171683   5.733   6.927   1.507 -0.4543  0.9859  1.0007
16756TIP3    H271684   5.631   6.989   1.415 -0.1564  0.9459  0.6427
16757TIP3   OH271685   6.938   5.644   3.056 -0.0804  1.0511  0.0229
16757TIP3    H171686   6.872   5.686   3.111 -1.2133 -0.3524 -0.1938
16757TIP3    H271687   6.997   5.601   3.118 -0.7152  0.4009  0.1938
16758TIP3   OH271688   7.128   4.177   5.035  0.0702 -0.5899  0.8546
16758TIP3    H171689   7.092   4.088   5.039  2.3994 -1.6823 -0.7076
16758TIP3    H271690   7.191   4.175   4.964  3.8931  0.8691  3.8113
16759TIP3   OH271691   2.933   5.745   3.283  0.3791  0.8151  0.1235
16759TIP3    H171692   2.913   5.652   3.285  0.7399  0.7444  0.4945
16759TIP3    H271693   2.938   5.771   3.375  0.8369  1.0771  0.0285
16760TIP3   OH271694   1.572   2.253  11.585  0.4688 -0.3160  0.8655
16760TIP3    H171695   1.641   2.224  11.526  0.3408  1.6077 -0.3273
16760TIP3    H271696   1.600   2.224  11.672  2.9646  0.6912  0.4607
16761TIP3   OH271697   6.380   4.623  11.205  0.3288  0.3160 -0.1428
16761TIP3    H171698   6.317   4.625  11.133 -0.5759  0.0688  0.6237
16761TIP3    H271699   6.453   4.572  11.170 -0.5888 -0.8082 -0.5203
16762TIP3   OH271700   3.397   3.984  14.446  0.0948 -0.4666  0.1228
16762TIP3    H171701   3.371   3.990  14.538 -0.9149 -1.9495 -0.0106
16762TIP3    H271702   3.323   3.940  14.404  0.4066  0.4528 -1.4709
16763TIP3   OH271703   0.412   3.094   0.543  0.1286 -0.1003  0.0679
16763TIP3    H171704   0.380   3.039   0.614 -1.3482  1.4805  0.6855
16763TIP3    H271705   0.334   3.120   0.495  0.9676  0.0238 -1.3042
16764TIP3   OH271706   2.994   4.516   0.067  0.0928 -0.5153 -0.2881
16764TIP3    H171707   2.986   4.423   0.043 -0.2935 -0.3379 -0.8511
16764TIP3    H271708   2.905   4.550   0.061  0.1650 -0.2072  0.3574
16765TIP3   OH271709   2.519   6.138   4.670 -0.3909  0.3937 -0.1948
16765TIP3    H171710   2.572   6.130   4.590 -0.9900  3.2749 -0.9760
16765TIP3    H271711   2.513   6.048   4.703  0.9226 -0.7247 -2.6868
16766TIP3   OH271712   1.623   2.565   3.695  0.2290 -0.0029  0.1660
16766TIP3    H171713   1.644   2.655   3.670 -0.2252 -0.0404 -0.3613
16766TIP3    H271714   1.528   2.559   3.686 -0.0395  0.0971  2.2897
16767TIP3   OH271715   2.246   6.213   2.576  0.8408 -0.4917  0.3099
16767TIP3    H171716   2.168   6.170   2.612  0.4018 -3.4174 -3.4772
16767TIP3    H271717   2.319   6.162   2.612  0.4561 -2.7911 -1.8629
16768TIP3   OH271718   5.887   5.800   0.555 -0.3838  0.5235  0.1420
16768TIP3    H171719   5.949   5.861   0.596  0.0604  0.4177 -0.3689
16768TIP3    H271720   5.938   5.754   0.489 -0.5724 -0.8140  0.8890
16769TIP3   OH271721   6.719   5.577   0.314 -0.0573  0.3411  0.0475
16769TIP3    H171722   6.738   5.516   0.385  0.1796  0.4192  0.0523
16769TIP3    H271723   6.761   5.659   0.341 -1.0010  0.7280  0.4003
16770TIP3   OH271724   1.425   5.589   2.344 -0.3573 -0.2942  0.0914
16770TIP3    H171725   1.382   5.675   2.342 -3.3964 -1.7101 -0.4687
16770TIP3    H271726   1.398   5.551   2.428  0.4960 -0.9323  0.0864
16771TIP3   OH271727   1.837   3.710  13.571  0.1513  0.2306 -0.5933
16771TIP3    H171728   1.924   3.726  13.534  0.4613  1.5566  0.6128
16771TIP3    H271729   1.854   3.674  13.658 -0.5073  0.5335 -0.3338
16772TIP3   OH271730   0.629   3.469  11.721  0.1392 -0.5068 -0.2173
16772TIP3    H171731   0.690   3.538  11.695 -0.6822 -0.0128 -0.8796
16772TIP3    H271732   0.683   3.407  11.771  1.3631 -0.5108 -1.4608
16773TIP3   OH271733   0.333   0.966   5.351  0.2707 -0.3749  0.0951
16773TIP3    H171734   0.293   0.897   5.404  2.6978 -0.4005  2.1130
16773TIP3    H271735   0.358   0.923   5.270  0.6912 -1.6214  0.8487
16774TIP3   OH271736   1.237   2.090   3.350  0.1730 -0.3580 -0.5656
16774TIP3    H171737   1.290   2.020   3.313 -1.3835 -2.7557  1.3543
16774TIP3    H271738   1.258   2.088   3.443 -1.8711 -0.1634 -0.0576
16775TIP3   OH271739   0.135   6.100   4.406 -0.0616  0.0090 -0.4809
16775TIP3    H171740   0.066   6.065   4.463  1.0175 -2.8166 -0.7722
16775TIP3    H271741   0.122   6.056   4.322  0.5860  1.3637 -1.3275
16776TIP3   OH271742   0.943   4.017   3.513  0.0467  0.1829  0.0554
16776TIP3    H171743   0.865   3.964   3.496  0.2808  0.0380 -0.5485
16776TIP3    H271744   0.988   4.022   3.429 -1.1674  3.2808 -0.5552
16777TIP3   OH271745   0.035   3.064  14.467 -0.4331  0.1285 -0.2719
16777TIP3    H171746   0.042   3.110  14.384 -1.3891 -0.4691 -0.7000
16777TIP3    H271747  -0.015   3.124  14.523  0.9105  0.8881  0.1689
16778TIP3   OH271748   5.048   2.334   1.629  0.0390 -0.1244 -0.2518
16778TIP3    H171749   5.067   2.266   1.693  1.4489  1.1309  0.7521
16778TIP3    H271750   4.997   2.290   1.561  2.2586 -2.5943 -0.4917
16779TIP3   OH271751   1.822   6.969   4.090  0.1946 -0.0777  0.4146
16779TIP3    H171752   1.840   6.876   4.100 -2.0671 -0.6206  0.0330
16779TIP3    H271753   1.766   6.975   4.013  0.2832  1.6104  0.4383
16780TIP3   OH271754   0.038   3.805  14.526  0.3634  0.3962  0.0920
16780TIP3    H171755  -0.055   3.804  14.546  0.5961  1.6060  1.4056
16780TIP3    H271756   0.081   3.792  14.610  1.4088 -0.8995 -0.5961
16781TIP3   OH271757   5.111   6.173   1.705 -0.0519 -0.1525  0.5387
16781TIP3    H171758   5.180   6.195   1.642 -2.6689  0.0775 -2.4954
16781TIP3    H271759   5.150   6.106   1.761  2.1643 -1.1307 -1.9690
16782TIP3   OH271760   3.879   6.741   4.696 -0.3320  0.1112 -0.4050
16782TIP3    H171761   3.920   6.664   4.657 -2.2949 -0.2592 -1.8816
16782TIP3    H271762   3.831   6.707   4.772 -1.7413 -0.3068 -1.4334
16783TIP3   OH271763   3.647   0.379  11.744 -0.2870  0.1461  0.1477
16783TIP3    H171764   3.730   0.331  11.738 -0.9350 -0.8563 -1.2584
16783TIP3    H271765   3.665   0.465  11.705  0.7252  0.9078  2.1520
16784TIP3   OH271766   6.155   5.882   2.357 -0.5348 -0.4646  0.5078
16784TIP3    H171767   6.067   5.915   2.377  0.5600  1.5609  2.4671
16784TIP3    H271768   6.201   5.884   2.441  2.1432  1.0357 -0.8639
16785TIP3   OH271769   6.893   1.288   2.457 -0.2687  0.6184  0.0845
16785TIP3    H171770   6.920   1.205   2.419  2.5352  1.5912 -0.3426
16785TIP3    H271771   6.873   1.344   2.382 -2.8764  0.1805  0.3842
16786TIP3   OH271772   2.939   5.782   2.996  0.0754  0.0713 -0.5981
16786TIP3    H171773   3.016   5.831   2.968  0.6446 -0.2926  0.2494
16786TIP3    H271774   2.954   5.767   3.090  0.1700 -2.1201 -0.9195
16787TIP3   OH271775   6.976   5.958   5.520  0.0610 -0.3590  0.1787
16787TIP3    H171776   6.900   5.971   5.464  0.8034  0.2186 -0.7423
16787TIP3    H271777   6.974   5.865   5.542  0.1200 -0.7731 -1.4127
16788TIP3   OH271778   4.556   3.682  10.260 -0.3861  0.5919  0.7120
16788TIP3    H171779   4.519   3.767  10.236  3.7108  1.9579 -1.8933
16788TIP3    H271780   4.610   3.700  10.337  0.4251  0.3237  0.2097
16789TIP3   OH271781   5.914   0.822   3.297 -0.4746  0.0542 -0.0780
16789TIP3    H171782   5.989   0.764   3.297  1.3825  2.3016 -0.9090
16789TIP3    H271783   5.839   0.765   3.283  1.1646 -2.1520 -0.3297
16790TIP3   OH271784   1.918   6.908   6.004 -0.1337 -0.2692  0.0961
16790TIP3    H171785   1.982   6.869   6.064  0.0225  1.3132  1.0030
16790TIP3    H271786   1.849   6.842   5.997  0.7539 -1.2674  0.4990
16791TIP3   OH271787   6.237   0.911   3.987 -0.0972  0.1204 -0.0772
16791TIP3    H171788   6.302   0.843   3.970 -1.7789 -2.1557  1.9279
16791TIP3    H271789   6.231   0.959   3.904  2.0522 -1.3702 -1.1989
16792TIP3   OH271790   3.949   0.208   3.662  0.5665 -0.6225  0.8399
16792TIP3    H171791   3.892   0.194   3.586  1.8730 -0.7434 -0.1607
16792TIP3    H271792   3.997   0.288   3.642 -0.4053  0.4250  2.4409
16793TIP3   OH271793   0.303   2.839  10.658  0.1505 -0.3445  0.4114
16793TIP3    H171794   0.289   2.841  10.563  0.0984  0.2943  0.4297
16793TIP3    H271795   0.229   2.789  10.692  0.1627 -0.5656  0.1162
16794TIP3   OH271796   6.888   2.897   2.303 -0.8152 -0.9703  0.0033
16794TIP3    H171797   6.883   2.827   2.367 -0.1932  0.4106  1.6627
16794TIP3    H271798   6.822   2.875   2.237 -2.1714 -1.9676  1.6224
16795TIP3   OH271799   4.055   2.591   0.939 -0.1227  0.3594  0.4502
16795TIP3    H171800   4.126   2.585   1.003  0.7983 -0.4902 -0.6170
16795TIP3    H271801   4.090   2.646   0.869 -0.6723  0.2646  0.0979
16796TIP3   OH271802   2.340   1.661  15.619  0.0178 -0.2650  0.1124
16796TIP3    H171803   2.401   1.668  15.546  0.1957  0.5308  0.3312
16796TIP3    H271804   2.253   1.675  15.581  0.2156  1.4683  0.2501
16797TIP3   OH271805   0.217   6.318   1.042  0.0421 -0.3230  0.1187
16797TIP3    H171806   0.138   6.299   1.093  1.3877 -1.1105  2.0196
16797TIP3    H271807   0.192   6.392   0.987 -1.9290 -0.3493  0.8890
16798TIP3   OH271808   4.146   2.813   5.119  0.2852  0.3140  0.6087
16798TIP3    H171809   4.137   2.898   5.076  0.2875 -0.2257 -0.5143
16798TIP3    H271810   4.210   2.828   5.189  0.1529  1.2672  0.5406
16799TIP3   OH271811   3.620   5.712   2.591 -0.2163 -0.2810 -0.1722
16799TIP3    H171812   3.642   5.634   2.540  0.9579 -0.9108  1.2210
16799TIP3    H271813   3.533   5.737   2.560  1.3818  0.9749 -4.3919
16800TIP3   OH271814   3.810   3.597   0.322 -0.6249 -0.4648  0.2421
16800TIP3    H171815   3.845   3.614   0.235 -1.1801  1.1379  0.3063
16800TIP3    H271816   3.728   3.645   0.326  0.4582  1.4129  2.3947
16801TIP3   OH271817   2.971   1.359   2.162  0.6962 -0.3179  0.5204
16801TIP3    H171818   2.940   1.401   2.243 -0.9392  1.1686 -0.7674
16801TIP3    H271819   2.923   1.276   2.158 -0.1927  0.1818  0.4875
16802TIP3   OH271820   1.184   3.164   3.619 -0.1356  0.1112 -0.1295
16802TIP3    H171821   1.277   3.144   3.617 -0.2452 -0.4056 -0.1064
16802TIP3    H271822   1.180   3.252   3.657  0.3550  0.2359 -0.3563
16803TIP3   OH271823   2.611   3.896   5.397  0.0867 -0.0779 -0.1524
16803TIP3    H171824   2.664   3.945   5.460 -1.8841  1.2836  0.5439
16803TIP3    H271825   2.655   3.812   5.389  0.2988 -0.4326  3.2773
16804TIP3   OH271826   5.359   0.693  11.966  0.3024 -0.0529  0.0474
16804TIP3    H171827   5.340   0.779  11.929  1.9793  0.0843 -0.6115
16804TIP3    H271828   5.312   0.631  11.910 -1.2235  0.4107  0.7524
16805TIP3   OH271829   0.504   4.670  10.957 -0.2126  1.0415 -0.3391
16805TIP3    H171830   0.580   4.644  10.904  0.6632 -0.2624  1.4273
16805TIP3    H271831   0.541   4.688  11.044 -1.7365  1.9485  0.1524
16806TIP3   OH271832   0.962   6.170   0.417  0.4539  0.2363  0.2525
16806TIP3    H171833   0.970   6.266   0.417  1.0543  0.1932 -0.2222
16806TIP3    H271834   1.027   6.141   0.353  1.3047 -0.5637  1.4428
16807TIP3   OH271835   1.909   4.780   5.574 -0.3901 -0.3374  0.2431
16807TIP3    H171836   1.868   4.799   5.658  1.3117 -0.5394  1.1751
16807TIP3    H271837   2.003   4.776   5.594  0.2283  1.2556 -1.9633
16808TIP3   OH271838   4.276   4.591   0.239 -0.1618  0.1061 -0.0619
16808TIP3    H171839   4.263   4.499   0.262 -1.0183  0.8175  2.6811
16808TIP3    H271840   4.201   4.637   0.278  0.3909  2.0223 -1.0875
16809TIP3   OH271841   0.262   0.278   5.971 -0.4039  0.4192 -0.9336
16809TIP3    H171842   0.347   0.311   5.999 -0.6666 -0.9526  1.7950
16809TIP3    H271843   0.203   0.352   5.981 -0.1073  0.4970  0.3810
16810TIP3   OH271844   6.299   2.973   0.227 -0.4569 -0.0293 -0.3495
16810TIP3    H171845   6.303   2.937   0.138 -1.0251 -1.2140  0.0816
16810TIP3    H271846   6.384   3.015   0.240  0.4892 -1.7351 -0.6860
16811TIP3   OH271847   4.150   3.964   1.037 -0.6291 -0.6540 -0.1294
16811TIP3    H171848   4.150   3.901   0.965  1.5280  0.1676 -0.9415
16811TIP3    H271849   4.177   4.047   0.997  1.1316 -0.2769  1.6407
16812TIP3   OH271850   2.073   2.328   3.701 -0.0090  0.1495 -0.3181
16812TIP3    H171851   2.100   2.304   3.613  0.1347 -0.8336 -0.0205
16812TIP3    H271852   1.979   2.346   3.693 -0.5746 -2.4425 -0.2217
16813TIP3   OH271853   2.211   5.082  15.297  0.1997  0.1484  0.1676
16813TIP3    H171854   2.135   5.071  15.354  0.2492  1.7630  0.6022
16813TIP3    H271855   2.282   5.109  15.357  1.2311 -1.6289 -0.1772
16814TIP3   OH271856   0.879   2.711  13.598 -0.8704  0.3525 -0.4157
16814TIP3    H171857   0.828   2.656  13.657 -0.9882  2.3660  1.4429
16814TIP3    H271858   0.958   2.660  13.581 -0.2171  0.1837  2.5719
16815TIP3   OH271859   3.655   6.707   3.067 -0.5010 -0.2551 -0.2913
16815TIP3    H171860   3.644   6.800   3.047  0.9882 -0.0438 -0.2094
16815TIP3    H271861   3.628   6.663   2.987  2.3542  0.4449 -1.7430
16816TIP3   OH271862   1.358   0.928  14.995  0.5024  0.3193  0.0818
16816TIP3    H171863   1.383   1.021  15.001 -1.2030  0.7525  0.9847
16816TIP3    H271864   1.329   0.917  14.905 -4.5595  2.2022  1.1665
16817TIP3   OH271865   5.026   1.931   1.270 -0.2597 -0.0932 -0.0126
16817TIP3    H171866   5.066   1.870   1.208  3.1665  1.7378  0.1520
16817TIP3    H271867   5.050   2.017   1.237  1.0443  0.9966  3.3101
16818TIP3   OH271868   0.586   6.080   5.358  0.2568 -0.6140 -0.0972
16818TIP3    H171869   0.492   6.073   5.341  0.3943  0.2929 -1.4024
16818TIP3    H271870   0.626   6.034   5.284  0.8622  1.3139 -1.0255
16819TIP3   OH271871   3.643   2.794  15.596  0.8896  0.1441 -0.3918
16819TIP3    H171872   3.722   2.845  15.614  0.9387 -0.4422  1.2505
16819TIP3    H271873   3.588   2.851  15.543  0.7007  2.1431  1.8084
16820TIP3   OH271874   4.517   3.930  15.260  0.3809 -0.7442 -0.0614
16820TIP3    H171875   4.518   3.926  15.164  1.2310  1.4315 -0.1930
16820TIP3    H271876   4.464   3.855  15.286 -2.9542  0.5513 -2.4025
16821TIP3   OH271877   5.248   6.120  12.236 -0.1817 -0.6506  0.0165
16821TIP3    H171878   5.170   6.084  12.194 -0.0103 -0.3455 -0.5742
16821TIP3    H271879   5.260   6.206  12.195 -0.3913 -0.0634  1.1673
16822TIP3   OH271880   5.751   4.735   5.153  0.0991  0.3383  0.2221
16822TIP3    H171881   5.755   4.772   5.065  0.8164 -2.0664 -0.8458
16822TIP3    H271882   5.835   4.691   5.164 -0.7477 -1.0997  1.2856
16823TIP3   OH271883   5.768   6.465   3.337  0.1365 -0.1273  0.2063
16823TIP3    H171884   5.691   6.508   3.374  0.1957  0.3379 -0.1985
16823TIP3    H271885   5.733   6.396   3.281 -0.0097  0.5188 -0.5107
16824TIP3   OH271886   2.812   5.309  11.398 -0.4149  0.8192 -0.4575
16824TIP3    H171887   2.883   5.278  11.342 -0.3105  0.7952 -0.3102
16824TIP3    H271888   2.737   5.316  11.339 -0.2831  0.8768 -0.6202
16825TIP3   OH271889   4.021   1.759   0.263 -0.3457  0.6321 -0.7179
16825TIP3    H171890   3.992   1.722   0.346  0.3326  1.1024 -0.2575
16825TIP3    H271891   3.941   1.767   0.211 -1.0309  1.7688  0.4586
16826TIP3   OH271892   4.552   3.120  13.664 -0.6794 -0.3450  0.0609
16826TIP3    H171893   4.604   3.053  13.619 -0.3487 -1.0814  1.4626
16826TIP3    H271894   4.594   3.203  13.641 -0.2105 -0.7459 -0.5528
16827TIP3   OH271895   2.665   5.727   6.000  0.6516 -0.1864  0.0568
16827TIP3    H171896   2.736   5.689   5.950  0.4678  0.2973 -0.5830
16827TIP3    H271897   2.639   5.805   5.951 -0.5069 -0.5021  0.1278
16828TIP3   OH271898   4.123   3.453   2.724 -0.4579  0.0279 -0.2477
16828TIP3    H171899   4.063   3.408   2.664  0.9276 -0.7352 -1.1353
16828TIP3    H271900   4.112   3.546   2.704 -0.0691 -0.2058 -1.6830
16829TIP3   OH271901   2.151   1.406   5.926 -0.8028 -0.4676  0.3814
16829TIP3    H171902   2.204   1.482   5.949  0.4714  0.0545 -3.4983
16829TIP3    H271903   2.075   1.442   5.880 -0.0732 -1.4458 -1.6944
16830TIP3   OH271904   0.047   5.861   3.703  0.3044  0.1130 -0.1470
16830TIP3    H171905  -0.035   5.904   3.729  0.4749  2.3919 -2.8487
16830TIP3    H271906   0.114   5.928   3.714  1.0793 -0.3332 -1.8364
16831TIP3   OH271907   2.200   6.543   1.644  0.5097 -0.1497  0.4059
16831TIP3    H171908   2.270   6.502   1.694 -1.8055 -2.3624  2.0703
16831TIP3    H271909   2.183   6.482   1.572  0.5566  0.6003 -0.2588
16832TIP3   OH271910   2.684   5.433   1.066 -0.6240 -0.1414 -0.5435
16832TIP3    H171911   2.590   5.435   1.085 -1.3145 -0.8175 -3.4686
16832TIP3    H271912   2.720   5.506   1.117 -2.8978  0.8063 -0.1780
16833TIP3   OH271913   3.987   1.240   0.472 -0.5239 -0.7652  0.1546
16833TIP3    H171914   3.915   1.295   0.443 -2.2128 -1.7372  2.2033
16833TIP3    H271915   4.041   1.297   0.526 -2.7866 -1.1455  3.0762
16834TIP3   OH271916   3.586   6.763   2.053  0.6475  0.3000 -0.1392
16834TIP3    H171917   3.646   6.694   2.027 -0.1349 -1.1453  1.6525
16834TIP3    H271918   3.632   6.811   2.122 -0.2128 -0.9012  1.3406
16835TIP3   OH271919   0.789   0.261  14.475 -0.0907 -0.6771 -0.6484
16835TIP3    H171920   0.793   0.356  14.485 -2.0634 -0.6931  1.0309
16835TIP3    H271921   0.859   0.227  14.531 -0.3854 -0.2402 -0.0101
16836TIP3   OH271922   2.695   6.272  10.341  0.0304  0.3313 -0.2773
16836TIP3    H171923   2.736   6.186  10.327  1.6776  0.6543  1.9391
16836TIP3    H271924   2.766   6.334  10.329 -0.4220  1.1389  1.0163
16837TIP3   OH271925   2.392   4.622   2.285  0.1898 -0.5334  0.3883
16837TIP3    H171926   2.387   4.703   2.235 -0.2621 -1.6336 -1.4662
16837TIP3    H271927   2.467   4.634   2.343 -0.1593  1.3588  0.5052
16838TIP3   OH271928   3.525   0.404   4.114  0.7152  0.1456  0.8319
16838TIP3    H171929   3.495   0.493   4.133 -0.6859 -0.1013 -0.0207
16838TIP3    H271930   3.492   0.351   4.186 -0.2131  0.0122  0.3242
16839TIP3   OH271931   0.798   1.539   5.245 -0.4626 -0.3774  0.2426
16839TIP3    H171932   0.791   1.607   5.179  2.3935 -0.5529 -0.3565
16839TIP3    H271933   0.727   1.558   5.307 -1.0932  1.8105 -1.0549
16840TIP3   OH271934   3.946   1.414   2.790 -0.0648  0.6723  0.2296
16840TIP3    H171935   3.886   1.464   2.847  0.1354  0.6468  0.4656
16840TIP3    H271936   3.902   1.412   2.705 -0.0562  1.2920  0.2013
16841TIP3   OH271937   0.614   0.422   2.732  0.5463 -0.3597  0.8031
16841TIP3    H171938   0.519   0.420   2.738  0.3161  0.7405 -1.5426
16841TIP3    H271939   0.637   0.514   2.740  1.5894 -0.7400  2.8053
16842TIP3   OH271940   0.792   5.912   0.165  0.3232  0.1100 -0.0735
16842TIP3    H171941   0.879   5.902   0.127 -0.1855  0.3106 -1.3606
16842TIP3    H271942   0.781   5.834   0.220  0.8538 -0.5429 -0.8567
16843TIP3   OH271943   5.857   2.106  13.674 -0.0683  0.3495  0.7626
16843TIP3    H171944   5.817   2.166  13.612 -2.3047 -0.9419  0.8418
16843TIP3    H271945   5.933   2.071  13.628 -1.1821  0.0708 -0.9534
16844TIP3   OH271946   1.558   4.226   5.596  0.2494 -0.1770 -0.3310
16844TIP3    H171947   1.587   4.255   5.510 -0.7437  0.6599 -0.3950
16844TIP3    H271948   1.520   4.303   5.636  1.3346 -0.3781  1.1614
16845TIP3   OH271949   4.899   0.945   4.308  0.1304  0.4665  0.2951
16845TIP3    H171950   4.864   0.984   4.388  0.4687  2.6388 -0.5611
16845TIP3    H271951   4.981   0.992   4.293  0.5025 -0.5136 -0.8790
16846TIP3   OH271952   5.374   4.762   2.870  0.6846 -0.1238 -0.0393
16846TIP3    H171953   5.365   4.849   2.831  0.8125  0.0817  0.3833
16846TIP3    H271954   5.358   4.702   2.797 -0.6672  0.2387 -0.0707
16847TIP3   OH271955   2.812   5.599  14.463 -0.5095 -0.1477  0.1305
16847TIP3    H171956   2.776   5.653  14.533 -0.9963  0.0240 -0.2408
16847TIP3    H271957   2.770   5.514  14.475 -1.4945  0.2011 -0.6217
16848TIP3   OH271958   6.831   5.782   4.120 -0.0656 -0.2479 -0.7813
16848TIP3    H171959   6.785   5.700   4.103  0.2832 -0.4898 -0.5598
16848TIP3    H271960   6.763   5.849   4.111 -0.0257 -0.4058 -2.5426
16849TIP3   OH271961   6.929   6.042  10.631  0.0842  0.3051  0.3704
16849TIP3    H171962   6.886   6.076  10.710  0.2238  0.0409  0.5624
16849TIP3    H271963   6.965   6.119  10.588 -0.4722  0.5157  0.2766
16850TIP3   OH271964   2.762   2.935  14.111  0.1148  0.3399 -0.5860
16850TIP3    H171965   2.704   2.996  14.065 -0.1644  0.0731 -0.5944
16850TIP3    H271966   2.850   2.967  14.092 -0.0442  1.1590  0.0031
16851TIP3   OH271967   2.975   0.769   2.016  0.1947 -0.2048 -0.4457
16851TIP3    H171968   2.970   0.677   2.042 -0.9794  0.3358  1.4108
16851TIP3    H271969   2.987   0.766   1.921  2.1795 -2.2780 -0.2376
16852TIP3   OH271970   2.578   5.955   0.082  0.2881 -0.0833 -0.0446
16852TIP3    H171971   2.509   5.954   0.148  0.6180 -1.2462  0.3133
16852TIP3    H271972   2.639   6.023   0.111 -1.9541  2.9308 -1.7825
16853TIP3   OH271973   6.213   5.413   5.481 -0.8684 -0.0065  0.5757
16853TIP3    H171974   6.274   5.359   5.532 -0.4524 -0.2438 -0.1506
16853TIP3    H271975   6.143   5.435   5.542 -1.4241 -1.9842  0.7110
16854TIP3   OH271976   1.064   2.148  15.423  0.1330 -0.1000  0.1394
16854TIP3    H171977   1.129   2.100  15.372  1.5469  0.9434  0.8724
16854TIP3    H271978   1.079   2.121  15.513 -0.7728 -0.1923  0.2681
16855TIP3   OH271979   0.770   5.002   2.643 -0.3245 -0.0551 -0.2038
16855TIP3    H171980   0.770   5.056   2.564  0.3125 -0.9167 -0.8043
16855TIP3    H271981   0.748   5.063   2.714 -0.1599  0.8758 -0.9413
16856TIP3   OH271982   5.350   5.789   0.165 -0.0592  0.4625  0.1164
16856TIP3    H171983   5.258   5.789   0.188 -0.2969  3.5628 -0.3925
16856TIP3    H271984   5.393   5.835   0.237  1.3933 -2.0069  0.9752
16857TIP3   OH271985   1.966   4.053  12.255 -0.1730 -0.1902  0.5893
16857TIP3    H171986   1.954   4.147  12.242 -0.7206 -0.3358 -0.0188
16857TIP3    H271987   2.059   4.038  12.237 -0.2437  0.1172 -0.0510
16858TIP3   OH271988   4.653   3.994   0.106  0.2742  0.0527  0.0195
16858TIP3    H171989   4.649   3.968   0.014  2.1417 -2.8674  0.6006
16858TIP3    H271990   4.727   4.054   0.111 -2.0795  3.2793 -0.8300
16859TIP3   OH271991   1.806   5.829   3.374  0.1949  0.2290  0.1145
16859TIP3    H171992   1.743   5.766   3.338  0.7299 -0.6270  0.6532
16859TIP3    H271993   1.876   5.775   3.410  1.6018  1.1707 -1.0949
16860TIP3   OH271994   4.113   0.674   3.101 -0.3855  0.2439 -0.1426
16860TIP3    H171995   4.065   0.673   3.184 -0.3401  0.6269 -0.1132
16860TIP3    H271996   4.116   0.766   3.075 -0.4088  0.1275 -0.5763
16861TIP3   OH271997   5.253   0.674   1.134 -0.0485  0.3270  0.5262
16861TIP3    H171998   5.165   0.642   1.116  0.0261 -0.0535  0.8287
16861TIP3    H271999   5.262   0.752   1.080 -0.5959  0.4039  0.5474
16862TIP3   OH272000   7.087   3.508   4.121  0.0805 -0.0927  0.3156
16862TIP3    H172001   7.115   3.452   4.048  2.4170  0.8500  0.3767
16862TIP3    H272002   7.021   3.566   4.083  0.0339 -0.7244 -0.6024
16863TIP3   OH272003   3.383   1.447   2.041  0.3763  0.0872 -0.8433
16863TIP3    H172004   3.306   1.493   2.005 -0.6715 -0.6704  0.3618
16863TIP3    H272005   3.452   1.513   2.040 -0.7205  1.2945 -0.4534
16864TIP3   OH272006   0.079   4.837   4.732 -0.0308  0.1101  1.0363
16864TIP3    H172007   0.061   4.909   4.672 -1.5135  0.0836  1.4045
16864TIP3    H272008   0.017   4.769   4.707 -0.3220 -0.0958  2.2627
16865TIP3   OH272009   4.364   6.292  15.310 -0.0669 -0.4381 -0.8960
16865TIP3    H172010   4.336   6.278  15.220  0.6911 -0.1978 -1.1744
16865TIP3    H272011   4.449   6.249  15.315  0.9538  1.4882 -0.9358
16866TIP3   OH272012   0.252   4.432  15.286 -0.0498  0.4958 -0.2364
16866TIP3    H172013   0.166   4.445  15.245 -1.5536 -3.1583  1.3221
16866TIP3    H272014   0.295   4.366  15.232  0.6093  0.2904  0.5236
16867TIP3   OH272015   0.601   2.483   4.420  0.7005 -0.4483  0.1959
16867TIP3    H172016   0.617   2.459   4.329 -0.2975 -1.0129  0.1575
16867TIP3    H272017   0.512   2.518   4.422 -0.0405 -2.2008  1.2276
16868TIP3   OH272018   2.219   1.351  12.309 -0.0305 -0.1794 -0.5393
16868TIP3    H172019   2.257   1.399  12.382 -0.2344 -0.7694 -0.0324
16868TIP3    H272020   2.292   1.299  12.273 -0.5890 -2.5287  1.4172
16869TIP3   OH272021   6.269   6.739   0.506 -0.4731 -0.3887 -0.1621
16869TIP3    H172022   6.223   6.730   0.422 -1.0208 -0.7781  0.1758
16869TIP3    H272023   6.354   6.777   0.482 -0.6237 -0.4884 -0.8921
16870TIP3   OH272024   4.519   3.734  12.288  0.2415 -0.1510  0.0755
16870TIP3    H172025   4.522   3.676  12.364  0.0210  1.6346  1.5239
16870TIP3    H272026   4.610   3.757  12.271  0.1752  1.0365  1.1453
16871TIP3   OH272027   1.284   0.815   0.907 -0.0494 -0.2815  0.3838
16871TIP3    H172028   1.241   0.761   0.840 -2.3937  2.4597 -0.5185
16871TIP3    H272029   1.251   0.781   0.990  0.3301 -1.6331  0.0141
16872TIP3   OH272030   4.223   4.702   2.468  0.1073  0.4220 -0.3175
16872TIP3    H172031   4.226   4.796   2.484  0.6138  0.4572 -0.5947
16872TIP3    H272032   4.265   4.691   2.382  2.9429 -0.3760  1.0555
16873TIP3   OH272033   3.215   3.358   4.158  0.0726  0.0834  0.7227
16873TIP3    H172034   3.254   3.293   4.099 -0.4910 -0.0580  0.4950
16873TIP3    H272035   3.282   3.372   4.225  0.7920  0.3675 -0.0353
16874TIP3   OH272036   3.698   2.653   3.141  0.3087 -0.1853 -0.3724
16874TIP3    H172037   3.791   2.659   3.119  0.1780 -0.7521 -1.1325
16874TIP3    H272038   3.658   2.613   3.064 -0.6535  0.5452 -0.2675
16875TIP3   OH272039   3.948   0.780   9.848 -0.0945  0.4527  0.0361
16875TIP3    H172040   3.950   0.871   9.879 -1.9960 -0.2529  2.5416
16875TIP3    H272041   4.002   0.733   9.911 -1.1035 -0.4930  0.2212
16876TIP3   OH272042   4.230   0.140  15.276 -0.4085  0.3405 -0.1446
16876TIP3    H172043   4.314   0.127  15.320 -0.7019 -0.3213  0.2367
16876TIP3    H272044   4.248   0.205  15.208  1.1303 -1.8823 -2.0494
16877TIP3   OH272045   5.273   2.793   2.729 -0.1738  0.5335 -0.4235
16877TIP3    H172046   5.264   2.738   2.651 -0.1719 -0.7780  0.4705
16877TIP3    H272047   5.298   2.879   2.695 -0.5515  0.0939 -1.8885
16878TIP3   OH272048   1.227   4.024   0.126  0.6884  0.4238  0.4975
16878TIP3    H172049   1.143   4.021   0.172  0.4935  0.6193  0.1602
16878TIP3    H272050   1.292   4.042   0.194  0.6322 -1.0317  0.9785
16879TIP3   OH272051   3.758   1.810   1.098 -0.1131  0.1104  0.1511
16879TIP3    H172052   3.797   1.892   1.070 -1.3238  0.3898 -0.8280
16879TIP3    H272053   3.665   1.831   1.111 -0.0175 -0.5439  2.2681
16880TIP3   OH272054   0.427   6.264   5.954  0.8373  0.4944  0.6287
16880TIP3    H172055   0.463   6.328   5.892  2.2437  0.7951  1.6930
16880TIP3    H272056   0.493   6.194   5.958 -0.4318 -0.7901 -0.1187
16881TIP3   OH272057   6.054   6.316  11.200 -0.2584  0.1495  1.0278
16881TIP3    H172058   6.116   6.244  11.195 -0.0238  0.3007  1.5966
16881TIP3    H272059   6.025   6.316  11.292 -2.1186 -0.7622  0.4836
16882TIP3   OH272060   6.252   4.522   5.292  0.2510 -0.2086  0.5098
16882TIP3    H172061   6.201   4.478   5.224  1.1081 -0.7852  0.2217
16882TIP3    H272062   6.304   4.452   5.332  0.2805  0.2416  1.2855
16883TIP3   OH272063   6.534   1.964   2.153 -0.4523  0.1271 -0.1768
16883TIP3    H172064   6.558   2.009   2.072 -0.2455 -1.0240 -0.7604
16883TIP3    H272065   6.438   1.973   2.157 -0.3441  1.3241  0.1478
16884TIP3   OH272066   2.986   5.791  15.221 -0.0662 -0.5636 -0.0304
16884TIP3    H172067   3.025   5.740  15.291 -0.5947 -0.4181  0.3748
16884TIP3    H272068   3.041   5.773  15.145  1.8050  0.9486  0.8913
16885TIP3   OH272069   1.189   5.006   4.531  0.3126  0.0906  0.1207
16885TIP3    H172070   1.163   4.914   4.532  0.8570 -0.0923  2.1960
16885TIP3    H272071   1.276   5.007   4.492  0.5168 -0.3402  0.5661
16886TIP3   OH272072   5.355   1.283   1.300  0.0735  0.5793 -0.5714
16886TIP3    H172073   5.382   1.211   1.243 -2.2510 -1.0862  0.2672
16886TIP3    H272074   5.418   1.283   1.372 -0.7630 -1.7847  0.2611
16887TIP3   OH272075   0.648   2.769   2.991  0.1476  0.3573 -0.2932
16887TIP3    H172076   0.702   2.795   3.065 -0.3595  0.7594 -0.0599
16887TIP3    H272077   0.659   2.840   2.928 -1.6297  1.4343  0.5442
16888TIP3   OH272078   6.068   3.043   3.072 -0.0341 -0.1779 -0.5586
16888TIP3    H172079   5.984   3.009   3.104 -0.6956 -0.2738 -2.2666
16888TIP3    H272080   6.050   3.135   3.050  0.3461 -0.1574 -0.7978
16889TIP3   OH272081   3.538   4.535  14.957 -0.1082  0.2811 -0.5630
16889TIP3    H172082   3.487   4.469  14.911  1.8915 -0.5949 -1.6393
16889TIP3    H272083   3.540   4.610  14.896 -2.3083  1.4154  0.6227
16890TIP3   OH272084   0.794   3.410   1.162  0.4724  0.3232  0.1176
16890TIP3    H172085   0.837   3.399   1.077 -0.2342 -1.1260 -0.0923
16890TIP3    H272086   0.797   3.323   1.202 -1.1739  0.4545  0.6028
16891TIP3   OH272087   4.465   0.167  15.406 -0.3303  0.7801 -0.0934
16891TIP3    H172088   4.510   0.246  15.375 -0.6791  1.6995  1.6376
16891TIP3    H272089   4.430   0.191  15.491 -0.5580 -1.2321  0.4269
16892TIP3   OH272090   1.592   1.340   4.820 -0.5571 -0.0605 -0.1045
16892TIP3    H172091   1.571   1.340   4.726  1.0097  0.9104 -0.4916
16892TIP3    H272092   1.584   1.432   4.846  0.8281 -0.0197  0.2558
16893TIP3   OH272093   4.698   7.052   1.552  0.0259  0.2502  0.3638
16893TIP3    H172094   4.622   7.111   1.552  0.2916  0.6335 -0.7929
16893TIP3    H272095   4.761   7.095   1.494  0.5981 -0.7231  0.2451
16894TIP3   OH272096   2.645   4.409   0.831 -0.3874  0.9364  0.0415
16894TIP3    H172097   2.692   4.411   0.914  0.2323 -0.2301 -0.2569
16894TIP3    H272098   2.552   4.416   0.855 -0.3978 -1.6680  1.0416
16895TIP3   OH272099   4.277   5.570   1.365  0.4616  0.2243  0.2778
16895TIP3    H172100   4.289   5.635   1.435  1.1313 -0.9269  1.2892
16895TIP3    H272101   4.366   5.540   1.345  0.2029 -0.0484 -0.5008
16896TIP3   OH272102   0.531   2.788  10.429  0.3183  0.2190 -1.0531
16896TIP3    H172103   0.579   2.725  10.376  0.8002  0.2137 -0.6264
16896TIP3    H272104   0.538   2.754  10.519  2.5124  1.9559 -0.4384
16897TIP3   OH272105   2.627   6.428   4.370  0.2025  0.0075  0.3332
16897TIP3    H172106   2.641   6.512   4.326  1.3085  0.9839  2.4163
16897TIP3    H272107   2.536   6.429   4.396 -0.0433  0.1078 -0.4841
16898TIP3   OH272108   3.745   2.594   3.866  0.0563  0.4294 -0.1888
16898TIP3    H172109   3.755   2.535   3.940  0.1755  0.1101 -0.4552
16898TIP3    H272110   3.732   2.536   3.791 -0.9930  0.7636 -0.2882
16899TIP3   OH272111   0.286   4.292   3.216 -0.2690 -0.4057 -0.1877
16899TIP3    H172112   0.193   4.281   3.194  0.2289 -1.8787 -1.8136
16899TIP3    H272113   0.318   4.357   3.154 -0.0980 -0.2906  0.0189
16900TIP3   OH272114   3.066   6.547   2.798 -0.1122 -0.0943 -0.2396
16900TIP3    H172115   3.062   6.489   2.875  0.7205 -2.2175 -1.6913
16900TIP3    H272116   2.975   6.561   2.774 -0.3561 -0.1113  0.6397
16901TIP3   OH272117   5.479   2.063   3.642  0.1970  0.5519  0.2372
16901TIP3    H172118   5.418   2.033   3.710 -0.7352  0.8801 -0.4295
16901TIP3    H272119   5.562   2.022   3.664 -0.5634 -0.9109  0.4768
16902TIP3   OH272120   4.517   5.179   4.697 -1.2004 -0.2147  0.1887
16902TIP3    H172121   4.536   5.236   4.771  3.8087 -0.9985 -0.1403
16902TIP3    H272122   4.520   5.090   4.733 -1.4320 -0.5196 -0.5109
16903TIP3   OH272123   2.730   4.301   2.161  0.0761 -0.0271 -0.2143
16903TIP3    H172124   2.679   4.223   2.183 -1.4288  1.0083  0.0805
16903TIP3    H272125   2.682   4.374   2.200  2.0602  0.9724  0.5280
16904TIP3   OH272126   6.641   6.314   4.660  0.6553  0.1590  0.1840
16904TIP3    H172127   6.570   6.360   4.614  0.5399  0.3469  0.5464
16904TIP3    H272128   6.721   6.345   4.618  0.4954 -0.7677 -0.8776
16905TIP3   OH272129   3.554   0.555   1.480  0.3274  0.0375 -0.4376
16905TIP3    H172130   3.594   0.499   1.414  1.7148  0.1680  0.2672
16905TIP3    H272131   3.616   0.627   1.493  0.1310 -0.0258  1.0540
16906TIP3   OH272132   6.281   1.620   1.364 -0.6346  0.4026  0.2827
16906TIP3    H172133   6.278   1.536   1.319  0.2575  0.1652  0.6389
16906TIP3    H272134   6.360   1.663   1.329  0.1894  0.1385  1.7210
16907TIP3   OH272135   6.991   5.233  12.426  0.1257 -0.5686 -0.7063
16907TIP3    H172136   6.988   5.307  12.487  1.6228 -0.4546 -0.7254
16907TIP3    H272137   6.921   5.250  12.363 -0.7495 -0.1353  0.3518
16908TIP3   OH272138   0.729   6.006  11.839 -0.3121 -0.1280  0.4397
16908TIP3    H172139   0.798   6.072  11.839  1.2419 -1.6809  1.1767
16908TIP3    H272140   0.695   6.007  11.929 -0.8238  0.1645  0.2516
16909TIP3   OH272141   4.330   0.145  12.514  0.2948 -0.5782 -0.8420
16909TIP3    H172142   4.254   0.201  12.498 -0.1956 -0.9099  0.2156
16909TIP3    H272143   4.405   0.199  12.491 -0.2002  0.2880 -0.4586
16910TIP3   OH272144   2.195   6.080   1.479  0.6603 -0.0065 -0.1230
16910TIP3    H172145   2.209   6.070   1.573  1.8737 -0.4880 -0.3350
16910TIP3    H272146   2.283   6.078   1.442  0.1480 -0.6252 -1.3409
16911TIP3   OH272147   2.470   4.915   4.946  0.0995  0.3540  0.1263
16911TIP3    H172148   2.553   4.870   4.957 -0.6693 -1.1735 -0.1065
16911TIP3    H272149   2.488   5.005   4.975  1.4865 -0.2554  1.3139
16912TIP3   OH272150   5.756   6.579  10.119  0.5274  0.4516 -0.1169
16912TIP3    H172151   5.841   6.583  10.077  0.0995 -0.4468 -1.1138
16912TIP3    H272152   5.730   6.487  10.113 -1.2053  0.9585 -1.2827
16913TIP3   OH272153   0.946   4.790   4.907  0.4567  0.0515 -0.3328
16913TIP3    H172154   0.970   4.702   4.881  1.8602  0.3839 -0.2205
16913TIP3    H272155   0.895   4.824   4.833  0.1355 -0.7542 -0.4862
16914TIP3   OH272156   6.747   5.129   5.788  0.5118 -0.4958  0.2594
16914TIP3    H172157   6.813   5.142   5.856 -0.1435  0.6440  0.7026
16914TIP3    H272158   6.668   5.104   5.835 -0.1618  1.0832  0.0161
16915TIP3   OH272159   6.538   6.302   3.811 -0.5224 -0.0250 -0.2909
16915TIP3    H172160   6.602   6.253   3.862 -2.7103 -2.0840  0.6936
16915TIP3    H272161   6.567   6.294   3.720  0.2778 -1.3960  0.0651
16916TIP3   OH272162   6.689   0.477   4.797  0.7966 -0.0029  0.0750
16916TIP3    H172163   6.773   0.439   4.825  0.6188  1.0076  2.1984
16916TIP3    H272164   6.632   0.402   4.783  1.2840 -0.6354  1.3040
16917TIP3   OH272165   6.724   6.886  11.474  0.0056 -0.3700 -0.1594
16917TIP3    H172166   6.673   6.955  11.431  0.0693  0.3846  0.9444
16917TIP3    H272167   6.660   6.818  11.496 -0.2028 -0.2777 -0.4760
16918TIP3   OH272168   2.345   4.798  10.291  0.3447  0.5799  0.6928
16918TIP3    H172169   2.255   4.821  10.315  0.4540  0.4932  1.2049
16918TIP3    H272170   2.355   4.829  10.201 -0.3586  0.1395  0.4577
16919TIP3   OH272171   3.970   2.643  14.487 -0.3847 -0.2825 -0.0852
16919TIP3    H172172   4.016   2.713  14.441  1.8132 -1.6733 -0.1755
16919TIP3    H272173   3.980   2.666  14.580  1.0153 -0.8324 -0.0811
16920TIP3   OH272174   0.049   5.877   1.962  0.3023  0.4630  0.1087
16920TIP3    H172175  -0.032   5.856   1.916 -1.3358  1.9622  2.0890
16920TIP3    H272176   0.097   5.794   1.966 -0.2274 -0.0673 -2.6921
16921TIP3   OH272177   0.917   5.360  14.010  0.5309  0.0131 -0.0926
16921TIP3    H172178   0.946   5.342  14.100  1.2523  0.1260 -0.2902
16921TIP3    H272179   0.956   5.290  13.958 -0.3211 -0.3472 -0.2439
16922TIP3   OH272180   6.917   0.375   4.910 -0.7562 -0.0598 -0.0053
16922TIP3    H172181   6.928   0.302   4.849  0.6496 -1.1835  1.4913
16922TIP3    H272182   6.920   0.335   4.997 -0.6890  1.6954  0.8611
16923TIP3   OH272183   0.979   3.804   0.012 -0.2210 -0.2291 -0.5061
16923TIP3    H172184   0.941   3.806   0.100 -0.8513  1.0810 -0.7925
16923TIP3    H272185   0.904   3.789  -0.046  0.2934 -1.9867 -0.8005
16924TIP3   OH272186   0.883   2.443   1.195  0.1141  0.0356 -0.2804
16924TIP3    H172187   0.866   2.401   1.279  0.9708 -1.5268 -0.8421
16924TIP3    H272188   0.940   2.516   1.216 -0.7914  0.5005  0.6407
16925TIP3   OH272189   1.914   3.955   1.852  0.4089 -0.2421  0.5059
16925TIP3    H172190   2.000   3.983   1.883  0.5349  1.2985 -1.1094
16925TIP3    H272191   1.852   4.006   1.903  0.2653 -2.6641  3.0049
16926TIP3   OH272192   2.779   0.521   4.818 -0.2469  0.7265  0.4923
16926TIP3    H172193   2.768   0.559   4.731  0.5846  0.3086  0.1935
16926TIP3    H272194   2.726   0.441   4.816 -0.9328  1.1631  0.6785
16927TIP3   OH272195   3.150   1.729  10.725 -0.0120  0.3863  0.1375
16927TIP3    H172196   3.243   1.710  10.712  0.5008  1.4927  1.8309
16927TIP3    H272197   3.147   1.823  10.741 -1.3495  0.2595  0.7443
16928TIP3   OH272198   4.847   2.924  15.089 -0.7304  0.1045  0.6466
16928TIP3    H172199   4.927   2.948  15.136  0.4938  0.6017 -1.5463
16928TIP3    H272200   4.859   2.832  15.067 -0.8925  0.1014  0.5742
16929TIP3   OH272201   0.851   1.581   0.825 -0.4084 -0.7479  0.3689
16929TIP3    H172202   0.793   1.618   0.758  0.3656 -2.6346 -1.4384
16929TIP3    H272203   0.937   1.580   0.785 -0.2482 -3.7021  0.5472
16930TIP3   OH272204   0.292   6.001   0.014 -0.5859 -0.4183  0.9288
16930TIP3    H172205   0.302   5.938  -0.057  2.0346  0.7947  0.0821
16930TIP3    H272206   0.358   5.976   0.079  0.1372  1.0696  0.8126
16931TIP3   OH272207   3.324   0.558   0.561  0.1460  0.4039  0.3649
16931TIP3    H172208   3.314   0.472   0.522 -1.3539  0.4451  0.6030
16931TIP3    H272209   3.370   0.609   0.495  0.1007 -0.2926 -0.2104
16932TIP3   OH272210   0.975   1.701   3.067 -0.0426  0.2318 -0.2454
16932TIP3    H172211   0.935   1.670   2.986  0.9394 -0.0295 -0.6376
16932TIP3    H272212   0.940   1.643   3.135  0.3692 -0.5695 -0.7097
16933TIP3   OH272213   6.254   6.364  14.163 -0.6314 -0.1629  0.3448
16933TIP3    H172214   6.256   6.459  14.159  1.1260 -0.1643  0.0342
16933TIP3    H272215   6.190   6.338  14.096 -0.0707  0.7842 -0.5919
16934TIP3   OH272216   4.049   4.495   5.336 -0.1658 -0.2907  0.0117
16934TIP3    H172217   4.129   4.447   5.354  0.3155  0.9446  1.3957
16934TIP3    H272218   4.008   4.506   5.422 -0.8615  0.7097 -0.4267
16935TIP3   OH272219   5.068   3.004   5.494  0.2241  0.6799  0.7901
16935TIP3    H172220   4.992   2.981   5.548  1.1266  0.5856  2.0792
16935TIP3    H272221   5.112   3.072   5.544  1.3809  0.2184  0.4214
16936TIP3   OH272222   3.810   5.033   3.591 -0.1979 -0.4493  0.2385
16936TIP3    H172223   3.803   5.117   3.636 -0.7225  0.4356 -1.3876
16936TIP3    H272224   3.801   5.056   3.498 -0.9109 -2.3712 -0.2027
16937TIP3   OH272225   5.200   1.156   4.507 -0.3931 -0.3415  0.1359
16937TIP3    H172226   5.146   1.229   4.478  0.1305  0.2490  0.6283
16937TIP3    H272227   5.191   1.091   4.437  0.0070  0.6351 -0.8519
16938TIP3   OH272228   5.246   3.350   2.411 -0.0063 -0.2148 -0.0817
16938TIP3    H172229   5.333   3.350   2.370 -0.0851 -0.1656 -0.2512
16938TIP3    H272230   5.257   3.402   2.491  0.2648 -0.7139  0.2103
16939TIP3   OH272231   1.599   3.678  11.911 -0.2249  0.3951  0.9596
16939TIP3    H172232   1.582   3.770  11.888  1.2044  0.2021 -1.1729
16939TIP3    H272233   1.512   3.639  11.921 -1.0317  1.0847 -2.2074
16940TIP3   OH272234   5.949   6.982   0.751  0.4515 -0.5761 -0.0904
16940TIP3    H172235   5.867   7.027   0.730  0.4373 -0.8899 -0.7116
16940TIP3    H272236   6.017   7.046   0.732  0.3158  0.0421  1.3781
16941TIP3   OH272237   4.900   6.557   1.043 -0.3270 -0.2357 -0.7074
16941TIP3    H172238   4.848   6.569   0.964  0.7443  0.6781 -1.2887
16941TIP3    H272239   4.855   6.609   1.110 -0.7585 -0.3370 -0.9124
16942TIP3   OH272240   5.656   4.029   4.930  0.1860 -0.3329 -0.4017
16942TIP3    H172241   5.683   3.986   4.849  2.3891 -0.6251  0.4159
16942TIP3    H272242   5.709   3.987   4.998  0.4286  1.7945  0.8111
16943TIP3   OH272243   4.218   2.279   3.487  0.2025 -0.0295 -0.0682
16943TIP3    H172244   4.269   2.251   3.412  0.9156  1.0670 -0.0206
16943TIP3    H272245   4.281   2.323   3.544 -0.5862  0.4038  0.4991
16944TIP3   OH272246   7.024   3.403   4.379 -0.9254  0.2939  0.2645
16944TIP3    H172247   7.064   3.426   4.295  2.4454 -2.4798  0.8728
16944TIP3    H272248   7.064   3.462   4.442  0.3888 -0.8014  0.5091
16945TIP3   OH272249   5.969   4.000   2.962 -0.1440 -0.1616 -0.4776
16945TIP3    H172250   6.027   4.042   3.025 -2.1032  0.8977  0.7080
16945TIP3    H272251   5.986   3.906   2.973  0.3896  0.0629  0.8301
16946TIP3   OH272252   4.794   3.352   5.477 -0.5370  0.2723  0.5927
16946TIP3    H172253   4.821   3.287   5.413 -0.2810 -0.0348  1.0033
16946TIP3    H272254   4.754   3.422   5.426  1.4661  0.9770 -0.0980
16947TIP3   OH272255   1.085   3.197   5.371  0.2938 -0.4171 -0.7987
16947TIP3    H172256   1.118   3.118   5.414  1.4940 -0.2898 -1.4472
16947TIP3    H272257   1.115   3.269   5.426 -2.1375 -0.3964  0.6885
16948TIP3   OH272258   3.989   5.470   5.750  0.0096  0.3951  0.1873
16948TIP3    H172259   4.077   5.433   5.747  0.6079  1.7627  0.0439
16948TIP3    H272260   3.931   5.396   5.733  1.2207 -0.1878 -1.7968
16949TIP3   OH272261   7.057   4.253   3.965  0.1159 -0.6242  0.3098
16949TIP3    H172262   7.088   4.329   3.917 -0.2298  0.4887  1.7886
16949TIP3    H272263   7.136   4.204   3.985  0.3088 -0.8621 -0.9363
16950TIP3   OH272264   4.016   2.436   2.705  1.0740  0.4934  0.2985
16950TIP3    H172265   3.937   2.427   2.758  0.8098 -0.7411 -0.2652
16950TIP3    H272266   3.994   2.502   2.640  0.4302  0.0329  0.0356
16951TIP3   OH272267   4.513   3.556   4.754 -0.3765 -0.3651 -0.3051
16951TIP3    H172268   4.547   3.485   4.701 -0.3124 -0.5463 -0.0247
16951TIP3    H272269   4.574   3.563   4.827  0.5847  1.1061 -1.2021
16952TIP3   OH272270   0.561   1.614   0.726  0.1376  0.1005  0.3556
16952TIP3    H172271   0.506   1.538   0.707  0.0425  0.1132  0.5801
16952TIP3    H272272   0.640   1.599   0.674  0.9636 -1.1488  1.8875
16953TIP3   OH272273   3.232   4.107   4.658  0.2499 -0.0591 -0.3146
16953TIP3    H172274   3.239   4.181   4.717 -2.7090  0.3701 -0.3700
16953TIP3    H272275   3.254   4.142   4.572  0.7768  0.2488 -0.0577
16954TIP3   OH272276   5.374   2.443   4.813 -0.1180  0.2295  0.1435
16954TIP3    H172277   5.424   2.492   4.748  1.8444  0.1409  1.4794
16954TIP3    H272278   5.434   2.434   4.887 -2.0261 -0.2335  1.7233
16955TIP3   OH272279   6.868   6.840   4.338  0.5308 -0.2556  0.2275
16955TIP3    H172280   6.825   6.776   4.281  1.4351 -0.3311 -0.3876
16955TIP3    H272281   6.833   6.925   4.310  0.4167 -0.3585  0.0577
16956TIP3   OH272282   1.343   6.024  14.350 -0.3009  0.3370  0.8006
16956TIP3    H172283   1.315   6.016  14.441  0.3694  2.1043  1.2050
16956TIP3    H272284   1.380   6.112  14.344  0.6117 -0.1173 -0.9309
16957TIP3   OH272285   1.443   4.161   4.388  0.4845  0.6796  0.4629
16957TIP3    H172286   1.408   4.114   4.312  2.0262  1.3988 -0.7569
16957TIP3    H272287   1.535   4.135   4.391  0.9979  2.3828  0.6889
16958TIP3   OH272288   5.656   5.598   1.968  0.5639 -0.0419  0.4214
16958TIP3    H172289   5.563   5.580   1.977  0.4182 -0.3439 -1.2725
16958TIP3    H272290   5.660   5.683   1.926  1.0642  0.1198  0.7887
16959TIP3   OH272291   2.745   4.595   0.025  0.4280  0.5416  0.0294
16959TIP3    H172292   2.692   4.515   0.026  1.0826  0.0961 -0.1546
16959TIP3    H272293   2.683   4.666   0.041 -0.0828 -0.0579  0.7635
16960TIP3   OH272294   0.040   0.260  11.352  0.2236 -0.1571  0.6989
16960TIP3    H172295  -0.050   0.287  11.336  0.1022 -1.5821 -1.4324
16960TIP3    H272296   0.094   0.329  11.313  0.0403  0.1074  0.9106
16961TIP3   OH272297   5.984   5.177   5.317 -0.2504  0.0770 -0.0519
16961TIP3    H172298   5.947   5.148   5.234  0.1699 -1.1372  0.1612
16961TIP3    H272299   6.079   5.175   5.303 -0.1037  4.0395 -0.9043
16962TIP3   OH272300   3.847   1.716   2.631  0.0037 -0.1409  0.5723
16962TIP3    H172301   3.911   1.657   2.591  1.0885  0.0696  1.9507
16962TIP3    H272302   3.843   1.790   2.571 -2.4590 -2.0806 -1.9979
16963TIP3   OH272303   1.221   6.696   0.525 -0.2486  0.2827  0.1170
16963TIP3    H172304   1.232   6.663   0.614 -0.8725 -0.4297 -0.0616
16963TIP3    H272305   1.310   6.703   0.491  0.0189  0.9569  0.9299
16964TIP3   OH272306   2.339   2.779   1.791 -0.8042 -0.2980  0.5090
16964TIP3    H172307   2.364   2.871   1.784  1.4402 -0.9645 -1.2524
16964TIP3    H272308   2.380   2.749   1.872 -0.7174 -0.0029  0.5749
16965TIP3   OH272309   0.558   1.182   4.142 -0.3669 -0.3040  0.0962
16965TIP3    H172310   0.542   1.116   4.075  1.7286  0.3390 -1.1315
16965TIP3    H272311   0.545   1.266   4.097  0.1799  0.1284  0.7132
16966TIP3   OH272312   1.423   6.332  14.842 -0.5321  0.6765  0.5537
16966TIP3    H172313   1.355   6.264  14.849  0.2870 -0.1927  0.3176
16966TIP3    H272314   1.480   6.301  14.772  0.2181  1.2933  0.8808
16967TIP3   OH272315   1.318   5.814  13.589  0.3108  0.0620  0.0889
16967TIP3    H172316   1.304   5.764  13.509  1.5623 -0.6658  0.2902
16967TIP3    H272317   1.414   5.819  13.598  0.2378  2.1920  0.2719
16968TIP3   OH272318   5.155   3.249   4.715 -0.0121  0.0962 -0.1786
16968TIP3    H172319   5.074   3.220   4.673  0.8639 -1.8917 -0.6098
16968TIP3    H272320   5.151   3.212   4.803  0.5263 -0.1835 -0.2715
16969TIP3   OH272321   1.717   2.833  12.345  0.2410  0.2832 -0.6130
16969TIP3    H172322   1.636   2.827  12.295  0.6927  0.3409 -1.3731
16969TIP3    H272323   1.762   2.750  12.328  1.2161  1.0123 -1.7795
16970TIP3   OH272324   5.765   3.464   2.259 -0.1524  0.1739  0.5153
16970TIP3    H172325   5.725   3.542   2.222 -1.8770 -0.5024  0.8751
16970TIP3    H272326   5.815   3.495   2.334  1.6786  1.2886 -1.0459
16971TIP3   OH272327   5.645   0.682   3.734 -0.9915 -0.5827  0.3881
16971TIP3    H172328   5.706   0.609   3.723  0.9347  0.5517  2.6026
16971TIP3    H272329   5.634   0.716   3.645 -0.0087 -2.0685 -0.3544
16972TIP3   OH272330   0.022   0.116   0.713 -0.2427  0.2982 -0.5548
16972TIP3    H172331   0.081   0.106   0.639 -0.1808  0.1550 -0.4856
16972TIP3    H272332  -0.042   0.046   0.702 -0.5802  0.6384 -0.7981
16973TIP3   OH272333   0.552   1.370   1.746 -0.4575  0.4874  0.1256
16973TIP3    H172334   0.627   1.378   1.687  0.5340  0.3003  1.3245
16973TIP3    H272335   0.540   1.459   1.781 -1.0465  0.6001 -0.3570
16974TIP3   OH272336   1.145   6.456   5.544  0.0764  0.0910 -0.1484
16974TIP3    H172337   1.135   6.390   5.612 -1.8119  0.7725  0.3048
16974TIP3    H272338   1.236   6.448   5.516  0.5799 -0.9984  1.6283
16975TIP3   OH272339   3.465   5.215   4.147 -0.2794 -0.1108 -0.1442
16975TIP3    H172340   3.450   5.270   4.223 -1.1327  1.5343 -1.4324
16975TIP3    H272341   3.541   5.254   4.104 -0.8319  0.0280 -1.0190
16976TIP3   OH272342   3.969   5.208  10.923  0.7241 -0.2002  0.2480
16976TIP3    H172343   4.033   5.138  10.911  2.1100  1.1673 -0.5001
16976TIP3    H272344   3.944   5.233  10.834 -0.2053 -0.1086  0.5243
16977TIP3   OH272345   1.058   1.851  12.578  0.2198 -0.3619  0.6069
16977TIP3    H172346   1.111   1.775  12.604  0.3414  0.0925  1.7549
16977TIP3    H272347   1.119   1.906  12.529  0.2950 -0.7257  0.2887
16978TIP3   OH272348   5.085   2.343   3.207  0.4285 -0.3646 -0.4899
16978TIP3    H172349   5.161   2.384   3.166  0.7834 -0.2179  0.2915
16978TIP3    H272350   5.091   2.251   3.183  0.6246 -0.2801 -0.7688
16979TIP3   OH272351   5.234   5.009   5.063  0.0947  0.2232 -0.1654
16979TIP3    H172352   5.159   5.057   5.029  0.7960  1.9081  0.5836
16979TIP3    H272353   5.308   5.068   5.051  1.5645 -1.7673 -1.8377
16980TIP3   OH272354   4.120   4.041   0.171  0.1464  0.2987 -0.4691
16980TIP3    H172355   4.028   4.016   0.172 -0.2186  1.5824  0.2159
16980TIP3    H272356   4.166   3.964   0.205 -0.5802 -0.6038 -1.4441
16981TIP3   OH272357   6.172   0.067  11.702 -0.2041  0.1983  0.0241
16981TIP3    H172358   6.107   0.011  11.660  1.4914 -0.8941 -1.2991
16981TIP3    H272359   6.134   0.089  11.787 -2.0707 -0.7828 -0.5087
16982TIP3   OH272360   0.810   2.667  11.246  0.2122  0.7752 -0.0545
16982TIP3    H172361   0.747   2.687  11.316  0.6142  0.3395  0.4474
16982TIP3    H272362   0.757   2.657  11.168 -0.2967  0.8358  0.2771
16983TIP3   OH272363   3.344   6.533  13.672  0.2665 -0.2649  0.2883
16983TIP3    H172364   3.274   6.589  13.638 -0.2013 -0.6979  0.5304
16983TIP3    H272365   3.318   6.511  13.761 -0.2469 -1.9525 -0.2260
16984TIP3   OH272366   3.882   2.826   3.627  0.4221 -0.5094  0.1820
16984TIP3    H172367   3.974   2.852   3.622 -0.2052  1.7407 -1.5329
16984TIP3    H272368   3.838   2.900   3.669 -0.5164 -1.9309  1.7897
16985TIP3   OH272369   2.115   0.437   3.526 -0.1065 -0.1149 -0.0476
16985TIP3    H172370   2.040   0.485   3.492 -0.2709 -0.5156 -0.2500
16985TIP3    H272371   2.183   0.447   3.459 -0.0594  0.0352  0.0211
16986TIP3   OH272372   5.744   5.434   4.417 -0.0624 -0.3174  0.1010
16986TIP3    H172373   5.704   5.503   4.366  0.3419  0.5592  0.9349
16986TIP3    H272374   5.802   5.388   4.355 -2.8176 -2.1246 -1.3341
16987TIP3   OH272375   2.122   5.413   3.952 -0.2728  0.1087 -0.3173
16987TIP3    H172376   2.132   5.334   3.900 -1.0302  0.3195 -0.7910
16987TIP3    H272377   2.031   5.440   3.939 -0.0757  0.9606 -0.0269
16988TIP3   OH272378   3.948   6.552   5.491  0.2941  0.1577  0.2212
16988TIP3    H172379   3.860   6.553   5.528  0.5182 -0.1111  0.7841
16988TIP3    H272380   4.003   6.519   5.562  0.6113 -1.2837 -0.6469
16989TIP3   OH272381   2.915   3.179  13.401  0.0652  0.1250 -0.5495
16989TIP3    H172382   2.969   3.126  13.458 -1.1093 -0.4913  0.0274
16989TIP3    H272383   2.927   3.269  13.432  0.0346 -0.1178  0.1788
16990TIP3   OH272384   2.395   6.056  13.927  0.0376  0.1098 -0.2000
16990TIP3    H172385   2.301   6.067  13.909  0.0011  0.2554  0.0774
16990TIP3    H272386   2.400   6.046  14.022  0.1992 -0.9846 -0.3201
16991TIP3   OH272387   1.619   1.871   4.831 -0.1211  0.3990  0.5421
16991TIP3    H172388   1.560   1.909   4.766  0.5277  0.2378 -0.1477
16991TIP3    H272389   1.680   1.942   4.853  0.2812  0.1554  0.2248
16992TIP3   OH272390   1.189   6.492   3.494 -0.3664 -0.0592  0.5026
16992TIP3    H172391   1.163   6.582   3.514  2.1955  0.6261  1.1327
16992TIP3    H272392   1.151   6.439   3.564 -1.1040  0.6693  0.6598
16993TIP3   OH272393   1.624   4.343   4.139 -0.5308  0.9085  0.1717
16993TIP3    H172394   1.605   4.435   4.118 -1.1467  1.1416  1.5939
16993TIP3    H272395   1.652   4.345   4.230  0.0779 -0.2576  0.0235
16994TIP3   OH272396   2.726   2.271   4.214 -0.3294 -0.5890 -0.2427
16994TIP3    H172397   2.782   2.335   4.258 -0.4887  0.3379 -1.3405
16994TIP3    H272398   2.681   2.226   4.285  0.3480  0.0043  0.5809
16995TIP3   OH272399   0.440   6.788   5.849 -0.7412  0.1044 -0.1201
16995TIP3    H172400   0.385   6.727   5.800 -1.3763  0.1040  0.5765
16995TIP3    H272401   0.529   6.762   5.828 -1.0048 -0.0621 -1.0603
16996TIP3   OH272402   2.509   5.200   3.630  0.4200  0.5962  0.5831
16996TIP3    H172403   2.478   5.161   3.711  2.8089 -0.2855  1.1535
16996TIP3    H272404   2.605   5.202   3.639  0.7982  0.1285 -2.3649
16997TIP3   OH272405   0.896   2.013   3.001 -0.1822  0.1161 -0.1487
16997TIP3    H172406   0.932   2.019   3.090  1.0108 -1.3004 -0.4829
16997TIP3    H272407   0.949   1.945   2.959 -2.3118 -1.0012 -1.1725
16998TIP3   OH272408   3.884   1.014   2.701  0.0031 -0.5697 -0.4273
16998TIP3    H172409   3.912   0.932   2.660  2.2735 -0.1680  0.2275
16998TIP3    H272410   3.965   1.060   2.722 -1.1891  1.1428  0.6825
16999TIP3   OH272411   6.155   3.236   1.143 -0.2555  0.0893  0.0011
16999TIP3    H172412   6.123   3.253   1.232 -0.2984 -0.1317  0.0274
16999TIP3    H272413   6.078   3.248   1.087 -1.1595 -3.2548  0.3217
17000TIP3   OH272414   0.444   0.972   4.009  0.5604  0.3184  0.0004
17000TIP3    H172415   0.357   0.934   3.998 -0.2597  2.2035 -0.5048
17000TIP3    H272416   0.500   0.923   3.949 -0.6168  0.4312 -1.2353
17001TIP3   OH272417   6.917   0.428   1.507  0.3181 -0.3577 -0.4097
17001TIP3    H172418   6.926   0.426   1.411  0.4934 -0.1922 -0.3984
17001TIP3    H272419   7.003   0.400   1.539 -0.8016 -4.2631 -0.2918
17002TIP3   OH272420   4.638   2.610   4.591 -0.0516  0.0484  0.2051
17002TIP3    H172421   4.692   2.673   4.543  0.0224 -0.3388 -0.2255
17002TIP3    H272422   4.627   2.649   4.678 -1.6684  1.6006 -0.6458
17003TIP3   OH272423   3.860   6.026   4.966 -0.0552  0.3945  0.1547
17003TIP3    H172424   3.775   5.983   4.970 -0.0788 -0.2976 -3.8294
17003TIP3    H272425   3.922   5.956   4.949  1.1366  1.1050  1.3459
17004TIP3   OH272426   6.979   3.036   2.540  0.5776 -0.2265  0.0074
17004TIP3    H172427   6.998   2.976   2.468  0.1184 -1.3997  0.8453
17004TIP3    H272428   7.051   3.100   2.538  0.0472  0.3893 -2.1198
17005TIP3   OH272429   5.300   1.217   0.990  0.2176  0.1859 -0.4909
17005TIP3    H172430   5.372   1.275   1.016  0.5276  0.2975 -1.5546
17005TIP3    H272431   5.341   1.152   0.934  0.1330 -1.9247  1.7169
17006TIP3   OH272432   2.920   0.100  15.408 -0.6565 -0.0939 -0.1672
17006TIP3    H172433   2.887   0.033  15.347 -1.4398 -0.6149  0.7868
17006TIP3    H272434   3.014   0.086  15.411 -0.6239 -0.1495 -1.1464
17007TIP3   OH272435   2.128   4.675   2.874 -0.3799  0.1624 -0.2741
17007TIP3    H172436   2.136   4.658   2.780  0.2253 -3.1306  0.2834
17007TIP3    H272437   2.064   4.746   2.879 -0.6262  0.2738 -3.1501
17008TIP3   OH272438   7.040   7.126   3.029  0.3702 -0.1033 -0.5233
17008TIP3    H172439   7.044   7.166   2.942  0.1385 -0.6418 -0.7853
17008TIP3    H272440   7.125   7.085   3.041  0.9828  1.3104  0.1661
17009TIP3   OH272441   0.032   5.816  13.868  0.8572 -0.3527  0.1720
17009TIP3    H172442   0.080   5.748  13.915  1.0704 -0.7556 -0.6184
17009TIP3    H272443   0.084   5.833  13.790  0.9782  0.9635  0.5175
17010TIP3   OH272444   5.703   6.560   5.142  0.2265  0.4073  0.1459
17010TIP3    H172445   5.785   6.537   5.186  0.0968  0.6075  0.5020
17010TIP3    H272446   5.702   6.656   5.144  0.3800  0.4289 -0.5993
17011TIP3   OH272447   0.878   2.647   3.867 -0.5287 -0.1073  0.4886
17011TIP3    H172448   0.813   2.644   3.796  0.1141  0.1475 -0.1214
17011TIP3    H272449   0.962   2.651   3.822 -0.0934 -0.2710  1.2751
17012TIP3   OH272450   4.041   4.190  14.889 -0.2188  0.3639 -0.1287
17012TIP3    H172451   4.125   4.233  14.906 -0.4685  1.7359 -1.9272
17012TIP3    H272452   3.980   4.263  14.871 -1.6490 -0.6216  0.5122
17013TIP3   OH272453   1.928   6.426  11.932 -0.0723 -0.2459 -0.3428
17013TIP3    H172454   1.852   6.456  11.881  0.0283  2.5836  0.9875
17013TIP3    H272455   2.003   6.443  11.874 -0.2530 -0.5315 -0.6609
17014TIP3   OH272456   6.243   2.359   1.593  0.1044  0.2044 -0.4771
17014TIP3    H172457   6.163   2.408   1.616 -0.1052  0.3576 -1.4928
17014TIP3    H272458   6.314   2.421   1.610 -0.0995  0.5654 -0.9292
17015TIP3   OH272459   4.577   2.672  14.981 -0.1367 -0.2245  0.5606
17015TIP3    H172460   4.549   2.633  14.898 -1.7328  1.1656  0.3819
17015TIP3    H272461   4.590   2.597  15.039 -0.7570 -1.1412 -0.4324
17016TIP3   OH272462   2.147   1.897   4.121 -0.6047  0.0742 -0.0639
17016TIP3    H172463   2.092   1.935   4.052  0.3086  0.9026 -0.3693
17016TIP3    H272464   2.150   1.965   4.188 -0.4921 -0.2335  0.2448
17017TIP3   OH272465   3.963   4.818   3.542  0.3853  0.1083 -0.3559
17017TIP3    H172466   3.920   4.897   3.574 -2.4250 -0.7737 -1.5684
17017TIP3    H272467   4.055   4.843   3.532 -0.1631  2.8273  0.4243
17018TIP3   OH272468   5.717   3.198   5.368  0.0845  0.1226 -0.2241
17018TIP3    H172469   5.784   3.250   5.323 -0.1368  0.0219 -0.6784
17018TIP3    H272470   5.767   3.130   5.413  0.4490  1.2011  1.0621
17019TIP3   OH272471   4.766   5.495   4.365 -0.4979 -0.1076 -0.4005
17019TIP3    H172472   4.690   5.451   4.404  1.6202 -1.5376  2.4648
17019TIP3    H272473   4.741   5.588   4.363 -2.1372 -0.4609  0.9304
17020TIP3   OH272474   5.596   2.445  15.153  0.2908  0.1011 -0.6273
17020TIP3    H172475   5.670   2.459  15.213 -0.0553 -0.5473 -0.0385
17020TIP3    H272476   5.572   2.534  15.125  0.8737  0.3680 -0.3120
17021TIP3   OH272477   3.339   0.980   5.731  0.5197 -0.3626  0.3830
17021TIP3    H172478   3.244   0.970   5.736  0.3786 -0.1141 -1.2877
17021TIP3    H272479   3.356   1.065   5.773 -0.4292  1.2480 -2.2351
17022TIP3   OH272480   4.530   1.203   2.696 -0.5072 -0.0970  0.2998
17022TIP3    H172481   4.507   1.212   2.788  2.3498 -0.1564  1.1228
17022TIP3    H272482   4.523   1.109   2.678 -1.5141 -0.0310  0.2808
17023TIP3   OH272483   6.597   2.551   0.478  0.5254 -0.4115  0.0512
17023TIP3    H172484   6.642   2.600   0.409  1.0993 -1.6839 -0.4975
17023TIP3    H272485   6.587   2.614   0.549  0.3039  0.8059 -1.0143
17024TIP3   OH272486   5.465   5.587  15.656  0.4064 -0.4518 -0.8217
17024TIP3    H172487   5.445   5.650  15.725 -1.1051 -1.3565 -0.3801
17024TIP3    H272488   5.422   5.621  15.578 -1.2937 -1.3997 -0.3416
17025TIP3   OH272489   2.766   4.008  11.235 -0.2832  0.0929 -0.4101
17025TIP3    H172490   2.688   3.976  11.280 -0.3539  0.4478 -0.2722
17025TIP3    H272491   2.802   4.073  11.295  0.5190 -0.5743 -0.1502
17026TIP3   OH272492   4.157   3.942   1.325  0.0613  0.1049 -0.8017
17026TIP3    H172493   4.246   3.974   1.338 -0.3101  1.2388 -0.9908
17026TIP3    H272494   4.141   3.950   1.231 -0.2580 -0.0610 -0.7637
17027TIP3   OH272495   2.820   4.977  13.181 -0.2198 -0.1824 -0.3521
17027TIP3    H172496   2.828   4.995  13.274  1.0668  1.1464 -0.6807
17027TIP3    H272497   2.800   4.884  13.175  0.2287 -0.3953  1.2160
17028TIP3   OH272498   4.184   1.094   0.284  0.5618 -0.1513  0.2849
17028TIP3    H172499   4.129   1.145   0.343  0.0962 -0.3547  0.0351
17028TIP3    H272500   4.205   1.154   0.213  0.1947 -0.2360  0.1006
17029TIP3   OH272501   7.010   6.297   1.769  0.2721  0.0546 -0.1077
17029TIP3    H172502   6.929   6.273   1.814 -0.6633  2.2947 -0.4362
17029TIP3    H272503   6.987   6.376   1.719  2.1666 -0.3576 -1.7677
17030TIP3   OH272504   3.413   4.784  14.981 -0.1982 -0.0032 -0.0292
17030TIP3    H172505   3.380   4.862  14.936  0.6326  1.2131  1.4086
17030TIP3    H272506   3.339   4.723  14.979 -1.6822  1.6637  0.7878
17031TIP3   OH272507   3.562   5.524   3.673  0.0384 -0.2058  0.8191
17031TIP3    H172508   3.579   5.541   3.581 -1.8139  1.4584  0.7057
17031TIP3    H272509   3.570   5.609   3.716  0.2976 -0.8463  2.1158
17032TIP3   OH272510   4.709   2.483   6.078  0.5559  0.0062  0.4864
17032TIP3    H172511   4.743   2.401   6.115  1.3390 -0.4672 -1.1803
17032TIP3    H272512   4.786   2.535   6.060  0.1138  0.7291  0.6454
17033TIP3   OH272513   0.819   1.656   2.842  0.3243 -0.5046 -0.1349
17033TIP3    H172514   0.838   1.624   2.754  0.5528 -2.4597  0.5797
17033TIP3    H272515   0.759   1.591   2.879  0.3648  0.1924  1.2186
17034TIP3   OH272516   4.197   0.858   0.520 -1.0020  0.2269 -0.1040
17034TIP3    H172517   4.127   0.919   0.499  0.3546  2.1094  0.5782
17034TIP3    H272518   4.276   0.899   0.485  0.2423 -0.1466  2.1025
17035TIP3   OH272519   6.704   6.262   4.932  0.2821  0.1514  0.4452
17035TIP3    H172520   6.692   6.322   5.007 -0.0156 -0.2334  0.7115
17035TIP3    H272521   6.651   6.301   4.862 -0.9366 -0.4473  0.9947
17036TIP3   OH272522   0.916   3.609   3.447 -0.3047 -0.6563 -0.2918
17036TIP3    H172523   0.966   3.670   3.501  0.5084 -0.1321 -1.5975
17036TIP3    H272524   0.829   3.608   3.487 -0.0229  0.5402  0.4024
17037TIP3   OH272525   5.156   1.274   0.433 -0.1951 -0.0798 -0.5752
17037TIP3    H172526   5.250   1.287   0.438 -0.3538  1.1453 -0.5279
17037TIP3    H272527   5.134   1.283   0.340 -0.1691 -1.1649 -0.6980
17038TIP3   OH272528   6.311   3.955   1.380  0.1525 -0.7390  0.1182
17038TIP3    H172529   6.310   3.876   1.434 -0.3529 -0.0844  1.0922
17038TIP3    H272530   6.218   3.979   1.370  0.3499  0.3875  0.8312
17039TIP3   OH272531   1.214   4.474   1.589 -0.5442  0.0176 -0.5194
17039TIP3    H172532   1.276   4.547   1.591 -0.0975 -0.3599  1.2714
17039TIP3    H272533   1.129   4.514   1.608 -0.0783 -0.0500  2.0586
17040TIP3   OH272534   3.754   1.681   4.529 -0.0419  0.7149 -0.2786
17040TIP3    H172535   3.839   1.683   4.573  0.2246 -0.3068 -0.7102
17040TIP3    H272536   3.713   1.601   4.560 -0.8916  1.2347 -0.0236
17041TIP3   OH272537   3.420   4.834   1.973 -0.2141  0.0797 -0.3570
17041TIP3    H172538   3.331   4.826   1.942 -0.2236 -1.7305  0.0467
17041TIP3    H272539   3.446   4.745   1.998  0.6142  0.9914  2.4587
17042TIP3   OH272540   4.039   5.221  15.018  0.1847  0.5854  0.0657
17042TIP3    H172541   3.951   5.255  15.000 -0.4920 -1.0928  0.0228
17042TIP3    H272542   4.097   5.273  14.963 -0.9778  0.6529 -1.1461
17043TIP3   OH272543   0.252   5.061  14.500 -0.4912 -0.2866 -0.2872
17043TIP3    H172544   0.210   5.148  14.503  0.3979  0.1317  0.3689
17043TIP3    H272545   0.287   5.049  14.588 -0.5164 -1.2781 -0.4079
17044TIP3   OH272546   2.643   5.862   2.783  0.4945 -1.0688  0.1215
17044TIP3    H172547   2.581   5.935   2.786  4.0228  2.2407  0.4752
17044TIP3    H272548   2.643   5.827   2.872 -0.5467 -0.8969  0.2037
17045TIP3   OH272549   2.445   0.785   0.396 -0.4112 -0.3070 -0.6799
17045TIP3    H172550   2.471   0.741   0.315 -1.3645  0.5929 -1.5052
17045TIP3    H272551   2.523   0.832   0.424  0.2681 -1.5621 -0.4303
17046TIP3   OH272552   3.568   1.309  12.154 -0.3646  0.5078  0.0157
17046TIP3    H172553   3.657   1.344  12.161 -0.3114  0.3319  0.2288
17046TIP3    H272554   3.574   1.244  12.084 -0.4266  0.8071 -0.2706
17047TIP3   OH272555   1.926   4.235  15.295  0.2564  0.1542 -0.5951
17047TIP3    H172556   1.971   4.220  15.378  1.6667 -2.1495 -1.6856
17047TIP3    H272557   1.835   4.248  15.320  0.4884 -1.3366  1.3058
17048TIP3   OH272558   6.192   6.091  15.456 -0.0369 -0.7022 -0.2454
17048TIP3    H172559   6.231   6.010  15.425 -0.0637  0.2638 -3.0402
17048TIP3    H272560   6.219   6.157  15.393 -0.2264  1.4591  1.7992
17049TIP3   OH272561   1.833   2.738   4.032  0.0263  0.5394 -0.4192
17049TIP3    H172562   1.746   2.707   4.054 -0.5490  0.4742 -2.5617
17049TIP3    H272563   1.819   2.825   3.993  0.9734  0.7959 -0.2237
17050TIP3   OH272564   3.818   5.924  14.979 -0.0617 -0.0461  0.1190
17050TIP3    H172565   3.762   5.862  15.025 -1.1903 -0.2755 -1.4746
17050TIP3    H272566   3.805   6.007  15.025  1.7414 -0.9693  2.5007
17051TIP3   OH272567   1.340   4.744   2.532  0.2706  0.2017 -0.0175
17051TIP3    H172568   1.295   4.827   2.546  1.7845  1.2709 -1.1082
17051TIP3    H272569   1.389   4.729   2.613 -0.5183  0.0293  0.4311
17052TIP3   OH272570   5.551   6.166  11.861 -0.1505 -0.0788 -0.0662
17052TIP3    H172571   5.467   6.161  11.815  0.5738 -1.4050 -1.3122
17052TIP3    H272572   5.615   6.136  11.797  1.1767  0.1110  1.1418
17053TIP3   OH272573   5.254   5.309   0.990 -0.2291  0.7395 -0.2598
17053TIP3    H172574   5.180   5.264   0.948  0.0484 -0.3416  0.3742
17053TIP3    H272575   5.320   5.314   0.921 -0.1369 -0.1436 -0.2456
17054TIP3   OH272576   3.084   0.188  14.643 -0.3808 -0.0835  0.1286
17054TIP3    H172577   3.124   0.239  14.573 -1.1968  1.2990  0.6410
17054TIP3    H272578   3.129   0.217  14.722 -0.4823 -0.5585  0.3647
17055TIP3   OH272579   6.530   3.327   1.664 -0.5826 -0.3170 -0.0319
17055TIP3    H172580   6.462   3.357   1.724  1.7521  2.9877  1.2567
17055TIP3    H272581   6.612   3.355   1.704  1.5271 -2.9097 -2.1437
17056TIP3   OH272582   4.832   3.902   5.931 -0.3810  0.6935  0.1776
17056TIP3    H172583   4.779   3.869   5.859 -0.5493 -1.0229  1.0441
17056TIP3    H272584   4.854   3.825   5.983 -0.3167  1.8729  2.0205
17057TIP3   OH272585   2.686   1.512   4.109  0.1893 -0.4871  0.3706
17057TIP3    H172586   2.664   1.486   4.198 -0.7307 -0.3209  0.2025
17057TIP3    H272587   2.780   1.497   4.102  0.3964  0.1047  1.5762
17058TIP3   OH272588   5.007   2.899  15.314 -0.2741 -0.7680 -0.0929
17058TIP3    H172589   4.941   2.867  15.375 -0.5543 -0.6568 -0.3381
17058TIP3    H272590   5.022   2.990  15.339 -1.3588 -0.3128 -1.0168
17059TIP3   OH272591   2.146   5.280   4.418 -0.6535  0.1320  0.1173
17059TIP3    H172592   2.172   5.371   4.403 -0.3314 -0.2169 -1.7173
17059TIP3    H272593   2.226   5.237   4.447 -0.7681  0.3865  0.8313
17060TIP3   OH272594   3.031   1.131   4.580 -0.2585  0.3012  0.2517
17060TIP3    H172595   3.101   1.133   4.514 -0.8868 -0.0774 -0.4527
17060TIP3    H272596   2.995   1.042   4.573  0.4358 -0.1376  1.9472
17061TIP3   OH272597   0.315   6.712   5.374  0.2771  0.0445  0.1615
17061TIP3    H172598   0.301   6.667   5.457 -1.3473 -0.1174 -0.1737
17061TIP3    H272599   0.377   6.782   5.395 -0.3727  0.2241  1.5921
17062TIP3   OH272600   2.116   2.974   4.504 -0.9291  0.2107 -0.2848
17062TIP3    H172601   2.048   3.039   4.521 -0.6038 -0.0789  2.6271
17062TIP3    H272602   2.068   2.893   4.486 -1.3308  0.6936 -1.4428
17063TIP3   OH272603   1.418   3.426   2.789  0.3163  0.2286 -0.1469
17063TIP3    H172604   1.418   3.384   2.703  0.0360 -1.4106  0.6109
17063TIP3    H272605   1.455   3.513   2.774  0.7119 -0.2018 -1.8275
17064TIP3   OH272606   2.129   2.054   4.332  0.6312  0.2229 -0.1635
17064TIP3    H172607   2.183   2.026   4.407  0.1050 -0.6563 -0.0912
17064TIP3    H272608   2.110   2.146   4.349 -0.2112 -0.1817  1.2542
17065TIP3   OH272609   0.354   6.831   1.414 -0.1535 -0.2573  0.1668
17065TIP3    H172610   0.309   6.915   1.407  0.8229  0.2504  0.0032
17065TIP3    H272611   0.359   6.798   1.324 -0.2533 -0.3473  0.1936
17066TIP3   OH272612   4.644   0.651   0.945  0.2513 -0.6271  0.2317
17066TIP3    H172613   4.585   0.698   1.004  0.8997  0.2331  0.2331
17066TIP3    H272614   4.587   0.609   0.882 -0.3569  0.6124 -0.0817
17067TIP3   OH272615   2.911   3.312  14.024 -0.3799 -0.2758  0.0708
17067TIP3    H172616   2.880   3.398  13.999 -1.3381 -0.7158 -0.2987
17067TIP3    H272617   2.838   3.272  14.071  0.5074 -0.4068  1.4022
17068TIP3   OH272618   3.588   6.966  14.920 -0.1229  0.1802  0.1728
17068TIP3    H172619   3.584   7.054  14.882 -0.3903  0.4865  0.9046
17068TIP3    H272620   3.625   6.912  14.850 -2.4029  0.3291 -1.2761
17069TIP3   OH272621   6.478   0.208   3.711  0.0648  0.4813  0.0277
17069TIP3    H172622   6.422   0.241   3.781  0.6481 -0.4564  0.9462
17069TIP3    H272623   6.422   0.211   3.633 -0.2705  2.5319  0.2742
17070TIP3   OH272624   4.906   5.208   1.392  0.0055 -0.1092  0.0058
17070TIP3    H172625   4.930   5.220   1.484 -0.1030 -2.1074  0.3380
17070TIP3    H272626   4.962   5.269   1.344 -1.0007  2.1145  1.4654
17071TIP3   OH272627   4.251   5.014  12.348 -0.5368 -0.7036 -0.1820
17071TIP3    H172628   4.259   4.922  12.373  0.5086 -1.2168 -2.1257
17071TIP3    H272629   4.282   5.016  12.257 -0.7605  1.5396 -0.2598
17072TIP3   OH272630   1.972   0.402   3.251  0.0954  0.0845  0.1128
17072TIP3    H172631   1.940   0.440   3.169 -3.7186  0.7818  1.7145
17072TIP3    H272632   1.956   0.470   3.317  2.0735 -0.8327  1.6306
17073TIP3   OH272633   0.887   2.609  15.015  0.3009  0.2352  0.4769
17073TIP3    H172634   0.853   2.554  14.944 -0.1527  1.8464 -0.5877
17073TIP3    H272635   0.964   2.561  15.047 -0.5389 -1.4065  0.1307
17074TIP3   OH272636   5.953   4.191   4.224 -0.2936 -0.1601  0.1769
17074TIP3    H172637   5.904   4.254   4.277 -0.7483  0.2922 -0.7676
17074TIP3    H272638   6.008   4.244   4.168  2.4723 -0.6534  2.2184
17075TIP3   OH272639   6.924   4.631  15.267 -0.1008  0.3021 -0.0937
17075TIP3    H172640   6.861   4.559  15.265 -0.7806  0.8906 -0.3715
17075TIP3    H272641   6.872   4.707  15.291  0.3289  0.9804 -1.2709
17076TIP3   OH272642   5.203   6.544   9.317  0.0891  0.8314  0.6208
17076TIP3    H172643   5.238   6.456   9.331 -1.4878  0.2347  0.9563
17076TIP3    H272644   5.129   6.550   9.378 -0.6162  1.9251 -0.3163
17077TIP3   OH272645   1.638   4.432  14.655 -0.0102 -0.3030 -0.1139
17077TIP3    H172646   1.673   4.431  14.566 -1.2820 -0.7713 -0.6233
17077TIP3    H272647   1.692   4.497  14.701  0.0792  0.6160 -1.4645
17078TIP3   OH272648   4.443   1.397  11.984 -0.1738  0.5749  0.1372
17078TIP3    H172649   4.481   1.456  12.048  1.3806 -0.7084  0.4674
17078TIP3    H272650   4.371   1.353  12.030  0.7996 -0.1859  0.9758
17079TIP3   OH272651   0.210   6.447   2.627 -0.7836  0.4856 -0.6541
17079TIP3    H172652   0.148   6.383   2.591  0.8615 -1.3233 -0.4199
17079TIP3    H272653   0.157   6.500   2.687 -2.1667 -0.8182 -0.6634
17080TIP3   OH272654   3.318   5.493  14.843 -0.5656  0.3399 -0.1173
17080TIP3    H172655   3.286   5.569  14.892  0.1724  0.2703  0.4863
17080TIP3    H272656   3.242   5.464  14.792 -1.0115  1.1396  0.0746
17081TIP3   OH272657   2.172   3.547   2.599 -0.4039  0.2158 -0.4251
17081TIP3    H172658   2.170   3.481   2.529 -0.2051  0.2488 -0.4641
17081TIP3    H272659   2.118   3.618   2.567  1.4515  1.2142 -1.5481
17082TIP3   OH272660   1.143   3.400   3.967 -0.3307 -0.0788  0.2825
17082TIP3    H172661   1.152   3.401   4.063  0.5521 -2.2923  0.2819
17082TIP3    H272662   1.063   3.450   3.951 -0.4485  0.4350  2.1662
17083TIP3   OH272663   6.497   3.342   3.184 -0.1507  0.3026 -0.3010
17083TIP3    H172664   6.472   3.278   3.118 -0.2912  2.6948 -2.7393
17083TIP3    H272665   6.414   3.373   3.220 -0.1813  0.5007 -0.5400
17084TIP3   OH272666   5.441   0.029  15.242  0.4353  0.0727 -0.0455
17084TIP3    H172667   5.394   0.112  15.246  0.2208 -0.0834  1.0880
17084TIP3    H272668   5.383  -0.034  15.286  0.5373 -0.7100 -0.9992
17085TIP3   OH272669   5.826   3.483   5.268  0.0274  0.1667  0.4362
17085TIP3    H172670   5.911   3.438   5.268 -1.1864 -2.2681  1.1262
17085TIP3    H272671   5.829   3.540   5.345  2.1285  2.5774 -1.2145
17086TIP3   OH272672   4.602   5.398  12.116  0.0202 -0.3059  0.3514
17086TIP3    H172673   4.543   5.465  12.079 -0.0649 -0.2493  0.5922
17086TIP3    H272674   4.689   5.423  12.084  0.1856  0.6775  1.4869
17087TIP3   OH272675   1.625   2.636   4.752 -0.5141 -0.6154 -0.3391
17087TIP3    H172676   1.710   2.598   4.729  1.2481  2.6809  0.0674
17087TIP3    H272677   1.575   2.634   4.671  0.6294 -1.0066 -1.0563
17088TIP3   OH272678   0.886   2.503   2.724  0.3346  0.2661  0.4303
17088TIP3    H172679   0.974   2.514   2.688  0.0076  3.0191  0.2824
17088TIP3    H272680   0.827   2.521   2.651 -0.3336  0.8624  1.0931
17089TIP3   OH272681   2.005   4.151   2.748  0.1446 -0.1169  0.3893
17089TIP3    H172682   1.968   4.174   2.662  0.9900  0.1257  0.0856
17089TIP3    H272683   2.035   4.235   2.783  1.6296 -0.4840  0.0459
17090TIP3   OH272684   3.950   2.073   4.614 -0.3231  0.2562 -0.4678
17090TIP3    H172685   3.910   2.031   4.690  1.2407 -0.2431  0.1400
17090TIP3    H272686   3.935   2.167   4.628  2.1214  0.4442  1.9352
17091TIP3   OH272687   1.440   2.337   0.653 -0.0147 -0.4257 -0.0012
17091TIP3    H172688   1.482   2.278   0.716  1.7634  0.3076 -0.4388
17091TIP3    H272689   1.390   2.398   0.708  0.9187 -0.2430  0.6809
17092TIP3   OH272690   1.374   6.321   5.765  0.7392 -0.2627  0.0046
17092TIP3    H172691   1.290   6.358   5.792  0.2181  0.1638 -2.0408
17092TIP3    H272692   1.371   6.231   5.797 -0.9514 -0.5652 -0.9015
17093TIP3   OH272693   4.993   4.747   2.220  0.0802  0.0942 -0.0104
17093TIP3    H172694   5.077   4.765   2.178 -0.3227  1.0540 -0.4390
17093TIP3    H272695   4.930   4.797   2.169 -0.6390  0.0319  0.7964
17094TIP3   OH272696   0.403   5.449   1.410 -0.1208 -0.2215  0.0727
17094TIP3    H172697   0.490   5.462   1.374 -0.7315  1.3380 -0.9527
17094TIP3    H272698   0.412   5.375   1.471  1.7221 -0.5746 -0.5842
17095TIP3   OH272699   3.640   1.717   2.343  0.2316  0.2997  0.1955
17095TIP3    H172700   3.675   1.629   2.331  0.0165  0.2563 -0.1030
17095TIP3    H272701   3.618   1.722   2.436  2.3253  0.7895  0.7239
17096TIP3   OH272702   3.965   5.373   2.732 -0.2094  0.5648 -0.4260
17096TIP3    H172703   3.914   5.424   2.669 -0.0373  0.0183 -1.0265
17096TIP3    H272704   3.971   5.428   2.810  0.3368  1.6411 -1.2046
17097TIP3   OH272705   4.307   2.302   6.025 -0.0549 -0.0101  0.1010
17097TIP3    H172706   4.272   2.268   5.943 -0.8931  0.8752  0.0765
17097TIP3    H272707   4.231   2.339   6.070  0.3239 -0.7670  1.4317
17098TIP3   OH272708   5.293   1.704  14.908  0.4012  0.2172 -0.1554
17098TIP3    H172709   5.355   1.757  14.859  0.3877  0.8175  0.4612
17098TIP3    H272710   5.268   1.759  14.983 -0.6277 -0.1324 -0.2207
17099TIP3   OH272711   2.758   6.997  15.235 -0.9619  0.2818  0.2173
17099TIP3    H172712   2.830   6.934  15.240  0.7730  1.8815 -2.2013
17099TIP3    H272713   2.694   6.956  15.177  0.0147  0.5250 -1.0900
17100TIP3   OH272714   4.445   4.344  10.728 -0.4775  0.4589 -0.0096
17100TIP3    H172715   4.366   4.390  10.755 -1.8485 -1.8644  0.2797
17100TIP3    H272716   4.415   4.255  10.708  2.0016 -0.3902 -0.3249
17101TIP3   OH272717   0.962   0.514   1.828 -0.0581 -0.5122  0.6639
17101TIP3    H172718   0.970   0.578   1.900  0.6888  1.5653 -1.1549
17101TIP3    H272719   0.986   0.431   1.868  0.9097  0.6590  2.7127
17102TIP3   OH272720   0.000   2.173   4.542 -0.6288 -0.5712  0.0063
17102TIP3    H172721  -0.013   2.209   4.454  0.3401 -1.5474 -0.5783
17102TIP3    H272722   0.078   2.217   4.575 -0.5837 -0.7046  0.0808
17103TIP3   OH272723   3.682   0.250   5.969 -0.0258 -0.1303 -0.6232
17103TIP3    H172724   3.727   0.266   6.052 -2.7776  2.2847  0.5999
17103TIP3    H272725   3.723   0.310   5.907  0.3025  0.0204 -0.2653
17104TIP3   OH272726   4.451   1.397  14.159 -0.1863 -0.2733 -0.4321
17104TIP3    H172727   4.394   1.356  14.095  0.6776  0.2519 -1.5709
17104TIP3    H272728   4.500   1.324  14.197  0.3581 -0.4606 -1.4602
17105TIP3   OH272729   4.321   2.891   5.325  0.5459  0.3546  0.5382
17105TIP3    H172730   4.390   2.825   5.314  0.6489  0.6578 -0.8399
17105TIP3    H272731   4.368   2.973   5.338  0.4169  0.1716  2.3197
17106TIP3   OH272732   5.977   4.194   1.012 -0.1288 -0.2261 -0.2095
17106TIP3    H172733   5.916   4.140   1.063  0.9911 -0.2359  1.1964
17106TIP3    H272734   5.985   4.275   1.062 -0.1703  0.4062 -1.1965
17107TIP3   OH272735   1.252   2.168  12.676  0.5301 -0.9300  0.1429
17107TIP3    H172736   1.165   2.201  12.655  1.2536  1.7730  1.0298
17107TIP3    H272737   1.289   2.142  12.591 -0.2003  0.3701 -0.5990
17108TIP3   OH272738   1.863   2.605   3.402  0.3643 -0.5853  0.4347
17108TIP3    H172739   1.942   2.582   3.450  1.6128 -0.3197 -1.3833
17108TIP3    H272740   1.829   2.521   3.370  0.8184 -0.5718 -0.1000
17109TIP3   OH272741   0.715   2.076   5.137 -0.0632  0.1613  0.0342
17109TIP3    H172742   0.770   2.038   5.205  0.2707  0.0261 -0.3090
17109TIP3    H272743   0.629   2.036   5.151 -0.2796  0.9535  1.0479
17110TIP3   OH272744   3.817   4.570  13.657 -0.0994 -0.4798  0.5784
17110TIP3    H172745   3.762   4.606  13.587 -2.2656  2.4666  3.4985
17110TIP3    H272746   3.806   4.475  13.649 -1.0173 -0.2276 -2.3896
17111TIP3   OH272747   6.070   2.194   1.203 -0.3795  0.0403 -0.2352
17111TIP3    H172748   6.123   2.151   1.270 -0.2268 -1.0783 -1.0446
17111TIP3    H272749   6.125   2.195   1.125 -0.7156  0.9361 -0.4758
17112TIP3   OH272750   2.423   0.329   0.726  0.6617  0.1478  0.1406
17112TIP3    H172751   2.413   0.365   0.815  1.6679  0.8450 -0.0137
17112TIP3    H272752   2.433   0.406   0.670  4.0048 -0.3097 -0.0664
17113TIP3   OH272753   2.218   2.413   4.857 -0.2928  0.4093  0.2964
17113TIP3    H172754   2.182   2.498   4.833 -1.2100 -0.8990 -3.8068
17113TIP3    H272755   2.311   2.418   4.835 -0.2300  0.4727  0.5657
17114TIP3   OH272756   1.924   3.984   3.200 -0.0708  0.3094  0.1726
17114TIP3    H172757   1.893   4.055   3.255 -1.3376 -0.2461  0.1998
17114TIP3    H272758   1.864   3.911   3.217 -0.1617 -0.0583 -1.5018
17115TIP3   OH272759   5.573   3.642   4.129 -0.0049 -0.1849  0.3049
17115TIP3    H172760   5.631   3.611   4.199 -0.4772 -0.8191  0.4212
17115TIP3    H272761   5.542   3.727   4.160  0.5239 -0.0396  0.4428
17116TIP3   OH272762   0.195   2.270   2.634  0.1113  0.2176 -0.7158
17116TIP3    H172763   0.206   2.190   2.583 -0.5206 -0.7267  0.5740
17116TIP3    H272764   0.106   2.264   2.669  0.6165  0.6758  0.7419
17117TIP3   OH272765   3.078   1.717  12.815 -0.5256 -0.8171  0.1646
17117TIP3    H172766   3.033   1.759  12.890  0.0977 -0.3383  0.2742
17117TIP3    H272767   3.052   1.625  12.821 -1.9918 -0.4531 -0.1315
17118TIP3   OH272768   0.495   5.215   2.434  0.0518 -0.8725  0.4859
17118TIP3    H172769   0.420   5.274   2.437  1.0176  0.7342 -2.7649
17118TIP3    H272770   0.456   5.128   2.423 -1.3534 -0.3076  0.8042
17119TIP3   OH272771   6.627   4.636   3.364  0.5030  0.2989  0.3986
17119TIP3    H172772   6.663   4.724   3.374  1.3146  0.0387 -0.1048
17119TIP3    H272773   6.636   4.596   3.450 -0.8391  1.0419  0.9116
17120TIP3   OH272774   6.381   5.629   4.912  0.1953 -0.0053 -0.7732
17120TIP3    H172775   6.289   5.610   4.931  0.3613 -0.6132 -0.5563
17120TIP3    H272776   6.385   5.635   4.817  0.4809 -3.1428 -1.0685
17121TIP3   OH272777   6.099   5.822   3.286  0.0080  0.4977 -0.3450
17121TIP3    H172778   6.161   5.891   3.309  3.3837 -2.3621 -0.1014
17121TIP3    H272779   6.123   5.796   3.198 -0.6472 -0.8770 -0.1456
17122TIP3   OH272780   5.209   3.108   4.957  0.2752 -0.5053  0.0458
17122TIP3    H172781   5.300   3.126   4.935  0.4227 -0.2531  0.8660
17122TIP3    H272782   5.210   3.081   5.048 -0.6740  1.1929  0.6086
17123TIP3   OH272783   0.388   6.065   4.131  0.5223 -0.0977  0.1615
17123TIP3    H172784   0.385   6.126   4.205  0.6533 -1.6561  1.5167
17123TIP3    H272785   0.459   6.005   4.152 -0.5252 -1.5900 -0.3770
17124TIP3   OH272786   4.816   0.302   3.791 -0.6718  0.1628  0.0089
17124TIP3    H172787   4.769   0.379   3.822  3.2775  2.7848  0.2620
17124TIP3    H272788   4.852   0.330   3.706  0.6284 -1.4874 -0.0197
17125TIP3   OH272789   1.019   0.934   3.504 -0.1074  0.1082 -0.2819
17125TIP3    H172790   1.071   1.015   3.502  0.5698 -0.2413  1.6171
17125TIP3    H272791   0.951   0.949   3.438  0.0608  2.1894 -0.0698
17126TIP3   OH272792   3.089   6.205   0.566  0.4792  0.6087 -0.1886
17126TIP3    H172793   3.149   6.192   0.639 -1.4810 -2.0949  1.1221
17126TIP3    H272794   3.144   6.195   0.488  1.9360 -0.6598  0.9417
17127TIP3   OH272795   4.686   3.434   4.932  0.4412 -0.2118  0.2212
17127TIP3    H172796   4.776   3.466   4.927  0.3094  0.4107  1.4076
17127TIP3    H272797   4.689   3.366   4.999  0.3456 -1.4205 -0.9624
17128TIP3   OH272798   2.941   1.986   2.126  0.0205 -0.4795 -0.0878
17128TIP3    H172799   2.980   2.044   2.192 -0.8491  0.3973 -0.3266
17128TIP3    H272800   2.863   1.950   2.169 -1.6129  1.5374 -1.2050
17129TIP3   OH272801   6.210   5.163  11.417  0.2139 -0.4709  0.5876
17129TIP3    H172802   6.265   5.238  11.436 -1.1135  0.7360 -0.1464
17129TIP3    H272803   6.155   5.152  11.495  0.1826 -0.4704  0.5658
17130TIP3   OH272804   4.509   2.750  14.640 -0.4680  0.1253 -0.6783
17130TIP3    H172805   4.420   2.756  14.674 -0.0951  2.3732  0.0079
17130TIP3    H272806   4.507   2.800  14.558 -0.1881 -1.2030 -1.5417
17131TIP3   OH272807   2.970   3.297   5.748  0.7746 -0.1292  0.4380
17131TIP3    H172808   3.016   3.318   5.829  0.6567 -3.4289  1.4840
17131TIP3    H272809   3.031   3.324   5.679  2.4596 -0.4637  1.7195
17132TIP3   OH272810   5.660   6.272   4.908 -0.3563  0.1255  0.4624
17132TIP3    H172811   5.642   6.335   4.837 -1.6555 -1.9417 -1.1562
17132TIP3    H272812   5.575   6.260   4.951 -0.1664 -0.6850  0.6151
17133TIP3   OH272813   2.741   6.205   3.190 -1.0895 -0.6025  0.5135
17133TIP3    H172814   2.700   6.284   3.155 -0.1111  0.1162  0.9441
17133TIP3    H272815   2.669   6.142   3.198 -1.6369 -0.2271 -1.1511
17134TIP3   OH272816   0.293   6.696   4.295  0.7001  0.8414 -0.0112
17134TIP3    H172817   0.205   6.713   4.260  0.6927 -0.0330 -0.4452
17134TIP3    H272818   0.316   6.610   4.261  2.2886  1.6262 -1.0260
17135TIP3   OH272819   3.831   3.076   3.708 -0.7354 -0.0606 -0.0470
17135TIP3    H172820   3.761   3.078   3.773  0.1461  0.1550  0.9389
17135TIP3    H272821   3.909   3.104   3.757  0.6566 -3.0629 -0.3393
17136TIP3   OH272822   2.317   0.329   5.017  0.1520  0.4052  0.0845
17136TIP3    H172823   2.292   0.274   5.091 -1.3404  0.6649 -0.1873
17136TIP3    H272824   2.391   0.381   5.048  0.8257 -0.8996  0.7278
17137TIP3   OH272825   3.275   0.986   1.554 -0.1196  0.0898 -0.5231
17137TIP3    H172826   3.214   0.923   1.515  1.2134 -1.5647 -0.0350
17137TIP3    H272827   3.362   0.953   1.532  0.6447  0.8672  1.1314
17138TIP3   OH272828   5.893   1.264  14.316  0.2774  0.0419  0.2134
17138TIP3    H172829   5.872   1.324  14.387 -0.3604 -1.1114  1.0481
17138TIP3    H272830   5.896   1.318  14.237 -0.7725  1.0618  0.8536
17139TIP3   OH272831   4.831   2.223   0.275 -0.2830  0.6875 -0.3756
17139TIP3    H172832   4.886   2.251   0.202 -0.0322 -0.8692 -0.8025
17139TIP3    H272833   4.869   2.141   0.304 -1.1633  0.6295  0.6767
17140TIP3   OH272834   5.617   0.094  10.665  0.1985  0.3206  0.3357
17140TIP3    H172835   5.676   0.028  10.700  1.2256  2.2190  2.4367
17140TIP3    H272836   5.657   0.122  10.583 -0.2780 -1.6066 -0.6059
17141TIP3   OH272837   0.895   4.438  12.969 -0.5688 -0.0330 -0.1815
17141TIP3    H172838   0.839   4.414  13.042 -1.1835  1.1463 -0.2428
17141TIP3    H272839   0.837   4.438  12.893 -0.9973  2.9009  0.0082
17142TIP3   OH272840   3.291   5.475   3.916  0.2948 -0.0290  0.3963
17142TIP3    H172841   3.265   5.399   3.968  0.5837 -2.2863 -2.5680
17142TIP3    H272842   3.383   5.489   3.938  0.8446 -1.9214 -0.5679
17143TIP3   OH272843   2.939   4.006   2.752 -0.5166 -0.3007 -0.2089
17143TIP3    H172844   3.030   3.996   2.781 -0.2099 -0.2490 -1.0961
17143TIP3    H272845   2.922   3.929   2.698 -0.9038 -0.1624 -0.2876
17144TIP3   OH272846   1.652   0.461   1.262  0.3345 -0.3097 -0.1486
17144TIP3    H172847   1.569   0.440   1.306  1.7738 -1.4720  2.1779
17144TIP3    H272848   1.632   0.450   1.169 -2.4102  0.5792  0.2332
17145TIP3   OH272849   2.728   1.590   4.976  0.3312 -0.2892  0.1422
17145TIP3    H172850   2.756   1.680   4.965 -0.6029 -0.0083 -0.0062
17145TIP3    H272851   2.719   1.556   4.887  0.9321 -0.6124  0.2012
17146TIP3   OH272852   6.205   5.425   1.203 -0.2271  0.3250  0.3382
17146TIP3    H172853   6.139   5.424   1.134 -1.0310 -1.4469  1.0766
17146TIP3    H272854   6.160   5.390   1.280  1.8743 -2.2619  0.5186
17147TIP3   OH272855   1.036   5.172   3.892  0.3228 -0.5459 -0.8518
17147TIP3    H172856   1.090   5.240   3.934  0.4166 -0.3870 -1.2240
17147TIP3    H272857   0.999   5.216   3.815  0.0586 -0.8011 -0.8683
17148TIP3   OH272858   4.272   5.748   5.234  0.4697  1.0638  0.1279
17148TIP3    H172859   4.207   5.703   5.288 -0.2123  1.8858  0.0229
17148TIP3    H272860   4.254   5.718   5.145  1.2734  0.0847  0.2860
17149TIP3   OH272861   3.284   2.119   2.542  0.4609  0.1826  0.0776
17149TIP3    H172862   3.371   2.099   2.507  0.7147  0.0255  0.7823
17149TIP3    H272863   3.301   2.167   2.623 -0.0042 -2.3180  1.7891
17150TIP3   OH272864   5.025   6.420   4.434  0.3685  0.1643  0.3717
17150TIP3    H172865   4.964   6.491   4.414 -0.8598 -0.9272  0.0558
17150TIP3    H272866   5.083   6.416   4.358 -1.1842 -0.7831 -0.8339
17151TIP3   OH272867   3.503   4.762   2.296 -0.2665 -0.2330  0.0463
17151TIP3    H172868   3.518   4.704   2.221  0.1636 -1.0796  0.7702
17151TIP3    H272869   3.589   4.801   2.313 -0.0805 -1.0005  0.8771
17152TIP3   OH272870   1.494   6.162   2.444 -0.0835  0.4228 -0.6724
17152TIP3    H172871   1.532   6.104   2.377  0.0908  0.3465 -0.5099
17152TIP3    H272872   1.456   6.234   2.394 -0.3199  0.1569 -0.8781
17153TIP3   OH272873   5.325   0.078   3.818  0.3716  0.4998  0.4031
17153TIP3    H172874   5.297   0.131   3.892  0.2549  1.8621 -0.5780
17153TIP3    H272875   5.302   0.130   3.741  3.2804  0.5343 -0.5498
17154TIP3   OH272876   0.467   0.558   2.403  0.4140  0.1782 -0.5285
17154TIP3    H172877   0.533   0.545   2.472  0.8735 -0.5065 -1.0854
17154TIP3    H272878   0.459   0.653   2.396  1.3297  0.2737 -0.4334
17155TIP3   OH272879   2.052   1.646   3.510  0.6333 -0.4716 -0.4981
17155TIP3    H172880   2.125   1.590   3.483  1.8619 -0.1558  1.8768
17155TIP3    H272881   2.088   1.734   3.513  0.0675 -0.2514  0.3123
17156TIP3   OH272882   4.892   2.610   5.836  0.1073  0.3051 -0.0165
17156TIP3    H172883   4.955   2.669   5.877  0.6245  0.4998 -1.0514
17156TIP3    H272884   4.911   2.524   5.873  0.6204  0.4601  0.0824
17157TIP3   OH272885   2.371   0.721  11.032  0.8413  0.0388 -0.5152
17157TIP3    H172886   2.411   0.725  11.119 -0.0535  0.5336 -0.1072
17157TIP3    H272887   2.445   0.720  10.971  1.4861  1.2545  0.2037
17158TIP3   OH272888   4.180   4.396   4.966 -0.3668  0.2861  0.2510
17158TIP3    H172889   4.119   4.415   4.895 -1.3771  1.2505  1.3249
17158TIP3    H272890   4.132   4.338   5.024 -0.6328  1.7098  1.5332
17159TIP3   OH272891   1.888   4.488   0.107  0.4800 -0.0402 -0.3732
17159TIP3    H172892   1.889   4.500   0.012  0.1329  2.8771 -0.1183
17159TIP3    H272893   1.798   4.506   0.133  0.9485  1.0658  0.6253
17160TIP3   OH272894   2.400   3.830   3.124  0.0653  0.0949 -0.1320
17160TIP3    H172895   2.306   3.810   3.128  0.1940 -0.4417  0.2465
17160TIP3    H272896   2.422   3.820   3.031 -0.1457 -0.2727 -0.1451
17161TIP3   OH272897   5.788   1.023   4.119  0.0886  0.1025  0.2887
17161TIP3    H172898   5.772   1.013   4.213 -0.1345  1.0787  0.3597
17161TIP3    H272899   5.855   0.958   4.100  0.0734 -0.1742  1.1029
17162TIP3   OH272900   5.044   5.943   5.590 -0.3432  0.1230 -0.4511
17162TIP3    H172901   5.136   5.916   5.585  0.1691  1.4500  1.0032
17162TIP3    H272902   5.014   5.911   5.675 -1.6063 -1.2752 -1.3699
17163TIP3   OH272903   4.363   2.084   0.305  0.1490 -0.3025 -0.2361
17163TIP3    H172904   4.387   2.080   0.212  0.1231 -0.5952 -0.2322
17163TIP3    H272905   4.347   1.993   0.329  0.9401 -0.3214  0.2666
17164TIP3   OH272906   0.787   1.751  13.961  0.4858 -0.2989  0.2690
17164TIP3    H172907   0.722   1.808  14.002 -0.2432 -0.0750 -1.1372
17164TIP3    H272908   0.868   1.770  14.008 -0.3933 -0.4143  1.9085
17165TIP3   OH272909   6.712   1.775   4.279  0.7292 -0.8035  0.2031
17165TIP3    H172910   6.729   1.717   4.353 -0.0415 -1.5634 -0.1977
17165TIP3    H272911   6.650   1.727   4.224  0.1830  0.3376 -0.2184
17166TIP3   OH272912   1.152   2.992   4.836 -0.2130  0.2265 -0.3498
17166TIP3    H172913   1.097   2.951   4.902 -0.9595  0.2697 -0.9295
17166TIP3    H272914   1.117   2.960   4.753  2.5122 -2.2206 -0.7440
17167TIP3   OH272915   4.932   3.848  13.191  0.1183 -0.2581  0.1905
17167TIP3    H172916   4.948   3.755  13.179 -1.4517 -0.5984  0.5084
17167TIP3    H272917   4.859   3.868  13.133 -0.9246  0.2991  1.6410
17168TIP3   OH272918   2.685   0.748  14.147 -0.5480  0.7545 -0.6114
17168TIP3    H172919   2.638   0.702  14.077 -1.9351  1.3341 -0.1121
17168TIP3    H272920   2.616   0.796  14.194  0.2621 -0.0726  1.5154
17169TIP3   OH272921   3.309   1.945   3.274  0.2764 -0.6575 -0.3012
17169TIP3    H172922   3.214   1.930   3.273 -0.1589  1.7204 -1.0133
17169TIP3    H272923   3.332   1.945   3.367 -0.9371  1.2346  0.0584
17170TIP3   OH272924   6.670   4.292   0.514 -0.3863  0.1565 -0.2620
17170TIP3    H172925   6.704   4.207   0.544 -0.7259 -0.0135 -0.3491
17170TIP3    H272926   6.595   4.309   0.571  0.2198  0.8416  0.3536
17171TIP3   OH272927   0.461   4.623   3.344 -0.2043 -0.4942  0.0605
17171TIP3    H172928   0.520   4.693   3.370 -1.2016 -0.3204  1.9920
17171TIP3    H272929   0.514   4.567   3.287  1.3567  0.4475  0.5359
17172TIP3   OH272930   3.202   5.335  13.446 -0.1627  0.5658 -0.0144
17172TIP3    H172931   3.156   5.328  13.362 -0.3878  1.3812  0.0264
17172TIP3    H272932   3.286   5.293  13.431  0.6349  2.4657 -1.2978
17173TIP3   OH272933   0.496   4.815  10.517  0.1430  0.5962  0.0417
17173TIP3    H172934   0.444   4.887  10.482  0.7829  0.0520 -2.1952
17173TIP3    H272935   0.447   4.736  10.493 -0.0710  0.2161  1.6185
17174TIP3   OH272936   1.162   6.921   3.278  0.6521 -0.0480 -0.7653
17174TIP3    H172937   1.079   6.969   3.274 -0.1502 -1.4232 -1.2081
17174TIP3    H272938   1.199   6.945   3.363 -0.5556  0.0181 -0.2337
17175TIP3   OH272939   1.120   7.057  11.450 -0.4207 -0.2970 -0.2028
17175TIP3    H172940   1.065   7.098  11.383 -0.0248 -1.6157 -1.3807
17175TIP3    H272941   1.210   7.075  11.422 -0.2520 -0.4066  0.2609
17176TIP3   OH272942   0.353   0.764   2.889 -0.2348  0.1899  0.5899
17176TIP3    H172943   0.259   0.751   2.902 -0.0640 -0.8443  0.8091
17176TIP3    H272944   0.386   0.678   2.863  0.6663  0.5366  0.5672
17177TIP3   OH272945   6.265   6.213   4.559  0.0819  0.3274 -0.4934
17177TIP3    H172946   6.234   6.301   4.579  0.4970  0.6133 -1.0471
17177TIP3    H272947   6.189   6.157   4.570  0.5306  0.2151  3.1174
17178TIP3   OH272948   4.484   3.647   2.225  0.1013 -0.4865  0.6463
17178TIP3    H172949   4.555   3.675   2.168 -0.4761  1.0513  0.6145
17178TIP3    H272950   4.527   3.610   2.302  0.9172 -0.5669  0.1564
17179TIP3   OH272951   4.086   1.241  13.370  0.7350  0.5937 -0.0294
17179TIP3    H172952   4.000   1.200  13.372  1.1318 -0.2951 -0.6183
17179TIP3    H272953   4.068   1.334  13.359 -0.1356  0.3230 -1.0667
17180TIP3   OH272954   5.687   6.308  15.231 -0.2027 -0.1270 -0.1270
17180TIP3    H172955   5.680   6.403  15.236 -0.0661 -0.1216 -0.0523
17180TIP3    H272956   5.764   6.286  15.282 -0.3689 -0.2998  0.0518
17181TIP3   OH272957   2.608   0.970   1.508 -1.4646  0.8892  0.2711
17181TIP3    H172958   2.682   0.996   1.454 -2.6806  0.6515 -1.6268
17181TIP3    H272959   2.593   1.045   1.566 -0.7594  1.6125 -0.4471
17182TIP3   OH272960   3.123   6.829   5.037 -0.1060  0.4557  0.2466
17182TIP3    H172961   3.103   6.818   5.130  0.8049 -0.9787  0.3175
17182TIP3    H272962   3.216   6.854   5.036 -0.0852  0.3680 -0.2606
17183TIP3   OH272963   3.087   1.583   4.973 -0.0576  0.5750 -0.4383
17183TIP3    H172964   3.050   1.630   5.047 -0.3738 -1.5846  0.8599
17183TIP3    H272965   3.028   1.509   4.960  1.9132 -1.0510 -0.5330
17184TIP3   OH272966   3.551   2.364   1.257 -0.5540 -0.3849  0.2963
17184TIP3    H172967   3.554   2.270   1.241  0.2346 -0.1510 -1.1108
17184TIP3    H272968   3.634   2.397   1.224 -0.0807  0.6172  2.3039
17185TIP3   OH272969   0.631   7.002   4.994  0.2477 -0.1120  0.5068
17185TIP3    H172970   0.631   6.972   4.903  0.7671  0.2839  0.3725
17185TIP3    H272971   0.587   6.932   5.042  1.7055 -1.2509  0.2470
17186TIP3   OH272972   2.579   5.107   5.280  0.1137  0.7778  0.2612
17186TIP3    H172973   2.626   5.035   5.238 -0.8435  0.5666 -0.4728
17186TIP3    H272974   2.577   5.083   5.372 -3.8394 -2.4027 -0.3554
17187TIP3   OH272975   3.294   7.026  14.601  0.0241  0.2080  0.2571
17187TIP3    H172976   3.297   7.116  14.570  0.7723 -0.2847 -1.2199
17187TIP3    H272977   3.211   7.019  14.648 -0.7121  1.2845 -0.8280
17188TIP3   OH272978   2.846   3.463   3.168 -0.4269  0.4619  0.4524
17188TIP3    H172979   2.781   3.403   3.204 -2.1676  2.0685  0.1618
17188TIP3    H272980   2.907   3.478   3.240 -0.2477 -1.2109  0.6837
17189TIP3   OH272981   1.013   5.623  13.959 -0.2866  0.1213  0.1438
17189TIP3    H172982   0.973   5.540  13.984 -0.3777  0.3509  0.7688
17189TIP3    H272983   1.069   5.601  13.884  0.8281 -0.7877  1.2040
17190TIP3   OH272984   6.708   1.125  15.221  0.1948 -0.0581 -0.0508
17190TIP3    H172985   6.752   1.050  15.181  0.6780 -0.0056  0.3654
17190TIP3    H272986   6.628   1.089  15.259  0.8184 -0.5362  0.8628
17191TIP3   OH272987   1.784   2.326   3.628  0.3264 -0.0383 -0.0496
17191TIP3    H172988   1.743   2.411   3.646  0.3758  0.0254 -0.2310
17191TIP3    H272989   1.717   2.278   3.579  0.2151 -0.1874  0.2460
17192TIP3   OH272990   2.751   0.861   3.979  0.2549 -0.2287  0.1057
17192TIP3    H172991   2.762   0.899   3.892 -1.4704  1.1964  0.4534
17192TIP3    H272992   2.727   0.935   4.035 -0.2630 -1.3627  1.4510
17193TIP3   OH272993   4.864   5.811   1.267  0.3895 -0.1649 -0.2581
17193TIP3    H172994   4.930   5.756   1.225 -0.2195 -0.8967 -0.2919
17193TIP3    H272995   4.842   5.764   1.347 -1.4499 -0.9375 -1.1553
17194TIP3   OH272996   0.011   4.166   1.439  0.2812 -0.2385 -0.1249
17194TIP3    H172997   0.047   4.175   1.527 -2.1091  3.6420  0.7374
17194TIP3    H272998  -0.076   4.129   1.452  0.7374 -1.8069 -1.2094
17195TIP3   OH272999   7.018   1.494   3.776 -0.0451 -0.0388 -0.1286
17195TIP3    H173000   7.068   1.575   3.770 -1.0316  0.7304  1.6106
17195TIP3    H273001   6.945   1.506   3.715  1.1788 -0.7129 -1.8168
17196TIP3   OH273002   2.503   4.944   1.483 -0.1449 -0.0271 -0.2842
17196TIP3    H173003   2.487   5.038   1.496 -3.0052 -0.2584 -1.3335
17196TIP3    H273004   2.575   4.941   1.420 -0.6436  1.5206 -0.9842
17197TIP3   OH273005   4.004   2.038   3.451 -0.0056  0.2257 -0.0250
17197TIP3    H173006   3.999   2.088   3.532 -0.0281  0.7348 -0.3360
17197TIP3    H273007   4.088   1.992   3.456 -0.7157 -1.0262  1.0085
17198TIP3   OH273008   3.273   4.315   3.438 -0.0790  0.2227  0.2052
17198TIP3    H173009   3.204   4.273   3.385 -0.5989  0.3828  0.7470
17198TIP3    H273010   3.225   4.372   3.498  0.5364  0.3603  0.5652
17199TIP3   OH273011   3.203   4.902   0.245  0.0757  0.5267  0.1751
17199TIP3    H173012   3.270   4.966   0.265  0.4444  0.2306 -0.0936
17199TIP3    H273013   3.120   4.950   0.252  0.3756  1.1687 -0.5635
17200TIP3   OH273014   0.670   0.525   4.777 -0.1119  0.0889  0.0055
17200TIP3    H173015   0.629   0.606   4.807 -0.1303  0.6259 -1.3698
17200TIP3    H273016   0.620   0.501   4.699  0.9534 -0.3024 -0.5828
17201TIP3   OH273017   5.505   4.435   3.314 -0.0975  0.0346 -0.3936
17201TIP3    H173018   5.436   4.424   3.380 -1.6648 -0.4568 -2.0354
17201TIP3    H273019   5.537   4.346   3.298 -0.4277  0.0270 -1.0153
17202TIP3   OH273020   3.274   3.008  14.898 -0.2471 -0.6071  0.5588
17202TIP3    H173021   3.334   2.934  14.900  0.0728 -0.3413  1.3612
17202TIP3    H273022   3.202   2.982  14.955 -1.5069 -1.3938 -1.2799
17203TIP3   OH273023   5.273   5.969   1.860  0.0029  0.1132  0.3837
17203TIP3    H173024   5.358   6.011   1.872 -0.1201  0.8107 -0.9204
17203TIP3    H273025   5.289   5.899   1.796 -0.7380  1.6716 -1.6390
17204TIP3   OH273026   4.685   0.447  14.717 -0.1952 -0.8661 -0.2681
17204TIP3    H173027   4.623   0.517  14.737  0.9619 -0.1347  0.8464
17204TIP3    H273028   4.636   0.388  14.659 -1.7022  0.0322  0.0440
17205TIP3   OH273029   2.585   4.752  11.043 -0.6100 -0.1383  0.4695
17205TIP3    H173030   2.508   4.698  11.027 -0.3520 -0.3671 -0.0212
17205TIP3    H273031   2.641   4.699  11.100 -0.8300  0.0496  0.8706
17206TIP3   OH273032   2.468   6.141  14.821 -0.3044  0.0646  0.4333
17206TIP3    H173033   2.420   6.068  14.862  0.2578 -0.6587 -0.1785
17206TIP3    H273034   2.414   6.165  14.746  0.1925 -0.6484 -0.1667
17207TIP3   OH273035   6.041   5.455   5.683 -0.2952  0.1462  0.2608
17207TIP3    H173036   6.065   5.515   5.754  0.3092  1.5693 -1.0757
17207TIP3    H273037   5.948   5.438   5.695 -0.1915  0.3392  1.3963
17208TIP3   OH273038   5.110   5.523   4.193 -0.7519  0.0886 -0.1834
17208TIP3    H173039   5.119   5.541   4.287 -0.4254  2.3659 -0.5791
17208TIP3    H273040   5.189   5.561   4.154 -1.1871 -0.2565 -1.4397
17209TIP3   OH273041   3.711   2.656  14.371 -0.4190 -0.3009  0.1134
17209TIP3    H173042   3.781   2.632  14.430  0.6659  1.2218 -0.4821
17209TIP3    H273043   3.709   2.586  14.305  0.0205 -0.7411  0.5633
17210TIP3   OH273044   4.204   4.053   2.396  0.4370  1.1955  0.3497
17210TIP3    H173045   4.164   4.094   2.320 -0.3615  0.7798  0.5358
17210TIP3    H273046   4.291   4.092   2.401  0.0423  2.1635 -0.0307
17211TIP3   OH273047   4.165   2.981   0.789 -0.7813  0.3842 -0.2532
17211TIP3    H173048   4.079   2.939   0.791 -0.5326 -0.1013  1.1534
17211TIP3    H273049   4.226   2.910   0.808 -0.2372  1.1168  0.7879
17212TIP3   OH273050   5.548   2.839   3.251 -0.6534  0.1141 -0.5898
17212TIP3    H173051   5.455   2.826   3.268 -0.4146 -0.4370  0.3538
17212TIP3    H273052   5.576   2.902   3.317 -0.5380  0.9897 -1.4471
17213TIP3   OH273053   2.899   6.683   3.142 -0.2592  0.2983  0.1180
17213TIP3    H173054   2.852   6.761   3.115  1.0255  1.0388 -0.0394
17213TIP3    H273055   2.882   6.619   3.072 -0.3579  0.8205 -0.3410
17214TIP3   OH273056   1.544   7.016   3.618  0.4250  0.1367 -0.8284
17214TIP3    H173057   1.604   6.984   3.685 -0.3291 -0.6286 -0.4912
17214TIP3    H273058   1.587   6.995   3.535  0.3612 -0.9595 -0.6004
17215TIP3   OH273059   6.755   0.652   4.157 -0.3124  0.3126 -0.2894
17215TIP3    H173060   6.683   0.661   4.219  0.8189  0.0858  1.1128
17215TIP3    H273061   6.827   0.702   4.196  1.1541 -1.7073 -0.2515
17216TIP3   OH273062   6.240   2.385   4.942 -0.5504  0.0095  0.1632
17216TIP3    H173063   6.329   2.417   4.932 -0.9346  0.9624 -0.3620
17216TIP3    H273064   6.231   2.365   5.035  0.8281 -2.0380 -0.0892
17217TIP3   OH273065   4.179   5.355   3.813 -0.1610 -0.4745  0.8137
17217TIP3    H173066   4.267   5.374   3.846 -0.6942 -0.2697  2.1938
17217TIP3    H273067   4.134   5.440   3.815  0.1002 -0.2167 -1.5671
17218TIP3   OH273068   1.735   1.659   1.292 -0.0359 -0.2028 -0.1398
17218TIP3    H173069   1.827   1.682   1.301 -0.0835  0.5390 -1.3428
17218TIP3    H273070   1.735   1.589   1.226 -0.2051 -1.3446  1.0290
17219TIP3   OH273071   6.183   2.486  13.603 -0.0639 -0.0739 -0.4035
17219TIP3    H173072   6.201   2.443  13.520 -0.5272  0.9398 -1.0537
17219TIP3    H273073   6.186   2.579  13.583  1.3555  0.2545  1.0479
17220TIP3   OH273074   0.545   6.253   2.978 -0.2928  0.0300  0.9978
17220TIP3    H173075   0.522   6.206   2.898 -1.4855 -1.1309  1.9889
17220TIP3    H273076   0.516   6.196   3.049 -0.0099  1.4023  2.2678
17221TIP3   OH273077   3.731   1.652   5.509 -0.0648 -0.2020  0.0007
17221TIP3    H173078   3.722   1.621   5.418 -0.8371  1.3420 -0.4818
17221TIP3    H273079   3.688   1.584   5.561 -0.9268 -0.4089 -0.9369
17222TIP3   OH273080   6.360   6.569  12.579  0.4231 -0.5049  0.0896
17222TIP3    H173081   6.348   6.476  12.564 -0.6199 -0.0456 -2.4277
17222TIP3    H273082   6.278   6.609  12.550  1.0023  1.2442  0.6909
17223TIP3   OH273083   6.761   0.251   3.105  0.1446 -0.4763 -0.3423
17223TIP3    H173084   6.771   0.346   3.091 -0.1586 -0.3504  0.2827
17223TIP3    H273085   6.826   0.231   3.173 -0.3589 -0.5669  0.1151
17224TIP3   OH273086   6.763   3.114   4.864  0.2783 -0.0521 -0.1165
17224TIP3    H173087   6.777   3.063   4.783 -0.5551  0.3422 -0.5159
17224TIP3    H273088   6.816   3.068   4.930  1.6750  0.1126 -1.0660
17225TIP3   OH273089   5.526   6.444   5.491  0.1885  0.2693  0.4063
17225TIP3    H173090   5.445   6.475   5.532  0.9304  1.9141  0.6732
17225TIP3    H273091   5.569   6.391   5.558  0.1662  0.8288  0.8625
17226TIP3   OH273092   6.120   4.115   3.133  0.3988  0.7387  0.4974
17226TIP3    H173093   6.215   4.106   3.140  0.6771  2.9912  0.4879
17226TIP3    H273094   6.095   4.163   3.212 -0.4721  1.6659 -0.3190
17227TIP3   OH273095   0.492   6.430  12.788 -0.5603 -0.3641 -0.0214
17227TIP3    H173096   0.451   6.457  12.870 -0.3661 -0.5524  0.1415
17227TIP3    H273097   0.446   6.349  12.764 -0.3223 -0.5497  0.1369
17228TIP3   OH273098   2.697   5.539   4.997  0.0953  0.6558 -0.3216
17228TIP3    H173099   2.725   5.628   4.973 -1.5324  1.4162  0.4403
17228TIP3    H273100   2.610   5.530   4.959 -0.3736 -0.0467  0.8517
17229TIP3   OH273101   0.363   5.555  10.568  0.2398 -0.1910  0.3784
17229TIP3    H173102   0.340   5.593  10.483  0.1158 -0.1112  0.4469
17229TIP3    H273103   0.451   5.589  10.586 -0.6798  1.7930  1.4163
17230TIP3   OH273104   2.740   2.882   1.747  0.2090  0.1627 -0.2644
17230TIP3    H173105   2.761   2.818   1.680 -0.6139 -0.9499  0.4917
17230TIP3    H273106   2.671   2.936   1.708  2.1483  1.8223 -1.5817
17231TIP3   OH273107   5.221   6.833   3.545 -0.2172  0.0406  0.1149
17231TIP3    H173108   5.181   6.862   3.627 -1.8757 -0.0360 -0.6266
17231TIP3    H273109   5.155   6.777   3.504  0.8708 -0.5289 -0.9327
17232TIP3   OH273110   1.181   1.487   5.346  0.0112  0.5889  0.4279
17232TIP3    H173111   1.175   1.482   5.442 -3.5708 -0.3139  0.3215
17232TIP3    H273112   1.265   1.448   5.325  0.7089  0.3808  3.1846
17233TIP3   OH273113   1.375   3.396   2.243  0.2228  0.3055 -0.5798
17233TIP3    H173114   1.341   3.343   2.171  0.8840 -0.6160 -0.2348
17233TIP3    H273115   1.300   3.410   2.301 -0.2690  0.9067 -1.3518
17234TIP3   OH273116   5.729   6.645  14.405 -0.1186 -0.0036  0.0470
17234TIP3    H173117   5.705   6.590  14.480  1.0587 -0.4049  0.1443
17234TIP3    H273118   5.712   6.734  14.435 -0.7232 -0.2286  0.3906
17235TIP3   OH273119   6.338   2.288   0.089 -0.0116 -0.5936 -0.2726
17235TIP3    H173120   6.360   2.370   0.133 -0.5811 -0.7407  0.3008
17235TIP3    H273121   6.309   2.314   0.002 -1.0128 -0.1080  0.1971
17236TIP3   OH273122   1.750   5.966   5.573 -0.4348 -0.2838 -0.0082
17236TIP3    H173123   1.670   5.922   5.543  0.3686 -1.2687 -0.8104
17236TIP3    H273124   1.783   5.910   5.644 -0.4939  0.1536  0.3635
17237TIP3   OH273125   3.050   0.899   2.556 -0.1782  0.2094 -0.6684
17237TIP3    H173126   3.053   0.815   2.601  1.5138  1.5445  1.9520
17237TIP3    H273127   3.035   0.877   2.464 -1.8142 -2.8003  0.1958
17238TIP3   OH273128   3.465   4.209   2.815 -0.2700 -0.5919 -0.0382
17238TIP3    H173129   3.443   4.218   2.907 -1.4044  2.5096 -0.4835
17238TIP3    H273130   3.559   4.225   2.811  0.1591 -2.5874  0.6832
17239TIP3   OH273131   6.890   3.763   9.790  0.3754 -0.0734 -0.2445
17239TIP3    H173132   6.863   3.673   9.768 -0.2889  0.1891 -0.5412
17239TIP3    H273133   6.843   3.818   9.727  1.0218  0.4663 -0.2653
17240TIP3   OH273134   0.194   0.297   0.189 -0.0729 -0.2645  0.0904
17240TIP3    H173135   0.146   0.375   0.162 -2.4843 -0.9142  2.1013
17240TIP3    H273136   0.153   0.226   0.141  0.7427 -0.5464 -0.1999
17241TIP3   OH273137   2.665   1.111   3.424  0.0308  0.6316 -0.2893
17241TIP3    H173138   2.644   1.150   3.339  1.8260  2.5310  0.0536
17241TIP3    H273139   2.644   1.179   3.488 -1.2270 -0.7467  0.8351
17242TIP3   OH273140   4.313   6.050  13.473  0.0162 -0.5654  0.1146
17242TIP3    H173141   4.230   6.087  13.443  1.3529  0.9347 -2.0498
17242TIP3    H273142   4.357   6.123  13.517  0.2179 -1.3524  1.2630
17243TIP3   OH273143   5.274   6.053   0.627  0.5204 -0.3297  0.3753
17243TIP3    H173144   5.198   5.998   0.607  0.3543  0.3622 -1.0563
17243TIP3    H273145   5.290   6.039   0.720 -1.3634 -0.4890  0.7173
17244TIP3   OH273146   4.796   3.026   9.632  0.5928 -0.5732  0.3565
17244TIP3    H173147   4.766   2.938   9.611  0.2472 -0.3821  0.0618
17244TIP3    H273148   4.726   3.064   9.685  1.1173 -0.7780  1.2185
17245TIP3   OH273149   6.108   2.125  13.281  0.8326  0.3097 -0.4266
17245TIP3    H173150   6.035   2.065  13.268  0.1943  1.0127 -0.1436
17245TIP3    H273151   6.150   2.131  13.195  1.8162 -1.6808 -0.1405
17246TIP3   OH273152   1.306   1.107   1.709  0.8505  0.4168 -0.2493
17246TIP3    H173153   1.221   1.108   1.753  1.4183  0.5042  0.8780
17246TIP3    H273154   1.314   1.018   1.674  0.6548  0.1492  0.3719
17247TIP3   OH273155   6.467   1.918   4.382 -0.2865 -0.4557 -0.3816
17247TIP3    H173156   6.556   1.915   4.347  1.3213  0.0160  3.1847
17247TIP3    H273157   6.471   1.867   4.463 -2.0617  2.8567  2.0632
17248TIP3   OH273158   5.930   0.397   4.095  0.1866  0.2515 -0.3725
17248TIP3    H173159   5.835   0.390   4.095  0.2319 -0.6999  0.7418
17248TIP3    H273160   5.951   0.431   4.182  0.7369  3.1390 -1.5213
17249TIP3   OH273161   5.000   0.024   3.652 -0.3761  0.3734  0.4281
17249TIP3    H173162   5.069   0.086   3.629  0.1629 -0.3580  0.0750
17249TIP3    H273163   5.045  -0.050   3.692 -0.7744 -0.7776 -1.1288
17250TIP3   OH273164   1.562   2.818   0.926 -0.4778  0.3789  0.4075
17250TIP3    H173165   1.595   2.904   0.899 -0.5384 -0.2795 -2.0687
17250TIP3    H273166   1.635   2.778   0.974  0.3546  1.0382 -0.2590
17251TIP3   OH273167   7.033   2.384   1.702 -0.0162 -0.2626  0.1816
17251TIP3    H173168   7.053   2.475   1.722 -0.4586  0.1110 -1.0401
17251TIP3    H273169   7.034   2.340   1.788 -0.6632  1.0449  0.8849
17252TIP3   OH273170   2.181   6.424   2.055 -0.1933 -0.0441  0.5229
17252TIP3    H173171   2.218   6.503   2.094  1.4036  0.6314 -2.1296
17252TIP3    H273172   2.175   6.362   2.127  0.3342  1.8512  2.2811
17253TIP3   OH273173   3.391   6.367   2.938  0.0726  0.7174 -0.1288
17253TIP3    H173174   3.318   6.306   2.933 -0.0186  0.7449  0.7316
17253TIP3    H273175   3.416   6.382   2.847 -2.1095  2.0532 -0.5854
17254TIP3   OH273176   1.217   2.361   1.294 -0.0539  0.2538  0.0854
17254TIP3    H173177   1.285   2.388   1.233  1.0572  0.4938  1.3670
17254TIP3    H273178   1.161   2.438   1.304  1.0992  1.0039  1.0890
17255TIP3   OH273179   5.301   0.539   0.186  0.1286 -0.2059  0.2590
17255TIP3    H173180   5.392   0.524   0.158  0.0559 -0.2956  0.0672
17255TIP3    H273181   5.306   0.614   0.245  0.2750  0.0416 -0.0652
17256TIP3   OH273182   6.516   2.734   0.706 -0.6189 -0.2994 -0.0601
17256TIP3    H173183   6.436   2.685   0.724 -1.5198  0.9388 -0.5804
17256TIP3    H273184   6.489   2.826   0.707  1.1708  0.2851  1.7513
17257TIP3   OH273185   5.836   0.485   2.027  0.5067 -0.5106 -0.0518
17257TIP3    H173186   5.902   0.538   2.072  1.9652 -1.7323 -0.6355
17257TIP3    H273187   5.780   0.452   2.097 -1.0317  2.4199  0.2765
17258TIP3   OH273188   6.216   2.332   3.352 -0.0469  0.5987  0.1392
17258TIP3    H173189   6.246   2.247   3.317 -1.4076  0.3309 -0.4252
17258TIP3    H273190   6.186   2.312   3.440  1.8980  0.9781  0.9349
17259TIP3   OH273191   1.461   3.840   0.034  0.4088  0.3386  0.0164
17259TIP3    H173192   1.401   3.774   0.067  0.3717 -0.8487 -2.2181
17259TIP3    H273193   1.487   3.891   0.111  0.1274 -2.0193  1.7564
17260TIP3   OH273194   3.229   4.430   5.032 -0.0485  0.2684 -0.1469
17260TIP3    H173195   3.186   4.349   5.061 -0.1596  0.6002  0.6106
17260TIP3    H273196   3.258   4.473   5.112  2.0259 -0.1008 -0.6355
17261TIP3   OH273197   2.501   6.252   0.777  0.2744  0.2742 -0.1065
17261TIP3    H173198   2.434   6.204   0.825  1.0736 -2.1486 -1.2492
17261TIP3    H273199   2.523   6.326   0.833 -0.6956 -0.9388  1.9794
17262TIP3   OH273200   6.166   2.582   4.107  0.1407 -0.0868 -0.0006
17262TIP3    H173201   6.076   2.604   4.131  0.0469 -1.1751  0.7458
17262TIP3    H273202   6.211   2.667   4.104 -1.2446  0.6400 -2.0031
17263TIP3   OH273203   4.449   6.211   5.427  0.0243 -0.5956 -0.1674
17263TIP3    H173204   4.360   6.181   5.406 -1.3002  1.2228  2.2629
17263TIP3    H273205   4.506   6.150   5.381 -2.4569 -1.8232 -1.8924
17264TIP3   OH273206   6.183   3.281  10.786  0.1964  0.1112  0.0820
17264TIP3    H173207   6.211   3.366  10.821  2.6292 -0.2753 -0.7446
17264TIP3    H273208   6.248   3.219  10.820 -0.1609 -1.0237 -1.2395
17265TIP3   OH273209   3.864   0.727  10.194  0.1148 -0.0730 -0.2411
17265TIP3    H173210   3.844   0.818  10.173  0.0887 -0.1411 -0.5157
17265TIP3    H273211   3.853   0.721  10.289  0.3603  0.2715 -0.1886
17266TIP3   OH273212   4.536   0.587   5.677 -0.0972 -0.1016  0.1547
17266TIP3    H173213   4.578   0.562   5.594 -1.6594  0.6338 -0.9250
17266TIP3    H273214   4.453   0.538   5.676 -0.5698  0.6709  0.8175
17267TIP3   OH273215   5.107   0.790   3.819 -0.4182 -0.3862  0.3742
17267TIP3    H173216   5.084   0.812   3.909 -2.5014  0.5848 -0.3150
17267TIP3    H273217   5.102   0.695   3.815  0.4774 -0.5019  1.4446
17268TIP3   OH273218   2.343   4.972   3.568 -0.5594  0.6401  0.5477
17268TIP3    H173219   2.393   5.051   3.589  0.0450  0.5550 -0.5046
17268TIP3    H273220   2.341   4.922   3.650  0.2738  1.0813  0.8510
17269TIP3   OH273221   4.052   5.601  15.298 -0.2680 -0.0864  0.1992
17269TIP3    H173222   4.023   5.511  15.307 -0.8707  0.1367  0.5732
17269TIP3    H273223   4.098   5.604  15.214  0.1960 -0.8500  0.4166
17270TIP3   OH273224   3.056   2.880   3.649  0.0292  0.4040  0.8340
17270TIP3    H173225   3.036   2.789   3.669 -2.0090  0.9973  1.7609
17270TIP3    H273226   3.057   2.924   3.734  0.0927  1.4068  0.3328
17271TIP3   OH273227   0.832   6.335   0.665  0.1324 -0.2962 -0.0843
17271TIP3    H173228   0.812   6.242   0.663  0.9889 -0.5063  0.4619
17271TIP3    H273229   0.878   6.348   0.749 -1.0967  0.8554  0.4525
17272TIP3   OH273230   0.752   1.421   3.562  0.2060 -0.0743 -0.5148
17272TIP3    H173231   0.702   1.492   3.602 -1.6988 -0.7233 -1.6031
17272TIP3    H273232   0.808   1.388   3.632 -1.2993  0.3246  0.9263
17273TIP3   OH273233   3.025   0.477   1.998 -0.3624  0.1019  0.6720
17273TIP3    H173234   2.970   0.413   2.044 -0.9014  0.0218 -0.0647
17273TIP3    H273235   3.027   0.445   1.907 -2.0018  1.9994 -0.0927
17274TIP3   OH273236   5.635   6.441  12.288 -0.2672  0.4966 -0.0148
17274TIP3    H173237   5.611   6.443  12.195 -1.3620  1.5262  0.2696
17274TIP3    H273238   5.554   6.418  12.333  0.0951  0.6641  0.7384
17275TIP3   OH273239   6.656   5.048   5.528 -0.2935  0.2292 -0.6997
17275TIP3    H173240   6.671   5.085   5.615 -0.5855  0.3743 -0.7127
17275TIP3    H273241   6.701   5.107   5.468  0.7113 -0.3747 -0.5713
17276TIP3   OH273242   3.687   1.651   4.834 -0.3454  0.3102 -0.3441
17276TIP3    H173243   3.639   1.596   4.772 -0.2302  1.3214 -1.3560
17276TIP3    H273244   3.775   1.613   4.837  0.3322  1.5411 -2.5555
17277TIP3   OH273245   6.246   5.825   1.729  0.5684 -0.2381 -0.5346
17277TIP3    H173246   6.226   5.772   1.652  0.2433  0.1244 -0.7049
17277TIP3    H273247   6.189   5.791   1.797  1.7426 -1.3988 -0.0803
17278TIP3   OH273248   4.522   5.027   3.698  0.1782 -0.5199  0.4335
17278TIP3    H173249   4.576   4.950   3.680  2.3793  0.6422  1.6238
17278TIP3    H273250   4.447   4.993   3.748  1.4477 -1.8391  1.5449
17279TIP3   OH273251   6.486   0.473  12.049  0.2492 -0.0700  0.4661
17279TIP3    H173252   6.436   0.419  11.987 -0.0226 -0.0032  0.6310
17279TIP3    H273253   6.454   0.562  12.036  0.0145 -0.0923  0.8829
17280TIP3   OH273254   3.757   1.170   3.073  0.0397  0.5576 -0.1979
17280TIP3    H173255   3.697   1.232   3.116 -1.6871 -0.5883 -0.8099
17280TIP3    H273256   3.725   1.164   2.983  0.8268 -0.4200 -0.4297
17281TIP3   OH273257   6.063   3.756   3.779  0.8016  0.5506 -0.1536
17281TIP3    H173258   6.063   3.665   3.750 -2.1918  1.0545 -2.1081
17281TIP3    H273259   6.132   3.798   3.727  0.9715 -0.2131 -0.5539
17282TIP3   OH273260   1.738   3.929  12.165  0.0362  0.0638  0.1072
17282TIP3    H173261   1.802   3.986  12.208  1.8769 -0.3044 -1.9107
17282TIP3    H273262   1.706   3.980  12.091  0.9759 -1.0939 -1.1576
17283TIP3   OH273263   1.549   0.679   5.026  0.4626  0.2360  0.3256
17283TIP3    H173264   1.542   0.746   5.093 -1.2068  0.6336 -0.1905
17283TIP3    H273265   1.507   0.718   4.949  1.1940 -0.6834 -0.5739
17284TIP3   OH273266   3.355   1.211   3.675 -0.0703 -0.3479 -0.2785
17284TIP3    H173267   3.394   1.160   3.747 -1.1497 -2.1286 -0.8792
17284TIP3    H273268   3.261   1.214   3.697 -0.2670 -0.1141 -1.1391
17285TIP3   OH273269   2.129   3.640   2.241  0.1871 -0.0795  0.9709
17285TIP3    H173270   2.054   3.595   2.282 -0.2633  0.8806  1.2312
17285TIP3    H273271   2.173   3.683   2.314  1.0554 -0.6986  0.8296
17286TIP3   OH273272   1.642   6.182   0.565  0.3459  0.2147 -0.9192
17286TIP3    H173273   1.611   6.253   0.509 -1.3487 -1.1035 -1.7309
17286TIP3    H273274   1.581   6.182   0.639  1.2446  0.5255 -0.1553
17287TIP3   OH273275   0.043   5.252  10.520  0.0541  0.1166 -0.3332
17287TIP3    H173276   0.098   5.191  10.472  0.2739 -0.4329  0.6008
17287TIP3    H273277   0.010   5.202  10.595 -1.1525  0.6339 -0.4869
17288TIP3   OH273278   2.345   2.144   5.966  0.2647  0.5630  0.1087
17288TIP3    H173279   2.384   2.081   5.905 -1.3653 -0.4861  0.1043
17288TIP3    H273280   2.252   2.123   5.966  0.2337  0.3164  3.2243
17289TIP3   OH273281   0.482   2.597  12.187 -0.2528  0.5230 -0.5028
17289TIP3    H173282   0.459   2.518  12.139  0.5716  0.4810 -0.8391
17289TIP3    H273283   0.463   2.576  12.278  1.0246 -0.4737 -0.4486
17290TIP3   OH273284   2.597   1.546   3.446  0.3000 -0.4558  0.1313
17290TIP3    H173285   2.529   1.551   3.379  0.7670 -1.1821 -0.4116
17290TIP3    H273286   2.614   1.637   3.471 -0.5303 -0.2429 -0.0686
17291TIP3   OH273287   4.642   3.814   5.781 -0.2544 -0.0104 -0.2877
17291TIP3    H173288   4.569   3.767   5.741  0.9129 -1.2681 -1.0185
17291TIP3    H273289   4.610   3.904   5.788 -1.3087 -0.1743 -2.0889
17292TIP3   OH273290   3.547   2.124   3.932 -0.3520  0.4445  0.5512
17292TIP3    H173291   3.566   2.128   4.026 -1.2771  0.3801  0.7548
17292TIP3    H273292   3.633   2.124   3.890  0.0701  1.1578  1.3691
17293TIP3   OH273293   0.006   3.115   4.382  0.4120 -0.1817 -0.4423
17293TIP3    H173294   0.025   3.098   4.290  0.1452  0.0965 -0.5506
17293TIP3    H273295  -0.018   3.207   4.385  1.0352 -0.0283  0.0085
17294TIP3   OH273296   2.080   3.318   3.706  0.3220  0.3900 -0.3735
17294TIP3    H173297   2.067   3.256   3.635 -0.4005 -0.5760  0.5698
17294TIP3    H273298   2.163   3.291   3.746 -0.1216 -0.1722  0.2014
17295TIP3   OH273299   4.765   3.937   4.299  0.3009 -0.4083  0.0954
17295TIP3    H173300   4.852   3.936   4.340  0.6454 -0.4898 -0.6304
17295TIP3    H273301   4.707   3.898   4.365  0.7443 -0.0151  0.7331
17296TIP3   OH273302   0.041   4.768   1.821  0.0872 -0.3511 -0.0512
17296TIP3    H173303   0.004   4.738   1.904 -1.0413  0.8053 -0.1075
17296TIP3    H273304  -0.003   4.851   1.804  0.8388 -0.2131 -1.4503
17297TIP3   OH273305   2.027   7.107   4.199 -0.1261  0.5778 -0.6965
17297TIP3    H173306   2.097   7.051   4.232 -1.3730 -0.6190  0.0278
17297TIP3    H273307   1.971   7.048   4.147 -1.4750  1.1103  0.0951
17298TIP3   OH273308   5.551   4.386   2.779  0.3446 -0.4240  0.2235
17298TIP3    H173309   5.555   4.396   2.874  1.4026 -3.8715  0.6512
17298TIP3    H273310   5.641   4.395   2.750  0.5637 -2.7897  0.0448
17299TIP3   OH273311   5.599   6.781   3.671 -0.0169  0.3645 -0.2103
17299TIP3    H173312   5.522   6.831   3.700 -0.2068 -0.3305  0.5184
17299TIP3    H273313   5.598   6.702   3.724  0.2098 -0.4975 -1.4455
17300TIP3   OH273314   5.870   3.537  15.650 -0.7972  0.3535  0.2837
17300TIP3    H173315   5.890   3.539  15.744  0.6954 -0.2295 -0.0012
17300TIP3    H273316   5.955   3.545  15.607 -1.0767 -2.2704 -0.9926
17301TIP3   OH273317   4.033   0.367   4.859 -0.0887  0.0645  0.2393
17301TIP3    H173318   4.119   0.373   4.901 -0.5749  0.7024  1.1820
17301TIP3    H273319   3.971   0.383   4.930 -1.1009 -2.7897  0.1267
17302TIP3   OH273320   0.853   5.239   9.471  0.7340  0.3481  0.2993
17302TIP3    H173321   0.847   5.144   9.466 -1.2326  0.4571 -0.5856
17302TIP3    H273322   0.859   5.258   9.564 -2.0336 -0.5751  0.7537
17303TIP3   OH273323   2.471   4.283   5.517 -0.0696  0.4842 -0.2514
17303TIP3    H173324   2.401   4.347   5.503  1.1075  1.0393 -6.5840
17303TIP3    H273325   2.433   4.199   5.492  0.2826 -0.1346  1.1904
17304TIP3   OH273326   3.234   2.475  14.051  0.2152 -0.3426  0.1139
17304TIP3    H173327   3.150   2.521  14.053  0.8878  0.9836 -0.8141
17304TIP3    H273328   3.293   2.530  14.103  0.8702 -0.4956 -0.4559
17305TIP3   OH273329   4.687   1.638   1.740  0.4240 -0.5596  0.4957
17305TIP3    H173330   4.676   1.550   1.774  0.1441 -0.7376 -0.0421
17305TIP3    H273331   4.739   1.627   1.660 -0.0916 -0.3080  0.1191
17306TIP3   OH273332   5.275   2.535   3.481  0.3758 -0.1951 -0.6998
17306TIP3    H173333   5.248   2.564   3.394 -1.5374 -1.1117 -0.4672
17306TIP3    H273334   5.305   2.445   3.468  0.5164 -0.1795 -0.4877
17307TIP3   OH273335   1.623   2.538   5.771 -0.6486 -0.0883 -0.4259
17307TIP3    H173336   1.680   2.479   5.822 -3.0490 -0.5701  1.9109
17307TIP3    H273337   1.620   2.619   5.822 -0.7738  0.5359 -1.3924
17308TIP3   OH273338   1.610   4.925  13.307  0.2070  0.0111 -0.0537
17308TIP3    H173339   1.530   4.925  13.360  1.2906 -0.1623  1.6379
17308TIP3    H273340   1.607   4.842  13.260  0.0722 -0.6262  1.0668
17309TIP3   OH273341   5.496   4.280  15.414 -0.4790 -0.1370  0.4966
17309TIP3    H173342   5.422   4.260  15.357 -0.9036  1.0952  0.5902
17309TIP3    H273343   5.553   4.203  15.408 -0.4583 -0.0048 -1.6463
17310TIP3   OH273344   1.385   6.951   1.385  0.1059 -0.0435 -0.3110
17310TIP3    H173345   1.343   7.034   1.361  0.0804  0.4398  1.3385
17310TIP3    H273346   1.346   6.887   1.326  0.6889  1.2181 -2.1605
17311TIP3   OH273347   2.404   6.750   4.327  0.1744 -0.5447  0.1310
17311TIP3    H173348   2.404   6.680   4.261 -2.1708 -1.5294  1.0459
17311TIP3    H273349   2.457   6.819   4.289 -1.3199 -0.9463 -2.9626
17312TIP3   OH273350   3.890   3.600   4.430  0.2490  0.1227  0.6219
17312TIP3    H173351   3.814   3.604   4.372  1.8494 -0.8673 -1.6978
17312TIP3    H273352   3.965   3.595   4.371  1.9711 -1.7148  2.7811
17313TIP3   OH273353   3.064   1.056  15.296  0.3247 -0.2835 -0.0767
17313TIP3    H173354   3.126   0.990  15.264 -0.4651 -0.5936 -1.0181
17313TIP3    H273355   3.070   1.050  15.392  2.3758  0.3123 -0.1305
17314TIP3   OH273356   3.652   3.236   2.210 -0.0910 -0.6711 -0.5066
17314TIP3    H173357   3.704   3.217   2.288 -1.3028 -0.6416  0.3455
17314TIP3    H273358   3.663   3.160   2.153  0.7133 -0.7425 -0.2592
17315TIP3   OH273359   5.817   3.727   5.829  0.0581  0.0775  0.0297
17315TIP3    H173360   5.863   3.743   5.912  0.6734 -0.1145 -0.2690
17315TIP3    H273361   5.734   3.774   5.839 -0.4494 -1.0176  1.2645
17316TIP3   OH273362   0.519   4.396   2.650 -0.4381 -0.0813 -0.1759
17316TIP3    H173363   0.508   4.302   2.662 -1.6025 -0.0476 -0.7963
17316TIP3    H273364   0.592   4.419   2.707 -0.6657 -1.2176  0.6144
17317TIP3   OH273365   1.659   2.513  14.619 -0.6671 -0.5435  0.1917
17317TIP3    H173366   1.726   2.445  14.616  0.9473  1.0290 -1.6784
17317TIP3    H273367   1.605   2.497  14.541 -0.3305  0.2372 -0.2128
17318TIP3   OH273368   5.942   4.182   0.634 -0.0319 -0.5515  0.6030
17318TIP3    H173369   5.871   4.143   0.582 -1.5489  2.6134  0.1034
17318TIP3    H273370   6.017   4.184   0.575  1.0020 -4.7300  1.3940
17319TIP3   OH273371   1.602   3.170   0.424 -0.0633  0.4339 -0.5067
17319TIP3    H173372   1.592   3.257   0.463 -1.5941  1.1077 -2.2667
17319TIP3    H273373   1.536   3.116   0.469  0.3716  0.3695  0.0602
17320TIP3   OH273374   5.223   0.065   2.965 -0.2824 -0.2903  0.6054
17320TIP3    H173375   5.302   0.013   2.950 -1.3488 -1.8264  0.1220
17320TIP3    H273376   5.225   0.130   2.894 -0.2638 -1.3343 -0.3817
17321TIP3   OH273377   4.965   5.653  14.348 -0.0261  0.2103  0.0787
17321TIP3    H173378   4.882   5.645  14.301  0.0168 -1.1570  0.1861
17321TIP3    H273379   4.940   5.672  14.438 -0.2795 -0.9104  0.2635
17322TIP3   OH273380   0.585   0.899   4.490 -0.1410 -0.0200  0.0651
17322TIP3    H173381   0.550   0.812   4.468  0.0564 -0.2332  0.5696
17322TIP3    H273382   0.509   0.957   4.488 -0.5926 -0.5329  1.4480
17323TIP3   OH273383   4.293   0.372   4.969  0.0340  0.0971 -0.6136
17323TIP3    H173384   4.287   0.326   5.053 -1.9634  1.9578  0.3679
17323TIP3    H273385   4.383   0.356   4.939  0.3998 -1.6834  1.2342
17324TIP3   OH273386   0.845   1.029   4.359 -0.7222  0.1202  0.5941
17324TIP3    H173387   0.911   1.094   4.383 -0.1417  0.3235 -1.3422
17324TIP3    H273388   0.764   1.061   4.397  0.0524  0.5391  1.9528
17325TIP3   OH273389   5.136   6.771   5.345  0.2278 -0.8322  0.1443
17325TIP3    H173390   5.225   6.735   5.342 -0.1255 -1.6865 -0.1925
17325TIP3    H273391   5.150   6.865   5.360  1.2083 -0.8492 -0.4987
17326TIP3   OH273392   2.147   2.566  14.257  0.0495 -0.2901  0.1312
17326TIP3    H173393   2.080   2.595  14.319 -2.4627  0.1783 -2.5886
17326TIP3    H273394   2.124   2.609  14.174  4.4271  0.8250 -0.7895
17327TIP3   OH273395   6.915   3.026  15.382  0.3786 -0.1117 -0.2273
17327TIP3    H173396   6.832   3.053  15.420  1.3652  1.0264  1.2083
17327TIP3    H273397   6.979   3.089  15.415  1.6464 -0.2995 -2.1790
17328TIP3   OH273398   1.253   6.129   1.743  0.1683  0.0878 -0.2766
17328TIP3    H173399   1.247   6.160   1.652  0.6641 -1.4691 -0.8737
17328TIP3    H273400   1.232   6.035   1.738 -0.4646  0.1102  1.3266
17329TIP3   OH273401   6.711   0.404  15.278  0.3557 -0.2125 -0.3126
17329TIP3    H173402   6.784   0.389  15.218  0.1071 -0.1400 -0.6400
17329TIP3    H273403   6.728   0.347  15.352  0.8144 -0.0974 -0.3265
17330TIP3   OH273404   0.966   1.225   0.924  0.7596 -0.3681 -0.4341
17330TIP3    H173405   0.960   1.130   0.934 -2.1217 -0.4004 -1.5465
17330TIP3    H273406   0.985   1.239   0.832  1.9745  0.1697 -0.1274
17331TIP3   OH273407   0.277   3.790   3.459  0.8099 -0.0214  0.0057
17331TIP3    H173408   0.253   3.698   3.469  1.3838 -0.2389 -0.5821
17331TIP3    H273409   0.202   3.829   3.413  0.3967 -0.1035  0.5970
17332TIP3   OH273410   6.385   1.118   3.302  0.0274 -0.0679 -0.3079
17332TIP3    H173411   6.457   1.074   3.348 -0.9819 -0.1374  1.2971
17332TIP3    H273412   6.371   1.066   3.223  1.2515 -0.4711 -0.2738
17333TIP3   OH273413   3.857   5.731   5.577  0.2820 -0.6971  0.0482
17333TIP3    H173414   3.836   5.638   5.579  0.4659 -0.7326  0.3676
17333TIP3    H273415   3.806   5.769   5.648  1.1484 -0.7542  0.7069
17334TIP3   OH273416   7.126   1.096  10.384 -0.0229 -0.0392 -0.4375
17334TIP3    H173417   7.202   1.092  10.326  0.9275 -1.8427  0.8199
17334TIP3    H273418   7.098   1.005  10.393  0.8737 -0.1106  3.1012
17335TIP3   OH273419   2.745   6.989   3.387 -0.2008  0.3394 -0.1487
17335TIP3    H173420   2.782   7.016   3.303  2.9123 -0.7521  0.7340
17335TIP3    H273421   2.771   7.058   3.448  0.8189 -0.6330  0.5638
17336TIP3   OH273422   0.552   5.062   4.698  0.7023 -0.1055 -0.3827
17336TIP3    H173423   0.594   5.073   4.613  0.3555  1.1800 -0.4091
17336TIP3    H273424   0.485   4.994   4.684  3.0990 -2.6912 -0.1858
17337TIP3   OH273425   4.437   0.946   2.991  0.0711 -0.0636 -0.7148
17337TIP3    H173426   4.519   0.940   2.941 -0.3177 -1.8716 -1.1909
17337TIP3    H273427   4.425   1.040   3.005  1.2222  0.3769 -2.3345
17338TIP3   OH273428   3.003   6.131   5.271  0.1848 -0.0558 -0.1538
17338TIP3    H173429   3.091   6.148   5.304  0.0130 -0.8620  0.7677
17338TIP3    H273430   2.947   6.136   5.348 -0.8104  1.8081 -0.9246
17339TIP3   OH273431   5.056   4.071   5.309  0.3110  0.3148  0.4778
17339TIP3    H173432   4.994   4.011   5.348  1.3588 -0.0364  1.6736
17339TIP3    H273433   5.096   4.116   5.384  0.7833  1.2439 -0.3094
17340TIP3   OH273434   4.965   3.244   4.498  0.2847 -0.6005 -0.1438
17340TIP3    H173435   5.027   3.310   4.529  2.0152 -2.8166  1.4724
17340TIP3    H273436   4.950   3.266   4.406 -1.3527  3.5355  0.8659
17341TIP3   OH273437   5.442   4.374  14.333  0.2770  0.3125 -0.2850
17341TIP3    H173438   5.387   4.315  14.281  0.5048  0.7367 -1.0217
17341TIP3    H273439   5.531   4.353  14.307  0.5569 -0.9092  1.4729
17342TIP3   OH273440   4.376   6.312   5.769 -0.3074  0.5539  0.7272
17342TIP3    H173441   4.305   6.355   5.817 -1.2469 -0.2959  0.1206
17342TIP3    H273442   4.427   6.268   5.837  0.6193  2.4941  1.3534
17343TIP3   OH273443   7.052   0.060   2.748 -0.2453  0.2614 -1.0814
17343TIP3    H173444   7.108   0.127   2.709 -0.3083  0.3706 -0.9854
17343TIP3    H273445   6.964   0.080   2.715 -0.1601 -0.1900 -1.6093
17344TIP3   OH273446   6.566   3.236  12.309 -0.5062  0.0849 -0.3557
17344TIP3    H173447   6.474   3.243  12.333 -0.5876  1.0042 -0.9025
17344TIP3    H273448   6.566   3.229  12.214 -0.1068 -2.1439 -0.2378
17345TIP3   OH273449   3.404   2.532   1.440 -0.4807 -0.9429  0.5375
17345TIP3    H173450   3.417   2.466   1.372 -0.8672 -0.6256  0.1450
17345TIP3    H273451   3.397   2.615   1.391 -0.8945 -0.7305  0.9490
17346TIP3   OH273452   5.124   4.287  13.924  0.3296 -0.4458  0.4314
17346TIP3    H173453   5.169   4.239  13.854 -1.1453 -1.4521  0.1108
17346TIP3    H273454   5.194   4.325  13.977  1.4955  0.0111 -1.3499
17347TIP3   OH273455   3.178   5.889   1.020 -0.1053  0.3592 -0.2309
17347TIP3    H173456   3.099   5.885   0.966 -0.1900 -1.3123 -0.0334
17347TIP3    H273457   3.250   5.875   0.958 -0.2654 -2.7326  0.1542
17348TIP3   OH273458   0.469   5.832   3.960 -0.4006 -0.0838 -0.4882
17348TIP3    H173459   0.489   5.917   3.920  1.1334 -0.6188 -0.9376
17348TIP3    H273460   0.536   5.822   4.028 -1.6145 -0.2020  0.7519
17349TIP3   OH273461   4.363   3.599   2.866 -0.3235  0.3799  0.1784
17349TIP3    H173462   4.333   3.510   2.884  0.6637 -0.0952 -0.4111
17349TIP3    H273463   4.345   3.647   2.946  0.4518 -0.7189  1.0426
17350TIP3   OH273464   6.883   6.036   2.479 -0.0279  0.3657 -0.1812
17350TIP3    H173465   6.901   6.080   2.396 -0.1141  0.2798 -0.2451
17350TIP3    H273466   6.792   6.006   2.471 -0.0220  0.3186 -0.0737
17351TIP3   OH273467   2.992   0.005   3.196 -0.4137 -0.1060  0.3738
17351TIP3    H173468   2.983  -0.059   3.124  0.1858  0.2403 -0.0171
17351TIP3    H273469   2.966   0.088   3.157 -0.1701  0.0694  0.5853
17352TIP3   OH273470   3.210   1.180   4.921  0.1065  0.0444  0.5170
17352TIP3    H173471   3.272   1.124   4.875 -1.6003 -1.7279  0.2778
17352TIP3    H273472   3.138   1.122   4.946 -2.1204  2.2340 -0.4115
17353TIP3   OH273473   1.206   4.165   4.561 -0.1250  0.4054 -0.2008
17353TIP3    H173474   1.135   4.218   4.523 -0.4111 -0.8190 -1.4373
17353TIP3    H273475   1.275   4.167   4.495 -0.4097 -1.3062 -0.5926
17354TIP3   OH273476   3.550   0.828  15.592 -0.0575 -0.1658 -0.3545
17354TIP3    H173477   3.520   0.906  15.546 -0.2451 -0.7283 -1.2106
17354TIP3    H273478   3.579   0.769  15.523 -0.3542 -1.0381  0.2451
17355TIP3   OH273479   4.044   6.457   4.265  0.2816 -0.3227  0.7310
17355TIP3    H173480   4.063   6.450   4.171 -0.2778  0.0966  0.5748
17355TIP3    H273481   4.057   6.549   4.285  1.6384 -0.6330  1.3673
17356TIP3   OH273482   0.978   4.949  10.715 -0.2838 -0.1267 -0.3051
17356TIP3    H173483   0.896   4.998  10.709  0.8242  1.7815 -0.4755
17356TIP3    H273484   0.997   4.945  10.809 -0.2646 -0.0675 -0.3070
17357TIP3   OH273485   1.992   2.097  12.868 -0.3338  0.1991 -0.1911
17357TIP3    H173486   1.970   2.149  12.791  0.6834  1.6586  0.4732
17357TIP3    H273487   1.915   2.102  12.924 -1.2085 -1.1449 -1.2150
17358TIP3   OH273488   1.816   7.077   1.204  0.4023  0.0695 -0.0300
17358TIP3    H173489   1.895   7.037   1.239 -0.2101 -0.6762  0.5183
17358TIP3    H273490   1.790   7.142   1.269 -0.4170 -0.9217  0.6623
17359TIP3   OH273491   3.039   0.941   5.738  0.0563  0.4250 -0.2907
17359TIP3    H173492   3.020   1.033   5.719  2.6437  1.4991  1.7585
17359TIP3    H273493   3.006   0.927   5.827 -0.7319 -0.8043 -0.7512
17360TIP3   OH273494   1.600   2.278   5.266  0.5151 -0.5480  0.4042
17360TIP3    H173495   1.657   2.234   5.330 -0.2716 -0.7457  0.9846
17360TIP3    H273496   1.583   2.364   5.305  1.9455  0.2684 -0.6675
17361TIP3   OH273497   5.813   4.376   2.439 -0.0227 -0.2587  0.1179
17361TIP3    H173498   5.811   4.303   2.376  0.0140 -1.3576  1.3461
17361TIP3    H273499   5.721   4.402   2.448  0.0967  0.7712 -1.3223
17362TIP3   OH273500   0.442   4.896   1.944 -0.5226  0.1919 -0.3130
17362TIP3    H173501   0.468   4.804   1.949 -0.0668 -0.0889 -4.6618
17362TIP3    H273502   0.404   4.906   1.857 -0.6167  4.1333  0.0124
17363TIP3   OH273503   6.528   3.517   4.541 -0.4783 -0.2484  0.2019
17363TIP3    H173504   6.467   3.454   4.501 -0.9686  0.3935 -0.0782
17363TIP3    H273505   6.598   3.527   4.476 -1.0072  0.3952 -0.2694
17364TIP3   OH273506   3.716   3.231   1.621 -0.1621 -0.4342 -0.1480
17364TIP3    H173507   3.685   3.178   1.547 -1.2828  0.5908 -0.4417
17364TIP3    H273508   3.698   3.322   1.595  0.7353  0.0352  0.7919
17365TIP3   OH273509   2.897   1.896   0.027  0.2934 -0.5874  0.2720
17365TIP3    H173510   2.803   1.878   0.017 -0.2252  1.1649  1.4970
17365TIP3    H273511   2.921   1.942  -0.053 -0.3192  0.4672  0.6786
17366TIP3   OH273512   2.515   0.324   0.418  0.2148  0.1259  0.3967
17366TIP3    H173513   2.604   0.348   0.392  0.0043  0.2155 -0.2673
17366TIP3    H273514   2.488   0.394   0.477  0.1169  0.8071 -0.4302
17367TIP3   OH273515   6.743   3.292   1.122 -0.3040 -0.2218 -0.1388
17367TIP3    H173516   6.656   3.290   1.082 -0.2099 -0.7307 -0.3159
17367TIP3    H273517   6.781   3.207   1.103  0.6057  0.3297 -0.8927
17368TIP3   OH273518   6.793   3.587   1.658  0.0438 -0.3002  0.4317
17368TIP3    H173519   6.768   3.527   1.728 -0.0718  0.7373  1.3098
17368TIP3    H273520   6.785   3.535   1.578  0.8504 -1.7138  1.2299
17369TIP3   OH273521   2.512   6.495  10.033 -0.1442  0.1888 -0.1766
17369TIP3    H173522   2.535   6.565  10.094 -2.1203  1.1457 -0.4308
17369TIP3    H273523   2.449   6.536   9.973 -2.2332 -2.0607  0.3221
17370TIP3   OH273524   5.421   1.437   5.889 -0.0830  0.5522 -0.8860
17370TIP3    H173525   5.476   1.359   5.899  1.2451  1.6919  1.3781
17370TIP3    H273526   5.334   1.402   5.868  0.9386 -1.3964 -2.2478
17371TIP3   OH273527   5.399   1.211  15.355  0.5787  0.8641 -0.5364
17371TIP3    H173528   5.421   1.205  15.262 -2.4002 -0.3364 -1.2605
17371TIP3    H273529   5.411   1.304  15.376  2.1143  1.0082 -1.8367
17372TIP3   OH273530   7.026   1.738   3.324  0.1537  0.5499 -0.0268
17372TIP3    H173531   7.070   1.773   3.247 -0.2601  2.4113  0.5259
17372TIP3    H273532   7.085   1.670   3.357 -0.0585 -0.9096 -2.4188
17373TIP3   OH273533   2.109   4.705   2.372 -0.2055  0.0739  0.2730
17373TIP3    H173534   2.205   4.698   2.367 -0.1546  1.1686 -0.7528
17373TIP3    H273535   2.092   4.721   2.465  0.3146 -3.1974  1.0690
17374TIP3   OH273536   6.467   1.433   1.893 -0.6851  0.2811  0.4295
17374TIP3    H173537   6.471   1.347   1.934 -1.8648 -0.6477 -1.2723
17374TIP3    H273538   6.542   1.436   1.834 -0.0765  0.8408  1.2171
17375TIP3   OH273539   3.852   6.746   0.501 -0.3776 -0.7003  0.0221
17375TIP3    H173540   3.820   6.659   0.479 -0.2386 -0.5073 -0.9982
17375TIP3    H273541   3.889   6.780   0.419 -0.3194  0.2704  0.4297
17376TIP3   OH273542   0.478   4.059   4.193  0.4274 -0.0683 -0.7996
17376TIP3    H173543   0.452   4.142   4.233 -0.1449 -0.2048 -0.8919
17376TIP3    H273544   0.502   4.004   4.268  0.3364  0.0167 -0.7064
17377TIP3   OH273545   2.344   5.651   2.616 -0.0262 -0.6025  0.4522
17377TIP3    H173546   2.291   5.601   2.677  0.9526  0.3391  2.1431
17377TIP3    H273547   2.291   5.729   2.597  0.5616  0.1996  1.9176
17378TIP3   OH273548   3.542   4.387   5.375  0.0045  0.4077  0.1367
17378TIP3    H173549   3.553   4.350   5.287  0.5941  2.1889 -0.5898
17378TIP3    H273550   3.501   4.317   5.426  1.3069 -1.3013 -1.0675
17379TIP3   OH273551   0.560   4.712   4.347  0.6461  0.0180  0.3304
17379TIP3    H173552   0.615   4.640   4.377  0.0104 -0.0575  1.3743
17379TIP3    H273553   0.472   4.675   4.345  0.7096 -0.1920 -2.3876
17380TIP3   OH273554   3.087   0.831  15.097  0.5661  0.3107 -0.0854
17380TIP3    H173555   3.080   0.880  15.016  0.7407 -0.3324 -0.4970
17380TIP3    H273556   3.175   0.794  15.095  1.3191  1.8876  1.3268
17381TIP3   OH273557   3.617   5.908   5.050 -0.4607 -0.0929  0.4286
17381TIP3    H173558   3.547   5.971   5.067 -1.1719 -0.7412 -0.0151
17381TIP3    H273559   3.602   5.839   5.114  0.2848  0.1569  0.8773
17382TIP3   OH273560   6.332   6.901  12.732 -1.0849  0.2513  0.3672
17382TIP3    H173561   6.324   6.815  12.773 -0.6969  1.0398  2.1843
17382TIP3    H273562   6.253   6.909  12.678 -1.2766 -1.1136  0.4105
17383TIP3   OH273563   4.489   3.080   2.620  0.0023 -0.0154  0.1363
17383TIP3    H173564   4.446   3.158   2.656  0.6891  0.9271 -1.0164
17383TIP3    H273565   4.440   3.007   2.657 -0.4746  0.9443  1.5008
17384TIP3   OH273566   3.957   3.012  12.776 -0.2330 -0.0859  0.0447
17384TIP3    H173567   4.023   2.999  12.707  0.2884  0.5690  0.4039
17384TIP3    H273568   3.881   3.047  12.729 -0.1796 -0.4369 -0.3156
17385TIP3   OH273569   4.802   3.578  13.000  0.1387  0.3247  0.1264
17385TIP3    H173570   4.800   3.489  12.965  1.3528  0.2805  0.1264
17385TIP3    H273571   4.879   3.580  13.057 -0.2018  1.2131  0.5766
17386TIP3   OH273572   1.133   2.782   3.685 -0.7317 -0.2278  0.1061
17386TIP3    H173573   1.085   2.859   3.716 -1.0724 -0.5369  0.3641
17386TIP3    H273574   1.150   2.800   3.592 -0.6575  0.2299  0.2070
17387TIP3   OH273575   2.667   4.065   2.342  0.1436  0.0019 -0.3246
17387TIP3    H173576   2.692   4.099   2.428 -0.2112  1.8028 -0.8905
17387TIP3    H273577   2.742   4.013   2.314  0.7510  0.3746  0.5671
17388TIP3   OH273578   6.688   2.047   4.926 -0.5304  0.2423 -0.1524
17388TIP3    H173579   6.620   2.114   4.937 -0.0808  0.6826 -0.0130
17388TIP3    H273580   6.684   2.023   4.834 -0.9482  0.1891 -0.1210
17389TIP3   OH273581   4.339   5.505   1.690 -0.6348  0.1947  0.7003
17389TIP3    H173582   4.434   5.501   1.695 -0.5934  1.5956  2.4787
17389TIP3    H273583   4.316   5.454   1.613  1.6301  0.7561 -0.4442
17390TIP3   OH273584   4.158   6.987   3.177 -0.5073  0.1053 -0.3172
17390TIP3    H173585   4.066   7.009   3.166 -0.8807 -1.0600  0.2896
17390TIP3    H273586   4.157   6.907   3.230  0.6505 -2.3711 -3.7094
17391TIP3   OH273587   5.855   0.150   1.714 -0.5562  0.0591  0.1392
17391TIP3    H173588   5.894   0.095   1.783 -1.6743 -1.0454 -0.0730
17391TIP3    H273589   5.761   0.145   1.730 -0.7557  0.7693 -0.7552
17392TIP3   OH273590   0.112   4.169   3.617 -0.2603 -0.0474 -0.6702
17392TIP3    H173591   0.062   4.245   3.648 -1.3780 -1.4726  1.3075
17392TIP3    H273592   0.199   4.179   3.656  0.9486  2.1367 -3.6307
17393TIP3   OH273593   5.893   2.086  14.395  0.1242  0.2728  0.3789
17393TIP3    H173594   5.871   1.995  14.414 -3.1751  0.1161 -2.9443
17393TIP3    H273595   5.821   2.136  14.432  1.2073  1.4311  0.9793
17394TIP3   OH273596   4.932   0.289   2.767  0.2328  0.3470  0.7356
17394TIP3    H173597   5.023   0.260   2.762  0.2560  0.4602  0.4818
17394TIP3    H273598   4.899   0.283   2.677  0.2261  1.0520  0.6857
17395TIP3   OH273599   0.846   1.611   1.588  0.2035 -0.0465  0.4257
17395TIP3    H173600   0.837   1.518   1.611  1.7397 -0.1387  0.7463
17395TIP3    H273601   0.847   1.612   1.492 -1.4567 -0.1586  0.3733
17396TIP3   OH273602   4.316   1.918   0.857 -0.1214  0.4866  0.0502
17396TIP3    H173603   4.374   1.992   0.873 -1.1241  1.3110 -0.0496
17396TIP3    H273604   4.356   1.872   0.783  0.5217  0.9166  0.1241
17397TIP3   OH273605   3.780   2.033   5.623 -0.5091  0.7304  0.2420
17397TIP3    H173606   3.831   2.096   5.675  1.6069 -2.1594  1.9251
17397TIP3    H273607   3.695   2.029   5.667 -0.0826  1.1812  1.1350
17398TIP3   OH273608   0.228   2.094   4.809  0.3341 -0.7212  0.0728
17398TIP3    H173609   0.251   2.093   4.901 -1.5361  1.6189  0.6668
17398TIP3    H273610   0.306   2.127   4.765  0.3254  0.9856  1.2363
17399TIP3   OH273611   6.218   4.472   1.994  0.6617  0.0127 -0.4208
17399TIP3    H173612   6.136   4.448   1.950  0.9069 -1.8575  0.0623
17399TIP3    H273613   6.193   4.489   2.084  0.9027 -1.4476 -0.0590
17400TIP3   OH273614   2.099   0.226   1.447 -0.4163  0.3961 -0.0371
17400TIP3    H173615   2.154   0.231   1.525 -0.8412 -0.8186  0.3606
17400TIP3    H273616   2.009   0.224   1.480 -0.6007 -0.0942 -0.5445
17401TIP3   OH273617   2.067   3.551  13.765  0.5676  0.7912 -0.4998
17401TIP3    H173618   2.062   3.641  13.798  1.6562  0.1155  1.7379
17401TIP3    H273619   2.012   3.500  13.826 -1.3040  0.1060 -2.6371
17402TIP3   OH273620   4.266   0.956   5.849 -0.3946 -0.2374  0.1934
17402TIP3    H173621   4.316   0.879   5.874 -1.5900 -0.5595  1.7312
17402TIP3    H273622   4.306   1.028   5.898  2.4935  0.8043 -3.2455
17403TIP3   OH273623   6.205   3.340   4.010  0.0273 -0.0966  0.4174
17403TIP3    H173624   6.222   3.355   3.917  1.5648  0.6119  0.7758
17403TIP3    H273625   6.254   3.260   4.030  1.5961  0.9850  1.0799
17404TIP3   OH273626   2.804   3.081   4.119  0.2036  0.2251 -0.6533
17404TIP3    H173627   2.878   3.052   4.172  0.8306 -0.6553 -1.9683
17404TIP3    H273628   2.780   3.166   4.155  0.0672 -0.6925  1.5615
17405TIP3   OH273629   5.927   6.970   1.422  0.0746 -0.0899  0.3513
17405TIP3    H173630   5.932   7.065   1.406  0.2905 -0.1411  0.1049
17405TIP3    H273631   6.015   6.946   1.450 -0.3683  0.0524  1.9898
17406TIP3   OH273632   5.494   1.610   1.167 -0.0288 -0.4283 -0.0460
17406TIP3    H173633   5.522   1.571   1.084  2.0036  0.3202  0.2230
17406TIP3    H273634   5.509   1.541   1.231 -0.4155 -0.5918 -0.1302
17407TIP3   OH273635   7.001   6.575   2.384  0.9370  0.1199  0.2324
17407TIP3    H173636   7.023   6.665   2.361  1.1801 -0.0541 -0.2490
17407TIP3    H273637   7.048   6.522   2.319  2.2043 -0.4335  1.5423
17408TIP3   OH273638   0.242   4.910   3.916 -0.1403  0.4039  0.1941
17408TIP3    H173639   0.234   4.982   3.854 -0.4330 -0.8389 -1.2775
17408TIP3    H273640   0.225   4.832   3.864  0.2274 -0.7444  1.7256
17409TIP3   OH273641   0.039   1.561   0.691 -0.5400  0.1588  0.2656
17409TIP3    H173642  -0.031   1.600   0.744  1.0086  0.7752  1.9296
17409TIP3    H273643   0.085   1.636   0.653  0.0422 -0.1936  0.2607
17410TIP3   OH273644   5.247   3.701   2.129  0.4295  0.3512  0.0284
17410TIP3    H173645   5.322   3.675   2.077  1.1471 -0.0859  1.2453
17410TIP3    H273646   5.175   3.706   2.066  0.8732 -1.8649 -0.7319
17411TIP3   OH273647   0.639   3.681   4.842  0.1297  0.2168  0.3925
17411TIP3    H173648   0.547   3.694   4.863  0.6865  1.6230  2.2479
17411TIP3    H273649   0.682   3.761   4.872  2.6972 -2.3812  4.7641
17412TIP3   OH273650   1.857   6.103  14.511 -0.1216 -0.2115 -0.0253
17412TIP3    H173651   1.915   6.123  14.584  0.6447 -0.3538 -0.5816
17412TIP3    H273652   1.796   6.038  14.545 -0.2393  0.2703  0.6964
17413TIP3   OH273653   0.740   0.806   5.944  0.3864 -0.0066 -0.6071
17413TIP3    H173654   0.732   0.899   5.964 -0.3804 -0.4927  1.7389
17413TIP3    H273655   0.834   0.791   5.933  0.4412  1.1761 -1.9851
17414TIP3   OH273656   6.009   7.079   2.548  0.2074  0.0508  0.0709
17414TIP3    H173657   6.087   7.025   2.539  0.8771  1.0759 -0.4221
17414TIP3    H273658   6.037   7.166   2.522 -1.5931  0.0709 -2.0956
17415TIP3   OH273659   4.892   2.383   0.912  0.2181 -0.3709 -0.5676
17415TIP3    H173660   4.898   2.410   0.820  0.5302 -1.6149 -0.9334
17415TIP3    H273661   4.859   2.293   0.908  0.8832 -0.6755  0.5061
17416TIP3   OH273662   4.078   1.183   2.906  0.4975 -0.0601 -0.1160
17416TIP3    H173663   4.008   1.244   2.882 -1.7068 -1.6421  1.8459
17416TIP3    H273664   4.080   1.186   3.002  1.8258 -1.4814 -0.0673
17417TIP3   OH273665   6.794   1.350   1.533 -0.1014  0.3668  0.0917
17417TIP3    H173666   6.808   1.334   1.440  0.3846 -2.5764  0.5694
17417TIP3    H273667   6.718   1.296   1.556  0.2728  0.4048  1.5529
17418TIP3   OH273668   3.994   3.527   3.876  0.0760  0.0490  0.0488
17418TIP3    H173669   4.074   3.525   3.823 -0.1547  0.5690 -0.3325
17418TIP3    H273670   3.933   3.580   3.825  0.1464  1.3580  1.2540
17419TIP3   OH273671   3.764   6.443   3.723 -0.1696  0.3469 -0.4868
17419TIP3    H173672   3.764   6.453   3.819 -0.4525  0.5485 -0.5077
17419TIP3    H273673   3.758   6.348   3.710  0.9806  0.2289 -0.3026
17420TIP3   OH273674   4.133   1.528   5.463 -0.0723  0.8833  0.6358
17420TIP3    H173675   4.055   1.500   5.416  0.0015  0.6000  0.6746
17420TIP3    H273676   4.171   1.597   5.409  1.3664 -1.0956 -1.0452
17421TIP3   OH273677   2.499   1.474  13.101  0.3347 -0.1267 -0.0700
17421TIP3    H173678   2.543   1.437  13.177  0.7758  0.9705  0.2274
17421TIP3    H273679   2.563   1.533  13.062 -0.8129  1.4422  0.3282
17422TIP3   OH273680   1.857   1.201  13.391  0.0701  0.8289  0.2273
17422TIP3    H173681   1.842   1.290  13.421 -0.8344 -0.0413  2.6121
17422TIP3    H273682   1.949   1.200  13.363  0.5983  2.1143  1.7670
17423TIP3   OH273683   6.291   2.439   1.098  0.0140  0.1582  0.2791
17423TIP3    H173684   6.277   2.519   1.048 -2.4256  0.4956  1.3672
17423TIP3    H273685   6.253   2.369   1.044  0.0038  0.0880  0.3765
17424TIP3   OH273686   4.564   6.173   3.172 -0.3316 -0.3140 -0.0464
17424TIP3    H173687   4.501   6.167   3.244 -1.0477 -1.8764 -0.7586
17424TIP3    H273688   4.620   6.096   3.183 -0.4485 -0.5675 -1.1447
17425TIP3   OH273689   3.429   3.116   3.366 -0.3924 -0.4244  0.2951
17425TIP3    H173690   3.348   3.083   3.406  0.6110 -2.0058  1.1599
17425TIP3    H273691   3.465   3.040   3.321 -0.0686  0.6264 -1.2847
17426TIP3   OH273692   4.384   6.799   3.201 -0.2000  0.3051  0.1950
17426TIP3    H173693   4.290   6.819   3.204 -0.8264 -2.3858  3.2150
17426TIP3    H273694   4.426   6.875   3.239 -1.4170  0.5470  1.1127
17427TIP3   OH273695   2.932   0.192   2.418 -0.3436  0.0298  0.3852
17427TIP3    H173696   2.999   0.248   2.458 -0.4796  0.6647 -0.2646
17427TIP3    H273697   2.850   0.218   2.460 -0.4620  0.5860 -0.1687
17428TIP3   OH273698   6.567   4.606   6.177  0.3014 -0.0917 -0.1862
17428TIP3    H173699   6.572   4.686   6.124  1.4246  0.2946  0.4684
17428TIP3    H273700   6.656   4.571   6.177 -0.2168 -1.4968 -0.6554
17429TIP3   OH273701   5.465   7.070   3.024 -0.0535 -0.2675  0.4851
17429TIP3    H173702   5.448   7.057   3.117  1.5354 -0.1073  0.8268
17429TIP3    H273703   5.513   6.991   2.998 -0.0238 -0.0687 -0.0710
17430TIP3   OH273704   0.455   3.085   4.398  0.3645 -0.0609 -0.5151
17430TIP3    H173705   0.499   3.019   4.452  2.2782  1.3803 -0.2342
17430TIP3    H273706   0.434   3.038   4.316  0.6354 -1.3048  0.0990
17431TIP3   OH273707   5.142   4.536   3.348  0.0602 -0.5254  0.4424
17431TIP3    H173708   5.216   4.582   3.308 -0.4368 -0.5653 -0.5795
17431TIP3    H273709   5.171   4.515   3.436  0.8651  0.4047  0.4189
17432TIP3   OH273710   5.114   4.372   4.458  0.3057 -0.0308  0.2893
17432TIP3    H173711   5.074   4.298   4.505  1.6810  0.9836  3.2968
17432TIP3    H273712   5.040   4.414   4.413 -1.0298 -1.3975  1.0839
17433TIP3   OH273713   1.628   6.725   2.661 -0.0472 -0.4307  0.4304
17433TIP3    H173714   1.589   6.674   2.591  0.0811  0.7841 -0.5564
17433TIP3    H273715   1.643   6.812   2.623 -2.0226  0.9981  2.5677
17434TIP3   OH273716   0.378   4.348   3.467 -0.4770  0.1129 -0.4124
17434TIP3    H173717   0.446   4.411   3.444  0.6146 -0.9251 -0.1685
17434TIP3    H273718   0.351   4.310   3.383  1.1192 -1.2933 -0.3451
17435TIP3   OH273719   3.984   5.609   0.809 -0.3614  0.1064  0.8592
17435TIP3    H173720   4.053   5.568   0.758 -0.8135 -0.7052  0.8872
17435TIP3    H273721   3.925   5.648   0.744 -1.9180 -2.4737  0.6118
17436TIP3   OH273722   2.117   5.436   5.305 -0.2588 -0.2006 -0.3201
17436TIP3    H173723   2.204   5.476   5.301 -0.4052  0.3273  1.3113
17436TIP3    H273724   2.107   5.408   5.396 -0.3848 -3.5363 -1.2009
17437TIP3   OH273725   6.579   1.359   5.657 -0.0630 -0.2244 -0.7172
17437TIP3    H173726   6.655   1.344   5.602 -0.1982 -2.6224 -0.3374
17437TIP3    H273727   6.614   1.401   5.736  0.5735  0.3920 -1.3192
17438TIP3   OH273728   2.888   7.000  10.882 -0.1480  0.2462  0.1779
17438TIP3    H173729   2.961   7.038  10.932  0.8584 -0.0328 -1.0441
17438TIP3    H273730   2.880   6.911  10.916 -1.7778  1.0926  2.2560
17439TIP3   OH273731   0.295   6.423   4.211 -0.2058  0.4291  0.2570
17439TIP3    H173732   0.309   6.392   4.122 -0.7283  0.1791  0.2529
17439TIP3    H273733   0.324   6.350   4.267  1.1103  0.9854  0.3321
17440TIP3   OH273734   0.996   0.654   3.965  0.1759 -0.0070  0.2209
17440TIP3    H173735   0.970   0.566   3.990 -2.0943  0.5482  0.0800
17440TIP3    H273736   0.941   0.711   4.019 -0.5457  1.2632 -1.7627
17441TIP3   OH273737   2.623   4.230   5.754  0.3670 -0.1228  0.2559
17441TIP3    H173738   2.566   4.257   5.681  0.5492 -0.2838  0.0523
17441TIP3    H273739   2.687   4.302   5.761 -0.9267  0.9576  1.6694
17442TIP3   OH273740   1.177   6.771   5.293 -0.0797  0.7379  0.1353
17442TIP3    H173741   1.132   6.716   5.228 -1.2105  0.6998  0.9203
17442TIP3    H273742   1.109   6.831   5.325  0.2118  0.1881  1.8921
17443TIP3   OH273743   4.682   5.400   2.125 -0.2664  0.2743  0.1300
17443TIP3    H173744   4.727   5.328   2.083 -0.6699  1.5048 -2.6504
17443TIP3    H273745   4.661   5.368   2.213  2.4846 -1.7074  0.1759
17444TIP3   OH273746   5.812   5.809   5.045  0.2483  0.1274  0.1973
17444TIP3    H173747   5.848   5.821   4.957 -1.2432 -0.0779 -0.4648
17444TIP3    H273748   5.774   5.894   5.067 -0.0415 -0.0390  0.3379
17445TIP3   OH273749   5.295   4.823   1.813 -0.5841  0.2107 -0.3158
17445TIP3    H173750   5.369   4.872   1.777 -1.6101  1.8055 -0.3540
17445TIP3    H273751   5.224   4.838   1.750 -1.6801  0.9112  1.0489
17446TIP3   OH273752   2.046   5.873   5.478 -0.2618 -0.5281 -0.1789
17446TIP3    H173753   2.002   5.806   5.426 -0.4419  0.7127 -1.7133
17446TIP3    H273754   1.981   5.943   5.487  0.1198 -0.2999  0.8626
17447TIP3   OH273755   0.911   6.636  10.757 -0.3490  0.1534 -0.1618
17447TIP3    H173756   0.958   6.618  10.839 -0.3980 -2.6610 -0.6394
17447TIP3    H273757   0.819   6.636  10.782 -0.3744 -0.8737 -0.1824
17448TIP3   OH273758   0.603   3.743  12.961 -0.6723 -0.3808  0.1910
17448TIP3    H173759   0.636   3.825  12.996  1.4340 -0.6621 -0.9726
17448TIP3    H273760   0.671   3.679  12.982 -0.8567 -1.1875 -1.5160
17449TIP3   OH273761   1.891   3.691   3.926 -0.2433  0.0518 -0.2066
17449TIP3    H173762   1.916   3.630   3.995 -1.0706  0.3829  0.4099
17449TIP3    H273763   1.928   3.654   3.846  0.9530 -0.2127  0.4380
17450TIP3   OH273764   6.217   0.270   9.938  0.2681  0.4876  0.5183
17450TIP3    H173765   6.141   0.305   9.892  1.1892  1.6524 -0.1487
17450TIP3    H273766   6.247   0.198   9.882  1.4438  1.9609 -0.8045
17451TIP3   OH273767   4.611   6.128   3.858  0.1480 -0.5951 -0.3661
17451TIP3    H173768   4.604   6.098   3.949 -1.4842 -1.7355 -0.8141
17451TIP3    H273769   4.608   6.047   3.806 -0.1758  0.1018 -1.4636
17452TIP3   OH273770   1.776   0.679   4.132 -0.7366  0.4029 -0.2807
17452TIP3    H173771   1.707   0.741   4.155 -2.3383 -0.3981 -2.5342
17452TIP3    H273772   1.736   0.593   4.147  0.6818 -0.1268  0.6974
17453TIP3   OH273773   1.938   2.804   5.224  0.2886  0.0958 -0.0706
17453TIP3    H173774   1.868   2.755   5.182  0.4782  0.8502 -1.3170
17453TIP3    H273775   1.921   2.896   5.201  0.0499  0.6401  2.0472
17454TIP3   OH273776   1.369   1.954   4.681 -0.6818 -0.3763  0.2893
17454TIP3    H173777   1.308   1.958   4.607  2.1792  2.1358 -2.2046
17454TIP3    H273778   1.390   2.045   4.700  1.4929 -1.1001  1.7340
17455TIP3   OH273779   2.837   0.690   2.911 -0.4776 -0.6387  0.3961
17455TIP3    H173780   2.760   0.740   2.940 -0.0984 -1.4333  2.9855
17455TIP3    H273781   2.907   0.755   2.906 -0.8435 -0.2661 -0.0589
17456TIP3   OH273782   3.340   5.435   0.623 -0.6330 -0.6891  0.2516
17456TIP3    H173783   3.283   5.359   0.607 -0.2384 -0.5261 -2.3543
17456TIP3    H273784   3.283   5.511   0.613 -0.0892 -0.5257 -2.3605
17457TIP3   OH273785   0.346   4.515   0.482 -0.0318  0.6841  0.0069
17457TIP3    H173786   0.318   4.507   0.391  3.8868 -0.6296 -1.2690
17457TIP3    H273787   0.377   4.605   0.490  2.5913 -0.0199 -1.0856
17458TIP3   OH273788   5.908   2.187   3.420 -0.5944 -0.7966 -0.2003
17458TIP3    H173789   5.893   2.118   3.355  0.4396 -0.1727 -1.1396
17458TIP3    H273790   5.870   2.152   3.501  0.0386 -2.5340 -0.6009
17459TIP3   OH273791   1.268   0.561   2.445 -0.1953  0.4606  0.1725
17459TIP3    H173792   1.281   0.508   2.524  2.7853 -0.4276 -0.7673
17459TIP3    H273793   1.233   0.644   2.477  1.5391  0.3805  2.5702
17460TIP3   OH273794   0.067   2.133   0.567 -0.1290 -0.1124 -0.1163
17460TIP3    H173795   0.054   2.163   0.656 -1.6803 -0.5455 -0.1727
17460TIP3    H273796   0.085   2.212   0.517  0.2062  0.1932  0.4802
17461TIP3   OH273797   4.955   4.620  14.551  0.3339  0.5540  0.1130
17461TIP3    H173798   5.010   4.544  14.534 -0.6455 -0.5416  1.6077
17461TIP3    H273799   4.868   4.594  14.522  0.3853  1.9679 -1.4705
17462TIP3   OH273800   6.897   7.084  12.388 -0.3158 -0.2291 -0.5617
17462TIP3    H173801   6.930   7.170  12.360 -0.6326  0.3950  0.9078
17462TIP3    H273802   6.816   7.104  12.434 -0.4413 -1.3441 -0.2885
17463TIP3   OH273803   4.298   1.355   5.179  0.0944 -0.0142  0.1756
17463TIP3    H173804   4.305   1.443   5.214 -0.0923 -0.3927  1.2133
17463TIP3    H273805   4.205   1.334   5.186  0.1770 -0.3838  0.1875
17464TIP3   OH273806   0.057   7.064   4.908  0.1591  0.1572  0.3726
17464TIP3    H173807   0.130   7.009   4.937  0.3449 -0.0893 -0.5540
17464TIP3    H273808   0.067   7.071   4.813 -1.2184 -0.1827  0.1784
17465TIP3   OH273809   2.291   1.063  11.316 -0.0970  0.3201  0.0999
17465TIP3    H173810   2.231   0.998  11.280  0.0078  0.6442 -0.6860
17465TIP3    H273811   2.262   1.076  11.406 -0.1130 -0.8190  0.2705
17466TIP3   OH273812   0.389   3.660   5.753 -0.2101  0.1151 -0.4599
17466TIP3    H173813   0.380   3.731   5.690 -0.4546  0.4703 -0.0189
17466TIP3    H273814   0.326   3.594   5.724 -1.7642  1.1016  0.5481
17467TIP3   OH273815   1.256   6.998   3.022 -0.0511 -0.3587 -0.3815
17467TIP3    H173816   1.327   7.040   3.071 -0.2416 -0.2736 -0.1782
17467TIP3    H273817   1.230   6.924   3.076 -1.3579  0.6645  0.4562
17468TIP3   OH273818   2.799   4.575   4.285  0.3291 -0.4229 -0.3198
17468TIP3    H173819   2.823   4.487   4.255 -2.4982 -1.5782  0.4299
17468TIP3    H273820   2.766   4.619   4.208  1.5558 -0.0509 -0.6544
17469TIP3   OH273821   0.599   1.660   3.993  0.3162  0.3526 -0.1299
17469TIP3    H173822   0.543   1.730   3.959 -0.5303 -0.0079  0.4945
17469TIP3    H273823   0.540   1.585   4.005  1.1871 -0.4591 -0.7112
17470TIP3   OH273824   3.292   1.325   1.195  0.1376 -0.2177  0.2005
17470TIP3    H173825   3.250   1.302   1.278  0.5256 -0.6157  0.2910
17470TIP3    H273826   3.307   1.241   1.152  1.0039 -0.1041  0.2541
17471TIP3   OH273827   1.059   6.370  13.380  0.4053  0.2592  0.2145
17471TIP3    H173828   1.122   6.443  13.384  0.3713  0.2925  0.1447
17471TIP3    H273829   1.063   6.331  13.467 -1.0149  1.5535  0.9216
17472TIP3   OH273830   0.420   6.863   5.172  0.3314  0.3755 -0.1794
17472TIP3    H173831   0.429   6.947   5.215 -1.9171  0.5196  0.1551
17472TIP3    H273832   0.363   6.812   5.230  0.2913 -0.7681 -1.1625
17473TIP3   OH273833   3.183   5.618   1.524 -0.0825 -0.0629 -0.3038
17473TIP3    H173834   3.087   5.628   1.522 -0.0454  0.2132 -0.6713
17473TIP3    H273835   3.206   5.596   1.434  0.4557  2.1458 -0.7543
17474TIP3   OH273836   2.916   5.833   1.200 -0.1610  0.4438  0.0698
17474TIP3    H173837   2.995   5.875   1.233 -0.0375  0.7929 -0.6662
17474TIP3    H273838   2.947   5.764   1.142 -0.4058  0.9357 -0.6493
17475TIP3   OH273839   1.389   1.284  15.202  0.3145  0.4673  0.4325
17475TIP3    H173840   1.437   1.290  15.284  0.8247  3.1348  0.0192
17475TIP3    H273841   1.428   1.351  15.146 -0.2016 -1.0612 -1.9178
17476TIP3   OH273842   3.479   2.445  15.117 -0.0742 -0.7028  0.3124
17476TIP3    H173843   3.463   2.535  15.146  2.5673  0.8602 -2.4580
17476TIP3    H273844   3.501   2.398  15.197  0.8007  1.7532  1.6308
17477TIP3   OH273845   5.806   2.919   0.060 -0.0181 -0.3620  0.2023
17477TIP3    H173846   5.894   2.958   0.059  0.0972 -0.6103  0.5713
17477TIP3    H273847   5.764   2.957   0.137 -0.6269  0.6025 -0.5862
17478TIP3   OH273848   2.220   6.315   2.859  0.5674 -0.1301  0.5302
17478TIP3    H173849   2.272   6.395   2.851  0.0699  0.1565  0.1692
17478TIP3    H273850   2.285   6.245   2.867  1.0046  0.2900  0.6874
17479TIP3   OH273851   4.150   2.874   3.660 -0.5392 -0.0094  0.3111
17479TIP3    H173852   4.191   2.928   3.727 -0.8241  0.4473  0.1197
17479TIP3    H273853   4.138   2.933   3.585  0.4153 -0.6819 -0.4000
17480TIP3   OH273854   4.325   1.575   3.395 -0.0172 -0.0712  0.3135
17480TIP3    H173855   4.304   1.659   3.354  1.8357  0.2112 -0.1675
17480TIP3    H273856   4.264   1.568   3.467 -1.1327  1.0343 -0.4758
17481TIP3   OH273857   2.617   4.661   5.122 -0.4273 -0.2127  0.3485
17481TIP3    H173858   2.683   4.635   5.059 -1.8924 -2.1721 -0.4957
17481TIP3    H273859   2.534   4.637   5.081 -1.6055  0.9421  1.9069
17482TIP3   OH273860   5.634   0.943  12.898 -0.3290  0.1777 -0.4854
17482TIP3    H173861   5.649   1.003  12.971 -0.2834 -1.4229  0.8792
17482TIP3    H273862   5.540   0.952  12.880 -0.4703  0.1378  0.1859
17483TIP3   OH273863   5.353   5.093   0.228  0.3356  0.4435  0.7574
17483TIP3    H173864   5.394   5.013   0.260  1.4901  0.9009  0.4575
17483TIP3    H273865   5.407   5.164   0.263  0.6650  1.0033 -0.8111
17484TIP3   OH273866   3.507   0.078  11.710 -0.4900  0.0173  0.2991
17484TIP3    H173867   3.595   0.106  11.736  0.1041  0.0801 -1.6062
17484TIP3    H273868   3.478   0.146  11.649 -1.9130  0.0255  0.9439
17485TIP3   OH273869   1.164   6.358   3.738 -0.4081  0.0632 -0.3732
17485TIP3    H173870   1.243   6.326   3.782 -0.8857  0.4934  0.8328
17485TIP3    H273871   1.138   6.434   3.789 -1.5058  0.0273 -0.8704
17486TIP3   OH273872   4.242   0.958   3.610 -0.0827 -0.3012 -0.2840
17486TIP3    H173873   4.303   1.009   3.664  0.9337  0.7335 -2.2900
17486TIP3    H273874   4.158   1.002   3.621  0.1588  0.0302  0.2761
17487TIP3   OH273875   6.806   0.955  14.163 -0.1360  0.7245  0.1729
17487TIP3    H173876   6.737   1.020  14.175 -0.8097  0.1225 -0.4141
17487TIP3    H273877   6.854   0.956  14.246 -0.7516  1.2527  0.5309
17488TIP3   OH273878   4.230   5.873   3.970  0.9186 -0.2011 -0.0809
17488TIP3    H173879   4.144   5.833   3.983  0.4875  0.9212  0.6780
17488TIP3    H273880   4.212   5.967   3.966  1.8435 -0.0424 -2.1521
17489TIP3   OH273881   1.221   0.892   4.229 -0.2054  0.0225  0.1093
17489TIP3    H173882   1.179   0.809   4.252  1.9515 -1.1173  0.1805
17489TIP3    H273883   1.191   0.910   4.140 -1.2260 -0.4406  0.3365
17490TIP3   OH273884   1.359   2.946   3.971 -0.6701  0.5623 -0.3342
17490TIP3    H173885   1.273   2.908   3.984 -0.0647 -0.3288  1.3452
17490TIP3    H273886   1.413   2.908   4.040  0.1278  4.0713  1.1984
17491TIP3   OH273887   0.016   6.587   2.764 -0.0772  0.0772 -0.3247
17491TIP3    H173888  -0.060   6.610   2.712 -0.1734 -1.1262 -0.7486
17491TIP3    H273889  -0.019   6.570   2.852 -0.3470 -0.7116 -0.5763
17492TIP3   OH273890   2.695   5.929  13.249 -0.3556  0.1120  0.6927
17492TIP3    H173891   2.685   5.875  13.327 -2.1433 -0.5937  0.0145
17492TIP3    H273892   2.629   5.997  13.258  2.1810  2.6039  1.7754
17493TIP3   OH273893   3.568   5.295   3.875 -0.3193  0.0619  0.2639
17493TIP3    H173894   3.650   5.335   3.903  0.2921  0.0845 -1.4839
17493TIP3    H273895   3.540   5.347   3.799 -1.7730 -0.1722  0.5980
17494TIP3   OH273896   5.845   1.854   2.494 -0.2384  0.0646 -0.3334
17494TIP3    H173897   5.927   1.818   2.529  0.3869  0.7385 -1.0504
17494TIP3    H273898   5.792   1.873   2.571 -0.0433 -1.1072  0.1115
17495TIP3   OH273899   5.959   4.604   4.356  0.1996  0.1008  0.7009
17495TIP3    H173900   5.896   4.543   4.395 -1.0998 -0.9333 -2.6916
17495TIP3    H273901   6.039   4.552   4.346  0.7077  0.5204  2.2725
17496TIP3   OH273902   3.345   6.785  14.767  0.6420  0.2217 -0.7179
17496TIP3    H173903   3.374   6.876  14.756 -0.6041  0.7728  0.2471
17496TIP3    H273904   3.328   6.777  14.861 -0.3572 -0.6661 -0.9645
17497TIP3   OH273905   0.239   4.931   2.296  0.0781 -0.0622  0.2966
17497TIP3    H173906   0.194   4.987   2.233 -1.4776 -2.3985 -0.8131
17497TIP3    H273907   0.169   4.888   2.345  1.1765 -1.2306  0.9298
17498TIP3   OH273908   5.422   4.875   5.528 -0.1757  0.5743 -0.1088
17498TIP3    H173909   5.445   4.877   5.621 -1.1506 -0.3585  0.1753
17498TIP3    H273910   5.326   4.870   5.527 -0.2029  1.0399 -1.1763
17499TIP3   OH273911   4.833   2.000   0.035 -0.0436 -0.1098 -0.1644
17499TIP3    H173912   4.764   2.005   0.101 -2.3647 -1.5956 -2.2812
17499TIP3    H273913   4.875   1.915   0.050 -0.8451 -0.6333 -0.7762
17500TIP3   OH273914   1.928   4.938  14.483 -0.4521  0.4221 -0.3377
17500TIP3    H173915   1.851   4.993  14.495 -0.5900 -0.0118  0.9105
17500TIP3    H273916   1.914   4.894  14.400 -0.6960  1.6793 -0.9930
17501TIP3   OH273917   3.984   3.466   1.843  0.0537  0.2258  0.5600
17501TIP3    H173918   3.957   3.493   1.931 -1.9924 -0.8569  0.3192
17501TIP3    H273919   3.937   3.525   1.784 -0.2791 -0.4350  0.1571
17502TIP3   OH273920   5.287   1.570  13.105  0.2112 -0.0906  0.1074
17502TIP3    H173921   5.359   1.518  13.068  1.1173  0.8234  0.5462
17502TIP3    H273922   5.291   1.554  13.199 -2.7324 -3.2320 -0.0766
17503TIP3   OH273923   4.859   0.900   1.694  0.1017 -0.4370 -0.0819
17503TIP3    H173924   4.766   0.906   1.671  0.3744  0.0357 -1.1197
17503TIP3    H273925   4.894   0.835   1.633  0.2007 -1.6726  1.2232
17504TIP3   OH273926   5.625   2.863   2.469 -0.7941  0.6775  0.1282
17504TIP3    H173927   5.558   2.932   2.476 -2.5046 -1.0461  1.8472
17504TIP3    H273928   5.632   2.828   2.557 -1.2829 -2.5146 -0.9963
17505TIP3   OH273929   2.132   2.804  11.615 -0.1116  0.6976  0.3859
17505TIP3    H173930   2.110   2.739  11.682 -1.2503  0.4150 -0.2257
17505TIP3    H273931   2.158   2.752  11.539 -2.6129  0.8229 -0.6532
17506TIP3   OH273932   2.638   7.080  12.902 -0.7028 -0.0481  0.0589
17506TIP3    H173933   2.666   7.119  12.819 -0.7140 -1.1724 -0.4884
17506TIP3    H273934   2.688   7.128  12.969  0.6260 -0.2894 -0.7197
17507TIP3   OH273935   1.160   0.008   3.546 -0.0479  0.0390 -0.3395
17507TIP3    H173936   1.070  -0.022   3.548 -0.0839 -0.0580 -2.2438
17507TIP3    H273937   1.207  -0.054   3.603 -0.7032 -1.6320 -1.5423
17508TIP3   OH273938   0.722   5.458   2.654  1.1362 -0.2693  0.7228
17508TIP3    H173939   0.781   5.522   2.694  2.0318 -0.6316  0.0030
17508TIP3    H273940   0.655   5.512   2.611  0.3545  0.1284  2.3435
17509TIP3   OH273941   5.110   5.554   3.806 -0.2589  0.3942  0.0325
17509TIP3    H173942   5.036   5.564   3.865 -0.3444  0.0427 -0.0107
17509TIP3    H273943   5.105   5.463   3.777  2.3474 -0.8799  2.9768
17510TIP3   OH273944   0.721   6.148  13.340 -0.5655  0.4203 -0.0014
17510TIP3    H173945   0.691   6.199  13.265  0.8448  0.8758 -0.2738
17510TIP3    H273946   0.718   6.057  13.309  1.4571  0.6992 -1.1823
17511TIP3   OH273947   6.450   5.317   2.923 -0.1483  0.0498 -0.2781
17511TIP3    H173948   6.533   5.356   2.951 -0.8646  1.0574  0.5483
17511TIP3    H273949   6.391   5.332   2.997 -1.4861  0.7592 -1.4477
17512TIP3   OH273950   4.884   5.932   5.841 -0.2268  0.0932 -0.1087
17512TIP3    H173951   4.875   6.019   5.881 -2.0174  0.0925 -0.4538
17512TIP3    H273952   4.922   5.878   5.911  2.4532  1.4435 -0.3711
17513TIP3   OH273953   4.341   0.303  15.063  0.1350  0.3756  0.1912
17513TIP3    H173954   4.376   0.361  15.131 -1.6188  0.1593  1.3151
17513TIP3    H273955   4.405   0.232  15.057 -0.3004 -0.2888  2.5789
17514TIP3   OH273956   1.607   1.217   4.046 -0.2868  0.1203  0.3825
17514TIP3    H173957   1.693   1.226   4.086  0.6423 -0.4627 -1.3827
17514TIP3    H273958   1.588   1.304   4.010  0.4178 -0.1879 -0.7943
17515TIP3   OH273959   4.123   5.598   9.975 -0.6513  0.2916  0.2215
17515TIP3    H173960   4.132   5.571  10.067 -0.6147 -1.4632 -0.2711
17515TIP3    H273961   4.204   5.570   9.934 -0.9606  0.4312 -0.4917
17516TIP3   OH273962   3.938   5.392   2.027  0.5772 -0.0333  0.5850
17516TIP3    H173963   3.996   5.446   1.973  0.5131  0.8538  1.3827
17516TIP3    H273964   3.988   5.313   2.044  0.5014 -0.4478 -0.9822
17517TIP3   OH273965   4.546   2.007  13.310  0.0746  0.5342  0.4160
17517TIP3    H173966   4.570   2.006  13.403  0.1142  3.5143  0.5335
17517TIP3    H273967   4.623   2.042  13.266  0.5693 -2.1183 -1.0229
17518TIP3   OH273968   4.063   7.090   0.046 -0.8780 -0.0293 -0.5752
17518TIP3    H173969   4.106   7.121   0.126  0.0950 -2.1159 -0.2134
17518TIP3    H273970   4.037   7.170  -0.000 -0.8212  1.2345  1.4657
17519TIP3   OH273971   5.069   2.539   3.945  0.1567 -0.0975 -0.0474
17519TIP3    H173972   5.075   2.572   3.856  0.7057 -1.0767 -0.3816
17519TIP3    H273973   5.080   2.444   3.937 -1.1830 -0.3683  0.9095
17520TIP3   OH273974   0.149   1.849   1.842  0.4719 -0.2149  0.2746
17520TIP3    H173975   0.137   1.944   1.841 -0.0868 -0.2620  1.1139
17520TIP3    H273976   0.231   1.834   1.796 -0.1045  0.5664 -1.0488
17521TIP3   OH273977   1.028   1.593  14.894  0.3368  0.5456  0.3334
17521TIP3    H173978   0.989   1.610  14.979  1.1179  1.6205  0.4992
17521TIP3    H273979   1.122   1.604  14.908  0.7709 -2.1350 -0.0191
17522TIP3   OH273980   3.432   1.488   4.328 -0.2438 -0.4655 -0.1343
17522TIP3    H173981   3.447   1.394   4.340 -0.4664 -0.2993  1.9221
17522TIP3    H273982   3.337   1.498   4.327 -0.2217 -0.2419 -0.1269
17523TIP3   OH273983   6.153   2.845   5.714  0.4368  0.1443  0.1903
17523TIP3    H173984   6.063   2.843   5.680  0.5553 -0.4242 -0.0964
17523TIP3    H273985   6.185   2.932   5.693 -0.8056  1.1961  2.2759
17524TIP3   OH273986   4.294   6.011   3.484  0.2991 -0.6507  0.1952
17524TIP3    H173987   4.273   5.979   3.396 -1.3623  1.1236 -0.1178
17524TIP3    H273988   4.373   6.063   3.472 -1.8203  2.6081 -1.1071
17525TIP3   OH273989   2.595   1.571   2.316  0.7689 -0.3898  0.1800
17525TIP3    H173990   2.500   1.565   2.328  0.9597 -0.8386  1.6547
17525TIP3    H273991   2.609   1.548   2.224 -0.5650 -0.1428 -0.0963
17526TIP3   OH273992   6.843   0.249  12.881  0.1052  0.0384  0.4579
17526TIP3    H173993   6.824   0.204  12.964 -0.0615 -1.5438 -0.4033
17526TIP3    H273994   6.786   0.325  12.882 -0.6790 -0.5340  1.3256
17527TIP3   OH273995   1.740   1.738   3.329 -0.4630 -0.0374 -0.2656
17527TIP3    H173996   1.825   1.694   3.329 -0.7871 -0.6989  0.9462
17527TIP3    H273997   1.746   1.800   3.256  0.1495 -1.7994 -1.7991
17528TIP3   OH273998   1.689   2.064   0.538 -0.0764 -0.1943  0.9022
17528TIP3    H173999   1.663   2.047   0.629 -2.2777 -1.8337  0.0757
17528TIP3    H274000   1.675   1.980   0.494  0.0559  0.7980 -1.1392
17529TIP3   OH274001   4.935   1.811   3.116 -0.4161 -0.7459 -0.2796
17529TIP3    H174002   4.892   1.811   3.030 -0.1062 -0.4343 -0.4372
17529TIP3    H274003   4.977   1.897   3.121 -0.2818 -0.8352  0.1099
17530TIP3   OH274004   6.655   2.920   3.326  0.1848  1.0178  0.6334
17530TIP3    H174005   6.641   2.838   3.278  1.3878  1.0308  0.2141
17530TIP3    H274006   6.568   2.944   3.359 -0.3594  0.0975 -0.0731
17531TIP3   OH274007   0.081   2.890   4.810 -0.5914  0.3190 -0.5629
17531TIP3    H174008   0.134   2.955   4.857 -0.3664  1.7540 -2.6673
17531TIP3    H274009   0.035   2.940   4.743 -0.1609 -1.7147 -2.5177
17532TIP3   OH274010   2.679   6.579   4.978 -0.2344  0.0587 -0.3113
17532TIP3    H174011   2.619   6.504   4.968 -0.0115 -0.4763  1.8921
17532TIP3    H274012   2.764   6.543   4.953 -0.5892  0.5640 -2.5196
17533TIP3   OH274013   4.973   1.796   3.647  0.2211  0.0041 -0.1196
17533TIP3    H174014   5.034   1.725   3.666  0.9586  0.8318  0.7455
17533TIP3    H274015   4.895   1.775   3.700  0.7487  0.2379  0.7784
17534TIP3   OH274016   4.545   1.969  14.840  0.4392  0.2326 -0.0779
17534TIP3    H174017   4.607   1.977  14.912  1.0201  0.1339 -0.5510
17534TIP3    H274018   4.575   1.891  14.793 -0.5351 -0.2846  0.1452
17535TIP3   OH274019   6.477   6.159   0.445 -0.7884  0.3388  0.5295
17535TIP3    H174020   6.429   6.150   0.527 -2.9475  1.9441 -0.4466
17535TIP3    H274021   6.416   6.128   0.378 -0.0316  1.3536 -0.6801
17536TIP3   OH274022   5.181   6.426  13.850 -0.4540  0.1608 -0.3354
17536TIP3    H174023   5.129   6.464  13.921 -0.5061  0.8371 -0.7204
17536TIP3    H274024   5.149   6.470  13.771  1.7716  1.8384 -0.4143
17537TIP3   OH274025   6.013   6.202  13.451  0.4094 -0.3684  0.0622
17537TIP3    H174026   5.958   6.255  13.392 -0.2687  0.9596  1.8153
17537TIP3    H274027   6.093   6.187  13.401  0.7664  2.5705 -0.4766
17538TIP3   OH274028   0.689   3.490   4.614  0.3785  0.7641 -0.4927
17538TIP3    H174029   0.633   3.414   4.596  0.1045  0.9940 -0.5998
17538TIP3    H274030   0.654   3.527   4.695  0.2990  0.9870 -0.6323
17539TIP3   OH274031   6.810   0.864   3.597 -0.7251 -0.2755 -0.1090
17539TIP3    H174032   6.810   0.909   3.512 -0.3940 -1.6739 -0.8908
17539TIP3    H274033   6.898   0.879   3.632 -0.7930  0.1319 -0.1098
17540TIP3   OH274034   3.112   0.731   3.129  0.0084 -0.1521  0.1004
17540TIP3    H174035   3.174   0.724   3.201 -0.0046 -2.0547 -0.0310
17540TIP3    H274036   3.165   0.756   3.053  0.5805 -1.4556  0.0554
17541TIP3   OH274037   0.954   6.398  15.407 -0.0294  0.4301  0.3499
17541TIP3    H174038   1.021   6.389  15.476 -0.5649  1.4417  1.0275
17541TIP3    H274039   1.005   6.405  15.326  0.6284 -0.2594  0.6797
17542TIP3   OH274040   6.399   5.847   2.846 -0.0097  0.6641 -0.7275
17542TIP3    H174041   6.449   5.768   2.824 -0.0411  0.2161  0.6990
17542TIP3    H274042   6.465   5.911   2.871 -0.0331  0.7559 -0.9058
17543TIP3   OH274043   0.084   0.446   4.719  0.2435 -0.2564 -0.1220
17543TIP3    H174044   0.122   0.528   4.689  1.0089 -0.7495 -0.5228
17543TIP3    H274045   0.151   0.407   4.775 -1.1958  0.7044  2.4260
17544TIP3   OH274046   1.523   4.766   1.403 -0.5216  0.3165  0.0986
17544TIP3    H174047   1.540   4.677   1.371 -1.2037  0.0264  0.5306
17544TIP3    H274048   1.521   4.757   1.498  0.1811  0.9427  0.1837
17545TIP3   OH274049   6.514   4.620   0.386  0.0075  0.0122 -0.3501
17545TIP3    H174050   6.478   4.605   0.473  1.1016  1.7675  0.4519
17545TIP3    H274051   6.470   4.699   0.354  0.8093  0.3414 -0.6828
17546TIP3   OH274052   2.008   5.306   4.805 -0.0555  0.4783 -0.1496
17546TIP3    H174053   1.990   5.251   4.728  0.3952  0.3269 -0.1450
17546TIP3    H274054   1.921   5.338   4.831 -0.3446 -0.3629 -0.0464
17547TIP3   OH274055   1.867   0.056   9.978 -0.3955 -0.2540  0.1511
17547TIP3    H174056   1.934   0.115   9.945 -0.5361  1.0195  1.9641
17547TIP3    H274057   1.912  -0.028   9.990  0.8349  0.5137  1.1166
17548TIP3   OH274058   3.835   7.006  15.483  0.0847 -0.2556  0.2987
17548TIP3    H174059   3.908   6.995  15.421 -0.3013  0.3587 -0.2811
17548TIP3    H274060   3.857   6.949  15.556  0.6746 -0.8127 -0.2994
17549TIP3   OH274061   2.684   2.478   2.868 -0.3954  0.0931 -1.0925
17549TIP3    H174062   2.739   2.531   2.811 -0.1606  0.2946 -0.6888
17549TIP3    H274063   2.661   2.537   2.940 -2.1943  0.4181 -1.8818
17550TIP3   OH274064   2.739   2.446  15.193  0.1770 -0.2644  0.1235
17550TIP3    H174065   2.758   2.417  15.104  0.2385  0.9268 -0.2646
17550TIP3    H274066   2.824   2.464  15.232  0.1699 -1.1052  0.5485
17551TIP3   OH274067   6.232   5.689  12.906 -0.0470 -0.0673  0.6374
17551TIP3    H174068   6.164   5.640  12.861  1.1710 -0.4370 -0.9075
17551TIP3    H274069   6.189   5.769  12.937 -1.6731 -1.3008  1.7370
17552TIP3   OH274070   0.022   5.408   2.659  0.0798 -0.0099 -0.6758
17552TIP3    H174071   0.005   5.488   2.709 -0.9059 -0.9936  0.6235
17552TIP3    H274072  -0.064   5.378   2.630  0.3771 -0.9310 -0.6368
17553TIP3   OH274073   6.277   6.644  14.345 -0.6902  0.7065 -0.6202
17553TIP3    H174074   6.329   6.607  14.416  0.4163 -0.8234 -2.1412
17553TIP3    H274075   6.193   6.665  14.386  0.3191  1.0637  1.3931
17554TIP3   OH274076   3.459   1.503  13.981 -0.1490  0.3660  0.3057
17554TIP3    H174077   3.494   1.529  14.066 -1.1549  0.6246  0.6564
17554TIP3    H274078   3.527   1.449  13.942  0.7641  1.1259  0.8223
17555TIP3   OH274079   4.198   4.691   3.004  0.2457  0.0861  0.4975
17555TIP3    H174080   4.218   4.777   2.966  0.4108  0.2984  1.0515
17555TIP3    H274081   4.109   4.672   2.975 -0.3970  1.1777  1.6479
17556TIP3   OH274082   2.613   3.157   2.928  0.2998 -0.2904 -0.7030
17556TIP3    H174083   2.654   3.207   2.857  1.6752  0.0654  0.3007
17556TIP3    H274084   2.624   3.065   2.902  2.3295 -0.2459 -0.2214
17557TIP3   OH274085   4.925   3.600  15.149  0.1150  0.0419  0.2319
17557TIP3    H174086   4.879   3.601  15.233  0.4709 -0.7335  0.4414
17557TIP3    H274087   4.858   3.574  15.085  0.2815 -1.2171  0.5548
17558TIP3   OH274088   1.560   7.099   5.868  0.3982 -0.3370  0.5309
17558TIP3    H174089   1.532   7.144   5.948 -1.0533  0.3144 -0.3106
17558TIP3    H274090   1.554   7.006   5.891 -1.1041 -0.1843  0.8518
17559TIP3   OH274091   0.787   1.049   0.100  0.1783 -0.1518  0.5322
17559TIP3    H174092   0.712   1.058   0.041  1.4447 -1.6468 -1.4169
17559TIP3    H274093   0.771   1.115   0.168 -2.0423  0.7223 -0.7106
17560TIP3   OH274094   3.152   3.937   2.252  0.8383 -0.1694 -0.2576
17560TIP3    H174095   3.186   3.953   2.164  1.1813  2.6341  0.3066
17560TIP3    H274096   3.195   4.002   2.307 -2.5173  1.0376  1.1950
17561TIP3   OH274097   4.653   6.417   5.383  0.6422  0.1089  0.2695
17561TIP3    H174098   4.748   6.410   5.392  0.7311 -0.1385 -0.7500
17561TIP3    H274099   4.640   6.473   5.307 -0.0028 -1.7036 -1.0064
17562TIP3   OH274100   1.942   3.861   0.123 -0.2128 -0.4588 -0.2446
17562TIP3    H174101   2.024   3.813   0.112 -0.2962 -0.5254 -0.6105
17562TIP3    H274102   1.918   3.849   0.214  0.4790  0.0266  0.0093
17563TIP3   OH274103   3.798   6.264   3.023  0.7122  0.5407 -0.2208
17563TIP3    H174104   3.827   6.177   3.050  0.3124  0.5790  0.3413
17563TIP3    H274105   3.720   6.281   3.076 -0.0702  0.6388 -1.3482
17564TIP3   OH274106   5.994   0.228   0.568  0.0562  0.1677 -0.3410
17564TIP3    H174107   5.907   0.250   0.603 -0.0598  0.3270 -0.7267
17564TIP3    H274108   6.034   0.176   0.637 -0.3521  0.0816 -0.1615
17565TIP3   OH274109   5.422   2.755   4.128  0.1301  0.2268  0.5684
17565TIP3    H174110   5.341   2.795   4.096  0.1053  0.1761  0.5680
17565TIP3    H274111   5.470   2.828   4.167  0.3991  0.3906 -0.0533
17566TIP3   OH274112   0.613   0.917  14.929  0.4166  0.2560 -0.5128
17566TIP3    H174113   0.627   0.966  14.848 -0.4051  0.2660 -0.6560
17566TIP3    H274114   0.676   0.845  14.925  1.2153  0.9450 -0.5849
17567TIP3   OH274115   2.905   5.854   0.920  0.1921 -0.1048 -0.1641
17567TIP3    H174116   2.827   5.822   0.875 -0.4760 -0.9320  1.5040
17567TIP3    H274117   2.888   5.947   0.935  0.5221  0.2399 -1.7392
17568TIP3   OH274118   2.217   5.647  13.568  0.2028 -0.3816  0.2773
17568TIP3    H174119   2.299   5.652  13.519 -0.3414  0.1699 -0.5954
17568TIP3    H274120   2.240   5.677  13.656  1.2094 -1.4818  0.4110
17569TIP3   OH274121   0.752   6.689   2.986 -0.0875  0.5451  0.5240
17569TIP3    H174122   0.741   6.595   2.970  0.0466  0.6516 -0.1951
17569TIP3    H274123   0.752   6.729   2.899 -1.4428  1.3610  0.8673
17570TIP3   OH274124   7.002   6.014   3.174  0.4926  0.0666  0.1928
17570TIP3    H174125   6.949   5.944   3.137  0.4548 -2.3352  4.1698
17570TIP3    H274126   7.080   5.969   3.208  1.7078  2.3805  0.6546
17571TIP3   OH274127   1.397   5.574   6.072 -0.3370 -0.2729  0.3297
17571TIP3    H174128   1.407   5.541   6.161 -0.5838 -0.4986  0.2740
17571TIP3    H274129   1.359   5.501   6.023  0.4818 -0.4035 -0.1267
17572TIP3   OH274130   3.887   1.375   5.509 -0.3017 -0.5470 -0.2915
17572TIP3    H174131   3.825   1.409   5.445  0.5772  1.2404 -0.2532
17572TIP3    H274132   3.855   1.408   5.593 -0.5026 -1.4717  0.0107
17573TIP3   OH274133   6.546   4.004   2.519 -0.4170 -0.2634 -0.7336
17573TIP3    H174134   6.596   4.082   2.543 -0.5241 -0.6960  1.0549
17573TIP3    H274135   6.500   4.028   2.439 -1.7183  2.0929  0.6348
17574TIP3   OH274136   4.700   6.977   5.201  0.4220  0.0430 -0.7264
17574TIP3    H174137   4.752   6.973   5.282 -0.3450 -1.3297 -0.2680
17574TIP3    H274138   4.725   6.898   5.153 -1.5465 -0.9086 -0.2743
17575TIP3   OH274139   4.771   6.722   2.729 -0.9744  0.2097  0.1362
17575TIP3    H174140   4.811   6.749   2.645  0.5692 -0.0014  0.7607
17575TIP3    H274141   4.724   6.799   2.759 -1.0458  0.4808 -0.6347
17576TIP3   OH274142   5.297   0.666  13.153  0.3740 -0.6464  0.2317
17576TIP3    H174143   5.211   0.678  13.195  1.0857  0.2202  1.5080
17576TIP3    H274144   5.333   0.755  13.146  0.9968 -0.9540 -0.7087
17577TIP3   OH274145   3.263   0.329   4.238 -0.3132 -0.3058  0.0465
17577TIP3    H174146   3.271   0.234   4.228  0.5922 -0.2650  0.2654
17577TIP3    H274147   3.271   0.344   4.332 -0.5336 -0.0164  0.0213
17578TIP3   OH274148   4.669   4.684   3.287 -0.0740 -0.5259  0.5247
17578TIP3    H174149   4.746   4.719   3.242 -0.2107  0.1339  0.7942
17578TIP3    H274150   4.668   4.591   3.264  0.3709 -0.3845 -0.0939
17579TIP3   OH274151   2.030   7.056   1.651  0.6852 -0.4694 -0.1748
17579TIP3    H174152   2.048   7.134   1.703  1.2989  0.4265 -1.6713
17579TIP3    H274153   1.935   7.043   1.660  0.6388  0.1907  0.4250
17580TIP3   OH274154   5.631   0.387   4.314 -0.1113 -0.6238 -0.3587
17580TIP3    H174155   5.639   0.381   4.218 -1.4146 -1.2247 -0.4448
17580TIP3    H274156   5.538   0.380   4.331 -0.1145  1.5549  0.8466
17581TIP3   OH274157   0.177   5.585   1.467 -0.2099  0.4963  0.4522
17581TIP3    H174158   0.193   5.673   1.433  0.6830  0.3801  0.5621
17581TIP3    H274159   0.254   5.535   1.443 -1.7537 -0.9621 -1.8062
17582TIP3   OH274160   4.470   5.799   0.922 -0.2398 -0.5430  0.0642
17582TIP3    H174161   4.496   5.720   0.969 -1.7992  0.0090  2.0325
17582TIP3    H274162   4.407   5.769   0.856 -0.8277 -0.9848  0.8014
17583TIP3   OH274163   1.536   5.315   5.444 -0.2310  0.8276  0.2141
17583TIP3    H174164   1.474   5.360   5.500 -0.8825  1.0033 -0.6286
17583TIP3    H274165   1.622   5.342   5.476 -0.5924  2.9106 -0.4377
17584TIP3   OH274166   0.297   5.165   4.041 -0.2015 -0.9203 -0.1458
17584TIP3    H174167   0.370   5.103   4.038  0.6655  0.0796 -0.2649
17584TIP3    H274168   0.306   5.216   3.961 -0.5223 -0.2303  0.2474
17585TIP3   OH274169   4.840   7.101   4.980  0.0519 -0.4106 -0.3904
17585TIP3    H174170   4.914   7.044   4.959 -0.3961 -1.0583 -0.2853
17585TIP3    H274171   4.805   7.064   5.061 -1.0129 -0.7655 -0.9923
17586TIP3   OH274172   4.777   2.219   4.280 -0.3488 -0.8594  0.5608
17586TIP3    H174173   4.851   2.160   4.268 -0.3436 -0.6965 -0.2237
17586TIP3    H274174   4.815   2.298   4.317  0.3020  0.1884 -2.1191
17587TIP3   OH274175   0.329   1.426   4.363 -0.1047  0.1970 -0.4676
17587TIP3    H174176   0.399   1.488   4.342 -0.5970  0.9262  0.0085
17587TIP3    H274177   0.361   1.379   4.440 -0.1278  0.5075 -0.2682
17588TIP3   OH274178   6.720   5.380   5.109  0.4635  0.0788 -0.1453
17588TIP3    H174179   6.797   5.434   5.129 -0.3626  1.7057 -1.1581
17588TIP3    H274180   6.667   5.385   5.189  1.6193 -1.5253  0.7757
17589TIP3   OH274181   1.592   3.812   1.462 -0.8494 -0.3727  1.3502
17589TIP3    H174182   1.635   3.854   1.536 -0.9248 -3.1006  3.0464
17589TIP3    H274183   1.506   3.786   1.496 -0.7398 -2.0044  0.4449
17590TIP3   OH274184   2.229   4.807   3.987 -0.4664 -0.1910 -0.3997
17590TIP3    H174185   2.258   4.737   4.046 -0.1595 -0.7988 -1.2450
17590TIP3    H274186   2.134   4.809   3.998 -0.5576 -1.1857 -0.8072
17591TIP3   OH274187   6.960   1.334   2.719  0.7573 -0.0198 -0.1478
17591TIP3    H174188   7.034   1.274   2.736 -0.8507 -1.9145  0.5533
17591TIP3    H274189   6.924   1.304   2.636 -0.0818 -0.0662  0.2232
17592TIP3   OH274190   3.517   2.046   2.402  0.1269 -0.3561  0.3099
17592TIP3    H174191   3.471   1.991   2.339 -0.8525 -0.5080  1.1087
17592TIP3    H274192   3.569   2.107   2.349 -1.5086  0.2433 -0.6860
17593TIP3   OH274193   3.798   2.159   4.091  0.1308  0.2534  0.0118
17593TIP3    H174194   3.830   2.097   4.025 -3.4603 -1.3407 -0.5175
17593TIP3    H274195   3.837   2.129   4.173  1.6603 -0.1324 -0.8141
17594TIP3   OH274196   0.112   5.783   2.910 -0.0802 -0.0981 -0.1399
17594TIP3    H174197   0.101   5.872   2.877  1.1861  0.0278 -0.2996
17594TIP3    H274198   0.066   5.728   2.847 -0.7843  0.4344 -0.0961
17595TIP3   OH274199   1.805   4.125   2.459  0.0875 -0.2986 -0.0055
17595TIP3    H174200   1.751   4.204   2.466 -0.4769 -0.8355  2.9823
17595TIP3    H274201   1.857   4.138   2.379 -1.0116  2.4068 -0.3760
17596TIP3   OH274202   1.838   3.949   3.688  0.1509  0.0630  0.3219
17596TIP3    H174203   1.905   3.966   3.622 -0.1325 -1.6611 -0.4669
17596TIP3    H274204   1.812   3.859   3.673 -1.2606  0.2118  1.6154
17597TIP3   OH274205   2.944   2.591   3.101 -0.0171 -0.1208  0.0950
17597TIP3    H174206   2.944   2.498   3.076 -1.4369  0.3373 -1.7722
17597TIP3    H274207   2.998   2.634   3.035  1.4292  0.3084  1.4928
17598TIP3   OH274208   4.569   4.568   5.013 -0.8990  0.2247  0.8275
17598TIP3    H174209   4.599   4.486   5.053 -1.5848 -0.2970  0.3060
17598TIP3    H274210   4.503   4.540   4.949 -0.1689  1.0720 -0.3266
17599TIP3   OH274211   2.888   6.106   5.542 -0.4095 -0.2499  0.0487
17599TIP3    H174212   2.823   6.038   5.561  0.4765 -0.9296  0.7405
17599TIP3    H274213   2.875   6.172   5.610  0.7363 -1.2112  1.2334
17600TIP3   OH274214   1.737   2.369   3.285  0.5005 -0.8878  0.3058
17600TIP3    H174215   1.741   2.285   3.331 -1.2016 -1.3610 -0.3497
17600TIP3    H274216   1.742   2.345   3.192 -1.7947 -0.4680  0.0219
17601TIP3   OH274217   3.603   3.495   1.512  0.2009  0.1695  0.3346
17601TIP3    H174218   3.619   3.578   1.467  1.3224  0.1268  0.6263
17601TIP3    H274219   3.538   3.516   1.579 -1.5838  0.2160 -1.3094
17602TIP3   OH274220   4.738   4.010   0.441 -0.3294 -0.2160  0.1528
17602TIP3    H174221   4.744   4.101   0.410 -0.6858 -0.5110 -0.7906
17602TIP3    H274222   4.702   3.961   0.367  1.0253 -1.3614  0.2213
17603TIP3   OH274223   2.891   7.095   0.850 -0.1310  0.0804 -0.3463
17603TIP3    H174224   2.820   7.145   0.810 -0.6748 -0.3758  0.0294
17603TIP3    H274225   2.856   7.006   0.858  0.5540 -0.1957 -0.3310
17604TIP3   OH274226   1.059   5.941   5.330  0.0335  0.2509 -0.2192
17604TIP3    H174227   1.149   5.913   5.345  0.1120  0.1963 -0.7637
17604TIP3    H274228   1.005   5.877   5.375  0.1684 -1.3328 -2.1878
17605TIP3   OH274229   5.886   2.731  14.193  0.6560  0.0646  0.1857
17605TIP3    H174230   5.903   2.637  14.189 -1.9392 -0.4554 -2.3967
17605TIP3    H274231   5.940   2.768  14.123  1.8689  0.5994  1.3654
17606TIP3   OH274232   0.023   5.295   1.875 -0.1274 -0.2015 -0.1881
17606TIP3    H174233   0.118   5.301   1.865 -0.1133 -0.0811  0.0137
17606TIP3    H274234  -0.013   5.343   1.801 -0.0294  1.9626  1.1019
17607TIP3   OH274235   4.863   4.637   3.632  0.0128  0.4341  0.1135
17607TIP3    H174236   4.957   4.655   3.630 -0.1537  1.2589 -0.5354
17607TIP3    H274237   4.854   4.567   3.697  1.0885  0.2376  0.0718
17608TIP3   OH274238   5.754   6.680   2.581  0.3041  0.1004 -0.0562
17608TIP3    H174239   5.846   6.682   2.606 -0.3094 -0.0550  2.4186
17608TIP3    H274240   5.722   6.769   2.599  0.0432  0.3240 -1.4429
17609TIP3   OH274241   6.721   2.107   2.499  0.4244  0.2420  0.6060
17609TIP3    H174242   6.634   2.131   2.468  0.4464  1.0762  1.1711
17609TIP3    H274243   6.706   2.064   2.583  0.5284  0.0253  0.5144
17610TIP3   OH274244   5.100   5.414   1.492 -0.2887 -0.7075 -0.1503
17610TIP3    H174245   5.180   5.457   1.520 -1.2721  0.5871  0.7652
17610TIP3    H274246   5.029   5.468   1.528 -1.5765 -1.8938 -0.8030
17611TIP3   OH274247   2.196   0.579   1.943 -0.3143 -0.1527 -0.1045
17611TIP3    H174248   2.171   0.511   2.006  0.5959 -1.1806 -0.8052
17611TIP3    H274249   2.262   0.631   1.989 -0.5845 -0.1022  0.2310
17612TIP3   OH274250   7.043   4.239  15.134 -0.6094  0.2373  0.3769
17612TIP3    H174251   7.060   4.330  15.108 -1.8104  0.6259  0.8626
17612TIP3    H274252   7.008   4.246  15.223 -0.8359 -0.6959  0.3722
17613TIP3   OH274253   2.578   3.038  13.339  0.0446 -0.5452  0.4639
17613TIP3    H174254   2.615   2.959  13.301 -3.1770 -1.8696 -0.2473
17613TIP3    H274255   2.541   3.009  13.423  2.0262  1.1050  2.0253
17614TIP3   OH274256   5.988   4.234  13.753 -0.6914  0.3463 -0.3275
17614TIP3    H174257   5.974   4.324  13.782 -1.7855  0.6056 -1.5519
17614TIP3    H274258   6.055   4.241  13.684 -0.6859  0.2127 -0.3370
17615TIP3   OH274259   2.851   3.080   2.139  0.4096  0.2122  0.3780
17615TIP3    H174260   2.855   3.116   2.228 -0.6696 -0.7725  0.8474
17615TIP3    H274261   2.831   2.987   2.151 -1.9773  0.4574 -0.9203
17616TIP3   OH274262   5.657   1.772  11.672 -0.5708 -0.2298 -0.2736
17616TIP3    H174263   5.679   1.771  11.765  1.5300 -1.7242 -0.7100
17616TIP3    H274264   5.652   1.679  11.648  0.4194  0.1155 -1.9434
17617TIP3   OH274265   3.985   1.716  13.579 -0.1600  0.5622  0.3278
17617TIP3    H174266   4.025   1.666  13.651 -0.4373 -2.3313 -1.3594
17617TIP3    H274267   4.056   1.771  13.547  0.6695  0.1157  1.3014
17618TIP3   OH274268   0.059   3.737   5.277  0.5731 -0.3148 -0.3598
17618TIP3    H174269   0.000   3.671   5.240 -0.0479  0.5329 -0.9001
17618TIP3    H274270   0.115   3.687   5.338  0.0976 -1.3279 -0.7301
17619TIP3   OH274271   1.030   3.072   4.198  0.0019 -0.0708 -0.9243
17619TIP3    H174272   1.053   3.160   4.228 -1.1423 -0.2935  0.7584
17619TIP3    H274273   0.945   3.083   4.155 -1.4399 -0.6820  1.6032
17620TIP3   OH274274   2.710   3.054   2.565  0.2286 -0.3181 -0.1639
17620TIP3    H174275   2.619   3.056   2.596 -0.0166 -2.2544 -0.5983
17620TIP3    H274276   2.717   3.130   2.507 -0.5018  1.0009  1.3943
17621TIP3   OH274277   2.201   5.914   4.642 -0.1396  0.3398  0.0340
17621TIP3    H174278   2.121   5.881   4.601 -0.9634 -0.5559  2.2177
17621TIP3    H274279   2.175   5.936   4.731  2.3369 -1.3717  1.2844
17622TIP3   OH274280   4.265   3.255   4.533 -0.0858 -0.1355 -0.0753
17622TIP3    H174281   4.300   3.291   4.451 -1.3508 -1.2003 -1.1241
17622TIP3    H274282   4.324   3.183   4.554 -1.0147 -1.3129 -1.3191
17623TIP3   OH274283   3.615   4.024   5.402  0.0984  0.4287 -0.1007
17623TIP3    H174284   3.586   4.031   5.311 -1.5775 -2.3731  0.0987
17623TIP3    H274285   3.551   4.075   5.452 -3.1486 -3.2581  0.0115
17624TIP3   OH274286   7.043   1.905   1.659  0.0734  0.0703 -0.3009
17624TIP3    H174287   7.019   1.994   1.683  0.6013  0.7654 -2.1775
17624TIP3    H274288   7.120   1.886   1.712 -0.2418  0.5924  0.3591
17625TIP3   OH274289   2.129   2.300   3.406 -0.1742 -0.4588  0.3776
17625TIP3    H174290   2.173   2.273   3.325 -0.7207 -2.4989  0.6880
17625TIP3    H274291   2.102   2.390   3.390 -0.0423 -0.7229 -1.6292
17626TIP3   OH274292   4.663   4.137   4.859 -0.1282 -0.6995 -0.3824
17626TIP3    H174293   4.590   4.190   4.893 -0.8683 -0.9147 -1.5870
17626TIP3    H274294   4.732   4.147   4.925 -1.1427 -0.2688  0.6583
17627TIP3   OH274295   5.406   2.698   0.182  0.5876 -0.0241  0.0604
17627TIP3    H174296   5.319   2.728   0.208  1.0581  0.3374  1.2938
17627TIP3    H274297   5.418   2.730   0.093 -0.1070  0.8784  0.2849
17628TIP3   OH274298   2.218   0.900  15.626 -0.6313 -0.0383  0.1938
17628TIP3    H174299   2.304   0.868  15.600 -0.6497 -1.0000  1.1980
17628TIP3    H274300   2.156   0.843  15.581 -0.6969 -0.4881  0.8403
17629TIP3   OH274301   6.757   0.864   4.998  0.1027  0.4735  0.5445
17629TIP3    H174302   6.669   0.884   4.967 -0.2534 -2.6268 -0.8475
17629TIP3    H274303   6.746   0.784   5.050  2.2947 -1.4165 -1.6350
17630TIP3   OH274304   0.669   2.630   3.409 -0.3572 -0.6682 -0.1320
17630TIP3    H174305   0.623   2.714   3.399  0.9837  0.1164  0.0649
17630TIP3    H274306   0.651   2.583   3.328 -1.2896 -0.2828 -0.1678
17631TIP3   OH274307   6.980   5.109   5.644 -0.1058 -0.2708  0.1276
17631TIP3    H174308   7.053   5.072   5.693  0.4152  1.6750  0.8819
17631TIP3    H274309   6.930   5.159   5.708 -0.9136  0.1632 -0.8085
17632TIP3   OH274310   6.020   6.120  15.213  0.6778 -0.0789 -0.0726
17632TIP3    H174311   6.108   6.147  15.185  1.0838 -0.3339  0.9029
17632TIP3    H274312   5.996   6.184  15.280  2.0116 -2.4697  2.9008
17633TIP3   OH274313   6.956   2.272   3.514  0.3394 -0.7031 -0.3901
17633TIP3    H174314   6.916   2.320   3.587  1.2145  1.7414 -1.4039
17633TIP3    H274315   6.917   2.184   3.518 -0.4322 -0.3252  2.3362
17634TIP3   OH274316   4.418   4.084   3.576  0.2345 -0.1347  0.2374
17634TIP3    H174317   4.357   4.011   3.584  0.7042 -0.6306 -0.6232
17634TIP3    H274318   4.411   4.111   3.484 -0.8521  1.7201  0.8084
17635TIP3   OH274319   3.508   3.576   2.857  0.4960  0.4504  0.2349
17635TIP3    H174320   3.414   3.561   2.842 -0.0235  1.2352  2.3523
17635TIP3    H274321   3.548   3.491   2.843 -0.8520 -0.4152  1.3928
17636TIP3   OH274322   3.792   4.851  15.622  0.3377 -0.2733  0.5281
17636TIP3    H174323   3.803   4.845  15.717  1.2592  0.0625  0.4451
17636TIP3    H274324   3.795   4.944  15.603 -0.7704 -0.2735  0.2599
17637TIP3   OH274325   3.068   3.630   3.721 -0.2626 -0.1419 -0.0781
17637TIP3    H174326   3.112   3.683   3.788  0.4096 -1.3539  0.4656
17637TIP3    H274327   3.096   3.540   3.739 -2.9022 -0.9878  0.2573
17638TIP3   OH274328   0.469   0.924   2.716 -0.5278 -0.4490 -0.0624
17638TIP3    H174329   0.404   0.872   2.764 -0.1065 -0.3823  0.5949
17638TIP3    H274330   0.495   0.992   2.778 -0.1211 -0.2381 -0.4622
17639TIP3   OH274331   5.233   0.919   0.542  0.7808 -0.6342 -0.0534
17639TIP3    H174332   5.203   0.830   0.562  0.7457 -0.5741  0.1687
17639TIP3    H274333   5.174   0.975   0.593 -0.9497 -0.3437 -2.2029
17640TIP3   OH274334   1.394   5.697   2.633  0.0907  0.4341 -0.3246
17640TIP3    H174335   1.375   5.607   2.658 -0.4798  0.4383 -0.7153
17640TIP3    H274336   1.309   5.733   2.607 -0.0068  1.5971  1.4097
17641TIP3   OH274337   2.113   2.227   2.255  0.1172  0.1026  0.4727
17641TIP3    H174338   2.209   2.221   2.249 -0.0165 -2.0235 -0.3457
17641TIP3    H274339   2.092   2.306   2.204  1.4640  1.2065  1.5257
17642TIP3   OH274340   6.576   3.841  14.476 -0.3200 -0.0488 -0.2456
17642TIP3    H174341   6.621   3.924  14.492  0.9178 -0.8281  0.5003
17642TIP3    H274342   6.515   3.859  14.404 -0.4711  1.6309  0.2672
17643TIP3   OH274343   6.009   3.732   5.326 -0.6452  0.2360 -0.0557
17643TIP3    H174344   5.988   3.705   5.415  0.9292 -1.6654 -0.1739
17643TIP3    H274345   6.053   3.816   5.335 -0.8173  0.2204  0.9417
17644TIP3   OH274346   0.270   4.474   2.633 -0.1812  0.0953  0.5531
17644TIP3    H174347   0.365   4.471   2.629 -0.1500  1.4484 -0.7435
17644TIP3    H274348   0.244   4.393   2.677  1.5751 -0.1097  1.2553
17645TIP3   OH274349   2.305   0.355   0.179 -0.1747  0.1099 -0.0299
17645TIP3    H174350   2.227   0.366   0.234 -0.5848 -0.0541 -0.5617
17645TIP3    H274351   2.376   0.337   0.240 -0.5996  0.0488  0.4528
17646TIP3   OH274352   4.724   6.371   3.052  0.0116 -0.1713  0.4559
17646TIP3    H174353   4.763   6.428   3.119 -0.3148  0.1731  0.3592
17646TIP3    H274354   4.697   6.293   3.100  1.8151 -0.9084  0.3437
17647TIP3   OH274355   1.632   1.064  14.849 -0.1188  0.3578  0.1679
17647TIP3    H174356   1.571   1.126  14.890  3.2565  1.5279  4.1442
17647TIP3    H274357   1.688   1.118  14.794 -1.0392 -0.3499 -1.5587
17648TIP3   OH274358   2.358   2.239   0.809  0.0948  0.0506 -0.5481
17648TIP3    H174359   2.382   2.255   0.718  0.1070 -1.4351 -0.8397
17648TIP3    H274360   2.358   2.325   0.850 -2.1796  1.0693 -2.4645
17649TIP3   OH274361   6.519   3.435  15.269  0.1894  0.4314 -0.0023
17649TIP3    H174362   6.447   3.448  15.208 -0.6249  0.2783  0.9112
17649TIP3    H274363   6.587   3.392  15.217 -1.0540 -1.0788 -0.4625
17650TIP3   OH274364   7.051   6.712   5.164 -0.5791  0.9804  0.5003
17650TIP3    H174365   6.975   6.752   5.123 -0.8870  1.4612  1.4900
17650TIP3    H274366   7.087   6.653   5.098  0.5689  3.6965 -1.4333
17651TIP3   OH274367   2.045   3.145   5.821  0.0676  0.7222 -0.4463
17651TIP3    H174368   2.054   3.109   5.909 -1.4944 -0.4807 -0.7171
17651TIP3    H274369   2.109   3.096   5.769  1.2368  1.6758  0.0505
17652TIP3   OH274370   4.763   5.429   2.769  0.2756  0.2439 -0.1832
17652TIP3    H174371   4.756   5.479   2.687 -1.1143 -3.5852 -2.6799
17652TIP3    H274372   4.807   5.348   2.744  0.5583 -0.7504  3.0975
17653TIP3   OH274373   0.782   3.124   4.083 -0.0351  0.3043  0.2444
17653TIP3    H174374   0.775   3.030   4.099 -0.6145  0.6237  2.0862
17653TIP3    H274375   0.716   3.141   4.015  1.5010 -0.8941 -1.6439
17654TIP3   OH274376   1.688   5.325   3.211 -0.1075 -0.4698 -0.4058
17654TIP3    H174377   1.603   5.300   3.248 -0.4292  0.7118 -0.3186
17654TIP3    H274378   1.748   5.256   3.240 -1.0699 -1.4200 -0.6326
17655TIP3   OH274379   2.849   5.447  14.244 -0.0175  0.0308  0.2107
17655TIP3    H174380   2.918   5.469  14.182 -0.8080 -0.2953 -0.8184
17655TIP3    H274381   2.861   5.508  14.317  0.5989  0.7939 -0.5106
17656TIP3   OH274382   6.525   0.054   2.214 -0.5160  0.1422 -0.3406
17656TIP3    H174383   6.585   0.099   2.154  1.2859 -1.6859 -0.0380
17656TIP3    H274384   6.473  -0.003   2.158  1.6616 -2.1063 -0.2474
17657TIP3   OH274385   2.811   0.435  11.228 -0.4403 -0.0865 -0.2175
17657TIP3    H174386   2.806   0.512  11.172  0.1720  0.2510  0.1763
17657TIP3    H274387   2.899   0.400  11.213 -0.6944 -0.6732 -0.3492
17658TIP3   OH274388   1.658   6.709  13.808 -0.0689  0.3344 -0.0779
17658TIP3    H174389   1.749   6.738  13.820  0.0650  0.0057 -0.2805
17658TIP3    H274390   1.665   6.614  13.797 -0.3675  0.3857 -0.7546
17659TIP3   OH274391   1.640   4.608   5.155 -0.2636  0.0929  0.0694
17659TIP3    H174392   1.616   4.525   5.198 -1.5331  0.5569  0.2952
17659TIP3    H274393   1.684   4.658   5.224 -2.8633  1.0948  1.1449
17660TIP3   OH274394   0.646   1.516   5.745  0.4255 -0.3471  0.1301
17660TIP3    H174395   0.671   1.431   5.709  0.5300 -0.6433  0.8876
17660TIP3    H274396   0.551   1.520   5.732  0.1660 -1.2855  1.5319
17661TIP3   OH274397   1.523   2.671  13.295 -0.0742 -0.0445  0.2281
17661TIP3    H174398   1.560   2.716  13.371  0.0064 -0.0609  0.1978
17661TIP3    H274399   1.597   2.656  13.238 -0.1954  0.3013 -0.0224
17662TIP3   OH274400   6.518   0.593   2.259  0.1616 -0.3851  0.2252
17662TIP3    H174401   6.543   0.647   2.185  0.6675  0.1921  0.8027
17662TIP3    H274402   6.564   0.510   2.246 -0.9039 -0.8288 -0.8530
17663TIP3   OH274403   3.838   2.119   2.561 -0.4103  0.7650  0.1568
17663TIP3    H174404   3.837   2.079   2.474 -0.6431  0.5000  0.2765
17663TIP3    H274405   3.905   2.186   2.557 -1.1113  1.4367 -0.5354
17664TIP3   OH274406   1.886   0.324  15.224 -0.0417 -0.8309 -0.0662
17664TIP3    H174407   1.926   0.330  15.136 -0.2429 -1.3361 -0.1940
17664TIP3    H274408   1.956   0.290  15.279  0.5720  0.9478  0.3031
17665TIP3   OH274409   0.583   5.626   2.273 -0.0476 -0.3104 -0.7105
17665TIP3    H174410   0.588   5.531   2.264  3.3286 -0.1431 -2.5998
17665TIP3    H274411   0.589   5.642   2.368  3.8641 -2.0599 -0.4739
17666TIP3   OH274412   0.604   5.220   3.221  0.0494 -0.1350  0.2711
17666TIP3    H174413   0.573   5.303   3.186  1.7985 -0.0869 -1.3452
17666TIP3    H274414   0.557   5.209   3.304  0.5010  2.9301  1.0403
17667TIP3   OH274415   5.289   3.143   4.466  0.3766  0.3442 -0.0557
17667TIP3    H174416   5.283   3.162   4.373 -2.5647 -0.3457 -0.0951
17667TIP3    H274417   5.270   3.227   4.509  2.9779  0.9757  0.0321
17668TIP3   OH274418   1.708   5.891   5.214  0.0806  0.2086  0.0238
17668TIP3    H174419   1.674   5.935   5.292  0.6599  0.0365  0.3785
17668TIP3    H274420   1.650   5.920   5.143 -1.2213 -0.6072  0.7154
17669TIP3   OH274421   3.996   4.720   2.623  0.0693  0.2127  0.1766
17669TIP3    H174422   4.081   4.722   2.579 -0.6980  0.3716 -1.3685
17669TIP3    H274423   3.940   4.777   2.570 -1.5353 -1.4676 -0.0390
17670TIP3   OH274424   1.584   0.988   3.672  0.1037 -0.5481  0.3040
17670TIP3    H174425   1.510   1.021   3.723 -0.2796  0.3979 -0.8184
17670TIP3    H274426   1.557   1.000   3.581  1.8050  0.2044 -0.1347
17671TIP3   OH274427   3.875   2.911   0.028 -0.2992 -0.4349  0.1498
17671TIP3    H174428   3.847   3.002   0.028 -2.5315 -1.0488 -0.4975
17671TIP3    H274429   3.940   2.906  -0.043 -0.8286  0.4864 -0.4206
17672TIP3   OH274430   3.389   2.368   2.341 -0.0799 -0.1576 -0.1120
17672TIP3    H174431   3.399   2.285   2.295  0.2042 -1.0901  1.5352
17672TIP3    H274432   3.459   2.367   2.407  0.5933  1.8755 -0.7076
17673TIP3   OH274433   0.384   3.177   1.558  0.1319  0.1965  0.2266
17673TIP3    H174434   0.423   3.151   1.641  0.5047 -1.2662 -0.3862
17673TIP3    H274435   0.380   3.273   1.562  1.4625  0.2237  1.3229
17674TIP3   OH274436   5.205   3.398   5.462 -0.6217  0.7177 -0.2929
17674TIP3    H174437   5.196   3.329   5.528  0.6173  0.9212  0.1243
17674TIP3    H274438   5.137   3.462   5.484 -0.8818  0.2930  0.1572
17675TIP3   OH274439   0.939   0.843   0.564 -0.2147 -0.6610  0.3454
17675TIP3    H174440   0.962   0.765   0.514  0.2108 -1.3850  1.6371
17675TIP3    H274441   0.916   0.908   0.498  0.2929 -1.5999 -0.7800
17676TIP3   OH274442   0.223   5.892  13.666 -0.9598  0.7199 -0.3816
17676TIP3    H174443   0.299   5.870  13.720 -0.7606 -0.0500 -0.9610
17676TIP3    H274444   0.260   5.922  13.583 -1.2760  1.2960 -0.3219
17677TIP3   OH274445   5.292   2.763   3.260 -0.1395  0.4555 -0.0984
17677TIP3    H174446   5.202   2.758   3.290 -0.3564 -0.9840 -0.9242
17677TIP3    H274447   5.286   2.801   3.172  0.1341  0.9655  0.0955
17678TIP3   OH274448   1.982   6.535   1.874  0.9522  0.4328  0.1794
17678TIP3    H174449   2.051   6.491   1.924  1.5219  0.4653 -0.5702
17678TIP3    H274450   2.026   6.610   1.834 -0.2025  2.3016  2.2112
17679TIP3   OH274451   6.952   5.504  14.741  0.3125 -0.0220 -0.3084
17679TIP3    H174452   7.016   5.433  14.743 -0.4714 -0.7381  0.9571
17679TIP3    H274453   6.988   5.571  14.798 -0.0214 -0.4097  0.3755
17680TIP3   OH274454   4.358   1.665   5.265 -0.0694  0.3869 -0.3424
17680TIP3    H174455   4.430   1.651   5.204 -0.5345  0.7057 -0.9729
17680TIP3    H274456   4.295   1.718   5.217 -0.0223  1.4762  0.7258
17681TIP3   OH274457   1.784   1.177   3.620 -0.0735 -0.5272 -0.4193
17681TIP3    H174458   1.781   1.183   3.524 -0.3457 -2.4541 -0.5646
17681TIP3    H274459   1.709   1.122   3.642  1.9645 -3.0803  0.5799
17682TIP3   OH274460   1.912   6.456   5.826 -0.0546 -0.0536 -0.4309
17682TIP3    H174461   2.006   6.474   5.829 -0.0331 -0.3012  1.1853
17682TIP3    H274462   1.888   6.470   5.734  1.4876  0.3352 -0.8051
17683TIP3   OH274463   3.935   2.288  15.363 -0.2454 -0.4051 -0.0964
17683TIP3    H174464   4.030   2.277  15.356  0.0358  0.3946  1.7968
17683TIP3    H274465   3.907   2.311  15.275  1.5643  0.9011 -0.3883
17684TIP3   OH274466   0.440   1.379  12.900 -0.1922 -0.8303 -0.3806
17684TIP3    H174467   0.451   1.393  12.806  0.7611  2.0912  0.0712
17684TIP3    H274468   0.505   1.312  12.923  1.4612  0.3639 -1.3865
17685TIP3   OH274469   2.222   5.930   3.476  0.2165  0.2194 -0.1061
17685TIP3    H174470   2.233   5.989   3.550 -1.1465  0.7787 -0.3109
17685TIP3    H274471   2.145   5.965   3.429  0.2996 -0.8421 -1.0769
17686TIP3   OH274472   6.397   3.621   3.484 -0.6397  0.7025  0.7768
17686TIP3    H174473   6.369   3.539   3.444  2.0644 -1.0896  2.2785
17686TIP3    H274474   6.430   3.673   3.411 -0.6239 -0.3263  0.0242
17687TIP3   OH274475   6.832   3.087   3.604  0.3952  0.0042 -0.2960
17687TIP3    H174476   6.842   3.004   3.558  2.3659  0.8803 -1.5978
17687TIP3    H274477   6.842   3.064   3.697  2.8507 -1.0136 -0.7344
17688TIP3   OH274478   1.793   4.651  10.298  0.3583  0.3789 -0.0424
17688TIP3    H174479   1.766   4.660  10.389  1.4189  1.2980  0.2071
17688TIP3    H274480   1.712   4.653  10.248 -0.1356  1.6117  0.7702
17689TIP3   OH274481   4.901   5.550  12.755  0.6554  0.1069  0.3780
17689TIP3    H174482   4.890   5.475  12.813  1.1694 -1.1498 -1.0773
17689TIP3    H274483   4.927   5.512  12.671  1.1094  1.9316 -0.3631
17690TIP3   OH274484   3.274   1.774   4.337  0.7845 -0.8837  0.1369
17690TIP3    H174485   3.189   1.749   4.373  0.6690 -0.2472  0.3077
17690TIP3    H274486   3.337   1.743   4.402  0.5522  0.7304  1.1886
17691TIP3   OH274487   6.118   6.959  14.327 -0.5320  0.3203 -0.3191
17691TIP3    H174488   6.064   6.932  14.401 -0.4805  0.3193 -0.2816
17691TIP3    H274489   6.061   6.952  14.251  0.1282 -2.1255 -0.6632
17692TIP3   OH274490   6.259   2.919   3.858 -0.1773  0.3295  0.0497
17692TIP3    H174491   6.256   2.846   3.796  2.1514  0.3376 -0.1711
17692TIP3    H274492   6.260   2.997   3.803  0.5186  0.3867  0.1323
17693TIP3   OH274493   2.301   6.830   2.867  0.9936 -0.2278  0.0554
17693TIP3    H174494   2.219   6.793   2.835  0.7588  2.2966 -2.6921
17693TIP3    H274495   2.286   6.845   2.961 -2.5352  2.0452 -0.7091
17694TIP3   OH274496   7.111   1.075   5.551 -0.1869  0.1143 -0.2332
17694TIP3    H174497   7.183   1.012   5.554  2.2169  2.6394 -0.8777
17694TIP3    H274498   7.032   1.021   5.559  1.7347 -2.7537  1.1516
17695TIP3   OH274499   6.715   6.131  14.160 -0.2989  0.3081  0.1207
17695TIP3    H174500   6.706   6.073  14.084 -1.4601  1.2557 -0.5043
17695TIP3    H274501   6.687   6.078  14.235 -2.8680  0.4626 -0.6316
17696TIP3   OH274502   4.052   0.259  12.915 -0.3268  0.5395  0.5738
17696TIP3    H174503   3.983   0.325  12.925 -2.1546 -1.2637  0.4070
17696TIP3    H274504   4.065   0.224  13.003 -0.1771  0.3106  0.4622
17697TIP3   OH274505   2.237   4.945   1.345  0.3715 -0.0004 -0.6084
17697TIP3    H174506   2.290   4.873   1.378 -0.0700 -0.8951 -1.7760
17697TIP3    H274507   2.155   4.905   1.319 -0.4818  1.1915  0.1393
17698TIP3   OH274508   0.362   2.928   4.939 -0.0225  0.0426  0.9300
17698TIP3    H174509   0.341   2.864   5.007  0.6957 -1.5027 -0.2263
17698TIP3    H274510   0.402   3.001   4.987  0.9620 -1.2220  2.1420
17699TIP3   OH274511   0.062   5.288  12.229  0.0605 -0.2952 -0.4566
17699TIP3    H174512   0.104   5.356  12.281  0.8216 -1.1056  0.0084
17699TIP3    H274513  -0.006   5.253  12.287  0.0044 -0.2681 -0.5068
17700TIP3   OH274514   5.926   4.632   2.403 -0.0433 -0.2096 -0.1068
17700TIP3    H174515   5.876   4.550   2.407  3.1243 -2.3257 -0.3269
17700TIP3    H274516   5.955   4.646   2.493  1.9059 -1.0721 -0.5642
17701TIP3   OH274517   2.504   5.445   4.308 -0.5913 -0.8155 -0.1209
17701TIP3    H174518   2.521   5.538   4.290  0.0316 -0.7609  0.7224
17701TIP3    H274519   2.591   5.405   4.313 -0.8544 -1.8080 -2.1800
17702TIP3   OH274520   2.107   4.854   2.610  0.6337  0.3492 -0.5383
17702TIP3    H174521   2.078   4.923   2.670  0.3455 -0.0328 -0.2377
17702TIP3    H274522   2.188   4.888   2.572  1.2207  0.2880  0.6230
17703TIP3   OH274523   4.879   0.199  12.650  0.1231  0.1622 -0.4731
17703TIP3    H174524   4.826   0.220  12.726 -0.6134  0.8426 -1.1476
17703TIP3    H274525   4.819   0.151  12.592  0.4754  0.2510 -0.9140
17704TIP3   OH274526   3.948   4.563  13.358 -0.0704  0.2222 -0.2013
17704TIP3    H174527   3.964   4.472  13.385 -3.1901 -0.6241 -0.8293
17704TIP3    H274528   3.984   4.569  13.270  0.8829 -0.1289  0.1523
17705TIP3   OH274529   0.622   1.964  13.167 -0.5153  0.2028 -0.2990
17705TIP3    H174530   0.579   2.020  13.230 -0.6891  0.3682 -0.5628
17705TIP3    H274531   0.714   1.962  13.194  0.1870  3.1589 -2.0497
17706TIP3   OH274532   6.601   6.264   5.306 -0.2150  0.2012  0.0116
17706TIP3    H174533   6.514   6.226   5.316 -0.0270 -0.1931  0.1454
17706TIP3    H274534   6.584   6.358   5.295 -0.6066  0.2537  0.9201
17707TIP3   OH274535   6.845   2.992   0.516 -0.4206  0.2054  0.2595
17707TIP3    H174536   6.831   2.913   0.568 -0.8238  0.0818 -0.0328
17707TIP3    H274537   6.937   3.015   0.531 -0.3733 -0.1670  0.5530
17708TIP3   OH274538   2.396   0.803   5.848  0.0636  0.1332  0.5495
17708TIP3    H174539   2.353   0.822   5.932 -0.1534  0.7015  0.3147
17708TIP3    H274540   2.436   0.886   5.822 -0.3758  0.1225 -0.2000
17709TIP3   OH274541   1.109   5.532   0.498 -0.1774 -0.1127  0.2492
17709TIP3    H174542   1.035   5.536   0.438 -0.7948 -2.5473  0.7025
17709TIP3    H274543   1.164   5.606   0.474 -1.7135  0.5469 -1.5085
17710TIP3   OH274544   5.716   4.833   1.147  0.1056 -0.4887 -0.2372
17710TIP3    H174545   5.744   4.798   1.232 -3.6955 -1.2982  0.8681
17710TIP3    H274546   5.621   4.834   1.152 -0.2209  3.0640 -3.1396
17711TIP3   OH274547   3.842   5.840   5.929 -0.5626  0.2762 -0.5455
17711TIP3    H174548   3.882   5.918   5.968 -0.4013 -0.2167  0.3036
17711TIP3    H274549   3.776   5.874   5.869  0.4367  1.0892 -1.2172
17712TIP3   OH274550   4.945   7.105   4.683 -0.1751 -0.2117  0.0737
17712TIP3    H174551   4.895   7.027   4.707  0.7638 -1.0921 -0.7267
17712TIP3    H274552   5.015   7.072   4.626 -1.1748  1.4949 -2.3070
17713TIP3   OH274553   6.817   4.792   4.595  0.4475 -0.6301  0.4074
17713TIP3    H174554   6.771   4.818   4.675 -1.4960 -1.9241 -0.2319
17713TIP3    H274555   6.818   4.871   4.541  4.2592  1.1322  2.6646
17714TIP3   OH274556   0.811   6.880  13.498 -0.2207  0.0523  0.6861
17714TIP3    H174557   0.874   6.938  13.541  0.3843 -0.2254  0.1862
17714TIP3    H274558   0.845   6.792  13.513  0.3912 -0.0286 -0.9195
17715TIP3   OH274559   2.416   1.964  13.670 -0.3084 -0.3503  0.1333
17715TIP3    H174560   2.507   1.992  13.684  0.1167 -0.4682 -1.9372
17715TIP3    H274561   2.364   2.018  13.729  1.1288 -0.5684  1.6733
17716TIP3   OH274562   4.322   3.020  11.381  0.3716  0.0681  0.3023
17716TIP3    H174563   4.288   2.982  11.462 -0.5754 -1.2100 -0.6546
17716TIP3    H274564   4.400   3.068  11.409  0.3143 -0.6863  1.9160
17717TIP3   OH274565   6.824   1.836   3.097  0.1680  0.4839 -0.2104
17717TIP3    H174566   6.906   1.817   3.143 -0.0863  0.3363  0.1849
17717TIP3    H274567   6.841   1.812   3.006  0.8177  1.1871 -0.2860
17718TIP3   OH274568   6.416   4.361   1.523  0.0946 -0.0595 -0.6508
17718TIP3    H174569   6.441   4.271   1.502  0.4873 -0.2583  0.5882
17718TIP3    H274570   6.328   4.371   1.487 -0.1486 -1.1033 -0.3621
17719TIP3   OH274571   1.873   2.289   4.441 -0.2403 -0.0232  0.2459
17719TIP3    H174572   1.872   2.327   4.353  0.0664  1.2837  0.7799
17719TIP3    H274573   1.818   2.211   4.434  0.4614 -0.4301 -1.2985
17720TIP3   OH274574   5.148   5.805   4.989 -0.0894 -0.0378  0.1001
17720TIP3    H174575   5.200   5.725   4.980 -0.0479  0.1861 -2.3071
17720TIP3    H274576   5.198   5.872   4.943 -2.1916  0.2925 -1.8749
17721TIP3   OH274577   0.687   0.896   5.299  0.1523  0.3279 -0.2841
17721TIP3    H174578   0.763   0.839   5.301 -0.7786 -0.9730 -0.2755
17721TIP3    H274579   0.703   0.961   5.367  0.8391 -0.4868  0.3492
17722TIP3   OH274580   5.660   0.214   4.894  0.0117 -0.2766  0.3675
17722TIP3    H174581   5.626   0.187   4.809 -1.3046 -0.2010  0.8303
17722TIP3    H274582   5.633   0.144   4.954  1.2120 -0.4934  0.6837
17723TIP3   OH274583   1.382   6.226   3.880  0.5923  0.3044 -0.1400
17723TIP3    H174584   1.344   6.192   3.961  0.4263  2.2032  0.6320
17723TIP3    H274585   1.389   6.150   3.823 -0.5528 -0.8347  1.1674
17724TIP3   OH274586   3.152   6.402   4.428  0.1386 -1.0742  0.0325
17724TIP3    H174587   3.140   6.391   4.522 -4.5420  0.6437 -0.0900
17724TIP3    H274588   3.205   6.482   4.420 -1.2087  0.0272  1.3405
17725TIP3   OH274589   4.879   0.261   3.533  0.0400  0.3024 -0.6779
17725TIP3    H174590   4.949   0.294   3.477  1.0205 -0.0469  0.3118
17725TIP3    H274591   4.911   0.178   3.567  0.3526  1.3649  1.9140
17726TIP3   OH274592   4.855   5.726   4.989  0.0344  0.1347  0.3100
17726TIP3    H174593   4.864   5.656   4.925 -1.5597  0.5953 -0.4802
17726TIP3    H274594   4.945   5.750   5.012  0.6882  0.3433 -2.2201
17727TIP3   OH274595   6.616   3.223   4.601 -0.0014 -0.4736  0.6896
17727TIP3    H174596   6.595   3.305   4.557 -1.6902 -0.4342  1.5139
17727TIP3    H274597   6.696   3.242   4.651  0.7280  0.0796 -0.6180
17728TIP3   OH274598   1.041   3.583   5.267  0.2056  0.1908 -0.2628
17728TIP3    H174599   1.004   3.638   5.336 -1.5412 -0.9430 -0.2202
17728TIP3    H274600   1.135   3.584   5.283  0.0744  1.8694  0.6718
17729TIP3   OH274601   1.584   6.355   5.934  0.3866 -0.2104  0.4018
17729TIP3    H174602   1.633   6.299   5.875  1.1903  0.6240  0.2488
17729TIP3    H274603   1.504   6.376   5.887 -0.3665 -1.9729  0.8477
17730TIP3   OH274604   6.535   2.173   2.299 -0.3330  0.1471 -0.1016
17730TIP3    H174605   6.545   2.096   2.244  2.3332 -0.0437  0.5189
17730TIP3    H274606   6.564   2.246   2.243  0.7645  0.1708  0.4736
17731TIP3   OH274607   3.222   4.374   4.110  0.3742  0.3785  0.1407
17731TIP3    H174608   3.258   4.424   4.036  0.7713 -0.4033 -0.2021
17731TIP3    H274609   3.275   4.403   4.185  1.0700 -0.0256 -0.1805
17732TIP3   OH274610   3.517   1.252   4.435  0.6258  0.0926  0.0590
17732TIP3    H174611   3.602   1.213   4.456  0.3255 -0.5188  0.1725
17732TIP3    H274612   3.467   1.180   4.396 -0.8817 -0.4340  2.7048
17733TIP3   OH274613   5.026   5.083   3.031  0.3158 -0.8886 -0.0840
17733TIP3    H174614   5.065   5.028   2.963  0.1405 -1.1008 -0.0162
17733TIP3    H274615   5.091   5.084   3.101  2.0023  2.0104 -1.5058
17734TIP3   OH274616   6.905   3.604   4.955  0.1434  0.2669  0.4272
17734TIP3    H174617   6.993   3.595   4.919 -0.2694 -0.8606 -0.3474
17734TIP3    H274618   6.850   3.624   4.879 -0.4379 -0.1806  0.7169
17735TIP3   OH274619   3.699   0.068   4.277  0.4641 -0.2287  0.0869
17735TIP3    H174620   3.638   0.075   4.351  0.0983  1.3813 -0.3273
17735TIP3    H274621   3.783   0.045   4.317  0.1257 -0.0348  0.9322
17736TIP3   OH274622   0.531   1.419   2.560  0.5536  0.5026  0.5220
17736TIP3    H174623   0.588   1.380   2.627  1.0001  0.9638  0.4144
17736TIP3    H274624   0.448   1.435   2.607  0.8891  0.8985  0.9891
17737TIP3   OH274625   1.570   3.613   4.605  0.0301  0.2641  0.0853
17737TIP3    H174626   1.554   3.706   4.590 -2.1181 -0.1652 -0.6416
17737TIP3    H274627   1.627   3.586   4.533  0.2657  0.8854  0.0303
17738TIP3   OH274628   2.608   6.806   3.766  0.2361  0.0076 -0.4833
17738TIP3    H174629   2.620   6.754   3.686 -0.3069  1.1437 -1.3297
17738TIP3    H274630   2.689   6.856   3.775  0.3398 -0.1997 -0.2577
17739TIP3   OH274631   1.415   6.408   5.514  0.2178  0.4032  0.2095
17739TIP3    H174632   1.418   6.388   5.608  0.1356  0.2746  0.1860
17739TIP3    H274633   1.425   6.323   5.471  1.1850  0.5679  0.0841
17740TIP3   OH274634   1.328   1.959   0.238  0.1465  0.0962  0.0180
17740TIP3    H174635   1.424   1.959   0.245  0.2442  1.3780 -1.0399
17740TIP3    H274636   1.299   1.996   0.321  0.2698 -4.2778  2.3584
17741TIP3   OH274637   1.607   6.913   3.901  0.0194 -0.0492  0.0074
17741TIP3    H174638   1.537   6.937   3.961  0.1449 -2.0884  1.0189
17741TIP3    H274639   1.591   6.822   3.880  3.5344 -1.3326  2.0588
17742TIP3   OH274640   2.958   3.020   5.587  0.1708  0.2414  0.2205
17742TIP3    H174641   3.007   3.101   5.572 -0.0994 -0.0843 -3.2050
17742TIP3    H274642   3.015   2.951   5.556 -0.3598 -0.7383  1.3457
17743TIP3   OH274643   4.601   6.561   4.253 -0.3347  0.3677  0.3920
17743TIP3    H174644   4.510   6.583   4.276 -0.8975 -1.3098 -0.0253
17743TIP3    H274645   4.594   6.518   4.168  0.7385 -0.5237  0.7286
17744TIP3   OH274646   2.304   3.966   6.319  0.2154  0.0126 -0.5998
17744TIP3    H174647   2.322   3.907   6.246  0.4568  0.1421 -0.6453
17744TIP3    H274648   2.232   4.021   6.289 -0.3248 -0.5594 -0.3892
17745TIP3   OH274649   0.454   0.211   4.123 -0.1243  0.0238 -0.4264
17745TIP3    H174650   0.535   0.260   4.108 -0.3434  0.7758  0.7815
17745TIP3    H274651   0.482   0.128   4.162  0.1561 -0.3378 -1.3697
17746TIP3   OH274652   2.383   1.868   0.270  0.3010  0.2471  0.8155
17746TIP3    H174653   2.391   1.773   0.264 -2.1718 -0.2234  3.1399
17746TIP3    H274654   2.460   1.901   0.224  0.3508 -2.7919 -1.6630
17747TIP3   OH274655   0.002   2.955   0.380 -0.2943 -0.5173  0.2533
17747TIP3    H174656   0.049   2.931   0.460  0.4307  1.5886  0.5282
17747TIP3    H274657   0.031   2.891   0.315 -0.2583 -1.7603  1.4582
17748TIP3   OH274658   3.706   3.209   4.788 -0.2076  0.3208  0.5126
17748TIP3    H174659   3.706   3.155   4.867  0.5616  0.8883  0.9152
17748TIP3    H274660   3.701   3.145   4.716  1.9431 -0.4081  0.9353
17749TIP3   OH274661   2.112   3.085   2.112  0.2625  0.2234 -0.1554
17749TIP3    H174662   2.160   3.043   2.184  2.6986  0.2707 -1.6229
17749TIP3    H274663   2.080   3.167   2.149  1.4981  0.2776  0.8723
17750TIP3   OH274664   6.638   0.613  13.108  0.0489  0.6615 -0.0595
17750TIP3    H174665   6.675   0.700  13.093 -0.1135  0.8750  0.7628
17750TIP3    H274666   6.658   0.565  13.027  0.1863  1.4366 -0.4998
17751TIP3   OH274667   0.347   6.060  14.882  0.5015 -0.1610 -0.0323
17751TIP3    H174668   0.371   6.081  14.792  0.9176  1.4719  0.4295
17751TIP3    H274669   0.430   6.053  14.929  0.3034 -1.3505  0.1686
17752TIP3   OH274670   7.026   0.901   4.882 -0.5351 -0.3774 -0.5474
17752TIP3    H174671   7.036   0.806   4.889  0.8199 -0.2124  0.0043
17752TIP3    H274672   6.976   0.926   4.960  0.5572 -0.4614  0.2043
17753TIP3   OH274673   3.739   4.599   3.529 -0.1110 -0.1647 -0.3709
17753TIP3    H174674   3.662   4.655   3.512  0.1367  0.1426 -0.4963
17753TIP3    H274675   3.807   4.635   3.472  0.4326  0.2252  0.4931
17754TIP3   OH274676   5.134   5.309  14.624  0.0974 -0.0608 -0.2616
17754TIP3    H174677   5.229   5.312  14.615  0.3134 -1.0906  1.3072
17754TIP3    H274678   5.101   5.334  14.538  1.7658  1.0327 -0.6249
17755TIP3   OH274679   0.512   0.313   3.184 -0.2572  0.5452 -0.3266
17755TIP3    H174680   0.605   0.310   3.206 -0.2321 -0.2144 -0.4816
17755TIP3    H274681   0.501   0.242   3.120 -1.1874 -0.2649  0.6809
17756TIP3   OH274682   4.335   0.785  12.863 -0.2432  0.1333  0.9503
17756TIP3    H174683   4.388   0.822  12.793 -0.4578  1.4794  1.4714
17756TIP3    H274684   4.295   0.707  12.824 -0.7593  1.1164 -0.5824
17757TIP3   OH274685   6.394   2.956  14.673 -0.2151 -0.1710  0.6167
17757TIP3    H174686   6.388   3.024  14.606  1.8347 -0.1309  0.4277
17757TIP3    H274687   6.361   2.998  14.753 -1.4162  0.1927 -0.0380
17758TIP3   OH274688   4.368   2.285  10.491  0.0526  0.0041 -0.0209
17758TIP3    H174689   4.309   2.353  10.460  1.4137  1.2490  0.0145
17758TIP3    H274690   4.366   2.294  10.587  0.1053 -0.1203 -0.0083
17759TIP3   OH274691   3.561   4.327  13.522 -0.6647 -0.1978 -0.1953
17759TIP3    H174692   3.648   4.326  13.482 -1.6212 -1.9951 -2.4779
17759TIP3    H274693   3.547   4.236  13.551 -1.3260  0.3449  1.2734
17760TIP3   OH274694   1.857   1.492  14.234  0.0037 -0.3098 -0.1511
17760TIP3    H174695   1.816   1.531  14.157  1.6104  1.7706 -0.0539
17760TIP3    H274696   1.804   1.521  14.307  1.0937  1.7159 -0.0987
17761TIP3   OH274697   5.961   3.478   4.089  0.3052  0.1437  0.0960
17761TIP3    H174698   6.030   3.436   4.039 -0.3626 -0.6619 -0.1748
17761TIP3    H274699   6.005   3.517   4.165  1.0676 -0.1892 -0.1763
17762TIP3   OH274700   6.172   5.728   3.029 -0.1646  0.2511  0.0148
17762TIP3    H174701   6.125   5.690   2.955  1.6078  0.6840 -1.4001
17762TIP3    H274702   6.232   5.791   2.990  0.9224  0.4048  1.8064
17763TIP3   OH274703   0.938   2.944  14.536  0.5931  0.4817 -0.5738
17763TIP3    H174704   0.978   2.974  14.618 -1.1044  1.5132 -0.0895
17763TIP3    H274705   0.882   2.871  14.561 -1.9679  2.4046 -0.2877
17764TIP3   OH274706   1.524   2.292  15.100 -0.1157  0.1758 -0.4816
17764TIP3    H174707   1.589   2.353  15.065  0.6121 -1.4687 -2.1661
17764TIP3    H274708   1.563   2.205  15.088 -2.0799 -0.7926 -0.3422
17765TIP3   OH274709   5.569   5.995   4.396 -0.4474 -0.2530 -0.0291
17765TIP3    H174710   5.490   6.039   4.429 -1.2250 -0.1669 -1.8735
17765TIP3    H274711   5.598   6.049   4.323 -0.5266 -1.9523 -1.3839
17766TIP3   OH274712   4.750   4.790   0.480 -0.1683 -0.2222  0.5672
17766TIP3    H174713   4.770   4.869   0.430 -0.7594 -0.4430 -0.0371
17766TIP3    H274714   4.665   4.761   0.446 -1.0831  0.1751  2.3818
17767TIP3   OH274715   6.423   0.797  13.108  0.2987 -0.9710  0.0231
17767TIP3    H174716   6.462   0.711  13.096  0.7009 -1.0907  1.9226
17767TIP3    H274717   6.462   0.830  13.189 -0.9905  0.3602  0.1381
17768TIP3   OH274718   1.644   0.181   0.377  0.0227 -0.2254 -0.8879
17768TIP3    H174719   1.614   0.237   0.449 -0.0909 -0.6942 -0.5633
17768TIP3    H274720   1.687   0.107   0.421  1.6130  0.3895 -1.3337
17769TIP3   OH274721   6.028   5.296   2.718 -0.2010 -0.2040 -0.5201
17769TIP3    H174722   6.057   5.216   2.761 -3.4820 -1.7834 -0.8901
17769TIP3    H274723   6.018   5.359   2.789  1.2654 -0.4985 -0.0330
17770TIP3   OH274724   6.602   1.098  13.107  0.0260  0.6970 -0.3213
17770TIP3    H174725   6.674   1.114  13.168  0.9194  0.0252 -1.1538
17770TIP3    H274726   6.607   1.005  13.088 -1.8640  0.3792  0.5347
17771TIP3   OH274727   3.317   5.472   0.945  0.0395  0.4807  0.1213
17771TIP3    H174728   3.232   5.448   0.910  0.6950 -2.9782  0.5567
17771TIP3    H274729   3.375   5.475   0.869  0.3303 -1.5083  0.2085
17772TIP3   OH274730   0.492   3.011  14.699 -0.6284  0.4394 -0.3744
17772TIP3    H174731   0.476   2.991  14.791  0.2442  1.3006 -0.0204
17772TIP3    H274732   0.423   3.073  14.676 -0.5518  0.5986 -0.1704
17773TIP3   OH274733   4.876   1.167  13.391 -0.4235  0.4010  0.4311
17773TIP3    H174734   4.891   1.160  13.297  0.7312 -1.7236  0.7128
17773TIP3    H274735   4.784   1.142  13.402 -0.4615  0.2834 -0.1024
17774TIP3   OH274736   0.808   3.609  10.720 -0.2968 -0.0317  0.4836
17774TIP3    H174737   0.872   3.644  10.659  0.0300  0.0531  0.8726
17774TIP3    H274738   0.743   3.565  10.665  0.8416 -1.3563  0.1414
17775TIP3   OH274739   2.500   4.157   6.255 -0.3303 -0.2498 -0.5349
17775TIP3    H174740   2.443   4.101   6.306  0.0662 -1.0446 -0.9403
17775TIP3    H274741   2.485   4.130   6.164 -0.2857  0.4449 -0.7563
17776TIP3   OH274742   2.994   1.919   0.284  0.0124 -0.3875  0.3437
17776TIP3    H174743   2.957   1.919   0.196 -0.0664 -1.6346  0.3456
17776TIP3    H274744   3.017   2.010   0.302  0.2091 -0.1570 -1.0369
17777TIP3   OH274745   3.029   3.407   6.012  0.4645 -0.2119  0.1776
17777TIP3    H174746   3.090   3.443   6.076 -0.2291 -0.2500  0.8767
17777TIP3    H274747   2.955   3.376   6.065 -0.5899  0.7040 -0.7210
17778TIP3   OH274748   4.695   1.390   2.446  0.1859 -0.0949  0.6034
17778TIP3    H174749   4.637   1.363   2.517  0.3752 -1.4489  0.2769
17778TIP3    H274750   4.757   1.317   2.438  0.6005  0.3648 -0.4799
17779TIP3   OH274751   2.013   6.733   3.279  0.3205  0.3300  0.1297
17779TIP3    H174752   1.956   6.808   3.292 -2.0186 -1.5099  1.2129
17779TIP3    H274753   2.041   6.708   3.368 -1.3974 -1.7809  0.1731
17780TIP3   OH274754   2.507   2.223   5.087  0.1534 -0.1988 -0.0986
17780TIP3    H174755   2.435   2.160   5.081  0.1837 -0.2391 -0.0359
17780TIP3    H274756   2.471   2.297   5.135 -0.0494  0.0671 -0.6474
17781TIP3   OH274757   5.666   5.294   4.621  0.0153  0.3913 -0.3420
17781TIP3    H174758   5.682   5.341   4.539  0.1902  1.8891  0.5046
17781TIP3    H274759   5.653   5.364   4.685 -2.1963 -0.7214  0.5252
17782TIP3   OH274760   5.698   4.896   3.243 -0.3892  0.1707  0.0396
17782TIP3    H174761   5.765   4.963   3.257 -0.4494  0.5839 -1.4683
17782TIP3    H274762   5.686   4.856   3.329 -0.2987  2.0425  0.9794
17783TIP3   OH274763   4.954   5.083  15.278 -0.1498  0.6340 -0.3117
17783TIP3    H174764   4.868   5.118  15.254 -0.6756 -0.7190 -0.4795
17783TIP3    H274765   4.963   5.004  15.224  1.4023  0.9998 -0.6281
17784TIP3   OH274766   3.246   0.244  14.088  0.2123  0.2090 -0.0981
17784TIP3    H174767   3.188   0.169  14.082 -2.2780  2.0978 -1.8744
17784TIP3    H274768   3.276   0.259  13.998  1.9013  0.4468  0.4746
17785TIP3   OH274769   0.471   0.880   5.132  0.0255  0.3069 -0.3667
17785TIP3    H174770   0.548   0.901   5.184  0.0851  0.2773 -0.4428
17785TIP3    H274771   0.465   0.784   5.136 -0.9521  0.3862  1.0074
17786TIP3   OH274772   0.388   2.592  15.142 -0.4789 -0.4512  0.1408
17786TIP3    H174773   0.299   2.569  15.116 -0.1824 -0.8410 -0.5789
17786TIP3    H274774   0.391   2.578  15.236 -1.4162  0.3839  0.3064
17787TIP3   OH274775   2.673   4.215  12.118  0.5664  0.0949 -0.6788
17787TIP3    H174776   2.756   4.223  12.072 -0.2675 -2.1042 -2.7306
17787TIP3    H274777   2.636   4.132  12.088 -2.9638  1.5579 -0.8326
17788TIP3   OH274778   5.791   4.249   3.246 -0.5809 -0.2927 -0.0908
17788TIP3    H174779   5.815   4.336   3.215 -2.2395 -0.3238 -1.6775
17788TIP3    H274780   5.796   4.255   3.342 -1.0344  1.6761 -0.1482
17789TIP3   OH274781   5.286   5.069   5.318 -0.0259 -0.0086 -0.2244
17789TIP3    H174782   5.265   5.033   5.232  0.1125  0.0663 -0.2885
17789TIP3    H274783   5.221   5.030   5.377 -0.0041 -0.2026 -0.3300
17790TIP3   OH274784   0.437   6.054   3.142  0.0958  1.2163 -0.0144
17790TIP3    H174785   0.366   6.051   3.205 -2.0954  2.1756 -2.2622
17790TIP3    H274786   0.504   5.997   3.179 -1.6686  0.5192  2.3853
17791TIP3   OH274787   2.445   2.604   4.781 -0.3396 -0.0342  0.2775
17791TIP3    H174788   2.459   2.691   4.819  0.0313 -0.1631  0.4405
17791TIP3    H274789   2.355   2.606   4.749 -0.0547  0.7093 -0.5087
17792TIP3   OH274790   0.682   4.523   3.187 -0.3544  0.1123 -0.2805
17792TIP3    H174791   0.728   4.560   3.112 -0.9434  0.0506 -0.6809
17792TIP3    H274792   0.747   4.521   3.257 -0.2056  1.5724 -0.3417
17793TIP3   OH274793   6.345   1.152   5.101 -0.1371 -0.2138 -0.0897
17793TIP3    H174794   6.336   1.233   5.152 -0.8318 -0.3823  0.0689
17793TIP3    H274795   6.439   1.135   5.100  0.3497  2.0902 -2.5001
17794TIP3   OH274796   3.742   2.660   4.908  0.1424  0.2149 -0.1199
17794TIP3    H174797   3.735   2.698   4.995  1.1141  0.3219 -0.0825
17794TIP3    H274798   3.701   2.574   4.916 -0.7312  0.6492  0.1697
17795TIP3   OH274799   2.790   3.094   4.587 -0.0867 -0.6347 -0.5768
17795TIP3    H174800   2.852   3.024   4.611 -0.4680 -1.0950 -0.9153
17795TIP3    H274801   2.710   3.047   4.561 -0.3239 -0.0720 -0.8716
17796TIP3   OH274802   0.573   6.751   3.926 -0.3557 -0.3938 -0.4869
17796TIP3    H174803   0.501   6.688   3.927  0.7443 -1.7319 -1.0233
17796TIP3    H274804   0.532   6.835   3.943 -1.8692 -1.2746  0.5066
17797TIP3   OH274805   4.750   5.309   3.559  0.4451 -0.0311 -0.3140
17797TIP3    H174806   4.672   5.363   3.569  1.1174  1.4221 -2.3398
17797TIP3    H274807   4.776   5.289   3.649 -2.9237 -1.6921  0.4783
17798TIP3   OH274808   0.406   5.153   2.083  0.1386 -0.4347 -0.8166
17798TIP3    H174809   0.428   5.067   2.048  0.2232 -0.0097 -1.8373
17798TIP3    H274810   0.317   5.142   2.119  0.4436 -1.1304 -0.2408
17799TIP3   OH274811   3.612   5.634  14.005 -0.0104  0.2973 -0.4571
17799TIP3    H174812   3.686   5.580  14.031 -1.6083 -1.6024  0.3582
17799TIP3    H274813   3.628   5.718  14.048  1.6336 -0.0527 -0.2989
17800TIP3   OH274814   3.319   0.744   2.003  0.1043  0.2128  0.7420
17800TIP3    H174815   3.336   0.796   1.925 -2.3311  0.4159  0.2511
17800TIP3    H274816   3.298   0.809   2.071  0.6351 -0.0178  1.1335
17801TIP3   OH274817   1.666   6.833   1.610  0.2937  0.7998  0.5369
17801TIP3    H174818   1.718   6.803   1.536 -0.6744 -0.0750  0.1901
17801TIP3    H274819   1.674   6.928   1.608  0.9757  0.7333 -0.1776
17802TIP3   OH274820   6.062   0.158   5.470 -0.4425 -0.2531 -0.0524
17802TIP3    H174821   6.067   0.218   5.544 -0.4225  1.1470 -1.1593
17802TIP3    H274822   6.149   0.163   5.429  0.6267 -3.2912  1.4684
17803TIP3   OH274823   6.435   1.895   1.415 -0.5372 -0.3375  0.4017
17803TIP3    H174824   6.407   1.979   1.452 -2.8829 -0.7862 -0.2324
17803TIP3    H274825   6.470   1.847   1.490 -0.9312  0.4801  1.1355
17804TIP3   OH274826   3.252   1.523  10.002  0.0080  0.5414 -0.2963
17804TIP3    H174827   3.173   1.543  10.053  0.9315  0.8780  1.0528
17804TIP3    H274828   3.286   1.443  10.041 -0.4654 -0.4641 -1.8691
17805TIP3   OH274829   2.609   5.624   2.641 -0.3111 -0.2896 -0.5570
17805TIP3    H174830   2.514   5.624   2.633 -0.4174  1.9004 -0.1140
17805TIP3    H274831   2.629   5.708   2.682  1.7944 -0.8975 -0.2293
17806TIP3   OH274832   5.437   1.095   1.749 -0.6395 -0.1448  0.1965
17806TIP3    H174833   5.472   1.024   1.696 -3.3613 -0.6877 -1.0719
17806TIP3    H274834   5.508   1.118   1.809  1.8586 -0.9526 -2.2421
17807TIP3   OH274835   5.998   4.788  11.843 -0.0662  0.0520 -0.6703
17807TIP3    H174836   6.012   4.772  11.936  4.1752  1.6520 -0.8019
17807TIP3    H274837   5.948   4.870  11.840  1.2451  0.9543  0.3451
17808TIP3   OH274838   5.039   1.505  13.003  0.0352  0.5667  0.2349
17808TIP3    H174839   5.133   1.510  13.020 -0.0122  0.8878  0.4074
17808TIP3    H274840   5.010   1.596  13.002  0.2947  0.7450 -3.0629
17809TIP3   OH274841   0.249   3.749   5.048  1.0407  0.2327  0.1467
17809TIP3    H174842   0.315   3.681   5.063  0.3721 -0.3333  0.6107
17809TIP3    H274843   0.195   3.747   5.127 -1.0058 -1.0113 -1.1756
17810TIP3   OH274844   2.215   4.215   4.518  0.0654 -0.8210 -0.3983
17810TIP3    H174845   2.281   4.152   4.487  1.3098  0.2949 -0.1179
17810TIP3    H274846   2.149   4.215   4.449 -0.1217 -2.6311 -0.2740
17811TIP3   OH274847   0.352   6.599   1.560  0.2321  0.2036  0.1851
17811TIP3    H174848   0.268   6.613   1.605 -0.0007  0.7583 -0.4156
17811TIP3    H274849   0.362   6.675   1.503  1.1223  0.1086  0.2068
17812TIP3   OH274850   3.820   4.288  14.702  0.5664 -0.7237  0.4686
17812TIP3    H174851   3.748   4.301  14.641  0.8441  1.2208  0.5056
17812TIP3    H274852   3.866   4.210  14.669 -1.1107 -1.5864  0.0606
17813TIP3   OH274853   1.239   5.095   0.104  0.0407 -0.0800  0.7485
17813TIP3    H174854   1.148   5.067   0.110 -0.5784  1.9291  1.7714
17813TIP3    H274855   1.273   5.088   0.194  0.4800  0.4159  0.6310
17814TIP3   OH274856   5.694   6.496   0.420 -0.0456 -0.2179 -0.9323
17814TIP3    H174857   5.700   6.448   0.503 -0.6779  0.6726 -0.3549
17814TIP3    H274858   5.611   6.468   0.382 -2.0907  2.6700  0.9385
17815TIP3   OH274859   6.376   2.698   5.703  0.3994  0.0236 -0.3052
17815TIP3    H174860   6.301   2.758   5.703  1.2329  1.0878  0.5094
17815TIP3    H274861   6.343   2.619   5.746  0.2829  1.2135  1.9182
17816TIP3   OH274862   5.908   0.302   4.894  0.1837 -0.2050  0.1314
17816TIP3    H174863   5.814   0.285   4.902  0.1215  0.6754  1.7624
17816TIP3    H274864   5.949   0.238   4.952  0.6589 -0.9234 -0.9615
17817TIP3   OH274865   6.275   1.271  11.297  0.1400  0.3691 -0.2020
17817TIP3    H174866   6.344   1.335  11.283 -0.8761  1.0306 -2.6409
17817TIP3    H274867   6.317   1.201  11.347  2.2467  1.2605 -0.6160
17818TIP3   OH274868   1.735   4.020   4.611 -0.5296 -0.0673 -0.6692
17818TIP3    H174869   1.672   3.951   4.590  0.8354 -2.0168  1.1894
17818TIP3    H274870   1.705   4.056   4.695 -0.9249  1.2436 -1.3550
17819TIP3   OH274871   2.394   6.143  14.220  0.4545 -0.3441 -0.0605
17819TIP3    H174872   2.487   6.131  14.201  0.6815 -2.6407  1.9811
17819TIP3    H274873   2.389   6.226  14.268  1.6305 -0.6374  0.6091
17820TIP3   OH274874   4.238   0.006   4.798  0.3951 -0.0134 -0.0921
17820TIP3    H174875   4.256   0.044   4.884  2.9696 -1.5043  0.1301
17820TIP3    H274876   4.210  -0.083   4.817  0.0327 -0.0564 -0.7979
17821TIP3   OH274877   1.888   0.232   1.837 -0.2581 -0.2910 -0.5251
17821TIP3    H174878   1.862   0.160   1.780 -1.3116  0.4212 -0.9758
17821TIP3    H274879   1.806   0.265   1.874 -0.0748  1.9775 -1.9176
17822TIP3   OH274880   6.216   5.979   4.130 -0.7630  0.5388  0.2822
17822TIP3    H174881   6.229   6.057   4.077 -0.2868  0.1910 -0.1216
17822TIP3    H274882   6.277   5.989   4.204  0.9583 -0.4843 -0.9346
17823TIP3   OH274883   1.082   3.161  14.234  0.1966 -0.2090 -0.5208
17823TIP3    H174884   1.151   3.218  14.268 -0.7794  1.0781 -0.6041
17823TIP3    H274885   1.001   3.212  14.245 -0.6966 -1.5196 -0.7621
17824TIP3   OH274886   6.697   6.084   5.681 -0.0879  0.1204 -0.4175
17824TIP3    H174887   6.652   6.002   5.659  0.1364 -0.1305  0.0401
17824TIP3    H274888   6.632   6.135   5.730  0.5640 -0.8744  1.5948
17825TIP3   OH274889   4.640   2.132   3.672 -0.0613 -0.6331 -0.0601
17825TIP3    H174890   4.697   2.096   3.740 -0.4014 -1.3444 -0.1457
17825TIP3    H274891   4.652   2.073   3.597 -0.2591 -0.2890 -0.3643
17826TIP3   OH274892   2.793   1.143  15.216 -0.1005  0.1675 -0.5711
17826TIP3    H174893   2.828   1.232  15.220 -1.3909  0.6638  0.2145
17826TIP3    H274894   2.863   1.088  15.251 -0.2319  1.1864  1.4091
17827TIP3   OH274895   5.679   0.919   3.503  0.2950  0.2176  0.6374
17827TIP3    H174896   5.758   0.970   3.485  0.6454  0.0421  1.5951
17827TIP3    H274897   5.608   0.983   3.504  0.3611  0.3307 -0.5714
17828TIP3   OH274898   3.436   6.346   2.686  0.4623  0.4305 -0.5368
17828TIP3    H174899   3.452   6.372   2.595  0.2783  1.8676 -0.1817
17828TIP3    H274900   3.492   6.269   2.699  1.5264  1.0111 -1.4794
17829TIP3   OH274901   4.869   4.457   4.324  0.1417 -0.1811  0.3074
17829TIP3    H174902   4.789   4.506   4.343  0.2968 -0.1602  0.9251
17829TIP3    H274903   4.912   4.507   4.256 -1.5876 -1.5063 -1.8992
17830TIP3   OH274904   6.902   2.036  15.225 -0.2742 -0.2192  0.0616
17830TIP3    H174905   6.820   1.999  15.194  0.1266 -0.2179 -1.0896
17830TIP3    H274906   6.883   2.129  15.238 -0.1597  0.0356 -1.4241
17831TIP3   OH274907   1.535   3.797   3.372  0.0235  0.4239 -0.0135
17831TIP3    H174908   1.461   3.775   3.315  1.4263  0.9334 -2.1676
17831TIP3    H274909   1.569   3.879   3.337  2.5693 -0.5907 -0.1556
17832TIP3   OH274910   0.073   3.708   0.427  0.0520 -0.5186  0.5256
17832TIP3    H174911   0.046   3.728   0.337 -1.9605 -0.4044  1.1012
17832TIP3    H274912   0.139   3.639   0.417  0.2347 -0.1690 -1.0426
17833TIP3   OH274913   4.025   1.235   2.105 -0.0498 -0.3607  0.4003
17833TIP3    H174914   3.997   1.238   2.196 -1.8504 -0.9765 -0.0708
17833TIP3    H274915   3.967   1.296   2.060 -1.2207 -2.2024 -0.7489
17834TIP3   OH274916   2.134   0.096   5.051  0.3348 -0.3525 -0.1751
17834TIP3    H174917   2.081   0.160   5.004 -1.3435 -0.6708  1.1792
17834TIP3    H274918   2.150   0.136   5.137  1.0571 -0.8802 -0.0498
17835TIP3   OH274919   0.478   0.456  14.011  0.2744 -0.2081 -0.0761
17835TIP3    H174920   0.477   0.408  14.093 -0.4764  1.0353  0.6803
17835TIP3    H274921   0.557   0.510  14.015  0.7203 -0.8110 -0.5880
17836TIP3   OH274922   5.719   3.778   0.174  0.0345 -0.5511 -0.1306
17836TIP3    H174923   5.625   3.759   0.174  0.2983 -2.0019  0.7716
17836TIP3    H274924   5.750   3.746   0.259  1.2402  0.5200 -0.1342
17837TIP3   OH274925   1.899   6.080   3.796 -0.3116  0.0796 -0.1398
17837TIP3    H174926   1.850   6.005   3.762  0.8115 -0.6585 -0.2145
17837TIP3    H274927   1.945   6.045   3.873  0.6819  0.5116 -0.5096
17838TIP3   OH274928   1.093   4.076  12.780 -0.1155 -0.6918  0.1234
17838TIP3    H174929   0.998   4.068  12.767 -0.2570  0.1439  0.5621
17838TIP3    H274930   1.103   4.153  12.837  0.8538 -0.4936 -0.2936
17839TIP3   OH274931   3.172   4.256   1.545 -0.4153  0.6583 -0.0948
17839TIP3    H174932   3.106   4.209   1.596 -0.9106  1.4559  0.0225
17839TIP3    H274933   3.121   4.313   1.487  0.1620  0.7087 -0.5689
17840TIP3   OH274934   5.968   1.683   3.233  1.0229 -0.6317 -0.3861
17840TIP3    H174935   5.969   1.777   3.215 -1.2384 -0.6054 -0.6211
17840TIP3    H274936   6.006   1.643   3.155  1.9109  0.0620 -0.3216
17841TIP3   OH274937   1.608   3.142   4.929 -0.1212  0.7179 -0.4488
17841TIP3    H174938   1.600   3.235   4.908 -1.3797  0.7602  0.1407
17841TIP3    H274939   1.543   3.127   4.997  2.9643  0.3238  2.6950
17842TIP3   OH274940   5.109   6.317   2.126 -0.2341 -0.5519  0.6198
17842TIP3    H174941   5.201   6.333   2.105 -0.6985  2.2899  0.3206
17842TIP3    H274942   5.097   6.353   2.214 -1.1786 -0.3547  0.4265
17843TIP3   OH274943   2.456   6.911   1.902  0.0409  0.2711  0.4496
17843TIP3    H174944   2.365   6.940   1.909  0.0331  0.0202  1.6318
17843TIP3    H274945   2.451   6.816   1.895  0.2080  0.2777  0.2143
17844TIP3   OH274946   1.700   6.985   2.592  0.1396  0.7457  0.4710
17844TIP3    H174947   1.672   7.052   2.655 -0.4574  0.1839  0.8205
17844TIP3    H274948   1.647   7.002   2.514  0.5105  1.1246  0.2984
17845TIP3   OH274949   4.386   3.875   0.802  0.4128  0.1444  0.0939
17845TIP3    H174950   4.364   3.788   0.770  1.4155 -0.3296  0.6529
17845TIP3    H274951   4.344   3.935   0.740 -3.3837 -0.6152  1.6398
17846TIP3   OH274952   3.174   7.100  13.482  0.1650  0.1366 -0.1453
17846TIP3    H174953   3.217   7.174  13.524  0.8470 -0.9293  1.1326
17846TIP3    H274954   3.095   7.085  13.534  0.9963 -1.1702  0.8061
17847TIP3   OH274955   4.460   2.699   3.515  0.7785  0.1503  0.2800
17847TIP3    H174956   4.479   2.609   3.541 -0.7015  0.2185  1.7163
17847TIP3    H274957   4.489   2.704   3.424 -0.8233 -2.3398 -0.4626
17848TIP3   OH274958   4.682   2.543   1.822 -0.7738 -0.2544  0.5281
17848TIP3    H174959   4.671   2.479   1.752 -2.4147 -0.8403  1.2619
17848TIP3    H274960   4.636   2.505   1.897  0.1808  0.7585  1.6733
17849TIP3   OH274961   1.671   6.978   3.371  0.2474 -0.3694  0.5185
17849TIP3    H174962   1.684   7.003   3.279 -0.2983  0.2553  0.5992
17849TIP3    H274963   1.758   6.978   3.409  0.3327  0.9371  0.3771
17850TIP3   OH274964   2.505   5.748  15.517 -1.1020 -0.2112 -0.0635
17850TIP3    H174965   2.530   5.660  15.543  0.9463 -0.3771 -2.2192
17850TIP3    H274966   2.538   5.804  15.588 -1.4972 -1.0768  0.8190
17851TIP3   OH274967   6.673   1.196  14.214  0.1966  0.4954  0.0904
17851TIP3    H174968   6.640   1.213  14.303 -2.3386 -1.6443 -0.2930
17851TIP3    H274969   6.695   1.282  14.179  1.7099  1.3719  2.9005
17852TIP3   OH274970   2.082   7.064   3.763  0.0854  0.5161 -0.3843
17852TIP3    H174971   2.124   7.126   3.823  0.5148  0.9597 -1.1350
17852TIP3    H274972   2.046   7.118   3.693  1.2194 -0.1237 -1.5115
17853TIP3   OH274973   5.235   0.220  15.209 -0.9757 -0.1113  0.3407
17853TIP3    H174974   5.190   0.232  15.292 -1.3464 -1.5051  0.3625
17853TIP3    H274975   5.166   0.226  15.143 -0.7753  0.3641  0.1646
17854TIP3   OH274976   3.955   3.624   2.611 -0.2667  0.5506  0.1214
17854TIP3    H174977   4.010   3.699   2.588 -0.0961  0.8342  1.3563
17854TIP3    H274978   3.902   3.608   2.533  1.4519  0.3567 -1.0695
17855TIP3   OH274979   6.955   5.492   4.467  0.2032  0.7811  0.9065
17855TIP3    H174980   6.909   5.418   4.507  0.1126  0.0413 -0.4921
17855TIP3    H274981   6.902   5.568   4.488 -0.6284  0.2028  0.9568
17856TIP3   OH274982   2.322   1.949   4.820 -0.1760  0.4951  0.0192
17856TIP3    H174983   2.314   1.984   4.909  0.2770  1.5812 -0.3480
17856TIP3    H274984   2.416   1.954   4.801 -0.4813  2.1480 -1.2327
17857TIP3   OH274985   1.906   5.198   1.939 -1.0411 -1.0873 -0.0641
17857TIP3    H174986   1.932   5.107   1.925 -1.6065 -0.9058 -2.9713
17857TIP3    H274987   1.946   5.246   1.866 -1.0371  0.9683  1.1973
17858TIP3   OH274988   0.356   4.715   0.860 -0.3466  0.0998 -0.8743
17858TIP3    H174989   0.409   4.640   0.834 -0.8168  0.0481 -1.7064
17858TIP3    H274990   0.403   4.753   0.934  0.5467 -0.2827 -1.2347
17859TIP3   OH274991   6.625   7.077   0.666  0.2972 -0.1246  0.4411
17859TIP3    H174992   6.695   7.137   0.693 -0.4748  0.2247  1.7814
17859TIP3    H274993   6.549   7.134   0.654 -0.1723 -0.7025  0.6660
17860TIP3   OH274994   3.598   7.103   4.045  0.2484 -0.0117 -0.1005
17860TIP3    H174995   3.688   7.072   4.038  0.3937  0.2674  0.5059
17860TIP3    H274996   3.582   7.110   4.139 -0.4070 -0.0614 -0.2031
17861TIP3   OH274997   4.241   4.406   1.957 -0.2951  0.3933  0.0816
17861TIP3    H174998   4.154   4.371   1.936 -0.7787  2.6744 -2.2977
17861TIP3    H274999   4.301   4.351   1.908 -0.6081  0.0842  0.0394
17862TIP3   OH275000   6.176   4.087   4.837 -0.0589  0.4216  0.3404
17862TIP3    H175001   6.207   4.174   4.814  1.3867 -0.4310 -1.1929
17862TIP3    H275002   6.246   4.051   4.892  0.4417 -0.5280 -0.8603
17863TIP3   OH275003   2.115   3.214   4.760 -0.1105  0.3980 -0.2531
17863TIP3    H175004   2.046   3.160   4.722 -0.0067  0.5441 -0.6559
17863TIP3    H275005   2.076   3.253   4.838  0.0880 -0.9614  0.5461
17864TIP3   OH275006   6.739   0.225   0.948 -0.5760 -0.3952  0.5942
17864TIP3    H175007   6.828   0.251   0.972  0.0285 -0.0021 -1.8205
17864TIP3    H275008   6.718   0.154   1.008  2.1930 -1.9051 -0.0335
17865TIP3   OH275009   0.598   7.104  15.065  0.0369 -0.7137 -0.2206
17865TIP3    H175010   0.680   7.141  15.097  0.6454 -2.2381  0.0232
17865TIP3    H275011   0.554   7.071  15.143 -1.1002  0.5680 -0.2684
17866TIP3   OH275012   1.875   0.560   4.428 -0.0842  0.8935 -0.3666
17866TIP3    H175013   1.955   0.608   4.405  0.3677  0.5679  0.4768
17866TIP3    H275014   1.847   0.520   4.346  0.3670  1.3867 -0.7701
17867TIP3   OH275015   3.768   4.807   2.316  0.3394 -0.4917 -0.4332
17867TIP3    H175016   3.806   4.885   2.276  0.2215  0.1535  0.6665
17867TIP3    H275017   3.832   4.738   2.301  1.7080  0.4383  0.8735
17868TIP3   OH275018   1.628   3.566  13.375  0.0666 -0.0327 -1.0739
17868TIP3    H175019   1.652   3.487  13.327  0.6902  0.0753 -0.9382
17868TIP3    H275020   1.701   3.583  13.433 -0.1243  0.5697 -0.9988
17869TIP3   OH275021   3.031   5.113   2.712 -0.6656  0.3499  0.3245
17869TIP3    H175022   3.087   5.037   2.696 -2.1297 -0.8136  0.5069
17869TIP3    H275023   3.065   5.181   2.653 -0.1155 -0.8563 -0.7999
17870TIP3   OH275024   0.424   5.087   0.431 -0.3492 -0.6677 -0.7097
17870TIP3    H175025   0.412   5.163   0.488  0.2876 -1.2263  0.1940
17870TIP3    H275026   0.336   5.068   0.398 -0.7316 -0.3355  0.0936
17871TIP3   OH275027   2.683   3.806   1.046 -0.1568 -0.1136 -0.2811
17871TIP3    H175028   2.662   3.715   1.067  0.1035 -0.3783 -1.1149
17871TIP3    H275029   2.598   3.850   1.042 -0.2083  0.0367  1.5959
17872TIP3   OH275030   0.419   0.269  11.809  0.2234  0.5479 -0.1114
17872TIP3    H175031   0.384   0.187  11.774  0.8372 -0.6633  1.9555
17872TIP3    H275032   0.341   0.321  11.830 -0.2089  0.0382 -0.4253
17873TIP3   OH275033   6.450   6.101  12.665 -0.1636 -0.1596 -0.3296
17873TIP3    H175034   6.465   6.065  12.578  0.0420 -2.5036  0.6198
17873TIP3    H275035   6.536   6.098  12.708 -0.7774 -1.6687  0.8634
17874TIP3   OH275036   5.759   5.268   1.910  0.1469 -0.5663  1.0484
17874TIP3    H175037   5.746   5.225   1.825  2.2135 -0.7734  0.7725
17874TIP3    H275038   5.676   5.256   1.956 -0.8804 -0.8352 -0.7584
17875TIP3   OH275039   6.052   0.183   3.842 -0.3106  0.1802  0.1573
17875TIP3    H175040   6.048   0.128   3.920  0.8385 -0.8069 -0.4428
17875TIP3    H275041   5.962   0.213   3.830 -0.6510 -0.2627  1.4259
17876TIP3   OH275042   0.443   2.575  15.435 -0.1864 -0.0791  0.0984
17876TIP3    H175043   0.408   2.525  15.509  0.2990  1.2231  1.2543
17876TIP3    H275044   0.527   2.533  15.416  0.3072  0.3796  1.1807
17877TIP3   OH275045   4.691   3.257   4.507  0.0472 -0.0513  0.7530
17877TIP3    H175046   4.667   3.216   4.590 -2.0866  1.3127  0.8887
17877TIP3    H275047   4.786   3.262   4.510  0.0162  0.5924  3.4526
17878TIP3   OH275048   2.167   6.947  14.312  0.3988  0.2562  0.2175
17878TIP3    H175049   2.129   6.949  14.225 -1.3893 -1.2906  0.8948
17878TIP3    H275050   2.195   7.037  14.329  0.7590  0.5763 -1.9033
17879TIP3   OH275051   3.312   2.227   4.941 -0.1820  0.6009 -0.0005
17879TIP3    H175052   3.330   2.202   5.032 -1.4800  0.7324  0.3242
17879TIP3    H275053   3.397   2.225   4.898  0.2966 -0.6798  0.9206
17880TIP3   OH275054   4.662   3.243   4.241 -0.6182  0.3234 -0.3507
17880TIP3    H175055   4.748   3.282   4.224 -0.6251  0.1830 -0.7091
17880TIP3    H275056   4.656   3.239   4.337  0.8261 -1.9849 -0.2863
17881TIP3   OH275057   0.726   4.710   0.568  0.1542  0.4081 -0.3310
17881TIP3    H175058   0.723   4.620   0.600  1.1474  0.3869 -0.2862
17881TIP3    H275059   0.791   4.709   0.499  1.2548  1.3854  0.6459
17882TIP3   OH275060   6.930   2.654  13.407  0.0662 -0.2938  0.3410
17882TIP3    H175061   6.932   2.748  13.423  1.0586 -0.6135  2.4933
17882TIP3    H275062   7.014   2.635  13.365  1.1835 -0.5588  2.5641
17883TIP3   OH275063   0.576   4.619   3.766 -0.1961 -0.4414  0.3662
17883TIP3    H175064   0.505   4.610   3.702 -0.1417  1.0368  0.0635
17883TIP3    H275065   0.531   4.634   3.850 -0.2902  1.6299 -0.0050
17884TIP3   OH275066   5.805   2.455  12.740  0.6237  0.0075 -0.7255
17884TIP3    H175067   5.819   2.538  12.784  0.0518 -0.2152 -0.1150
17884TIP3    H275068   5.870   2.454  12.669  1.5605  0.3693  0.0999
17885TIP3   OH275069   5.606   5.660  12.544 -0.8953  0.6237 -0.0776
17885TIP3    H175070   5.565   5.625  12.624 -0.5184 -1.6047 -0.8032
17885TIP3    H275071   5.554   5.623  12.473  1.1776 -0.6986 -0.9623
17886TIP3   OH275072   6.983   3.570  12.252  0.3809  0.1154  0.4115
17886TIP3    H175073   6.902   3.519  12.240  0.8792 -0.4386 -0.8680
17886TIP3    H275074   7.020   3.537  12.334 -0.1301 -0.4309  0.4365
17887TIP3   OH275075   6.233   1.038   2.568  0.3176 -0.1564  0.0007
17887TIP3    H175076   6.262   0.957   2.609  1.4844 -0.2430 -0.9617
17887TIP3    H275077   6.138   1.028   2.560  0.1223 -0.3507  2.1448
17888TIP3   OH275078   5.140   6.378   4.179  0.0050  0.4952 -0.3104
17888TIP3    H175079   5.070   6.390   4.115  0.3916 -0.4046 -0.9262
17888TIP3    H275080   5.212   6.432   4.146  0.1488  0.1559 -0.5638
17889TIP3   OH275081   4.306   4.703   1.691  0.3888 -0.2567 -0.4158
17889TIP3    H175082   4.311   4.616   1.651 -1.3628  0.0687 -1.4790
17889TIP3    H275083   4.310   4.764   1.616 -1.4784  0.4331 -0.0151
17890TIP3   OH275084   1.341   0.275   1.154 -0.1873 -0.5860 -0.2000
17890TIP3    H175085   1.343   0.348   1.215  2.8005  0.5630 -1.4499
17890TIP3    H275086   1.421   0.226   1.173  0.1285 -0.9559 -2.2288
17891TIP3   OH275087   4.917   6.324   4.010  0.6377 -0.4229 -0.0493
17891TIP3    H175088   4.906   6.236   4.048 -0.2832 -0.2873  0.0322
17891TIP3    H275089   4.932   6.308   3.917 -0.9538 -0.6457 -0.3038
17892TIP3   OH275090   0.552   1.569   4.316  0.2235 -0.2931  0.6879
17892TIP3    H175091   0.586   1.659   4.320 -2.3891  0.9041 -0.8793
17892TIP3    H275092   0.589   1.533   4.236  0.8849 -0.4301  1.0549
17893TIP3   OH275093   0.425   3.302  14.400 -0.5126 -0.7627  0.3689
17893TIP3    H175094   0.445   3.228  14.343  0.3787 -0.8255  0.7461
17893TIP3    H275095   0.407   3.263  14.485  1.7700 -0.4782  1.0457
17894TIP3   OH275096   3.795   4.775   4.997 -0.6715  0.7009  0.0502
17894TIP3    H175097   3.866   4.817   4.949 -0.3159  0.6169  0.5013
17894TIP3    H275098   3.733   4.846   5.014 -0.4975  0.8601  0.0222
17895TIP3   OH275099   4.934   6.606  15.548 -0.1223 -0.6727  0.1253
17895TIP3    H175100   4.934   6.512  15.527  0.4724 -0.7110  0.2999
17895TIP3    H275101   4.927   6.649  15.463 -0.3580 -0.8740  0.0407
17896TIP3   OH275102   2.800   0.297   5.386 -0.4730 -0.2015  0.4626
17896TIP3    H175103   2.875   0.354   5.369 -0.3194 -0.8259 -1.0575
17896TIP3    H275104   2.744   0.349   5.445  0.4714  0.8220  0.4912
17897TIP3   OH275105   6.311   1.418   0.122 -0.8232 -0.4911  0.1621
17897TIP3    H175106   6.350   1.384   0.042  1.5227 -1.4154  1.6015
17897TIP3    H275107   6.224   1.378   0.126 -0.8463 -0.7017 -1.7103
17898TIP3   OH275108   0.066   3.446  14.252  0.2910  0.1288 -0.1299
17898TIP3    H175109  -0.023   3.479  14.240 -0.8955 -2.9352 -0.6998
17898TIP3    H275110   0.091   3.476  14.339 -1.6441  0.3598  0.4019
17899TIP3   OH275111   0.763   0.287   5.434  0.1023 -0.0605  0.4317
17899TIP3    H175112   0.849   0.296   5.392  0.2603  1.3676  0.9936
17899TIP3    H275113   0.763   0.353   5.503 -1.9766  0.9780 -0.4706
17900TIP3   OH275114   1.201   5.252   3.088 -0.4693 -0.1527  0.0219
17900TIP3    H175115   1.288   5.229   3.055 -0.4158 -0.6466  0.4921
17900TIP3    H275116   1.140   5.211   3.027 -0.3743  0.2098 -0.3191
17901TIP3   OH275117   2.430   0.600   2.386 -0.2763  0.0484 -0.2026
17901TIP3    H175118   2.459   0.531   2.327  3.8212 -1.0008  2.6258
17901TIP3    H275119   2.395   0.554   2.462 -0.8471  1.1936  0.2545
17902TIP3   OH275120   0.360   3.621   2.090  0.1252 -0.0653  0.4034
17902TIP3    H175121   0.417   3.620   2.013 -0.8256  0.4021 -0.3214
17902TIP3    H275122   0.282   3.573   2.063 -0.6456  0.9661  0.7359
17903TIP3   OH275123   4.956   1.961  13.302 -0.4300 -0.1662  0.3411
17903TIP3    H175124   4.986   1.934  13.389 -1.7551 -0.8683  0.6265
17903TIP3    H275125   4.904   1.886  13.271 -1.6764  0.8618 -0.1655
17904TIP3   OH275126   3.877   6.536  14.808 -0.0807  0.0459 -0.0995
17904TIP3    H175127   3.833   6.452  14.804 -1.3213  0.6397  0.6130
17904TIP3    H275128   3.855   6.572  14.894  0.4604  1.0738 -0.3651
17905TIP3   OH275129   2.716   1.882   2.276 -0.0440  0.0703  0.3142
17905TIP3    H175130   2.717   1.790   2.250 -2.1631 -0.0651  0.4931
17905TIP3    H275131   2.626   1.897   2.305  0.7351  1.6960  2.1404
17906TIP3   OH275132   4.670   2.147   3.301  0.3315 -0.4920 -0.5518
17906TIP3    H175133   4.590   2.103   3.329 -0.1614 -1.0995 -2.7502
17906TIP3    H275134   4.739   2.106   3.354 -0.6936 -0.4101  0.9017
17907TIP3   OH275135   0.949   1.217   5.294  0.3253 -1.0792  0.1838
17907TIP3    H175136   0.961   1.157   5.220 -0.6542 -0.1077 -0.8119
17907TIP3    H275137   0.887   1.172   5.352 -1.7332 -0.4365 -1.3608
17908TIP3   OH275138   1.306   3.523  15.534  0.3155 -0.1484  0.1069
17908TIP3    H175139   1.215   3.497  15.548  0.3497 -0.2325  0.1746
17908TIP3    H275140   1.301   3.615  15.508  0.2599  0.0373  0.7753
17909TIP3   OH275141   2.069   1.875   3.136  0.1679 -0.5488 -0.1839
17909TIP3    H175142   2.119   1.955   3.149 -2.3812  1.0415  0.6062
17909TIP3    H275143   2.004   1.897   3.069 -0.3197 -2.0776 -0.2601
17910TIP3   OH275144   5.163   2.102   0.112  0.1629 -0.5406 -0.7429
17910TIP3    H175145   5.191   2.069   0.026  3.1362 -0.2570 -0.0250
17910TIP3    H275146   5.241   2.147   0.146 -1.5797  1.1839  1.2395
17911TIP3   OH275147   5.660   4.222  14.304  0.6689  0.3705  0.4590
17911TIP3    H175148   5.755   4.229  14.293  0.6419  0.9252  0.5421
17911TIP3    H275149   5.637   4.141  14.260  1.1298  0.4324  0.0963
17912TIP3   OH275150   1.373   3.573  12.032 -0.8030 -0.5301  0.6418
17912TIP3    H175151   1.420   3.630  12.094 -0.7766  0.0776  0.0779
17912TIP3    H275152   1.310   3.526  12.086 -0.7781 -0.0074  1.1340
17913TIP3   OH275153   0.927   2.202   3.592  0.6894 -0.3811 -0.4287
17913TIP3    H175154   0.931   2.251   3.510 -1.0198 -0.6347 -0.7017
17913TIP3    H275155   0.837   2.170   3.597 -0.0132  1.6002  2.7046
17914TIP3   OH275156   0.022   6.560  10.382  0.4571  0.5145 -0.1326
17914TIP3    H175157   0.011   6.543  10.288 -0.3682  0.1833  0.0174
17914TIP3    H275158   0.070   6.483  10.414  0.7833  0.6507 -0.2932
17915TIP3   OH275159   4.218   0.039   4.545  0.3948 -0.0400  0.5839
17915TIP3    H175160   4.219   0.031   4.641  1.8826  1.9960  0.7935
17915TIP3    H275161   4.197   0.131   4.529  1.9148  0.0863 -0.9669
17916TIP3   OH275162   1.456   1.696  12.179 -0.5751 -0.0960  0.0193
17916TIP3    H175163   1.451   1.703  12.274  0.2938 -0.3078  0.0909
17916TIP3    H275164   1.454   1.602  12.162  1.2727 -0.1736 -0.0135
17917TIP3   OH275165   4.478   1.620   0.973  0.0091  0.1399 -0.2775
17917TIP3    H175166   4.553   1.665   1.012  0.4262 -0.8384  0.0785
17917TIP3    H275167   4.474   1.536   1.019 -1.7755  0.4613  0.2530
17918TIP3   OH275168   4.495   2.073   2.265  0.2711  0.8488 -0.0537
17918TIP3    H175169   4.507   2.081   2.360 -1.0275 -1.8704  0.4319
17918TIP3    H275170   4.538   1.991   2.243 -0.3419  0.9293 -1.6623
17919TIP3   OH275171   0.662   0.650   9.796 -0.4069  0.0784  0.1209
17919TIP3    H175172   0.699   0.680   9.713 -0.5642 -0.2030 -0.0534
17919TIP3    H275173   0.643   0.730   9.844  1.1486  0.2200  0.5454
17920TIP3   OH275174   2.116   5.643   5.083 -0.4562  0.0148  0.4777
17920TIP3    H175175   2.062   5.574   5.123  0.6620 -0.9906  0.3340
17920TIP3    H275176   2.069   5.667   5.004 -1.6499  0.5435  1.3115
17921TIP3   OH275177   0.475   5.426   3.086 -0.4830 -0.2978 -0.5566
17921TIP3    H175178   0.548   5.482   3.057 -0.1136 -0.0965  0.6779
17921TIP3    H275179   0.403   5.487   3.099 -0.4380 -0.2852 -0.3689
17922TIP3   OH275180   1.465   3.079  15.452  0.2031  0.1464  0.0171
17922TIP3    H175181   1.464   3.016  15.524 -1.8801 -1.3441 -1.2048
17922TIP3    H275182   1.413   3.153  15.484 -0.4100 -0.3491  0.1803
17923TIP3   OH275183   5.188   4.384   5.352 -0.7227  0.7508 -0.2132
17923TIP3    H175184   5.190   4.289   5.361  0.2159  0.8436  0.8674
17923TIP3    H275185   5.162   4.416   5.438 -1.3387  1.4751 -0.6529
17924TIP3   OH275186   2.322   2.121   0.063  0.6198  0.7304  0.3547
17924TIP3    H175187   2.333   2.048   0.001  1.6581  0.4457  0.8708
17924TIP3    H275188   2.232   2.152   0.046  0.1625 -0.6455  0.1105
17925TIP3   OH275189   1.232   0.289   1.654  0.0475  0.2694  0.1243
17925TIP3    H175190   1.184   0.226   1.709 -0.0817  1.5464  1.5323
17925TIP3    H275191   1.166   0.352   1.627  0.6189  1.1333  0.7170
17926TIP3   OH275192   0.922   1.580   4.152  0.2154  0.3364  0.1096
17926TIP3    H175193   0.894   1.503   4.201  0.2018  0.5888  0.5080
17926TIP3    H275194   0.926   1.551   4.061  1.1286 -0.4020  0.3591
17927TIP3   OH275195   2.630   3.114   0.307  0.1607 -0.2290  0.0366
17927TIP3    H175196   2.603   3.184   0.367  1.9586  0.9301 -0.4359
17927TIP3    H275197   2.699   3.068   0.355  2.3127  1.3123 -1.3944
17928TIP3   OH275198   5.904   1.563   3.477 -0.3932  0.5711  0.8238
17928TIP3    H175199   5.951   1.602   3.403 -0.2637  1.1098  1.1806
17928TIP3    H275200   5.911   1.469   3.463  0.7242  0.6429  0.8316
17929TIP3   OH275201   3.306   2.324  15.648  0.3106 -0.1895  0.6102
17929TIP3    H175202   3.379   2.337  15.708 -0.3500 -2.2363  1.9950
17929TIP3    H275203   3.317   2.234  15.617 -0.3438  0.2607 -0.9905
17930TIP3   OH275204   1.774   5.432   5.239  0.1120  0.2352  0.5183
17930TIP3    H175205   1.780   5.393   5.327 -0.4089 -0.4641  0.2525
17930TIP3    H275206   1.773   5.357   5.180  0.8885  0.7181 -0.1253
17931TIP3   OH275207   3.474   5.434   5.170  0.2995  0.0747 -0.0343
17931TIP3    H175208   3.540   5.404   5.108  0.6578  0.2211  0.2714
17931TIP3    H275209   3.524   5.466   5.245 -0.1100 -1.9852  1.2226
17932TIP3   OH275210   1.633   5.269  11.283 -0.5244  0.3230  0.4536
17932TIP3    H175211   1.569   5.235  11.221 -2.1370  2.5913  0.7582
17932TIP3    H275212   1.595   5.251  11.369  0.9478 -1.3650  0.8230
17933TIP3   OH275213   5.367   1.338   2.792  0.0367  0.0037 -0.4623
17933TIP3    H175214   5.462   1.348   2.799 -0.0325 -0.1918  1.1547
17933TIP3    H275215   5.334   1.371   2.876 -0.9863 -4.0614  0.9740
17934TIP3   OH275216   5.898   2.929  11.458 -0.0919  0.7809 -0.0517
17934TIP3    H175217   5.839   2.990  11.501 -0.4793  0.4716 -0.1378
17934TIP3    H275218   5.855   2.908  11.375  0.1310  0.5416 -0.1088
17935TIP3   OH275219   2.186   2.485   5.135  0.0466  0.8986  0.4182
17935TIP3    H175220   2.204   2.447   5.049  0.0185  1.9573 -0.0710
17935TIP3    H275221   2.227   2.424   5.197 -3.2087 -2.0386  0.0021
17936TIP3   OH275222   2.684   6.609   1.194  0.7058 -0.5273 -0.7183
17936TIP3    H175223   2.714   6.627   1.284  0.3311 -1.3563 -0.4212
17936TIP3    H275224   2.589   6.601   1.202  0.4919  0.9292 -1.4644
17937TIP3   OH275225   2.478   2.845  13.899 -0.2504  0.3054 -0.2009
17937TIP3    H175226   2.427   2.791  13.959 -2.0543  1.2772 -0.8013
17937TIP3    H275227   2.496   2.925  13.949 -1.2533  0.8729 -0.7160
17938TIP3   OH275228   0.796   6.769   3.797 -0.9971 -0.2869 -0.3849
17938TIP3    H175229   0.732   6.779   3.868 -0.0594 -0.5285  0.5299
17938TIP3    H275230   0.757   6.703   3.739 -0.1701 -3.0800  1.9398
17939TIP3   OH275231   3.302   1.240   0.889 -0.4016  0.4092 -0.5134
17939TIP3    H175232   3.303   1.335   0.879  3.2773  0.4589 -0.7823
17939TIP3    H275233   3.362   1.207   0.822 -1.6616 -2.1625 -0.5225
17940TIP3   OH275234   5.322   1.042   5.254 -0.3733 -0.3958  0.8545
17940TIP3    H175235   5.321   1.078   5.343  1.0548  1.1494  0.2909
17940TIP3    H275236   5.401   0.988   5.251 -0.2659 -0.2194  0.4450
17941TIP3   OH275237   0.082   0.494   3.579 -0.5912 -0.3099 -0.1016
17941TIP3    H175238   0.044   0.582   3.576 -0.1271 -0.1056 -0.0486
17941TIP3    H275239   0.140   0.495   3.656 -0.6615 -0.6933 -0.0397
17942TIP3   OH275240   3.475   0.041  12.734  0.5249 -0.2171 -0.0614
17942TIP3    H175241   3.437  -0.001  12.656 -0.6702  1.0985 -0.2260
17942TIP3    H275242   3.496   0.130  12.706  0.2755  0.2144  1.0660
17943TIP3   OH275243   5.384   1.076   3.579  0.6641  0.1267 -0.0960
17943TIP3    H175244   5.409   1.009   3.642 -1.8315 -0.6199  0.1930
17943TIP3    H275245   5.317   1.127   3.624  1.2950  1.7845 -0.9453
17944TIP3   OH275246   2.082   5.016   0.788  0.4599 -0.1196 -0.1602
17944TIP3    H175247   2.060   5.089   0.846 -0.3497 -2.2636  2.4310
17944TIP3    H275248   2.009   5.010   0.727 -0.7503 -0.2410  1.2291
17945TIP3   OH275249   1.034   2.539   5.367  0.1051  0.2111  0.2990
17945TIP3    H175250   1.112   2.595   5.370 -0.4871  1.1942 -1.3608
17945TIP3    H275251   0.962   2.598   5.392 -0.2830 -0.3590  0.5500
17946TIP3   OH275252   0.388   5.546   2.002  0.4460 -0.3919  0.2917
17946TIP3    H175253   0.452   5.491   2.047 -0.7148 -0.0132  2.5742
17946TIP3    H275254   0.433   5.630   1.989  0.9368 -0.6312  0.4318
17947TIP3   OH275255   4.619   1.875   1.860 -0.0765 -0.3766 -0.1455
17947TIP3    H175256   4.557   1.914   1.798 -0.6345  0.2117  0.7556
17947TIP3    H275257   4.669   1.812   1.808 -0.2310  0.4184 -1.2846
17948TIP3   OH275258   6.841   5.946   4.377 -0.2821  0.3569  0.7351
17948TIP3    H175259   6.912   6.004   4.351 -1.3449  1.2203 -0.3406
17948TIP3    H275260   6.847   5.872   4.316 -0.4357  0.5454  0.4874
17949TIP3   OH275261   6.074   0.029   0.267  0.1228 -0.8678 -0.0012
17949TIP3    H175262   6.088  -0.001   0.178 -0.3196 -1.9901  0.2895
17949TIP3    H275263   6.045  -0.049   0.315 -0.5359 -0.0898  0.9128
17950TIP3   OH275264   0.280   5.535   6.153 -0.0371  0.5014 -0.1364
17950TIP3    H175265   0.206   5.498   6.200  0.3299  1.9320  1.6509
17950TIP3    H275266   0.246   5.552   6.065 -0.5827 -2.7365 -0.7081
17951TIP3   OH275267   2.240   5.915  14.262 -0.2053 -0.5495 -0.4717
17951TIP3    H175268   2.299   5.840  14.270  0.4745  0.0134 -0.1182
17951TIP3    H275269   2.297   5.992  14.264 -0.9336  0.0058 -0.2988
17952TIP3   OH275270   6.898   6.370   2.115  0.0067 -0.2344 -0.0230
17952TIP3    H175271   6.857   6.450   2.082 -1.2051 -0.2262  1.4238
17952TIP3    H275272   6.838   6.300   2.089  1.8994 -1.0000 -2.8420
17953TIP3   OH275273   1.888   5.413   1.362 -0.3156  0.0116 -0.4314
17953TIP3    H175274   1.937   5.443   1.285 -0.0326 -0.9492 -0.6360
17953TIP3    H275275   1.850   5.493   1.398  1.9487  0.9021  0.1372
17954TIP3   OH275276   4.862   1.413   5.558 -0.0826 -0.2207 -0.0277
17954TIP3    H175277   4.781   1.462   5.547  0.6440  0.6106 -2.3637
17954TIP3    H275278   4.917   1.470   5.613 -0.9303 -0.6657  1.3275
17955TIP3   OH275279   6.417   7.110   5.132 -0.4297  0.3003  0.3062
17955TIP3    H175280   6.402   7.145   5.220 -1.8025 -1.7992  0.9833
17955TIP3    H275281   6.504   7.142   5.108 -0.4170  1.7201  2.0001
17956TIP3   OH275282   0.885   0.050   1.161  0.2758  0.7332 -0.0035
17956TIP3    H175283   0.931   0.132   1.181  1.8731  0.3745 -1.8970
17956TIP3    H275284   0.899  -0.005   1.238 -0.8638  2.2215  1.3155
17957TIP3   OH275285   4.906   5.288   4.290 -0.4646 -0.1578 -0.0048
17957TIP3    H175286   4.837   5.354   4.295 -0.1887  0.3063 -1.7331
17957TIP3    H275287   4.984   5.336   4.266  0.4994 -0.6908  1.8835
17958TIP3   OH275288   4.510   2.202   1.202  0.2889  0.2097 -0.2943
17958TIP3    H175289   4.448   2.129   1.210  0.5732  0.0202  0.2254
17958TIP3    H275290   4.484   2.262   1.273 -2.8324  2.8425 -3.2935
17959TIP3   OH275291   4.827   6.535   0.707 -0.6562 -0.0197  0.1192
17959TIP3    H175292   4.913   6.498   0.688 -0.9766 -0.7573  0.0569
17959TIP3    H275293   4.775   6.461   0.738 -1.1325  0.5116  0.6162
17960TIP3   OH275294   2.555   0.795  15.043  0.3125 -0.0363  0.6190
17960TIP3    H175295   2.634   0.763  15.000 -0.0014 -0.4847  0.3690
17960TIP3    H275296   2.506   0.716  15.066  0.5797  0.1852  2.0309
17961TIP3   OH275297   2.195   5.455   0.362 -0.4181 -0.3249  0.2634
17961TIP3    H175298   2.209   5.380   0.304  1.2874 -0.4065  0.7047
17961TIP3    H275299   2.131   5.424   0.426 -1.4544 -0.6115 -0.8928
17962TIP3   OH275300   1.170   2.329   5.514 -0.0200  0.0455  0.7945
17962TIP3    H175301   1.096   2.370   5.470  0.3737  0.2516  0.3072
17962TIP3    H275302   1.206   2.398   5.570  0.6483  0.3807 -0.0329
17963TIP3   OH275303   1.518   1.241   5.074  0.0267 -0.1629 -0.1139
17963TIP3    H175304   1.552   1.279   4.993  0.0800 -0.6244 -0.3131
17963TIP3    H275305   1.423   1.232   5.059 -0.1691  0.9316  0.3633
17964TIP3   OH275306   5.863   3.630   4.733  0.5905 -0.3098  0.1543
17964TIP3    H175307   5.853   3.612   4.826  1.0254 -1.0932  0.0528
17964TIP3    H275308   5.914   3.556   4.699 -0.8456 -0.8085 -0.9919
17965TIP3   OH275309   2.186   5.888   2.635 -0.4812 -0.4057  0.1095
17965TIP3    H175310   2.110   5.905   2.578  0.2021 -1.1621 -1.0758
17965TIP3    H275311   2.148   5.859   2.718 -1.5034  0.1418 -0.1495
17966TIP3   OH275312   6.472   1.855  10.338  0.5713 -1.0717  0.3618
17966TIP3    H175313   6.435   1.933  10.379  1.4461 -0.8134  0.6704
17966TIP3    H275314   6.536   1.823  10.401  0.2022 -2.0585  0.2504
17967TIP3   OH275315   2.814   4.969   2.127 -0.0814 -0.0505 -0.1598
17967TIP3    H175316   2.859   4.885   2.137 -1.0761 -0.6165 -0.2957
17967TIP3    H275317   2.845   5.021   2.201  2.4665  0.4014 -1.4086
17968TIP3   OH275318   3.563   1.109   1.005  0.2281  0.2350  0.8431
17968TIP3    H175319   3.482   1.119   1.054  0.1304  0.9252  0.5693
17968TIP3    H275320   3.589   1.018   1.017 -0.2986  0.1542  1.3788
17969TIP3   OH275321   0.938   0.370   3.024  0.2456 -0.2683  0.0332
17969TIP3    H175322   0.889   0.321   3.089  0.1137  1.2478  1.1230
17969TIP3    H275323   1.021   0.390   3.066  0.0407  0.9926 -0.1159
17970TIP3   OH275324   0.202   3.854  14.283 -0.7458  0.0471 -0.4822
17970TIP3    H175325   0.149   3.808  14.349 -2.5814  0.9789 -1.2323
17970TIP3    H275326   0.138   3.900  14.229  0.7994  0.3756 -2.1223
17971TIP3   OH275327   2.435   6.524   2.772  0.3009 -0.7507  0.5359
17971TIP3    H175328   2.422   6.609   2.814 -1.9510 -2.0705  2.8065
17971TIP3    H275329   2.518   6.533   2.725  0.4951  2.4490  1.2570
17972TIP3   OH275330   0.572   1.652   1.341  0.0636 -0.2736  0.3879
17972TIP3    H175331   0.667   1.645   1.337  0.0146 -0.8737  0.1319
17972TIP3    H275332   0.545   1.582   1.401 -0.2416 -0.4048  0.1048
17973TIP3   OH275333   6.044   0.730   0.901 -0.1833  0.0554 -0.8161
17973TIP3    H175334   6.118   0.673   0.883  1.2986  1.7957 -0.5563
17973TIP3    H275335   6.023   0.714   0.993 -0.0777 -0.3997 -0.8720
17974TIP3   OH275336   6.426   2.219   4.728 -0.4200  0.0761 -0.3157
17974TIP3    H175337   6.417   2.275   4.651  1.3566 -0.9118 -1.2945
17974TIP3    H275338   6.368   2.145   4.711  0.2177 -0.3007 -0.8718
17975TIP3   OH275339   4.053   6.009   1.611  0.2443 -0.1003  0.0377
17975TIP3    H175340   4.084   6.009   1.521  1.3597 -3.8035  0.2570
17975TIP3    H275341   4.133   6.017   1.664 -0.2764  0.7561  0.7238
17976TIP3   OH275342   5.727   4.137   2.908 -0.3594 -0.1513 -0.2125
17976TIP3    H175343   5.659   4.135   2.975  1.5532 -1.0885  1.8349
17976TIP3    H275344   5.809   4.137   2.958  1.3232  5.0902 -2.3340
17977TIP3   OH275345   1.270   1.776   3.122  0.4224 -0.2530 -0.4594
17977TIP3    H175346   1.176   1.758   3.126  0.4392 -0.1773  1.2115
17977TIP3    H275347   1.297   1.743   3.037 -0.6997 -2.4172 -0.0643
17978TIP3   OH275348   3.932   6.535  10.441 -0.2517 -1.3411 -0.8202
17978TIP3    H175349   3.894   6.450  10.459 -2.5218 -0.2600 -0.1560
17978TIP3    H275350   3.859   6.597  10.448  1.4940  0.8155 -0.0675
17979TIP3   OH275351   5.010   2.713   3.183 -0.3873 -0.2584  0.2235
17979TIP3    H175352   4.980   2.623   3.171  2.2348 -1.0419 -1.0219
17979TIP3    H275353   5.027   2.746   3.095  1.6137  0.3436  0.7738
17980TIP3   OH275354   5.705   3.020   0.648  0.0044 -0.1875  0.2267
17980TIP3    H175355   5.611   3.037   0.647 -0.1764 -1.1073 -0.0810
17980TIP3    H275356   5.719   2.963   0.572  1.1402  1.5068 -0.8985
17981TIP3   OH275357   4.513   4.581   9.747  0.7646  0.8293  0.3857
17981TIP3    H175358   4.468   4.539   9.674  0.3107  1.5943  0.2137
17981TIP3    H275359   4.590   4.526   9.762  0.8325  0.6203 -0.6241
17982TIP3   OH275360   2.351   5.583   1.315  0.1349 -0.2326  0.0988
17982TIP3    H175361   2.445   5.576   1.332  0.0849 -0.3368  0.3504
17982TIP3    H275362   2.339   5.552   1.225  0.5764  1.5464 -0.6070
17983TIP3   OH275363   4.533   1.586   2.725  0.8293 -0.2738  0.5109
17983TIP3    H175364   4.554   1.612   2.815  0.2603  1.5108  0.1682
17983TIP3    H275365   4.455   1.532   2.734  0.0908  0.8403  1.0330
17984TIP3   OH275366   3.587   4.837   3.887 -0.0326  0.0166  0.9455
17984TIP3    H175367   3.667   4.882   3.912 -0.1645  0.1510  1.1248
17984TIP3    H275368   3.553   4.886   3.812  1.0665 -1.1529 -0.3950
17985TIP3   OH275369   4.905   6.146   2.431  0.5406 -0.3488  0.6228
17985TIP3    H175370   4.832   6.176   2.486  0.3203 -0.2769  0.2983
17985TIP3    H275371   4.977   6.205   2.452  0.9757 -1.3587  2.0502
17986TIP3   OH275372   0.736   4.330  11.203  0.1110  0.3980  0.7735
17986TIP3    H175373   0.707   4.321  11.112 -0.3304 -0.3404  0.9824
17986TIP3    H275374   0.829   4.351  11.196  0.0976  0.2838  0.1516
17987TIP3   OH275375   6.265   3.421   3.332 -0.4131  0.0891 -0.5616
17987TIP3    H175376   6.208   3.350   3.361 -0.3180  0.6040  1.0115
17987TIP3    H275377   6.209   3.498   3.328  0.1219  0.5959  0.9838
17988TIP3   OH275378   2.755   3.753   2.125  0.0100 -0.0241  0.0756
17988TIP3    H175379   2.791   3.814   2.189  0.9884  0.7179 -1.1331
17988TIP3    H275380   2.832   3.709   2.088 -0.3653  0.7295 -1.7167
17989TIP3   OH275381   6.954   4.662   3.496 -0.4678  0.1634 -0.1283
17989TIP3    H175382   6.979   4.731   3.557 -0.0382 -0.7341  0.7612
17989TIP3    H275383   6.940   4.585   3.552 -1.3124 -0.3670 -1.0445
17990TIP3   OH275384   0.946   1.215  11.008  0.0206  0.1785 -0.0499
17990TIP3    H175385   0.884   1.252  10.944  0.9297  0.1085 -0.9867
17990TIP3    H275386   0.935   1.120  11.000 -2.2529  0.1078  2.2990
17991TIP3   OH275387   3.532   1.078   5.242  0.2112 -0.5334 -0.6757
17991TIP3    H175388   3.618   1.056   5.209  0.5796  0.9358 -0.7817
17991TIP3    H275389   3.548   1.123   5.325 -0.2670  1.4617 -1.5781
17992TIP3   OH275390   2.517   3.006   3.397 -0.2519 -0.1376 -0.9295
17992TIP3    H175391   2.550   3.050   3.475  0.2625 -0.6799 -0.8407
17992TIP3    H275392   2.486   3.078   3.341  1.5051  0.4380 -1.2211
17993TIP3   OH275393   2.973   3.564   2.040  0.1390  0.8513 -0.2085
17993TIP3    H175394   2.959   3.519   1.956  0.0845 -1.1519  0.8297
17993TIP3    H275395   3.056   3.530   2.072 -1.0540 -0.3800  1.7301
17994TIP3   OH275396   2.197   1.808  15.270  0.3076 -0.2724 -0.2220
17994TIP3    H175397   2.166   1.888  15.312  0.5819 -1.1871  1.9007
17994TIP3    H275398   2.119   1.772  15.227  0.0198  0.7527 -0.5821
17995TIP3   OH275399   5.360   0.004  12.885  0.1367 -0.3730  0.3081
17995TIP3    H175400   5.439  -0.042  12.912 -0.0182  0.0453  1.5553
17995TIP3    H275401   5.307   0.009  12.965 -0.4945  0.6640 -0.1512
17996TIP3   OH275402   3.439   0.887  12.970  0.3559 -0.1447 -0.1884
17996TIP3    H175403   3.445   0.888  12.874  1.2799 -0.5349 -0.1475
17996TIP3    H275404   3.439   0.980  12.994 -2.3153  0.0522 -0.6608
17997TIP3   OH275405   6.337   3.924  11.078  0.0352  0.2411  0.5037
17997TIP3    H175406   6.270   3.891  11.136  0.0736  0.1032  0.4707
17997TIP3    H275407   6.292   3.938  10.995  0.2595 -0.8420  0.1759
17998TIP3   OH275408   4.386   1.484  13.331  0.0509 -0.0718  0.1756
17998TIP3    H175409   4.339   1.411  13.292  1.4800  0.6251 -3.1885
17998TIP3    H275410   4.345   1.562  13.293 -0.4256  0.8904  2.4901
17999TIP3   OH275411   3.420   1.161   0.384  0.1047  0.4672  0.0792
17999TIP3    H175412   3.512   1.190   0.379 -0.2338  1.6536  0.3127
17999TIP3    H275413   3.424   1.077   0.430  1.1645 -0.0222 -0.8655
18000TIP3   OH275414   5.320   6.322   4.734 -0.4629 -0.4607  0.1043
18000TIP3    H175415   5.259   6.396   4.743  0.8387  0.7415 -0.6491
18000TIP3    H275416   5.360   6.313   4.821 -1.0115 -0.6595  0.3456
18001TIP3   OH275417   3.709   6.583   3.304  0.3044  0.3227 -0.3594
18001TIP3    H175418   3.699   6.636   3.225  0.4991  0.3481 -0.3672
18001TIP3    H275419   3.630   6.601   3.355  0.0012  0.0248 -0.7133
18002TIP3   OH275420   5.046   4.582   1.300  0.0982  1.1103 -0.5669
18002TIP3    H175421   5.042   4.526   1.378  0.1072  0.7431 -0.8288
18002TIP3    H275422   4.956   4.585   1.268  0.0550  1.4328 -0.4287
18003TIP3   OH275423   1.449   2.813   4.493 -0.1091 -0.2101 -0.0911
18003TIP3    H175424   1.444   2.822   4.589  0.2662 -2.2061  0.1650
18003TIP3    H275425   1.529   2.860   4.469  0.1337 -0.2079  0.6671
18004TIP3   OH275426   5.071   0.003   2.356  0.0536  0.5031  0.1662
18004TIP3    H175427   5.058   0.035   2.266 -0.3227 -2.2827 -0.9037
18004TIP3    H275428   4.983   0.005   2.394  0.1501  1.3457  0.3564
18005TIP3   OH275429   1.081   3.333   4.264  0.1364 -0.1642  0.5855
18005TIP3    H175430   1.040   3.378   4.337 -0.9542  1.1529 -0.7846
18005TIP3    H275431   1.170   3.368   4.260  0.1691 -0.1722  1.1903
18006TIP3   OH275432   4.396   0.678  15.154  0.3644 -0.9409 -0.1093
18006TIP3    H175433   4.413   0.677  15.059 -1.0652  2.9236 -0.6033
18006TIP3    H275434   4.479   0.707  15.192  0.1526  0.3238 -0.5570
18007TIP3   OH275435   5.155   6.310   0.327  0.1189  0.4797  0.4383
18007TIP3    H175436   5.115   6.387   0.286  1.3640  1.3241  0.7710
18007TIP3    H275437   5.213   6.274   0.260  0.1824  0.3286  0.5726
18008TIP3   OH275438   4.388   2.119   6.206  0.4236  0.1557  0.4041
18008TIP3    H175439   4.317   2.144   6.264 -0.1438  0.1373 -0.2599
18008TIP3    H275440   4.386   2.183   6.135  0.0750 -0.7172 -0.4100
18009TIP3   OH275441   2.586   0.643   2.767  0.4740  0.1119 -0.4590
18009TIP3    H175442   2.579   0.705   2.840  1.8820 -1.3592  0.9985
18009TIP3    H275443   2.640   0.689   2.702  1.0265  0.6540  0.3572
18010TIP3   OH275444   1.963   4.517  11.611  0.0217  0.5106 -1.0093
18010TIP3    H175445   2.038   4.549  11.662  1.9576  0.6306 -3.7311
18010TIP3    H275446   1.987   4.427  11.587 -1.2186  0.1659 -1.0546
18011TIP3   OH275447   4.894   1.463   3.981  0.0985 -0.0405 -0.5905
18011TIP3    H175448   4.884   1.404   3.907  0.1551 -0.6409 -0.1302
18011TIP3    H275449   4.940   1.411   4.047  0.5389  0.6575 -0.3348
18012TIP3   OH275450   3.863   3.950   2.287  0.2111 -0.2939  0.4164
18012TIP3    H175451   3.870   3.874   2.230 -0.8325 -0.2158  0.1643
18012TIP3    H275452   3.901   4.022   2.237 -1.4251 -0.0513 -0.5527
18013TIP3   OH275453   5.701   2.948   1.220  0.0042 -0.1130  0.3028
18013TIP3    H175454   5.678   2.951   1.127 -1.1444  0.3328  0.5791
18013TIP3    H275455   5.796   2.955   1.222 -0.0861  2.0469 -0.7595
18014TIP3   OH275456   5.798   2.589   2.525  0.1044 -0.2534  0.2113
18014TIP3    H175457   5.728   2.586   2.461  1.1934 -0.2509 -1.0236
18014TIP3    H275458   5.835   2.501   2.525  1.0004  0.1079 -0.2109
18015TIP3   OH275459   3.827   2.060   3.809 -0.5652 -0.3206  0.3712
18015TIP3    H175460   3.754   2.016   3.766 -0.2330 -1.2831  0.7753
18015TIP3    H275461   3.864   2.116   3.740 -0.9324 -0.7425 -0.1815
18016TIP3   OH275462   3.499   2.218   3.577 -0.1191 -0.5554 -0.4203
18016TIP3    H175463   3.515   2.129   3.606  0.4599  0.1977  1.7304
18016TIP3    H275464   3.412   2.239   3.611 -0.0207 -0.1180 -0.4356
18017TIP3   OH275465   5.400   5.129   3.002  0.2107 -0.2888  0.3073
18017TIP3    H175466   5.434   5.102   2.917  1.4412 -0.0080  0.6842
18017TIP3    H275467   5.423   5.057   3.061 -1.1708 -0.7571  0.3029
18018TIP3   OH275468   5.035   3.647   5.876 -0.0589  0.4597 -0.0866
18018TIP3    H175469   5.128   3.624   5.879  1.1408  4.4931  0.1292
18018TIP3    H275470   5.009   3.654   5.968 -0.1982  0.4753 -0.1268
18019TIP3   OH275471   4.462   4.697   5.222  0.3448  0.1390 -0.4006
18019TIP3    H175472   4.491   4.649   5.145  0.2906  0.0108 -0.3417
18019TIP3    H275473   4.504   4.653   5.295  1.4819  1.0869 -0.4582
18020TIP3   OH275474   2.771   4.676   1.558  0.3275  0.1673  0.6517
18020TIP3    H175475   2.809   4.719   1.634 -0.2855 -1.3163  1.8499
18020TIP3    H275476   2.699   4.624   1.593 -0.8425  0.5013 -1.1423
18021TIP3   OH275477   3.672   3.461  13.080  0.0926 -0.0650 -0.2088
18021TIP3    H175478   3.590   3.443  13.034 -0.1831  1.8114 -0.5482
18021TIP3    H275479   3.739   3.414  13.030 -0.6041 -0.5131 -0.7322
18022TIP3   OH275480   6.837   6.973   3.663 -0.4999  0.4663  0.8070
18022TIP3    H175481   6.793   7.058   3.663 -0.1310  0.6655  0.6528
18022TIP3    H275482   6.897   6.978   3.588 -1.8851 -0.6755 -0.4231
18023TIP3   OH275483   5.163   3.999   1.605 -0.3657  0.5053  0.5298
18023TIP3    H175484   5.114   3.989   1.524  0.0917 -1.4293  0.4343
18023TIP3    H275485   5.162   3.912   1.645  1.6320  0.7619  1.2934
18024TIP3   OH275486   3.699   2.388  10.580 -0.1346 -0.2891 -0.0156
18024TIP3    H175487   3.706   2.333  10.658 -0.8318  0.3082  0.4747
18024TIP3    H275488   3.607   2.414  10.577  0.0622  0.3671 -0.5825
18025TIP3   OH275489   5.271   4.513   4.271  0.0639  0.2617 -0.3696
18025TIP3    H175490   5.271   4.489   4.364  0.9539  0.9144 -0.1832
18025TIP3    H275491   5.334   4.453   4.231 -1.7823 -1.3958 -0.9738
18026TIP3   OH275492   5.759   2.340   1.220  0.4292 -0.0382  0.1232
18026TIP3    H175493   5.757   2.270   1.154  0.8987 -1.2684  1.3612
18026TIP3    H275494   5.668   2.347   1.250  0.4886 -0.5756  0.4420
18027TIP3   OH275495   0.494   5.599   0.095  0.2965 -0.5298  0.6297
18027TIP3    H175496   0.448   5.649   0.027  1.3204  0.4525  0.6276
18027TIP3    H275497   0.428   5.538   0.129 -1.1735  1.2100  1.0460
18028TIP3   OH275498   5.925   4.431  14.655  0.6741 -0.1670  0.2476
18028TIP3    H175499   5.871   4.482  14.596 -0.7950  0.0903  1.7240
18028TIP3    H275500   6.008   4.477  14.658 -0.1722  1.4054  0.5215
18029TIP3   OH275501   6.010   7.112   3.125 -0.1273  0.0234 -0.5569
18029TIP3    H175502   5.919   7.110   3.154 -0.2928  1.5861 -0.8661
18029TIP3    H275503   6.049   7.185   3.174  1.0633 -0.8161 -0.1935
18030TIP3   OH275504   3.198   4.573   0.991  0.4600 -0.4048 -0.4028
18030TIP3    H175505   3.221   4.498   1.045 -0.0988  0.8582  1.6926
18030TIP3    H275506   3.281   4.620   0.979  0.3250  0.1491  0.7409
18031TIP3   OH275507   1.599   2.546   3.991  0.6193 -0.0989  0.2510
18031TIP3    H175508   1.605   2.517   3.900  1.1744  0.7007  0.0340
18031TIP3    H275509   1.505   2.545   4.010  0.5216 -0.5295 -0.2403
18032TIP3   OH275510   4.678   1.029  14.199  0.1887  0.4383  0.2367
18032TIP3    H175511   4.665   1.092  14.270 -0.0894 -0.0671  0.6397
18032TIP3    H275512   4.737   0.963  14.235  0.5566  0.5112 -0.2145
18033TIP3   OH275513   3.428   2.618  15.549  0.5939 -0.0066  0.1234
18033TIP3    H175514   3.514   2.612  15.589  1.2122  1.0054 -0.9713
18033TIP3    H275515   3.399   2.708  15.569  0.1359 -0.0864 -0.1616
18034TIP3   OH275516   5.131   1.964   4.033  0.6720 -0.2612 -0.5228
18034TIP3    H175517   5.212   1.924   4.002  0.5801  0.4167 -1.6754
18034TIP3    H275518   5.065   1.897   4.019  0.7708 -0.2501 -1.0508
18035TIP3   OH275519   2.452   2.437  13.542  0.0650  0.5396 -0.1903
18035TIP3    H175520   2.487   2.526  13.541  0.2109  0.4900  0.5468
18035TIP3    H275521   2.385   2.438  13.473  0.1969  1.1615 -0.3196
18036TIP3   OH275522   4.270   4.104  10.656 -0.2923 -0.4913 -0.0030
18036TIP3    H175523   4.186   4.147  10.641 -1.8718 -2.0023  3.5043
18036TIP3    H275524   4.248   4.014  10.679  2.1926 -0.7438  1.8446
18037TIP3   OH275525   0.000   1.088   4.397 -0.2236 -0.1778 -0.3713
18037TIP3    H175526  -0.026   1.057   4.484 -1.2174 -1.6341 -1.1447
18037TIP3    H275527  -0.002   1.183   4.404 -0.1533 -0.2602  1.2339
18038TIP3   OH275528   3.871   1.735   1.614 -0.4539  0.3297  0.2100
18038TIP3    H175529   3.893   1.767   1.527  0.0074 -0.2645  0.0985
18038TIP3    H275530   3.777   1.749   1.622 -0.7063 -0.6449 -0.8367
18039TIP3   OH275531   0.617   0.841   4.195 -0.6884 -0.9205  1.0017
18039TIP3    H175532   0.667   0.882   4.266 -1.3820 -0.7081  1.3742
18039TIP3    H275533   0.570   0.914   4.154 -1.1018 -1.1904  0.9916
18040TIP3   OH275534   5.343   2.313   3.914 -0.3471 -0.0672 -0.2602
18040TIP3    H175535   5.344   2.402   3.880  1.6524 -0.2754 -0.8714
18040TIP3    H275536   5.432   2.298   3.945 -1.7236 -0.1925  4.4372
18041TIP3   OH275537   2.936   1.480  12.042  0.1809 -0.2555  0.4244
18041TIP3    H175538   2.905   1.394  12.014 -0.3184 -0.3045  1.1183
18041TIP3    H275539   2.995   1.461  12.114  1.8828 -0.1689 -0.8715
18042TIP3   OH275540   6.945   0.548   3.866  0.4311 -0.1906 -0.3209
18042TIP3    H175541   7.034   0.582   3.857 -0.0132  0.9558 -0.6213
18042TIP3    H275542   6.945   0.502   3.950  0.8818  1.2285  0.4932
18043TIP3   OH275543   5.575   4.338  13.284  0.1382 -0.2107 -0.0651
18043TIP3    H175544   5.555   4.359  13.375 -0.5599  0.1050 -0.2860
18043TIP3    H275545   5.558   4.419  13.236  1.2346 -0.1555 -0.3810
18044TIP3   OH275546   3.685   2.312   1.906  0.4672  0.9358  0.5324
18044TIP3    H175547   3.758   2.374   1.902  0.4140  0.9563 -0.5922
18044TIP3    H275548   3.638   2.335   1.986  1.3162  1.3459  0.9322
18045TIP3   OH275549   0.478   1.292   4.863  0.4334  0.0859 -0.0520
18045TIP3    H175550   0.430   1.311   4.783 -0.5201  0.1565  0.5156
18045TIP3    H275551   0.438   1.212   4.897  0.7072  0.1489  0.4321
18046TIP3   OH275552   5.278   4.177  15.280  0.1013  0.2933  0.4976
18046TIP3    H175553   5.215   4.217  15.339 -1.0340 -0.0395 -0.4459
18046TIP3    H275554   5.302   4.095  15.322 -1.5965 -0.5043 -0.0190
18047TIP3   OH275555   0.155   7.113   2.504  0.4621 -0.0451  0.1688
18047TIP3    H175556   0.127   7.204   2.492  0.7561  0.0231  0.0067
18047TIP3    H275557   0.190   7.111   2.593  0.7454  0.0752  0.0607
18048TIP3   OH275558   3.769   3.811   5.476  0.0796 -0.6320 -0.1285
18048TIP3    H175559   3.717   3.766   5.543 -1.1856  0.5995 -0.2163
18048TIP3    H275560   3.715   3.887   5.453  1.1520 -0.2721 -1.5222
18049TIP3   OH275561   1.507   5.271  14.180  0.2629  0.0062 -0.4486
18049TIP3    H175562   1.564   5.262  14.104 -0.5461 -1.7345 -0.9042
18049TIP3    H275563   1.544   5.212  14.245  0.4075  0.7813  0.1895
18050TIP3   OH275564   3.455   3.567   3.283 -0.5200 -1.0837 -0.1202
18050TIP3    H175565   3.503   3.581   3.201 -0.1254 -0.0032  0.2831
18050TIP3    H275566   3.519   3.585   3.352 -1.5824  0.8173  0.4386
18051TIP3   OH275567   4.003   7.050   1.176 -1.3438  0.2157 -0.4509
18051TIP3    H175568   3.931   7.006   1.130 -2.0153  0.9269 -0.1022
18051TIP3    H275569   4.027   6.990   1.246 -0.6342 -0.6647 -1.4122
18052TIP3   OH275570   1.122   3.636  13.651  0.6826 -0.2596 -0.0408
18052TIP3    H175571   1.086   3.634  13.563  0.5898 -0.0752 -0.0089
18052TIP3    H275572   1.051   3.670  13.705  1.1125  0.7627 -0.0895
18053TIP3   OH275573   1.756   5.163  14.542 -0.3837  0.2434  0.1279
18053TIP3    H175574   1.664   5.151  14.519  0.3906 -0.6792 -2.9992
18053TIP3    H275575   1.776   5.252  14.514 -0.2604  0.3777  0.6342
18054TIP3   OH275576   4.631   5.237   1.292 -0.4535 -0.0923  0.3503
18054TIP3    H175577   4.709   5.191   1.321  0.3581  1.2758  0.4048
18054TIP3    H275578   4.621   5.213   1.200 -0.5710 -1.0821  0.6184
18055TIP3   OH275579   0.848   2.208   2.579  0.2239 -0.1954 -0.2721
18055TIP3    H175580   0.847   2.118   2.613  1.3008 -0.1793 -0.1577
18055TIP3    H275581   0.844   2.264   2.656  1.9688 -0.1613 -0.1623
18056TIP3   OH275582   1.895   3.649  11.773  0.3601 -0.2988 -0.3116
18056TIP3    H175583   1.818   3.645  11.829 -0.1761 -2.3121 -1.0957
18056TIP3    H275584   1.893   3.737  11.736 -0.4716  0.3317  1.1367
18057TIP3   OH275585   2.982   1.469   4.051  0.0093  0.0029 -0.0948
18057TIP3    H175586   3.052   1.526   4.082  0.1608  1.3383 -2.6112
18057TIP3    H275587   3.026   1.401   4.001 -0.4069 -0.0299 -0.4238
18058TIP3   OH275588   4.612   0.463   4.550  0.1474  0.0294 -0.5260
18058TIP3    H175589   4.620   0.374   4.516  0.2980  0.0137 -0.4481
18058TIP3    H275590   4.526   0.492   4.520  1.0463  0.7225 -2.5913
18059TIP3   OH275591   6.755   0.534   1.794  0.1140  0.0026  0.8437
18059TIP3    H175592   6.740   0.498   1.706  0.0372  0.8160  0.5166
18059TIP3    H275593   6.829   0.484   1.828 -0.3507 -0.8573  0.6288
18060TIP3   OH275594   2.200   1.764  13.292 -0.0695 -0.2859  0.1367
18060TIP3    H175595   2.119   1.735  13.335 -0.2536  0.5266  0.3509
18060TIP3    H275596   2.258   1.688  13.299 -0.1827 -0.2841  1.6043
18061TIP3   OH275597   5.218   1.925   0.917  0.0079 -0.2038  0.0634
18061TIP3    H175598   5.162   2.002   0.907  1.0996  0.6735  0.4191
18061TIP3    H275599   5.186   1.863   0.851 -0.5362  0.7714 -0.6172
18062TIP3   OH275600   3.573   1.419   5.064 -0.3477  0.1803 -0.4651
18062TIP3    H175601   3.480   1.423   5.041 -0.3044 -0.9967 -0.9300
18062TIP3    H275602   3.616   1.387   4.984  0.2108 -1.0631  0.2972
18063TIP3   OH275603   5.315   3.345  13.196 -0.6995  0.0159 -0.5858
18063TIP3    H175604   5.298   3.388  13.112 -0.9870  0.8141 -0.1306
18063TIP3    H275605   5.369   3.408  13.244  0.7459 -1.0586 -0.7236
18064TIP3   OH275606   6.651   1.109   5.078 -0.3538 -0.4350 -0.0696
18064TIP3    H175607   6.707   1.182   5.054  0.8960 -0.7438  1.6469
18064TIP3    H275608   6.707   1.032   5.069 -1.2042 -1.0249 -0.4634
18065TIP3   OH275609   4.893   1.329   4.794  0.2033  0.0770  0.4766
18065TIP3    H175610   4.970   1.387   4.792  2.3490 -2.6010 -0.1611
18065TIP3    H275611   4.853   1.346   4.880  1.8169  1.1832  1.0593
18066TIP3   OH275612   3.953   4.505   4.827 -0.1557 -0.0917  0.0052
18066TIP3    H175613   3.895   4.576   4.800  0.3100  0.5839  0.7309
18066TIP3    H275614   3.949   4.506   4.923  2.0501  0.8619  0.1510
18067TIP3   OH275615   5.224   1.604   0.370 -0.0595 -0.0034  0.0193
18067TIP3    H175616   5.307   1.608   0.419  0.3301  0.6627 -0.6695
18067TIP3    H275617   5.163   1.560   0.429  1.0845 -1.5234  0.1245
18068TIP3   OH275618   6.104   4.345   5.097 -0.1576 -0.5025  0.1184
18068TIP3    H175619   6.109   4.318   5.189  0.0014  0.5794  0.4465
18068TIP3    H275620   6.010   4.353   5.079 -0.1810 -0.3802  0.2942
18069TIP3   OH275621   1.170   1.156   0.074 -0.1097  0.1729  0.3766
18069TIP3    H175622   1.246   1.182   0.126  1.2191 -0.7870 -0.9590
18069TIP3    H275623   1.189   1.190  -0.014 -1.2098 -0.1160  0.0158
18070TIP3   OH275624   2.853   7.111   4.104 -0.2487  0.3213 -0.0430
18070TIP3    H175625   2.928   7.121   4.046  0.3710  0.7043  0.8118
18070TIP3    H275626   2.787   7.171   4.070  0.7377  1.8415  0.6499
18071TIP3   OH275627   2.540   2.612   0.599 -0.3881  0.2352  0.1158
18071TIP3    H175628   2.525   2.565   0.517  1.4769 -0.0751 -0.0826
18071TIP3    H275629   2.524   2.704   0.578 -0.3494  0.1079 -0.4797
18072TIP3   OH275630   2.307   3.304   2.894  0.3412  0.0713  0.0599
18072TIP3    H175631   2.307   3.400   2.887  0.7798  0.3120  2.4873
18072TIP3    H275632   2.395   3.279   2.867  0.9946  0.6234  1.5239
18073TIP3   OH275633   1.339   0.826   5.569  0.4866  0.1363 -0.3704
18073TIP3    H175634   1.396   0.812   5.494 -1.4316  1.1771 -2.1495
18073TIP3    H275635   1.370   0.907   5.609  1.4790 -0.3932 -0.0395
18074TIP3   OH275636   3.385   1.682   4.606  0.2607  0.1834  0.3343
18074TIP3    H175637   3.308   1.627   4.592 -0.3925  0.6484  1.8253
18074TIP3    H275638   3.439   1.631   4.667  0.1729  0.6894  0.8493
18075TIP3   OH275639   5.118   4.170   5.580 -0.0017  0.0192 -0.4169
18075TIP3    H175640   5.054   4.228   5.620  0.2356  0.0333 -0.0471
18075TIP3    H275641   5.092   4.082   5.609 -1.7569 -0.3730 -2.8434
18076TIP3   OH275642   1.875   3.847   5.048 -0.2691  0.8957  0.7988
18076TIP3    H175643   1.881   3.753   5.060  0.4686  0.4471 -2.1907
18076TIP3    H275644   1.947   3.883   5.099  1.5415 -0.5148 -0.6555
18077TIP3   OH275645   6.529   0.714   4.295 -0.2209  0.0743  0.7909
18077TIP3    H175646   6.457   0.739   4.238 -0.2741 -2.8952 -0.6065
18077TIP3    H275647   6.487   0.670   4.370  0.0439  0.4534  1.1690
18078TIP3   OH275648   0.235   6.382   2.225 -0.5744 -0.6555 -0.6993
18078TIP3    H175649   0.287   6.450   2.183 -0.8374  0.0249  0.0585
18078TIP3    H275650   0.153   6.380   2.176 -0.7089 -0.1691 -0.4958
18079TIP3   OH275651   0.969   6.457   4.743  0.2755 -0.4365  0.1819
18079TIP3    H175652   1.010   6.542   4.731 -1.5104  0.3900 -0.4934
18079TIP3    H275653   0.993   6.407   4.665 -1.5025  0.7252 -1.1896
18080TIP3   OH275654   5.860   0.300  11.502  0.2239  0.2257 -0.1237
18080TIP3    H175655   5.934   0.243  11.523 -1.4819 -2.1361 -0.2423
18080TIP3    H275656   5.854   0.360  11.577  1.3005 -0.5443  0.6091
18081TIP3   OH275657   6.546   3.727   3.276  0.7888  0.3220 -0.6540
18081TIP3    H175658   6.505   3.686   3.200  0.7688  1.7872 -1.4673
18081TIP3    H275659   6.500   3.810   3.286  1.0845  0.3369  0.7086
18082TIP3   OH275660   0.884   2.860   0.247 -0.1571 -0.2640  0.1891
18082TIP3    H175661   0.867   2.793   0.182 -1.0401 -1.3947  1.5219
18082TIP3    H275662   0.844   2.939   0.211 -0.7690 -0.9084 -0.5761
18083TIP3   OH275663   5.623   2.776   0.477 -0.1059 -0.5743 -0.2098
18083TIP3    H175664   5.603   2.747   0.566  1.8650  0.6192  0.6777
18083TIP3    H275665   5.632   2.695   0.427  0.0898 -1.3256  0.9951
18084TIP3   OH275666   1.062   1.339   0.695  0.0704  1.0168 -0.3710
18084TIP3    H175667   1.147   1.347   0.652  0.7185  2.2426  1.0632
18084TIP3    H275668   1.026   1.428   0.695 -1.2182  0.5325 -0.9029
18085TIP3   OH275669   0.792   3.627   5.164 -0.1154  0.5768  0.5164
18085TIP3    H175670   0.821   3.597   5.078 -0.0311 -1.8751  1.3374
18085TIP3    H275671   0.867   3.612   5.222 -1.1465 -0.6443  1.5827
18086TIP3   OH275672   1.534   6.599  11.181  0.3594  0.1446  0.1105
18086TIP3    H175673   1.471   6.636  11.243 -1.4474  0.6192 -1.8897
18086TIP3    H275674   1.619   6.634  11.209 -0.3507  0.2094  2.3669
18087TIP3   OH275675   6.142   6.871   3.072  0.1980  0.3521  0.3900
18087TIP3    H175676   6.106   6.959   3.082 -0.2721  0.1274  0.7622
18087TIP3    H275677   6.198   6.859   3.149  0.8262  0.5827 -0.0245
18088TIP3   OH275678   2.474   2.168  13.275  0.0855 -0.1324  0.0383
18088TIP3    H175679   2.463   2.076  13.299  0.1491 -0.0193  0.5153
18088TIP3    H275680   2.385   2.205  13.278  0.2435  0.1838  1.3898
18089TIP3   OH275681   4.774   4.983   4.777  0.2429 -0.1031 -0.0645
18089TIP3    H175682   4.785   5.014   4.687 -2.7451  1.5689  0.0438
18089TIP3    H275683   4.700   4.922   4.773  0.5631 -0.6219  1.1777
18090TIP3   OH275684   6.867   3.773  13.863 -0.2650 -0.8015 -0.2398
18090TIP3    H175685   6.790   3.744  13.912 -0.2329 -0.3454  0.0938
18090TIP3    H275686   6.844   3.862  13.834 -0.2839 -1.0737 -1.0616
18091TIP3   OH275687   4.470   2.172   4.409  0.0719  0.3319  0.1452
18091TIP3    H175688   4.481   2.211   4.323  1.9563 -0.9690 -0.2730
18091TIP3    H275689   4.512   2.233   4.469  0.7373  0.1945 -0.1695
18092TIP3   OH275690   4.031   5.968  14.804 -0.6383 -0.1233  0.2167
18092TIP3    H175691   3.964   5.947  14.869 -0.8927 -1.7793 -0.5281
18092TIP3    H275692   3.986   6.024  14.740 -2.3672 -3.5472 -1.9058
18093TIP3   OH275693   4.442   2.749  14.140 -0.2687  0.0730  0.5525
18093TIP3    H175694   4.404   2.669  14.104  0.9156  0.2280 -1.1788
18093TIP3    H275695   4.419   2.817  14.077 -0.4505  0.9325  1.5169
18094TIP3   OH275696   5.766   2.293  14.560 -0.0360 -0.4805 -0.0583
18094TIP3    H175697   5.772   2.360  14.628  0.4593 -0.6207  0.0341
18094TIP3    H275698   5.730   2.340  14.484  0.6419 -0.0209 -0.1060
18095TIP3   OH275699   5.891   6.168  12.765 -0.4183  0.5133 -0.5418
18095TIP3    H175700   5.870   6.134  12.678 -0.5768  0.2602 -0.4064
18095TIP3    H275701   5.957   6.107  12.799  0.6613  1.3871 -1.0254
18096TIP3   OH275702   3.340   1.438   3.399 -0.2341 -0.4551  0.7450
18096TIP3    H175703   3.426   1.421   3.360  0.1145  1.0089  0.8381
18096TIP3    H275704   3.278   1.413   3.331  0.3157 -0.0197  0.0725
18097TIP3   OH275705   5.050   2.347   0.625 -0.5598 -0.8365  0.2066
18097TIP3    H175706   4.997   2.371   0.549 -0.5743  0.4423  0.6063
18097TIP3    H275707   5.102   2.424   0.643 -1.1128 -0.8477  1.9770
18098TIP3   OH275708   3.642   4.582   0.760 -0.2998 -0.8692  0.1101
18098TIP3    H175709   3.583   4.560   0.832  1.7845  0.2279  2.2742
18098TIP3    H275710   3.655   4.677   0.768  0.3717 -0.8059 -1.4228
18099TIP3   OH275711   0.446   7.114   5.861  0.1434 -0.4670 -0.3533
18099TIP3    H175712   0.362   7.153   5.839  0.1410  0.2229  0.8081
18099TIP3    H275713   0.508   7.155   5.801  0.0972  1.1696  0.6477
18100TIP3   OH275714   6.522   6.142   1.912  0.0319 -0.8093 -0.3900
18100TIP3    H175715   6.453   6.094   1.958 -0.2038 -1.0612 -0.9927
18100TIP3    H275716   6.558   6.202   1.978 -2.1603  0.8102 -0.5436
18101TIP3   OH275717   5.263   1.155  14.944  0.3049 -0.2394 -0.3766
18101TIP3    H175718   5.208   1.108  15.007 -0.6232  0.2236 -0.8082
18101TIP3    H275719   5.234   1.246  14.951  1.0979  0.0297 -0.5521
18102TIP3   OH275720   6.801   6.939  14.512  0.4031  0.0266  0.2636
18102TIP3    H175721   6.796   7.018  14.566 -1.7931  1.2090 -1.4865
18102TIP3    H275722   6.768   6.967  14.426  2.1394 -2.1514 -1.2340
18103TIP3   OH275723   2.406   4.480   4.439 -0.0914  0.1874  0.4362
18103TIP3    H175724   2.359   4.475   4.523 -1.8326 -0.8863 -0.5496
18103TIP3    H275725   2.342   4.452   4.374  1.2517  0.9114 -1.2722
18104TIP3   OH275726   0.855   3.626   0.878  0.0402  0.1021  0.2013
18104TIP3    H175727   0.894   3.540   0.888 -0.3109 -0.1707 -0.6460
18104TIP3    H275728   0.769   3.610   0.839  0.3064  0.8663 -0.7662
18105TIP3   OH275729   2.904   5.995  12.036  0.1521  0.4272  0.5541
18105TIP3    H175730   2.921   6.009  11.942 -0.1134  1.0741  0.5937
18105TIP3    H275731   2.811   5.970  12.039  0.7237 -1.9728  0.4397
18106TIP3   OH275732   4.004   5.605   3.821  0.1675 -0.8872  0.1967
18106TIP3    H175733   3.918   5.582   3.855 -1.4130 -0.1134 -2.9051
18106TIP3    H275734   4.018   5.695   3.850 -0.7204 -0.5453 -0.4088
18107TIP3   OH275735   6.661   1.497   5.871 -0.3183  0.3232  0.2656
18107TIP3    H175736   6.596   1.565   5.853  1.3351  1.6321 -1.1541
18107TIP3    H275737   6.709   1.529   5.947 -0.1230  0.2918  0.1562
18108TIP3   OH275738   3.707   2.151  15.520  0.4084 -0.1189  0.5393
18108TIP3    H175739   3.755   2.181  15.443  3.0904 -1.6281  1.4897
18108TIP3    H275740   3.761   2.179  15.594 -1.2015 -0.2416  1.8339
18109TIP3   OH275741   6.960   5.810   1.286  0.1830 -0.1765  0.0616
18109TIP3    H175742   7.012   5.821   1.206 -1.1409 -2.5613 -1.2574
18109TIP3    H275743   6.873   5.842   1.263 -0.3204 -1.2729  0.3533
18110TIP3   OH275744   1.548   0.582  14.998  0.0528 -0.2401  0.7480
18110TIP3    H175745   1.572   0.662  14.951  0.9256 -0.1769  1.2841
18110TIP3    H275746   1.598   0.587  15.080  1.3058 -2.0536  0.1512
18111TIP3   OH275747   4.169   0.208   2.094 -0.1150 -0.1870  0.2679
18111TIP3    H175748   4.146   0.209   2.001  2.3835  1.8274 -0.4414
18111TIP3    H275749   4.224   0.131   2.104 -0.3492 -0.3804  0.0866
18112TIP3   OH275750   6.884   1.381   1.272 -0.1760 -0.0427 -0.2676
18112TIP3    H175751   6.893   1.476   1.275 -1.8488  0.1542 -0.3141
18112TIP3    H275752   6.971   1.349   1.249  0.5987  1.4194  0.4887
18113TIP3   OH275753   3.430   5.051   1.598 -0.3386 -0.1897  0.5438
18113TIP3    H175754   3.488   5.093   1.534  1.3094  0.8710  2.5738
18113TIP3    H275755   3.489   4.995   1.649 -1.4625 -0.5268  1.5045
18114TIP3   OH275756   4.301   5.556   3.418  0.4876 -0.0920  0.1008
18114TIP3    H175757   4.279   5.463   3.411  3.0521 -0.7895  0.3349
18114TIP3    H275758   4.289   5.590   3.329 -2.9411  0.0597  0.4928
18115TIP3   OH275759   3.724   5.695   1.907 -0.3143 -0.0371 -0.2220
18115TIP3    H175760   3.813   5.731   1.905 -0.4167  0.1840 -1.6876
18115TIP3    H275761   3.735   5.605   1.936  0.5411 -0.3655 -1.4990
18116TIP3   OH275762   5.336   4.485   0.493 -0.2607  0.2370  0.1717
18116TIP3    H175763   5.358   4.552   0.558  0.2410  1.3457 -1.0764
18116TIP3    H275764   5.243   4.498   0.476 -0.2807  0.2712  0.3070
18117TIP3   OH275765   1.774   0.142   3.982  0.1661  0.1447  0.3315
18117TIP3    H175766   1.738   0.083   4.048  1.1759 -0.8219  0.0557
18117TIP3    H275767   1.829   0.203   4.031 -0.1428  0.2629  0.5278
18118TIP3   OH275768   2.856   0.259   3.777  0.0223  0.3678  0.1292
18118TIP3    H175769   2.854   0.211   3.694  0.4835 -0.7321  0.7323
18118TIP3    H275770   2.949   0.278   3.791  0.6796 -3.3929  2.5047
18119TIP3   OH275771   6.394   5.997   4.335 -0.5697 -0.5003 -0.0267
18119TIP3    H175772   6.423   5.958   4.417  0.3621  0.2110  0.0074
18119TIP3    H275773   6.425   6.087   4.339  0.7763 -0.8305 -1.7688
18120TIP3   OH275774   6.955   3.961   5.657 -0.4493  0.2807  0.2994
18120TIP3    H175775   6.997   3.876   5.670 -0.7727  0.0299 -0.2604
18120TIP3    H275776   6.863   3.946   5.679 -1.0930 -0.2423 -2.3990
18121TIP3   OH275777   1.632   5.576   2.558  0.3609  0.6932  0.2764
18121TIP3    H175778   1.645   5.670   2.555  1.7489  0.5369  0.4805
18121TIP3    H275779   1.561   5.559   2.497  0.7277  1.7775 -0.4785
18122TIP3   OH275780   5.701   4.477  11.297 -0.7930 -0.1798 -0.4141
18122TIP3    H175781   5.671   4.566  11.281  0.0291  0.1600 -0.1410
18122TIP3    H275782   5.749   4.453  11.218 -1.4970 -0.5961 -0.7181
18123TIP3   OH275783   3.556   5.924   1.956  0.0200  0.2392 -0.5302
18123TIP3    H175784   3.528   5.836   1.930 -0.4627 -0.5208  2.1914
18123TIP3    H275785   3.651   5.918   1.965 -0.0370 -0.0892 -0.1187
18124TIP3   OH275786   1.180   0.389   3.169  0.0784  0.0948 -0.1532
18124TIP3    H175787   1.206   0.298   3.176  1.4354  0.4811  0.1590
18124TIP3    H275788   1.179   0.421   3.260 -2.4971 -0.1256 -0.0257
18125TIP3   OH275789   1.554   6.692   2.379  0.5789 -0.4534  0.2901
18125TIP3    H175790   1.467   6.705   2.343  0.1351  0.6185  1.6606
18125TIP3    H275791   1.610   6.753   2.330 -0.1859  1.6683  1.8724
18126TIP3   OH275792   0.511   3.145   5.045 -0.1798 -0.3559 -0.5916
18126TIP3    H175793   0.488   3.187   5.128 -0.3770  0.3340 -0.9873
18126TIP3    H275794   0.600   3.175   5.027  0.4510 -1.7167  0.1148
18127TIP3   OH275795   1.208   1.570  15.155 -0.1348  0.2224  0.0185
18127TIP3    H175796   1.254   1.576  15.072  1.3345 -2.3376  0.5238
18127TIP3    H275797   1.276   1.578  15.222 -1.2860  2.2837  1.0480
18128TIP3   OH275798   5.367   0.916   2.628  0.2554  0.3116  0.1992
18128TIP3    H175799   5.415   0.841   2.592  1.3474  0.9276  0.3460
18128TIP3    H275800   5.342   0.887   2.716 -2.9559 -1.4313 -1.1183
18129TIP3   OH275801   1.125   2.559   2.555  0.0156 -0.3392  0.3548
18129TIP3    H175802   1.061   2.582   2.488 -0.2224  0.4408  0.8346
18129TIP3    H275803   1.154   2.471   2.532  1.7815  0.7745 -2.1961
18130TIP3   OH275804   3.204   4.984  15.145 -0.4362 -0.2601 -0.2664
18130TIP3    H175805   3.287   5.026  15.124 -0.8302  0.4229 -0.4806
18130TIP3    H275806   3.229   4.904  15.192  0.3453 -0.2006 -0.5618
18131TIP3   OH275807   3.130   5.100  13.695  0.3045 -0.1529  0.1980
18131TIP3    H175808   3.127   5.010  13.662 -0.4325 -0.1413  0.2266
18131TIP3    H275809   3.210   5.137  13.657  0.4243 -0.7075 -0.0994
18132TIP3   OH275810   6.851   0.551   4.504  0.2217  0.1274 -0.2177
18132TIP3    H175811   6.764   0.590   4.513 -1.1633 -2.9238  0.9600
18132TIP3    H275812   6.884   0.545   4.594  2.1633  2.1308 -0.7233
18133TIP3   OH275813   2.118   3.114   3.296 -0.3730 -0.3091  0.7093
18133TIP3    H175814   2.172   3.037   3.307  0.0378  0.0576  1.3101
18133TIP3    H275815   2.174   3.187   3.321 -0.0103  0.4307 -1.9308
18134TIP3   OH275816   3.117   6.845   3.256 -0.4518  0.2250 -0.0773
18134TIP3    H175817   3.117   6.804   3.170 -0.8386  2.2436 -1.1016
18134TIP3    H275818   3.030   6.883   3.265 -0.2501  0.4674  0.9912
18135TIP3   OH275819   1.781   4.365  11.427 -0.5242 -0.3977  0.0017
18135TIP3    H175820   1.805   4.281  11.388 -0.9473 -1.1776  1.3363
18135TIP3    H275821   1.860   4.418  11.420  0.1984 -1.3858  0.3622
18136TIP3   OH275822   6.459   1.288  15.555 -1.2046 -0.6082  0.1868
18136TIP3    H175823   6.481   1.215  15.613 -0.2533 -0.0978  0.4827
18136TIP3    H275824   6.465   1.250  15.467 -0.0172 -0.7238  0.3040
18137TIP3   OH275825   0.896   5.116   1.842 -0.2989 -0.1015 -0.2429
18137TIP3    H175826   0.928   5.106   1.931 -1.0587  1.5996  0.2508
18137TIP3    H275827   0.905   5.029   1.804  1.3156 -0.5461  1.0462
18138TIP3   OH275828   3.918   3.958   3.826 -0.5348  0.3017 -0.1104
18138TIP3    H175829   3.875   4.042   3.812  1.6466  1.9153  1.9420
18138TIP3    H275830   4.011   3.975   3.810 -0.1105 -1.9622 -0.4375
18139TIP3   OH275831   3.930   6.885   3.012  0.1361 -0.4065  0.3037
18139TIP3    H175832   3.900   6.975   3.024  0.4154 -0.1095 -1.0104
18139TIP3    H275833   3.854   6.831   3.035  0.2061  0.1051  1.8503
18140TIP3   OH275834   6.233   3.250   2.410 -0.8042  0.3021 -0.1334
18140TIP3    H175835   6.182   3.196   2.349 -0.2989 -1.3605  0.8558
18140TIP3    H275836   6.292   3.301   2.354 -0.9326 -0.5577 -1.0719
18141TIP3   OH275837   2.217   4.581  12.622 -0.1496 -0.1824  0.0810
18141TIP3    H175838   2.225   4.496  12.666  0.6542 -0.9412 -1.4575
18141TIP3    H275839   2.299   4.627  12.643  0.2749 -0.5815 -0.6393
18142TIP3   OH275840   0.116   5.594   0.460 -0.2050  0.7883  0.0278
18142TIP3    H175841   0.159   5.538   0.524 -0.3354  0.5717 -0.0725
18142TIP3    H275842   0.078   5.534   0.396  0.7536  1.0286 -0.7936
18143TIP3   OH275843   1.061   4.693  13.930  0.3141 -0.0983  0.4721
18143TIP3    H175844   1.148   4.652  13.937 -1.1491 -4.3321 -2.3068
18143TIP3    H275845   1.010   4.655  14.001 -0.8705 -2.8929 -1.7170
18144TIP3   OH275846   5.952   3.319   4.395 -0.0756  0.2676 -0.3023
18144TIP3    H175847   5.918   3.232   4.374 -1.3677  0.4184  1.0080
18144TIP3    H275848   6.046   3.306   4.403  0.2641 -0.2465 -3.6665
18145TIP3   OH275849   6.330   0.415   1.720 -0.2427 -0.1377  0.0610
18145TIP3    H175850   6.399   0.383   1.777 -0.1952 -0.8105 -0.3613
18145TIP3    H275851   6.349   0.508   1.708  0.8194 -0.4044 -0.3690
18146TIP3   OH275852   6.735   2.167   0.831 -0.6496 -0.4380 -0.1885
18146TIP3    H175853   6.817   2.132   0.867 -0.8668 -0.2760  0.4828
18146TIP3    H275854   6.713   2.109   0.759 -0.3543 -0.9464  0.1304
18147TIP3   OH275855   1.364   4.270  15.346 -0.0372 -0.1769  0.3408
18147TIP3    H175856   1.310   4.348  15.338  1.1636  0.7978  1.3007
18147TIP3    H275857   1.454   4.302  15.342  0.4881 -1.6388 -0.2887
18148TIP3   OH275858   0.682   3.245   3.094 -0.4263  0.5795  0.1594
18148TIP3    H175859   0.686   3.340   3.083  0.2095  0.5458  0.0211
18148TIP3    H275860   0.774   3.219   3.106 -0.6481  0.0448  0.7242
18149TIP3   OH275861   3.999   4.157   4.078  0.9291 -0.5495  0.4945
18149TIP3    H175862   4.072   4.180   4.021 -1.2809  0.6752 -2.0130
18149TIP3    H275863   3.981   4.065   4.058 -0.2787  0.0588 -1.4194
18150TIP3   OH275864   6.426   5.856   3.850  0.2375 -0.0626  0.5889
18150TIP3    H175865   6.377   5.780   3.819  0.2364 -0.3541  1.2808
18150TIP3    H275866   6.436   5.841   3.944  0.9636  0.3821  0.5937
18151TIP3   OH275867   5.399   0.077   2.577  0.0049  0.1753  0.2165
18151TIP3    H175868   5.362   0.152   2.531  0.9377  0.4118 -0.1553
18151TIP3    H275869   5.477   0.111   2.620 -0.6380 -0.1316  1.6761
18152TIP3   OH275870   7.031   2.543   2.688 -0.2424  0.4955 -0.2417
18152TIP3    H175871   7.022   2.567   2.780 -0.6942  1.5608 -0.5393
18152TIP3    H275872   6.981   2.462   2.679 -0.2333  0.4069  0.4428
18153TIP3   OH275873   0.888   5.605  15.486 -0.9107 -0.4778 -0.0852
18153TIP3    H175874   0.823   5.554  15.438  0.7150 -1.6617 -1.1173
18153TIP3    H275875   0.860   5.600  15.577 -0.9206 -3.1531 -0.1489
18154TIP3   OH275876   1.035   1.514  15.391 -0.8692  0.4322 -0.2686
18154TIP3    H175877   0.992   1.596  15.415 -1.2568  0.2454 -0.3163
18154TIP3    H275878   1.085   1.534  15.313 -1.2542  0.5360 -0.4911
18155TIP3   OH275879   2.705   5.010  14.827  0.4773 -0.7577 -0.1555
18155TIP3    H175880   2.736   4.928  14.790  0.2408 -1.0261  0.2403
18155TIP3    H275881   2.777   5.072  14.813 -0.7922  0.1616 -4.2874
18156TIP3   OH275882   0.644   0.882   1.424 -0.1129 -0.2005  0.4646
18156TIP3    H175883   0.591   0.949   1.467 -0.4500  0.0271 -0.2760
18156TIP3    H275884   0.733   0.915   1.429 -0.4799  1.3631 -1.6668
18157TIP3   OH275885   2.774   2.748   4.472  0.2164 -0.3796  0.0843
18157TIP3    H175886   2.709   2.806   4.512  0.2482 -0.3781  0.1332
18157TIP3    H275887   2.747   2.660   4.500  1.7365 -0.2294  2.2919
18158TIP3   OH275888   4.818   0.402  11.390  0.0365  0.0475  0.0379
18158TIP3    H175889   4.803   0.326  11.447  2.0231 -1.1654 -0.9570
18158TIP3    H275890   4.869   0.368  11.317  1.6342  2.4654 -0.1093
18159TIP3   OH275891   7.017   5.376   2.270 -0.0538 -0.0301 -0.2119
18159TIP3    H175892   7.030   5.287   2.303  1.5872  0.7477  1.4098
18159TIP3    H275893   7.093   5.392   2.215  1.0086  1.1837  1.5103
18160TIP3   OH275894   2.652   3.770   4.025 -0.2414  0.5056 -0.1822
18160TIP3    H175895   2.699   3.711   3.967 -2.0070 -1.7327  0.5197
18160TIP3    H275896   2.697   3.763   4.109 -1.4042 -1.2058  0.3426
18161TIP3   OH275897   5.429   6.300   1.190 -0.1692 -0.0833 -0.1388
18161TIP3    H175898   5.368   6.273   1.258  0.4030  0.5655  0.6611
18161TIP3    H275899   5.494   6.354   1.236  1.7079 -1.7307 -0.7303
18162TIP3   OH275900   3.707   0.554   3.007 -0.4226 -0.2917 -0.1425
18162TIP3    H175901   3.756   0.473   2.993  0.8678 -0.1505  2.9341
18162TIP3    H275902   3.698   0.561   3.102 -1.1920  2.7750 -0.3412
18163TIP3   OH275903   0.394   0.284   1.541  0.4578  0.2174 -0.0935
18163TIP3    H175904   0.424   0.254   1.455  2.0472 -1.1001  0.8734
18163TIP3    H275905   0.418   0.213   1.601 -0.3320  1.2440  1.5005
18164TIP3   OH275906   5.079   4.036   3.950  0.3511 -0.3195  0.4844
18164TIP3    H175907   5.121   3.953   3.972 -0.2185  0.0469  3.3939
18164TIP3    H275908   4.988   4.025   3.977 -0.1709  0.6845 -0.7456
18165TIP3   OH275909   5.558   1.391   4.572  0.7516 -0.3400 -0.5389
18165TIP3    H175910   5.564   1.342   4.654  0.0564 -2.3363 -1.5987
18165TIP3    H275911   5.559   1.323   4.504  1.8880  1.2701 -2.2257
18166TIP3   OH275912   4.586   5.781   4.734 -0.4708 -0.1915  0.0144
18166TIP3    H175913   4.515   5.840   4.711 -1.5372 -2.0396 -1.8256
18166TIP3    H275914   4.559   5.696   4.699  1.4830 -1.5521  1.5337
18167TIP3   OH275915   1.786   5.536   4.699 -0.5274 -0.4368 -0.3055
18167TIP3    H175916   1.847   5.592   4.650  1.4939 -1.0956  1.3441
18167TIP3    H275917   1.793   5.566   4.789  1.2218 -3.7159  0.8181
18168TIP3   OH275918   0.985   0.130   3.285  0.4740  0.0492  0.1715
18168TIP3    H175919   1.079   0.138   3.297  0.4715  0.0840  0.1687
18168TIP3    H275920   0.963   0.045   3.322  0.5935 -0.2212 -0.3705
18169TIP3   OH275921   5.199   5.645  12.617 -0.1476  0.1581 -0.6086
18169TIP3    H175922   5.141   5.587  12.569  0.5062  0.0228 -1.2579
18169TIP3    H275923   5.170   5.639  12.708 -0.3641 -0.8482 -0.7364
18170TIP3   OH275924   6.950   2.454   0.763  0.1472 -0.0090 -0.0755
18170TIP3    H175925   6.878   2.505   0.798 -1.0551  0.1943 -2.6320
18170TIP3    H275926   6.949   2.373   0.814 -1.2976  0.3538  0.5240
18171TIP3   OH275927   2.929   4.698   6.197 -0.0744 -0.3667  0.0929
18171TIP3    H175928   2.940   4.604   6.187 -2.9834 -0.7493 -0.3942
18171TIP3    H275929   2.944   4.734   6.109  1.8592 -0.2154  0.4462
18172TIP3   OH275930   5.365   4.323   3.898 -0.3245 -0.1974  0.3113
18172TIP3    H175931   5.417   4.394   3.935 -1.2066  1.2478 -1.1033
18172TIP3    H275932   5.423   4.280   3.836  0.1404 -0.5830  1.0056
18173TIP3   OH275933   6.648   6.623   5.085 -0.3279  0.3692 -0.2145
18173TIP3    H175934   6.647   6.589   5.175 -0.8287 -1.4330 -0.8549
18173TIP3    H275935   6.556   6.629   5.061 -0.1876  0.5367 -0.7158
18174TIP3   OH275936   3.570   2.077   3.159  0.2463  0.2910 -0.3017
18174TIP3    H175937   3.636   2.076   3.229 -0.2756  4.5944  0.5012
18174TIP3    H275938   3.491   2.043   3.199  0.7982 -0.5249  0.1186
18175TIP3   OH275939   5.674   2.239  14.109  0.1736  0.5194  0.5192
18175TIP3    H175940   5.594   2.253  14.059  0.2167  0.2453  0.3742
18175TIP3    H275941   5.745   2.250  14.046  0.1880 -1.2836  0.1644
18176TIP3   OH275942   2.588   2.991   3.865  0.4551 -0.5859  0.0347
18176TIP3    H175943   2.651   2.987   3.937 -1.7388 -0.9333  2.0546
18176TIP3    H275944   2.641   2.982   3.786  2.8153 -1.7380  1.6447
18177TIP3   OH275945   5.032   4.881   3.390 -0.0707 -0.1378 -0.6594
18177TIP3    H175946   5.033   4.815   3.460  2.1704  0.9386  0.3959
18177TIP3    H275947   5.000   4.961   3.432 -0.1736  0.1531 -1.2734
18178TIP3   OH275948   6.380   4.492   3.982  0.7316  0.3607 -0.2838
18178TIP3    H175949   6.393   4.493   3.887 -0.8005  0.5930 -0.5207
18178TIP3    H275950   6.312   4.557   3.997 -1.8185 -2.3053  0.5165
18179TIP3   OH275951   5.352   4.534   4.602 -0.1864 -0.3453  0.5423
18179TIP3    H175952   5.329   4.619   4.637 -1.1175 -0.5290  0.3856
18179TIP3    H275953   5.306   4.471   4.657  0.3681 -0.7520  0.5580
18180TIP3   OH275954   6.020   4.693  14.848  0.0694  0.0925  0.1505
18180TIP3    H175955   5.926   4.679  14.859 -0.0864  1.1056  0.1607
18180TIP3    H275956   6.031   4.788  14.854  1.0760 -0.0093  0.0076
18181TIP3   OH275957   2.659   5.627   3.472 -0.8388  0.2471 -0.3369
18181TIP3    H175958   2.728   5.682   3.509 -1.6382  0.3250  1.1371
18181TIP3    H275959   2.579   5.677   3.485 -1.0888  0.7232 -3.1718
18182TIP3   OH275960   0.775   6.224   3.565 -0.3226  0.0606  0.3996
18182TIP3    H175961   0.811   6.210   3.652 -0.0698 -0.0278  0.2825
18182TIP3    H275962   0.846   6.201   3.505  0.4583  2.6963  0.1992
18183TIP3   OH275963   2.817   3.545   3.956  0.0837 -0.1254 -0.1289
18183TIP3    H175964   2.845   3.464   3.913  0.0862  0.5022 -1.3353
18183TIP3    H275965   2.899   3.587   3.984  0.0708 -0.6405  0.7072
18184TIP3   OH275966   3.795   3.201  11.583 -0.5381 -0.1483  0.0641
18184TIP3    H175967   3.790   3.293  11.556 -1.6341  0.0346  0.8437
18184TIP3    H275968   3.709   3.164  11.561 -0.0211 -1.0687 -0.4868
18185TIP3   OH275969   3.135   1.937   4.978  0.2417  0.1905  0.0378
18185TIP3    H175970   3.080   2.015   4.972  0.2940  0.1335 -2.3460
18185TIP3    H275971   3.218   1.969   5.012  0.0808  1.0766 -0.3698
18186TIP3   OH275972   3.363   0.053   1.578 -0.1211 -0.0525 -0.1728
18186TIP3    H175973   3.364  -0.037   1.610 -0.3632  0.4737  1.4004
18186TIP3    H275974   3.455   0.077   1.571  0.0405 -1.1277 -2.8441
18187TIP3   OH275975   2.482   6.294  15.502  0.2799 -0.1056 -0.0605
18187TIP3    H175976   2.540   6.311  15.577  1.6220 -3.2882 -0.2016
18187TIP3    H275977   2.436   6.214  15.525  3.2230 -3.2711 -3.7446
18188TIP3   OH275978   0.596   2.392  11.228 -0.3996 -0.5824 -0.4059
18188TIP3    H175979   0.587   2.305  11.190 -1.5031 -0.6294 -0.0714
18188TIP3    H275980   0.690   2.410  11.226 -0.3008 -1.1463 -1.8870
18189TIP3   OH275981   4.897   4.543   0.823  0.8063  0.6420 -0.0108
18189TIP3    H175982   4.921   4.608   0.757  0.6957 -0.3225 -1.0304
18189TIP3    H275983   4.969   4.543   0.885  1.0161  1.4113 -0.2532
18190TIP3   OH275984   3.978   3.541   1.443  0.4391 -0.3159  0.4010
18190TIP3    H175985   3.938   3.581   1.521  1.2789 -0.3299  0.8553
18190TIP3    H275986   4.055   3.495   1.477  1.3672  0.4786 -0.5606
18191TIP3   OH275987   1.435   0.389  13.717  0.6497  0.7679 -0.4928
18191TIP3    H175988   1.426   0.484  13.724  0.1933  0.8297 -1.6215
18191TIP3    H275989   1.500   0.366  13.783  1.1213  1.9215 -0.5219
18192TIP3   OH275990   2.067   5.217   1.734 -0.1753  0.7593  0.4164
18192TIP3    H175991   2.143   5.210   1.792 -0.2800 -0.9857  0.3909
18192TIP3    H275992   2.104   5.226   1.646  0.0182 -0.1042  0.4011
18193TIP3   OH275993   1.353   3.800   4.780 -0.2454 -0.2722 -0.1312
18193TIP3    H175994   1.330   3.711   4.753 -3.2399 -0.0626  1.3336
18193TIP3    H275995   1.399   3.788   4.863 -1.2266 -0.4672  0.3997
18194TIP3   OH275996   1.648   2.169   4.330 -0.2917 -0.0954 -0.4952
18194TIP3    H175997   1.627   2.190   4.239  0.2628 -0.4760 -0.7139
18194TIP3    H275998   1.638   2.074   4.336  0.2104 -0.1405 -0.3055
18195TIP3   OH275999   4.179   1.730  11.811 -0.1392  0.7814 -0.0100
18195TIP3    H176000   4.144   1.667  11.874 -4.0954  0.6951 -1.9555
18195TIP3    H276001   4.272   1.736  11.831 -0.2831 -2.8515  2.6393
18196TIP3   OH276002   5.733   0.017   4.568  0.5269 -0.0607 -0.0083
18196TIP3    H176003   5.773   0.101   4.589 -0.7756  0.3881  0.8438
18196TIP3    H276004   5.640   0.037   4.557  0.0792 -1.4773  0.8741
18197TIP3   OH276005   4.596   0.450  15.031 -0.3362  0.3179 -0.6491
18197TIP3    H176006   4.544   0.497  14.965 -1.4418  0.7662  0.4948
18197TIP3    H276007   4.628   0.519  15.089 -1.9100 -0.2600  1.0106
18198TIP3   OH276008   0.672   3.925   5.505 -0.1771 -0.2581  0.2550
18198TIP3    H176009   0.652   3.833   5.490 -0.2548 -0.0420 -1.1115
18198TIP3    H276010   0.719   3.952   5.426 -0.4621  0.9551  0.4827
18199TIP3   OH276011   5.317   3.846   4.436 -0.2893  0.1567 -0.1650
18199TIP3    H176012   5.255   3.892   4.379 -0.0251  1.2940  0.4449
18199TIP3    H276013   5.294   3.754   4.426 -1.6227  0.4969 -0.4902
18200TIP3   OH276014   2.276   4.953   2.449 -0.1382  0.2765  0.0092
18200TIP3    H176015   2.210   4.948   2.380  1.3023 -1.8141 -1.3110
18200TIP3    H276016   2.358   4.934   2.404  1.3091  2.0735  1.7425
18201TIP3   OH276017   1.852   6.536   2.263 -0.3930 -0.3378  0.2338
18201TIP3    H176018   1.816   6.499   2.182  0.4920  0.8728 -0.7492
18201TIP3    H276019   1.864   6.460   2.320 -0.4613 -1.3158 -0.9950
18202TIP3   OH276020   3.931   0.308  10.420  0.3988  0.5064 -1.0005
18202TIP3    H176021   3.908   0.329  10.329  0.7037  1.4930 -0.8677
18202TIP3    H276022   3.951   0.393  10.459  0.9734  0.0123 -0.2016
18203TIP3   OH276023   6.886   1.979   1.118 -0.0444  0.1239  0.3925
18203TIP3    H176024   6.854   1.911   1.059  1.8312 -0.6134  0.1385
18203TIP3    H276025   6.809   2.008   1.166 -1.2981 -0.5418 -1.1324
18204TIP3   OH276026   3.943   3.515   5.508  0.2078  0.0056  0.4551
18204TIP3    H176027   3.853   3.541   5.529  0.0796  2.0421 -2.0430
18204TIP3    H276028   3.958   3.436   5.559 -3.2062 -0.7604  0.5146
18205TIP3   OH276029   4.237   0.162  13.993  0.0557  0.3570 -0.1997
18205TIP3    H176030   4.195   0.095  14.047 -2.3421  0.9987 -1.1623
18205TIP3    H276031   4.231   0.242  14.044 -0.7714  0.6412 -0.7275
18206TIP3   OH276032   2.560   4.254  14.246 -0.2239 -0.6373 -0.1399
18206TIP3    H176033   2.563   4.199  14.324 -0.6079  0.0864  0.4112
18206TIP3    H276034   2.486   4.221  14.196  0.3204 -1.4153 -0.4499
18207TIP3   OH276035   3.887   5.141   5.410  0.4623 -0.6672 -0.4415
18207TIP3    H176036   3.937   5.059   5.401  1.2186 -0.4178  1.1736
18207TIP3    H276037   3.897   5.165   5.502 -2.2594 -0.3259 -0.1665
18208TIP3   OH276038   0.833   5.374   1.785  0.0261  0.1715 -0.1071
18208TIP3    H176039   0.914   5.423   1.771  0.3380 -0.3930 -0.3096
18208TIP3    H276040   0.855   5.283   1.763  0.0194 -0.4380  2.1274
18209TIP3   OH276041   6.533   1.346   2.509 -0.0889 -0.4522 -0.0681
18209TIP3    H176042   6.487   1.417   2.555  0.8905  0.0281  0.1868
18209TIP3    H276043   6.543   1.278   2.575  1.8638  0.4759  0.6782
18210TIP3   OH276044   6.162   4.252   2.390 -0.1815 -0.6477  0.3157
18210TIP3    H176045   6.234   4.259   2.453 -0.2090 -2.2755  0.5829
18210TIP3    H276046   6.106   4.182   2.425  0.1063 -2.0374 -1.7741
18211TIP3   OH276047   4.492   7.026   3.557  0.1984 -0.0387 -0.4182
18211TIP3    H176048   4.400   7.005   3.573 -0.4536  0.3760 -3.1669
18211TIP3    H276049   4.504   7.111   3.601 -0.8117  0.0504 -0.2749
18212TIP3   OH276050   0.470   3.914  12.817 -0.0849 -0.3593  0.1286
18212TIP3    H176051   0.382   3.881  12.799  0.5037 -1.0144 -1.7920
18212TIP3    H276052   0.513   3.844  12.865 -0.5788 -0.0379  1.0724
18213TIP3   OH276053   6.911   4.395   2.045  0.7742 -0.0177 -0.2299
18213TIP3    H176054   6.972   4.469   2.042 -0.3307  1.0198  1.6650
18213TIP3    H276055   6.953   4.331   2.102  0.9259 -0.1105 -0.4431
18214TIP3   OH276056   3.470   3.997   0.771  0.3479 -0.4812 -0.1131
18214TIP3    H176057   3.518   4.079   0.766  1.3421 -1.1091 -1.6343
18214TIP3    H276058   3.526   3.939   0.823  0.6233 -0.8002 -0.7512
18215TIP3   OH276059   4.495   4.622   3.973 -0.7139  0.2732 -0.1895
18215TIP3    H176060   4.528   4.559   3.910  0.8495  1.6424 -0.8062
18215TIP3    H276061   4.400   4.612   3.970 -0.6087 -0.5064 -1.8976
18216TIP3   OH276062   4.204   7.127   2.419 -0.4870  0.7508  0.3013
18216TIP3    H176063   4.190   7.222   2.408 -3.1590  0.4438  0.2052
18216TIP3    H276064   4.198   7.113   2.513  1.1274  0.8036  0.4234
18217TIP3   OH276065   1.241   3.387   0.798 -0.0907 -0.2841 -0.3450
18217TIP3    H176066   1.153   3.425   0.802 -0.0850 -0.2620 -0.4291
18217TIP3    H276067   1.282   3.413   0.881 -0.5528 -1.2514  0.1970
18218TIP3   OH276068   1.251   6.879   6.038 -0.2356 -0.3866 -0.6932
18218TIP3    H176069   1.217   6.958   5.994 -1.7912 -1.4128 -1.4185
18218TIP3    H276070   1.175   6.843   6.083  0.5922 -1.1874  0.0861
18219TIP3   OH276071   5.064   5.324   0.268  0.7894  0.1795 -0.0909
18219TIP3    H176072   5.084   5.386   0.338  1.2821  1.2188 -1.1076
18219TIP3    H276073   5.135   5.336   0.205  1.0200 -1.6204 -0.2009
18220TIP3   OH276074   1.353   2.200  10.730  0.4294  0.0103  0.4555
18220TIP3    H176075   1.410   2.149  10.788 -0.5568 -1.0321  0.5549
18220TIP3    H276076   1.286   2.137  10.703  0.7736  0.4989 -1.7016
18221TIP3   OH276077   1.564   0.143   1.866 -0.1033 -0.6492 -0.7206
18221TIP3    H176078   1.548   0.049   1.851  0.4769 -1.1102  1.2747
18221TIP3    H276079   1.492   0.171   1.922 -0.1452  0.0633 -1.1179
18222TIP3   OH276080   5.423   6.962   3.818  0.1446  0.0119 -0.0025
18222TIP3    H176081   5.387   7.048   3.795 -1.4571 -0.7134 -0.3483
18222TIP3    H276082   5.380   6.939   3.900 -0.7211 -1.1498 -0.7437
18223TIP3   OH276083   0.341   0.541   5.656 -0.5522  0.1611 -0.4685
18223TIP3    H176084   0.392   0.532   5.576 -0.9431 -2.1728 -0.5251
18223TIP3    H276085   0.406   0.538   5.727 -0.3824 -0.0262 -0.6307
18224TIP3   OH276086   3.237   3.475   3.439  0.4845  0.5497  0.1693
18224TIP3    H176087   3.317   3.493   3.390  0.9561 -0.0869  0.6937
18224TIP3    H276088   3.210   3.561   3.472  0.9666  0.7626  0.0235
18225TIP3   OH276089   5.194   0.208  14.443  0.2212 -0.2204  0.5577
18225TIP3    H176090   5.244   0.232  14.521  0.2823  0.1697  0.4041
18225TIP3    H276091   5.117   0.265  14.446  1.0882  1.0643 -0.5861
18226TIP3   OH276092   6.630   7.116   5.578 -0.9001 -0.3699 -0.1811
18226TIP3    H176093   6.700   7.073   5.528 -0.8602 -0.4787 -0.0355
18226TIP3    H276094   6.557   7.055   5.575  0.0805 -1.8665  2.4615
18227TIP3   OH276095   1.556   6.778   2.093 -0.3251  0.3655 -0.7903
18227TIP3    H176096   1.601   6.740   2.019 -1.0871 -1.2651 -0.4497
18227TIP3    H276097   1.473   6.730   2.100  0.2664 -0.4689  1.8721
18228TIP3   OH276098   1.218   0.090   0.258 -0.3547  0.3205 -0.6341
18228TIP3    H176099   1.177   0.176   0.248  0.7818  1.0053  0.3785
18228TIP3    H276100   1.301   0.096   0.211 -0.0902 -0.1069 -0.2306
18229TIP3   OH276101   0.868   1.946  13.285 -0.1627  0.5117 -0.0989
18229TIP3    H176102   0.874   1.988  13.371 -0.7068  0.5530 -0.0758
18229TIP3    H276103   0.858   1.853  13.305  0.5042  0.4239 -0.1390
18230TIP3   OH276104   2.618   2.158   3.292  0.1667  0.7054  0.7110
18230TIP3    H176105   2.678   2.189   3.359 -0.0665  1.8503  0.4118
18230TIP3    H276106   2.535   2.200   3.312 -0.4061 -0.4217  0.7920
18231TIP3   OH276107   1.533   5.589  11.863  0.5597  0.3411  0.3796
18231TIP3    H176108   1.575   5.505  11.884  1.0756  0.3835 -0.4425
18231TIP3    H276109   1.445   5.565  11.836  1.3100 -0.1738 -1.8273
18232TIP3   OH276110   2.171   0.548  11.382  0.4655  0.2834 -0.0917
18232TIP3    H176111   2.192   0.513  11.468 -0.3434  0.6560  0.2683
18232TIP3    H276112   2.213   0.634  11.379  0.5595  0.2371 -0.1013
18233TIP3   OH276113   6.081   6.989   1.000 -0.4311 -0.0214 -0.3932
18233TIP3    H176114   6.018   6.996   1.072  0.6410  0.2971  0.5553
18233TIP3    H276115   6.027   6.991   0.921 -1.6108  0.1422  0.3786
18234TIP3   OH276116   6.595   6.836   3.718  0.2048  0.7428 -0.0414
18234TIP3    H176117   6.687   6.861   3.711  0.7030 -1.0549 -0.4231
18234TIP3    H276118   6.549   6.891   3.654  0.8397  2.2731  0.7628
18235TIP3   OH276119   4.254   0.268   2.458 -0.2090 -0.2953  0.0081
18235TIP3    H176120   4.188   0.300   2.519  1.3180 -1.0737  2.1992
18235TIP3    H276121   4.294   0.347   2.422 -1.3702  0.1748 -0.2941
18236TIP3   OH276122   2.892   6.039   3.549 -0.5672 -0.4531  0.4064
18236TIP3    H176123   2.869   6.074   3.635 -1.7622  0.0534 -0.1033
18236TIP3    H276124   2.972   5.988   3.565 -0.2742  0.3460  1.6444
18237TIP3   OH276125   6.367   1.275  10.714 -0.5003  0.2746  0.1486
18237TIP3    H176126   6.314   1.206  10.676  0.0726 -0.7719  1.1880
18237TIP3    H276127   6.309   1.351  10.718 -1.5687 -0.5269  0.2633
18238TIP3   OH276128   3.662   6.018   1.240  0.0064 -0.2834 -0.1212
18238TIP3    H176129   3.701   6.008   1.327 -0.4320  0.3090  0.1517
18238TIP3    H276130   3.711   5.957   1.184  0.0442 -0.9465  0.6183
18239TIP3   OH276131   2.224   6.774  14.955  0.2141 -0.0357  0.2876
18239TIP3    H176132   2.280   6.837  14.909  1.3951 -1.4314 -0.2676
18239TIP3    H276133   2.286   6.715  14.998 -0.7348 -2.5432 -1.5416
18240TIP3   OH276134   1.173   1.929  15.277 -0.1434 -0.1494 -0.5513
18240TIP3    H176135   1.079   1.946  15.283 -0.4335 -1.6550 -0.5657
18240TIP3    H276136   1.200   1.976  15.198 -1.6925 -2.8349 -2.8780
18241TIP3   OH276137   6.961   2.159   1.539 -0.0825 -0.1766 -0.0559
18241TIP3    H176138   6.989   2.211   1.615  2.7692 -0.0227 -1.0961
18241TIP3    H276139   6.875   2.195   1.516  0.6654  2.4050  0.7862
18242TIP3   OH276140   3.501   0.247   3.487 -0.6590  0.0602 -0.7652
18242TIP3    H176141   3.463   0.288   3.565 -0.6371 -1.3920  0.0400
18242TIP3    H276142   3.437   0.264   3.418 -1.2639  0.3237 -0.1542
18243TIP3   OH276143   5.859   4.719   5.950  0.5644 -0.1999  0.1216
18243TIP3    H176144   5.856   4.746   6.042  0.3981 -1.2816  0.4546
18243TIP3    H276145   5.842   4.799   5.900  1.4312  0.5566  1.0003
18244TIP3   OH276146   5.685   0.345   2.201  0.1056  0.0539 -0.4108
18244TIP3    H176147   5.716   0.262   2.165  0.6153  0.1583 -0.2171
18244TIP3    H276148   5.689   0.334   2.296 -0.8938 -0.0918 -0.3771
18245TIP3   OH276149   3.867   2.453  13.474  0.5284 -0.6267 -0.0803
18245TIP3    H176150   3.821   2.536  13.485 -2.5589 -1.8737 -2.0719
18245TIP3    H276151   3.901   2.457  13.384  2.0492 -0.8142  0.4618
18246TIP3   OH276152   1.918   1.926   1.684  0.1031  0.4602  0.4201
18246TIP3    H176153   1.999   1.921   1.633 -0.9867 -0.0348 -1.3694
18246TIP3    H276154   1.895   1.835   1.701 -1.7982  0.3560 -2.1029
18247TIP3   OH276155   2.645   2.008   4.107 -0.3078  0.4342  0.6811
18247TIP3    H176156   2.616   2.097   4.130 -0.1398  0.4786  0.7236
18247TIP3    H276157   2.740   2.016   4.099 -0.3841  0.5030 -0.3490
18248TIP3   OH276158   5.975   0.436   1.433 -0.5372 -0.1296 -0.2738
18248TIP3    H176159   6.036   0.510   1.435 -1.0367  0.2934 -0.5705
18248TIP3    H276160   6.024   0.364   1.474 -0.3787  0.6154  0.9043
18249TIP3   OH276161   0.539   2.571   1.501 -0.6046 -0.1274  0.9866
18249TIP3    H176162   0.486   2.633   1.450 -0.4492 -1.8578 -1.4549
18249TIP3    H276163   0.475   2.521   1.551 -1.4565 -2.2214 -1.9621
18250TIP3   OH276164   5.218   0.465  12.121  0.0154 -0.3264  0.2360
18250TIP3    H176165   5.137   0.515  12.117  0.2262 -0.0386 -1.2367
18250TIP3    H276166   5.276   0.510  12.059  0.1088 -2.5190 -1.3798
18251TIP3   OH276167   3.259   0.217   2.003 -0.4032 -0.2156 -0.1717
18251TIP3    H176168   3.260   0.309   2.030 -0.3986 -0.9541  2.7686
18251TIP3    H276169   3.176   0.183   2.036  0.2661 -1.5845  0.1831
18252TIP3   OH276170   1.914   2.911  15.209 -0.0819  0.1561 -0.4425
18252TIP3    H176171   1.913   2.978  15.277 -1.5084 -0.1207 -0.1566
18252TIP3    H276172   1.892   2.830  15.255  1.1878 -0.4535 -0.8571
18253TIP3   OH276173   4.077   4.590  13.706 -0.3475  0.0774 -0.0876
18253TIP3    H176174   3.989   4.612  13.677  0.5062  1.0502 -2.1465
18253TIP3    H276175   4.122   4.675  13.714  1.0755 -0.4834 -1.5235
18254TIP3   OH276176   4.364   7.100  14.645 -0.2749 -0.0856 -0.6405
18254TIP3    H176177   4.320   7.156  14.581  0.7498  0.3803 -0.9543
18254TIP3    H276178   4.444   7.147  14.667  0.4719 -1.3010 -0.6930
18255TIP3   OH276179   4.322   6.640   2.124 -0.2824 -0.1186  0.3125
18255TIP3    H176180   4.343   6.655   2.032 -1.3499 -2.1654 -0.3294
18255TIP3    H276181   4.259   6.709   2.145  0.2361  0.5845 -0.3688
18256TIP3   OH276182   2.029   2.400   3.979  0.0714  0.7594 -0.8671
18256TIP3    H176183   2.038   2.430   3.888  0.4579  0.8597 -0.7953
18256TIP3    H276184   2.090   2.454   4.028 -0.4732  1.0257 -0.4718
18257TIP3   OH276185   5.455   6.014   5.105  0.1554 -0.4099  0.1210
18257TIP3    H176186   5.548   6.026   5.082  1.3010 -0.9007  3.8172
18257TIP3    H276187   5.453   5.932   5.155 -3.1055 -2.6538 -3.2063
18258TIP3   OH276188   0.199   2.976   4.516 -0.4215 -0.3896 -0.6328
18258TIP3    H176189   0.131   3.020   4.466  0.5504 -0.4447 -2.0669
18258TIP3    H276190   0.273   3.036   4.514 -0.6190  0.0100  1.5621
18259TIP3   OH276191   6.135   0.631   3.374 -0.2213  0.2726 -0.2665
18259TIP3    H176192   6.151   0.575   3.450  0.0358 -0.5203 -0.8913
18259TIP3    H276193   6.194   0.706   3.386  1.1493 -0.7202 -0.5702
18260TIP3   OH276194   4.314   4.405   0.798  0.1811 -0.1257  1.0091
18260TIP3    H176195   4.282   4.405   0.889 -0.9003 -2.4238  0.7025
18260TIP3    H276196   4.407   4.385   0.806 -0.0402 -1.0114  1.6317
18261TIP3   OH276197   1.363   4.829  13.398 -0.2950 -0.2622  0.3866
18261TIP3    H176198   1.325   4.742  13.402  1.3421 -0.9792  1.5964
18261TIP3    H276199   1.347   4.866  13.485  0.3684  0.0183  0.3968
18262TIP3   OH276200   2.440   1.348   5.318 -0.7118 -1.0590 -0.0969
18262TIP3    H176201   2.422   1.271   5.265 -0.5956 -1.5999  0.6315
18262TIP3    H276202   2.464   1.313   5.404 -1.8277 -0.1771  0.5965
18263TIP3   OH276203   3.787   0.615   0.186  0.2384 -0.0463 -0.5351
18263TIP3    H176204   3.806   0.705   0.159  1.0705 -0.4669 -1.4229
18263TIP3    H276205   3.771   0.620   0.280  0.4720  0.9983 -0.5442
18264TIP3   OH276206   4.240   3.882   3.512 -0.6432  0.0279 -0.6985
18264TIP3    H176207   4.269   3.815   3.451  0.8750 -1.7331  1.7937
18264TIP3    H276208   4.145   3.870   3.517 -0.7213 -0.1709 -2.1901
18265TIP3   OH276209   2.676   4.637   3.478 -0.1916 -0.0840  0.3755
18265TIP3    H176210   2.663   4.675   3.565  0.1191 -0.1525  0.4527
18265TIP3    H276211   2.594   4.654   3.432 -0.3990 -0.1527  0.7195
18266TIP3   OH276212   3.648   4.496  15.635  0.0079 -0.0926 -0.3028
18266TIP3    H176213   3.649   4.512  15.729 -0.5691 -0.2925 -0.2591
18266TIP3    H276214   3.739   4.507  15.608  0.2879 -0.6820  0.3839
18267TIP3   OH276215   4.540   2.581   4.232 -0.0343  0.4363 -0.7529
18267TIP3    H176216   4.602   2.602   4.162  1.4105 -0.2516  0.2868
18267TIP3    H276217   4.521   2.488   4.219 -2.5193  1.0473 -2.2964
18268TIP3   OH276218   0.129   2.716   2.304  0.2499  0.9065  0.2611
18268TIP3    H176219   0.126   2.655   2.378 -0.0432 -0.9651 -1.2336
18268TIP3    H276220   0.220   2.745   2.301  0.0414  1.8586  1.9745
18269TIP3   OH276221   6.078   2.452   1.304 -0.4293 -0.0319 -0.2989
18269TIP3    H176222   6.042   2.413   1.225 -0.5777  0.8556 -0.6814
18269TIP3    H276223   6.130   2.382   1.344 -2.1926 -1.2196  0.0532
18270TIP3   OH276224   5.929   5.118  13.682  0.2316  0.6873 -0.1843
18270TIP3    H176225   5.855   5.144  13.737  0.7502  0.0399  0.8569
18270TIP3    H276226   5.910   5.155  13.596 -0.4954  1.9106  0.4883
18271TIP3   OH276227   5.580   6.021   0.043 -0.0359  0.5090 -0.1586
18271TIP3    H176228   5.575   6.107   0.003  0.0455 -0.5017 -2.4795
18271TIP3    H276229   5.502   5.975   0.014  0.1829 -0.3866  0.5981
18272TIP3   OH276230   5.864   5.946   9.749 -0.7902  0.3614 -0.3620
18272TIP3    H176231   5.813   5.866   9.750  1.4357 -1.2313 -2.5589
18272TIP3    H276232   5.799   6.016   9.751 -2.7892 -1.3899  2.1171
18273TIP3   OH276233   4.429   3.447   1.842 -0.1131 -0.2167 -0.0377
18273TIP3    H176234   4.524   3.437   1.847 -0.0835 -0.2646 -0.5785
18273TIP3    H276235   4.395   3.382   1.903  0.2040 -0.1090  0.2592
18274TIP3   OH276236   5.454   3.761   0.127 -0.8275  0.4570  1.2087
18274TIP3    H176237   5.364   3.789   0.110 -0.9046  0.0050  0.8804
18274TIP3    H276238   5.450   3.718   0.213 -0.7907  1.0471  1.5133
18275TIP3   OH276239   5.784   7.021   3.978 -0.4101  0.0905  0.0417
18275TIP3    H176240   5.758   7.010   4.069  2.2894  0.7339  0.9969
18275TIP3    H276241   5.873   6.985   3.974 -0.8922 -1.0858 -2.6728
18276TIP3   OH276242   6.633   6.915   2.770 -0.1849  0.0110 -0.2491
18276TIP3    H176243   6.696   6.843   2.781  1.4185  1.3412 -0.4038
18276TIP3    H276244   6.577   6.910   2.848  2.1647  0.7486  1.5923
18277TIP3   OH276245   5.159   1.118  13.991 -0.2108  0.1032 -0.6999
18277TIP3    H176246   5.201   1.057  13.930  2.7645  0.8749  0.3618
18277TIP3    H276247   5.157   1.202  13.944 -0.2865  0.1306 -0.6473
18278TIP3   OH276248   2.425   4.098   1.294  0.4861 -0.1288 -0.0699
18278TIP3    H176249   2.509   4.132   1.262 -0.3821  2.3118  0.0054
18278TIP3    H276250   2.374   4.083   1.214  0.4660 -0.0601 -0.0708
18279TIP3   OH276251   4.624   5.733  14.921  0.1754  0.6328  0.0370
18279TIP3    H176252   4.715   5.760  14.920  0.1607  0.6726 -0.8397
18279TIP3    H276253   4.616   5.676  14.998  1.4221 -1.0069 -0.9844
18280TIP3   OH276254   5.035   0.718   0.026  0.1787 -0.3607 -0.3123
18280TIP3    H176255   5.021   0.712   0.120 -1.7352  1.9964 -0.3703
18280TIP3    H276256   4.947   0.715  -0.012  0.8805 -0.7944 -2.0216
18281TIP3   OH276257   5.951   3.347  13.767 -0.3617 -0.3310 -0.1537
18281TIP3    H176258   5.977   3.319  13.855 -1.5412  1.6582  0.8946
18281TIP3    H276259   5.875   3.294  13.746 -1.0117  0.2104  0.7209
18282TIP3   OH276260   5.853   4.403   1.527  0.4773 -0.6364 -0.2064
18282TIP3    H176261   5.893   4.485   1.498  0.6134 -0.5018  0.3603
18282TIP3    H276262   5.759   4.417   1.514  0.5326 -0.5737 -0.5633
18283TIP3   OH276263   4.168   3.968  11.462 -0.2855 -0.5394 -0.2624
18283TIP3    H176264   4.193   3.878  11.441  0.0084 -0.4779 -0.1834
18283TIP3    H276265   4.075   3.972  11.443  0.2941  0.0622 -3.5575
18284TIP3   OH276266   3.187   5.026   5.294  0.7069  0.0650 -0.4444
18284TIP3    H176267   3.094   5.037   5.313  0.9698  4.9392 -0.8359
18284TIP3    H276268   3.196   5.055   5.203  2.8892  3.0594  0.5666
18285TIP3   OH276269   4.883   0.027  14.486  0.2846 -0.0943  0.1632
18285TIP3    H176270   4.902   0.027  14.580  0.1342  1.9304  0.2374
18285TIP3    H276271   4.894   0.118  14.460  0.7578 -0.6978 -1.8897
18286TIP3   OH276272   4.219   3.786  15.187  0.1555  0.1466  0.0443
18286TIP3    H176273   4.270   3.740  15.120  0.2424 -0.2359  0.3721
18286TIP3    H276274   4.147   3.727  15.207  0.4882 -0.0301  0.7521
18287TIP3   OH276275   1.626   1.436   5.606  0.3224 -0.3676 -0.2604
18287TIP3    H176276   1.545   1.388   5.624 -0.0468 -0.1422 -1.2801
18287TIP3    H276277   1.608   1.525   5.634  0.2049 -0.3086 -0.5245
18288TIP3   OH276278   5.842   6.418   5.435  0.1414  0.3555  0.4156
18288TIP3    H176279   5.795   6.501   5.444 -0.3711  0.3728 -1.7461
18288TIP3    H276280   5.843   6.380   5.523 -0.6480  2.1000  1.2087
18289TIP3   OH276281   2.076   5.462   1.156  0.3145 -0.3763  0.0481
18289TIP3    H176282   2.028   5.527   1.105 -0.4490 -1.2907 -0.4161
18289TIP3    H276283   2.168   5.487   1.146  0.0655  0.3590 -0.4829
18290TIP3   OH276284   2.595   3.681  14.156  0.4510 -0.1315 -0.1161
18290TIP3    H176285   2.580   3.759  14.103  0.6087 -1.6504 -2.5736
18290TIP3    H276286   2.519   3.625  14.138  0.2919 -0.5441  1.6482
18291TIP3   OH276287   5.984   5.196   9.676  0.0963  0.0384 -0.3087
18291TIP3    H176288   6.065   5.173   9.630 -0.2117  0.2184 -0.9545
18291TIP3    H276289   5.929   5.235   9.608 -0.5043 -0.0174  0.1443
18292TIP3   OH276290   4.646   5.082   2.842 -0.8248 -0.4263  0.1618
18292TIP3    H176291   4.698   5.114   2.915  1.4975  2.9307 -2.5963
18292TIP3    H276292   4.711   5.049   2.779 -2.4939 -1.1428 -1.2651
18293TIP3   OH276293   6.279   2.701   4.628 -0.3330 -0.0718  0.5354
18293TIP3    H176294   6.304   2.737   4.543  1.3067 -0.5190  0.7993
18293TIP3    H276295   6.184   2.693   4.623 -0.3207  0.3672 -1.0723
18294TIP3   OH276296   3.852   5.301   0.761  0.1561 -0.3087  0.0962
18294TIP3    H176297   3.766   5.275   0.794  0.4303 -0.2213  0.8992
18294TIP3    H276298   3.834   5.370   0.697 -0.2152  1.9030  2.4556
18295TIP3   OH276299   5.530   2.974   2.708  0.0001 -0.2983  0.8426
18295TIP3    H176300   5.566   3.059   2.732  1.1997 -0.5846  0.1608
18295TIP3    H276301   5.477   2.948   2.784  0.3463  0.6407  1.4261
18296TIP3   OH276302   1.914   5.956   2.542 -0.2082 -0.6752  0.9833
18296TIP3    H176303   1.844   6.011   2.577 -1.4929 -1.6975  0.1370
18296TIP3    H276304   1.913   5.878   2.599  0.7894 -0.3665  1.4446
18297TIP3   OH276305   7.066   0.717   1.025  0.3905 -0.0275 -0.1265
18297TIP3    H176306   7.014   0.738   1.103 -1.2376 -1.0116 -0.8905
18297TIP3    H276307   7.125   0.792   1.014  1.6326 -0.4281  2.7920
18298TIP3   OH276308   3.528   4.861   5.731 -0.0225 -0.3944  0.3363
18298TIP3    H176309   3.526   4.767   5.712 -0.6804 -0.0277 -1.7064
18298TIP3    H276310   3.479   4.901   5.659 -2.8563  1.2815  2.9518
18299TIP3   OH276311   4.253   5.900  15.183  0.1157  0.7688  0.3472
18299TIP3    H176312   4.257   5.937  15.271 -0.6984  0.1935  0.6411
18299TIP3    H276313   4.174   5.937  15.145  0.0959  0.4854  0.1080
18300TIP3   OH276314   0.760   0.418  10.561  0.3589 -0.4098 -0.2338
18300TIP3    H176315   0.729   0.417  10.470 -0.6426 -0.4675  0.1003
18300TIP3    H276316   0.681   0.410  10.614  1.0645 -2.4349  0.6302
18301TIP3   OH276317   2.964   5.354  15.559  0.1334 -0.0652 -0.3368
18301TIP3    H176318   2.996   5.318  15.476  0.3733 -0.2607 -0.1595
18301TIP3    H276319   3.034   5.412  15.589  0.3612 -0.5597  0.0926
18302TIP3   OH276320   4.972   4.029   0.953  0.2806 -0.3985  0.3741
18302TIP3    H176321   4.981   3.937   0.976 -0.8628 -0.3606  1.0769
18302TIP3    H276322   4.933   4.028   0.865 -0.7829 -0.6039  0.8391
18303TIP3   OH276323   2.717   2.626   1.046  0.0430  0.1764  0.1717
18303TIP3    H176324   2.643   2.656   0.993 -0.7283 -1.3687  0.3195
18303TIP3    H276325   2.786   2.608   0.983  0.1344  1.1141 -0.0157
18304TIP3   OH276326   4.550   4.401   2.701 -0.1996  0.4178  0.1589
18304TIP3    H176327   4.619   4.361   2.754  0.2023  1.5610  0.5205
18304TIP3    H276328   4.499   4.452   2.764  0.1443  1.5988 -0.5089
18305TIP3   OH276329   1.873   1.990  10.669  0.5175 -0.0340  0.1312
18305TIP3    H176330   1.966   2.005  10.689  1.1452 -0.5338 -2.0445
18305TIP3    H276331   1.863   1.895  10.673  0.0382  0.0333  0.5627
18306TIP3   OH276332   5.114   4.879   1.578 -0.4048 -0.3003  0.6763
18306TIP3    H176333   5.133   4.973   1.573  0.6372 -0.5581 -0.4470
18306TIP3    H276334   5.019   4.875   1.594 -0.5248  0.9314  0.3700
18307TIP3   OH276335   5.413   4.142   2.748  0.0607 -0.0646 -0.8520
18307TIP3    H176336   5.470   4.218   2.748  0.8489 -0.6318 -1.3523
18307TIP3    H276337   5.407   4.117   2.655  2.0146 -2.1776 -0.5070
18308TIP3   OH276338   0.255   7.042   4.678 -0.2887  0.2555  0.1274
18308TIP3    H176339   0.311   7.006   4.746 -0.7638  0.0722  0.4269
18308TIP3    H276340   0.304   7.027   4.596 -1.0532 -2.3650  0.0643
18309TIP3   OH276341   3.860   4.203   4.442 -0.0856 -0.4497 -0.0622
18309TIP3    H176342   3.844   4.196   4.536  1.3134 -0.0995  0.2232
18309TIP3    H276343   3.814   4.128   4.405  2.2061 -2.6682  1.2919
18310TIP3   OH276344   4.561   6.905   2.023 -0.0431  0.8260 -0.5623
18310TIP3    H176345   4.613   6.983   2.005 -0.8801  1.1081 -1.9606
18310TIP3    H276346   4.555   6.901   2.118  3.1176  0.3394 -0.2740
18311TIP3   OH276347   0.011   4.842   4.336 -0.2267 -0.7778  0.2535
18311TIP3    H176348   0.082   4.882   4.286  2.8646 -3.5769  2.0430
18311TIP3    H276349  -0.001   4.901   4.411  1.5427 -1.1042  0.8510
18312TIP3   OH276350   1.795   6.032  10.972 -0.3181  0.0820 -0.4265
18312TIP3    H176351   1.820   5.954  11.021  1.4439  0.8411 -0.0474
18312TIP3    H276352   1.800   6.006  10.880 -0.1205 -0.3553 -0.2905
18313TIP3   OH276353   0.139   5.040   4.937  0.3228 -0.3784  0.2628
18313TIP3    H176354   0.079   5.088   4.879  0.4777 -0.5593 -0.0495
18313TIP3    H276355   0.127   4.948   4.913  2.0635 -0.2986 -1.1031
18314TIP3   OH276356   1.528   2.201   1.260 -0.4890  1.0122  0.1158
18314TIP3    H176357   1.454   2.145   1.237 -0.3835  1.9454 -2.9706
18314TIP3    H276358   1.516   2.280   1.207  1.1325  2.5124  1.8190
18315TIP3   OH276359   3.058   0.009   5.513 -0.0749 -0.4127 -0.2671
18315TIP3    H176360   3.100   0.093   5.493 -0.6911 -0.3889 -1.5887
18315TIP3    H276361   2.969   0.019   5.479 -0.1675 -1.5769 -0.3934
18316TIP3   OH276362   4.031   1.507   1.922  0.3407  0.2420 -0.1525
18316TIP3    H176363   4.016   1.545   1.835  0.2967 -0.0684 -0.2810
18316TIP3    H276364   4.108   1.452   1.911 -0.3857 -0.7653 -0.2999
18317TIP3   OH276365   6.978   3.512   3.311  0.0630 -0.4173 -0.7601
18317TIP3    H176366   6.893   3.483   3.278 -0.0253 -1.2833  0.1910
18317TIP3    H276367   7.038   3.496   3.239 -0.3123 -1.2582 -0.8941
18318TIP3   OH276368   6.380   0.791  13.941  0.1426 -0.3690 -0.0413
18318TIP3    H176369   6.456   0.734  13.936 -0.0673 -0.5525 -2.0718
18318TIP3    H276370   6.347   0.794  13.851  1.0080  4.1216 -0.4359
18319TIP3   OH276371   5.701   4.765   0.615 -0.0264  0.2875  0.3850
18319TIP3    H176372   5.619   4.814   0.621  0.3573  1.3404 -1.8394
18319TIP3    H276373   5.684   4.699   0.547  1.2077  1.1337 -0.7910
18320TIP3   OH276374   0.801   3.949   3.830  0.5485 -0.6027 -0.7842
18320TIP3    H176375   0.868   3.911   3.774  0.7274  0.8074 -1.5755
18320TIP3    H276376   0.812   4.044   3.821 -0.7329 -0.3352  0.0528
18321TIP3   OH276377   3.974   2.832   1.905  0.3059 -0.3018 -0.3715
18321TIP3    H176378   3.881   2.824   1.928  0.0571  0.8938 -0.8651
18321TIP3    H276379   3.987   2.926   1.893  2.0079 -0.2468  1.4127
18322TIP3   OH276380   1.416   5.139   3.854 -0.1007 -0.5007  0.1912
18322TIP3    H176381   1.361   5.215   3.836  2.1845  1.0972 -0.4405
18322TIP3    H276382   1.379   5.069   3.801 -0.9299  0.7776 -0.9650
18323TIP3   OH276383   1.930   1.614   4.325 -0.3766 -0.5270  0.2592
18323TIP3    H176384   1.910   1.707   4.320 -2.0807 -0.8207  0.6271
18323TIP3    H276385   1.944   1.587   4.234  1.1645  0.2690  0.2446
18324TIP3   OH276386   4.024   0.239  10.840  0.6241 -0.5949  0.2377
18324TIP3    H176387   4.071   0.241  10.757  0.6890 -0.7392  0.2703
18324TIP3    H276388   3.940   0.281  10.821  0.5865 -0.7482  0.0670
18325TIP3   OH276389   2.231   1.260   1.373  0.4591  0.2904  0.7505
18325TIP3    H176390   2.277   1.332   1.416 -1.3872  1.4602  0.9090
18325TIP3    H276391   2.177   1.222   1.442 -1.5115  1.3141 -0.1444
18326TIP3   OH276392   6.582   6.468  11.783 -0.1452 -0.4241  0.7853
18326TIP3    H176393   6.637   6.404  11.827  0.5759  1.0384  2.1336
18326TIP3    H276394   6.512   6.487  11.845 -2.1126 -2.0596 -0.8064
18327TIP3   OH276395   1.244   6.823   1.896  0.4846 -0.3998 -0.4797
18327TIP3    H176396   1.168   6.860   1.851  2.5718  4.8475 -0.3653
18327TIP3    H276397   1.303   6.797   1.825  1.1059  1.7166 -0.8107
18328TIP3   OH276398   3.464   0.575   0.169  0.1775 -0.1326 -0.6264
18328TIP3    H176399   3.386   0.605   0.215 -0.0989 -0.4985 -0.8483
18328TIP3    H276400   3.523   0.650   0.168 -0.3106  0.2485 -0.7512
18329TIP3   OH276401   4.753   3.207   3.764  0.1465  0.4582 -0.1618
18329TIP3    H176402   4.736   3.127   3.815 -1.4025 -1.2385 -3.0508
18329TIP3    H276403   4.666   3.239   3.741  0.7606  2.7831  0.5106
18330TIP3   OH276404   3.436   6.198  12.261 -0.2641  0.7524  0.3376
18330TIP3    H176405   3.348   6.223  12.289  0.1686  0.8275  1.6742
18330TIP3    H276406   3.465   6.135  12.327  0.2214 -0.2122 -0.7611
18331TIP3   OH276407   1.744   1.071  13.904  0.7612 -0.1492 -0.8428
18331TIP3    H176408   1.707   1.121  13.976 -2.4712 -0.6434 -2.0035
18331TIP3    H276409   1.813   1.128  13.869 -1.5713  2.8705 -1.0210
18332TIP3   OH276410   5.367   2.146  11.806  0.1700  0.5443  0.1128
18332TIP3    H176411   5.327   2.101  11.732  1.1795  0.6452 -0.5150
18332TIP3    H276412   5.420   2.079  11.849  0.3493  0.7223  0.1691
18333TIP3   OH276413   5.183   5.659   9.928 -0.0715 -0.0597 -0.4101
18333TIP3    H176414   5.107   5.714   9.909  0.4902  1.4891  1.4617
18333TIP3    H276415   5.258   5.713   9.906  0.4925 -0.4631  0.4739
18334TIP3   OH276416   2.870   0.517  10.223 -0.4636 -0.1246  0.5645
18334TIP3    H176417   2.919   0.491  10.145 -2.2529 -0.9114 -0.3650
18334TIP3    H276418   2.791   0.558  10.188 -1.0470  0.0153  1.9862
18335TIP3   OH276419   5.230   0.105   3.286  0.3079  0.0338 -0.4741
18335TIP3    H176420   5.139   0.084   3.265  0.0173 -0.1574  0.8855
18335TIP3    H276421   5.267   0.139   3.204 -1.2026  0.8692 -0.8255
18336TIP3   OH276422   1.065   6.324  14.348 -0.7314  0.2854 -0.0588
18336TIP3    H176423   1.049   6.356  14.437  1.8179  1.6664 -0.0035
18336TIP3    H276424   1.054   6.401  14.293 -0.3036 -0.0874 -0.6741
18337TIP3   OH276425   5.270   4.862   6.145 -0.6209 -0.5012  0.2698
18337TIP3    H176426   5.224   4.800   6.088 -0.2709  0.7307 -1.4432
18337TIP3    H276427   5.362   4.856   6.117 -0.5189  0.4707  0.3812
18338TIP3   OH276428   4.935   3.025   2.306  0.1014 -0.4245 -0.5271
18338TIP3    H176429   4.927   3.115   2.337 -0.0092 -0.4935 -0.3543
18338TIP3    H276430   5.020   3.022   2.263  1.0591 -0.7569  1.2610
18339TIP3   OH276431   5.721   0.648   5.117  0.5439 -0.3688  0.6629
18339TIP3    H176432   5.715   0.566   5.166 -0.7812  0.8752  2.7470
18339TIP3    H276433   5.699   0.624   5.027  1.8475 -2.5414  0.8444
18340TIP3   OH276434   0.891   1.506   3.336 -0.2197 -0.5649 -0.1306
18340TIP3    H176435   0.834   1.578   3.309  0.6150  0.9060  1.8631
18340TIP3    H276436   0.841   1.459   3.403 -0.5008 -1.5019 -0.9673
18341TIP3   OH276437   0.311   1.656   5.407  0.4694  0.4872  0.2578
18341TIP3    H176438   0.250   1.605   5.354 -0.7910  0.6493  1.4785
18341TIP3    H276439   0.255   1.716   5.456  1.6172  0.6715  1.4025
18342TIP3   OH276440   0.898   4.180  10.814 -0.5333  0.5368  0.4931
18342TIP3    H176441   0.936   4.093  10.822 -0.1984  0.6409  0.1074
18342TIP3    H276442   0.970   4.240  10.835 -1.1324  0.7191  2.2424
18343TIP3   OH276443   6.364   0.981   0.566 -0.1273  0.2393  0.1466
18343TIP3    H176444   6.287   1.017   0.610 -0.9990 -0.5045 -0.7211
18343TIP3    H276445   6.340   0.892   0.544 -0.1710  0.8606 -2.7722
18344TIP3   OH276446   6.676   5.499  11.648 -0.1699  0.8418 -0.6937
18344TIP3    H176447   6.757   5.516  11.697  0.0518  3.5631 -1.8512
18344TIP3    H276448   6.624   5.445  11.708  1.1853  1.7385  1.4286
18345TIP3   OH276449   2.485   3.171  15.621  0.0801  0.3490 -0.1306
18345TIP3    H176450   2.414   3.201  15.678  0.0783  1.3543 -0.6362
18345TIP3    H276451   2.565   3.194  15.669  0.1003 -1.1634  0.6333
18346TIP3   OH276452   4.936   6.666   0.328 -0.8199  0.3875  0.0603
18346TIP3    H176453   4.853   6.651   0.372 -1.5191 -0.3359 -1.4410
18346TIP3    H276454   4.941   6.598   0.261  1.8882 -0.8530  1.3337
18347TIP3   OH276455   2.549   3.452   4.840 -0.0256 -0.0886  0.7237
18347TIP3    H176456   2.496   3.462   4.761  1.8978  1.8938 -0.4794
18347TIP3    H276457   2.493   3.482   4.911 -1.5469 -1.1668  0.0334
18348TIP3   OH276458   5.347   6.164   0.173 -0.3321 -0.4042  0.1438
18348TIP3    H176459   5.384   6.116   0.099  0.2908 -0.5999  0.5743
18348TIP3    H276460   5.357   6.106   0.248 -0.3239  0.0650  0.5160
18349TIP3   OH276461   1.765   0.648   9.745 -0.2698 -0.4183  0.7726
18349TIP3    H176462   1.686   0.661   9.798 -2.0908  1.0352 -2.0689
18349TIP3    H276463   1.773   0.552   9.737 -2.3518 -0.6014  0.3564
18350TIP3   OH276464   6.148   5.393   3.909 -0.2188  0.6081 -0.7677
18350TIP3    H176465   6.188   5.331   3.849 -0.8535  0.1697 -0.7528
18350TIP3    H276466   6.210   5.400   3.982  1.0271  1.8913 -1.8861
18351TIP3   OH276467   1.841   6.406   0.480 -0.6631 -0.4152 -0.1939
18351TIP3    H176468   1.777   6.396   0.409  0.6989  1.0582 -1.7303
18351TIP3    H276469   1.921   6.434   0.436  0.6019 -0.6316  1.8391
18352TIP3   OH276470   4.188   4.663   1.121  0.4594  0.0133  0.4246
18352TIP3    H176471   4.135   4.696   1.049  0.6850 -1.4436 -0.4483
18352TIP3    H276472   4.200   4.739   1.179 -2.4019  0.4517  0.5871
18353TIP3   OH276473   3.393   3.549   1.720 -0.0672  0.2242 -0.1782
18353TIP3    H176474   3.338   3.613   1.767 -0.5217  0.1000 -0.5301
18353TIP3    H276475   3.371   3.465   1.760 -1.4971 -0.0839 -1.5042
18354TIP3   OH276476   3.731   0.861  13.337 -0.0019 -0.0138 -0.2575
18354TIP3    H176477   3.806   0.808  13.310 -1.0634 -0.9259 -1.4964
18354TIP3    H276478   3.770   0.938  13.378  1.5945 -1.6364  1.4786
18355TIP3   OH276479   3.196   4.378   1.200  0.2589  0.3908  0.1103
18355TIP3    H176480   3.126   4.407   1.259 -2.0925 -0.3276 -2.1726
18355TIP3    H276481   3.163   4.296   1.162  2.6305 -0.3019 -0.6186
18356TIP3   OH276482   5.341   6.976   3.324 -0.0980 -0.4700 -0.4825
18356TIP3    H176483   5.299   6.951   3.407 -2.9748 -0.8022 -1.9159
18356TIP3    H276484   5.314   7.067   3.311 -0.5319 -0.7378 -1.5196
18357TIP3   OH276485   1.307   2.448  14.174  0.1657  0.1536 -0.5279
18357TIP3    H176486   1.363   2.526  14.186 -0.8757  0.9712 -0.8284
18357TIP3    H276487   1.259   2.441  14.256  1.3604 -1.1211  0.1031
18358TIP3   OH276488   5.301   3.591   2.556 -0.3763 -0.3677 -0.2049
18358TIP3    H176489   5.332   3.541   2.632  0.3292 -2.2961 -1.6859
18358TIP3    H276490   5.381   3.628   2.518 -0.6191 -0.2287 -0.5792
18359TIP3   OH276491   5.479   4.911   0.684 -0.0821 -0.4242  0.9130
18359TIP3    H176492   5.498   4.955   0.766  1.7987  0.9284 -0.1921
18359TIP3    H276493   5.426   4.973   0.634  1.2274  0.0002 -0.0105
18360TIP3   OH276494   3.334   5.152   0.073  0.3390  0.1623 -0.1580
18360TIP3    H176495   3.287   5.095   0.012 -1.7060  0.1153  1.3506
18360TIP3    H276496   3.371   5.221   0.018  1.2736 -1.5447 -1.7879
18361TIP3   OH276497   0.244   6.068   3.607 -0.3747  0.4036  0.0310
18361TIP3    H176498   0.328   6.052   3.649 -0.6261 -1.8250 -0.1761
18361TIP3    H276499   0.196   6.123   3.669 -0.4167 -2.0260  2.3413
18362TIP3   OH276500   1.251   0.121   3.328  0.0847 -0.0288 -0.8397
18362TIP3    H176501   1.335   0.091   3.294  0.5325  0.3690 -0.0822
18362TIP3    H276502   1.245   0.082   3.415 -0.4321  0.0989 -0.8166
18363TIP3   OH276503   0.855   0.253   0.059 -0.2560 -0.2840  0.3705
18363TIP3    H176504   0.898   0.177   0.021 -0.7904  0.2716 -1.4399
18363TIP3    H276505   0.887   0.328   0.008 -0.7797  0.5398  1.2076
18364TIP3   OH276506   7.037   0.579   0.787 -0.1345  0.2820  0.1815
18364TIP3    H176507   7.065   0.659   0.831  0.0179 -0.4074  1.3737
18364TIP3    H276508   7.116   0.545   0.746 -0.3415  1.0942 -0.9305
18365TIP3   OH276509   3.984   2.172  13.043 -0.2989  0.3593 -0.1604
18365TIP3    H176510   4.036   2.123  12.979  1.2532  0.3719  1.0249
18365TIP3    H276511   3.985   2.262  13.011 -0.2411  0.2249 -0.5468
18366TIP3   OH276512   1.886   3.185   0.358  0.1153  0.0925  0.3073
18366TIP3    H176513   1.792   3.195   0.374  0.4261  1.7893  1.3291
18366TIP3    H276514   1.901   3.230   0.274 -0.2692 -2.0682 -1.0128
18367TIP3   OH276515   7.002   5.116   2.338  0.3135 -0.4429 -0.1949
18367TIP3    H176516   6.997   5.051   2.268  0.6944 -0.0580 -0.5877
18367TIP3    H276517   7.058   5.077   2.404 -0.6039 -1.0990  0.2210
18368TIP3   OH276518   4.919   6.676  13.475  0.6985 -0.3870  0.5486
18368TIP3    H176519   4.914   6.581  13.460 -4.5855 -0.4898  0.9329
18368TIP3    H276520   4.935   6.714  13.389 -1.4267 -1.6512 -0.4903
18369TIP3   OH276521   6.215   6.715   4.579 -0.2430 -0.2503  0.0765
18369TIP3    H176522   6.263   6.791   4.544  0.2885 -0.9100 -0.6635
18369TIP3    H276523   6.158   6.752   4.646  1.8170  0.4849  1.5262
18370TIP3   OH276524   4.202   4.365   3.575  0.5902  0.8635  0.0381
18370TIP3    H176525   4.267   4.331   3.515 -1.0857 -0.9431 -0.8779
18370TIP3    H276526   4.177   4.449   3.538 -0.2663 -0.1251 -1.7695
18371TIP3   OH276527   0.232   2.054   2.481 -0.3015  0.0075  0.1419
18371TIP3    H176528   0.176   1.978   2.497  0.6589 -1.1020 -1.4457
18371TIP3    H276529   0.320   2.024   2.501  0.3368  0.0459 -2.2987
18372TIP3   OH276530   1.172   2.947   1.670  0.5008 -0.2768  0.3748
18372TIP3    H176531   1.197   2.866   1.716  0.8475 -0.8719 -0.8282
18372TIP3    H276532   1.255   2.985   1.642  0.3453  0.5773  1.0365
18373TIP3   OH276533   4.390   4.021   3.931 -0.1469 -0.7290 -0.1806
18373TIP3    H176534   4.384   4.064   4.017 -0.6632 -0.0955 -0.5224
18373TIP3    H276535   4.449   4.077   3.881  0.5838 -1.3898 -0.0804
18374TIP3   OH276536   6.302   3.911  12.594 -0.5602 -0.1469 -0.2972
18374TIP3    H176537   6.390   3.947  12.601 -0.6042  0.0049 -0.5230
18374TIP3    H276538   6.312   3.837  12.533 -0.9922  1.2114 -2.0903
18375TIP3   OH276539   1.228   0.065   4.804  0.0674 -0.1774  0.3625
18375TIP3    H176540   1.303   0.054   4.863 -0.7474 -2.9359  1.0356
18375TIP3    H276541   1.232   0.157   4.778  3.1278  0.0134  1.0742
18376TIP3   OH276542   7.000   7.130   3.984 -0.0972  0.2738  1.0442
18376TIP3    H176543   6.996   7.199   3.917  2.3393 -1.6138 -1.2847
18376TIP3    H276544   7.057   7.166   4.051  1.2280  0.5604 -0.1826
18377TIP3   OH276545   4.410   2.250   5.234  0.4829  0.0478 -0.4090
18377TIP3    H176546   4.467   2.176   5.257 -0.0919 -0.5627 -0.8919
18377TIP3    H276547   4.453   2.290   5.158 -0.3136 -1.1347 -1.5205
18378TIP3   OH276548   3.830   0.114   1.727  0.1452 -0.1862  0.1779
18378TIP3    H176549   3.800   0.030   1.692 -0.3197 -0.0029  0.1330
18378TIP3    H276550   3.767   0.178   1.694 -0.2973 -0.0052  1.3294
18379TIP3   OH276551   6.513   6.036   1.138  0.3876 -0.0901 -0.1804
18379TIP3    H176552   6.529   6.047   1.044 -0.4934 -0.0610 -0.3386
18379TIP3    H276553   6.526   6.123   1.175  0.1743  0.0203 -0.3659
18380TIP3   OH276554   6.889   4.892   5.932  0.6584  0.2190 -0.0396
18380TIP3    H176555   6.972   4.848   5.950  0.7257 -0.0120 -0.8534
18380TIP3    H276556   6.911   4.985   5.932  0.6107  0.2463  1.2170
18381TIP3   OH276557   2.277   1.305   1.097  0.6880 -0.3959  0.1936
18381TIP3    H176558   2.245   1.292   1.187 -1.1243  0.1295 -0.3386
18381TIP3    H276559   2.330   1.385   1.103  0.5704 -0.3528  0.7996
18382TIP3   OH276560   1.722   2.407   2.764  0.1080 -0.0793  0.3445
18382TIP3    H176561   1.791   2.350   2.729  0.4660 -0.5100  1.6973
18382TIP3    H276562   1.668   2.429   2.688  1.9073  0.5287 -0.7993
18383TIP3   OH276563   2.773   3.509   1.547  0.0886 -0.5327  0.2911
18383TIP3    H176564   2.827   3.434   1.520  0.2363 -0.5550  0.6353
18383TIP3    H276565   2.684   3.475   1.550 -0.1311 -0.1849 -1.4746
18384TIP3   OH276566   1.106   4.445   2.030 -0.1719  0.3521 -0.5300
18384TIP3    H176567   1.085   4.389   2.105 -1.3517  0.2386 -0.9316
18384TIP3    H276568   1.166   4.393   1.977 -1.4647 -0.6669 -1.0439
18385TIP3   OH276569   5.933   5.039   5.057 -0.1689 -0.3627 -0.1507
18385TIP3    H176570   5.902   5.104   4.994 -1.8346 -0.9207  0.0299
18385TIP3    H276571   5.908   4.955   5.018  1.6445 -0.9069 -0.2236
18386TIP3   OH276572   3.784   1.658   0.854 -0.3853 -0.2020  0.4812
18386TIP3    H176573   3.879   1.657   0.840 -0.6964  1.2482 -2.4062
18386TIP3    H276574   3.764   1.749   0.877 -1.3339  0.2963 -1.9979
18387TIP3   OH276575   3.760   0.504   2.244 -0.5424  1.3566  0.2087
18387TIP3    H176576   3.826   0.499   2.313 -0.6900  0.2583  0.2856
18387TIP3    H276577   3.677   0.507   2.292 -0.7658 -1.3063  0.1170
18388TIP3   OH276578   0.274   5.898   2.271  0.2906  0.2018 -0.0811
18388TIP3    H176579   0.217   5.965   2.234 -1.5814 -0.5114  1.3298
18388TIP3    H276580   0.362   5.920   2.239 -0.7243  1.4461 -2.2017
18389TIP3   OH276581   5.312   2.793   3.606 -0.0786  0.6116  0.1034
18389TIP3    H176582   5.397   2.767   3.573  1.2674  4.1384  0.3414
18389TIP3    H276583   5.256   2.798   3.528  0.8634  1.3097 -0.5525
18390TIP3   OH276584   4.230   2.003   5.293  0.4510  0.1423  0.2189
18390TIP3    H176585   4.187   2.085   5.319  1.7199  0.2705  2.1951
18390TIP3    H276586   4.315   2.007   5.338  1.9078 -0.7802 -2.3057
18391TIP3   OH276587   1.736   2.962   3.931 -0.0645  0.7247  0.0388
18391TIP3    H176588   1.776   3.049   3.939  0.6901  0.2751  1.7967
18391TIP3    H276589   1.738   2.942   3.838  0.0031  2.4693 -0.3619
18392TIP3   OH276590   2.739   1.507  11.237  0.0066 -0.3927  0.0745
18392TIP3    H176591   2.680   1.553  11.296  0.2258  0.8753 -0.6573
18392TIP3    H276592   2.747   1.419  11.274 -0.3457  0.1770  1.5686
18393TIP3   OH276593   4.232   0.219  14.528 -0.3334 -0.2718 -0.5733
18393TIP3    H176594   4.255   0.282  14.459 -1.2771  1.5586  0.6886
18393TIP3    H276595   4.211   0.274  14.603  1.0432 -2.2190  1.3252
18394TIP3   OH276596   2.307   3.593  10.936 -0.1944  0.3978 -0.7843
18394TIP3    H176597   2.225   3.576  10.982 -0.0887  0.2142 -0.6620
18394TIP3    H276598   2.283   3.594  10.844  0.1469 -2.7936 -1.0091
18395TIP3   OH276599   5.385   7.036  13.698  0.5158 -0.0188 -0.0999
18395TIP3    H176600   5.290   7.032  13.704  0.4913  0.3348 -0.1984
18395TIP3    H276601   5.416   6.960  13.746  0.2432  0.9680  1.7228
18396TIP3   OH276602   4.626   4.313  15.045 -0.4000  0.0387 -0.2947
18396TIP3    H176603   4.648   4.394  14.999  0.7306 -0.2949 -0.3622
18396TIP3    H276604   4.684   4.311  15.121 -2.3507  0.6625  1.3220
18397TIP3   OH276605   5.300   6.091   3.402  0.9765 -0.3167 -0.4243
18397TIP3    H176606   5.304   6.187   3.399 -0.8640 -0.1589  0.3223
18397TIP3    H276607   5.229   6.073   3.464 -0.0922 -2.1104 -2.0490
18398TIP3   OH276608   1.830   6.668   5.990  0.6290  0.6946  0.2014
18398TIP3    H176609   1.869   6.602   5.933  2.4255  1.9811 -0.1636
18398TIP3    H276610   1.740   6.639   6.002  0.6303 -0.4841 -2.0038
18399TIP3   OH276611   5.417   2.891   4.785  0.0152  0.2117 -0.8221
18399TIP3    H176612   5.432   2.974   4.739  0.2326 -0.6553 -2.3914
18399TIP3    H276613   5.454   2.824   4.727 -0.2141 -1.0046  0.3733
18400TIP3   OH276614   0.956   1.005  15.348 -0.2571  0.2277  0.1198
18400TIP3    H176615   0.945   1.098  15.327 -2.4885  0.6752  2.6877
18400TIP3    H276616   0.950   1.002  15.444 -2.0463 -2.7319  0.0252
18401TIP3   OH276617   5.971   2.765   0.748 -0.4781 -0.1243  0.3655
18401TIP3    H176618   5.946   2.761   0.840  0.0684 -1.6556  0.4698
18401TIP3    H276619   6.007   2.853   0.736  0.8244 -0.3940  1.9780
18402TIP3   OH276620   0.054   6.317  13.893 -0.3866  0.5352  0.1232
18402TIP3    H176621   0.044   6.238  13.947 -1.1440 -0.6898 -1.7169
18402TIP3    H276622  -0.036   6.342  13.871 -0.1263  1.6172  0.2567
18403TIP3   OH276623   4.930   4.874  10.741  0.2262 -0.1020 -0.5045
18403TIP3    H176624   4.839   4.900  10.753  0.3316  0.3706 -0.6793
18403TIP3    H276625   4.959   4.845  10.827  0.2016  0.6988 -0.2193
18404TIP3   OH276626   6.613   6.488   2.680  0.2745 -0.4052  0.1502
18404TIP3    H176627   6.567   6.546   2.620  1.1102 -0.9819 -1.0965
18404TIP3    H276628   6.604   6.401   2.641  1.6774 -0.6524  0.3183
18405TIP3   OH276629   0.833   1.567   1.897  0.0118 -0.1609 -0.2738
18405TIP3    H176630   0.863   1.615   1.974 -1.1714 -1.2934  0.9509
18405TIP3    H276631   0.911   1.557   1.843  1.2412 -0.6321  1.4945
18406TIP3   OH276632   0.691   2.680   0.686 -0.1628 -0.3786  0.2681
18406TIP3    H176633   0.646   2.703   0.767  0.9798  0.8553  0.5836
18406TIP3    H276634   0.770   2.635   0.714  0.8508  1.1169 -0.0685
18407TIP3   OH276635   5.146   1.630   3.793  0.7344  0.2983  0.7673
18407TIP3    H176636   5.121   1.650   3.884  2.2610  3.2263  0.6546
18407TIP3    H276637   5.180   1.541   3.796 -2.3177 -0.9499  2.3634
18408TIP3   OH276638   6.701   6.756  15.648 -0.0382  0.0721 -0.9282
18408TIP3    H176639   6.741   6.842  15.658 -0.3964  0.1102  0.4312
18408TIP3    H276640   6.663   6.757  15.560 -2.3569  2.3251 -0.0318
18409TIP3   OH276641   3.983   2.987   5.347 -0.4464 -0.2425  0.2566
18409TIP3    H176642   3.970   2.964   5.439  0.6425 -0.1456  0.4513
18409TIP3    H276643   3.977   2.903   5.300 -2.9540 -0.0686  0.1386
18410TIP3   OH276644   6.207   1.418  12.678  0.2354 -0.4144  0.3213
18410TIP3    H176645   6.273   1.457  12.735  0.8010 -3.2848  1.8470
18410TIP3    H276646   6.257   1.358  12.622 -0.8554 -1.3810  0.3447
18411TIP3   OH276647   5.400   6.530   3.311 -0.2155  0.2435  0.1133
18411TIP3    H176648   5.317   6.495   3.343 -0.0040 -1.2295 -0.8567
18411TIP3    H276649   5.419   6.479   3.233  1.4469  0.7813  0.1261
18412TIP3   OH276650   5.615   4.596   4.886  0.3451 -0.5595 -0.2317
18412TIP3    H176651   5.704   4.566   4.869  0.8294  0.8866 -0.3457
18412TIP3    H276652   5.589   4.641   4.805  0.8540  2.0969  0.9776
18413TIP3   OH276653   4.367   0.717   5.948 -0.3648 -0.2175 -0.2855
18413TIP3    H176654   4.324   0.643   5.906 -0.4674 -1.2760  1.5757
18413TIP3    H276655   4.458   0.689   5.960 -0.3810 -0.0314  0.3537
18414TIP3   OH276656   5.346   6.308   2.847 -0.8041  0.5183 -0.1524
18414TIP3    H176657   5.426   6.267   2.882 -0.2753  0.1036 -1.7619
18414TIP3    H276658   5.283   6.236   2.842 -0.8386  0.5520 -0.1964
18415TIP3   OH276659   4.905   4.826   5.656 -0.0322  0.8149 -0.1837
18415TIP3    H176660   4.855   4.770   5.715  0.3631 -1.1428 -1.6157
18415TIP3    H276661   4.869   4.807   5.569 -0.0593  3.0058 -0.7223
18416TIP3   OH276662   5.997   3.527   0.251 -0.4158 -0.0814 -0.5286
18416TIP3    H176663   6.014   3.601   0.310  1.4347 -0.4595 -0.5201
18416TIP3    H276664   5.988   3.452   0.309  1.8580 -0.5355 -0.6438
18417TIP3   OH276665   4.190   3.494   2.378 -0.7480 -0.1947 -0.1822
18417TIP3    H176666   4.095   3.482   2.384 -0.7380 -0.6074 -0.7442
18417TIP3    H276667   4.203   3.588   2.390 -1.1189 -0.2740  1.0574
18418TIP3   OH276668   0.692   6.826  15.171  0.1321  0.4476  0.3277
18418TIP3    H176669   0.629   6.890  15.204 -0.2079  0.5815 -0.5565
18418TIP3    H276670   0.749   6.808  15.246  0.6405  2.2838  0.4435
18419TIP3   OH276671   4.393   0.413  14.391 -0.5052 -0.0788 -0.1010
18419TIP3    H176672   4.384   0.501  14.429  2.1435  1.1932 -2.1389
18419TIP3    H276673   4.460   0.371  14.444 -0.7452 -0.3625 -0.0184
18420TIP3   OH276674   1.188   3.128   4.552  0.4267 -0.4221 -0.0102
18420TIP3    H176675   1.116   3.190   4.557  1.3658  0.6664  0.6677
18420TIP3    H276676   1.149   3.047   4.520 -0.9105  0.4001 -0.5161
18421TIP3   OH276677   5.119   4.716   3.608  0.1217  0.0617 -0.3328
18421TIP3    H176678   5.183   4.645   3.617  0.3096 -0.0277 -2.0485
18421TIP3    H276679   5.153   4.786   3.664  0.9055 -0.5351 -0.0346
18422TIP3   OH276680   5.248   4.510   2.048 -0.3186  0.2786 -0.1162
18422TIP3    H176681   5.226   4.601   2.069 -3.1215 -0.3819  0.2112
18422TIP3    H276682   5.199   4.491   1.968  2.2193 -0.2757 -1.6568
18423TIP3   OH276683   2.728   0.402   3.461  0.2050  0.5596  0.8648
18423TIP3    H176684   2.654   0.448   3.421  0.3677  0.6088  0.6162
18423TIP3    H276685   2.714   0.411   3.555 -0.7603 -0.4651  0.8441
18424TIP3   OH276686   4.515   0.138  14.062  0.0042 -0.1749  0.0200
18424TIP3    H176687   4.510   0.125  14.157 -1.0994 -0.4565 -0.0623
18424TIP3    H276688   4.423   0.140  14.033  0.3008 -2.1235 -1.2864
18425TIP3   OH276689   4.458   5.937  11.881  0.1833 -0.0333 -0.4898
18425TIP3    H176690   4.521   5.922  11.952 -0.0040 -1.7527 -0.6553
18425TIP3    H276691   4.512   5.952  11.804  0.3841  1.4643 -0.0943
18426TIP3   OH276692   2.594   0.522  13.298  0.1502 -0.6547  0.8397
18426TIP3    H176693   2.674   0.572  13.314  0.6652 -0.9179 -0.7316
18426TIP3    H276694   2.584   0.523  13.203 -1.7551 -0.5950  1.0077
18427TIP3   OH276695   3.344   2.986  13.416  0.0391 -0.0742 -0.0947
18427TIP3    H176696   3.386   3.024  13.339  0.2522 -2.2686 -1.1400
18427TIP3    H276697   3.387   2.900  13.426  0.2784  0.2717  2.6979
18428TIP3   OH276698   2.895   5.381   1.766  0.0508 -0.1572 -0.3234
18428TIP3    H176699   2.942   5.424   1.838 -1.2112  2.4010 -0.9061
18428TIP3    H276700   2.837   5.319   1.809  0.4421  0.1934  0.7517
18429TIP3   OH276701   2.553   6.560   9.718 -0.0903  0.3781  0.0588
18429TIP3    H176702   2.571   6.653   9.726 -0.0494  0.3093  0.8481
18429TIP3    H276703   2.548   6.544   9.624  0.8584  0.9891 -0.1053
18430TIP3   OH276704   4.075   4.316  10.974  0.1887 -0.2637  0.3636
18430TIP3    H176705   4.000   4.372  10.952 -0.6004 -1.8485 -1.2740
18430TIP3    H276706   4.130   4.371  11.029 -0.2931  2.3087 -1.5006
18431TIP3   OH276707   5.592   2.893   2.969  0.5495  0.4034  0.8719
18431TIP3    H176708   5.682   2.902   2.939  0.4689 -1.1255  0.0753
18431TIP3    H276709   5.593   2.927   3.059  1.5051  2.0354  0.2843
18432TIP3   OH276710   5.948   3.306   0.997 -0.6894 -0.1495  0.0367
18432TIP3    H176711   5.869   3.270   0.956 -0.7859  1.3761 -1.1975
18432TIP3    H276712   5.916   3.359   1.069 -0.6979 -0.4687  0.2728
18433TIP3   OH276713   2.329   4.281  12.422  0.2734 -0.2197  0.3212
18433TIP3    H176714   2.288   4.214  12.367  0.0808 -0.0620  0.2718
18433TIP3    H276715   2.423   4.261  12.419  0.1103 -1.1865  1.2384
18434TIP3   OH276716   1.855   1.948   5.608 -0.4048 -0.3218 -0.1090
18434TIP3    H176717   1.890   1.867   5.573 -0.6419 -0.7395  0.5928
18434TIP3    H276718   1.772   1.923   5.650 -1.0108  0.4599 -0.7922
18435TIP3   OH276719   0.849   2.217   3.969 -0.0869  0.0942  0.0869
18435TIP3    H176720   0.941   2.242   3.955 -0.3757  0.9511 -0.3031
18435TIP3    H276721   0.842   2.203   4.063  0.7686 -1.3013 -0.0177
18436TIP3   OH276722   1.093   5.905   3.889  0.0959  0.0768 -0.0470
18436TIP3    H176723   1.012   5.879   3.845  0.0316  1.5157 -0.8301
18436TIP3    H276724   1.155   5.919   3.818  0.8432 -0.3358  0.5117
18437TIP3   OH276725   3.838   0.236   5.333  0.5118 -0.1747  0.0317
18437TIP3    H176726   3.784   0.310   5.305 -1.8396 -1.7140  0.2717
18437TIP3    H276727   3.815   0.222   5.425 -0.1837 -2.0767 -0.3899
18438TIP3   OH276728   4.182   6.978   5.493 -0.4353 -0.4376 -0.1318
18438TIP3    H176729   4.108   6.917   5.498  1.6341 -3.0143  1.2542
18438TIP3    H276730   4.229   6.967   5.576  0.4812  2.5918 -0.1151
18439TIP3   OH276731   2.660   2.597   4.132 -0.2027  0.4553 -0.3578
18439TIP3    H176732   2.593   2.636   4.075 -1.2497 -2.4139 -1.2428
18439TIP3    H276733   2.614   2.576   4.213  0.0039 -0.1079 -0.3808
18440TIP3   OH276734   4.107   0.227   1.755 -0.6323 -0.4264 -0.4868
18440TIP3    H176735   4.139   0.145   1.717 -0.5264 -1.2606  1.3208
18440TIP3    H276736   4.012   0.218   1.757 -0.5951 -0.6771  0.0961
18441TIP3   OH276737   4.625   5.750   0.323  0.2789  0.1025 -0.6351
18441TIP3    H176738   4.717   5.725   0.314 -0.0333 -1.1433 -0.4618
18441TIP3    H276739   4.586   5.680   0.374 -1.2276 -0.5150 -2.5156
18442TIP3   OH276740   4.952   0.258   4.709 -0.0041  0.3479  0.0324
18442TIP3    H176741   4.941   0.279   4.616  3.3913  0.7902 -0.3933
18442TIP3    H276742   4.958   0.162   4.712 -2.0455  0.1844  0.1271
18443TIP3   OH276743   4.751   3.462   3.140  0.5426 -0.3820 -0.3779
18443TIP3    H176744   4.725   3.539   3.090  0.9923 -0.3064 -0.5039
18443TIP3    H276745   4.824   3.425   3.091 -0.6347 -1.7765 -1.1339
18444TIP3   OH276746   5.216   4.900   3.799 -0.2347 -0.0706  0.2676
18444TIP3    H176747   5.255   4.920   3.884  2.8909  1.6138 -1.3838
18444TIP3    H276748   5.164   4.977   3.778  0.9191  0.5855 -0.2964
18445TIP3   OH276749   4.177   4.722   4.006 -0.2704  0.6461  0.5974
18445TIP3    H176750   4.094   4.711   3.961  0.5496  0.7149 -0.9978
18445TIP3    H276751   4.184   4.645   4.064 -0.8609 -0.0213 -0.2022
18446TIP3   OH276752   6.696   2.127  12.476  0.7217 -0.1440  0.1741
18446TIP3    H176753   6.652   2.083  12.403 -0.5978 -0.0168  0.8698
18446TIP3    H276754   6.738   2.203  12.437  1.1734 -0.8086 -0.6687
18447TIP3   OH276755   2.120   0.155   1.735 -0.3784 -0.2341 -0.2543
18447TIP3    H176756   2.044   0.196   1.776 -0.1205  0.0848 -0.0855
18447TIP3    H276757   2.195   0.203   1.771 -0.1006 -0.5184 -0.4482
18448TIP3   OH276758   2.886   2.624   2.747  0.5995 -0.4667 -0.4721
18448TIP3    H176759   2.956   2.633   2.811  2.1510 -0.0376 -2.1416
18448TIP3    H276760   2.929   2.637   2.662 -1.7070  1.0441 -1.5185
18449TIP3   OH276761   1.296   1.906  11.303 -0.2831 -0.0596  0.3694
18449TIP3    H176762   1.276   1.881  11.393 -1.7528 -0.1599  0.0376
18449TIP3    H276763   1.224   1.870  11.251  0.4772  0.0954 -0.8391
18450TIP3   OH276764   5.853   2.149   1.924  0.6607 -0.1686  0.5231
18450TIP3    H176765   5.921   2.097   1.966  0.8931 -0.2864  0.0064
18450TIP3    H276766   5.899   2.223   1.885  0.5277 -0.3589 -0.0076
18451TIP3   OH276767   0.009   2.919   3.237 -0.4302 -0.2139 -0.6346
18451TIP3    H176768  -0.069   2.892   3.286  1.1740 -2.4058  0.8893
18451TIP3    H276769   0.046   2.837   3.203  3.4328  0.0967  2.2048
18452TIP3   OH276770   4.071   5.635  11.153  0.1424  0.1929 -0.6148
18452TIP3    H176771   4.041   5.607  11.240  0.8579 -1.4007 -0.8446
18452TIP3    H276772   4.048   5.728  11.149  0.5627  0.4402  1.4722
18453TIP3   OH276773   6.895   6.621   0.176 -0.4978  0.0752  0.3363
18453TIP3    H176774   6.890   6.575   0.261 -2.7750  1.3737  0.9879
18453TIP3    H276775   6.830   6.690   0.183 -0.3599  0.5539 -2.3235
18454TIP3   OH276776   0.118   2.265   3.574 -0.1334  0.8170 -0.0534
18454TIP3    H176777   0.022   2.267   3.580 -0.1594 -0.9021  0.6818
18454TIP3    H276778   0.145   2.203   3.641  1.3387 -0.6166 -1.8600
18455TIP3   OH276779   0.410   5.891   1.641  0.0109 -0.4041 -0.0623
18455TIP3    H176780   0.410   5.798   1.662 -1.5130 -0.4336 -0.1041
18455TIP3    H276781   0.361   5.897   1.559  0.1696  0.4297 -0.1060
18456TIP3   OH276782   6.508   7.017   1.931 -0.5622  0.4766  0.0782
18456TIP3    H176783   6.416   6.995   1.950 -0.5644  0.7123  0.3545
18456TIP3    H276784   6.515   7.013   1.836 -0.4018 -1.3852  0.1301
18457TIP3   OH276785   7.067   4.013  15.501  0.2632  0.3015  0.4237
18457TIP3    H176786   7.022   4.097  15.499  1.1269  0.7762 -0.6127
18457TIP3    H276787   7.085   3.994  15.409 -0.7742 -1.5123  0.5520
18458TIP3   OH276788   5.287   0.804   1.820  0.5154  0.3293 -0.4732
18458TIP3    H176789   5.320   0.779   1.906 -0.2938  1.0224  0.0364
18458TIP3    H276790   5.341   0.753   1.759  0.0078 -1.4364  0.4815
18459TIP3   OH276791   3.617   5.898   5.427 -0.1363  0.5664 -0.7529
18459TIP3    H176792   3.541   5.877   5.480  0.4188  1.5299  0.4626
18459TIP3    H276793   3.679   5.827   5.444  0.3645  1.2958  0.5786
18460TIP3   OH276794   4.415   1.084   2.251 -0.5001  0.4982  0.3817
18460TIP3    H176795   4.319   1.091   2.253 -0.3421  3.8530  1.6523
18460TIP3    H276796   4.445   1.169   2.220  2.1269 -0.4787 -0.0249
18461TIP3   OH276797   5.810   4.972   0.947 -0.0168 -0.3567 -0.0856
18461TIP3    H176798   5.841   4.917   0.875 -1.6124 -0.7947 -0.4847
18461TIP3    H276799   5.777   4.910   1.012 -2.2116  0.0740 -0.7123
18462TIP3   OH276800   1.840   5.966  15.192  0.0868 -0.3703  0.2980
18462TIP3    H176801   1.820   5.916  15.271 -1.1022 -1.0531 -0.4080
18462TIP3    H276802   1.794   6.049  15.204 -1.1268 -0.9489 -0.1919
18463TIP3   OH276803   1.691   6.597   4.064  0.8157  0.0606 -0.2945
18463TIP3    H176804   1.701   6.519   4.119 -2.3077  0.6720  1.3361
18463TIP3    H276805   1.652   6.564   3.983 -1.3159 -0.0414  0.7271
18464TIP3   OH276806   6.747   5.864  14.333 -0.9363 -0.2198  0.9980
18464TIP3    H176807   6.670   5.810  14.311 -1.9251  1.5488 -0.2014
18464TIP3    H276808   6.759   5.852  14.427 -1.9265 -1.5087  0.9875
18465TIP3   OH276809   3.280   2.587   1.065  0.0309  0.2710 -0.1543
18465TIP3    H176810   3.360   2.556   1.023 -1.7271 -1.8805 -2.2275
18465TIP3    H276811   3.282   2.682   1.054  3.3471  0.6193  2.0516
18466TIP3   OH276812   1.511   2.353   1.495 -0.5176  0.1706  0.3548
18466TIP3    H176813   1.539   2.300   1.421 -2.4926 -2.5041  1.3824
18466TIP3    H276814   1.456   2.421   1.457  0.4387  0.3054 -0.8182
18467TIP3   OH276815   4.205   4.185  13.769 -0.3706 -0.1570 -0.2804
18467TIP3    H176816   4.254   4.113  13.810  1.1338  0.3536 -1.1158
18467TIP3    H276817   4.229   4.182  13.677 -1.7297  0.2986 -0.6753
18468TIP3   OH276818   1.984   0.257   0.090 -0.0078  0.7786  0.0834
18468TIP3    H176819   1.997   0.316   0.164 -0.8930  0.6681  0.3331
18468TIP3    H276820   2.070   0.216   0.077  0.3684  1.4148  0.5080
18469TIP3   OH276821   4.992   4.935   2.508 -0.1177  0.8950 -0.1818
18469TIP3    H176822   4.937   4.987   2.450 -0.5140  1.2412  0.5011
18469TIP3    H276823   4.946   4.934   2.592  1.0033  1.3570  0.4658
18470TIP3   OH276824   4.007   5.066   5.917  0.4300  0.4653 -0.2070
18470TIP3    H176825   3.963   5.009   5.854  3.0680 -0.8605 -0.9911
18470TIP3    H276826   4.036   5.007   5.986  1.0677  1.2744  0.2316
18471TIP3   OH276827   5.131   3.446  15.037  0.2619 -0.3221  0.3199
18471TIP3    H176828   5.204   3.429  15.096  0.4167  1.3296  0.6636
18471TIP3    H276829   5.079   3.512  15.082 -0.4154 -0.1012 -0.7447
18472TIP3   OH276830   0.790   4.139   4.940 -0.5570 -0.1543 -0.0451
18472TIP3    H176831   0.820   4.214   4.991 -2.7656  1.0664 -0.4292
18472TIP3    H276832   0.721   4.174   4.883 -2.3185 -2.6067  0.4114
18473TIP3   OH276833   2.355   6.003  15.567  0.0884 -0.2693 -0.0473
18473TIP3    H176834   2.440   5.991  15.610 -0.5003 -0.8640  1.0016
18473TIP3    H276835   2.371   5.979  15.476  1.1779  0.2019 -0.0025
18474TIP3   OH276836   5.577   1.107   2.617 -0.0306  0.2141  0.1984
18474TIP3    H176837   5.643   1.038   2.611 -0.2671  0.0973 -3.3746
18474TIP3    H276838   5.494   1.060   2.625  0.0434  0.2356  1.1633
18475TIP3   OH276839   2.745   2.271  14.531  0.0616 -0.0472 -0.0288
18475TIP3    H176840   2.662   2.232  14.560  0.9787 -1.6155  0.6247
18475TIP3    H276841   2.720   2.327  14.458 -1.5255 -0.8328 -0.1498
18476TIP3   OH276842   2.092   4.916  14.709  0.5412 -0.1798  0.5450
18476TIP3    H176843   2.150   4.848  14.675  0.8619 -0.4907  1.6779
18476TIP3    H276844   2.024   4.924  14.642  1.5790 -0.1852 -0.5617
18477TIP3   OH276845   3.955   4.088   2.774  0.9379  0.1962 -0.2842
18477TIP3    H176846   3.974   4.049   2.688 -0.4506  0.4038 -0.7012
18477TIP3    H276847   4.023   4.154   2.786  1.0128  0.3286 -1.3370
18478TIP3   OH276848   6.194   0.449   4.910  0.2827 -0.0391  0.6171
18478TIP3    H176849   6.101   0.429   4.918  0.2514 -0.8821 -1.2986
18478TIP3    H276850   6.238   0.368   4.935  0.3431 -0.7914 -1.6999
18479TIP3   OH276851   6.924   1.541   0.917  0.3472 -0.0696 -0.5755
18479TIP3    H176852   6.936   1.575   1.005  0.2622 -1.0442 -0.1714
18479TIP3    H276853   6.830   1.548   0.901  0.0470 -1.7321  0.2210
18480TIP3   OH276854   6.759   4.751   2.681 -0.1081 -0.0936  0.1362
18480TIP3    H176855   6.804   4.669   2.702 -0.6786 -0.5380 -0.3801
18480TIP3    H276856   6.791   4.813   2.747  0.3532 -0.7168  0.5042
18481TIP3   OH276857   4.719   4.783   1.019  0.3623  0.0185 -0.0834
18481TIP3    H176858   4.638   4.815   0.981  0.3420 -1.6730 -1.6095
18481TIP3    H276859   4.786   4.802   0.953  1.7377  3.2714  1.9661
18482TIP3   OH276860   2.047   3.725   1.725 -0.1124  0.4082  0.2877
18482TIP3    H176861   1.986   3.778   1.776 -0.0395  0.6198  0.1583
18482TIP3    H276862   2.081   3.786   1.659 -1.7204 -0.3144 -1.3222
18483TIP3   OH276863   4.122   0.758   5.357  0.3016 -0.4130 -0.3050
18483TIP3    H176864   4.056   0.763   5.426 -0.3862 -3.1248 -0.6405
18483TIP3    H276865   4.074   0.781   5.277  0.6520  0.9114 -0.1675
18484TIP3   OH276866   6.491   5.924   3.177 -0.8654 -0.3872  0.0114
18484TIP3    H176867   6.448   6.009   3.166 -1.3068 -0.7753 -1.4634
18484TIP3    H276868   6.551   5.917   3.103 -2.3594 -2.2249 -1.1123
18485TIP3   OH276869   6.777   5.094   4.483  0.4580  0.3854 -0.1196
18485TIP3    H176870   6.809   5.183   4.498 -1.3536  1.2925 -1.2582
18485TIP3    H276871   6.694   5.090   4.531 -0.6966  0.1867 -2.0324
18486TIP3   OH276872   0.609   5.932   2.608 -0.1316  0.7180  0.3743
18486TIP3    H176873   0.683   5.991   2.623  0.1342  0.7446 -0.9541
18486TIP3    H276874   0.567   5.925   2.694  0.3280  2.1649  0.7519
18487TIP3   OH276875   4.147   2.780  11.051  0.3543  0.0086 -0.0664
18487TIP3    H176876   4.128   2.870  11.077 -0.3343  0.1722 -1.0844
18487TIP3    H276877   4.091   2.764  10.975 -0.1145 -1.5432  0.5509
18488TIP3   OH276878   6.144   6.168   4.873  0.7247  0.3582 -0.4432
18488TIP3    H176879   6.221   6.118   4.846  0.4974 -0.0948 -0.2629
18488TIP3    H276880   6.150   6.250   4.824  1.7558  0.6716  0.1694
18489TIP3   OH276881   2.795   7.045   2.103 -0.3330  0.6629  0.2318
18489TIP3    H176882   2.751   7.016   2.183 -0.2384  1.8431  0.7320
18489TIP3    H276883   2.887   7.026   2.117 -0.5482 -1.1729 -0.5337
18490TIP3   OH276884   0.797   6.907   5.590 -0.1744 -0.1021 -0.0669
18490TIP3    H176885   0.713   6.863   5.574 -1.1639  0.9635  1.8099
18490TIP3    H276886   0.847   6.844   5.643 -0.3910 -0.1583  0.0747
18491TIP3   OH276887   1.426   5.803   3.747  0.0844  0.0808 -0.2392
18491TIP3    H176888   1.351   5.801   3.687  0.5026 -3.9853 -0.9033
18491TIP3    H276889   1.500   5.775   3.694  0.9596 -1.2722  1.5972
18492TIP3   OH276890   2.142   0.170   4.572  0.7269  0.0905  0.1157
18492TIP3    H176891   2.213   0.218   4.615  0.2903  0.8428  0.0330
18492TIP3    H276892   2.123   0.221   4.493  0.4312 -0.3799 -0.1211
18493TIP3   OH276893   4.940   4.405   2.209  0.2030 -0.7941 -0.5920
18493TIP3    H176894   5.027   4.435   2.235  0.7962 -0.8834 -2.3542
18493TIP3    H276895   4.946   4.392   2.114 -1.9220 -0.1161 -0.8822
18494TIP3   OH276896   5.389   0.620   2.465  0.4694  0.4539 -0.0848
18494TIP3    H176897   5.415   0.564   2.392 -2.0407  0.1030 -0.8118
18494TIP3    H276898   5.321   0.677   2.428  0.0659  1.1749  1.6652
18495TIP3   OH276899   6.963   3.780   3.744  0.1439  0.1082  0.1532
18495TIP3    H176900   6.951   3.759   3.836  0.6797 -1.0495 -0.0187
18495TIP3    H276901   7.056   3.801   3.736 -0.0544  0.9643  0.0077
18496TIP3   OH276902   1.879   5.752   0.040  0.1324 -0.2493  0.1522
18496TIP3    H176903   1.909   5.662   0.052 -0.5793 -0.3786  1.0626
18496TIP3    H276904   1.888   5.793   0.126  0.1030  0.4535 -0.1659
18497TIP3   OH276905   7.128   2.537   5.216  0.7213 -0.7066  0.3715
18497TIP3    H176906   7.205   2.487   5.243 -0.7012 -2.1106  2.0745
18497TIP3    H276907   7.067   2.470   5.184 -1.3654 -0.2095  3.0004
18498TIP3   OH276908   5.599   2.567   4.983 -0.5984  0.4661 -0.4916
18498TIP3    H176909   5.623   2.516   5.061 -0.8429  2.7755  1.1830
18498TIP3    H276910   5.674   2.556   4.925 -0.9550 -2.3521 -0.5649
18499TIP3   OH276911   6.245   0.623  14.374 -0.3888  0.2452 -0.7136
18499TIP3    H176912   6.180   0.552  14.372 -0.1314  0.0242 -1.6322
18499TIP3    H276913   6.277   0.628  14.284  0.2940  0.8878 -0.4367
18500TIP3   OH276914   1.354   5.179   5.305  0.4501  0.5233  0.0120
18500TIP3    H176915   1.419   5.232   5.352 -1.4125  2.4247  0.6086
18500TIP3    H276916   1.299   5.143   5.373  0.2321 -0.2051 -0.5391
18501TIP3   OH276917   2.953   6.996   9.493 -0.0329  0.0353  0.5062
18501TIP3    H176918   2.876   7.050   9.512 -0.8435 -0.6955 -0.5849
18501TIP3    H276919   3.027   7.056   9.503 -0.6225  0.5022  2.6141
18502TIP3   OH276920   5.249   5.170  13.791  0.3768  0.9403 -0.6859
18502TIP3    H176921   5.243   5.191  13.697 -2.2723  2.6479 -0.2359
18502TIP3    H276922   5.319   5.227  13.823 -0.6126  2.4961 -1.1687
18503TIP3   OH276923   3.849   5.389  13.535  0.2743  0.0221  0.3597
18503TIP3    H176924   3.788   5.461  13.514  0.8610  0.5729  0.5367
18503TIP3    H276925   3.929   5.412  13.489  0.8161  0.0290  1.2980
18504TIP3   OH276926   1.702   1.438   0.031 -0.0971 -0.4623 -0.0195
18504TIP3    H176927   1.782   1.385   0.037  1.3208  1.6389  1.5855
18504TIP3    H276928   1.646   1.405   0.101  1.4533  1.0638  2.0549
18505TIP3   OH276929   1.972   0.660   0.389  0.3594  1.1649 -0.2118
18505TIP3    H176930   1.923   0.737   0.418  0.4497  2.6333 -3.5190
18505TIP3    H276931   1.907   0.607   0.342  0.6873  0.0414  0.5538
18506TIP3   OH276932   2.568   5.811   0.957 -0.1297 -0.5492  0.2685
18506TIP3    H176933   2.490   5.829   1.010 -0.0973  0.3898  0.0179
18506TIP3    H276934   2.535   5.803   0.868  0.1823  1.1948 -0.0467
18507TIP3   OH276935   4.675   2.529   3.980  0.2010  0.1419 -0.1656
18507TIP3    H176936   4.749   2.571   4.024 -0.5422  1.4625 -0.1022
18507TIP3    H276937   4.711   2.499   3.896  1.0413 -0.1542  0.2883
18508TIP3   OH276938   2.429   1.177   4.818  0.2923 -0.1202 -0.4301
18508TIP3    H176939   2.346   1.193   4.774  0.6204  0.0805 -0.9906
18508TIP3    H276940   2.433   1.082   4.827 -0.6669 -0.0584  0.9489
18509TIP3   OH276941   4.468   1.383   1.413  1.2127  0.2354 -0.2642
18509TIP3    H176942   4.443   1.388   1.506 -2.3731  2.5000 -1.1369
18509TIP3    H276943   4.441   1.295   1.386 -2.7863  1.1997 -0.1408
18510TIP3   OH276944   2.225   5.761   2.926  0.3719 -0.1465  0.0235
18510TIP3    H176945   2.164   5.835   2.930 -0.9880 -1.2021 -0.6998
18510TIP3    H276946   2.257   5.753   3.016  1.4984  2.0449 -0.0900
18511TIP3   OH276947   3.105   5.171  12.836  0.0670 -0.2514 -0.6123
18511TIP3    H176948   3.124   5.094  12.782  0.1075 -0.5951 -0.1155
18511TIP3    H276949   3.017   5.198  12.809  0.2414 -0.1732 -1.1302
18512TIP3   OH276950   2.654   0.027   3.025  0.1994 -0.0012  0.3375
18512TIP3    H176951   2.709   0.030   3.103  0.2235 -0.1654  0.3285
18512TIP3    H276952   2.590   0.097   3.038  1.1898  1.0387 -0.2437
18513TIP3   OH276953   0.334   5.701  13.287  0.1603  0.3433  0.4797
18513TIP3    H176954   0.294   5.614  13.296  0.2716 -0.2524 -3.1113
18513TIP3    H276955   0.261   5.758  13.261  0.5786  0.6817  0.0311
18514TIP3   OH276956   2.636   1.595   5.563 -0.2150 -0.3070 -0.0937
18514TIP3    H176957   2.703   1.637   5.509  0.7642  0.2407  1.4569
18514TIP3    H276958   2.555   1.639   5.540 -0.1463 -1.2307 -2.2832
18515TIP3   OH276959   1.618   1.775  15.232 -0.1197 -0.6131  0.8563
18515TIP3    H176960   1.620   1.690  15.189  1.3311 -0.0695 -0.2332
18515TIP3    H276961   1.675   1.766  15.308  1.7936 -0.0601 -0.4528
18516TIP3   OH276962   1.123   4.372  11.616 -0.1213  0.5091  0.4289
18516TIP3    H176963   1.195   4.423  11.655 -0.6559  2.8631 -1.4514
18516TIP3    H276964   1.160   4.285  11.604  1.1077  0.5470  3.0695
18517TIP3   OH276965   1.287   5.352   3.741 -0.3488  0.0251 -0.2518
18517TIP3    H176966   1.246   5.387   3.662 -3.3416 -0.8343  0.7761
18517TIP3    H276967   1.296   5.429   3.798  1.4036  0.5663 -1.1848
18518TIP3   OH276968   1.993   3.219   0.614  0.2090  0.0968  0.4591
18518TIP3    H176969   1.975   3.187   0.526 -2.1370 -0.3236  0.9975
18518TIP3    H276970   1.999   3.314   0.605 -1.1585  0.1581 -0.0265
18519TIP3   OH276971   2.878   3.604   4.431  0.5103 -0.8521  0.2184
18519TIP3    H176972   2.963   3.591   4.473  0.5177 -0.8070  0.2171
18519TIP3    H276973   2.883   3.555   4.350  1.5075  1.3074 -1.1070
18520TIP3   OH276974   0.580   3.799   2.352 -0.9837  0.2500  0.0805
18520TIP3    H176975   0.634   3.781   2.275  1.1117  1.8801  1.0729
18520TIP3    H276976   0.604   3.730   2.414  0.3196  1.2239  0.6771
18521TIP3   OH276977   5.140   3.479  12.617 -0.3493 -0.1947 -0.0826
18521TIP3    H176978   5.075   3.548  12.607 -0.3720 -0.1378  0.4215
18521TIP3    H276979   5.222   3.526  12.633 -0.4992 -0.2811  1.0371
18522TIP3   OH276980   6.641   1.938  12.655 -0.0727  0.2647  0.0635
18522TIP3    H176981   6.621   1.859  12.605 -2.3265  0.4618  0.5520
18522TIP3    H276982   6.676   2.000  12.591  3.1123 -1.4894 -0.1060
18523TIP3   OH276983   2.744   1.275  10.516  0.4412 -0.7032  0.1530
18523TIP3    H176984   2.761   1.207  10.581  1.0799 -0.4063  0.2999
18523TIP3    H276985   2.809   1.259  10.447  0.6421 -0.2003  0.2224
18524TIP3   OH276986   1.650   4.283  15.397  0.0163 -0.4094  0.0024
18524TIP3    H176987   1.648   4.360  15.453  0.2478  0.4478 -1.1390
18524TIP3    H276988   1.628   4.210  15.456 -2.0300  0.7219  0.7356
18525TIP3   OH276989   4.736   3.164   1.578  0.4048  0.3631  0.1137
18525TIP3    H176990   4.677   3.195   1.509  0.4705  1.9909  0.7672
18525TIP3    H276991   4.823   3.196   1.552  0.4812  0.7122  0.7793
18526TIP3   OH276992   2.173   1.044   5.014 -0.1178 -0.1514 -0.3347
18526TIP3    H176993   2.134   1.099   4.946 -0.7952  2.5564  2.0665
18526TIP3    H276994   2.153   0.955   4.986  0.8469  0.6956 -4.3382
18527TIP3   OH276995   0.877   5.521   3.669 -0.2208  0.2389  0.6149
18527TIP3    H176996   0.961   5.474   3.669  0.0077  0.6495  0.6045
18527TIP3    H276997   0.843   5.510   3.581  0.2767  0.8866  0.3371
18528TIP3   OH276998   3.765   4.971   3.316 -0.2013  1.1986 -0.3619
18528TIP3    H176999   3.721   4.975   3.231 -0.8494 -0.6561 -0.1656
18528TIP3    H277000   3.825   4.897   3.307 -0.8650  0.4521  1.0216
18529TIP3   OH277001   6.101   3.417   0.498  0.3058 -0.0179 -0.1051
18529TIP3    H177002   6.082   3.486   0.560  2.3795  0.5602 -0.0334
18529TIP3    H277003   6.044   3.345   0.523  0.2616  0.6120  1.7316
18530TIP3   OH277004   4.707   3.329   1.845 -0.0785  0.4702 -0.4027
18530TIP3    H177005   4.733   3.256   1.902  2.5587  0.9349 -0.8863
18530TIP3    H277006   4.749   3.310   1.761 -1.3164  1.3871 -1.2683
18531TIP3   OH277007   3.959   1.543   4.770 -0.5662 -0.6326  0.6257
18531TIP3    H177008   3.983   1.628   4.732 -2.1797 -0.7907 -0.8726
18531TIP3    H277009   4.038   1.514   4.815  1.0921  0.1983 -1.5553
18532TIP3   OH277010   1.445   0.104   4.214  0.3606  0.1964  0.4560
18532TIP3    H177011   1.432   0.018   4.176  0.7321  0.3267  0.0303
18532TIP3    H277012   1.538   0.123   4.201  0.1839  0.8680  0.1013
18533TIP3   OH277013   1.717   0.107   3.717  0.1301 -0.1656  0.5376
18533TIP3    H177014   1.736   0.133   3.807 -0.4755  0.9023  0.3734
18533TIP3    H277015   1.624   0.123   3.706  0.4616  1.1470 -0.7122
18534TIP3   OH277016   1.510   4.946   1.902 -0.7366  0.2102 -0.4053
18534TIP3    H177017   1.428   4.929   1.855 -0.0138  0.7767 -1.9113
18534TIP3    H277018   1.579   4.927   1.839  0.3653 -0.9590  1.0547
18535TIP3   OH277019   4.269   6.926   2.918 -0.1896 -0.2247 -0.1818
18535TIP3    H177020   4.221   6.845   2.937 -1.1647  0.3248 -0.2950
18535TIP3    H277021   4.276   6.970   3.003 -1.2048  0.4032 -0.4097
18536TIP3   OH277022   5.255   5.927  10.676  0.2232  0.0087 -0.4311
18536TIP3    H177023   5.174   5.877  10.670  0.6516 -0.5806 -1.6193
18536TIP3    H277024   5.324   5.861  10.671  0.7866  0.6247 -0.8887
18537TIP3   OH277025   6.091   4.848  15.617 -0.1887 -0.4239  0.0916
18537TIP3    H177026   6.119   4.928  15.572  1.2948  0.9928  3.1938
18537TIP3    H277027   6.014   4.874  15.667 -0.6255 -1.3932 -0.0588
18538TIP3   OH277028   5.242   5.467   2.973  0.3225  0.5761 -0.0073
18538TIP3    H177029   5.237   5.527   3.047 -0.4963 -1.9312  2.0976
18538TIP3    H277030   5.159   5.480   2.926 -0.2488  0.4758  0.9526
18539TIP3   OH277031   1.464   2.971   1.180 -0.1519  0.0099 -0.2533
18539TIP3    H177032   1.485   2.940   1.092 -2.0108 -0.5335 -0.5476
18539TIP3    H277033   1.542   3.018   1.208  0.4664  0.2505 -2.2232
18540TIP3   OH277034   2.984   3.373   5.182 -0.2972 -0.0007  0.2925
18540TIP3    H177035   2.922   3.334   5.120 -0.3170  0.4344  0.0394
18540TIP3    H277036   2.958   3.465   5.188  0.9290  0.4101 -0.5639
18541TIP3   OH277037   0.281   0.667  12.013  0.2214 -0.7181  0.8710
18541TIP3    H177038   0.332   0.745  12.036  0.4729 -0.3703 -0.7634
18541TIP3    H277039   0.335   0.621  11.950 -0.3237 -1.7666  1.1500
18542TIP3   OH277040   3.859   6.540  15.638  0.0408  0.2239 -0.2338
18542TIP3    H177041   3.792   6.602  15.669  1.7157  1.0821  1.8659
18542TIP3    H277042   3.909   6.591  15.573 -0.4184  0.0487 -0.7375
18543TIP3   OH277043   5.993   2.495   2.920 -0.1263 -0.5441  0.6613
18543TIP3    H177044   5.917   2.543   2.888 -0.8509 -1.6977  0.6097
18543TIP3    H277045   5.965   2.456   3.003  0.7451 -0.1539  1.1654
18544TIP3   OH277046   0.397   4.515  15.517 -0.1559 -0.1783 -0.1881
18544TIP3    H177047   0.327   4.539  15.577 -0.6510 -1.1647 -0.3690
18544TIP3    H277048   0.361   4.530  15.430 -0.4945 -1.5840 -0.3090
18545TIP3   OH277049   2.900   2.488   4.016  0.0764 -0.5040 -0.0012
18545TIP3    H177050   2.877   2.550   4.085 -1.3133  0.6383 -1.4212
18545TIP3    H277051   2.816   2.453   3.986  0.3450  1.0094 -2.8662
18546TIP3   OH277052   1.625   1.867   2.860  0.5034  0.0242 -0.2179
18546TIP3    H177053   1.622   1.781   2.818  0.4497  0.6511 -1.5337
18546TIP3    H277054   1.650   1.928   2.790  0.1042  1.1443  0.5828
18547TIP3   OH277055   5.832   1.295   1.583  0.1066 -0.0325 -0.8365
18547TIP3    H177056   5.864   1.360   1.520  2.6217  0.0841  0.4224
18547TIP3    H277057   5.850   1.335   1.669 -1.8912 -0.7868 -0.0175
18548TIP3   OH277058   4.422   1.576   4.254  0.0978 -0.2705  0.5888
18548TIP3    H177059   4.517   1.588   4.245  0.0040 -0.5334 -0.8483
18548TIP3    H277060   4.401   1.503   4.198 -1.4355  1.8702 -1.8447
18549TIP3   OH277061   5.868   6.073   3.392  0.3647  0.1337 -0.3013
18549TIP3    H177062   5.775   6.097   3.397 -0.0893 -1.4872 -0.4609
18549TIP3    H277063   5.872   5.987   3.433  2.0713  0.8044  1.0628
18550TIP3   OH277064   1.264   3.137   1.213 -1.2027  0.1808 -0.2787
18550TIP3    H177065   1.202   3.094   1.271 -0.7028  1.6533  1.4724
18550TIP3    H277066   1.334   3.073   1.199 -2.3240 -0.9209 -0.9760
18551TIP3   OH277067   1.859   2.800  14.826 -0.6279  0.0380 -0.0513
18551TIP3    H177068   1.853   2.878  14.772  1.3111 -0.0937 -0.5085
18551TIP3    H277069   1.798   2.816  14.899 -1.1207  1.4392 -0.7489
18552TIP3   OH277070   2.405   1.859   3.439 -0.1551 -0.4017  0.4011
18552TIP3    H177071   2.328   1.907   3.409  1.1458  1.5964  0.0681
18552TIP3    H277072   2.382   1.767   3.427 -1.5074  0.1716 -2.2009
18553TIP3   OH277073   3.056   5.047  14.584 -0.1979  0.0833 -0.4330
18553TIP3    H177074   3.094   5.121  14.536  0.6040  0.3364  0.5487
18553TIP3    H277075   3.122   4.977  14.575 -1.3245 -0.8384 -2.0752
18554TIP3   OH277076   3.094   4.611  15.474  0.0015 -0.5148 -0.2081
18554TIP3    H177077   3.079   4.566  15.557  1.8409 -1.1183 -0.1660
18554TIP3    H277078   3.054   4.554  15.408 -0.8788 -0.3683  0.1933
18555TIP3   OH277079   2.096   0.651   0.801 -0.8839  0.5703  0.7611
18555TIP3    H177080   2.110   0.602   0.720  1.1077  2.6446 -0.2883
18555TIP3    H277081   2.140   0.599   0.868 -0.0006  0.2311 -0.0509
18556TIP3   OH277082   6.129   0.508   3.957 -0.1254 -0.4315 -0.0869
18556TIP3    H177083   6.076   0.438   3.996 -0.9105  0.0808 -0.2039
18556TIP3    H277084   6.065   0.567   3.916  0.5417  0.1740 -0.2892
18557TIP3   OH277085   1.728   3.382   4.556 -0.7960  0.0254 -0.4203
18557TIP3    H177086   1.782   3.376   4.635 -1.5080  3.2336  0.4399
18557TIP3    H277087   1.642   3.352   4.584 -0.2912 -2.0504 -0.9482
18558TIP3   OH277088   1.626   5.399   5.771  0.1256  0.3349 -0.0823
18558TIP3    H177089   1.632   5.325   5.832 -0.8346 -1.1224 -1.6650
18558TIP3    H277090   1.717   5.421   5.751  0.4615  0.7713  1.7148
18559TIP3   OH277091   6.082   4.233   5.348 -0.2142 -0.4757 -0.1777
18559TIP3    H177092   6.041   4.147   5.354 -1.8048  0.2763  0.3397
18559TIP3    H277093   6.168   4.222   5.389 -0.1822 -1.9350 -0.6196
18560TIP3   OH277094   0.659   4.484  13.698 -0.4884 -0.0426 -0.1020
18560TIP3    H177095   0.676   4.529  13.781  0.7994 -0.6746 -0.0160
18560TIP3    H277096   0.652   4.555  13.634  3.2514  0.3318 -0.2885
18561TIP3   OH277097   6.631   0.341   0.246  0.2869 -0.6978 -0.5999
18561TIP3    H177098   6.643   0.356   0.340  2.0112 -1.1243 -0.7194
18561TIP3    H277099   6.539   0.317   0.238 -0.3582  1.1184  0.7180
18562TIP3   OH277100   4.469   5.945   5.194 -0.3187  0.1876 -0.7499
18562TIP3    H177101   4.392   5.890   5.208  0.2497 -0.9339 -1.7145
18562TIP3    H277102   4.454   5.986   5.109  0.3870 -0.5139 -1.2298
18563TIP3   OH277103   3.618   6.251  14.207 -1.0704  0.7010 -0.0885
18563TIP3    H177104   3.560   6.261  14.283  1.6970 -0.7776  2.4308
18563TIP3    H277105   3.705   6.270  14.241  0.3549 -0.4161 -2.8275
18564TIP3   OH277106   5.993   2.840   1.439  0.3073  0.2221 -0.3112
18564TIP3    H177107   6.054   2.767   1.440  0.5682  0.4448  0.1158
18564TIP3    H277108   5.908   2.801   1.462  0.4500  0.0581 -0.0668
18565TIP3   OH277109   2.833   2.981   0.476  0.3067  0.3056  0.2860
18565TIP3    H177110   2.846   2.887   0.460 -0.3427  0.4941 -1.6496
18565TIP3    H277111   2.792   2.985   0.562 -3.0158 -1.5385 -0.9853
18566TIP3   OH277112   0.226   5.572   9.756  0.6208  0.1112 -0.1405
18566TIP3    H177113   0.284   5.646   9.740  0.0138  0.2891 -1.7033
18566TIP3    H277114   0.208   5.536   9.669 -0.3495 -0.8994  0.4473
18567TIP3   OH277115   5.797   4.278   4.823  0.1309 -0.5179  0.7313
18567TIP3    H177116   5.729   4.213   4.845  0.6656 -2.2906 -2.3009
18567TIP3    H277117   5.801   4.277   4.727  3.5622  0.4535  0.7365
18568TIP3   OH277118   4.286   1.888   0.558 -0.1532 -0.4600  0.4741
18568TIP3    H177119   4.292   1.829   0.482 -0.7880 -0.3752  0.3462
18568TIP3    H277120   4.238   1.964   0.526  0.3382 -0.0327  0.7402
18569TIP3   OH277121   0.497   6.367   1.594  0.0223  0.3547  0.0583
18569TIP3    H177122   0.447   6.434   1.548  0.3369 -0.9097 -2.2537
18569TIP3    H277123   0.434   6.297   1.612  0.7058 -1.0352 -2.4387
18570TIP3   OH277124   2.559   5.578  12.745 -0.0841 -0.1587 -0.3851
18570TIP3    H177125   2.499   5.526  12.799 -0.2859 -0.8263 -1.2335
18570TIP3    H277126   2.578   5.656  12.798 -1.3761 -0.1325  0.0701
18571TIP3   OH277127   1.119   5.212  13.665  0.3773 -0.1642  0.7284
18571TIP3    H177128   1.036   5.255  13.647  0.8357  0.3245 -0.3054
18571TIP3    H277129   1.180   5.251  13.603  1.5169 -0.1113  1.8356
18572TIP3   OH277130   3.254   2.515   0.439  0.2417  0.6506 -0.3600
18572TIP3    H177131   3.185   2.463   0.480  0.9182  0.7530  0.9927
18572TIP3    H277132   3.335   2.467   0.459  0.7635  1.6212 -0.0379
18573TIP3   OH277133   5.839   5.728   2.729 -0.1687 -0.3398  0.1500
18573TIP3    H177134   5.773   5.704   2.664  0.9480 -0.4426 -0.9765
18573TIP3    H277135   5.847   5.651   2.785 -1.5952 -0.0210  0.8275
18574TIP3   OH277136   3.174   0.795   4.310 -0.1346  0.4767 -0.5473
18574TIP3    H177137   3.248   0.736   4.312 -0.0238  0.2635 -4.1299
18574TIP3    H277138   3.099   0.739   4.289 -0.7236  1.1122 -0.1827
18575TIP3   OH277139   1.331   1.702   2.212 -0.1460 -0.5438 -0.1025
18575TIP3    H177140   1.316   1.705   2.118  0.6755 -0.2537 -0.2268
18575TIP3    H277141   1.312   1.612   2.237  0.0037 -0.7155 -0.6054
18576TIP3   OH277142   4.846   2.524   5.555 -0.1058  0.1062  0.0319
18576TIP3    H177143   4.850   2.430   5.571  1.5879 -0.0612 -1.0629
18576TIP3    H277144   4.860   2.564   5.641 -0.9703 -0.6136  0.5285
18577TIP3   OH277145   1.747   6.715   1.874  0.0893  0.3270  0.1033
18577TIP3    H177146   1.837   6.684   1.866 -0.1874 -0.4016 -0.2917
18577TIP3    H277147   1.718   6.729   1.785 -0.1925  0.5499  0.2296
18578TIP3   OH277148   2.588   5.522   2.142  0.0983 -0.1373 -0.5028
18578TIP3    H177149   2.521   5.546   2.205  1.9428 -0.8689  1.8952
18578TIP3    H277150   2.623   5.605   2.111  2.3934  0.5112  3.2205
18579TIP3   OH277151   4.143   1.697  15.424  0.1764 -0.1092  0.2745
18579TIP3    H177152   4.160   1.733  15.511 -3.1498  1.2213  0.5136
18579TIP3    H277153   4.144   1.773  15.366  1.2260 -0.8340 -0.6950
18580TIP3   OH277154   4.397   6.364   2.126 -0.0469  0.2388 -0.0249
18580TIP3    H177155   4.447   6.359   2.207  0.3306 -1.9611 -0.3425
18580TIP3    H277156   4.365   6.454   2.123  0.8872  0.6807  1.9768
18581TIP3   OH277157   0.731   2.854  10.814 -0.3042  0.4825 -0.5653
18581TIP3    H177158   0.689   2.781  10.769 -0.5948 -0.9724  1.8935
18581TIP3    H277159   0.662   2.919  10.826 -0.7398 -0.0112 -0.4022
18582TIP3   OH277160   1.696   6.952   5.003 -0.2469 -0.3740 -0.6916
18582TIP3    H177161   1.775   6.985   4.959  0.2920  0.8028  1.0519
18582TIP3    H277162   1.682   6.865   4.964  0.8581  0.1068 -2.2996
18583TIP3   OH277163   1.687   3.751   5.764 -0.0352 -0.0880 -0.2900
18583TIP3    H177164   1.636   3.698   5.825 -0.8942  0.7227 -0.2796
18583TIP3    H277165   1.764   3.777   5.813 -0.3980  0.0036  0.2389
18584TIP3   OH277166   3.724   3.335  10.731  0.2825  0.1737 -0.5944
18584TIP3    H177167   3.642   3.289  10.748  0.5750 -0.8467 -1.7896
18584TIP3    H277168   3.743   3.317  10.639  2.3071 -0.3915 -0.1299
18585TIP3   OH277169   1.659   0.121   5.652 -0.3201  0.7278  0.1124
18585TIP3    H177170   1.626   0.096   5.738 -2.7082  0.0458 -0.9224
18585TIP3    H277171   1.659   0.217   5.653  1.7891  0.7729  1.5647
18586TIP3   OH277172   3.691   5.196   2.576  0.3488  0.3500 -0.5070
18586TIP3    H177173   3.755   5.264   2.557  0.0985  0.4252 -1.0892
18586TIP3    H277174   3.625   5.239   2.630  1.4187 -0.0367  1.2014
18587TIP3   OH277175   1.277   6.432   2.545 -0.2709 -0.2770  0.2314
18587TIP3    H177176   1.336   6.395   2.479  0.6187 -1.3972  1.5881
18587TIP3    H277177   1.333   6.490   2.597 -0.5980 -0.5908  0.9374
18588TIP3   OH277178   5.469   1.587   3.012 -0.0529  0.7385 -0.2108
18588TIP3    H177179   5.494   1.653   3.077  0.7841  1.2105 -0.9785
18588TIP3    H277180   5.390   1.622   2.971 -2.2088 -0.8086  2.3049
18589TIP3   OH277181   4.868   4.405   5.497  0.3909 -0.4079 -0.2087
18589TIP3    H177182   4.785   4.361   5.478 -0.1735  0.9411 -1.0439
18589TIP3    H277183   4.858   4.439   5.586 -0.1095  0.0580 -0.4369
18590TIP3   OH277184   5.362   5.535   0.273  0.2996  0.4299  0.3299
18590TIP3    H177185   5.340   5.481   0.197 -1.9072  0.0381  1.1471
18590TIP3    H277186   5.355   5.625   0.242 -2.5210  0.3390  0.4106
18591TIP3   OH277187   4.912   3.817  14.395 -0.3556 -0.4848  0.4455
18591TIP3    H177188   4.969   3.795  14.321  0.5104 -0.4823  1.0912
18591TIP3    H277189   4.837   3.860  14.356  0.5687  0.4487 -0.3530
18592TIP3   OH277190   3.544   2.172   2.142  0.3407  0.1702 -0.2506
18592TIP3    H177191   3.451   2.155   2.153  0.8565 -1.5826  2.4890
18592TIP3    H277192   3.573   2.104   2.081 -0.3197  1.5208 -2.1471
18593TIP3   OH277193   2.423   2.514   4.000 -0.1987  0.4352  0.1300
18593TIP3    H177194   2.496   2.461   4.032  0.2555  0.2343 -1.1400
18593TIP3    H277195   2.345   2.466   4.027  0.1825 -0.1698  0.1889
18594TIP3   OH277196   3.924   2.657   4.710 -0.3524 -0.0182 -0.0655
18594TIP3    H177197   3.868   2.641   4.786 -1.1438 -0.0328 -0.6480
18594TIP3    H277198   3.989   2.587   4.714 -0.1898  0.1636  0.7728
18595TIP3   OH277199   4.733   5.784   4.393  0.1628 -0.2329 -0.4702
18595TIP3    H177200   4.678   5.855   4.426  0.9328 -0.6633  1.9173
18595TIP3    H277201   4.821   5.822   4.388  0.6379 -1.0406  1.1091
18596TIP3   OH277202   4.710   6.916   0.828 -0.5622  0.3398 -0.0553
18596TIP3    H177203   4.677   6.879   0.909 -0.4466 -0.7936 -0.5043
18596TIP3    H277204   4.742   7.002   0.852 -1.0912  0.2668  0.9734
18597TIP3   OH277205   0.071   5.660   4.832 -0.1117  0.2606 -0.4068
18597TIP3    H177206   0.018   5.733   4.801 -2.3683 -0.7533  0.8430
18597TIP3    H277207   0.078   5.674   4.927  0.2809 -0.6056 -0.2959
18598TIP3   OH277208   2.444   4.786   6.262 -0.0209 -0.4725  0.7760
18598TIP3    H177209   2.474   4.876   6.274  1.3720 -1.0415  1.8709
18598TIP3    H277210   2.524   4.733   6.270 -1.0715 -1.9536  2.2922
18599TIP3   OH277211   1.082   5.382  11.487  0.0590 -0.7611  0.3522
18599TIP3    H177212   1.026   5.395  11.564 -0.6089  0.6524 -0.3311
18599TIP3    H277213   1.048   5.302  11.446 -1.3204 -0.0759  0.0991
18600TIP3   OH277214   2.317   7.085  13.579  0.0085 -0.0716  0.2028
18600TIP3    H177215   2.271   7.011  13.619  0.9947  0.3890  2.3116
18600TIP3    H277216   2.252   7.155  13.578 -0.5104 -0.5366 -0.5439
18601TIP3   OH277217   4.612   5.767   0.035  0.6295  0.1909  0.1146
18601TIP3    H177218   4.668   5.719  -0.027  1.3963  0.9034  0.2347
18601TIP3    H277219   4.625   5.722   0.118  1.3219  0.5596  0.2197
18602TIP3   OH277220   5.828   5.147  13.017  0.0628  0.1981  0.4349
18602TIP3    H177221   5.857   5.223  13.068  0.2171 -0.4621  1.3474
18602TIP3    H277222   5.893   5.080  13.035  0.9536  0.3896 -1.8216
18603TIP3   OH277223   2.585   2.886   4.600  0.2256 -1.2907  0.4184
18603TIP3    H177224   2.590   2.868   4.694  0.3023 -1.3001  0.4127
18603TIP3    H277225   2.509   2.943   4.590  1.1857  0.0856  0.6918
18604TIP3   OH277226   5.937   4.812   4.899  0.4077  0.5600  0.1179
18604TIP3    H177227   5.939   4.824   4.804  1.8109 -0.0615  0.0486
18604TIP3    H277228   5.951   4.718   4.912  0.2851  0.6454  0.9471
18605TIP3   OH277229   0.537   0.428  15.113 -0.1008  0.4738 -0.3761
18605TIP3    H177230   0.506   0.519  15.118 -2.0397 -0.0615 -1.6141
18605TIP3    H277231   0.510   0.398  15.026  1.2890 -1.0385 -0.3318
18606TIP3   OH277232   4.260   1.610   1.421 -0.5598  0.3854 -0.1755
18606TIP3    H177233   4.215   1.597   1.504 -0.8848 -0.4725 -0.4703
18606TIP3    H277234   4.323   1.538   1.416  0.9228  1.6019  0.2609
18607TIP3   OH277235   3.991   5.602  11.464 -0.3167  0.4174  0.3178
18607TIP3    H177236   3.987   5.507  11.477 -0.9771  0.1389 -1.5506
18607TIP3    H277237   3.899   5.628  11.452 -0.0622  1.1269 -0.1592
18608TIP3   OH277238   0.851   3.349   2.512  0.4845 -0.3884  0.7860
18608TIP3    H177239   0.804   3.432   2.506  0.2207 -0.5072  1.1254
18608TIP3    H277240   0.868   3.338   2.606  0.4054 -0.7747  0.7578
18609TIP3   OH277241   6.892   1.830   4.742  0.3692 -0.6640 -0.0547
18609TIP3    H177242   6.926   1.828   4.652  1.3500 -0.5828  0.2939
18609TIP3    H277243   6.817   1.889   4.738  0.8667 -0.0500 -0.6879
18610TIP3   OH277244   6.770   2.417   3.772  0.4097 -0.0746 -0.1738
18610TIP3    H177245   6.703   2.395   3.837  0.7167  0.3845  0.3086
18610TIP3    H277246   6.793   2.507   3.792 -1.2125  0.9508 -2.4496
18611TIP3   OH277247   2.887   0.048   3.526 -0.0982  0.7376  0.1545
18611TIP3    H177248   2.918   0.121   3.473 -1.2979  2.3673  1.5764
18611TIP3    H277249   2.965  -0.004   3.544  0.8071  1.7247 -0.7952
18612TIP3   OH277250   2.348   6.591   4.100  0.3056 -0.3934 -0.0737
18612TIP3    H177251   2.412   6.652   4.065 -1.5584  1.9016  0.2110
18612TIP3    H277252   2.350   6.516   4.041  1.1769  0.9077 -1.7643
18613TIP3   OH277253   5.119   6.007   3.591  0.5969 -0.6638 -0.5705
18613TIP3    H177254   5.099   5.963   3.673  1.2086 -2.4331 -1.3158
18613TIP3    H277255   5.039   5.999   3.539  0.7175 -0.9699 -0.7169
18614TIP3   OH277256   2.486   2.886   4.880  0.1160 -0.1712 -0.5299
18614TIP3    H177257   2.451   2.966   4.840  3.8300  3.2642  2.2428
18614TIP3    H277258   2.447   2.884   4.968  2.3335  0.5317  0.5454
18615TIP3   OH277259   1.234   3.409   2.969 -0.2111 -0.3673  0.1652
18615TIP3    H177260   1.226   3.495   3.012 -1.3547 -0.6615  0.5713
18615TIP3    H277261   1.300   3.423   2.901  0.2911  0.5918  0.8225
18616TIP3   OH277262   6.406   7.122  14.137  0.3275 -0.2115 -0.1302
18616TIP3    H177263   6.497   7.149  14.144  0.0861  0.9189 -1.0403
18616TIP3    H277264   6.364   7.190  14.084 -0.8684 -1.1192 -0.4210
18617TIP3   OH277265   6.977   5.259   4.150 -0.2472 -0.0010 -0.3264
18617TIP3    H177266   7.010   5.347   4.131 -0.1771  0.3509  1.3219
18617TIP3    H277267   7.036   5.225   4.217 -0.2371 -1.3455 -0.9788
18618TIP3   OH277268   1.673   2.740  15.071 -0.2280 -0.5526 -0.5564
18618TIP3    H177269   1.647   2.818  15.120 -0.0254 -0.6661 -0.2690
18618TIP3    H277270   1.677   2.671  15.136  2.4056 -0.2115 -0.2591
18619TIP3   OH277271   2.301   6.094   3.166  0.0182  0.0003  0.0198
18619TIP3    H177272   2.370   6.114   3.103  0.5156  0.9074  0.8204
18619TIP3    H277273   2.288   6.176   3.214  1.4763 -1.2505  2.8415
18620TIP3   OH277274   6.834   4.709   9.853 -0.0854 -0.0916 -0.5592
18620TIP3    H177275   6.756   4.734   9.804 -0.2617 -1.1663 -0.8532
18620TIP3    H277276   6.906   4.728   9.793 -0.3904 -3.0289 -2.0501
18621TIP3   OH277277   3.873   3.337   0.074  0.1545 -0.2218  0.3853
18621TIP3    H177278   3.836   3.268   0.018 -0.3232  0.0717  0.3364
18621TIP3    H277279   3.825   3.329   0.157 -0.1054  0.2354  0.2830
18622TIP3   OH277280   3.391   6.925   4.311 -0.6775 -0.5470 -0.0616
18622TIP3    H177281   3.474   6.889   4.340 -1.5700 -0.9357  2.2187
18622TIP3    H277282   3.333   6.849   4.301 -1.0637 -0.1947 -0.6063
18623TIP3   OH277283   0.822   2.984   2.904  0.0409 -0.3438  0.6055
18623TIP3    H177284   0.916   2.978   2.920 -0.0826 -0.0120  1.5549
18623TIP3    H277285   0.814   3.035   2.824  0.6613  0.4252  1.0114
18624TIP3   OH277286   4.319   3.699   3.109 -0.1915 -0.0350 -0.4502
18624TIP3    H177287   4.275   3.621   3.143  0.7424 -0.8500 -1.0822
18624TIP3    H277288   4.276   3.772   3.155 -0.4107 -0.9615  0.8915
18625TIP3   OH277289   1.760   3.167   2.256 -0.5467 -0.2822  0.3379
18625TIP3    H177290   1.772   3.260   2.274 -1.0420 -0.1136 -0.1665
18625TIP3    H277291   1.688   3.164   2.193  0.1790 -0.9276 -0.4839
18626TIP3   OH277292   6.562   6.905   4.179 -0.5412 -0.4088 -0.2045
18626TIP3    H177293   6.642   6.920   4.128 -0.6269 -3.1491 -1.3051
18626TIP3    H277294   6.499   6.872   4.115 -2.8142  2.1458  0.5393
18627TIP3   OH277295   6.377   2.802   4.374  0.0829 -0.6784 -0.0746
18627TIP3    H177296   6.328   2.815   4.293 -1.8997 -0.5412  1.0966
18627TIP3    H277297   6.429   2.882   4.385  1.9328 -1.4925 -2.1685
18628TIP3   OH277298   0.661   6.151   5.893  0.1530 -0.0563  0.2762
18628TIP3    H177299   0.688   6.073   5.844 -1.3013  0.4608 -1.4673
18628TIP3    H277300   0.726   6.217   5.871 -0.8063  0.3548 -1.5887
18629TIP3   OH277301   2.980   0.636  11.460  0.1251 -0.4166  0.2579
18629TIP3    H177302   2.982   0.541  11.459 -2.5612 -0.5428  0.5183
18629TIP3    H277303   2.978   0.660  11.552  1.6818 -0.0219  0.2199
18630TIP3   OH277304   5.091   2.572  14.571 -0.0974  0.1748 -0.1882
18630TIP3    H177305   4.996   2.578  14.576 -0.0604  0.6759 -0.0491
18630TIP3    H277306   5.122   2.625  14.644  0.3113  1.0874 -1.0126
18631TIP3   OH277307   2.374   2.187   0.309 -0.0392 -0.2033 -0.4483
18631TIP3    H177308   2.372   2.151   0.220  0.2395 -2.0694  0.2646
18631TIP3    H277309   2.335   2.119   0.363  1.7201  0.0031  1.1716
18632TIP3   OH277310   6.427   4.630   6.411  0.0604  0.3166  0.2963
18632TIP3    H177311   6.470   4.558   6.458 -0.4270 -0.8615 -0.9890
18632TIP3    H277312   6.464   4.626   6.323 -0.6877  1.0238 -0.0563
18633TIP3   OH277313   1.282   5.630   3.444 -0.1767 -0.1330 -0.1654
18633TIP3    H177314   1.342   5.626   3.518  0.7472  0.5760 -0.8415
18633TIP3    H277315   1.257   5.722   3.438 -0.8146 -0.3132 -0.2844
18634TIP3   OH277316   5.093   3.740   3.701  0.5462 -0.1285 -0.0760
18634TIP3    H177317   5.168   3.767   3.648  1.3291  0.5959  1.3441
18634TIP3    H277318   5.112   3.775   3.788 -2.0886  1.2505  0.0303
18635TIP3   OH277319   5.168   4.135   0.023 -0.6187 -0.7513 -0.7391
18635TIP3    H177320   5.222   4.209   0.050 -1.0866 -0.3844 -0.7889
18635TIP3    H277321   5.162   4.143  -0.072  0.5767 -1.7284 -0.9225
18636TIP3   OH277322   5.558   0.543   4.891 -0.0616  0.3074  0.4085
18636TIP3    H177323   5.558   0.457   4.849  1.6809  0.0782  0.8120
18636TIP3    H277324   5.487   0.538   4.956 -1.0429 -0.2396 -0.6627
18637TIP3   OH277325   3.509   1.696   2.897 -0.0148  0.3284 -0.5365
18637TIP3    H177326   3.434   1.720   2.952 -0.1553  1.2171 -1.1076
18637TIP3    H277327   3.476   1.624   2.843  0.0129 -0.3028  0.2652
18638TIP3   OH277328   4.459   1.491   0.159 -0.5053 -0.1055 -0.0849
18638TIP3    H177329   4.401   1.420   0.185 -1.1175  0.1844 -0.6398
18638TIP3    H277330   4.516   1.504   0.235 -0.0608 -1.4979 -0.1479
18639TIP3   OH277331   6.769   0.396  14.258 -0.1185  0.2734 -0.2199
18639TIP3    H177332   6.823   0.385  14.337 -0.9474 -0.1301  0.3023
18639TIP3    H277333   6.679   0.384  14.289 -0.3787 -1.1439 -1.4457
18640TIP3   OH277334   6.425   5.469   0.508  0.3806  0.1320 -0.1960
18640TIP3    H177335   6.366   5.538   0.477  0.3822 -0.6425 -2.0472
18640TIP3    H277336   6.393   5.449   0.597  1.1294  3.2603  0.8856
18641TIP3   OH277337   6.598   0.862   1.458 -0.3997  0.3401 -0.5886
18641TIP3    H177338   6.631   0.952   1.459 -0.3878  0.3570 -1.4112
18641TIP3    H277339   6.534   0.861   1.386 -1.0717 -0.0808 -0.0064
18642TIP3   OH277340   4.930   5.360   2.334  0.2916  0.2009 -0.5488
18642TIP3    H177341   4.993   5.410   2.386  0.9293 -0.2674 -0.8521
18642TIP3    H277342   4.845   5.400   2.354  0.5004 -0.0346  0.9375
18643TIP3   OH277343   2.536   2.898   2.179  0.0483 -0.7328  0.6596
18643TIP3    H177344   2.529   2.992   2.162  1.5483 -0.8099 -0.6622
18643TIP3    H277345   2.630   2.880   2.171 -0.4200 -2.6878 -1.3172
18644TIP3   OH277346   0.577   3.651   0.796  0.3723 -0.5179  0.4251
18644TIP3    H177347   0.488   3.639   0.827 -0.2148 -0.5737 -1.1990
18644TIP3    H277348   0.608   3.729   0.842  0.0369 -1.3058  2.0951
18645TIP3   OH277349   0.588   2.016  13.616 -0.5155  0.3066 -0.9292
18645TIP3    H177350   0.663   1.964  13.642 -0.4971 -0.2237 -1.9708
18645TIP3    H277351   0.516   1.984  13.672  0.2340  1.5861  0.8538
18646TIP3   OH277352   4.358   6.190  14.748 -0.7273  0.3440  0.1756
18646TIP3    H177353   4.343   6.096  14.747 -2.0434  0.4992  1.5866
18646TIP3    H277354   4.349   6.216  14.656 -2.4595 -0.6287  0.0160
18647TIP3   OH277355   3.980   4.523  14.681 -0.8340 -0.0035 -0.3554
18647TIP3    H177356   3.938   4.609  14.683 -1.8742 -0.4845 -0.5137
18647TIP3    H277357   3.908   4.461  14.691 -0.1869 -0.8781 -0.9082
18648TIP3   OH277358   6.279   1.297   2.665 -0.1677 -0.4391  0.5671
18648TIP3    H177359   6.281   1.206   2.634 -0.9194 -0.1108 -0.4810
18648TIP3    H277360   6.335   1.297   2.742  3.8300 -0.7892 -2.0795
18649TIP3   OH277361   4.462   2.931   2.878  0.0915  0.2729  0.5684
18649TIP3    H177362   4.543   2.880   2.878 -0.7561 -1.2268  2.6757
18649TIP3    H277363   4.472   2.992   2.952 -0.5814  0.2701  0.6682
18650TIP3   OH277364   5.343   4.148   0.871 -0.1801  0.0914 -0.0633
18650TIP3    H177365   5.319   4.091   0.799  0.9745 -0.4083 -0.0727
18650TIP3    H277366   5.436   4.166   0.859  0.2878 -0.7805  1.7974
18651TIP3   OH277367   1.337   4.231   1.466 -0.6678  0.0709  0.1692
18651TIP3    H177368   1.300   4.305   1.514  3.1201  1.1258  1.8117
18651TIP3    H277369   1.363   4.169   1.534  1.1081 -0.2511 -0.7389
18652TIP3   OH277370   1.661   6.124  13.575 -0.3714 -0.0008  0.5600
18652TIP3    H177371   1.673   6.059  13.506  0.8218  0.1260  0.6409
18652TIP3    H277372   1.648   6.207  13.529 -0.9647 -0.1338  0.4757
18653TIP3   OH277373   2.768   0.040   4.490 -0.2918  0.1747  0.2823
18653TIP3    H177374   2.719   0.122   4.489 -0.6366 -0.0326 -0.4431
18653TIP3    H277375   2.702  -0.028   4.505  0.1845  0.1316  2.4490
18654TIP3   OH277376   0.340   3.650   0.930 -0.3031  0.3027  0.1375
18654TIP3    H177377   0.292   3.578   0.970 -0.0783 -0.1832 -0.4493
18654TIP3    H277378   0.279   3.724   0.931  0.1292  0.6924  2.5336
18655TIP3   OH277379   4.367   2.817  11.209  0.0177 -0.1402  0.3846
18655TIP3    H177380   4.283   2.792  11.173 -0.5304  1.0630  0.7770
18655TIP3    H277381   4.348   2.890  11.267  1.3276  0.1289  0.5186
18656TIP3   OH277382   6.629   0.874  11.581 -0.2096 -0.0172  0.1441
18656TIP3    H177383   6.723   0.874  11.601 -0.2519  0.2545  0.3539
18656TIP3    H277384   6.618   0.804  11.517 -0.0696 -0.9875  1.1468
18657TIP3   OH277385   1.251   3.672   4.074  0.0172  0.3542  0.1590
18657TIP3    H177386   1.189   3.706   4.139  0.1609  0.5313  0.2067
18657TIP3    H277387   1.261   3.744   4.011 -1.5430 -0.4757 -1.1016
18658TIP3   OH277388   4.742   6.970   0.523 -0.2066 -0.0052 -0.8931
18658TIP3    H177389   4.680   6.919   0.471 -0.0575 -0.7734 -0.3367
18658TIP3    H277390   4.721   6.948   0.614  1.4082 -0.9177 -0.7159
18659TIP3   OH277391   3.304   1.196   0.141  0.4091  0.0093 -0.2486
18659TIP3    H177392   3.215   1.196   0.177  0.6609  1.7272  0.5078
18659TIP3    H277393   3.361   1.189   0.218  0.9691 -1.9640 -0.7805
18660TIP3   OH277394   1.082   4.084   2.197 -0.1334 -0.2943 -0.1007
18660TIP3    H177395   1.058   4.001   2.155 -0.3614  0.3369 -1.2477
18660TIP3    H277396   0.999   4.132   2.205  0.2093  0.4424 -0.8331
18661TIP3   OH277397   6.413   1.821  15.502 -0.7593 -0.0204  0.0305
18661TIP3    H177398   6.370   1.737  15.517 -0.8588 -0.2466 -1.3936
18661TIP3    H277399   6.398   1.871  15.582 -0.5902 -1.3963  0.9502
18662TIP3   OH277400   3.716   6.592   1.268 -0.8435 -0.0748 -0.2475
18662TIP3    H177401   3.764   6.623   1.191  0.2868 -0.2577  0.3618
18662TIP3    H277402   3.677   6.509   1.239 -0.0563 -0.3666 -0.5024
18663TIP3   OH277403   4.818   0.030   0.882  0.3700  0.1154  0.8092
18663TIP3    H177404   4.892   0.076   0.842 -0.4857  1.8852  1.1617
18663TIP3    H277405   4.816   0.061   0.972  0.8406 -2.0436  1.6141
18664TIP3   OH277406   5.350   6.530  10.992 -0.1500  0.4091 -0.1431
18664TIP3    H177407   5.358   6.617  10.952  0.9282  0.0288 -0.8041
18664TIP3    H277408   5.430   6.484  10.965 -0.9431 -0.9647 -0.2411
18665TIP3   OH277409   6.913   2.940  14.675  0.4823  0.0809 -0.0344
18665TIP3    H177410   6.988   2.910  14.624  0.6492 -0.5061  0.5328
18665TIP3    H277411   6.844   2.955  14.611  1.5966  2.3926 -0.8027
18666TIP3   OH277412   5.935   6.941  12.089 -0.3241  0.2567  0.0391
18666TIP3    H177413   5.921   6.856  12.130  0.9585  0.3001  0.6049
18666TIP3    H277414   5.855   6.956  12.039 -0.1083 -1.8358 -1.0720
18667TIP3   OH277415   0.766   3.004   0.056 -0.5030  0.4593 -0.0712
18667TIP3    H177416   0.723   3.086   0.032 -1.1829  0.3302  0.6655
18667TIP3    H277417   0.835   2.993  -0.009  1.7643  3.2922  1.5816
18668TIP3   OH277418   3.200   6.126   1.896 -0.2136 -0.3015  0.2676
18668TIP3    H177419   3.202   6.103   1.989  1.2386  0.0632  0.3463
18668TIP3    H277420   3.143   6.203   1.891 -0.5812 -0.5348  0.8017
18669TIP3   OH277421   2.946   0.509   0.999 -0.4641  0.6159 -0.5326
18669TIP3    H177422   2.885   0.460   0.944 -0.1965 -0.1480 -0.1615
18669TIP3    H277423   2.953   0.594   0.956 -1.2229  0.4633 -0.9845
18670TIP3   OH277424   3.353   1.773  10.027 -0.3405 -0.7847  0.1564
18670TIP3    H177425   3.330   1.682  10.008  1.0895 -0.7031 -2.4012
18670TIP3    H277426   3.275   1.823  10.003 -0.4545 -1.1725 -0.2893
18671TIP3   OH277427   0.918   3.150   5.154 -0.0435 -0.0399  0.0090
18671TIP3    H177428   0.928   3.061   5.120  0.2700 -0.4814  1.2130
18671TIP3    H277429   0.967   3.150   5.236  0.3224  1.3762 -0.1873
18672TIP3   OH277430   6.932   5.525   0.153  0.2863 -0.1614  0.5545
18672TIP3    H177431   6.859   5.519   0.215 -0.7693  1.7176 -0.4178
18672TIP3    H277432   6.947   5.435   0.125  0.5715 -1.0499  3.1977
18673TIP3   OH277433   3.074   3.005  10.802  0.1368 -0.1098 -0.2035
18673TIP3    H177434   3.092   3.039  10.714  0.7902  0.7089  0.2334
18673TIP3    H277435   3.159   3.006  10.846 -0.1039 -0.9294  0.3050
18674TIP3   OH277436   4.769   5.019   3.928  0.4111  0.2910  0.0043
18674TIP3    H177437   4.690   4.980   3.889  1.8379 -1.3991 -1.4192
18674TIP3    H277438   4.764   5.112   3.906 -1.4258  0.3235  0.4361
18675TIP3   OH277439   3.879   4.846  13.278 -0.4803  0.4213 -0.0379
18675TIP3    H177440   3.872   4.932  13.237  0.2159 -0.4165 -2.0792
18675TIP3    H277441   3.899   4.787  13.205  0.4581 -1.2544  1.4948
18676TIP3   OH277442   6.230   3.891  15.457  0.0472  0.7257  0.2671
18676TIP3    H177443   6.135   3.884  15.444  0.2164  1.3474 -1.7548
18676TIP3    H277444   6.258   3.801  15.475 -0.6769  0.0688 -1.5505
18677TIP3   OH277445   3.949   0.522   2.447 -0.0870  0.0542  0.2630
18677TIP3    H177446   3.990   0.456   2.503 -0.0465 -0.5455 -0.4576
18677TIP3    H277447   4.021   0.580   2.422  0.4596 -1.2395 -1.3409
18678TIP3   OH277448   3.060   7.121  14.352 -0.2902  0.2916 -0.0946
18678TIP3    H177449   3.049   7.213  14.378  1.1969  0.8659 -1.3230
18678TIP3    H277450   3.053   7.072  14.433 -1.8668  1.4076  0.4902
18679TIP3   OH277451   6.429   2.634  11.128  0.4932 -0.3521 -0.1138
18679TIP3    H177452   6.477   2.584  11.194  0.5671  1.4609  1.2849
18679TIP3    H277453   6.479   2.715  11.118 -0.5265  0.1952 -1.0434
18680TIP3   OH277454   0.624   1.107   2.155  0.2809 -0.4676  0.3006
18680TIP3    H177455   0.604   1.044   2.224  1.3784  0.3522  1.4113
18680TIP3    H277456   0.613   1.193   2.196  2.3758  0.0332 -0.0458
18681TIP3   OH277457   1.677   0.937  11.283 -0.4191 -0.4184 -0.0484
18681TIP3    H177458   1.675   0.852  11.239 -1.9450 -0.2555 -0.3455
18681TIP3    H277459   1.626   0.924  11.363 -0.9529  0.2923 -0.2620
18682TIP3   OH277460   0.909   6.562  15.132  0.2157  0.0651 -0.0129
18682TIP3    H177461   0.987   6.537  15.183  0.1417 -1.1679 -0.4589
18682TIP3    H277462   0.897   6.490  15.070 -0.9698  0.4975 -0.3159
18683TIP3   OH277463   4.672   2.875   2.312  0.8731 -0.4806  0.4999
18683TIP3    H177464   4.650   2.968   2.303  0.9106 -0.6859 -3.4832
18683TIP3    H277465   4.762   2.875   2.345  0.6461  0.8208  1.2082
18684TIP3   OH277466   5.912   5.152   4.580  0.7485  1.0511  0.1990
18684TIP3    H177467   5.963   5.229   4.555  0.0186  0.7609 -2.4091
18684TIP3    H277468   5.821   5.181   4.580  0.6238  0.7928  1.8179
18685TIP3   OH277469   2.876   5.649  13.054  0.1062  0.0652 -0.2026
18685TIP3    H177470   2.932   5.604  13.117  1.0823  1.2185 -0.2087
18685TIP3    H277471   2.921   5.638  12.970 -0.3141 -0.0356 -0.4193
18686TIP3   OH277472   4.129   6.154   4.040  0.1706 -0.3619 -0.0179
18686TIP3    H177473   4.174   6.239   4.035  2.2262 -1.4531 -3.9608
18686TIP3    H277474   4.036   6.177   4.039  0.6527  1.8837 -0.6532
18687TIP3   OH277475   4.026   5.147  13.438 -0.0537 -0.1840  0.4965
18687TIP3    H177476   4.118   5.167  13.454 -0.5611  1.5562  1.5063
18687TIP3    H277477   3.990   5.130  13.525 -1.0037  0.6884  0.2886
18688TIP3   OH277478   3.395   5.983   2.196 -0.1305  0.0849 -0.1257
18688TIP3    H177479   3.466   5.971   2.133 -1.3248 -1.6030 -1.2268
18688TIP3    H277480   3.418   5.926   2.270  0.2926  0.5606  0.1181
18689TIP3   OH277481   3.956   2.382   1.952  0.0536  0.8086 -0.0064
18689TIP3    H177482   4.037   2.414   1.991  0.6870  0.0620 -0.6776
18689TIP3    H277483   3.886   2.424   2.002  0.7463 -1.7099  3.4131
18690TIP3   OH277484   0.889   4.274   0.964  0.1181  0.3117 -0.2905
18690TIP3    H177485   0.855   4.207   0.904  0.9852  0.0325 -0.4845
18690TIP3    H277486   0.893   4.231   1.049  0.1878  0.2716 -0.3134
18691TIP3   OH277487   1.501   2.910   2.861  0.9000  0.2507 -0.5364
18691TIP3    H177488   1.429   2.973   2.866  0.9509  0.2331  0.7787
18691TIP3    H277489   1.496   2.874   2.773 -0.1126  0.9378 -0.7723
18692TIP3   OH277490   4.524   2.502   5.474 -0.0985 -0.3445 -0.5675
18692TIP3    H177491   4.570   2.422   5.500  2.4269  1.3439  0.4664
18692TIP3    H277492   4.568   2.572   5.522 -1.5591  1.8302 -2.2128
18693TIP3   OH277493   1.781   1.366   2.106 -0.1236 -0.3837  0.6089
18693TIP3    H177494   1.729   1.336   2.180 -0.2776 -1.5437  0.0419
18693TIP3    H277495   1.819   1.287   2.069  1.5526  0.3586  0.6211
18694TIP3   OH277496   2.451   5.363   2.632  0.6662  0.0254  0.0318
18694TIP3    H177497   2.417   5.387   2.546  0.2826  2.3375  0.7440
18694TIP3    H277498   2.408   5.280   2.653 -1.7829  1.0492 -0.6430
18695TIP3   OH277499   3.061   3.597  13.686 -0.1689 -0.0986 -0.0718
18695TIP3    H177500   3.104   3.520  13.649  0.3978  1.2295 -2.3120
18695TIP3    H277501   3.120   3.626  13.756  0.1953 -0.9771  0.0051
18696TIP3   OH277502   5.053   1.267   4.120 -0.0299  0.1310  0.2707
18696TIP3    H177503   5.127   1.307   4.166 -0.2093  1.5541 -0.6208
18696TIP3    H277504   4.984   1.263   4.187  1.9365 -5.2032  2.4703
18697TIP3   OH277505   4.127   6.558   0.291  0.1720 -0.2153 -0.3389
18697TIP3    H177506   4.211   6.542   0.248 -0.1952 -1.4735 -0.6173
18697TIP3    H277507   4.084   6.473   0.293 -0.6549  0.1996  0.7732
18698TIP3   OH277508   4.913   6.056  15.324  0.4830 -0.2446  0.3938
18698TIP3    H177509   5.007   6.053  15.310  0.7086  2.8475  0.5935
18698TIP3    H277510   4.903   6.072  15.418 -0.2492 -0.3581  0.3432
18699TIP3   OH277511   4.664   2.102   2.874 -0.0617  0.0127  0.1813
18699TIP3    H177512   4.575   2.124   2.900  0.6838  1.4274  1.7319
18699TIP3    H277513   4.686   2.166   2.805 -0.6843 -1.2319 -1.2251
18700TIP3   OH277514   0.076   1.938   5.966 -0.0062  0.4364  0.6855
18700TIP3    H177515   0.049   1.966   5.878 -0.3264  1.2699  1.0347
18700TIP3    H277516   0.091   1.844   5.958  2.2336  0.8370 -0.8440
18701TIP3   OH277517   1.882   5.510   3.390 -0.2719  0.4663 -0.0854
18701TIP3    H177518   1.816   5.456   3.346  1.0356 -0.9288 -0.4777
18701TIP3    H277519   1.912   5.456   3.463 -1.5996  2.2924  1.8950
18702TIP3   OH277520   3.402   4.469   0.222  0.5023  0.2148 -0.7837
18702TIP3    H177521   3.478   4.523   0.246 -0.1950  0.0323  2.3387
18702TIP3    H277522   3.336   4.532   0.193  1.3926  0.4829 -2.3469
18703TIP3   OH277523   5.891   1.312   4.451  0.1832  0.1553  0.0076
18703TIP3    H177524   5.806   1.329   4.411 -0.6848 -0.4404  1.5187
18703TIP3    H277525   5.918   1.396   4.487 -1.0060 -0.1622  1.7465
18704TIP3   OH277526   4.703   3.876   2.885  0.2514  0.3995  0.2629
18704TIP3    H177527   4.662   3.916   2.962 -1.0783 -1.8730  0.8395
18704TIP3    H277528   4.645   3.898   2.812 -1.4027 -1.6574  0.8500
18705TIP3   OH277529   5.331   5.450   4.478 -0.1942  0.1031 -0.3461
18705TIP3    H177530   5.373   5.378   4.431  0.2177 -0.1015  0.3257
18705TIP3    H277531   5.258   5.408   4.525 -0.2940  0.2194 -0.3968
18706TIP3   OH277532   4.783   4.739   5.140 -0.0046 -0.4828  0.1624
18706TIP3    H177533   4.701   4.702   5.107 -1.1144  2.0648 -0.1883
18706TIP3    H277534   4.840   4.743   5.062 -0.1805 -0.6564  0.0242
18707TIP3   OH277535   3.295   4.276  12.795 -0.5338  0.7768 -0.5384
18707TIP3    H177536   3.300   4.202  12.855 -2.4078  1.5399  0.6493
18707TIP3    H277537   3.381   4.317  12.800  0.8713 -1.7462 -1.9084
18708TIP3   OH277538   3.372   1.057   4.733 -0.0112 -0.2079 -0.1822
18708TIP3    H177539   3.381   1.036   4.640  1.6001 -0.0735 -0.0964
18708TIP3    H277540   3.414   0.983   4.778  0.7388  0.5228  0.3502
18709TIP3   OH277541   5.770   7.026   0.383  0.4881 -0.2948  0.7040
18709TIP3    H177542   5.853   6.981   0.397  1.1687  1.1038  1.3613
18709TIP3    H277543   5.711   6.989   0.449  0.6539 -1.0987  0.4117
18710TIP3   OH277544   0.737   2.087   3.330 -0.2763  0.0402  0.3488
18710TIP3    H177545   0.807   2.125   3.277 -1.2373  0.5663 -0.5943
18710TIP3    H277546   0.737   2.138   3.411 -0.4147  0.9155 -0.1887
18711TIP3   OH277547   1.047   2.591   5.073 -0.0842 -0.5897 -0.0075
18711TIP3    H177548   1.065   2.569   4.982  0.0579  0.1929 -0.1780
18711TIP3    H277549   1.079   2.516   5.123  1.9826 -0.0627 -0.4450
18712TIP3   OH277550   2.382   1.026   3.775  0.4838  0.3036  0.7717
18712TIP3    H177551   2.301   1.014   3.726  1.6756 -2.4848 -0.7232
18712TIP3    H277552   2.375   1.115   3.811 -2.6073  0.6480 -0.3753
18713TIP3   OH277553   6.241   2.873   5.420  0.3118  0.1886 -0.6849
18713TIP3    H177554   6.269   2.792   5.462  0.2828  0.3688 -0.3211
18713TIP3    H277555   6.228   2.935   5.491 -0.6177  0.2283 -0.8660
18714TIP3   OH277556   4.145   4.204   5.509  0.0178 -0.4133 -0.4565
18714TIP3    H177557   4.173   4.172   5.595 -1.1839  1.1424  0.5627
18714TIP3    H277558   4.205   4.161   5.447 -0.0813 -2.8257  0.9727
18715TIP3   OH277559   4.725   3.023  11.424 -0.4981  0.2862  0.3062
18715TIP3    H177560   4.694   2.950  11.478 -2.4614  0.4901 -0.4943
18715TIP3    H277561   4.667   3.096  11.446  0.3145  1.1200 -0.2127
18716TIP3   OH277562   0.597   5.808   0.980  0.1675  0.4957  0.2131
18716TIP3    H177563   0.537   5.876   1.010 -1.3135 -0.7664  0.2359
18716TIP3    H277564   0.584   5.804   0.886  1.2823  1.1561  0.0047
18717TIP3   OH277565   5.336   1.717   3.519  0.0301 -0.2245 -0.1253
18717TIP3    H177566   5.306   1.633   3.484  0.4501 -0.1614 -0.6436
18717TIP3    H277567   5.362   1.697   3.609 -1.3654 -0.3215  0.2786
18718TIP3   OH277568   2.280   3.351   4.264 -0.1167 -0.3560 -0.4046
18718TIP3    H177569   2.335   3.429   4.267 -2.2851  1.1949  0.9809
18718TIP3    H277570   2.238   3.347   4.350 -0.9433 -2.4161 -0.8371
18719TIP3   OH277571   5.694   3.357   3.862 -0.4092  0.3241 -0.3095
18719TIP3    H177572   5.731   3.445   3.865 -1.1624  0.6412  0.3987
18719TIP3    H277573   5.732   3.317   3.784  1.1048  0.7475  0.1723
18720TIP3   OH277574   4.649   6.709  13.541 -0.5718  0.5327  0.5125
18720TIP3    H177575   4.608   6.745  13.463  0.5879  2.3435  0.6770
18720TIP3    H277576   4.740   6.695  13.516 -0.4126  0.2100  1.2529
18721TIP3   OH277577   5.900   4.489   3.157  0.7109  0.2762 -0.4317
18721TIP3    H177578   5.992   4.499   3.182  0.5010  0.4958  0.2538
18721TIP3    H277579   5.903   4.479   3.061  1.5686 -1.3991 -0.2603
18722TIP3   OH277580   5.761   4.708   3.024  0.1966  0.2681 -0.4719
18722TIP3    H177581   5.727   4.782   3.075  0.6033  1.2307 -1.5587
18722TIP3    H277582   5.827   4.669   3.080 -1.2255 -0.3674  0.8298
18723TIP3   OH277583   4.081   7.103  14.107  0.0878  0.0942  0.2090
18723TIP3    H177584   4.124   7.018  14.094  3.4198  1.6133  0.4649
18723TIP3    H277585   4.054   7.102  14.199  0.3922 -0.5653  0.2970
18724TIP3   OH277586   0.410   6.301   0.311 -0.5215 -0.6110 -0.4304
18724TIP3    H177587   0.343   6.259   0.364 -0.6320 -0.5348 -0.5111
18724TIP3    H277588   0.367   6.321   0.228  0.1427 -2.3961 -1.2474
18725TIP3   OH277589   6.222   4.992   3.290  0.2205  0.5061 -0.4810
18725TIP3    H177590   6.169   4.914   3.301  1.9460 -0.6352  0.2121
18725TIP3    H277591   6.273   4.975   3.210  0.4666  1.0191 -0.4394
18726TIP3   OH277592   4.145   4.449   0.475 -0.7573  0.1516 -0.6313
18726TIP3    H177593   4.199   4.383   0.431  0.7329  2.2008 -2.0795
18726TIP3    H277594   4.131   4.414   0.563 -1.2881 -2.7165 -1.7417
18727TIP3   OH277595   2.185   3.665   4.896  0.3069  0.3173  0.3600
18727TIP3    H177596   2.140   3.747   4.919  1.5993  1.1922 -0.1266
18727TIP3    H277597   2.245   3.689   4.826 -0.2857 -1.3668 -0.7853
18728TIP3   OH277598   2.818   6.289   5.119 -0.0882  0.4755 -0.0251
18728TIP3    H177599   2.754   6.226   5.152 -0.9687  2.2861  2.0165
18728TIP3    H277600   2.902   6.260   5.155 -0.4376  0.2931  0.6467
18729TIP3   OH277601   5.100   0.908  14.151  0.1310 -0.1305 -0.5825
18729TIP3    H177602   5.094   0.978  14.086  1.8560  0.4538 -0.1650
18729TIP3    H277603   5.011   0.875  14.159 -0.6513  1.7262 -1.1363
18730TIP3   OH277604   0.406   4.355  11.140 -0.1340  0.2871 -0.0371
18730TIP3    H177605   0.337   4.368  11.206  0.7951 -1.5488  1.3629
18730TIP3    H277606   0.483   4.398  11.177  0.1590  0.0299 -0.3416
18731TIP3   OH277607   3.134   2.208  15.284  0.0152  0.0446 -0.1513
18731TIP3    H177608   3.150   2.287  15.233 -0.7063 -0.1773 -0.7405
18731TIP3    H277609   3.173   2.227  15.370  0.9601  0.5396 -0.6780
18732TIP3   OH277610   1.747   2.374   2.044  0.3616  0.3940  0.2333
18732TIP3    H177611   1.770   2.326   2.123 -1.5964 -2.6438 -0.8641
18732TIP3    H277612   1.831   2.397   2.004  1.3544  0.0177  2.0155
18733TIP3   OH277613   5.854   6.059  13.103 -0.5043 -0.3609 -0.5109
18733TIP3    H177614   5.940   6.089  13.072 -1.5063  1.3163 -1.8642
18733TIP3    H277615   5.811   6.028  13.024 -1.2012 -1.1052  0.1488
18734TIP3   OH277616   6.850   2.029   3.450 -0.6425 -0.3296  0.6960
18734TIP3    H177617   6.793   1.985   3.387 -0.2582  1.4643 -0.9769
18734TIP3    H277618   6.837   1.980   3.531 -1.7355 -2.2500 -0.5497
18735TIP3   OH277619   1.611   5.961   3.534  0.1229 -0.0444  0.5718
18735TIP3    H177620   1.551   5.895   3.498 -0.6332  1.1110 -0.3714
18735TIP3    H277621   1.678   5.910   3.580 -0.9628 -1.4190  0.6935
18736TIP3   OH277622   2.681   2.612   0.054 -0.0859  0.1316 -0.2696
18736TIP3    H177623   2.616   2.676   0.084 -0.5813 -0.6910  0.4311
18736TIP3    H277624   2.700   2.639  -0.036 -0.4556  1.1278 -0.0694
18737TIP3   OH277625   5.753   3.523   4.385 -0.1188  0.2244 -0.2587
18737TIP3    H177626   5.673   3.479   4.414  0.1311  0.0945  0.2620
18737TIP3    H277627   5.819   3.454   4.385  0.1995  0.5179  0.2326
18738TIP3   OH277628   1.676   3.133   1.197  0.6469  0.5591 -0.2976
18738TIP3    H177629   1.655   3.211   1.146 -1.4262 -0.6976 -1.5122
18738TIP3    H277630   1.707   3.070   1.132 -3.0454 -1.4457 -0.3662
18739TIP3   OH277631   3.907   0.758   3.270 -0.3573  0.1312 -0.2322
18739TIP3    H177632   3.912   0.852   3.290  1.8358  0.3372 -1.3927
18739TIP3    H277633   3.831   0.749   3.213 -1.8343  0.8228  1.5511
18740TIP3   OH277634   1.468   4.018  13.729  0.2831  0.0597 -0.0826
18740TIP3    H177635   1.555   3.983  13.708  1.5969  2.9811  0.0144
18740TIP3    H277636   1.433   4.048  13.646 -0.2870 -0.3086  0.0164
18741TIP3   OH277637   7.102   6.550   3.066  0.2307  0.5841 -0.1486
18741TIP3    H177638   7.194   6.576   3.073  0.0400  1.1597  0.2188
18741TIP3    H277639   7.053   6.629   3.084 -0.3410  0.5068 -1.2635
18742TIP3   OH277640   0.037   4.789   3.038 -0.3218  0.1286 -0.1658
18742TIP3    H177641   0.005   4.743   3.115 -0.1003  1.5659  0.8210
18742TIP3    H277642  -0.017   4.868   3.032 -0.3709  0.0143 -1.5168
18743TIP3   OH277643   2.999   2.527  13.444 -0.3319 -0.3676  0.4386
18743TIP3    H177644   3.090   2.502  13.430 -0.7134 -1.0192 -1.0685
18743TIP3    H277645   2.995   2.556  13.535  1.4999  0.2253  0.3618
18744TIP3   OH277646   6.362   0.029  13.001 -0.1180 -0.2715 -0.0533
18744TIP3    H177647   6.327  -0.050  13.041 -0.7299 -0.3146 -0.6568
18744TIP3    H277648   6.426  -0.003  12.937  1.0957 -0.1921  1.0736
18745TIP3   OH277649   5.999   1.873   1.569 -0.1967 -0.7688 -0.2756
18745TIP3    H177650   5.987   1.784   1.603 -0.9680 -0.8889 -0.8496
18745TIP3    H277651   6.055   1.862   1.492  0.0032 -0.7103 -0.1401
18746TIP3   OH277652   3.469   7.093   2.659 -0.3217  0.4116  0.4240
18746TIP3    H177653   3.412   7.054   2.725 -2.1596  4.7415  1.6839
18746TIP3    H277654   3.416   7.093   2.579 -0.2499  0.1821  0.3760
18747TIP3   OH277655   0.458   7.056   1.225  0.2147  0.2913 -0.1659
18747TIP3    H177656   0.479   7.028   1.136  1.7632 -2.3062  0.8898
18747TIP3    H277657   0.520   7.009   1.280 -2.2467 -0.1495  2.4961
18748TIP3   OH277658   5.614   3.798  13.546  0.3752 -0.1556  0.0977
18748TIP3    H177659   5.600   3.706  13.571  2.6014 -1.0748 -1.6425
18748TIP3    H277660   5.692   3.796  13.491 -0.2903  2.6327 -1.1237
18749TIP3   OH277661   1.314   3.763   4.381  0.0826 -0.1306  0.3547
18749TIP3    H177662   1.232   3.785   4.424 -0.2721 -1.1442  0.2049
18749TIP3    H277663   1.332   3.673   4.407  0.3800 -0.4225 -0.8002
18750TIP3   OH277664   2.420   6.002  13.306 -0.0790 -0.2511 -0.6075
18750TIP3    H177665   2.366   6.076  13.277  1.0150  1.0167  0.4463
18750TIP3    H277666   2.401   5.932  13.244 -2.3506  0.3836 -0.7180
18751TIP3   OH277667   5.746   6.016   2.334  0.3284  0.0937 -0.2570
18751TIP3    H177668   5.719   6.075   2.404 -1.4990  1.6262 -2.1324
18751TIP3    H277669   5.798   6.071   2.275  0.8802 -0.8801 -0.7066
18752TIP3   OH277670   6.804   4.229   3.193 -0.3533 -0.1587  0.0119
18752TIP3    H177671   6.867   4.245   3.263 -1.0821  1.0900  0.4228
18752TIP3    H277672   6.748   4.159   3.226  0.7588 -1.2434 -0.3369
18753TIP3   OH277673   5.358   1.714   4.268  0.5620  0.3386 -0.3741
18753TIP3    H177674   5.426   1.716   4.201  1.8430  0.3674  0.8764
18753TIP3    H277675   5.403   1.686   4.347 -1.1151 -0.7157  0.2661
18754TIP3   OH277676   1.270   1.502   0.115  0.5400  0.0215  0.2900
18754TIP3    H177677   1.234   1.586   0.089  1.9225 -0.2730 -3.0662
18754TIP3    H277678   1.218   1.437   0.067  1.7584 -0.7618 -0.0301
18755TIP3   OH277679   5.016   5.540   2.795 -0.2928  0.3091  0.2301
18755TIP3    H177680   4.994   5.632   2.781 -0.3727  0.5022  1.5447
18755TIP3    H277681   4.931   5.495   2.793 -0.1852  0.1290 -1.2315
18756TIP3   OH277682   1.411   5.967  12.560 -0.1901 -0.4903 -0.4771
18756TIP3    H177683   1.426   5.949  12.467  2.0784 -2.0390  0.1023
18756TIP3    H277684   1.363   6.050  12.560 -1.0175 -0.8718 -3.0332
18757TIP3   OH277685   2.901   3.726   1.686 -0.2970 -0.1477 -0.4295
18757TIP3    H177686   2.834   3.794   1.696  0.5944  0.9829 -1.6494
18757TIP3    H277687   2.857   3.656   1.638 -0.6178  0.6290 -1.3195
18758TIP3   OH277688   6.261   6.139   2.602 -0.4006 -0.1895  0.2976
18758TIP3    H177689   6.282   6.163   2.512 -0.3106 -1.2883  0.0126
18758TIP3    H277690   6.204   6.209   2.633  0.4167  0.7401 -0.2587
18759TIP3   OH277691   1.083   6.929   0.164  0.2860  0.3480 -0.0409
18759TIP3    H177692   1.115   6.992   0.099  0.9389  0.2842  0.2101
18759TIP3    H277693   1.094   6.973   0.248 -1.5618  0.8600 -0.0135
18760TIP3   OH277694   2.829   4.797  14.687 -0.2874 -0.2576  0.4830
18760TIP3    H177695   2.917   4.791  14.723  0.7985  2.9420 -1.2148
18760TIP3    H277696   2.840   4.777  14.594 -0.9279  1.8884 -0.1079
18761TIP3   OH277697   5.321   4.257   4.783  0.0466  0.1118  0.1668
18761TIP3    H177698   5.409   4.291   4.765 -0.7443  1.3686 -1.5148
18761TIP3    H277699   5.319   4.171   4.740  1.1354 -0.9739  2.1130
18762TIP3   OH277700   0.428   3.091  10.214 -0.0706 -0.0954  0.7248
18762TIP3    H177701   0.433   3.094  10.119  0.2922 -2.0113  0.6469
18762TIP3    H277702   0.362   3.157  10.237 -1.0218 -0.4245 -0.9349
18763TIP3   OH277703   6.322   3.696   5.538 -0.1710  0.3668 -0.3146
18763TIP3    H177704   6.343   3.745   5.617  0.9089  1.8959 -1.4868
18763TIP3    H277705   6.373   3.739   5.469 -1.2038 -0.8009 -1.8696
18764TIP3   OH277706   5.747   2.694  11.113 -0.5981 -0.1847 -0.2374
18764TIP3    H177707   5.658   2.659  11.111 -0.7635  0.1704  0.5466
18764TIP3    H277708   5.748   2.753  11.188  0.0490  0.5096 -0.7757
18765TIP3   OH277709   2.740   6.148  14.837  0.5484 -0.4785 -0.3610
18765TIP3    H177710   2.649   6.177  14.842  0.8167  0.4731 -0.7186
18765TIP3    H277711   2.758   6.110  14.923 -0.8675 -2.8432 -1.0166
18766TIP3   OH277712   6.407   3.699   1.477 -1.0031 -0.9082 -0.0286
18766TIP3    H177713   6.333   3.639   1.488 -2.6017  1.3711  2.7515
18766TIP3    H277714   6.448   3.703   1.563  0.9507 -0.2853 -0.9364
18767TIP3   OH277715   4.409   3.639   4.387 -0.5114 -0.3156 -0.1700
18767TIP3    H177716   4.364   3.687   4.317 -1.3205 -0.4501  0.2488
18767TIP3    H277717   4.395   3.547   4.365  0.4195 -0.3778 -0.5739
18768TIP3   OH277718   0.606   5.221   4.226  0.3012  0.2967 -0.1006
18768TIP3    H177719   0.658   5.164   4.170  2.6563  2.3618 -0.1631
18768TIP3    H277720   0.579   5.164   4.299  1.3212 -1.2395 -0.8616
18769TIP3   OH277721   2.710   1.322  14.325  0.5193  0.3589 -0.2363
18769TIP3    H177722   2.702   1.417  14.330 -0.3812  0.2463  1.2090
18769TIP3    H277723   2.784   1.301  14.382  0.2240  0.1544  0.0800
18770TIP3   OH277724   6.478   3.911   0.119  0.1386  0.1741 -0.6391
18770TIP3    H177725   6.526   3.893   0.200  0.8847 -0.2835 -1.1570
18770TIP3    H277726   6.508   3.998   0.092  1.5634 -0.5442 -1.5258
18771TIP3   OH277727   3.500   0.173  13.514  0.7699  0.1077 -0.6086
18771TIP3    H177728   3.531   0.163  13.424 -0.4894 -0.0367 -1.0552
18771TIP3    H277729   3.557   0.117  13.566  0.3831 -1.2396 -1.5876
18772TIP3   OH277730   4.712   4.199   2.189 -0.3831 -0.1131 -0.1188
18772TIP3    H177731   4.630   4.249   2.191 -1.5126 -1.8713  1.7490
18772TIP3    H277732   4.777   4.257   2.228 -1.5920  0.1093  1.7170
18773TIP3   OH277733   2.218   0.441   4.801 -0.1110 -0.0171 -0.2775
18773TIP3    H177734   2.140   0.486   4.833  1.9145  2.7223  1.2394
18773TIP3    H277735   2.249   0.390   4.876  0.6408  0.5323 -0.2068
18774TIP3   OH277736   4.204   0.270  10.646  0.1125 -0.2599  0.1928
18774TIP3    H177737   4.265   0.211  10.692  0.0252 -0.4480  0.0724
18774TIP3    H277738   4.260   0.323  10.590  0.1976 -0.1944  0.3410
18775TIP3   OH277739   2.256   3.156  10.886 -0.1461  0.2658  0.5326
18775TIP3    H177740   2.303   3.074  10.901 -0.2065  0.1545  0.1367
18775TIP3    H277741   2.312   3.224  10.926  0.9539  0.2837 -0.9300
18776TIP3   OH277742   5.076   3.645   3.257  0.5671  0.1097 -0.0569
18776TIP3    H177743   5.147   3.648   3.193  0.7443  3.0900  0.1608
18776TIP3    H277744   5.113   3.598   3.332  2.2196  1.2965 -0.0867
18777TIP3   OH277745   0.978   2.471   3.162 -0.0451 -0.0862  0.2589
18777TIP3    H177746   0.947   2.478   3.072 -1.6773  0.1127  0.7963
18777TIP3    H277747   1.059   2.523   3.164  0.4985 -0.8208 -1.2654
18778TIP3   OH277748   1.602   0.344   2.208  0.1041  0.1250 -0.4437
18778TIP3    H177749   1.510   0.346   2.237  0.1045  1.5609 -0.4619
18778TIP3    H277750   1.630   0.255   2.226 -0.1292  0.6261  3.3726
18779TIP3   OH277751   0.610   5.373   2.135 -0.6034 -0.0663  0.4274
18779TIP3    H177752   0.575   5.287   2.161  1.4921 -1.1791 -0.1939
18779TIP3    H277753   0.655   5.356   2.052  0.8898  1.3588  0.8992
18780TIP3   OH277754   0.083   5.862   5.160  0.0688 -0.5661 -0.5356
18780TIP3    H177755   0.042   5.919   5.225  1.0913  0.4218 -0.7268
18780TIP3    H277756   0.136   5.801   5.211  0.0620 -0.4598 -0.4027
18781TIP3   OH277757   6.818   6.906  10.161 -0.4906  0.5695  0.3445
18781TIP3    H177758   6.740   6.851  10.161 -1.2387  1.5596  1.2980
18781TIP3    H277759   6.887   6.852  10.124 -1.0824 -1.1638  1.6553
18782TIP3   OH277760   4.570   5.349   4.889  0.4465  0.0313 -0.0350
18782TIP3    H177761   4.568   5.444   4.902  0.0397 -0.1636  1.5241
18782TIP3    H277762   4.539   5.313   4.972  1.6114 -1.4927 -0.2221
18783TIP3   OH277763   6.466   2.851   2.755 -0.3573 -0.6558 -0.2198
18783TIP3    H177764   6.418   2.909   2.696  0.5950  1.4818  0.9763
18783TIP3    H277765   6.425   2.864   2.840  3.1722  2.7076  1.2864
18784TIP3   OH277766   3.248   5.586   3.675 -0.0952  0.0810  0.3968
18784TIP3    H177767   3.283   5.564   3.761  3.1688 -0.7704 -0.9918
18784TIP3    H277768   3.299   5.662   3.647 -1.2555  0.4865 -0.7412
18785TIP3   OH277769   6.821   6.077  15.464  0.0141 -0.0793 -0.0188
18785TIP3    H177770   6.833   6.159  15.416  0.4844  0.6873  1.3637
18785TIP3    H277771   6.909   6.039  15.468 -0.1896 -0.6385 -0.5874
18786TIP3   OH277772   0.559   5.059   5.152  0.1901 -0.4332  0.1754
18786TIP3    H177773   0.510   5.119   5.095  0.0366  0.1238  0.8907
18786TIP3    H277774   0.651   5.076   5.131  0.2402  1.3756  1.6453
18787TIP3   OH277775   2.923   5.609  12.136  0.2597  0.4335 -0.4705
18787TIP3    H177776   2.962   5.649  12.058  1.8141  1.8532  0.9421
18787TIP3    H277777   2.953   5.663  12.209 -0.5300 -1.2496  1.2155
18788TIP3   OH277778   6.076   4.461   2.238  0.0751  0.1699 -0.0856
18788TIP3    H177779   6.096   4.392   2.301 -2.8953 -0.3991  0.3749
18788TIP3    H277780   6.010   4.515   2.281 -2.7232 -0.7120 -2.8553
18789TIP3   OH277781   5.891   2.056  15.116  0.2468 -0.0393 -0.4018
18789TIP3    H177782   5.982   2.063  15.089  1.1681 -1.3900  2.0582
18789TIP3    H277783   5.892   2.068  15.211 -2.0396 -0.7816 -0.2077
18790TIP3   OH277784   0.358   0.843   2.436  0.1736  0.2167 -0.1843
18790TIP3    H177785   0.395   0.912   2.491  0.5758 -0.2283  0.1140
18790TIP3    H277786   0.274   0.878   2.407 -0.3293  0.2354  1.2020
18791TIP3   OH277787   1.742   6.992  13.419  0.0371  0.3579  0.4836
18791TIP3    H177788   1.711   6.947  13.340 -1.3853  0.1338  1.1360
18791TIP3    H277789   1.765   7.080  13.389 -0.8116  0.3865 -0.1374
18792TIP3   OH277790   0.238   3.242   0.764 -0.5663  0.1602  0.3509
18792TIP3    H177791   0.205   3.278   0.847  1.4096 -1.1319  1.8027
18792TIP3    H277792   0.333   3.246   0.773 -0.2871  0.2531 -2.0255
18793TIP3   OH277793   5.204   7.081  14.847  0.4189  0.3840 -0.4205
18793TIP3    H177794   5.172   7.015  14.909 -1.1221  2.8470  1.6157
18793TIP3    H277795   5.126   7.104  14.795  0.6598  1.3151 -0.3840
18794TIP3   OH277796   1.262   4.838   5.017  0.2451  0.1551  0.0922
18794TIP3    H177797   1.273   4.766   4.954  0.0169  0.7405 -0.6356
18794TIP3    H277798   1.212   4.800   5.089  0.4415 -0.5092 -0.1171
18795TIP3   OH277799   6.733   3.057   1.685 -0.2526 -0.5956  0.1481
18795TIP3    H177800   6.721   3.144   1.723 -1.1057 -0.7882  0.3375
18795TIP3    H277801   6.770   3.073   1.599 -1.3894  0.0151 -0.2397
18796TIP3   OH277802   2.876   4.553  13.483 -0.5637  0.8036 -0.5002
18796TIP3    H177803   2.955   4.504  13.460 -1.8227  0.0432 -3.8440
18796TIP3    H277804   2.845   4.511  13.563 -0.0123 -2.0460 -1.6397
18797TIP3   OH277805   6.908   2.725   1.142  0.7182 -0.5016  0.4761
18797TIP3    H177806   6.836   2.662   1.135  2.0410 -2.0577  0.3184
18797TIP3    H277807   6.864   2.810   1.146 -1.1321 -1.3978  0.5917
18798TIP3   OH277808   3.417   4.122   1.846 -0.2952 -0.2251 -0.0711
18798TIP3    H177809   3.470   4.185   1.797  0.8712 -0.5017  0.7849
18798TIP3    H277810   3.455   4.037   1.824 -0.4616 -0.4376  0.4495
18799TIP3   OH277811   4.907   5.502   3.993 -0.0660  0.5008 -0.1153
18799TIP3    H177812   4.829   5.510   4.048  0.6315  0.4854  0.9079
18799TIP3    H277813   4.979   5.492   4.055  0.7318  0.3135 -1.0467
18800TIP3   OH277814   4.392   0.003   2.776 -0.7080  0.1039 -0.1305
18800TIP3    H177815   4.394  -0.056   2.852 -2.5800 -0.6460 -0.6162
18800TIP3    H277816   4.332  -0.039   2.715  0.4146  0.9311 -1.8665
18801TIP3   OH277817   0.128   1.918   4.318 -0.7488 -0.0135  0.5017
18801TIP3    H177818   0.098   1.837   4.277 -0.5791  0.6144 -0.9395
18801TIP3    H277819   0.130   1.899   4.412 -1.6929 -1.3413  0.2732
18802TIP3   OH277820   2.591   1.852   5.353  0.3670  0.0424  0.4588
18802TIP3    H177821   2.632   1.766   5.353 -3.4611 -2.0157  0.0628
18802TIP3    H277822   2.593   1.881   5.444 -0.5786 -1.7674  1.0905
18803TIP3   OH277823   1.205   6.302   2.789 -0.3351 -0.1692  0.1154
18803TIP3    H177824   1.240   6.216   2.766 -0.7305 -0.1550 -0.5617
18803TIP3    H277825   1.233   6.360   2.717 -2.9570 -0.4588 -1.2794
18804TIP3   OH277826   6.035   0.656   1.172  0.1560 -0.1052  0.4425
18804TIP3    H177827   6.001   0.616   1.252  0.2801  0.8814  1.0047
18804TIP3    H277828   6.045   0.749   1.194  0.5449  0.1124 -0.6017
18805TIP3   OH277829   2.977   6.314   2.205  0.2764  0.1274  0.2454
18805TIP3    H177830   3.034   6.374   2.253 -0.2201  0.1080  0.8646
18805TIP3    H277831   2.989   6.230   2.248  1.6928 -0.4646 -1.2070
18806TIP3   OH277832   5.845   5.738   3.755 -0.1560  0.2625 -0.1656
18806TIP3    H177833   5.756   5.732   3.790 -0.2149  2.4883  0.2097
18806TIP3    H277834   5.901   5.720   3.831 -0.2758 -0.1976 -0.1829
18807TIP3   OH277835   1.698   5.572   5.013 -0.1040 -0.1787 -1.0239
18807TIP3    H177836   1.778   5.619   4.992  0.0095 -0.2447 -0.7421
18807TIP3    H277837   1.709   5.546   5.104 -1.6902  2.3508  0.0001
18808TIP3   OH277838   0.069   6.342   5.351 -0.7154  0.2186 -0.4809
18808TIP3    H177839   0.090   6.351   5.444 -0.1226 -2.2507 -0.3037
18808TIP3    H277840   0.124   6.408   5.307 -1.0988  1.5060  0.8863
18809TIP3   OH277841   5.771   5.748   0.795 -0.4935 -0.0786 -0.0891
18809TIP3    H177842   5.676   5.753   0.786 -0.5014  2.2856  0.5105
18809TIP3    H277843   5.803   5.740   0.705 -1.2529 -3.1355 -0.1847
18810TIP3   OH277844   2.631   3.047   1.529  0.1316 -0.7512 -0.2585
18810TIP3    H177845   2.706   3.045   1.470  0.3141 -1.8483 -0.0078
18810TIP3    H277846   2.561   3.004   1.480 -1.2345  2.5580 -1.5843
18811TIP3   OH277847   6.725   3.096  11.651 -0.4952 -0.7858 -0.0752
18811TIP3    H177848   6.745   3.003  11.663  0.1702 -0.6064  0.2199
18811TIP3    H277849   6.770   3.119  11.569 -0.6869 -0.7269 -0.1647
18812TIP3   OH277850   2.971   6.391   3.012  0.3868  0.3804 -0.6026
18812TIP3    H177851   3.035   6.379   3.081 -0.2874  0.0990 -0.0119
18812TIP3    H277852   2.889   6.356   3.048  0.3195 -1.0281 -2.0379
18813TIP3   OH277853   3.902   3.961   6.040  0.0167  1.1870  0.5879
18813TIP3    H177854   3.933   3.985   5.953 -1.2858  1.6670  0.2339
18813TIP3    H277855   3.969   3.902   6.074  1.5718  2.6115  0.1076
18814TIP3   OH277856   6.808   0.584   1.012  0.6228  0.2961  0.0652
18814TIP3    H177857   6.904   0.579   1.017  0.7399 -0.3713 -1.9347
18814TIP3    H277858   6.778   0.538   1.091  1.8978  2.2665  1.8156
18815TIP3   OH277859   2.426   3.198   5.731  0.7158 -0.3263 -0.1263
18815TIP3    H177860   2.503   3.225   5.781  1.4795  0.0593 -1.4691
18815TIP3    H277861   2.438   3.104   5.718  0.8980 -0.2906 -0.2203
18816TIP3   OH277862   3.077   6.907   4.678  0.6611 -0.6738  0.0886
18816TIP3    H177863   3.117   6.978   4.628  0.4723  0.4060  1.4137
18816TIP3    H277864   3.092   6.931   4.769 -0.3406 -1.8131  0.5786
18817TIP3   OH277865   1.245   2.821   3.420  0.4257 -0.8545 -0.1470
18817TIP3    H177866   1.311   2.888   3.404  1.2090 -1.5215  0.2322
18817TIP3    H277867   1.205   2.805   3.335  0.4962 -0.1934 -0.3114
18818TIP3   OH277868   0.045   2.596   3.598  0.1667 -0.1751 -0.1935
18818TIP3    H177869   0.015   2.554   3.678  0.8936  1.6885  1.1145
18818TIP3    H277870  -0.014   2.563   3.530 -1.1798 -0.9567  1.2962
18819TIP3   OH277871   6.801   5.317   4.647 -0.3269  0.0386  0.3321
18819TIP3    H177872   6.824   5.373   4.721  2.2778  0.1624 -0.4598
18819TIP3    H277873   6.769   5.236   4.688 -2.1638  1.3030  1.5018
18820TIP3   OH277874   3.668   4.545   2.626 -0.3002 -0.1329 -0.0843
18820TIP3    H177875   3.683   4.563   2.719 -0.0282 -2.7466  0.4564
18820TIP3    H277876   3.755   4.546   2.587 -0.3572  0.4008 -0.2011
18821TIP3   OH277877   3.275   2.549  13.496 -0.1487  0.4377 -0.3940
18821TIP3    H177878   3.254   2.637  13.525 -0.4077  0.2844 -0.1109
18821TIP3    H277879   3.274   2.496  13.576  2.0139  0.5466 -0.2303
18822TIP3   OH277880   1.126   5.428   3.539 -0.1141 -0.1103 -0.2654
18822TIP3    H177881   1.081   5.383   3.468 -0.9855  0.8366 -0.3328
18822TIP3    H277882   1.181   5.493   3.495 -0.7945  0.6026 -0.0926
18823TIP3   OH277883   1.208   1.977   2.578  0.2216  0.2705  1.0333
18823TIP3    H177884   1.212   2.042   2.648  1.0252 -0.3702  1.5987
18823TIP3    H277885   1.275   2.006   2.516 -1.2513  1.4816 -0.0820
18824TIP3   OH277886   6.839   5.377   1.779 -0.1932  0.6379 -0.3053
18824TIP3    H177887   6.879   5.441   1.837 -1.9123  0.9735  0.5668
18824TIP3    H277888   6.774   5.426   1.729  0.6824  0.1878 -1.9579
18825TIP3   OH277889   2.473   5.571   4.686  0.2540 -0.1789  0.0106
18825TIP3    H177890   2.508   5.482   4.689  1.3729  0.1746 -1.2405
18825TIP3    H277891   2.453   5.593   4.777  2.2222 -0.8479  0.6443
18826TIP3   OH277892   4.710   1.542   4.203 -0.3196  0.4389 -0.5938
18826TIP3    H177893   4.764   1.508   4.132 -0.2900 -0.4553 -0.1619
18826TIP3    H277894   4.769   1.546   4.278 -1.0858 -1.6443  0.1822
18827TIP3   OH277895   5.220   1.479   3.497  0.4338  0.7533  0.5465
18827TIP3    H177896   5.131   1.492   3.465  0.3749 -1.7080 -0.4485
18827TIP3    H277897   5.213   1.494   3.592 -1.0611  0.4630  0.5055
18828TIP3   OH277898   6.958   6.373   5.159 -0.2228 -0.2732  0.6634
18828TIP3    H177899   6.949   6.397   5.067 -0.6458 -0.4082  0.6696
18828TIP3    H277900   7.048   6.340   5.166 -0.3866 -0.8348  0.1752
18829TIP3   OH277901   6.224   6.957  10.441 -0.3465  0.6502 -0.2940
18829TIP3    H177902   6.140   7.004  10.443 -0.2868  0.9389 -2.3854
18829TIP3    H277903   6.272   6.997  10.368  2.2431  1.4900  1.7384
18830TIP3   OH277904   0.633   4.907   3.255  0.0925  0.2510  0.1435
18830TIP3    H177905   0.691   4.860   3.196 -0.4013 -0.2708  0.0624
18830TIP3    H277906   0.647   4.999   3.235  0.9138  0.1341  0.1549
18831TIP3   OH277907   1.895   3.915  15.495 -0.1148  0.5582 -0.0509
18831TIP3    H177908   1.900   3.948  15.585 -0.7639 -0.7610  0.4932
18831TIP3    H277909   1.972   3.952  15.452 -0.9527  3.0098  0.4035
18832TIP3   OH277910   0.574   5.579   5.554 -0.5714 -0.0840  0.8425
18832TIP3    H177911   0.552   5.556   5.463 -0.1096  1.8780  0.1901
18832TIP3    H277912   0.667   5.559   5.562 -0.4478  0.4116  0.6554
18833TIP3   OH277913   3.731   5.577   4.618  0.4712 -0.5483  0.7583
18833TIP3    H177914   3.758   5.562   4.527  0.2444  1.1419  0.3808
18833TIP3    H277915   3.718   5.489   4.654  1.3809 -1.2712 -0.5897
18834TIP3   OH277916   2.360   4.271   1.488 -0.5140 -0.0698  0.7542
18834TIP3    H177917   2.368   4.210   1.415 -0.2559 -0.2086  0.8985
18834TIP3    H277918   2.418   4.236   1.556 -0.2387  0.4141  0.7795
18835TIP3   OH277919   0.756   4.508  12.729 -0.1057  0.7023 -0.4084
18835TIP3    H177920   0.816   4.561  12.677 -0.7342  2.2728  0.4099
18835TIP3    H277921   0.669   4.531  12.696 -0.3475 -0.6988 -0.8101
18836TIP3   OH277922   4.035   6.809  12.557  0.1101 -0.1827  0.0418
18836TIP3    H177923   3.966   6.832  12.495  1.0935 -1.0456 -1.4339
18836TIP3    H277924   4.094   6.884  12.556  0.0918 -0.1689 -0.0380
18837TIP3   OH277925   5.411   2.992  13.480 -0.1527  0.0789 -0.2264
18837TIP3    H177926   5.368   2.994  13.394 -0.4062 -0.7853 -0.1260
18837TIP3    H277927   5.344   2.961  13.540 -0.1453  1.2111  0.3986
18838TIP3   OH277928   6.345   6.979   2.353 -0.3692  0.0393  0.2027
18838TIP3    H177929   6.412   6.976   2.421 -1.0653 -1.9832  0.8832
18838TIP3    H277930   6.328   7.073   2.340  0.0691  0.5155  2.5413
18839TIP3   OH277931   7.059   1.769   0.861 -0.0474 -0.6756 -0.2877
18839TIP3    H177932   7.029   1.703   0.923  0.4789 -0.0570  0.6655
18839TIP3    H277933   6.992   1.772   0.793 -0.6042 -1.4255  0.2210
18840TIP3   OH277934   3.380   5.834   3.522  0.3578 -0.0854 -0.0837
18840TIP3    H177935   3.407   5.922   3.547 -0.9119 -0.3031  2.3963
18840TIP3    H277936   3.461   5.782   3.523  0.7405  0.4859  1.3447
18841TIP3   OH277937   2.515   4.426   6.156 -0.0496  0.6521  0.1370
18841TIP3    H177938   2.564   4.486   6.212 -0.4766  0.7516  0.4047
18841TIP3    H277939   2.517   4.343   6.201  1.9881 -0.0018 -1.0277
18842TIP3   OH277940   0.469   3.399  10.469  0.3705  0.5458 -0.0021
18842TIP3    H177941   0.435   3.473  10.418 -0.4758  0.1017 -0.0894
18842TIP3    H277942   0.416   3.399  10.549 -1.0706 -1.2011 -0.8827
18843TIP3   OH277943   5.636   0.996  11.344  0.4487 -0.3648  0.0622
18843TIP3    H177944   5.695   1.071  11.354 -0.0131  0.6380 -3.2707
18843TIP3    H277945   5.549   1.031  11.362  0.4223 -0.6184  0.4268
18844TIP3   OH277946   3.236   2.097   4.511 -0.3606  0.6144 -0.3096
18844TIP3    H177947   3.322   2.056   4.506 -0.8037 -0.4012  0.1004
18844TIP3    H277948   3.180   2.030   4.549 -1.4407  1.0970 -1.0060
18845TIP3   OH277949   4.355   2.306   2.208 -0.0864 -0.3857  0.4190
18845TIP3    H177950   4.430   2.358   2.178 -0.1953  0.8951  2.2050
18845TIP3    H277951   4.392   2.219   2.225  0.7249 -0.1104  0.1240
18846TIP3   OH277952   2.254   5.628   1.758  0.0772 -0.5961 -0.4992
18846TIP3    H177953   2.292   5.542   1.742  1.8448  0.2895 -1.3254
18846TIP3    H277954   2.260   5.673   1.673 -1.5441  0.0942 -0.2886
18847TIP3   OH277955   0.386   2.918  13.953 -0.2189  0.2709 -0.0471
18847TIP3    H177956   0.402   2.986  14.017  0.5311 -0.8427  0.9996
18847TIP3    H277957   0.309   2.948  13.904 -0.3322  1.5049  0.8525
18848TIP3   OH277958   5.648   2.365  12.964 -0.6162 -0.0633 -0.1255
18848TIP3    H177959   5.679   2.402  12.881 -0.0629 -1.3232 -0.5121
18848TIP3    H277960   5.613   2.279  12.940 -0.1759 -0.5753  0.9728
18849TIP3   OH277961   0.644   5.110   1.247 -0.3357  0.6014 -0.1645
18849TIP3    H177962   0.556   5.108   1.208 -0.3764  1.4922 -0.1285
18849TIP3    H277963   0.693   5.171   1.192 -0.5783  2.4379  1.5205
18850TIP3   OH277964   4.650   1.328  15.330 -0.5364  0.2295 -0.1764
18850TIP3    H177965   4.578   1.315  15.268 -0.8418 -2.4635  0.6089
18850TIP3    H277966   4.622   1.281  15.409  1.7200 -0.1824  0.4334
18851TIP3   OH277967   3.341   7.000  15.037  0.4008 -0.3557 -0.6580
18851TIP3    H177968   3.420   6.982  14.988  1.2390 -0.6650  0.7537
18851TIP3    H277969   3.321   6.918  15.083 -0.9098 -0.3748 -1.2225
18852TIP3   OH277970   6.337   2.031   3.008  0.5241  0.0852  0.2946
18852TIP3    H177971   6.314   2.031   2.915 -0.2581 -0.3955  0.4793
18852TIP3    H277972   6.433   2.029   3.009  0.5301 -0.3675 -0.4942
18853TIP3   OH277973   3.079   1.869   4.539  1.0476  0.2022 -1.3180
18853TIP3    H177974   3.018   1.819   4.486  0.0186  0.8302 -0.7505
18853TIP3    H277975   3.097   1.813   4.615 -2.4309  1.7551  0.8594
18854TIP3   OH277976   6.754   4.330   4.401 -0.0239 -0.2434  0.0082
18854TIP3    H177977   6.675   4.345   4.349  0.6192  2.5539 -0.2824
18854TIP3    H277978   6.800   4.260   4.354 -1.2396 -0.3700 -1.0581
18855TIP3   OH277979   1.548   2.969  15.221  0.5799 -0.1367  0.1529
18855TIP3    H177980   1.532   2.884  15.261  0.5767 -0.2474 -0.0799
18855TIP3    H277981   1.532   3.032  15.291 -1.8587 -0.1474 -0.3104
18856TIP3   OH277982   5.026   3.102   4.122  0.0194  0.3073 -0.0478
18856TIP3    H177983   4.963   3.059   4.064 -1.9373  0.7423  1.6361
18856TIP3    H277984   5.036   3.190   4.086  0.0315  0.0888 -0.5910
18857TIP3   OH277985   5.166   3.382   5.880  0.0316  0.1635  0.5665
18857TIP3    H177986   5.117   3.387   5.962  0.6788 -0.1700  0.9782
18857TIP3    H277987   5.228   3.455   5.884  0.6217 -0.3327  0.7561
18858TIP3   OH277988   0.869   4.714   2.249 -0.2078 -0.2810  0.0666
18858TIP3    H177989   0.785   4.750   2.278  0.1517 -0.3044  1.2015
18858TIP3    H277990   0.845   4.651   2.180 -1.2199 -0.9289  0.9608
18859TIP3   OH277991   2.306   1.382   0.038 -0.4270 -0.9865  0.0082
18859TIP3    H177992   2.393   1.350   0.014  0.5408  1.6368 -0.3216
18859TIP3    H277993   2.302   1.471   0.002 -3.5441 -1.2685 -0.5751
18860TIP3   OH277994   1.004   2.311   4.274  0.2208  0.0671 -0.4636
18860TIP3    H177995   1.064   2.336   4.344  1.7315 -1.0374 -1.2876
18860TIP3    H277996   1.012   2.381   4.209  0.5021  0.0276 -0.4764
18861TIP3   OH277997   5.758   2.833   3.571 -0.5695 -0.0378  0.4396
18861TIP3    H177998   5.723   2.918   3.547  0.9209  0.8149  1.1594
18861TIP3    H277999   5.688   2.771   3.551 -3.4667  1.7435  3.9435
18862TIP3   OH278000   4.236   1.714   1.054  0.4412 -0.1881  0.1310
18862TIP3    H178001   4.203   1.777   0.991  0.3650  0.5007  0.8468
18862TIP3    H278002   4.312   1.674   1.011  0.8279  0.7884 -0.0997
18863TIP3   OH278003   3.938   1.618  15.215 -0.2682  0.0560 -0.1312
18863TIP3    H178004   4.009   1.681  15.203 -0.7969  1.0168  1.5101
18863TIP3    H278005   3.952   1.583  15.302  0.1561 -2.3546 -1.0923
18864TIP3   OH278006   3.554   4.799   3.482  0.0939 -0.0864 -0.5672
18864TIP3    H178007   3.467   4.832   3.459 -0.7271 -1.7775 -0.1060
18864TIP3    H278008   3.610   4.876   3.481 -1.4672  1.1129 -0.5969
18865TIP3   OH278009   3.462   5.765   2.342  0.6474 -0.0499 -0.3638
18865TIP3    H178010   3.410   5.696   2.300  0.0533  0.7841 -1.0437
18865TIP3    H278011   3.553   5.740   2.325  0.4674 -1.2789  0.4252
18866TIP3   OH278012   1.845   2.028   4.892 -0.5727 -0.0437 -0.3194
18866TIP3    H178013   1.880   2.117   4.899 -1.5216  0.2891  0.2925
18866TIP3    H278014   1.874   1.998   4.806  1.4468  0.1132  0.2511
18867TIP3   OH278015   0.108   0.293   3.134 -0.0209 -0.0509 -0.2323
18867TIP3    H178016   0.163   0.254   3.202 -0.0583 -1.9301 -1.2075
18867TIP3    H278017   0.167   0.306   3.060 -0.7842 -1.9930 -1.2528
18868TIP3   OH278018   1.799   1.321   2.842 -0.2393 -0.0369  0.3623
18868TIP3    H178019   1.827   1.385   2.907  2.1259 -1.4481  0.8532
18868TIP3    H278020   1.712   1.293   2.871  0.1150  0.5056  2.0406
18869TIP3   OH278021   4.521   5.229   0.536  0.5159 -0.3746 -0.0888
18869TIP3    H178022   4.544   5.308   0.487  0.2546 -0.1564  0.1366
18869TIP3    H278023   4.427   5.216   0.519  0.3995 -0.2326  0.4459
18870TIP3   OH278024   5.790   0.532   0.980  0.5476  0.5161  0.3787
18870TIP3    H178025   5.868   0.585   0.999  1.0064  0.9955 -2.3543
18870TIP3    H278026   5.816   0.476   0.907 -1.3039 -0.2509  0.2434
18871TIP3   OH278027   1.490   3.084  10.513  0.6346 -0.5196 -0.0123
18871TIP3    H178028   1.447   3.124  10.436  1.9717  2.6756  0.7504
18871TIP3    H278029   1.561   3.144  10.534  0.3650 -1.2953  3.7162
18872TIP3   OH278030   5.180   5.568   6.089 -0.0518 -0.6073 -0.2770
18872TIP3    H178031   5.146   5.652   6.056 -1.8649 -1.7356 -1.4247
18872TIP3    H278032   5.250   5.546   6.027 -1.9781 -1.6316 -2.2215
18873TIP3   OH278033   4.084   0.446   1.313  0.0635  0.1728  0.9830
18873TIP3    H178034   4.026   0.377   1.279 -0.2641 -0.4832  2.7669
18873TIP3    H278035   4.026   0.518   1.335 -0.1450 -0.5167  2.8533
18874TIP3   OH278036   5.905   3.338  14.083  0.3556  0.5451 -0.1662
18874TIP3    H178037   5.924   3.426  14.049  1.2662 -0.4859 -2.5002
18874TIP3    H278038   5.810   3.328  14.072  0.4696  0.6809 -1.2992
18875TIP3   OH278039   3.908   5.951  15.488 -0.0170  0.2448 -0.0131
18875TIP3    H178040   3.850   6.015  15.530  1.6506  1.8205 -0.0266
18875TIP3    H278041   3.982   5.943  15.548  0.0086 -1.3948 -0.2187
18876TIP3   OH278042   5.074   7.071  13.635  0.2257  0.1492 -0.6354
18876TIP3    H178043   5.039   7.094  13.721  0.9599  1.2756 -0.6188
18876TIP3    H278044   4.999   7.080  13.575 -0.4920 -1.4159 -0.0364
18877TIP3   OH278045   1.620   2.073   1.591  0.6631 -0.2944  0.6642
18877TIP3    H178046   1.674   2.099   1.517  1.9708 -1.6728  1.0702
18877TIP3    H278047   1.677   2.084   1.667 -0.3700  0.2756  1.3829
18878TIP3   OH278048   3.278   4.187   0.927 -0.4170 -0.3698 -0.6491
18878TIP3    H178049   3.204   4.184   0.987  0.6248  0.4559  0.7175
18878TIP3    H278050   3.309   4.096   0.921  1.1573 -0.1269  2.2873
18879TIP3   OH278051   5.046   2.902   9.493  0.8813  0.2640 -1.1797
18879TIP3    H178052   5.044   2.981   9.547  1.7220 -0.6175  0.2116
18879TIP3    H278053   5.004   2.927   9.411  0.2276  1.8594 -0.3877
18880TIP3   OH278054   2.883   5.376   1.506  0.0623 -0.8748  0.3273
18880TIP3    H178055   2.975   5.353   1.490  0.4144  0.5400  0.1691
18880TIP3    H278056   2.870   5.358   1.599  1.2710  1.2098  0.9768
18881TIP3   OH278057   3.706   6.487  12.832 -0.2770 -0.3496  0.0231
18881TIP3    H178058   3.707   6.582  12.833  1.2385 -0.3524  0.4875
18881TIP3    H278059   3.735   6.461  12.920  1.8045 -1.1984 -0.8420
18882TIP3   OH278060   1.978   6.038   4.342  0.0390  0.4344  0.0589
18882TIP3    H178061   1.912   6.089   4.388 -2.9325 -3.2610  0.4221
18882TIP3    H278062   2.014   5.979   4.409  0.4920 -0.5440 -1.0084
18883TIP3   OH278063   2.338   0.081   0.367 -0.2872  0.2695 -0.7318
18883TIP3    H178064   2.322   0.043   0.454 -2.1949  1.6838 -0.3931
18883TIP3    H278065   2.395   0.156   0.384 -0.5599  0.4730 -0.7062
18884TIP3   OH278066   4.854   6.183   1.779  0.1289  0.0143 -0.4818
18884TIP3    H178067   4.946   6.177   1.756  0.2099  0.3488 -0.2568
18884TIP3    H278068   4.809   6.128   1.715  0.7923 -3.1739  1.6020
18885TIP3   OH278069   1.049   2.144   2.335 -0.0407  0.3257  0.1951
18885TIP3    H178070   1.111   2.077   2.366  0.8054  0.9720 -0.0651
18885TIP3    H278071   1.047   2.209   2.406 -0.6693  0.1548  0.3394
18886TIP3   OH278072   0.299   5.000  10.418  0.0773  0.3871  0.1317
18886TIP3    H178073   0.324   5.083  10.378 -1.0496  0.2245 -0.9566
18886TIP3    H278074   0.286   5.021  10.510  2.3712  0.8432  0.4136
18887TIP3   OH278075   3.857   0.451  12.949 -0.1841 -0.3518 -0.1505
18887TIP3    H178076   3.768   0.433  12.918 -0.2083 -0.5068  0.0075
18887TIP3    H278077   3.880   0.534  12.907  0.1708 -1.0538 -1.4001
18888TIP3   OH278078   1.535   3.894   2.600 -0.0348 -0.0542 -0.1251
18888TIP3    H178079   1.508   3.907   2.509  1.1007 -1.3065 -0.6726
18888TIP3    H278080   1.623   3.929   2.604  0.0021 -0.2116  0.4382
18889TIP3   OH278081   4.935   4.958  12.600  0.3866  0.0796 -0.5601
18889TIP3    H178082   4.984   4.876  12.607 -1.3219 -0.8486  2.0231
18889TIP3    H278083   4.862   4.948  12.662 -1.7057  2.3241 -2.4518
18890TIP3   OH278084   0.100   1.455  15.050  0.1969  0.7140 -0.5704
18890TIP3    H178085   0.027   1.514  15.034 -0.3845  0.3708  0.6542
18890TIP3    H278086   0.161   1.506  15.103  0.9282  1.0379 -1.6865
18891TIP3   OH278087   5.934   0.677   2.961  0.2378 -0.0953 -0.2460
18891TIP3    H178088   5.840   0.687   2.971  0.3260  0.0959  0.3863
18891TIP3    H278089   5.963   0.635   3.042  0.5352 -1.2478 -0.9202
18892TIP3   OH278090   5.406   4.099   1.920 -0.3086 -0.1711 -0.4301
18892TIP3    H178091   5.328   4.134   1.962  0.3718 -0.8313  1.4944
18892TIP3    H278092   5.474   4.165   1.937 -0.1485 -0.1586 -1.0675
18893TIP3   OH278093   7.098   2.807  15.297  0.0491  0.1718  0.2925
18893TIP3    H178094   7.154   2.846  15.364 -1.5133  0.6094  1.4050
18893TIP3    H278095   7.027   2.870  15.285 -1.2090 -1.1832  0.2998
18894TIP3   OH278096   3.667   3.379   2.700  0.2021 -0.6236 -0.0155
18894TIP3    H178097   3.711   3.310   2.749  1.6737  0.3968  0.1646
18894TIP3    H278098   3.717   3.386   2.618 -1.1702 -1.1301 -0.9422
18895TIP3   OH278099   0.437   5.589   5.782 -0.1310  0.5479  0.0501
18895TIP3    H178100   0.466   5.582   5.691 -1.2664 -1.5766 -0.1886
18895TIP3    H278101   0.344   5.611   5.777 -1.0255 -2.6834  0.5474
18896TIP3   OH278102   3.055   5.860   5.572  0.3386  0.0135  0.3069
18896TIP3    H178103   3.132   5.860   5.515 -0.3494 -0.0979 -0.6540
18896TIP3    H278104   3.018   5.948   5.564  1.5664  0.8143  2.5019
18897TIP3   OH278105   1.965   6.959   5.538  0.6303  0.0078  0.5587
18897TIP3    H178106   2.030   6.904   5.581 -2.0176 -2.0289  2.3357
18897TIP3    H278107   1.904   6.983   5.608 -0.9361  1.1643 -1.1041
18898TIP3   OH278108   6.439   1.888  14.562  0.0726  0.6070  0.6756
18898TIP3    H178109   6.462   1.928  14.647  3.0948 -0.3548  0.4302
18898TIP3    H278110   6.507   1.823  14.547 -2.3636 -1.7832 -0.9019
18899TIP3   OH278111   6.025   5.624   3.963  0.3186 -0.1001 -0.3371
18899TIP3    H178112   6.071   5.551   3.923  1.9870 -0.1575  1.5020
18899TIP3    H278113   6.009   5.595   4.053  0.4468  1.5232  0.2416
18900TIP3   OH278114   0.190   4.114   5.765  0.1965  0.0398 -0.5700
18900TIP3    H178115   0.157   4.091   5.851  0.4481 -0.2881 -0.5577
18900TIP3    H278116   0.159   4.043   5.708 -0.8987  0.8218 -0.9605
18901TIP3   OH278117   5.863   6.747   3.811 -1.0531 -0.0256  0.5040
18901TIP3    H178118   5.914   6.680   3.767  1.0050  0.5718  1.8441
18901TIP3    H278119   5.785   6.758   3.756  1.0394  0.2999 -2.6627
18902TIP3   OH278120   2.024   2.234   4.945 -0.0065 -0.0793  0.6983
18902TIP3    H178121   2.067   2.172   5.004 -0.9251 -1.8642 -0.4068
18902TIP3    H278122   2.095   2.276   4.898  0.6353 -0.9793  0.8347
18903TIP3   OH278123   2.322   3.865  14.925  0.0039 -0.0018 -0.0884
18903TIP3    H178124   2.350   3.819  14.846 -1.0169  2.6529 -2.1835
18903TIP3    H278125   2.230   3.840  14.935 -0.4017  1.0789 -0.9169
18904TIP3   OH278126   0.637   2.515   1.104 -0.3497 -0.2020 -0.5143
18904TIP3    H178127   0.660   2.578   1.036  0.1559  0.9895  0.7188
18904TIP3    H278128   0.721   2.478   1.131 -0.0901  1.7854  1.7360
18905TIP3   OH278129   1.118   3.247  11.023 -0.1895 -0.2106  0.3580
18905TIP3    H178130   1.056   3.175  11.014 -0.7283  0.1794  0.8782
18905TIP3    H278131   1.172   3.242  10.944 -3.1347  1.5729 -2.0332
18906TIP3   OH278132   6.267   2.377   2.185  0.1100  0.5905 -0.0937
18906TIP3    H178133   6.295   2.333   2.105 -0.3249  0.1008  0.0179
18906TIP3    H278134   6.311   2.329   2.255 -1.0886 -0.2756  0.0931
18907TIP3   OH278135   0.446   1.227   3.642  0.2749 -0.5267  0.4841
18907TIP3    H178136   0.473   1.140   3.614  1.8438  0.4585 -1.3513
18907TIP3    H278137   0.397   1.213   3.723  0.5921 -3.0698  0.3036
18908TIP3   OH278138   1.598   1.907   4.313  0.1280 -0.5394  0.1070
18908TIP3    H178139   1.604   1.888   4.220  1.0126 -0.1588  0.0693
18908TIP3    H278140   1.547   1.835   4.349  1.2579 -1.6501 -0.4132
18909TIP3   OH278141   6.898   6.409   4.539  0.2062 -0.0988 -0.0184
18909TIP3    H178142   6.964   6.347   4.571 -0.3128  0.1203  1.5882
18909TIP3    H278143   6.914   6.489   4.588  0.1814  0.7125 -1.2979
18910TIP3   OH278144   1.698   6.774   5.660 -0.4148  0.2926 -0.3104
18910TIP3    H178145   1.753   6.843   5.698 -1.0056  0.4235  0.3222
18910TIP3    H278146   1.735   6.692   5.692 -0.8123  0.3961  0.4291
18911TIP3   OH278147   0.582   2.798  13.812  0.3161  0.1413 -0.2574
18911TIP3    H178148   0.505   2.823  13.863  0.7544  1.2853 -0.1455
18911TIP3    H278149   0.555   2.809  13.721 -0.1169 -0.8810 -0.2696
18912TIP3   OH278150   0.215   2.978   2.946 -0.2219  0.2075  0.1830
18912TIP3    H178151   0.203   3.018   3.033 -0.9010 -1.9015  1.1200
18912TIP3    H278152   0.290   3.024   2.909 -0.1629  1.4424  1.7117
18913TIP3   OH278153   0.007   4.438   0.580  0.4954 -0.3730  0.2081
18913TIP3    H178154  -0.088   4.426   0.581  0.2619  1.2418  0.1796
18913TIP3    H278155   0.019   4.530   0.556  2.0136 -0.1530  1.6106
18914TIP3   OH278156   3.748   1.596   2.878  0.3500  0.9898  0.3639
18914TIP3    H178157   3.783   1.646   2.804 -1.0610 -0.2512 -1.2220
18914TIP3    H278158   3.663   1.636   2.895  0.0561  0.3662  0.3697
18915TIP3   OH278159   1.018   0.696   2.021  0.6340  0.1389  0.3004
18915TIP3    H178160   1.037   0.624   2.081  1.6797  1.6543  1.8726
18915TIP3    H278161   1.091   0.757   2.031 -0.4536  1.6871 -0.5842
18916TIP3   OH278162   6.084   5.610  10.874  0.4162 -0.2623 -0.4489
18916TIP3    H178163   6.078   5.530  10.926  0.1933 -0.1626 -0.3232
18916TIP3    H278164   6.060   5.583  10.785  0.0163 -0.2659 -0.3404
18917TIP3   OH278165   6.571   4.194   1.742 -0.1552  0.4108  0.1125
18917TIP3    H178166   6.508   4.186   1.670  0.0188  0.2938 -0.0259
18917TIP3    H278167   6.657   4.195   1.699  0.1090 -2.0319  0.4497
18918TIP3   OH278168   2.430   6.410   2.477 -0.5109 -0.0400  0.2895
18918TIP3    H178169   2.377   6.358   2.538  1.4566 -0.4562  1.7436
18918TIP3    H278170   2.466   6.480   2.532 -1.3670  1.6311 -1.1687
18919TIP3   OH278171   2.261   5.005  14.922  0.7451  0.0125 -0.0018
18919TIP3    H178172   2.351   5.033  14.906  0.8859 -0.3308  0.1641
18919TIP3    H278173   2.228   4.979  14.836  0.7615  0.2652 -0.0831
18920TIP3   OH278174   1.348   1.949   2.884  0.3640 -0.4016 -0.2322
18920TIP3    H178175   1.435   1.912   2.900  0.7475 -0.0316 -1.3230
18920TIP3    H278176   1.328   1.999   2.963  0.5611 -1.5495  0.5742
18921TIP3   OH278177   5.854   0.128   1.440 -0.0290 -0.5672  0.8376
18921TIP3    H178178   5.866   0.104   1.532  0.8541 -1.2097  0.5702
18921TIP3    H278179   5.910   0.205   1.428  0.8949 -1.2635  0.5349
18922TIP3   OH278180   4.811   6.125   0.210  0.1965  0.0992  0.0499
18922TIP3    H178181   4.884   6.082   0.254  0.2056 -1.0198 -1.0140
18922TIP3    H278182   4.787   6.198   0.268  1.4047 -0.2081  0.9612
18923TIP3   OH278183   5.483   4.690   5.833  0.2653 -0.3124  0.8720
18923TIP3    H178184   5.513   4.678   5.923  2.2084 -1.4755  0.1381
18923TIP3    H278185   5.501   4.781   5.813 -0.2756 -0.0199  1.6665
18924TIP3   OH278186   4.640   3.541   3.703 -0.0795  0.0917  0.7161
18924TIP3    H178187   4.709   3.535   3.637 -2.4966  0.3875 -2.0229
18924TIP3    H278188   4.677   3.599   3.770  2.2387  0.4038 -0.7059
18925TIP3   OH278189   3.960   0.045   0.762  0.2160 -0.6117 -0.1891
18925TIP3    H178190   3.980   0.057   0.669  0.0196  0.1052 -0.1498
18925TIP3    H278191   4.038   0.004   0.799  2.6248  3.7794  0.3513
18926TIP3   OH278192   2.384   1.109   5.167 -0.6807 -0.6078  0.1355
18926TIP3    H178193   2.448   1.037   5.166  1.9121  1.5539  0.5787
18926TIP3    H278194   2.308   1.073   5.122  1.3337 -2.9071 -1.7580
18927TIP3   OH278195   0.837   6.479  14.235  0.1591 -0.6074 -0.0274
18927TIP3    H178196   0.904   6.480  14.167  0.7048  0.9134  0.4874
18927TIP3    H278197   0.774   6.545  14.207  1.5121  1.6802  1.9360
18928TIP3   OH278198   1.026   1.258   4.399  0.0331  0.4787 -0.3691
18928TIP3    H178199   1.056   1.206   4.474  0.4682  0.3320 -0.6417
18928TIP3    H278200   1.098   1.319   4.383 -0.2321  0.7816 -0.4145
18929TIP3   OH278201   3.460   0.111   1.100  0.8336 -0.0530 -0.2748
18929TIP3    H178202   3.369   0.127   1.075  0.5247  0.3616  1.0787
18929TIP3    H278203   3.511   0.149   1.028 -0.0503 -0.9594 -1.4212
18930TIP3   OH278204   4.758   1.967   5.291 -0.1637  0.1400 -0.2223
18930TIP3    H178205   4.779   1.954   5.383 -1.5668 -0.2660  0.0696
18930TIP3    H278206   4.783   1.885   5.248  0.6840  0.4061 -0.2567
18931TIP3   OH278207   6.845   1.370   4.580 -0.0757  0.4459 -0.5974
18931TIP3    H178208   6.920   1.391   4.636 -0.2292  0.1590 -0.2803
18931TIP3    H278209   6.812   1.287   4.613  1.8442 -1.5072 -3.1881
18932TIP3   OH278210   1.393   0.671   5.816  0.1469  0.5366 -0.1559
18932TIP3    H178211   1.470   0.667   5.759  0.8872 -2.0419  0.8771
18932TIP3    H278212   1.319   0.657   5.757  0.6439  0.7388 -0.8444
18933TIP3   OH278213   4.955   6.035   4.206 -0.4855 -0.3977  0.1898
18933TIP3    H178214   4.915   6.118   4.231  2.1489  0.3841  2.3696
18933TIP3    H278215   4.980   5.995   4.290  0.9072 -2.0202 -0.9311
18934TIP3   OH278216   6.368   4.823   5.612 -0.4709  0.3364  0.0954
18934TIP3    H178217   6.459   4.847   5.594 -0.9764  0.8759 -1.9375
18934TIP3    H278218   6.345   4.874   5.690  1.0741 -0.1627  0.9256
18935TIP3   OH278219   4.125   3.337   4.756  0.4319  0.2437  0.0182
18935TIP3    H178220   4.159   3.305   4.673  0.1354 -2.4991  0.8614
18935TIP3    H278221   4.201   3.342   4.813  0.1970 -1.1554  0.4976
18936TIP3   OH278222   3.094   0.588  14.575  0.3121 -0.4018 -0.4596
18936TIP3    H178223   3.025   0.526  14.551 -0.6265  0.7351 -0.7607
18936TIP3    H278224   3.093   0.588  14.671  0.3015 -0.8262 -0.4570
18937TIP3   OH278225   4.921   0.795  15.155  0.3708  0.0784  0.1728
18937TIP3    H178226   4.883   0.861  15.213 -1.0365 -1.8228  1.5315
18937TIP3    H278227   4.864   0.796  15.078 -0.3270 -0.2733  0.6664
18938TIP3   OH278228   2.320   3.324   0.442 -0.0015  0.3823  0.0296
18938TIP3    H178229   2.415   3.335   0.442 -0.1350  1.9127  1.3394
18938TIP3    H278230   2.306   3.232   0.418  1.7738  0.2761 -0.7114
18939TIP3   OH278231   2.576   2.191  14.904  0.3249 -0.0637  0.0677
18939TIP3    H178232   2.501   2.154  14.859 -0.7834  0.5213  1.3497
18939TIP3    H278233   2.552   2.190  14.996  1.3914  1.2313  0.4036
18940TIP3   OH278234   3.382   1.120  12.329  0.0897 -0.4647 -0.1018
18940TIP3    H178235   3.329   1.089  12.255 -1.4036  0.5821  0.4938
18940TIP3    H278236   3.450   1.173  12.288 -0.7542  0.1472 -0.7436
18941TIP3   OH278237   2.070   2.664   3.237 -0.2131 -0.3316 -0.2783
18941TIP3    H178238   2.133   2.733   3.257 -1.1612  0.8331 -1.1442
18941TIP3    H278239   2.016   2.657   3.315 -0.6676  0.5617 -0.4947
18942TIP3   OH278240   6.612   2.705  15.182 -0.4105 -0.4328 -0.0646
18942TIP3    H178241   6.703   2.715  15.153 -0.7565  1.6967 -0.6127
18942TIP3    H278242   6.586   2.618  15.153  1.3602 -0.9491 -0.1722
18943TIP3   OH278243   6.028   6.628   2.132  0.1923 -0.3828  0.0616
18943TIP3    H178244   6.099   6.692   2.137 -0.1046 -0.0601  0.1707
18943TIP3    H278245   5.965   6.656   2.199  0.0125 -0.7280  0.0399
18944TIP3   OH278246   4.133   3.090   1.449  0.3496  0.0938 -0.5607
18944TIP3    H178247   4.206   3.032   1.471  1.1024  0.6867 -1.4375
18944TIP3    H278248   4.128   3.152   1.522  0.5512 -0.1108 -0.3724
18945TIP3   OH278249   2.037   0.893   3.782 -0.3847  0.1093 -0.3662
18945TIP3    H178250   2.042   0.945   3.702  0.1853  0.6339  0.0025
18945TIP3    H278251   2.107   0.926   3.837 -1.8211  0.9459  1.0596
18946TIP3   OH278252   1.380   4.405   5.512  0.2137 -0.3074  0.6401
18946TIP3    H178253   1.290   4.372   5.515  0.4652 -1.2707 -1.0365
18946TIP3    H278254   1.371   4.499   5.496 -0.5167 -0.5342 -0.3897
18947TIP3   OH278255   2.004   6.583   1.287  0.1745 -0.5830  0.4457
18947TIP3    H178256   2.004   6.531   1.206 -0.4231  0.1347 -0.0315
18947TIP3    H278257   2.043   6.525   1.352 -2.4981 -2.5193  0.4989
18948TIP3   OH278258   5.582   6.638   2.365  0.1090 -0.7906 -0.3512
18948TIP3    H178259   5.497   6.654   2.407 -0.1294 -1.6169 -0.4944
18948TIP3    H278260   5.647   6.661   2.432 -0.1626  1.2016 -0.6995
18949TIP3   OH278261   6.776   2.738   5.423 -0.4111  0.2409 -0.1934
18949TIP3    H178262   6.828   2.815   5.450  1.1707 -1.1305  0.8730
18949TIP3    H278263   6.697   2.743   5.477 -1.5408  2.4058 -1.8856
18950TIP3   OH278264   5.546   3.310   4.291  0.3147  0.0828 -0.2408
18950TIP3    H178265   5.630   3.295   4.249  0.6982 -1.0241  0.8675
18950TIP3    H278266   5.485   3.255   4.242  0.4202  0.1259 -0.4228
18951TIP3   OH278267   1.070   0.673   3.545  0.0403  0.0163 -0.1657
18951TIP3    H178268   0.981   0.640   3.534  0.0009  0.3644 -0.9473
18951TIP3    H278269   1.064   0.767   3.529  0.1111  0.5149  2.2494
18952TIP3   OH278270   0.644   0.854   2.966 -0.0061  0.5258  0.1208
18952TIP3    H178271   0.557   0.837   3.003  0.0837  1.1194  0.6189
18952TIP3    H278272   0.685   0.767   2.960 -0.1797  0.3727  1.0299
18953TIP3   OH278273   6.773   4.517   3.149 -0.1552  0.4102 -0.0541
18953TIP3    H178274   6.721   4.579   3.201  0.0346  0.8788 -0.4149
18953TIP3    H278275   6.797   4.448   3.211  3.4654  2.8938  1.6368
18954TIP3   OH278276   3.500   3.160   2.877 -0.1762  0.0434 -0.2853
18954TIP3    H178277   3.592   3.187   2.882 -0.3131  0.7819 -1.5680
18954TIP3    H278278   3.466   3.176   2.966  1.5469 -2.6782  1.0056
18955TIP3   OH278279   6.575   5.676   5.401 -0.4151  0.2436  0.2208
18955TIP3    H178280   6.563   5.712   5.313  0.2000  0.8786  0.3849
18955TIP3    H278281   6.559   5.582   5.391  1.0085  0.0829 -0.8674
18956TIP3   OH278282   0.208   5.050   5.361 -0.3649 -0.5635 -0.4151
18956TIP3    H178283   0.185   4.957   5.361 -3.2121 -0.0395  2.2656
18956TIP3    H278284   0.218   5.072   5.454  0.5834  1.7460 -1.0073
18957TIP3   OH278285   0.653   0.308  14.734 -0.6656  1.2039  0.0333
18957TIP3    H178286   0.671   0.329  14.643 -1.1560  0.4814 -0.2361
18957TIP3    H278287   0.669   0.214  14.741 -0.0895  1.3465  0.8299
18958TIP3   OH278288   4.093   3.779   5.997  0.0326  0.3592 -0.3092
18958TIP3    H178289   4.151   3.846   5.961 -0.6686  0.6331 -0.9454
18958TIP3    H278290   4.021   3.773   5.935 -0.6486  0.0530  0.4949
18959TIP3   OH278291   6.644   5.840   4.765 -0.0040  0.9582 -0.9412
18959TIP3    H178292   6.680   5.758   4.800  0.7025  0.2725 -3.1365
18959TIP3    H278293   6.676   5.907   4.825  0.6243 -0.2103  0.0813
18960TIP3   OH278294   5.471   0.471   2.940  0.1801 -0.3813  0.5141
18960TIP3    H178295   5.380   0.449   2.959  0.2714 -1.3134 -0.0863
18960TIP3    H278296   5.465   0.529   2.864  0.0569  0.0556  0.8533
18961TIP3   OH278297   1.016   5.857  10.942  0.1490 -0.6687 -0.1183
18961TIP3    H178298   1.048   5.930  10.890 -0.4076 -0.9602 -0.8867
18961TIP3    H278299   1.092   5.828  10.992 -0.4475  3.2496  3.7403
18962TIP3   OH278300   4.038   2.984   2.617 -0.1889 -0.5851  0.2613
18962TIP3    H178301   3.981   3.050   2.576  0.3168 -1.4438 -2.0129
18962TIP3    H278302   4.011   2.901   2.577  0.7090 -1.4389  1.3431
18963TIP3   OH278303   3.107   1.103  13.923  0.0562 -0.0203  0.2259
18963TIP3    H178304   3.067   1.148  13.849 -1.2648 -1.7269 -0.1785
18963TIP3    H278305   3.197   1.086  13.895 -0.2063  0.0388 -0.6938
18964TIP3   OH278306   0.254   2.419   1.438 -0.7204 -0.3435 -0.1774
18964TIP3    H178307   0.254   2.492   1.500 -0.2318 -0.5943  0.1237
18964TIP3    H278308   0.310   2.448   1.366  1.0888 -1.1442  0.8348
18965TIP3   OH278309   0.251   6.515  12.401  0.1179 -0.4232 -0.5609
18965TIP3    H178310   0.234   6.454  12.472  1.3892 -0.1597 -0.0070
18965TIP3    H278311   0.165   6.553  12.381 -0.4192 -1.2354  0.1449
18966TIP3   OH278312   4.103   5.612  15.583 -0.0884 -0.2374  0.1297
18966TIP3    H178313   4.095   5.636  15.490 -0.8233  1.3079  0.5585
18966TIP3    H278314   4.173   5.547  15.585 -0.1905 -0.4452 -1.5332
18967TIP3   OH278315   4.125   5.315   5.499 -0.0012 -0.1025 -0.1210
18967TIP3    H178316   4.131   5.328   5.594  0.7615 -1.3331  0.0187
18967TIP3    H278317   4.190   5.248   5.480  0.6741  0.9334 -1.7059
18968TIP3   OH278318   1.451   6.189   3.209  0.1710 -0.4742 -0.2409
18968TIP3    H178319   1.499   6.221   3.286  1.9752 -0.6984 -1.2204
18968TIP3    H278320   1.455   6.093   3.217 -1.1347 -0.5056  0.2481
18969TIP3   OH278321   6.361   4.517   3.657  0.7046  0.1169 -0.0828
18969TIP3    H178322   6.303   4.590   3.637  0.8618 -0.3169 -2.3566
18969TIP3    H278323   6.310   4.439   3.636  1.1950 -0.3700  0.4948
18970TIP3   OH278324   2.340   6.557   4.831 -0.0958  0.1933  0.2244
18970TIP3    H178325   2.399   6.547   4.757 -0.9451  3.0898 -0.9996
18970TIP3    H278326   2.270   6.494   4.814  0.3226 -0.0168 -0.8151
18971TIP3   OH278327   3.140   2.131  14.659  0.2506  0.1437 -0.1126
18971TIP3    H178328   3.136   2.125  14.755 -0.5355 -3.4677 -0.2257
18971TIP3    H278329   3.230   2.107  14.638 -0.1721 -1.3766 -0.2973
18972TIP3   OH278330   1.755   5.573  14.069 -0.1652  0.0344 -0.1815
18972TIP3    H178331   1.822   5.625  14.114 -0.6349  1.0893 -0.6752
18972TIP3    H278332   1.677   5.581  14.124  0.1490 -1.4139  0.5347
18973TIP3   OH278333   4.944   4.068   2.830  0.0705  0.4820  0.3513
18973TIP3    H178334   5.013   4.048   2.894  2.0707  1.8875 -1.2316
18973TIP3    H278335   4.906   3.982   2.808 -0.5134 -0.0629  3.1293
18974TIP3   OH278336   3.404   4.063   3.729 -0.3390 -0.1001  0.0543
18974TIP3    H178337   3.375   4.154   3.736  0.8559  0.2272  1.3255
18974TIP3    H278338   3.497   4.065   3.755 -0.4744 -1.7711  0.8308
18975TIP3   OH278339   6.019   2.147   4.668  0.0243  0.0267 -0.6940
18975TIP3    H178340   6.093   2.156   4.608  0.2826  1.1738 -0.2394
18975TIP3    H278341   5.995   2.055   4.664  0.4860 -0.0622 -2.0243
18976TIP3   OH278342   6.641   5.541   3.882  0.0819  0.3517 -0.4063
18976TIP3    H178343   6.552   5.565   3.857  0.1194  0.6427 -0.2738
18976TIP3    H278344   6.645   5.558   3.976 -0.7995 -3.0108  0.3532
18977TIP3   OH278345   4.758   3.420  11.299 -1.4204 -0.4376  0.1576
18977TIP3    H178346   4.801   3.496  11.261 -3.8234  0.1342 -1.6134
18977TIP3    H278347   4.801   3.345  11.258 -1.0253  0.0388 -0.3098
18978TIP3   OH278348   3.337   6.789   5.394  0.6384 -0.4067 -0.2648
18978TIP3    H178349   3.303   6.844   5.465 -1.2588 -2.2751  0.4136
18978TIP3    H278350   3.427   6.818   5.381  0.3120  1.5285  1.3294
18979TIP3   OH278351   1.523   1.525  13.769 -0.2672  0.1068 -0.0696
18979TIP3    H178352   1.558   1.608  13.736 -0.1846  1.4049  2.9167
18979TIP3    H278353   1.439   1.549  13.809  0.0087 -1.0955  1.3213
18980TIP3   OH278354   4.062   7.072   0.334  0.2621 -0.0742 -0.3099
18980TIP3    H178355   4.031   6.982   0.322 -0.5794  0.2880 -0.9086
18980TIP3    H278356   4.143   7.062   0.384  0.0139 -1.1436 -0.0863
18981TIP3   OH278357   1.821   0.991   2.398  0.9361  0.1563 -0.3753
18981TIP3    H178358   1.825   1.080   2.433  0.9663  0.7605 -1.8257
18981TIP3    H278359   1.805   1.003   2.304 -0.4211 -1.3930 -0.4010
18982TIP3   OH278360   6.997   5.618  13.567 -0.1440 -0.0116  0.2196
18982TIP3    H178361   6.949   5.698  13.586  0.2710 -0.3263  3.0371
18982TIP3    H278362   7.064   5.644  13.504 -0.4023  1.7100  0.6023
18983TIP3   OH278363   6.561   3.495   0.503 -0.2118 -0.0491 -0.7661
18983TIP3    H178364   6.491   3.555   0.530  1.6469  2.4451 -1.1457
18983TIP3    H278365   6.635   3.520   0.558  0.6781 -1.9704 -1.0397
18984TIP3   OH278366   3.837   5.021   4.295 -0.1702 -0.4091 -0.0707
18984TIP3    H178367   3.746   5.029   4.321 -0.0305  0.6163  0.1148
18984TIP3    H278368   3.877   4.969   4.364 -0.2402  0.6057  0.7514
18985TIP3   OH278369   5.367   5.525   3.525 -0.0972  0.1657 -0.3101
18985TIP3    H178370   5.405   5.499   3.609 -0.1819  1.3356  0.1086
18985TIP3    H278371   5.442   5.537   3.468 -0.0013 -0.0183 -0.2254
18986TIP3   OH278372   0.974   2.276   4.971  0.1795 -0.4243 -0.4569
18986TIP3    H178373   0.939   2.280   5.060  0.5887 -0.4971 -0.2922
18986TIP3    H278374   1.061   2.238   4.981  0.0753 -0.7990 -0.9302
18987TIP3   OH278375   5.249   5.396   0.064  0.4012 -0.4947 -0.8929
18987TIP3    H178376   5.201   5.458   0.010 -1.4693  0.1297  1.2794
18987TIP3    H278377   5.317   5.361   0.007 -0.2204  1.4938 -3.0064
18988TIP3   OH278378   3.320   0.563   4.846 -0.0543 -0.7066  0.1852
18988TIP3    H178379   3.334   0.472   4.821 -2.7669 -1.7109  1.8854
18988TIP3    H278380   3.273   0.602   4.773  2.0945 -0.2212 -1.0518
18989TIP3   OH278381   2.252   6.109   3.688 -0.0828  0.5478 -0.1753
18989TIP3    H178382   2.249   6.064   3.773  0.1734 -1.1101 -1.0126
18989TIP3    H278383   2.342   6.140   3.681 -0.0751  0.5963  0.1213
18990TIP3   OH278384   2.850   0.010   2.788  0.2929 -0.4052 -0.5202
18990TIP3    H178385   2.887   0.091   2.824  0.6774 -0.9491  0.3359
18990TIP3    H278386   2.760   0.008   2.822  0.8648 -1.2627  1.0511
18991TIP3   OH278387   0.497   6.109  15.384 -0.2931  0.2169 -0.1568
18991TIP3    H178388   0.503   6.021  15.420 -0.8223  1.1810  2.4957
18991TIP3    H278389   0.587   6.133  15.362  0.4829  0.3402  2.7063
18992TIP3   OH278390   1.450   3.347   4.665  0.1071  0.1475  0.3488
18992TIP3    H178391   1.446   3.443   4.659  0.8276  0.2299  1.0155
18992TIP3    H278392   1.371   3.323   4.715 -1.5883  0.1252 -2.1774
18993TIP3   OH278393   2.191   1.172   6.050  0.0000  0.0787 -0.2771
18993TIP3    H178394   2.198   1.257   6.005  0.1913  0.6464  0.7796
18993TIP3    H278395   2.269   1.168   6.105 -0.4349 -0.3910  0.3178
18994TIP3   OH278396   1.954   6.086   3.417  0.2130  0.1443  0.2034
18994TIP3    H178397   1.869   6.043   3.404  0.3021  0.1823 -0.5825
18994TIP3    H278398   1.956   6.155   3.350  1.1663 -0.3372 -0.2900
18995TIP3   OH278399   2.592   2.064  14.636 -0.1601  0.1467  0.6611
18995TIP3    H178400   2.643   2.012  14.698 -0.9485 -1.7331 -0.1930
18995TIP3    H278401   2.501   2.039  14.653 -0.6353  1.7851  0.6740
18996TIP3   OH278402   4.464   4.090  14.926 -0.1515  0.6218 -0.3541
18996TIP3    H178403   4.449   4.131  14.840 -0.8711  1.9718  0.3727
18996TIP3    H278404   4.503   4.160  14.979  2.9220 -0.9666 -0.3051
18997TIP3   OH278405   7.094   5.921  12.852 -0.2420  0.0068  0.4890
18997TIP3    H178406   7.089   5.855  12.783  0.2029  0.2533  0.2202
18997TIP3    H278407   7.013   5.909  12.902 -0.1915 -0.7076  0.4132
18998TIP3   OH278408   3.513   4.289   1.032  0.6271 -0.3006 -0.5484
18998TIP3    H178409   3.491   4.313   1.122  1.7507  0.6080 -0.4889
18998TIP3    H278410   3.440   4.234   1.003  0.1787 -0.4978  0.8651
18999TIP3   OH278411   4.352   4.886   0.470 -0.0632 -0.2155 -0.0201
18999TIP3    H178412   4.391   4.836   0.542 -1.1345 -0.3246  0.5016
18999TIP3    H278413   4.264   4.852   0.462 -0.1409  0.1930 -1.0216
19000TIP3   OH278414   6.926   1.714   2.875 -0.4743  0.3370 -0.1994
19000TIP3    H178415   7.021   1.716   2.864 -0.2938 -0.8065  0.9030
19000TIP3    H278416   6.892   1.701   2.787  0.3619  1.0282 -0.6434
19001TIP3   OH278417   1.222   4.051  12.510 -0.3838 -0.0352  1.0386
19001TIP3    H178418   1.294   4.040  12.572 -0.0851  0.2822  0.7503
19001TIP3    H278419   1.145   4.066  12.565 -0.4142 -1.3516  1.3820
19002TIP3   OH278420   4.710   6.024   5.320 -0.4079 -0.1507 -0.6851
19002TIP3    H178421   4.642   5.993   5.261 -0.0127  1.2490 -1.9336
19002TIP3    H278422   4.792   6.001   5.277 -0.1068  1.8100 -1.2735
19003TIP3   OH278423   6.951   5.458   4.863  0.4683 -0.0619 -0.1248
19003TIP3    H178424   7.038   5.426   4.837  1.2062 -0.6261  2.7380
19003TIP3    H278425   6.955   5.464   4.958 -2.6300 -0.0417  0.1006
19004TIP3   OH278426   2.610   0.765   4.997 -0.5381 -0.3849  0.4112
19004TIP3    H178427   2.669   0.691   5.012 -0.5460 -0.4307  0.2238
19004TIP3    H278428   2.616   0.817   5.077  0.0788 -0.1702  0.2386
19005TIP3   OH278429   4.402   3.379  14.533  1.5624  0.1659 -0.4863
19005TIP3    H178430   4.411   3.309  14.598  2.6935  0.4344 -0.3350
19005TIP3    H278431   4.396   3.460  14.585 -2.2524  0.0892 -0.5207
19006TIP3   OH278432   3.327   0.700   2.372  0.0080  0.3712 -0.2673
19006TIP3    H178433   3.299   0.768   2.311 -0.7867 -0.9235 -1.4042
19006TIP3    H278434   3.251   0.687   2.430  0.4109  0.9180  0.3998
19007TIP3   OH278435   3.943   2.434   4.941  0.0996  0.2834  0.0816
19007TIP3    H178436   4.021   2.488   4.958  0.3641 -0.1261  0.1910
19007TIP3    H278437   3.884   2.454   5.014  1.2451 -1.5023  1.5797
19008TIP3   OH278438   2.490   3.479   2.520 -0.0457  0.0238  0.4795
19008TIP3    H178439   2.427   3.486   2.591 -2.3703 -1.2692 -1.3166
19008TIP3    H278440   2.508   3.385   2.513  0.5111  0.1788 -0.3309
19009TIP3   OH278441   1.156   2.520  10.209 -0.2371  0.4310  0.4024
19009TIP3    H178442   1.105   2.536  10.129 -2.1354 -2.2254  0.9571
19009TIP3    H278443   1.246   2.541  10.185 -0.7721 -0.1397 -2.4021
19010TIP3   OH278444   2.678   4.702   4.049 -0.1547  0.4396  0.4919
19010TIP3    H178445   2.700   4.683   3.957 -1.5506 -1.0045  0.4116
19010TIP3    H278446   2.613   4.772   4.043 -1.5649 -0.8385  0.2263
19011TIP3   OH278447   1.239   2.185   5.074 -0.2651 -0.3649 -0.0151
19011TIP3    H178448   1.258   2.180   5.168  0.7899  1.2360 -0.0948
19011TIP3    H278449   1.282   2.107   5.037 -1.6280 -1.6124  0.9219
19012TIP3   OH278450   0.383   0.996  12.408  0.2180 -0.7099 -0.3480
19012TIP3    H178451   0.443   0.924  12.425  1.9705  0.3003 -1.9019
19012TIP3    H278452   0.404   1.062  12.474  0.6691 -0.4435 -0.7570
19013TIP3   OH278453   0.855   1.529   5.538  0.1219 -0.7629 -0.5328
19013TIP3    H178454   0.824   1.581   5.612 -1.5894  0.5878 -2.0971
19013TIP3    H278455   0.822   1.441   5.555 -1.1766 -0.2337 -0.1827
19014TIP3   OH278456   4.140   6.530   1.456  0.3775  0.0914  0.1614
19014TIP3    H178457   4.189   6.486   1.386  3.1790  1.5625  1.0243
19014TIP3    H278458   4.148   6.472   1.532 -0.8756 -0.5290 -0.1585
19015TIP3   OH278459   3.045   1.882   3.228 -0.0172 -0.3232  0.5141
19015TIP3    H178460   3.010   1.966   3.198  0.9589  0.3096  1.1110
19015TIP3    H278461   2.968   1.837   3.264 -0.5808  0.2358  0.0491
19016TIP3   OH278462   3.137   5.111  12.253  0.1067  0.5512  0.1642
19016TIP3    H178463   3.070   5.176  12.232  0.8059  0.9276 -0.9632
19016TIP3    H278464   3.087   5.035  12.283 -0.7086  1.7795  2.1783
19017TIP3   OH278465   4.011   3.565  15.252 -0.3899 -0.2329  0.2546
19017TIP3    H178466   3.980   3.491  15.304  0.3551  0.2607  1.4578
19017TIP3    H278467   3.935   3.593  15.201 -1.0978 -0.8445  0.9594
19018TIP3   OH278468   4.180   2.011   4.461 -0.1684 -0.0018 -0.3434
19018TIP3    H178469   4.267   2.017   4.501  0.5626  0.8395 -2.0087
19018TIP3    H278470   4.122   2.056   4.523  0.0657 -2.6633  2.0080
19019TIP3   OH278471   3.050   4.635   4.956 -0.1734 -0.5656 -0.1351
19019TIP3    H178472   3.086   4.682   5.032  1.0736 -1.4603 -0.1531
19019TIP3    H278473   3.097   4.552   4.955 -1.2780 -1.2064 -0.9990
19020TIP3   OH278474   5.743   1.135   1.777  0.1103 -0.3646 -0.3771
19020TIP3    H178475   5.760   1.052   1.732  2.2318  0.2876 -0.9194
19020TIP3    H278476   5.756   1.202   1.710  0.8299  0.5051  0.5975
19021TIP3   OH278477   5.764   0.111   0.116 -0.1394  0.0011 -0.7196
19021TIP3    H178478   5.766   0.023   0.153 -0.0120 -0.9192 -2.7718
19021TIP3    H278479   5.841   0.155   0.152  1.1520 -1.5401 -1.5080
19022TIP3   OH278480   3.471   6.058   3.141 -0.4402  0.1749  0.1922
19022TIP3    H178481   3.379   6.075   3.161 -0.2581  1.8143 -0.2078
19022TIP3    H278482   3.512   6.144   3.139  0.9797 -0.4658 -0.3113
19023TIP3   OH278483   1.601   0.950   2.760 -0.0963 -0.4494  0.5858
19023TIP3    H178484   1.629   0.866   2.723 -0.7082 -1.2487  1.8817
19023TIP3    H278485   1.668   0.972   2.823  0.4010  0.3879 -0.2132
19024TIP3   OH278486   5.455   3.858   4.211 -0.5590  0.4238 -0.7454
19024TIP3    H178487   5.515   3.932   4.200 -0.2835  0.3611  0.2191
19024TIP3    H278488   5.423   3.867   4.301  0.3597 -1.2563 -0.2186
19025TIP3   OH278489   2.128   3.238   1.365 -0.2124 -0.6868  0.0325
19025TIP3    H178490   2.078   3.316   1.391  1.2140  0.7000 -1.1897
19025TIP3    H278491   2.166   3.205   1.447 -0.2241  0.3446  0.4669
19026TIP3   OH278492   2.341   0.042  14.437  0.3985  0.0531  0.1359
19026TIP3    H178493   2.403   0.075  14.503 -1.4383  1.4957  1.2431
19026TIP3    H278494   2.321   0.119  14.383 -1.3770 -0.0290  0.6176
19027TIP3   OH278495   6.766   2.277   9.432  0.7226  0.2594  0.3256
19027TIP3    H178496   6.844   2.243   9.476  1.2699  1.6823  0.5037
19027TIP3    H278497   6.707   2.201   9.427  1.6893 -0.5879  1.1239
19028TIP3   OH278498   5.203   0.170   4.411  0.2872  0.2511 -0.1197
19028TIP3    H178499   5.269   0.158   4.342 -1.1495  1.5170 -1.8329
19028TIP3    H278500   5.194   0.265   4.419 -0.4702  0.1065  0.9314
19029TIP3   OH278501   3.671   3.639   2.399  0.6206  0.3241  0.2129
19029TIP3    H178502   3.593   3.585   2.382  0.8359  0.0987 -0.0905
19029TIP3    H278503   3.647   3.726   2.368  0.9072 -0.0211 -1.0483
19030TIP3   OH278504   3.552   4.834  15.478 -0.0407  0.1216 -0.5572
19030TIP3    H178505   3.639   4.804  15.505  1.2510  2.0825 -2.1710
19030TIP3    H278506   3.495   4.759  15.491  2.0692 -1.5217 -0.2584
19031TIP3   OH278507   6.312   1.451  10.284  0.2965  0.4245 -0.0265
19031TIP3    H178508   6.389   1.430  10.337  0.4991 -0.7234 -0.7538
19031TIP3    H278509   6.298   1.374  10.230 -1.8795  0.2552  0.6765
19032TIP3   OH278510   2.253   0.130   0.898 -0.2419  0.0484  0.0484
19032TIP3    H178511   2.316   0.072   0.942 -1.0442 -1.8397 -1.1639
19032TIP3    H278512   2.298   0.215   0.895  1.4487 -0.7494  0.9268
19033TIP3   OH278513   0.690   0.368   4.092 -0.1107  0.2056 -0.5989
19033TIP3    H178514   0.779   0.396   4.114 -0.7278  1.7431  0.0463
19033TIP3    H278515   0.643   0.449   4.072 -1.9183 -0.3441  1.1269
19034TIP3   OH278516   5.085   0.662  15.315 -0.2157  0.1356 -0.8656
19034TIP3    H178517   5.030   0.704  15.249 -2.7672  1.3955  1.8049
19034TIP3    H278518   5.030   0.594  15.353  0.5809  0.4194  0.9021
19035TIP3   OH278519   6.025   6.302   3.396  0.0287 -0.2099 -0.2201
19035TIP3    H178520   5.958   6.370   3.394  0.6105  0.4376  1.0855
19035TIP3    H278521   5.975   6.220   3.400 -0.6758  0.1303 -1.5051
19036TIP3   OH278522   2.945   2.287  10.967 -0.2857  0.0149 -0.2848
19036TIP3    H178523   3.038   2.309  10.957  0.1329 -2.0796 -1.5780
19036TIP3    H278524   2.899   2.349  10.910  0.3843  0.4067 -0.4106
19037TIP3   OH278525   4.939   5.755  15.264 -0.1187 -0.9300  0.0654
19037TIP3    H178526   4.993   5.718  15.194 -1.5879 -1.3460 -0.8873
19037TIP3    H278527   4.962   5.848  15.266  1.4179 -1.2940  0.4459
19038TIP3   OH278528   5.521   3.102   2.421 -0.2630  0.2686  0.6592
19038TIP3    H178529   5.519   3.185   2.373  1.9133  0.1166  0.1669
19038TIP3    H278530   5.558   3.125   2.506  1.7473 -0.3499  0.0054
19039TIP3   OH278531   4.642   4.510   0.976  0.1611 -0.5505  0.2757
19039TIP3    H178532   4.652   4.593   1.022  0.5186 -0.6086  0.3093
19039TIP3    H278533   4.681   4.525   0.890  3.0806 -1.5430  1.2918
19040TIP3   OH278534   3.549   3.748   4.362 -0.3424 -0.1349 -0.3227
19040TIP3    H178535   3.499   3.684   4.413 -0.1409 -0.5826 -0.6850
19040TIP3    H278536   3.596   3.696   4.297  0.0867  0.3506 -0.4043
19041TIP3   OH278537   0.092   7.125  11.423 -0.3070  0.1547  0.3573
19041TIP3    H178538   0.067   7.205  11.377  0.1280  0.3996  0.5418
19041TIP3    H278539   0.024   7.113  11.489  0.2786  1.0485  1.1383
19042TIP3   OH278540   1.894   1.922   4.266  0.1216  0.0716  0.4002
19042TIP3    H178541   1.823   1.955   4.321  0.6570  0.6318  0.7805
19042TIP3    H278542   1.971   1.972   4.295  0.6450 -0.4511 -0.0686
19043TIP3   OH278543   3.742   6.997   0.624  0.1226 -0.0941 -0.7206
19043TIP3    H178544   3.732   6.993   0.719 -0.4219 -1.6658 -0.8243
19043TIP3    H278545   3.782   6.913   0.601 -2.9929 -1.2801 -2.2321
19044TIP3   OH278546   5.431   3.344   5.000 -0.2606  0.8049  0.0875
19044TIP3    H178547   5.392   3.408   4.940  0.4021 -0.1784 -1.4236
19044TIP3    H278548   5.374   3.348   5.077 -2.1548  0.9210 -1.2259
19045TIP3   OH278549   4.547   0.386   5.301 -0.0035 -0.4634 -0.2228
19045TIP3    H178550   4.619   0.435   5.339 -1.4834  1.2677  0.5128
19045TIP3    H278551   4.535   0.424   5.214 -0.1106 -0.6565 -0.2946
19046TIP3   OH278552   3.196   1.091   3.213  0.0333  0.3343 -0.0368
19046TIP3    H178553   3.151   1.115   3.294  0.1400 -0.4950  0.2764
19046TIP3    H278554   3.237   1.007   3.232  2.1553  1.2702 -0.1218
19047TIP3   OH278555   2.944   4.889   0.000  1.3900 -0.5817 -0.1557
19047TIP3    H178556   2.874   4.826  -0.014  0.9659  0.0196 -0.8047
19047TIP3    H278557   2.982   4.903  -0.087  0.1263  1.5895 -0.4384
19048TIP3   OH278558   1.590   0.448   5.252  0.3633  0.4896  0.3161
19048TIP3    H178559   1.562   0.494   5.172  0.8945  0.0362 -0.1385
19048TIP3    H278560   1.516   0.391   5.274 -0.9943  2.6856  1.8115
19049TIP3   OH278561   2.834   1.678   1.919  0.2709 -0.2800  0.3625
19049TIP3    H178562   2.757   1.734   1.919  1.0077  0.8135 -0.9728
19049TIP3    H278563   2.864   1.679   1.828  2.7126  0.5928  1.0815
19050TIP3   OH278564   4.433   6.286   4.946 -0.3210 -0.2730  0.1626
19050TIP3    H178565   4.439   6.225   4.872  0.1141 -1.0517  0.8150
19050TIP3    H278566   4.515   6.272   4.993  1.5587  3.4430 -1.6242
19051TIP3   OH278567   6.001   2.404   4.807  0.2774 -0.0663  0.0864
19051TIP3    H178568   6.092   2.412   4.837 -0.0896  0.5000  1.1009
19051TIP3    H278569   6.005   2.338   4.737  1.5445  0.3328 -0.2499
19052TIP3   OH278570   1.921   4.801   3.951 -0.4776 -0.1805 -0.2942
19052TIP3    H178571   1.928   4.764   3.863  0.2378  0.2364 -0.4128
19052TIP3    H278572   1.836   4.845   3.952 -0.7731 -0.7368 -0.5637
19053TIP3   OH278573   5.649   1.169   1.400 -0.1034 -0.1021  0.2637
19053TIP3    H178574   5.732   1.166   1.448  0.5616  1.4444 -0.6903
19053TIP3    H278575   5.648   1.088   1.349  0.8748 -0.0943  0.2136
19054TIP3   OH278576   2.220   0.830   1.180  0.1317 -0.2194  0.5299
19054TIP3    H178577   2.142   0.847   1.127  0.6265 -0.4607 -0.2895
19054TIP3    H278578   2.211   0.740   1.208  0.3853 -0.4282 -0.0414
19055TIP3   OH278579   0.061   1.189   2.779 -0.3076  0.0807  0.3772
19055TIP3    H178580   0.057   1.149   2.865 -1.0121 -0.9882 -0.1238
19055TIP3    H278581   0.135   1.249   2.783  1.3092 -1.8581  0.9207
19056TIP3   OH278582   1.900   0.138  13.028 -0.5577  0.5739  0.9711
19056TIP3    H178583   1.927   0.082  12.955 -0.9620 -0.3722  1.5336
19056TIP3    H278584   1.981   0.181  13.055 -0.4674  1.2477 -0.2690
19057TIP3   OH278585   2.714   7.004   1.118 -0.5759  0.0571  0.2256
19057TIP3    H178586   2.751   6.939   1.058 -0.1315 -0.7705  1.3634
19057TIP3    H278587   2.789   7.032   1.171 -0.7586  1.5210 -0.2608
19058TIP3   OH278588   1.488   5.241   2.986 -0.4720 -0.3725 -0.1910
19058TIP3    H178589   1.574   5.250   3.026 -0.2609  0.7703 -0.8854
19058TIP3    H278590   1.487   5.152   2.950  0.8111 -0.0415 -1.1002
19059TIP3   OH278591   2.691   3.805  15.583 -0.0359  0.1818 -0.0865
19059TIP3    H178592   2.728   3.721  15.554 -0.7915 -0.2939  0.3213
19059TIP3    H278593   2.608   3.812  15.536  0.7892  1.5299 -1.4607
19060TIP3   OH278594   0.089   0.247   3.475 -0.3642 -0.1071  0.2679
19060TIP3    H178595   0.112   0.333   3.509 -0.3096  0.4955 -1.2177
19060TIP3    H278596   0.173   0.205   3.457 -0.3151  0.9013 -2.2442
19061TIP3   OH278597   5.084   4.290   3.185 -0.4493 -0.1516 -0.0265
19061TIP3    H178598   5.092   4.345   3.106 -2.2641  0.2109  0.0032
19061TIP3    H278599   5.093   4.352   3.258 -1.2889 -0.0534  0.0103
19062TIP3   OH278600   6.470   2.199   5.001  0.2616  0.4903  0.1566
19062TIP3    H178601   6.452   2.229   4.912 -0.4060 -0.3231  0.0074
19062TIP3    H278602   6.439   2.270   5.057  3.3172  2.3708 -0.2572
19063TIP3   OH278603   5.305   6.272  15.108 -0.0185  0.3551  0.0783
19063TIP3    H178604   5.335   6.222  15.032 -1.0891  0.0237 -0.1340
19063TIP3    H278605   5.291   6.361  15.075  1.1569  0.6494  0.2912
19064TIP3   OH278606   4.936   2.535   5.018  0.4128  0.7529 -0.5736
19064TIP3    H178607   5.012   2.573   4.974  2.5356 -0.2985  1.9380
19064TIP3    H278608   4.959   2.535   5.111 -2.1584 -0.7560  0.1590
19065TIP3   OH278609   6.609   3.660   5.935 -0.0005  0.0854 -0.0297
19065TIP3    H178610   6.585   3.593   5.999  0.1566  0.5697  0.5451
19065TIP3    H278611   6.554   3.736   5.957  1.2083  0.8172  0.5901
19066TIP3   OH278612   6.477   0.422   1.950  0.0937 -0.2299  0.0853
19066TIP3    H178613   6.517   0.400   2.034  0.3211 -0.4572 -0.0812
19066TIP3    H278614   6.517   0.505   1.925 -0.6542  0.3162  0.6416
19067TIP3   OH278615   3.306   1.963   0.489  0.1901  0.0600  0.0064
19067TIP3    H178616   3.344   1.903   0.553 -0.6753  0.9445  1.4412
19067TIP3    H278617   3.376   2.024   0.467 -0.1393  1.3513  2.2087
19068TIP3   OH278618   3.904   2.095   5.191 -0.4602  0.9700 -0.5683
19068TIP3    H178619   3.968   2.065   5.256  0.0500  3.6104  0.2404
19068TIP3    H278620   3.834   2.135   5.242 -1.8092 -0.0313 -1.5552
19069TIP3   OH278621   4.166   1.256   3.449  0.0010  0.2068  0.5231
19069TIP3    H178622   4.124   1.213   3.523 -0.6731  0.3426  0.2270
19069TIP3    H278623   4.203   1.337   3.486 -1.0835  0.7066  0.5518
19070TIP3   OH278624   3.101   4.060  15.465 -0.1259  0.5411 -0.2453
19070TIP3    H178625   3.166   4.049  15.535 -0.3705 -0.4056 -0.1531
19070TIP3    H278626   3.092   3.972  15.427  1.9791  1.4610 -3.2601
19071TIP3   OH278627   1.836   5.465  15.336  0.4106  0.1028 -0.8379
19071TIP3    H178628   1.887   5.391  15.304 -0.9898 -0.8317 -0.9804
19071TIP3    H278629   1.868   5.480  15.425  1.0945 -0.2988 -1.0143
19072TIP3   OH278630   5.509   3.833   1.461  0.4257 -0.1643  0.0688
19072TIP3    H178631   5.592   3.833   1.507  0.2175  0.9819  0.4883
19072TIP3    H278632   5.453   3.892   1.512 -0.7790 -1.2243  0.0288
19073TIP3   OH278633   6.840   1.719   0.690 -0.2767  0.1444 -0.1965
19073TIP3    H178634   6.812   1.766   0.769  0.8354 -1.6425  1.3188
19073TIP3    H278635   6.760   1.678   0.658 -0.2351 -1.9871  2.0752
19074TIP3   OH278636   0.960   2.301   0.106  0.4496  0.3645  0.3324
19074TIP3    H178637   1.054   2.290   0.090  0.2902 -0.7602  0.0356
19074TIP3    H278638   0.936   2.226   0.160 -0.4355  0.1459 -0.3295
19075TIP3   OH278639   3.120   1.755   1.839 -1.0060  0.4533 -0.5065
19075TIP3    H178640   3.109   1.660   1.841 -2.8573  0.6180 -1.2543
19075TIP3    H278641   3.031   1.790   1.843 -0.3406  2.1791  0.0745
19076TIP3   OH278642   4.694   1.478  14.891  0.1725  0.6183 -0.0830
19076TIP3    H178643   4.630   1.407  14.898 -1.7612  1.9953 -2.4655
19076TIP3    H278644   4.764   1.452  14.951 -0.8787 -2.7814 -0.0997
19077TIP3   OH278645   4.255   4.056  11.872 -0.3699  0.1032  0.1665
19077TIP3    H178646   4.269   3.976  11.821 -0.3715 -1.8052  2.9427
19077TIP3    H278647   4.341   4.098  11.874 -0.1087 -0.3851 -0.3865
19078TIP3   OH278648   0.317   6.036   5.309 -0.3314 -0.4491 -0.6464
19078TIP3    H178649   0.325   6.017   5.215 -0.4269 -0.6660 -0.6119
19078TIP3    H278650   0.223   6.046   5.324 -0.4258 -1.6642 -0.3422
19079TIP3   OH278651   5.459   4.562   4.033  0.8578 -0.7653  0.2695
19079TIP3    H178652   5.394   4.563   4.104  0.0135 -0.7224 -0.4802
19079TIP3    H278653   5.541   4.539   4.076  0.1691 -1.7716  1.1148
19080TIP3   OH278654   6.749   3.455   4.398  0.0255  0.2957 -0.1811
19080TIP3    H178655   6.844   3.458   4.390 -0.1256  0.5173 -2.7942
19080TIP3    H278656   6.722   3.386   4.338 -1.4705 -0.0854  0.8714
19081TIP3   OH278657   2.335   1.529   4.936  0.2526 -0.3833 -0.1595
19081TIP3    H178658   2.267   1.597   4.941 -0.1160 -0.6212 -1.6106
19081TIP3    H278659   2.406   1.564   4.989 -1.0554 -0.2268  1.5977
19082TIP3   OH278660   2.271   4.316  12.699 -0.0340 -0.6649  0.2652
19082TIP3    H178661   2.350   4.307  12.752  0.3449  1.4300  0.1587
19082TIP3    H278662   2.303   4.333  12.610 -0.5083  1.3487  0.4216
19083TIP3   OH278663   4.174   2.566   5.001 -0.6167  0.5458 -0.2559
19083TIP3    H178664   4.211   2.519   5.076  0.2732 -1.0332 -1.6208
19083TIP3    H278665   4.144   2.649   5.037 -2.1599 -0.9788  2.2736
19084TIP3   OH278666   6.442   4.124   2.282  0.4551  0.0534 -0.7656
19084TIP3    H178667   6.400   4.059   2.225  0.3132  0.7705 -1.4885
19084TIP3    H278668   6.471   4.193   2.223 -0.4365  1.2169  0.1108
19085TIP3   OH278669   2.951   3.847   1.153 -0.0950 -0.0866 -0.4921
19085TIP3    H178670   2.958   3.771   1.212  2.1181  1.0642  0.9078
19085TIP3    H278671   2.865   3.838   1.112 -1.7345 -1.0796  2.8036
19086TIP3   OH278672   6.902   6.323  11.772 -0.5138 -0.0383  0.0274
19086TIP3    H178673   6.980   6.371  11.801 -1.4902  2.1558 -0.7254
19086TIP3    H278674   6.847   6.316  11.850 -1.7285  3.0038 -0.4150
19087TIP3   OH278675   6.369   0.845   2.698 -0.9202 -0.0107 -0.2110
19087TIP3    H178676   6.401   0.787   2.628 -0.6882 -0.4371  0.2345
19087TIP3    H278677   6.426   0.825   2.772 -1.1159  0.4906  0.0776
19088TIP3   OH278678   5.576   5.117   2.043  0.0354 -0.4556 -0.5759
19088TIP3    H178679   5.496   5.163   2.071 -1.4214 -1.3536 -2.9808
19088TIP3    H278680   5.605   5.071   2.122 -2.2000 -0.5991  0.2532
19089TIP3   OH278681   0.006   1.840  13.396  0.3666 -0.1733  0.2187
19089TIP3    H178682  -0.089   1.834  13.388  0.3795 -0.4955  0.2904
19089TIP3    H278683   0.026   1.933  13.382 -0.0251  0.0107  0.8487
19090TIP3   OH278684   5.153   2.011   3.699 -0.3559  0.3159  0.5911
19090TIP3    H178685   5.217   1.963   3.751 -0.6901 -0.4197  0.3349
19090TIP3    H278686   5.098   1.943   3.660  0.3952  0.7797 -1.4085
19091TIP3   OH278687   4.670   4.281  13.391  0.4899  0.8428 -0.3392
19091TIP3    H178688   4.643   4.320  13.474 -0.5204 -0.1952 -0.1579
19091TIP3    H278689   4.760   4.311  13.378  0.1727  2.1706  0.4136
19092TIP3   OH278690   0.439   5.164   3.459 -0.3138  0.2144  0.0063
19092TIP3    H178691   0.439   5.257   3.483  1.2148  0.7873 -1.8951
19092TIP3    H278692   0.351   5.148   3.425  0.4744  2.2087 -3.5272
19093TIP3   OH278693   7.061   0.130   0.038 -0.5276  0.4478 -0.7385
19093TIP3    H178694   7.153   0.102   0.036 -0.2822  1.1989 -0.4816
19093TIP3    H278695   7.017   0.075  -0.027  0.1296  0.1795 -0.9630
19094TIP3   OH278696   4.703   1.718  10.774 -0.4831  0.7160 -0.4104
19094TIP3    H178697   4.746   1.778  10.713 -1.1376  1.5107 -0.1027
19094TIP3    H278698   4.775   1.669  10.814  0.1799  2.1465  0.2195
19095TIP3   OH278699   4.154   2.673   1.821  0.7424 -0.1056 -0.2849
19095TIP3    H178700   4.094   2.645   1.752  0.9093  0.4719 -0.6670
19095TIP3    H278701   4.103   2.735   1.873  0.5339 -0.7282  0.2710
19096TIP3   OH278702   1.041   4.844   1.858 -0.2364  0.1328  0.0670
19096TIP3    H178703   0.958   4.836   1.810  0.5173  0.9543 -1.4375
19096TIP3    H278704   1.019   4.894   1.936 -1.8416 -2.6531  1.5848
19097TIP3   OH278705   5.018   4.207   3.693  0.0680  0.2431  0.2040
19097TIP3    H178706   4.943   4.155   3.722  1.4436 -1.7591  0.3198
19097TIP3    H278707   4.986   4.254   3.616 -1.7887  0.8009  1.2499
19098TIP3   OH278708   3.025   3.873   4.698 -0.5154 -0.5425 -0.0929
19098TIP3    H178709   2.957   3.938   4.718 -0.6699 -1.0243  0.9993
19098TIP3    H278710   3.107   3.920   4.711 -0.6165  0.1419 -1.7502
19099TIP3   OH278711   6.669   3.985   3.266 -0.2773  0.0146 -0.2936
19099TIP3    H178712   6.675   3.999   3.361  0.7797 -0.6070 -0.2449
19099TIP3    H278713   6.665   3.890   3.257  0.1767  0.0470 -0.8894
19100TIP3   OH278714   4.667   2.340   1.643 -0.6358 -0.3488 -0.3034
19100TIP3    H178715   4.727   2.302   1.578  0.0317  2.0827 -1.1883
19100TIP3    H278716   4.581   2.339   1.600 -0.2751  0.8489 -1.0896
19101TIP3   OH278717   4.924   2.108  10.940 -0.1975  0.7234  0.0856
19101TIP3    H178718   4.979   2.113  10.861  0.3472  1.4109  0.4935
19101TIP3    H278719   4.943   2.189  10.987 -1.6201  1.0095  0.2077
19102TIP3   OH278720   2.571   3.475   1.270 -0.1480  0.4607  0.1930
19102TIP3    H178721   2.489   3.523   1.285  0.8450  2.0818  0.6249
19102TIP3    H278722   2.589   3.488   1.177 -2.0783 -2.7850 -0.8050
19103TIP3   OH278723   4.085   2.243   4.283  0.4051 -0.5856  0.4976
19103TIP3    H178724   4.071   2.336   4.298 -0.0509 -0.3529 -1.1813
19103TIP3    H278725   4.158   2.220   4.340  0.7444  0.8698  0.6871
19104TIP3   OH278726   4.210   6.230   1.486 -0.3756  1.0072 -0.0840
19104TIP3    H178727   4.157   6.263   1.414  0.2368  1.1255 -0.4923
19104TIP3    H278728   4.186   6.284   1.561  0.2537  2.0520 -0.6281
19105TIP3   OH278729   2.880   1.731   4.313 -0.2670  0.0993 -0.3172
19105TIP3    H178730   2.865   1.796   4.244  0.9847  0.7374 -0.0119
19105TIP3    H278731   2.911   1.653   4.267 -1.3689 -0.1698 -0.6438
19106TIP3   OH278732   5.349   2.115   4.315 -0.1238  0.3806 -0.3549
19106TIP3    H178733   5.392   2.064   4.384 -0.6513 -0.1666 -0.4275
19106TIP3    H278734   5.281   2.058   4.282 -0.3679  0.9335 -0.8157
19107TIP3   OH278735   4.754   4.319   4.085  0.0794 -0.6450  0.5183
19107TIP3    H178736   4.796   4.397   4.122 -0.2302  0.3222 -1.0645
19107TIP3    H278737   4.690   4.293   4.151  0.3265  0.3224  1.1677
19108TIP3   OH278738   2.141   0.476   5.486 -0.1171  0.3489  0.4155
19108TIP3    H178739   2.048   0.459   5.495  0.0566 -1.3396 -0.5999
19108TIP3    H278740   2.171   0.494   5.576 -1.3184  0.4890  0.8034
19109TIP3   OH278741   1.270   0.644  13.723 -0.3509  0.3148  0.7085
19109TIP3    H178742   1.312   0.718  13.679  0.6048 -0.2582  0.6595
19109TIP3    H278743   1.186   0.635  13.678  0.4137  0.0202 -0.7076
19110TIP3   OH278744   4.641   2.481   0.993  0.4404  0.1720 -0.3343
19110TIP3    H178745   4.726   2.523   0.983 -0.2157  1.8363  0.6666
19110TIP3    H278746   4.656   2.412   1.058  0.9373  0.8241  0.2631
19111TIP3   OH278747   5.553   5.725   4.440  0.7107 -0.0937 -0.1864
19111TIP3    H178748   5.598   5.694   4.362  2.9188 -0.0203  0.9931
19111TIP3    H278749   5.535   5.817   4.422 -0.6163 -0.5468 -1.3639
19112TIP3   OH278750   5.478   1.896   0.128 -0.2340 -0.7327  0.4449
19112TIP3    H178751   5.385   1.874   0.125 -0.4412 -0.0136  1.1722
19112TIP3    H278752   5.480   1.989   0.105  0.4559 -1.0829 -1.0239
19113TIP3   OH278753   1.848   4.755  12.122 -0.8060  0.4853 -0.5297
19113TIP3    H178754   1.921   4.781  12.179 -0.6617  0.9876 -0.9400
19113TIP3    H278755   1.864   4.800  12.039 -2.7683  2.4899  0.0660
19114TIP3   OH278756   4.431   0.156   1.421 -0.5291  0.0784  0.2510
19114TIP3    H178757   4.445   0.244   1.454  0.9035 -0.1560  0.3555
19114TIP3    H278758   4.414   0.103   1.499  0.0884  0.0146  0.3491
19115TIP3   OH278759   0.616   0.401   3.785  0.4800 -0.3003  0.4733
19115TIP3    H178760   0.675   0.357   3.846  1.8275 -2.6404 -2.2907
19115TIP3    H278761   0.560   0.331   3.751 -1.4733  1.2558  0.3184
19116TIP3   OH278762   2.932   3.484   0.031 -0.3989 -0.4866  0.3303
19116TIP3    H178763   3.008   3.538   0.013  0.0976 -0.6336  1.8099
19116TIP3    H278764   2.964   3.418   0.093 -1.0047 -2.4234 -1.3255
19117TIP3   OH278765   5.713   4.721  15.590 -0.1679 -0.4645  0.3857
19117TIP3    H178766   5.628   4.692  15.623 -1.5095  0.3420 -2.0793
19117TIP3    H278767   5.738   4.793  15.648 -0.8492 -1.1047  1.5143
19118TIP3   OH278768   3.347   5.857   0.818 -0.2916 -0.4049  0.3528
19118TIP3    H178769   3.326   5.786   0.757 -0.7106 -1.7242  1.9785
19118TIP3    H278770   3.442   5.851   0.830 -0.0029  0.6842 -1.1054
19119TIP3   OH278771   4.914   7.076  10.060 -0.1825 -0.1706  0.3656
19119TIP3    H178772   4.945   7.155  10.104 -0.1559  0.5174 -0.8604
19119TIP3    H278773   4.820   7.090  10.049 -0.7089 -1.4878  2.4833
19120TIP3   OH278774   0.838   5.229   5.971 -0.4918  0.5948  0.2287
19120TIP3    H178775   0.912   5.170   5.962 -0.2333  0.9414  0.0530
19120TIP3    H278776   0.867   5.294   6.035 -1.1228 -0.0002  1.1461
19121TIP3   OH278777   4.629   3.741   3.414  0.0919  0.4120  0.3425
19121TIP3    H178778   4.579   3.661   3.402  1.0280 -0.1746  0.2460
19121TIP3    H278779   4.659   3.765   3.327 -0.1866  0.8807  0.3688
19122TIP3   OH278780   3.844   1.515   5.752 -0.2881  0.0697 -0.4511
19122TIP3    H178781   3.855   1.450   5.821 -0.3244  1.9617  1.4032
19122TIP3    H278782   3.753   1.504   5.723  0.1234 -1.6462 -1.2205
19123TIP3   OH278783   4.894   5.857   3.475  0.1400 -0.0607  0.0895
19123TIP3    H178784   4.824   5.792   3.477  0.3458 -0.3977 -1.7444
19123TIP3    H278785   4.974   5.808   3.494  0.1775 -0.1489 -0.3009
19124TIP3   OH278786   2.221   6.162   4.261 -0.0470 -0.1255 -0.2005
19124TIP3    H178787   2.167   6.199   4.191 -1.1424  1.6038  1.4956
19124TIP3    H278788   2.159   6.139   4.330  1.0255 -1.6669  0.3077
19125TIP3   OH278789   2.728   3.650   4.865  0.4332 -0.3365  0.3482
19125TIP3    H178790   2.704   3.731   4.911  0.5151 -0.3761  0.4606
19125TIP3    H278791   2.648   3.598   4.867  0.7758 -0.8546  1.5414
19126TIP3   OH278792   3.211   4.320   0.377 -0.7614 -0.2906 -0.0367
19126TIP3    H178793   3.254   4.399   0.344 -1.7137  0.2064 -0.1211
19126TIP3    H278794   3.225   4.321   0.471  1.1748 -1.2289 -0.2588
19127TIP3   OH278795   2.465   1.224  15.244 -0.0652  0.2637 -0.1367
19127TIP3    H178796   2.550   1.182  15.260 -0.2061 -0.2770 -0.7602
19127TIP3    H278797   2.452   1.216  15.150 -0.8412  0.2837 -0.0374
19128TIP3   OH278798   6.812   5.707   0.967 -0.0097  0.2474 -0.5512
19128TIP3    H178799   6.731   5.657   0.958 -1.2930  1.9207  0.8748
19128TIP3    H278800   6.826   5.745   0.880 -1.3767  0.7757 -0.5693
19129TIP3   OH278801   1.156   3.181   0.496 -0.1795 -0.3082 -0.2289
19129TIP3    H178802   1.086   3.115   0.496 -0.5473 -0.1914 -4.1819
19129TIP3    H278803   1.233   3.135   0.464 -0.2914  0.9209 -2.4941
19130TIP3   OH278804   5.183   1.344   3.778 -0.1675 -0.5895 -0.1745
19130TIP3    H178805   5.178   1.271   3.840  0.5573 -0.2534  0.2986
19130TIP3    H278806   5.092   1.367   3.761 -0.4310  0.6801  2.4151
19131TIP3   OH278807   1.171   1.971  13.374  0.6104  0.0193 -0.0009
19131TIP3    H178808   1.202   2.058  13.347  0.7605  0.1267  0.5230
19131TIP3    H278809   1.083   1.988  13.408  1.1046  0.1536  1.2398
19132TIP3   OH278810   5.967   1.251  15.572 -0.0443  0.1011 -0.3483
19132TIP3    H178811   6.013   1.227  15.651 -0.4490 -0.2127 -0.2071
19132TIP3    H278812   5.957   1.346  15.578 -0.9459 -0.0256  0.4628
19133TIP3   OH278813   4.910   3.857   4.575 -0.0374 -0.1835 -0.3326
19133TIP3    H178814   4.824   3.869   4.614 -0.0770 -0.5677 -0.2919
19133TIP3    H278815   4.958   3.805   4.640  0.4715  0.6467 -0.0205
19134TIP3   OH278816   0.869   5.842   3.140  0.0826  0.1962 -0.1736
19134TIP3    H178817   0.948   5.894   3.130  0.0083  0.0622 -1.8250
19134TIP3    H278818   0.896   5.766   3.192  0.5727  1.0363  0.8390
19135TIP3   OH278819   1.816   5.436  12.010  0.6588  0.0913  0.0929
19135TIP3    H178820   1.884   5.393  12.063  0.8295  0.8046  0.4574
19135TIP3    H278821   1.795   5.516  12.058  1.1317  0.9821 -1.1513
19136TIP3   OH278822   1.381   6.793   5.119 -0.2337 -0.2649 -0.6858
19136TIP3    H178823   1.386   6.888   5.125 -0.5795 -0.1009 -2.4517
19136TIP3    H278824   1.314   6.768   5.183  2.0426  0.3034  2.1119
19137TIP3   OH278825   6.881   5.468   5.459 -0.0846 -0.6379  0.0744
19137TIP3    H178826   6.831   5.498   5.383 -1.8530  2.0801  2.1304
19137TIP3    H278827   6.923   5.547   5.492 -1.0843 -1.2588  3.0997
19138TIP3   OH278828   3.023   1.317  11.213  0.0822  0.2262  0.3176
19138TIP3    H178829   3.090   1.258  11.247  0.7289 -0.8260 -2.5368
19138TIP3    H278830   2.949   1.307  11.274  0.9968 -1.7955  1.1885
19139TIP3   OH278831   6.576   2.363   3.953 -0.1589  0.3319 -0.3233
19139TIP3    H178832   6.532   2.398   4.030  1.5024  1.5134  0.1542
19139TIP3    H278833   6.572   2.268   3.965 -0.0838  0.4869  1.1609
19140TIP3   OH278834   0.482   5.240  14.822  0.0910  0.0394 -0.0394
19140TIP3    H178835   0.473   5.153  14.862  0.3336  0.0273 -0.0141
19140TIP3    H278836   0.458   5.301  14.892 -0.2945 -0.0124 -0.1215
19141TIP3   OH278837   5.372   2.008   1.581 -0.6282  0.0912 -0.4552
19141TIP3    H178838   5.383   1.920   1.619 -0.9263  0.2531  0.0069
19141TIP3    H278839   5.404   2.067   1.649  2.1077  0.2425 -1.7689
19142TIP3   OH278840   0.653   1.083   3.125 -0.8884  0.0319 -0.3904
19142TIP3    H178841   0.649   0.989   3.110  1.3291 -0.0501 -0.7506
19142TIP3    H278842   0.595   1.120   3.059 -1.1418 -1.0243 -0.7851
19143TIP3   OH278843   4.874   0.837   3.039  1.0697 -0.5154  0.0189
19143TIP3    H178844   4.944   0.844   2.975  0.8709 -1.7369 -0.3743
19143TIP3    H278845   4.798   0.875   2.996  0.8144 -1.7847 -0.7064
19144TIP3   OH278846   2.053   4.695   5.829  0.9278  0.5779  0.4517
19144TIP3    H178847   1.962   4.723   5.825  0.5663 -0.6358 -0.3644
19144TIP3    H278848   2.065   4.667   5.920  0.4341  0.5478  0.5127
19145TIP3   OH278849   4.320   4.417   1.612 -0.0052 -0.4352  0.6562
19145TIP3    H178850   4.250   4.377   1.559  0.8807 -0.3958 -0.5949
19145TIP3    H278851   4.372   4.343   1.643 -0.1895 -0.4228  1.0008
19146TIP3   OH278852   4.178   5.472  10.958 -0.5413 -0.1549 -0.4278
19146TIP3    H178853   4.127   5.393  10.940 -0.5380 -1.2686  3.4838
19146TIP3    H278854   4.116   5.532  11.000  0.0240  0.9714 -1.1615
19147TIP3   OH278855   6.803   0.934   1.117  0.0259 -0.6209 -0.2203
19147TIP3    H178856   6.745   0.977   1.054  0.3130 -0.9013 -0.6830
19147TIP3    H278857   6.862   1.004   1.146  0.2836 -0.6213 -0.7246
19148TIP3   OH278858   6.986   3.624  11.425 -0.0057 -0.4052 -0.0684
19148TIP3    H178859   6.940   3.554  11.470 -0.0248 -0.4416 -0.1439
19148TIP3    H278860   6.919   3.689  11.405 -0.1129 -0.6761 -0.6032
19149TIP3   OH278861   2.806   1.097   4.121  0.0295  0.2287  0.2793
19149TIP3    H178862   2.839   1.061   4.203 -1.4197  0.9491  1.2347
19149TIP3    H278863   2.883   1.135   4.079  0.5494  1.4906  2.1984
19150TIP3   OH278864   6.768   2.203   3.197  0.7717  0.0076 -0.1069
19150TIP3    H178865   6.797   2.166   3.280  0.5181 -1.7775 -0.7716
19150TIP3    H278866   6.676   2.178   3.190  0.4370  1.2321 -0.3647
19151TIP3   OH278867   7.104   3.987   2.616 -0.1236 -0.3172 -0.2100
19151TIP3    H178868   7.033   3.932   2.648 -0.6681  0.5132  0.0115
19151TIP3    H278869   7.183   3.950   2.657 -0.4609 -1.0332 -0.1972
19152TIP3   OH278870   6.312   5.162   1.035 -0.2744  0.2555 -0.2518
19152TIP3    H178871   6.395   5.153   1.082  0.2124  1.6217 -0.8074
19152TIP3    H278872   6.277   5.073   1.032  0.4835 -0.1298  1.2144
19153TIP3   OH278873   1.304   4.134  14.457  0.1535 -0.0295  0.4465
19153TIP3    H178874   1.257   4.075  14.399  2.2977 -1.5227  0.0668
19153TIP3    H278875   1.292   4.096  14.545 -0.2955  0.2513  0.5043
19154TIP3   OH278876   0.619   5.157   0.248 -0.0253 -0.2043  0.1574
19154TIP3    H178877   0.569   5.096   0.303 -0.3252  0.6240  0.8151
19154TIP3    H278878   0.631   5.234   0.303  2.3183 -0.5163  0.1565
19155TIP3   OH278879   5.867   6.433   0.028  0.6625 -0.0351 -0.4130
19155TIP3    H178880   5.864   6.356   0.085 -0.4705 -0.1152 -0.5562
19155TIP3    H278881   5.780   6.472   0.035  1.0077  0.8448 -0.8785
19156TIP3   OH278882   4.765   4.259   0.323 -0.3918  0.5226  0.1145
19156TIP3    H178883   4.765   4.331   0.386 -0.4344  0.3084  0.3625
19156TIP3    H278884   4.847   4.268   0.275 -0.0275  0.2705  0.6806
19157TIP3   OH278885   6.949   4.407   5.522 -0.1654  0.7986  0.0832
19157TIP3    H178886   6.965   4.319   5.556  1.9209  1.6172  1.4216
19157TIP3    H278887   6.983   4.465   5.589 -0.4090  2.6112 -1.2933
19158TIP3   OH278888   4.015   2.372  15.059 -0.0206  0.0646 -0.1731
19158TIP3    H178889   4.084   2.431  15.030 -1.5622  0.5555 -3.2107
19158TIP3    H278890   3.935   2.425  15.056 -1.1815 -1.6442 -1.2098
19159TIP3   OH278891   1.527   5.806   0.229 -0.2103  0.1150  0.4057
19159TIP3    H178892   1.575   5.846   0.302 -1.3195 -1.1049  1.8665
19159TIP3    H278893   1.512   5.716   0.257  0.8371 -0.9255 -2.1088
19160TIP3   OH278894   6.441   0.876   5.750 -0.0175  0.1777  0.0946
19160TIP3    H178895   6.502   0.919   5.810  0.9584  0.0877 -0.8010
19160TIP3    H278896   6.492   0.863   5.670 -0.8714 -0.9628 -0.2787
19161TIP3   OH278897   0.332   6.716  10.441 -0.1805 -0.5885 -0.6745
19161TIP3    H178898   0.407   6.720  10.500 -0.9336 -2.3580  0.4599
19161TIP3    H278899   0.280   6.794  10.463  1.3312  0.7571 -1.5990
19162TIP3   OH278900   0.093   1.491  13.359  0.3542  0.8104 -0.1498
19162TIP3    H178901   0.173   1.482  13.411  0.0558  1.4570  0.4361
19162TIP3    H278902   0.120   1.537  13.280  0.3326  2.2619  0.6587
19163TIP3   OH278903   4.441   6.544  11.552 -0.2469 -0.0141  0.4941
19163TIP3    H178904   4.369   6.571  11.495  0.7065  0.4585 -0.5135
19163TIP3    H278905   4.438   6.606  11.625 -0.7658  0.0873  0.3952
19164TIP3   OH278906   7.126   4.443   0.150 -0.6077 -0.4896  0.7344
19164TIP3    H178907   7.150   4.354   0.125  2.0495  0.2122  0.4630
19164TIP3    H278908   7.109   4.438   0.244  1.5905 -0.9670  1.1527
19165TIP3   OH278909   5.785   2.235   2.702  0.3156 -1.1369  0.4299
19165TIP3    H178910   5.746   2.220   2.788 -0.8736 -2.8836 -0.3661
19165TIP3    H278911   5.719   2.284   2.654  1.0292 -0.0564  0.5234
19166TIP3   OH278912   3.529   6.160   5.330 -0.2170 -0.0039  0.3666
19166TIP3    H178913   3.534   6.202   5.415 -1.8503  1.0346 -0.0111
19166TIP3    H278914   3.525   6.066   5.350 -1.5093  0.2636  1.4967
19167TIP3   OH278915   6.876   6.771   1.266 -0.2569  0.2451  0.0982
19167TIP3    H178916   6.850   6.814   1.348  0.7837  0.5402  0.2814
19167TIP3    H278917   6.793   6.747   1.225 -0.8214 -1.2824  1.9413
19168TIP3   OH278918   3.453   6.809   0.689  0.1050 -0.0923  0.1005
19168TIP3    H178919   3.402   6.803   0.770  2.3533  0.0005  1.6264
19168TIP3    H278920   3.468   6.903   0.677  0.6562 -0.1612  0.1983
19169TIP3   OH278921   4.719   2.556   3.710  0.4495 -0.1882 -0.0107
19169TIP3    H178922   4.793   2.602   3.748  2.3972 -2.6100 -0.5942
19169TIP3    H278923   4.735   2.558   3.616 -1.4375  1.1042 -0.3557
19170TIP3   OH278924   2.805   4.395   1.049 -0.4008 -0.0919 -0.7257
19170TIP3    H178925   2.855   4.453   0.991  0.5852 -0.1871  0.0137
19170TIP3    H278926   2.773   4.452   1.118 -0.2132 -0.2636 -0.4966
19171TIP3   OH278927   4.305   5.690   4.220 -0.3202  0.3829 -0.0292
19171TIP3    H178928   4.242   5.671   4.151 -0.4989  0.5471  0.0874
19171TIP3    H278929   4.355   5.764   4.187  0.0752  0.0037 -0.2907
19172TIP3   OH278930   2.509   3.453   1.610 -0.2175 -0.5166 -0.0814
19172TIP3    H178931   2.454   3.496   1.676 -0.4836 -1.2391  0.1835
19172TIP3    H278932   2.454   3.451   1.531 -0.4643 -0.9668  0.0974
19173TIP3   OH278933   5.944   0.270   0.298  0.1711  0.0222  0.0193
19173TIP3    H178934   5.973   0.287   0.388  1.0210 -1.2112  0.0015
19173TIP3    H278935   5.969   0.179   0.281 -0.0176  0.2147 -1.4438
19174TIP3   OH278936   5.750   6.148   4.260 -0.4970 -0.4465  0.3578
19174TIP3    H178937   5.789   6.201   4.329 -0.7630  0.0741  0.1096
19174TIP3    H278938   5.822   6.096   4.226 -0.1612  0.0201  0.3550
19175TIP3   OH278939   5.127   4.978  10.287  0.0133 -0.3952 -0.5871
19175TIP3    H178940   5.106   4.931  10.368 -0.7684  0.0412 -0.5237
19175TIP3    H278941   5.057   4.953  10.227 -1.0681  1.5134 -0.2053
19176TIP3   OH278942   3.392   1.651   1.792  0.0305 -0.0540  0.1685
19176TIP3    H178943   3.412   1.670   1.883  0.9863 -0.9194  0.1525
19176TIP3    H278944   3.297   1.666   1.785  0.0192  0.4552  1.1728
19177TIP3   OH278945   5.267   4.518   5.763  0.0193  0.2718 -0.4196
19177TIP3    H178946   5.323   4.450   5.798  0.2771 -0.5695 -2.3602
19177TIP3    H278947   5.321   4.597   5.762  1.1279 -0.4570 -1.9612
19178TIP3   OH278948   6.664   2.714   0.250 -0.0029  0.8133  0.4846
19178TIP3    H178949   6.731   2.659   0.210 -1.4907 -0.3441 -0.5779
19178TIP3    H278950   6.646   2.782   0.185  0.1334  1.1168  0.7623
19179TIP3   OH278951   6.194   4.451   4.305  0.0405 -0.1496 -0.5224
19179TIP3    H178952   6.193   4.416   4.216  0.7146  2.3901 -1.6012
19179TIP3    H278953   6.241   4.385   4.356 -0.0112 -1.4715 -2.1046
19180TIP3   OH278954   5.755   0.146   2.051 -0.0160  0.1704  0.1513
19180TIP3    H178955   5.836   0.096   2.059  0.2411  0.0679 -2.3129
19180TIP3    H278956   5.714   0.113   1.970 -1.1220  2.1126 -0.1407
19181TIP3   OH278957   5.982   2.789   3.727  0.6792  0.3992  0.3173
19181TIP3    H178958   6.020   2.872   3.757 -0.6315  0.6596  1.3888
19181TIP3    H278959   5.923   2.814   3.656  0.4005  0.3806  0.5388
19182TIP3   OH278960   5.685   0.548   5.515  0.9659 -0.2386  0.0415
19182TIP3    H178961   5.663   0.641   5.526  0.7799 -0.0722 -1.5648
19182TIP3    H278962   5.760   0.547   5.456  1.9486 -1.0720  1.2423
19183TIP3   OH278963   0.928   1.014  12.852 -0.2594 -0.5442 -0.3081
19183TIP3    H178964   0.972   1.096  12.875 -0.7746 -1.0832  3.0235
19183TIP3    H278965   0.982   0.946  12.891 -1.3131 -1.5880 -0.6247
19184TIP3   OH278966   0.362   0.904  10.039  0.4245  0.2998  0.1336
19184TIP3    H178967   0.324   0.849   9.971  0.2107 -1.0547  1.2853
19184TIP3    H278968   0.456   0.907  10.019  0.1755  1.0819 -0.9775
19185TIP3   OH278969   5.820   5.023   3.988  0.6467 -0.1228 -0.0201
19185TIP3    H178970   5.771   4.957   3.939 -0.7519  0.6264  0.3104
19185TIP3    H278971   5.880   4.972   4.043  0.5557 -1.0495 -0.7525
19186TIP3   OH278972   4.852   0.817  14.275  0.0214  0.3223 -0.5720
19186TIP3    H178973   4.832   0.723  14.282 -3.4587  0.9200 -0.6671
19186TIP3    H278974   4.875   0.843  14.365 -0.1822 -0.3867 -0.3024
19187TIP3   OH278975   4.225   3.063   5.717 -0.3476 -0.2286 -0.0973
19187TIP3    H178976   4.254   3.154   5.708 -1.4174  0.1546  0.2170
19187TIP3    H278977   4.165   3.049   5.644  1.5024 -1.3980 -1.4707
19188TIP3   OH278978   5.886   3.955   4.113 -0.2714  0.1759 -0.1587
19188TIP3    H178979   5.936   4.026   4.154  0.9458 -0.4717 -0.4535
19188TIP3    H278980   5.879   3.888   4.182  0.3338 -0.2271 -0.4740
19189TIP3   OH278981   0.781   0.549   5.560 -0.0006 -0.5209 -0.1347
19189TIP3    H178982   0.836   0.627   5.552  0.2198 -0.7273 -0.6649
19189TIP3    H278983   0.824   0.496   5.626 -0.0786 -0.2539  0.1326
19190TIP3   OH278984   0.707   1.312   4.636  0.0775 -0.5797 -0.0218
19190TIP3    H178985   0.668   1.399   4.637 -1.3542 -1.1951  1.6882
19190TIP3    H278986   0.672   1.271   4.556 -1.8627 -0.6839  0.8389
19191TIP3   OH278987   7.027   4.174   4.537 -0.1459  0.1415  0.3289
19191TIP3    H178988   7.004   4.264   4.558  0.9356  0.8827 -1.4015
19191TIP3    H278989   7.096   4.181   4.471  1.5527 -1.9587  1.7347
19192TIP3   OH278990   4.455   4.282   4.990 -1.1070  0.1167 -0.2133
19192TIP3    H178991   4.379   4.332   4.962 -2.1823 -0.2361  1.8898
19192TIP3    H278992   4.493   4.334   5.061  1.0271  0.5837 -1.5971
19193TIP3   OH278993   2.178   1.679  14.496 -0.1908  0.0554 -0.8386
19193TIP3    H178994   2.141   1.612  14.439  0.5287 -1.3207  0.2590
19193TIP3    H278995   2.269   1.687  14.468  0.3008 -0.9638  0.3442
19194TIP3   OH278996   2.196   3.187   0.796  0.3300 -0.8925 -0.0479
19194TIP3    H178997   2.139   3.256   0.831 -1.8693 -2.8565  0.5296
19194TIP3    H278998   2.170   3.179   0.704  0.5726 -0.9344 -0.1120
19195TIP3   OH278999   6.337   4.979   2.991  0.2430  0.1481  0.0701
19195TIP3    H179000   6.367   5.001   2.902  1.1943 -1.4094 -0.0347
19195TIP3    H279001   6.401   4.915   3.023 -1.4914 -1.2914  0.8812
19196TIP3   OH279002   1.089   4.052   5.920  0.0644  0.4179  0.5026
19196TIP3    H179003   1.101   3.984   5.987  0.7341  1.5422  1.5524
19196TIP3    H279004   1.008   4.027   5.875 -0.5108 -0.2462  1.8611
19197TIP3   OH279005   2.594   4.267   1.913  0.6404 -0.2444 -0.1360
19197TIP3    H179006   2.525   4.234   1.971  0.4822 -2.3139 -1.3940
19197TIP3    H279007   2.650   4.320   1.969 -1.0374  0.1145  1.2760
19198TIP3   OH279008   5.754   3.256   4.138  0.1006  0.4191 -0.0378
19198TIP3    H179009   5.812   3.332   4.134  2.4757 -0.9658  3.2477
19198TIP3    H279010   5.763   3.215   4.052  2.7392  1.2560 -0.2696
19199TIP3   OH279011   1.831   2.267   2.329 -0.0440 -0.2143 -0.7427
19199TIP3    H179012   1.864   2.186   2.290 -1.2571 -1.0385 -0.0992
19199TIP3    H279013   1.901   2.296   2.387  1.2995  0.3906 -2.5626
19200TIP3   OH279014   1.372   7.049   2.038  0.1700 -0.3605 -0.1113
19200TIP3    H179015   1.320   6.968   2.043  0.1680 -0.2854  1.9176
19200TIP3    H279016   1.334   7.105   2.106  1.6533  0.4616  0.0636
19201TIP3   OH279017   3.917   5.882   1.817  0.0033  0.2362 -0.4395
19201TIP3    H179018   3.831   5.922   1.806 -0.2283 -0.3372 -0.7420
19201TIP3    H279019   3.971   5.918   1.747 -0.1712  0.1167 -0.6357
19202TIP3   OH279020   2.879   4.497   2.535  0.1068 -0.0614 -0.2269
19202TIP3    H179021   2.957   4.493   2.480  0.0884  0.8237 -0.3205
19202TIP3    H279022   2.913   4.517   2.623 -0.1143  1.8355 -0.5440
19203TIP3   OH279023   4.794   5.314   0.996 -0.2316 -0.0747 -0.1019
19203TIP3    H179024   4.872   5.259   0.993  1.6100  2.3142  0.0703
19203TIP3    H279025   4.748   5.296   0.914  1.9499  0.2966 -1.4953
19204TIP3   OH279026   1.859   4.423   5.049  0.5785 -0.6997 -0.6808
19204TIP3    H179027   1.787   4.482   5.071  0.5474 -0.6314 -0.9620
19204TIP3    H279028   1.930   4.448   5.108  0.4794 -0.5513 -0.6250
19205TIP3   OH279029   2.996   6.775  15.062 -0.0287 -0.2901  0.1905
19205TIP3    H179030   2.982   6.780  14.968  0.6477  0.3837  0.1154
19205TIP3    H279031   2.915   6.736  15.096 -0.0675 -1.0343 -0.7092
19206TIP3   OH279032   1.127   1.245   3.974  0.2102 -0.5616  0.5709
19206TIP3    H179033   1.035   1.237   3.999 -0.4369  0.1192 -1.4422
19206TIP3    H279034   1.139   1.178   3.907  0.9137 -0.0090  0.1364
19207TIP3   OH279035   4.046   5.485   0.210 -0.5649 -0.1084  0.3772
19207TIP3    H179036   4.043   5.520   0.121 -0.1830 -0.1097  0.3611
19207TIP3    H279037   3.956   5.455   0.227 -0.8735  0.7943  0.3666
19208TIP3   OH279038   6.224   1.710   3.079  0.1039 -0.0963  0.2828
19208TIP3    H179039   6.189   1.622   3.064  0.4971 -0.2436  0.2263
19208TIP3    H279040   6.180   1.764   3.013 -0.4464 -0.1686  0.5831
19209TIP3   OH279041   0.037   3.183   3.134  0.1032  0.3047 -0.2811
19209TIP3    H179042   0.023   3.194   3.039 -1.8033  0.1005 -0.0534
19209TIP3    H279043   0.049   3.089   3.146  0.3369  0.3297 -0.3155
19210TIP3   OH279044   5.855   1.193   2.640  0.3293 -0.1118  0.3972
19210TIP3    H179045   5.900   1.252   2.700 -0.6900  0.2075  0.8593
19210TIP3    H279046   5.794   1.250   2.592 -0.5004 -0.7390  0.6862
19211TIP3   OH279047   3.783   5.581  13.243 -0.2225  0.0032 -0.2952
19211TIP3    H179048   3.854   5.623  13.293  1.1951 -0.1649 -2.0655
19211TIP3    H279049   3.803   5.488  13.247 -1.1730 -0.1760  0.3903
19212TIP3   OH279050   5.901   1.557   0.877 -0.6063  0.0501  0.1939
19212TIP3    H179051   5.916   1.567   0.971  0.7927 -1.5401  0.1699
19212TIP3    H279052   5.824   1.501   0.871  0.3305 -1.2891  0.4272
19213TIP3   OH279053   3.969   0.076   4.797 -0.0299  0.6534  0.0047
19213TIP3    H179054   3.979   0.155   4.851 -0.6182  0.9464 -0.3067
19213TIP3    H279055   4.059   0.045   4.783  0.3220  2.0337 -0.9912
19214TIP3   OH279056   3.596   6.266   1.174  0.4171 -0.2170  0.4055
19214TIP3    H179057   3.505   6.282   1.149  0.6115 -0.1366 -0.2707
19214TIP3    H279058   3.596   6.178   1.212  0.5961 -1.6283 -2.5778
19215TIP3   OH279059   5.748   4.703   0.861 -0.4038  0.0346 -0.8455
19215TIP3    H179060   5.659   4.683   0.890 -0.1916 -0.1860 -0.3242
19215TIP3    H279061   5.743   4.702   0.765 -1.6111  2.9724 -0.9081
19216TIP3   OH279062   6.275   4.041   2.840  0.0097 -0.7255 -0.4855
19216TIP3    H179063   6.197   4.041   2.896 -0.0651 -1.4786 -0.5786
19216TIP3    H279064   6.282   3.950   2.810  0.9680 -0.6747 -0.4220
19217TIP3   OH279065   3.464   1.451   2.742 -0.2318 -0.5162 -0.3718
19217TIP3    H179066   3.535   1.390   2.759 -0.0030 -0.7529 -1.9632
19217TIP3    H279067   3.387   1.411   2.782  0.2350 -1.0016  0.0472
19218TIP3   OH279068   2.870   6.160   4.045 -0.6108  0.2536 -0.2381
19218TIP3    H179069   2.885   6.080   4.096  1.8860  0.6111 -0.2645
19218TIP3    H279070   2.912   6.229   4.097  0.9677  0.8247 -2.1711
19219TIP3   OH279071   3.261   4.739   4.156 -0.2256 -0.2184 -0.4250
19219TIP3    H179072   3.185   4.723   4.213  1.9275 -0.3219  2.6526
19219TIP3    H279073   3.255   4.832   4.135 -1.0836 -0.1647 -0.0165
19220TIP3   OH279074   0.175   1.903  12.608 -0.1208  0.1950  0.0582
19220TIP3    H179075   0.200   1.928  12.519  1.7133  0.2653  0.5507
19220TIP3    H279076   0.190   1.982  12.660  2.3314 -0.7986  1.0179
19221TIP3   OH279077   3.491   3.420  12.669  0.0360  0.4763 -0.1743
19221TIP3    H179078   3.421   3.356  12.679  0.8177 -0.2934  0.5064
19221TIP3    H279079   3.470   3.466  12.587  0.3339 -1.7539 -1.5851
19222TIP3   OH279080   2.309   6.443   3.583 -0.1615 -0.6663 -0.4478
19222TIP3    H179081   2.233   6.386   3.571  0.3024 -1.5662  0.6298
19222TIP3    H279082   2.329   6.437   3.677  0.3746  0.6861 -0.4498
19223TIP3   OH279083   3.947   4.490  15.208  0.5033  0.8197 -0.6477
19223TIP3    H179084   3.901   4.453  15.133  0.3990  0.1130 -0.2408
19223TIP3    H279085   4.026   4.530  15.170  1.2438 -0.8761 -0.9777
19224TIP3   OH279086   0.386   7.108   5.290  0.3380  0.2238  0.0325
19224TIP3    H179087   0.315   7.124   5.352  1.2332  0.7934  0.9414
19224TIP3    H279088   0.432   7.192   5.285  0.6850 -0.0110 -0.9016
19225TIP3   OH279089   3.888   6.017   0.922 -0.2258 -0.6061 -0.3162
19225TIP3    H179090   3.890   6.043   0.830 -1.5751 -0.9354 -0.4596
19225TIP3    H279091   3.871   6.098   0.970 -1.1668 -0.6875 -0.4998
19226TIP3   OH279092   3.861   5.291   3.801 -0.1098 -0.1906 -0.7823
19226TIP3    H179093   3.849   5.237   3.880  2.3930  0.6300  0.2383
19226TIP3    H279094   3.858   5.381   3.832 -1.2277  0.2497 -2.0265
19227TIP3   OH279095   0.211   2.354   1.922 -0.1855  0.0283  0.2202
19227TIP3    H179096   0.155   2.420   1.963  1.2627  0.4673  1.5886
19227TIP3    H279097   0.237   2.296   1.993  0.2250 -0.8176 -0.5870
19228TIP3   OH279098   0.768   4.564  14.689 -0.2320 -0.2318  0.0301
19228TIP3    H179099   0.717   4.547  14.610 -1.3366 -1.0946  0.9037
19228TIP3    H279100   0.758   4.485  14.742  0.4365  0.3578  1.0776
19229TIP3   OH279101   1.020   1.148  11.930 -0.3925 -0.1991  0.1646
19229TIP3    H179102   1.071   1.102  11.997 -0.1834  0.0484  0.1807
19229TIP3    H279103   1.060   1.121  11.848 -1.8399 -1.9693 -0.0023
19230TIP3   OH279104   6.405   1.159   3.863 -0.1997 -0.1866  0.0449
19230TIP3    H179105   6.325   1.150   3.811 -2.1758  0.9756  2.6568
19230TIP3    H279106   6.423   1.071   3.896 -0.1846 -0.5062 -0.7764
19231TIP3   OH279107   1.989   5.419   0.566  0.1095 -0.6242 -0.6415
19231TIP3    H179108   1.915   5.368   0.599 -0.2733  0.2604 -0.1047
19231TIP3    H279109   2.064   5.388   0.617 -0.2986  0.0302  0.3893
19232TIP3   OH279110   0.181   1.106   0.519  0.2342  0.4315  0.3275
19232TIP3    H179111   0.266   1.123   0.559 -0.1199  0.9666  0.8854
19232TIP3    H279112   0.118   1.148   0.578 -0.3730  0.5434 -0.3829
19233TIP3   OH279113   2.573   3.561   2.166  0.0714  0.0610  0.4449
19233TIP3    H179114   2.647   3.620   2.182  0.6367 -1.1315  2.7178
19233TIP3    H279115   2.585   3.530   2.076  1.2280  1.3662  0.1190
19234TIP3   OH279116   6.649   1.883   0.084  0.0729 -0.3887  0.7023
19234TIP3    H179117   6.593   1.959   0.101  0.9540  0.1648  1.2067
19234TIP3    H279118   6.612   1.814   0.140  1.0536  0.5319  2.6000
19235TIP3   OH279119   1.595   3.555   4.880  0.1576 -0.0204  0.1084
19235TIP3    H179120   1.597   3.644   4.844 -0.3756 -0.0121  0.1036
19235TIP3    H279121   1.619   3.500   4.805  1.0747  0.1589  0.2562
19236TIP3   OH279122   1.393   5.427   3.270  0.3065 -0.0079 -0.4836
19236TIP3    H179123   1.359   5.511   3.300  2.4263  0.7329  0.0234
19236TIP3    H279124   1.355   5.415   3.183  2.4540  3.1691 -2.0742
19237TIP3   OH279125   5.986   6.486   1.830  0.2108 -1.4362 -0.1830
19237TIP3    H179126   5.931   6.410   1.808  0.3422 -1.0194 -2.1326
19237TIP3    H279127   6.058   6.449   1.881  1.6161 -3.1520 -3.0992
19238TIP3   OH279128   3.118   7.058   3.632  0.2908  0.0290 -0.1174
19238TIP3    H179129   3.080   7.061   3.720 -2.3804 -2.0539 -1.0653
19238TIP3    H279130   3.187   6.993   3.637  0.7761  0.5947  0.6380
19239TIP3   OH279131   6.963   4.955  11.361 -0.4675 -0.1732  0.1151
19239TIP3    H179132   6.992   5.014  11.430 -0.1141 -0.5139  0.2608
19239TIP3    H279133   7.044   4.920  11.323 -0.6703 -0.4996 -0.0238
19240TIP3   OH279134   4.296   5.923   2.554 -0.5139  0.3221  0.5393
19240TIP3    H179135   4.332   5.942   2.641  0.8285 -0.4564  0.1813
19240TIP3    H279136   4.204   5.905   2.570 -0.0704 -0.8836  1.9603
19241TIP3   OH279137   1.856   6.887   2.890  0.4781  0.5230 -0.3483
19241TIP3    H179138   1.844   6.916   2.800 -0.9262  0.2853 -0.2723
19241TIP3    H279139   1.928   6.824   2.886  1.3348  1.5123 -1.0563
19242TIP3   OH279140   5.706   5.529   1.277  0.3102  0.2369 -0.3724
19242TIP3    H179141   5.653   5.485   1.344  2.6331  0.9518  2.1345
19242TIP3    H279142   5.643   5.560   1.212 -2.2749  0.6498  2.1483
19243TIP3   OH279143   2.594   5.589   1.715 -0.1846 -0.2986 -0.2622
19243TIP3    H179144   2.678   5.548   1.737  0.7032  1.1228 -0.7999
19243TIP3    H279145   2.528   5.525   1.739  0.9447 -0.6735  2.0687
19244TIP3   OH279146   4.173   3.710  13.174 -0.1777 -0.2059 -0.4553
19244TIP3    H179147   4.217   3.625  13.179 -0.9119 -0.5658  0.1451
19244TIP3    H279148   4.081   3.688  13.156 -0.4214  0.4500 -0.0565
19245TIP3   OH279149   3.461   0.327  13.154  0.0877 -0.1144 -0.1178
19245TIP3    H179150   3.553   0.352  13.162  0.0943  0.0078 -0.5920
19245TIP3    H279151   3.458   0.237  13.186  0.4050 -0.1890 -0.2948
19246TIP3   OH279152   1.246   6.062  11.265 -0.3078 -0.0880 -0.0329
19246TIP3    H179153   1.331   6.019  11.265 -0.7679 -1.0336  0.3871
19246TIP3    H279154   1.186   5.997  11.227 -1.1338 -0.0833  1.2066
19247TIP3   OH279155   4.820   1.064   1.380 -0.3073  0.0409 -0.2509
19247TIP3    H179156   4.761   1.096   1.449 -1.4250 -0.6413 -0.8547
19247TIP3    H279157   4.773   1.083   1.299  1.3420  1.5796 -0.9202
19248TIP3   OH279158   5.110   4.133   0.565 -0.3229  0.2798  0.4997
19248TIP3    H179159   5.186   4.186   0.541  0.2240 -0.3929  0.7229
19248TIP3    H279160   5.043   4.197   0.590 -0.5126  0.9787 -1.5529
19249TIP3   OH279161   5.610   0.267   3.072  0.3304  0.0153 -0.0688
19249TIP3    H179162   5.610   0.290   3.165  1.8438  1.4169 -0.3665
19249TIP3    H279163   5.556   0.335   3.031 -1.0372 -1.0784 -0.1559
19250TIP3   OH279164   4.270   0.026  13.344  0.5856  0.2522 -0.3723
19250TIP3    H179165   4.277   0.120  13.355 -0.5866  0.0789  3.4908
19250TIP3    H279166   4.358  -0.007  13.364  0.5553  0.4302  0.0552
19251TIP3   OH279167   1.758   4.640   1.166  0.1045 -0.0537 -0.0266
19251TIP3    H179168   1.689   4.576   1.181 -0.6079  0.3817 -1.3136
19251TIP3    H279169   1.759   4.654   1.072  3.8355 -2.0774 -0.4813
19252TIP3   OH279170   2.825   5.083   4.457  0.0093  0.0565 -0.4887
19252TIP3    H179171   2.762   5.098   4.528 -1.1427  1.4059 -1.7425
19252TIP3    H279172   2.787   5.011   4.407  2.2646 -2.9535  1.7928
19253TIP3   OH279173   5.567   7.114   5.012 -0.2253  0.0798  0.1785
19253TIP3    H179174   5.622   7.040   5.039 -1.4021 -1.2806 -0.9867
19253TIP3    H279175   5.487   7.103   5.063 -0.4596  0.4886 -0.1044
19254TIP3   OH279176   3.310   0.336  12.846  0.1397  0.3158  0.6072
19254TIP3    H179177   3.383   0.311  12.789  0.2062 -2.8155  1.8577
19254TIP3    H279178   3.233   0.294  12.807  0.1189 -1.5277  2.4582
19255TIP3   OH279179   5.634   4.935   5.376  0.0658  0.5355  0.3462
19255TIP3    H179180   5.553   4.911   5.422  1.3420 -2.3160  1.3162
19255TIP3    H279181   5.689   4.975   5.443  0.3529  0.2446  0.2848
19256TIP3   OH279182   1.739   3.503  12.388 -0.3138 -0.0232 -0.1264
19256TIP3    H179183   1.782   3.510  12.303  1.7249  0.5983  0.9007
19256TIP3    H279184   1.709   3.592  12.406  0.4052  0.1228  0.3678
19257TIP3   OH279185   2.287   0.010   0.634  0.0316  0.3459 -0.1747
19257TIP3    H179186   2.198  -0.015   0.611  0.0889  0.2933 -0.3349
19257TIP3    H279187   2.279   0.043   0.724 -0.1827  0.5347 -0.2617
19258TIP3   OH279188   4.720   4.561  14.906 -0.3787 -0.3965 -0.1375
19258TIP3    H179189   4.789   4.515  14.858  0.5938 -0.7606  1.5394
19258TIP3    H279190   4.721   4.650  14.872  1.9576  0.0174  0.8699
19259TIP3   OH279191   6.959   4.640   0.059 -0.4077  0.1721  0.1994
19259TIP3    H179192   6.999   4.573   0.115 -1.6387  0.0609  0.9749
19259TIP3    H279193   6.877   4.662   0.102  1.1225  4.2202  1.4762
19260TIP3   OH279194   3.979   3.740   1.077  0.2051  0.5561  0.0344
19260TIP3    H179195   4.014   3.829   1.088  1.5512  0.1524 -0.7904
19260TIP3    H279196   4.055   3.686   1.056 -0.5111 -0.9087  1.0182
19261TIP3   OH279197   3.055   5.820   2.407 -0.1544  0.4926  0.7086
19261TIP3    H179198   2.965   5.840   2.380 -0.1410 -0.8946 -0.5185
19261TIP3    H279199   3.061   5.725   2.400  2.1376  0.7133 -1.6679
19262TIP3   OH279200   3.501   1.835   1.206  0.0686 -0.6069 -0.1300
19262TIP3    H179201   3.517   1.915   1.257  2.6536 -0.5282 -0.9084
19262TIP3    H279202   3.507   1.764   1.271  1.6498 -0.3870  0.0134
19263TIP3   OH279203   4.321   1.134   4.030  0.1884  0.3647  0.0517
19263TIP3    H179204   4.320   1.056   4.085  1.5680 -0.6951 -1.3328
19263TIP3    H279205   4.363   1.106   3.949 -1.4593  1.9409 -1.4433
19264TIP3   OH279206   4.930   0.364   5.363  0.1092 -0.3139 -0.1338
19264TIP3    H179207   4.974   0.355   5.448 -2.6641 -0.1959  1.4137
19264TIP3    H279208   4.993   0.411   5.309  2.6075 -1.7322  1.3105
19265TIP3   OH279209   1.532   4.146  14.307  0.1847 -0.0785  0.1979
19265TIP3    H179210   1.507   4.213  14.244  0.1157  2.4465  2.7273
19265TIP3    H279211   1.450   4.118  14.347  0.4946  0.8544  1.5211
19266TIP3   OH279212   4.724   1.584  11.767 -0.1288  0.5273 -0.2802
19266TIP3    H179213   4.748   1.544  11.684  0.3038 -0.1221  0.1506
19266TIP3    H279214   4.701   1.674  11.744  0.2433  0.4314 -1.0666
19267TIP3   OH279215   2.943   3.128   3.173 -0.3034 -0.2818  0.0865
19267TIP3    H179216   3.004   3.172   3.232  0.0006  2.4358 -2.0582
19267TIP3    H279217   2.857   3.156   3.202 -0.3739 -1.3789  1.0137
19268TIP3   OH279218   3.808   2.918   0.419 -0.0480  0.0192 -0.2781
19268TIP3    H179219   3.762   2.859   0.479 -0.4379 -2.1452 -2.5481
19268TIP3    H279220   3.737   2.964   0.372  0.2421  2.5322  1.5175
19269TIP3   OH279221   0.120   2.693  14.639  0.4723  0.0894 -0.3476
19269TIP3    H179222   0.197   2.740  14.607  0.8699 -1.8533 -2.5230
19269TIP3    H279223   0.085   2.749  14.708  2.7638  1.9231 -0.5349
19270TIP3   OH279224   4.596   0.946   1.649  0.2900  0.1274 -0.0427
19270TIP3    H179225   4.517   0.927   1.700  1.4164  1.0769  2.2256
19270TIP3    H279226   4.614   1.038   1.667  2.6981 -0.4177  0.7234
19271TIP3   OH279227   2.042   0.221   4.318  0.1438  0.5914  0.1402
19271TIP3    H179228   2.091   0.284   4.264  2.8640  0.1150  1.8795
19271TIP3    H279229   2.057   0.137   4.275 -0.9186  0.6834 -0.4502
19272TIP3   OH279230   4.821   1.246   4.248  0.1590  0.6914  0.5056
19272TIP3    H179231   4.744   1.202   4.214 -1.0922  2.0783  1.4022
19272TIP3    H279232   4.804   1.256   4.342  1.6148  0.6687  0.8061
19273TIP3   OH279233   0.657   2.593   3.706 -0.1153 -0.3770 -0.8664
19273TIP3    H179234   0.673   2.569   3.615 -2.9167  1.5224 -2.0052
19273TIP3    H279235   0.679   2.514   3.756  3.8503 -0.7597 -2.7770
19274TIP3   OH279236   4.800   6.951   1.781 -0.1473  0.1761 -0.3845
19274TIP3    H179237   4.768   6.998   1.704 -0.1299 -1.6035 -1.5368
19274TIP3    H279238   4.885   6.917   1.755  0.4823  0.6649  0.9242
19275TIP3   OH279239   1.553   6.719   0.740 -0.0728 -0.4011 -0.6477
19275TIP3    H179240   1.469   6.747   0.775  0.3274  0.7308 -0.5546
19275TIP3    H279241   1.589   6.660   0.806 -1.0891 -1.4479 -1.0060
19276TIP3   OH279242   4.849   1.802   2.847  0.0787  0.3355 -0.4366
19276TIP3    H179243   4.883   1.795   2.758 -1.1419 -0.0620 -0.8938
19276TIP3    H279244   4.796   1.882   2.846  0.2832  0.4789  0.0154
19277TIP3   OH279245   4.428   5.088   2.693  0.2390  0.0067  0.1438
19277TIP3    H179246   4.492   5.082   2.763  0.2523 -2.7728 -0.0059
19277TIP3    H279247   4.387   5.174   2.705  0.6863 -0.1144  3.1448
19278TIP3   OH279248   3.445   3.844   1.701 -0.4872  0.6637 -0.9704
19278TIP3    H179249   3.480   3.793   1.628  0.9207  0.3293 -0.1128
19278TIP3    H279250   3.352   3.824   1.702 -0.3113 -0.3188 -1.8845
19279TIP3   OH279251   3.886   4.181  14.368  0.3092 -0.2982  0.3779
19279TIP3    H179252   3.802   4.218  14.396  0.6113 -0.5736  1.7244
19279TIP3    H279253   3.889   4.095  14.410  1.0644 -0.4836 -0.0464
19280TIP3   OH279254   1.509   0.782   5.369  0.5300 -0.7418 -0.4907
19280TIP3    H179255   1.508   0.793   5.274  0.7544  2.1841 -0.2318
19280TIP3    H279256   1.595   0.743   5.387  1.5915  1.0724 -1.3389
19281TIP3   OH279257   2.294   0.554   5.754 -0.0322  0.7414  0.5222
19281TIP3    H179258   2.378   0.550   5.800 -0.8143  1.3910  2.0930
19281TIP3    H279259   2.278   0.647   5.740 -0.4000  0.6115  0.0445
19282TIP3   OH279260   1.892   5.925  14.059 -0.2100 -0.0975 -0.2673
19282TIP3    H179261   1.925   6.009  14.092 -0.5386 -0.0782  0.0214
19282TIP3    H279262   1.884   5.871  14.137 -0.6232 -0.1824 -0.3681
19283TIP3   OH279263   6.317   0.517  15.500  0.1927 -0.0464  0.5163
19283TIP3    H179264   6.318   0.567  15.418  2.2424  0.3675  0.7274
19283TIP3    H279265   6.235   0.542  15.542  0.8612  2.7837  0.3557
19284TIP3   OH279266   3.683   6.570   4.591 -0.2522  0.1578  0.0952
19284TIP3    H179267   3.694   6.493   4.535 -0.2547  0.0062  0.3014
19284TIP3    H279268   3.720   6.544   4.675 -1.5884 -0.1516  0.6184
19285TIP3   OH279269   5.610   6.178   3.424  0.3746 -0.2039 -0.1852
19285TIP3    H179270   5.597   6.210   3.335  1.5853 -0.0227 -0.3093
19285TIP3    H279271   5.521   6.166   3.458 -0.1201  1.5850 -0.7333
19286TIP3   OH279272   3.908   4.035  14.599 -0.2564  0.2764 -0.0694
19286TIP3    H179273   3.832   3.982  14.624 -0.6141  1.1072  0.6380
19286TIP3    H279274   3.982   3.973  14.603 -1.0579 -0.9402 -2.2913
19287TIP3   OH279275   4.288   4.458   3.161 -0.1132 -0.1756  0.0723
19287TIP3    H179276   4.355   4.407   3.116  0.7389 -0.8835  2.0245
19287TIP3    H279277   4.256   4.519   3.095 -0.4088 -2.4726 -2.0767
19288TIP3   OH279278   3.100   3.612  15.004 -0.1657  0.2757 -0.0956
19288TIP3    H179279   3.022   3.618  15.060 -0.4808  0.4591 -0.5473
19288TIP3    H279280   3.118   3.518  14.997 -1.3805  0.1087 -1.3854
19289TIP3   OH279281   1.690   4.262   5.328  0.2833  0.3148  0.4476
19289TIP3    H179282   1.688   4.193   5.262 -0.7490  0.9906 -0.2487
19289TIP3    H279283   1.782   4.266   5.356  0.2036 -1.9911  1.2302
19290TIP3   OH279284   0.719   6.433  13.946 -0.0234  0.4598 -0.9077
19290TIP3    H179285   0.760   6.357  13.988 -0.0892  0.8110 -0.1928
19290TIP3    H279286   0.646   6.456  14.004 -2.4854 -1.2868 -3.0885
19291TIP3   OH279287   2.283   5.118  15.620 -0.0794 -0.3573 -0.3110
19291TIP3    H179288   2.280   5.023  15.612 -0.6141 -0.4019  0.3197
19291TIP3    H279289   2.362   5.136  15.671 -0.7513 -0.5707  0.8420
19292TIP3   OH279290   5.987   2.400   5.830 -0.3639  0.2208 -0.0605
19292TIP3    H179291   5.912   2.455   5.808  0.2298  0.9842 -0.1768
19292TIP3    H279292   5.957   2.311   5.809 -1.1127  0.5482 -0.4367
19293TIP3   OH279293   2.247   3.750  13.174  0.5155  0.7713 -1.1194
19293TIP3    H179294   2.331   3.742  13.219 -0.6720  0.1063  1.1743
19293TIP3    H279295   2.193   3.801  13.234 -1.6975 -1.6056 -0.9074
19294TIP3   OH279296   5.955   7.024   3.460 -0.2893 -0.3841 -0.2299
19294TIP3    H179297   6.037   6.993   3.499  0.3407  0.4266 -0.8655
19294TIP3    H279298   5.922   6.948   3.411 -0.3242 -0.9487  0.6484
19295TIP3   OH279299   5.105   4.582   5.551 -0.6751 -0.1411 -0.1350
19295TIP3    H179300   5.016   4.578   5.585 -0.8837  0.4049 -0.5873
19295TIP3    H279301   5.161   4.559   5.625 -1.2319 -1.3738 -0.0765
19296TIP3   OH279302   0.011   6.445   2.107 -0.3219 -1.2300  0.3698
19296TIP3    H179303  -0.077   6.408   2.110 -0.8716  0.0503  2.3117
19296TIP3    H279304   0.026   6.464   2.014 -3.3691  1.2661  0.2002
19297TIP3   OH279305   6.467   1.096  11.636  0.7042  1.0710  0.0264
19297TIP3    H179306   6.546   1.042  11.640 -0.0539 -0.0267  0.8712
19297TIP3    H279307   6.418   1.062  11.561 -0.2390 -0.1346  1.1442
19298TIP3   OH279308   4.708   1.013   5.142  0.4272 -0.4141 -0.3910
19298TIP3    H179309   4.613   1.020   5.152  0.0757 -2.2210 -1.9334
19298TIP3    H279310   4.743   1.039   5.228 -1.4942 -0.6432  0.5157
19299TIP3   OH279311   1.940   0.196  12.660 -0.2077  0.0496 -0.1764
19299TIP3    H179312   1.858   0.235  12.630  0.1710  1.6398  0.7468
19299TIP3    H279313   1.914   0.110  12.694 -0.8442 -1.2606 -3.5755
19300TIP3   OH279314   2.253   4.633   4.207 -0.3547  0.1057 -0.2220
19300TIP3    H179315   2.301   4.557   4.237 -2.7925 -0.8296  1.6100
19300TIP3    H279316   2.241   4.687   4.285 -0.0800  1.6050 -1.1664
19301TIP3   OH279317   2.338   1.060   3.328  0.6161 -1.1576  0.0144
19301TIP3    H179318   2.402   0.990   3.343 -0.4272 -1.6859  2.4824
19301TIP3    H279319   2.350   1.120   3.402  0.4744  0.5252 -1.2695
19302TIP3   OH279320   6.222   6.492   3.210 -0.2570  0.1952 -0.1536
19302TIP3    H179321   6.228   6.404   3.246  1.7441 -0.0226 -0.9108
19302TIP3    H279322   6.136   6.524   3.238 -1.9091 -2.7048 -1.4756
19303TIP3   OH279323   4.366   2.596   2.745  0.6523  0.2916  0.8898
19303TIP3    H179324   4.331   2.588   2.834  0.5597 -1.3111  0.7294
19303TIP3    H279325   4.460   2.601   2.757  0.6901 -0.6634  1.0563
19304TIP3   OH279326   4.021   3.614   4.193 -0.0134  0.6197 -0.0865
19304TIP3    H179327   4.023   3.709   4.193  0.9890  0.6084  0.2153
19304TIP3    H279328   4.095   3.588   4.138 -1.8228 -0.0030 -2.4047
19305TIP3   OH279329   0.133   4.315  14.912 -0.1762  0.4837  0.3024
19305TIP3    H179330   0.194   4.366  14.966  0.0477  0.4807  0.0524
19305TIP3    H279331   0.053   4.312  14.964 -0.5395  1.9637 -0.1247
19306TIP3   OH279332   4.070   1.027   1.587 -0.0502 -0.5798 -0.0825
19306TIP3    H179333   4.089   0.934   1.576  0.2232 -0.5290 -0.0330
19306TIP3    H279334   3.998   1.029   1.650  0.6543 -0.7144  0.7509
19307TIP3   OH279335   3.446   5.894  14.887  0.4256  0.0990  0.1630
19307TIP3    H179336   3.364   5.872  14.931  0.2346 -0.9629 -0.6783
19307TIP3    H279337   3.511   5.837  14.928  0.3610 -0.4567 -0.4824
19308TIP3   OH279338   4.415   4.899  15.031  0.3178 -0.1031 -0.7459
19308TIP3    H179339   4.367   4.875  15.111 -1.6168  1.8817 -1.2131
19308TIP3    H279340   4.393   4.829  14.969 -0.1889 -0.3625 -0.2868
19309TIP3   OH279341   2.792   2.955   5.248 -0.3782 -1.0678  0.2609
19309TIP3    H179342   2.701   2.983   5.261 -0.4729 -1.0369 -0.4636
19309TIP3    H279343   2.800   2.877   5.303 -0.5535 -0.5190  1.0876
19310TIP3   OH279344   1.335   1.604   2.869  0.2465 -0.1727  0.0605
19310TIP3    H179345   1.352   1.655   2.791  0.2755  3.1071  2.0156
19310TIP3    H279346   1.418   1.602   2.916 -0.5358  0.9942  1.5990
19311TIP3   OH279347   3.652   2.580   0.490 -0.3707 -0.1893  0.2466
19311TIP3    H179348   3.718   2.617   0.431 -0.0997 -1.0432 -0.0064
19311TIP3    H279349   3.624   2.499   0.446 -1.4979  0.0894  0.4116
19312TIP3   OH279350   4.717   0.118   3.335  0.6938 -0.9772  0.0301
19312TIP3    H179351   4.666   0.172   3.275  2.4392  0.2168 -0.4457
19312TIP3    H279352   4.690   0.146   3.422 -1.5557 -2.4348 -0.0971
19313TIP3   OH279353   6.090   2.213  14.982 -0.3166  1.0092  0.2979
19313TIP3    H179354   6.145   2.260  15.046 -0.3107  0.9080  0.3673
19313TIP3    H279355   6.143   2.209  14.903  0.2835 -0.1719  0.7320
19314TIP3   OH279356   3.054   2.395  11.843 -0.1317  0.2511 -0.4905
19314TIP3    H179357   3.094   2.481  11.856  2.5382 -0.8778 -0.4555
19314TIP3    H279358   2.960   2.411  11.841  0.1395  2.8547  1.9273
19315TIP3   OH279359   5.666   3.040   3.391 -0.0549 -0.0627  0.1944
19315TIP3    H179360   5.579   3.069   3.363  0.1717  1.7684  1.1861
19315TIP3    H279361   5.704   3.118   3.432  1.8642 -0.9766  0.2233
19316TIP3   OH279362   2.283   5.072   4.026 -0.4987  0.3696  0.2706
19316TIP3    H179363   2.225   5.117   4.088 -0.1421  0.2781  0.6769
19316TIP3    H279364   2.247   4.984   4.020 -0.2206  0.2136  0.7774
19317TIP3   OH279365   3.707   5.673   2.245  0.1361 -0.2775 -0.5241
19317TIP3    H179366   3.692   5.594   2.193 -2.4615 -1.0727  1.1822
19317TIP3    H279367   3.795   5.662   2.281  0.2140 -1.9048 -1.1135
19318TIP3   OH279368   0.675   4.375   0.719  0.2075 -0.0140 -0.0905
19318TIP3    H179369   0.589   4.409   0.741 -0.2994 -0.2875 -1.4863
19318TIP3    H279370   0.683   4.294   0.770 -1.4295 -1.2782 -1.6906
19319TIP3   OH279371   2.245   3.805   1.232  0.2236  0.1236  0.0443
19319TIP3    H179372   2.306   3.842   1.168  1.7612  0.7692  1.7804
19319TIP3    H279373   2.263   3.711   1.229 -0.0661  0.0840 -0.7934
19320TIP3   OH279374   2.761   4.379   3.253 -0.2893  0.2356  0.1089
19320TIP3    H179375   2.854   4.391   3.273 -0.0224 -1.6008  0.2109
19320TIP3    H279376   2.738   4.452   3.195  0.8534  1.4678  1.1531
19321TIP3   OH279377   4.513   2.846   1.314  0.9720  0.1971  0.0411
19321TIP3    H179378   4.496   2.764   1.267  0.4395  0.4168 -0.1617
19321TIP3    H279379   4.512   2.913   1.246 -0.3210  0.5867  0.4097
19322TIP3   OH279380   2.172   0.465  12.161  0.3192 -0.7806 -0.1768
19322TIP3    H179381   2.204   0.390  12.111 -0.3077 -1.5813  0.5737
19322TIP3    H279382   2.215   0.457  12.246 -1.3193 -1.5430  0.6451
19323TIP3   OH279383   2.106   4.382   2.919 -0.2722  0.1923 -0.3423
19323TIP3    H179384   2.120   4.454   2.858 -1.4992  0.5012 -0.2902
19323TIP3    H279385   2.132   4.417   3.004  0.9539 -0.0735 -0.5863
19324TIP3   OH279386   2.799   3.007   1.026  0.7697  0.3401 -0.0397
19324TIP3    H179387   2.729   2.942   1.031  0.4975  0.6563  0.2854
19324TIP3    H279388   2.866   2.965   0.971  0.1232  0.2276 -0.7650
19325TIP3   OH279389   4.796   2.235   1.854 -0.1512 -0.3719  0.6636
19325TIP3    H179390   4.762   2.147   1.872  0.9228 -0.8035  0.6367
19325TIP3    H279391   4.743   2.267   1.780 -0.2382 -1.1857  0.3657
19326TIP3   OH279392   0.761   0.871  13.863 -0.0970  0.5221 -0.1674
19326TIP3    H179393   0.853   0.846  13.868 -0.4060 -0.6737 -0.1301
19326TIP3    H279394   0.733   0.841  13.776 -0.0548  2.4020 -0.8957
19327TIP3   OH279395   3.362   6.282   2.226 -0.0752 -0.2540 -0.0605
19327TIP3    H179396   3.383   6.189   2.230  1.7869  0.1380  0.3185
19327TIP3    H279397   3.396   6.311   2.141  0.3244  0.2870  0.2771
19328TIP3   OH279398   2.723   1.417   2.632  0.1906 -0.0458 -0.3723
19328TIP3    H179399   2.767   1.424   2.547  1.0976 -1.5608 -0.0693
19328TIP3    H279400   2.630   1.420   2.611  0.3811  2.1918 -1.1354
19329TIP3   OH279401   5.821   6.699   3.054 -0.0426  0.0437 -0.0273
19329TIP3    H179402   5.889   6.729   2.993  0.2679  0.9062  0.7284
19329TIP3    H279403   5.870   6.669   3.131 -0.4721 -0.1964  0.1496
19330TIP3   OH279404   5.418   3.265   3.917  0.8466  0.4753  0.7641
19330TIP3    H179405   5.426   3.170   3.925  2.1135  0.5260  0.3937
19330TIP3    H279406   5.508   3.296   3.904  0.2620  1.4793 -1.5929
19331TIP3   OH279407   3.914   1.143   0.767  0.4023  0.0774  0.4433
19331TIP3    H179408   3.860   1.074   0.804  0.8644 -2.0352 -2.4238
19331TIP3    H279409   3.852   1.203   0.724  0.1493 -0.6963 -0.2960
19332TIP3   OH279410   5.878   5.703   3.393 -0.2108  0.4241  0.5575
19332TIP3    H179411   5.946   5.766   3.368 -0.0515  0.5241  1.2073
19332TIP3    H279412   5.924   5.639   3.447 -0.4380 -0.0734  0.1647
19333TIP3   OH279413   2.715   2.254   1.295  0.3411 -0.6662  0.0242
19333TIP3    H179414   2.717   2.228   1.387 -0.2459  0.0301  0.2502
19333TIP3    H279415   2.670   2.183   1.251  0.7729 -1.0817  0.2514
19334TIP3   OH279416   2.078   1.912  10.421 -0.1887 -0.2956  0.2742
19334TIP3    H179417   2.146   1.956  10.370 -0.0134 -2.3170 -1.3615
19334TIP3    H279418   2.094   1.940  10.512  1.5175  0.8636 -0.3330
19335TIP3   OH279419   7.066   4.114   0.334  0.3239  0.6482 -0.2208
19335TIP3    H179420   7.132   4.077   0.276  0.3410 -0.2362  0.3357
19335TIP3    H279421   7.018   4.037   0.368  0.4327  1.1158  1.0658
19336TIP3   OH279422   6.726   6.844   2.011 -0.0159  0.6453 -0.3350
19336TIP3    H179423   6.692   6.925   1.973 -2.1695  0.2067  0.5130
19336TIP3    H279424   6.768   6.871   2.092  1.0717  1.1083 -1.0213
19337TIP3   OH279425   6.159   0.616   5.098 -0.0857  0.2400  0.6329
19337TIP3    H179426   6.174   0.555   5.026  0.5794  1.0327  0.0747
19337TIP3    H279427   6.175   0.564   5.177  0.0252 -0.4214  0.1893
19338TIP3   OH279428   1.614   3.935   0.810  0.0705  0.0688 -0.2554
19338TIP3    H179429   1.625   4.030   0.816  1.5231 -0.0871 -0.2722
19338TIP3    H279430   1.649   3.901   0.892  2.1362 -0.6253 -1.3551
19339TIP3   OH279431   4.784   0.274   2.520 -0.0550  0.3272  0.0211
19339TIP3    H179432   4.762   0.260   2.428  1.9206 -2.0915 -0.1925
19339TIP3    H279433   4.702   0.259   2.567 -0.6440 -0.4707 -1.2160
19340TIP3   OH279434   5.478   6.984   4.767  0.4213  0.2442 -0.0968
19340TIP3    H179435   5.396   7.032   4.759  1.5939  2.2436 -0.7437
19340TIP3    H279436   5.535   7.041   4.818  1.4397 -1.0900  0.3292
19341TIP3   OH279437   2.162   6.740   5.298  0.3771  0.4972 -0.2632
19341TIP3    H179438   2.199   6.693   5.373 -0.8027  0.8744  0.5891
19341TIP3    H279439   2.199   6.696   5.222  0.6505 -0.7007  0.5263
19342TIP3   OH279440   1.734   2.704   5.079  0.2139 -0.2221 -0.1855
19342TIP3    H179441   1.743   2.609   5.075 -2.6743 -0.5708 -0.5716
19342TIP3    H279442   1.653   2.723   5.031  1.8525  2.6952 -2.1596
19343TIP3   OH279443   4.695   3.363  13.630 -0.3661  0.1731 -0.1100
19343TIP3    H179444   4.700   3.416  13.551 -1.5146  0.3609 -0.0816
19343TIP3    H279445   4.785   3.339  13.650  0.1441  1.9095 -0.2495
19344TIP3   OH279446   0.758   0.519   1.090  0.3748 -0.0365  0.6318
19344TIP3    H179447   0.743   0.425   1.084 -1.0138  0.2243 -0.5225
19344TIP3    H279448   0.689   0.558   1.036  1.6854  1.5784  0.0194
19345TIP3   OH279449   6.338   3.990   0.772  0.1051 -0.2879 -0.7554
19345TIP3    H179450   6.249   3.990   0.807  0.5531  1.1113  0.5039
19345TIP3    H279451   6.385   3.925   0.824  0.1923  0.1141 -0.3222
19346TIP3   OH279452   4.702   6.506   2.481  0.6825  0.4533  0.6412
19346TIP3    H179453   4.633   6.539   2.422  0.2217  2.0831  2.0024
19346TIP3    H279454   4.706   6.571   2.551  4.1001  0.7754  0.2976
19347TIP3   OH279455   2.579   3.991   4.877 -0.0388 -0.5377 -0.1956
19347TIP3    H179456   2.635   4.006   4.953  1.3246 -2.0107 -0.8372
19347TIP3    H279457   2.491   3.978   4.913  0.3334  0.1729  0.9908
19348TIP3   OH279458   2.832   5.606  15.594 -0.0659 -0.0928 -0.2414
19348TIP3    H179459   2.746   5.589  15.631  0.4789  0.0516  1.1541
19348TIP3    H279460   2.876   5.521  15.595  0.2631  0.0818  0.2817
19349TIP3   OH279461   6.512   0.337   5.167 -0.3015  0.4068 -0.9650
19349TIP3    H179462   6.499   0.416   5.218 -0.0674  0.2248 -0.6172
19349TIP3    H279463   6.446   0.342   5.098 -2.1553 -0.4217  0.6367
19350TIP3   OH279464   0.538   2.825   4.491  0.2414 -0.0395  0.2111
19350TIP3    H179465   0.511   2.796   4.578 -1.3973 -0.9982 -0.5713
19350TIP3    H279466   0.609   2.765   4.466  0.0083 -0.4221  0.4674
19351TIP3   OH279467   5.079   3.607   2.359  0.3560  0.2112  0.1652
19351TIP3    H179468   5.135   3.583   2.433 -0.4160 -2.3270  0.0406
19351TIP3    H279469   5.140   3.616   2.286  1.2699  3.8497  1.1925
19352TIP3   OH279470   3.777   7.054  12.556 -0.4548  0.0116 -0.3558
19352TIP3    H179471   3.811   7.103  12.631 -0.6171 -0.8729  0.3059
19352TIP3    H279472   3.705   7.001  12.592 -0.2376 -0.7657 -1.0354
19353TIP3   OH279473   4.948   1.791   2.236  0.2157 -0.2791 -0.6972
19353TIP3    H179474   4.866   1.840   2.243  0.5040  0.3045 -1.3660
19353TIP3    H279475   4.927   1.716   2.181 -0.1092 -0.6651 -0.0590
19354TIP3   OH279476   1.480   0.714   1.325  0.0350  0.3663 -0.5893
19354TIP3    H179477   1.561   0.703   1.276  1.4244 -1.4154  1.9098
19354TIP3    H279478   1.420   0.650   1.286 -0.3028  1.7633 -2.5162
19355TIP3   OH279479   6.383   5.185  15.549  0.1408  0.5722 -0.0852
19355TIP3    H179480   6.332   5.222  15.622  1.0739  0.5852  0.5792
19355TIP3    H279481   6.474   5.196  15.576  0.4787 -0.2891 -0.8337
19356TIP3   OH279482   2.614   7.028  12.577 -0.3731  0.5210  0.1478
19356TIP3    H179483   2.656   6.975  12.509 -3.0631 -0.1068 -1.2055
19356TIP3    H279484   2.528   6.986  12.589 -1.4457  2.8594  1.1511
19357TIP3   OH279485   5.774   1.319  14.770  0.2362 -0.1796 -0.1858
19357TIP3    H179486   5.817   1.400  14.747 -0.9519 -0.1330 -2.5040
19357TIP3    H279487   5.815   1.253  14.714 -1.2558 -0.4752 -0.9910
19358TIP3   OH279488   3.846   2.053   1.948  0.0138 -0.5802 -0.0516
19358TIP3    H179489   3.941   2.050   1.939 -0.0210 -1.1495 -0.2542
19358TIP3    H279490   3.820   2.137   1.911  0.4096 -0.5482 -0.2491
19359TIP3   OH279491   6.405   1.701   1.828 -0.0933  0.4214 -0.4147
19359TIP3    H179492   6.446   1.647   1.895  0.9303 -1.5403 -2.4790
19359TIP3    H279493   6.311   1.682   1.837  0.3111 -3.4499 -2.2500
19360TIP3   OH279494   4.166   3.159   1.004  0.1557  0.6832 -0.2712
19360TIP3    H179495   4.167   3.110   0.921 -1.3002  0.1950 -0.0365
19360TIP3    H279496   4.144   3.093   1.070  2.2731  0.8594  0.6836
19361TIP3   OH279497   1.019   4.004   4.039  0.0210  0.4369 -0.0702
19361TIP3    H179498   0.993   4.020   3.948  3.2243 -1.0358 -1.3744
19361TIP3    H279499   0.989   4.082   4.086 -0.6971  1.7918 -2.5952
19362TIP3   OH279500   0.456   3.166   2.649 -0.1677  0.2211  0.4365
19362TIP3    H179501   0.442   3.248   2.600 -3.7396 -0.8438 -0.6760
19362TIP3    H279502   0.403   3.177   2.728  1.5171 -0.0436  1.6526
19363TIP3   OH279503   4.924   6.491   5.395 -0.4334  0.2266  0.5157
19363TIP3    H179504   4.946   6.584   5.398  1.5066 -0.1956  3.0861
19363TIP3    H279505   4.988   6.449   5.453 -1.6399 -2.6431 -0.0376
19364TIP3   OH279506   2.864   3.945   0.410  0.4477  0.2620 -0.2535
19364TIP3    H179507   2.899   3.962   0.322 -0.2729  1.0842 -0.4034
19364TIP3    H279508   2.842   3.852   0.409  0.5790  0.2292 -0.9048
19365TIP3   OH279509   3.247   6.680   4.761  0.1340  0.6542 -0.2564
19365TIP3    H179510   3.317   6.737   4.793 -0.3901  0.2024  1.8503
19365TIP3    H279511   3.178   6.741   4.732  0.0018  1.1304  0.9823
19366TIP3   OH279512   1.766   3.631   2.689 -0.1409  0.1130 -0.3396
19366TIP3    H179513   1.780   3.722   2.663 -0.5228 -0.2246 -1.7553
19366TIP3    H279514   1.674   3.613   2.669  0.1234 -0.8132 -0.7813
19367TIP3   OH279515   0.614   4.902  11.187 -0.4053  0.5510  0.5495
19367TIP3    H179516   0.666   4.933  11.261 -1.3277 -0.2606  1.5690
19367TIP3    H279517   0.647   4.813  11.170  1.1707  1.4234 -1.3559
19368TIP3   OH279518   5.639   3.048  13.358  0.2141 -0.1232  0.2405
19368TIP3    H179519   5.558   3.037  13.407  0.6844 -0.3725  0.9696
19368TIP3    H279520   5.610   3.073  13.270 -0.6166  0.7563  0.7463
19369TIP3   OH279521   0.869   0.105  13.964  0.2576  0.8912 -0.3375
19369TIP3    H179522   0.938   0.042  13.949 -1.0814 -1.1863  1.5310
19369TIP3    H279523   0.858   0.106  14.059 -1.4665  2.0278 -0.4963
19370TIP3   OH279524   6.205   5.201   2.395 -0.3716 -0.5863 -0.5357
19370TIP3    H179525   6.278   5.138   2.392  0.8527  0.7606 -0.2741
19370TIP3    H279526   6.241   5.276   2.441 -1.2446  1.0187 -2.3535
19371TIP3   OH279527   1.522   5.363   1.369 -0.0251 -0.1066 -0.2819
19371TIP3    H179528   1.437   5.319   1.379  0.1424 -0.5044 -0.6205
19371TIP3    H279529   1.581   5.295   1.338 -0.4225  0.9405 -3.7587
19372TIP3   OH279530   6.190   5.118   5.107  0.1628 -0.4132 -0.1891
19372TIP3    H179531   6.186   5.202   5.061 -0.9604 -0.2923  0.1069
19372TIP3    H279532   6.111   5.072   5.081  0.6496 -1.2863 -0.1568
19373TIP3   OH279533   5.098   5.015   4.753  0.6809 -0.0896  0.1259
19373TIP3    H179534   5.105   5.049   4.664 -0.1064 -0.6818 -0.1654
19373TIP3    H279535   5.043   5.079   4.799  1.4235  0.4333  0.3123
19374TIP3   OH279536   4.992   2.536   1.447  0.1898  0.4994  0.3503
19374TIP3    H179537   5.054   2.481   1.496  0.0036  1.2388  1.4657
19374TIP3    H279538   4.987   2.617   1.498 -2.9573 -0.1279  1.2665
19375TIP3   OH279539   1.419   5.014   2.809  0.2574  0.3816  0.5367
19375TIP3    H179540   1.430   4.919   2.810 -0.3377  0.3106  1.7064
19375TIP3    H279541   1.336   5.029   2.764  1.0292  0.4626 -0.9522
19376TIP3   OH279542   5.648   6.588  15.298  0.3444  0.4509 -0.1563
19376TIP3    H179543   5.649   6.653  15.368 -0.0569 -0.4846  0.7592
19376TIP3    H279544   5.571   6.610  15.246 -0.2813  0.2305  0.6462
19377TIP3   OH279545   4.816   3.247   2.414  0.0392  0.6139  0.5782
19377TIP3    H179546   4.731   3.212   2.385  0.9319 -0.5731 -0.7503
19377TIP3    H279547   4.813   3.240   2.510 -1.3344  0.5372  0.5523
19378TIP3   OH279548   4.612   1.514   2.980  0.2244  0.1122 -0.0439
19378TIP3    H179549   4.647   1.568   3.050  0.5096 -0.1859  0.0438
19378TIP3    H279550   4.518   1.511   2.997  0.2476  0.3239  0.1271
19379TIP3   OH279551   0.150   1.791   4.593  0.2955 -0.6834 -0.6457
19379TIP3    H179552   0.245   1.784   4.604  0.2562 -1.3115 -0.6541
19379TIP3    H279553   0.119   1.827   4.676  0.5530 -0.3644 -0.6870
19380TIP3   OH279554   1.623   3.235   5.212  0.3794  0.1825 -0.0445
19380TIP3    H179555   1.530   3.257   5.214  0.3498  0.0154  1.7654
19380TIP3    H279556   1.664   3.308   5.166 -0.2759  1.8457  1.9112
19381TIP3   OH279557   5.740   0.023   3.188  0.2330  0.3836 -0.4258
19381TIP3    H179558   5.723   0.088   3.256  0.4489  2.6620 -2.4479
19381TIP3    H279559   5.669   0.034   3.125  0.9077 -0.5663 -1.3872
19382TIP3   OH279560   3.140   6.030   2.154  0.1056  0.7237  0.2869
19382TIP3    H179561   3.232   6.013   2.173 -0.5428 -1.8419  1.5339
19382TIP3    H279562   3.108   6.075   2.232 -0.1824 -0.4470  0.8643
19383TIP3   OH279563   2.948   0.616   2.663 -0.1590  0.3001  0.1164
19383TIP3    H179564   2.909   0.622   2.750 -1.4847 -0.1298 -0.4288
19383TIP3    H279565   2.875   0.630   2.603  0.6808  0.2728 -0.9394
19384TIP3   OH279566   6.051   2.954   3.407 -0.2369  0.6408 -0.0884
19384TIP3    H179567   6.067   2.860   3.417  0.6437  0.6658 -1.1392
19384TIP3    H279568   6.022   2.965   3.317 -1.1610  1.2883  0.2661
19385TIP3   OH279569   0.350   2.937   4.189 -0.1289 -0.1057  0.2940
19385TIP3    H179570   0.326   2.844   4.189 -1.6060  0.2483 -0.3875
19385TIP3    H279571   0.268   2.983   4.207  0.4461  1.1038 -0.0759
19386TIP3   OH279572   6.233   0.877  15.640 -0.4461 -0.0389  0.1140
19386TIP3    H179573   6.174   0.802  15.638 -3.7189  2.3018  0.1028
19386TIP3    H279574   6.257   0.892  15.548 -1.6323  0.2171 -0.1682
19387TIP3   OH279575   6.336   6.389   0.902 -0.0048 -0.0546  0.3994
19387TIP3    H179576   6.428   6.375   0.925  0.0928 -1.2215 -0.5931
19387TIP3    H279577   6.338   6.442   0.823 -0.1538 -0.7442 -0.0711
19388TIP3   OH279578   3.109   3.800   2.542  0.0626  0.1084  0.0215
19388TIP3    H179579   3.142   3.797   2.452 -3.3796  0.2637 -1.4043
19388TIP3    H279580   3.165   3.739   2.590  2.3095  0.3642 -2.0884
19389TIP3   OH279581   4.706   4.547   1.935 -0.2606 -0.4943  0.4523
19389TIP3    H179582   4.682   4.454   1.931 -1.7094 -0.0953 -2.5345
19389TIP3    H279583   4.622   4.593   1.942  0.2371  0.6518 -0.7316
19390TIP3   OH279584   5.695   6.653   4.003  0.5870 -0.2330  0.1852
19390TIP3    H179585   5.662   6.573   3.961  0.0500  0.8131 -1.5028
19390TIP3    H279586   5.764   6.683   3.945  3.0315 -1.1097  2.4617
19391TIP3   OH279587   0.031   5.014   2.537 -0.4620 -0.2802  0.0794
19391TIP3    H179588   0.055   5.060   2.617  0.4981 -0.0166 -0.3450
19391TIP3    H279589   0.003   4.927   2.567  0.7193 -0.4893  0.6503
19392TIP3   OH279590   2.475   6.631  13.618  0.4758 -0.0119  0.4776
19392TIP3    H179591   2.393   6.584  13.635  0.6235 -0.1783  0.7283
19392TIP3    H279592   2.503   6.661  13.704 -0.6762  2.3228  0.1241
19393TIP3   OH279593   1.134   0.995   2.243  0.0892 -0.5091 -0.0360
19393TIP3    H179594   1.191   0.970   2.170 -0.7131  1.8589 -1.6124
19393TIP3    H279595   1.046   1.000   2.204 -0.5493 -0.2358  1.3740
19394TIP3   OH279596   1.202   4.334   5.231 -0.1464 -0.5891 -0.0088
19394TIP3    H179597   1.176   4.245   5.208  0.7925 -1.0755  0.7153
19394TIP3    H279598   1.180   4.343   5.324  1.1507 -0.6360  0.3342
19395TIP3   OH279599   4.224   6.046  12.104 -0.1257  0.2099  0.6779
19395TIP3    H179600   4.319   6.044  12.092 -0.1685 -0.2678  0.4273
19395TIP3    H279601   4.208   6.126  12.155  0.4586  0.0242  1.1582
19396TIP3   OH279602   0.490   6.814   2.873  0.0677 -0.8667  0.5332
19396TIP3    H179603   0.512   6.789   2.963 -0.1869  2.1958  1.5441
19396TIP3    H279604   0.571   6.852   2.838 -0.1964 -0.8723 -0.1039
19397TIP3   OH279605   5.638   1.725   3.171 -0.0261  0.8138 -0.0795
19397TIP3    H179606   5.634   1.807   3.218  1.3958 -0.0689  1.6842
19397TIP3    H279607   5.680   1.664   3.231  1.3777 -0.5387 -2.2635
19398TIP3   OH279608   0.752   6.717  15.421 -0.2804  0.1642 -0.0595
19398TIP3    H179609   0.765   6.739  15.513 -0.0033  0.5088 -0.1794
19398TIP3    H279610   0.666   6.673  15.419  0.5414 -1.5647  0.6413
19399TIP3   OH279611   4.171   4.057   3.793 -0.4911 -0.0337 -0.1624
19399TIP3    H179612   4.230   4.018   3.858  0.0766  1.3101  0.1578
19399TIP3    H279613   4.224   4.124   3.750 -2.0963  2.0904  1.0050
19400TIP3   OH279614   5.400   6.281   1.648  0.5411  0.5370 -0.4093
19400TIP3    H179615   5.403   6.342   1.574  1.0780  3.4040  1.7884
19400TIP3    H279616   5.448   6.204   1.618 -3.3626 -0.6701 -4.6978
19401TIP3   OH279617   4.405   2.250   0.766  0.1334  0.1272  0.2473
19401TIP3    H179618   4.452   2.177   0.805  0.8937 -0.1478 -1.1229
19401TIP3    H279619   4.337   2.209   0.712  0.1124  0.4496  0.0256
19402TIP3   OH279620   0.215   0.470  11.237  0.0823 -0.5128  0.5737
19402TIP3    H179621   0.261   0.508  11.312  0.2172  0.6049 -0.0553
19402TIP3    H279622   0.164   0.543  11.202 -0.5875 -1.2308  0.0434
19403TIP3   OH279623   5.473   0.153   4.682  0.2362 -0.1694 -0.2059
19403TIP3    H179624   5.422   0.120   4.755 -0.2233 -1.1729 -0.9574
19403TIP3    H279625   5.430   0.236   4.658 -0.6947 -0.7074 -0.4492
19404TIP3   OH279626   4.377   6.999   4.136 -0.6603  0.1489 -0.5459
19404TIP3    H179627   4.460   7.029   4.099 -1.0255  0.5392 -1.0557
19404TIP3    H279628   4.338   6.946   4.067 -0.6578 -0.3595 -0.1592
19405TIP3   OH279629   1.229   2.689   0.501  0.2019  0.0490  0.4939
19405TIP3    H179630   1.169   2.676   0.427  1.4033  0.6420 -0.6070
19405TIP3    H279631   1.175   2.730   0.569 -0.7156  0.2675 -0.3503
19406TIP3   OH279632   1.980   5.931   2.015  0.4484 -0.0511  0.1215
19406TIP3    H179633   1.962   5.838   2.011  0.7761 -0.1027 -0.1899
19406TIP3    H279634   1.894   5.973   2.006  0.2564 -0.3226  0.6237
19407TIP3   OH279635   5.220   1.078   2.489  0.2162  0.0636  0.2254
19407TIP3    H179636   5.278   1.010   2.524 -0.2516 -0.3933  0.1296
19407TIP3    H279637   5.204   1.136   2.564  0.4914 -0.0246  0.3531
19408TIP3   OH279638   2.197   1.361  14.897 -0.0279  0.0833 -0.4262
19408TIP3    H179639   2.268   1.312  14.940 -0.9766 -2.2688 -1.3487
19408TIP3    H279640   2.240   1.406  14.825  0.8589  0.4681  0.3129
19409TIP3   OH279641   4.944   6.820   5.163  0.1178  0.4745 -0.3734
19409TIP3    H179642   4.979   6.771   5.237 -0.1733  1.2290  0.2713
19409TIP3    H279643   5.009   6.889   5.147  0.3602  0.0964 -1.0618
19410TIP3   OH279644   2.845   2.903  14.925  0.5776  0.0660  0.8261
19410TIP3    H179645   2.759   2.909  14.883  1.3442  0.7450 -0.7416
19410TIP3    H279646   2.827   2.914  15.018 -1.1539 -1.0204  0.6668
19411TIP3   OH279647   0.093   4.635   5.581  0.2220 -0.4217 -0.2527
19411TIP3    H179648   0.045   4.606   5.659  1.3077 -0.0418  0.5815
19411TIP3    H279649   0.133   4.555   5.547  2.1089 -0.1878  1.2729
19412TIP3   OH279650   1.994   6.934   4.897 -0.0866 -0.2490 -0.5774
19412TIP3    H179651   1.994   6.882   4.978 -1.7844  0.0299 -0.3600
19412TIP3    H279652   2.053   7.007   4.915 -1.0234  0.2215  0.7175
19413TIP3   OH279653   4.440   2.632   3.912  0.2600 -0.2653 -0.7795
19413TIP3    H179654   4.523   2.588   3.928 -0.1971 -0.0959  2.8602
19413TIP3    H279655   4.389   2.569   3.861  1.0152 -2.3141  0.8888
19414TIP3   OH279656   1.701   4.343   2.604  0.0184 -0.2324  0.5003
19414TIP3    H179657   1.685   4.422   2.553 -0.6804 -1.0619 -0.5905
19414TIP3    H279658   1.619   4.326   2.649 -0.4633 -1.4190 -0.7983
19415TIP3   OH279659   1.412   0.640   9.396  0.2666 -0.2020  0.3341
19415TIP3    H179660   1.442   0.671   9.310 -1.0419 -0.5681 -0.2752
19415TIP3    H279661   1.481   0.667   9.456  0.1531  2.0803 -0.4728
19416TIP3   OH279662   2.228   4.300   2.596 -0.9055 -0.3984  0.4116
19416TIP3    H179663   2.226   4.205   2.587 -0.7195 -0.3405 -0.2960
19416TIP3    H279664   2.138   4.328   2.581 -0.6308 -0.3154 -1.3229
19417TIP3   OH279665   5.414   3.616   0.356 -0.5652  0.1186  1.2504
19417TIP3    H179666   5.334   3.667   0.370 -1.4795 -1.3597  1.6384
19417TIP3    H279667   5.398   3.534   0.402  1.2054 -0.2068  1.3607
19418TIP3   OH279668   2.409   6.158   4.055  0.0237  0.4418 -0.0901
19418TIP3    H179669   2.495   6.151   4.098 -0.3468  0.7885  0.7272
19418TIP3    H279670   2.346   6.134   4.123 -0.5531  0.6005 -0.5622
19419TIP3   OH279671   6.103   3.555   2.259  0.2614  0.0069 -0.3840
19419TIP3    H179672   6.189   3.595   2.273  0.0583  0.2173  0.2692
19419TIP3    H279673   6.123   3.467   2.227  0.7127  0.2656 -0.8450
19420TIP3   OH279674   0.413   0.852  13.902  0.1276 -0.8105  0.1018
19420TIP3    H179675   0.384   0.760  13.908  0.4978 -0.8554  2.5496
19420TIP3    H279676   0.508   0.847  13.893  0.2996 -0.7287  1.5515
19421TIP3   OH279677   6.772   2.210  13.247  0.5368  0.6268  0.2256
19421TIP3    H179678   6.720   2.188  13.170  1.5852  0.7989 -0.5659
19421TIP3    H279679   6.754   2.302  13.263  0.7054  0.7262 -0.1404
19422TIP3   OH279680   5.464   6.827  11.249 -0.4513 -0.6788  0.1424
19422TIP3    H179681   5.471   6.732  11.241  1.0981 -0.5282 -0.6927
19422TIP3    H279682   5.554   6.858  11.243 -0.9197  0.8432  0.5542
19423TIP3   OH279683   3.965   6.679  12.864  0.1612 -0.1021  0.2304
19423TIP3    H179684   3.956   6.610  12.797 -1.2215  0.6831 -0.4367
19423TIP3    H279685   4.008   6.751  12.818 -1.4433  0.7130 -0.0695
19424TIP3   OH279686   4.049   1.565   2.536 -0.6901  0.1151 -0.1583
19424TIP3    H179687   4.019   1.482   2.499  1.2224 -0.8491  0.3376
19424TIP3    H279688   4.140   1.573   2.507  0.0627  0.6020  2.1453
19425TIP3   OH279689   3.162   5.057   3.107 -0.5270 -0.3132  0.1254
19425TIP3    H179690   3.208   5.084   3.027 -1.3878  1.1463  0.0815
19425TIP3    H279691   3.183   5.125   3.171 -0.3060 -1.1714  0.9988
19426TIP3   OH279692   1.189   3.480   3.410  0.3117 -0.1817 -0.2199
19426TIP3    H179693   1.150   3.551   3.359 -0.8441 -0.6967 -0.0655
19426TIP3    H279694   1.154   3.491   3.498  1.8264  0.3347  0.3553
19427TIP3   OH279695   4.944   2.529   1.166  0.0886 -0.2990 -0.3203
19427TIP3    H179696   4.933   2.435   1.151 -3.1119 -0.1028  0.0146
19427TIP3    H279697   4.990   2.535   1.249  1.8385 -1.5021 -1.1420
19428TIP3   OH279698   0.897   6.871  12.436 -0.3804  0.0479 -0.1682
19428TIP3    H179699   0.838   6.843  12.365 -1.2674  1.2164  0.0714
19428TIP3    H279700   0.877   6.812  12.508 -0.0540 -0.6349 -0.6293
19429TIP3   OH279701   0.461   3.498  14.655 -0.2135 -0.5985 -0.0513
19429TIP3    H179702   0.532   3.441  14.628  1.0074  1.0506 -0.4976
19429TIP3    H279703   0.391   3.482  14.592 -0.2979 -2.2974  0.4401
19430TIP3   OH279704   1.077   0.669   5.501  0.0768  0.1700  0.6787
19430TIP3    H179705   1.089   0.604   5.570 -0.6187 -1.2725 -0.5198
19430TIP3    H279706   1.159   0.666   5.452 -0.3613 -0.5939 -0.0170
19431TIP3   OH279707   1.729   1.507  13.100 -0.0182  0.3257 -0.5037
19431TIP3    H179708   1.691   1.424  13.131 -0.1985  0.5098 -0.2286
19431TIP3    H279709   1.726   1.565  13.176  2.5614 -0.2150  0.0970
19432TIP3   OH279710   0.143   3.839   1.921  0.6177  1.2403 -0.5141
19432TIP3    H179711   0.055   3.817   1.952  1.4979 -3.3961 -0.6140
19432TIP3    H279712   0.197   3.836   2.000  1.1419  0.9307 -0.8820
19433TIP3   OH279713   0.136   5.418  11.050 -0.0469 -0.3007 -0.0325
19433TIP3    H179714   0.064   5.366  11.086 -1.4273  1.0848 -0.6833
19433TIP3    H279715   0.203   5.353  11.029 -1.0000 -1.6190  0.7992
19434TIP3   OH279716   3.643   5.583   5.373  0.1875 -0.6269  0.2824
19434TIP3    H179717   3.734   5.598   5.345  0.2034  1.5829  1.3257
19434TIP3    H279718   3.651   5.546   5.461  0.1146  0.7998  0.9166
19435TIP3   OH279719   5.572   6.340   4.135  0.4621  0.9179  0.1059
19435TIP3    H179720   5.609   6.252   4.150 -1.0476  0.0780 -0.8393
19435TIP3    H279721   5.616   6.371   4.056  0.5948  0.7727  0.1206
19436TIP3   OH279722   5.814   1.487   5.409 -0.2786  0.0539  0.3913
19436TIP3    H179723   5.885   1.455   5.464 -1.2147  0.7754  2.0726
19436TIP3    H279724   5.830   1.582   5.402  0.2616 -0.1288 -1.2639
19437TIP3   OH279725   3.699   3.904  14.789  0.4112 -0.0402  0.2031
19437TIP3    H179726   3.751   3.824  14.786  0.8853  0.2800 -1.8257
19437TIP3    H279727   3.609   3.874  14.801  0.8441 -0.6799  2.2846
19438TIP3   OH279728   2.119   1.943   2.260  0.1895  0.1942  0.6138
19438TIP3    H179729   2.073   2.024   2.283 -1.5594  0.1453 -2.1708
19438TIP3    H279730   2.185   1.971   2.196 -0.4643 -0.5569 -0.4101
19439TIP3   OH279731   6.646   2.419   4.725 -0.7231  0.3589 -0.5392
19439TIP3    H179732   6.725   2.382   4.687 -0.5324 -2.1738  1.9497
19439TIP3    H279733   6.577   2.357   4.703 -1.1489  0.3656  0.6644
19440TIP3   OH279734   0.259   2.694   4.765  0.4381 -0.2365  0.2645
19440TIP3    H179735   0.193   2.753   4.800  0.7161 -0.2616  0.8422
19440TIP3    H279736   0.342   2.737   4.782  0.6323 -0.7206  0.5428
19441TIP3   OH279737   6.284   2.714   3.668 -0.2230 -0.2898  0.0816
19441TIP3    H179738   6.344   2.713   3.593  0.2595  0.1953  0.4514
19441TIP3    H279739   6.301   2.632   3.714 -0.3261 -0.4631 -0.1916
19442TIP3   OH279740   0.802   3.688   4.481 -0.0388  0.6633 -0.2382
19442TIP3    H179741   0.766   3.627   4.545 -0.2268  0.2458 -0.7409
19442TIP3    H279742   0.809   3.771   4.529  1.2109  0.0192  0.7776
19443TIP3   OH279743   0.655   4.219   3.472 -0.1720  0.2824  0.0902
19443TIP3    H179744   0.668   4.275   3.548  0.2178 -1.0719  1.0703
19443TIP3    H279745   0.568   4.181   3.484 -0.3655  0.5327 -0.4723
19444TIP3   OH279746   3.934   0.149   2.217 -0.5887  0.3476  0.1998
19444TIP3    H179747   3.880   0.216   2.176  0.7226  0.7449 -0.9568
19444TIP3    H279748   4.023   0.172   2.192  0.0834 -0.5271  1.7129
19445TIP3   OH279749   3.137   0.407   5.770 -0.0487  0.0504 -0.4151
19445TIP3    H179750   3.165   0.321   5.800 -0.2057  0.1474  0.0170
19445TIP3    H279751   3.218   0.459   5.765  0.0049 -0.0299 -0.3781
19446TIP3   OH279752   7.080   0.863   2.511 -0.2501 -0.5785 -0.4253
19446TIP3    H179753   7.127   0.781   2.519  0.2776 -0.3781 -1.3468
19446TIP3    H279754   7.120   0.907   2.436  0.0673  0.9145  0.5816
19447TIP3   OH279755   0.046   1.285   5.387  0.2407 -0.4454 -0.3519
19447TIP3    H179756   0.002   1.204   5.413  0.5223 -0.4335  0.1869
19447TIP3    H279757   0.048   1.337   5.467 -0.2687  0.2485 -0.7874
19448TIP3   OH279758   6.857   2.367   5.214  0.2934  0.0853 -0.1264
19448TIP3    H179759   6.783   2.352   5.274 -2.5819  0.6507 -3.2595
19448TIP3    H279760   6.868   2.284   5.168 -0.8469  0.9583 -2.1021
19449TIP3   OH279761   2.872   5.288  12.733 -0.3749  0.5529  0.0057
19449TIP3    H179762   2.886   5.257  12.644 -0.4778 -0.4956  0.3389
19449TIP3    H279763   2.787   5.251  12.758  0.7170 -1.1825  1.3624
19450TIP3   OH279764   0.671   4.436   5.980 -0.2368  0.1315  0.4688
19450TIP3    H179765   0.757   4.404   5.954 -0.6250 -1.0159  0.5675
19450TIP3    H279766   0.682   4.531   5.988  0.4222  0.2990 -1.8023
19451TIP3   OH279767   3.531   6.814   1.783  0.2523  0.0847 -0.4829
19451TIP3    H179768   3.532   6.789   1.876 -0.2763 -2.9709 -1.2173
19451TIP3    H279769   3.452   6.867   1.774  0.3237  0.4509  0.7753
19452TIP3   OH279770   2.093   5.985   3.008  0.3393 -0.1909 -0.0420
19452TIP3    H179771   2.145   6.027   3.078 -0.0174  0.3005 -0.0653
19452TIP3    H279772   2.005   6.020   3.021 -0.2048 -1.7236  0.5691
19453TIP3   OH279773   4.103   1.484   0.583  0.4212 -0.3775 -0.3183
19453TIP3    H179774   4.079   1.569   0.546 -1.5630 -0.8231 -0.1738
19453TIP3    H279775   4.112   1.500   0.677 -0.4630 -0.4208 -0.2236
19454TIP3   OH279776   2.405   2.704  14.699 -0.6398 -0.4521  0.3624
19454TIP3    H179777   2.458   2.683  14.776  1.3404  1.7822 -0.2933
19454TIP3    H279778   2.444   2.653  14.628  1.1157  1.5591 -0.2257
19455TIP3   OH279779   6.076   2.439  12.135  0.1440 -0.1528  0.3214
19455TIP3    H179780   6.003   2.419  12.077  0.4711  0.4548 -0.3197
19455TIP3    H279781   6.035   2.464  12.218 -0.5667  3.0665 -0.8591
19456TIP3   OH279782   3.808   2.665   4.442  0.3199 -0.7088 -0.2028
19456TIP3    H179783   3.863   2.689   4.517  0.1327  0.3996 -0.4052
19456TIP3    H279784   3.816   2.569   4.436 -0.1864 -0.9147  1.6384
19457TIP3   OH279785   2.527   3.957   4.586 -0.7732  0.5750  0.4202
19457TIP3    H179786   2.617   3.928   4.571 -0.7910  0.9092 -0.3243
19457TIP3    H279787   2.522   3.969   4.681 -0.6248 -1.4058  0.7313
19458TIP3   OH279788   1.180   3.355   1.753 -0.3777  0.0867 -0.0179
19458TIP3    H179789   1.200   3.304   1.674 -0.1884 -0.1370  0.1708
19458TIP3    H279790   1.085   3.357   1.757 -0.3916 -0.4729  0.1047
19459TIP3   OH279791   5.094   0.196  15.458 -0.7475  0.4039 -0.3263
19459TIP3    H179792   5.117   0.228  15.545 -0.5204  2.0940 -0.9795
19459TIP3    H279793   5.000   0.178  15.462 -0.5316 -0.5663  0.5643
19460TIP3   OH279794   3.883   0.510   3.417 -0.0410 -0.3465 -0.3405
19460TIP3    H179795   3.957   0.490   3.475  0.1182  1.3349  0.0791
19460TIP3    H279796   3.905   0.595   3.379 -1.3964 -0.1838 -0.8095
19461TIP3   OH279797   0.029   6.269   3.272  0.1141  0.1703  0.0115
19461TIP3    H179798  -0.008   6.271   3.184  0.7244  1.3483 -0.2418
19461TIP3    H279799   0.078   6.187   3.276  0.9019  0.5537 -1.1233
19462TIP3   OH279800   4.784   6.895   4.737  0.1382 -0.6613 -0.2399
19462TIP3    H179801   4.765   6.882   4.830  0.8748  1.6536  0.3089
19462TIP3    H279802   4.699   6.891   4.694 -0.2411 -1.5072  0.5540
19463TIP3   OH279803   2.085   2.571   2.473  0.0958  0.6651 -0.8459
19463TIP3    H179804   2.067   2.518   2.551  1.5439  2.2358  0.6560
19463TIP3    H279805   2.001   2.574   2.426 -0.8062 -0.3903  0.6034
19464TIP3   OH279806   0.728   4.728  14.286  0.0231  0.3441 -0.1734
19464TIP3    H179807   0.769   4.652  14.328  0.2202  0.4551 -0.1618
19464TIP3    H279808   0.779   4.803  14.318 -0.2952  0.5001 -0.0265
19465TIP3   OH279809   5.486   6.331   4.468 -0.3786  0.0438 -0.2454
19465TIP3    H179810   5.408   6.349   4.521 -0.4822 -2.0059  0.4009
19465TIP3    H279811   5.454   6.275   4.397  0.4912 -0.8686  0.0627
19466TIP3   OH279812   6.057   4.587   2.640  0.0537  0.3318 -0.0897
19466TIP3    H179813   6.002   4.524   2.687  1.5258 -0.2745  0.9118
19466TIP3    H279814   6.058   4.664   2.697  2.9156 -0.8669  1.7374
19467TIP3   OH279815   3.406   2.703  15.266  0.1587  0.1585  0.0729
19467TIP3    H179816   3.433   2.650  15.341  0.0901 -0.2970 -0.2132
19467TIP3    H279817   3.311   2.690  15.261 -0.6484  3.6401  2.5275
19468TIP3   OH279818   0.194   5.011   0.307  0.4275  0.0001  0.2599
19468TIP3    H179819   0.229   5.048   0.225 -0.7543  0.2443 -0.1541
19468TIP3    H279820   0.140   4.937   0.279 -1.3070  1.0599  0.6400
19469TIP3   OH279821   2.554   6.655   3.194  0.7679 -0.7784 -0.2005
19469TIP3    H179822   2.579   6.654   3.286  1.6161  1.2315 -0.3640
19469TIP3    H279823   2.460   6.637   3.195  0.2584  1.5284  1.2990
19470TIP3   OH279824   6.120   6.493  10.449 -0.1142  0.6759  0.1665
19470TIP3    H179825   6.121   6.406  10.407  2.8962  0.4052  0.6067
19470TIP3    H279826   6.171   6.549  10.389 -0.5284  1.7043  0.7551
19471TIP3   OH279827   1.740   3.666  14.829 -0.0351 -0.2508  0.7495
19471TIP3    H179828   1.673   3.605  14.797 -1.3922 -0.0530  2.9656
19471TIP3    H279829   1.797   3.682  14.753 -1.0624 -2.3407 -0.5487
19472TIP3   OH279830   5.740   1.890  12.991 -0.0610 -0.0898  0.4338
19472TIP3    H179831   5.782   1.805  13.001 -3.5764 -2.3553 -1.8863
19472TIP3    H279832   5.658   1.882  13.041 -0.2764  2.1456  0.5372
19473TIP3   OH279833   6.609   2.995   4.447 -0.6083  0.2708  0.6531
19473TIP3    H179834   6.518   3.003   4.417 -0.7734 -0.3361  0.9815
19473TIP3    H279835   6.623   3.071   4.503 -0.4773  1.1173 -0.4757
19474TIP3   OH279836   6.110   0.560  12.347 -0.2845  0.4341 -0.4172
19474TIP3    H179837   6.099   0.465  12.342 -1.5844  0.6373 -2.9665
19474TIP3    H279838   6.197   0.572  12.384 -0.6773 -1.6828  1.4169
19475TIP3   OH279839   1.357   0.599   4.430 -0.7738  0.1109 -0.7241
19475TIP3    H179840   1.393   0.522   4.386  0.1469  2.0576 -3.7475
19475TIP3    H279841   1.293   0.634   4.368 -0.4077  2.3215  0.0610
19476TIP3   OH279842   3.185   3.431   2.125  0.3224  0.0656  0.1093
19476TIP3    H179843   3.192   3.339   2.151  0.5855 -0.4207 -1.5532
19476TIP3    H279844   3.275   3.464   2.127  0.4568 -0.2069 -0.9138
19477TIP3   OH279845   2.296   1.425  11.715  0.1408  0.1680 -0.5472
19477TIP3    H179846   2.357   1.410  11.642  1.0311  1.7262 -0.1691
19477TIP3    H279847   2.338   1.382  11.790 -0.1732 -0.3825 -0.6816
19478TIP3   OH279848   0.944   4.389   4.394  0.3718  0.3895 -0.2375
19478TIP3    H179849   0.978   4.463   4.344  0.5343 -0.3697 -1.3005
19478TIP3    H279850   0.969   4.312   4.342 -0.3457 -0.3669  0.5077
19479TIP3   OH279851   1.008   4.158   1.864  0.3241 -0.0433 -1.0666
19479TIP3    H179852   1.052   4.086   1.819  1.2194 -1.0373  1.2114
19479TIP3    H279853   1.078   4.207   1.906 -0.3537  1.7255 -1.9027
19480TIP3   OH279854   7.110   6.653   1.201 -0.5568  0.1724 -0.1539
19480TIP3    H179855   7.136   6.613   1.284  1.4029  2.5434  0.4825
19480TIP3    H279856   7.035   6.708   1.224 -0.8835 -0.2297 -0.2507
19481TIP3   OH279857   3.041   0.850   4.863 -0.5824 -0.9901 -0.3460
19481TIP3    H179858   3.068   0.809   4.945 -0.2745 -3.1528 -1.4652
19481TIP3    H279859   3.012   0.938   4.888  1.2285 -0.9349  1.7994
19482TIP3   OH279860   3.053   5.114   3.923  0.0489  0.5091  0.2432
19482TIP3    H179861   3.101   5.051   3.869 -1.8270  0.8855 -2.0405
19482TIP3    H279862   3.118   5.178   3.950  1.1010  0.2048 -1.4636
19483TIP3   OH279863   3.470   2.945   2.249 -0.0337  0.4064 -0.2472
19483TIP3    H179864   3.561   2.949   2.280  0.2316 -0.4232 -0.8796
19483TIP3    H279865   3.425   3.015   2.297  0.9569  0.8916  0.0043
19484TIP3   OH279866   3.023   4.866  15.383 -0.2626 -0.3045  0.0217
19484TIP3    H179867   2.998   4.846  15.292  2.2786 -1.8294 -0.4305
19484TIP3    H279868   3.077   4.792  15.410  2.2751  1.8572  1.4172
19485TIP3   OH279869   0.245   0.419   4.477 -0.1162  0.4261 -0.1981
19485TIP3    H179870   0.219   0.372   4.398 -2.9037 -0.5462  1.1801
19485TIP3    H279871   0.232   0.355   4.548  2.3312  1.2485  1.1226
19486TIP3   OH279872   6.258   0.040  14.463 -0.4193 -0.2043  0.0693
19486TIP3    H179873   6.236   0.103  14.393 -2.7551  0.1921  1.0431
19486TIP3    H279874   6.221  -0.043  14.432  0.0507 -0.4162  0.0820
19487TIP3   OH279875   4.930   2.662   4.555 -0.0122  0.4221  0.0784
19487TIP3    H179876   4.983   2.651   4.633 -1.2866  0.6513  1.0168
19487TIP3    H279877   4.899   2.752   4.559  0.8217  0.7975 -1.3127
19488TIP3   OH279878   1.643   3.798   3.906 -0.2578 -0.2647 -0.2118
19488TIP3    H179879   1.728   3.759   3.926  0.0118  0.8608  0.8986
19488TIP3    H279880   1.647   3.818   3.812  0.2931 -1.1513 -0.3883
19489TIP3   OH279881   5.526   0.138  12.142  0.4185  0.4843 -0.8839
19489TIP3    H179882   5.499   0.224  12.176  2.0674 -0.2365  2.7467
19489TIP3    H279883   5.612   0.154  12.102  0.6482  0.5587 -0.3656
19490TIP3   OH279884   2.100   1.886   0.624  0.3666 -0.0388 -0.5015
19490TIP3    H179885   2.151   1.945   0.568 -0.1092  1.1993  0.3042
19490TIP3    H279886   2.165   1.826   0.661  1.0467  0.6469 -0.5387
19491TIP3   OH279887   2.457   0.852   2.356  0.3966  0.3709 -0.1175
19491TIP3    H179888   2.542   0.890   2.377 -0.2714  0.2420  3.5192
19491TIP3    H279889   2.467   0.759   2.376 -0.1580  0.0248 -1.3479
19492TIP3   OH279890   1.214   5.630   3.144 -0.0540  0.3280  0.1308
19492TIP3    H179891   1.126   5.608   3.176  0.2759 -0.1289  0.7458
19492TIP3    H279892   1.219   5.725   3.151 -0.4445  0.3414  0.2525
19493TIP3   OH279893   5.437   5.719  10.658 -0.0438 -0.4501 -0.0781
19493TIP3    H179894   5.468   5.628  10.653 -0.2382 -0.5271  0.0888
19493TIP3    H279895   5.450   5.753  10.569  1.0073 -0.3126  0.1189
19494TIP3   OH279896   6.708   2.678   4.790  0.4854  0.4216  0.1113
19494TIP3    H179897   6.693   2.592   4.750 -1.9985 -0.0014  1.7296
19494TIP3    H279898   6.743   2.658   4.877  0.3106  1.0593  0.3308
19495TIP3   OH279899   5.169   6.557   1.482  0.3380  0.2588 -0.0636
19495TIP3    H179900   5.185   6.523   1.570  0.4047  1.0948  0.2481
19495TIP3    H279901   5.144   6.648   1.495 -0.6660  0.1081 -0.8423
19496TIP3   OH279902   1.240   3.361  13.740 -0.0966 -0.0150  0.4425
19496TIP3    H179903   1.267   3.432  13.798  0.3867 -0.3480  0.6250
19496TIP3    H279904   1.148   3.347  13.761  0.0397 -0.0437  1.0399
19497TIP3   OH279905   2.288   3.796   2.424 -0.1903 -0.5490 -0.2343
19497TIP3    H179906   2.356   3.777   2.489  0.6242 -0.4808 -1.0425
19497TIP3    H279907   2.332   3.852   2.359 -1.5094  1.0054  0.1530
19498TIP3   OH279908   4.620   0.361   3.196  0.3695 -0.1216 -0.4626
19498TIP3    H179909   4.618   0.444   3.244  0.2275 -0.4522  0.1020
19498TIP3    H279910   4.628   0.387   3.104  2.0570  0.5066 -0.1858
19499TIP3   OH279911   3.867   0.820   2.092 -0.5552  0.0542 -0.1069
19499TIP3    H179912   3.783   0.775   2.089 -1.6445  2.0213 -1.6118
19499TIP3    H279913   3.928   0.758   2.052 -1.5977 -0.8238 -0.3900
19500TIP3   OH279914   0.958   1.854   4.043  0.5789 -0.0290  0.0498
19500TIP3    H179915   0.874   1.895   4.020 -0.3628 -1.4593  0.7906
19500TIP3    H279916   0.934   1.770   4.083  2.2980  0.3475  2.0375
19501TIP3   OH279917   2.991   5.982   4.505 -0.0256 -0.2573 -0.4387
19501TIP3    H179918   2.918   6.037   4.531 -1.6701 -2.6363  0.3090
19501TIP3    H279919   2.989   5.982   4.409 -0.6510  0.1446 -0.4279
19502TIP3   OH279920   1.656   6.130   5.001  0.2651 -0.0302  0.0369
19502TIP3    H179921   1.739   6.175   5.016  0.3381 -0.0758 -0.2334
19502TIP3    H279922   1.611   6.135   5.086  0.7778 -0.4942  0.3454
19503TIP3   OH279923   3.533   5.582  14.319 -0.0548 -0.6623 -0.1749
19503TIP3    H179924   3.577   5.587  14.234 -0.8069  0.8376 -0.5009
19503TIP3    H279925   3.604   5.595  14.383  0.5873 -2.2272 -0.5172
19504TIP3   OH279926   2.602   2.628   5.801  0.4747 -0.1003  0.5578
19504TIP3    H179927   2.645   2.551   5.839  0.1862 -0.6227 -0.1419
19504TIP3    H279928   2.517   2.595   5.771  0.9886  0.0834 -1.2521
19505TIP3   OH279929   3.997   4.855   1.644  0.2509  0.0887 -0.1809
19505TIP3    H179930   4.073   4.904   1.614 -0.2078 -0.5875 -2.7193
19505TIP3    H279931   3.941   4.921   1.686  1.7885  0.7463  0.9285
19506TIP3   OH279932   5.185   2.846   0.507 -0.1268  0.3012 -0.0031
19506TIP3    H179933   5.149   2.902   0.576 -2.2240 -0.5604 -0.3379
19506TIP3    H279934   5.181   2.758   0.543  2.2143  0.1740  0.1284
19507TIP3   OH279935   3.098   2.340   2.092  0.3924 -0.1134 -0.1692
19507TIP3    H179936   3.013   2.297   2.092  0.4221 -0.2659  1.9035
19507TIP3    H279937   3.139   2.314   2.174  1.0112  2.7043  0.5152
19508TIP3   OH279938   6.492   4.980  13.076 -0.2162  0.0948  0.0236
19508TIP3    H179939   6.398   4.968  13.061 -0.2033 -1.4107  0.9295
19508TIP3    H279940   6.500   5.072  13.100 -1.2568  0.5899 -1.3993
19509TIP3   OH279941   3.247   5.118   2.105 -0.2173 -1.2682 -0.0218
19509TIP3    H179942   3.340   5.132   2.086 -0.2363 -2.0731 -0.7566
19509TIP3    H279943   3.247   5.075   2.191  0.1065 -1.6627 -0.2184
19510TIP3   OH279944   4.695   4.727   2.680  0.7222 -0.1391  0.3214
19510TIP3    H179945   4.697   4.712   2.775 -2.0798 -2.2092  0.2030
19510TIP3    H279946   4.754   4.660   2.644  1.4547  0.3662  0.5673
19511TIP3   OH279947   7.072   3.724   5.713  0.4016 -0.0205 -0.0554
19511TIP3    H179948   7.032   3.709   5.798 -0.5698  0.4608 -0.4127
19511TIP3    H279949   7.056   3.644   5.663 -1.2050  0.6003 -0.5960
19512TIP3   OH279950   3.552   3.121   1.132 -0.6493 -0.1526 -0.1200
19512TIP3    H179951   3.551   3.086   1.221 -3.8870 -0.6058 -0.1963
19512TIP3    H279952   3.641   3.107   1.101  0.2091 -1.2037  2.5684
19513TIP3   OH279953   5.161   2.290  14.513  0.0021 -0.1901  0.0848
19513TIP3    H179954   5.076   2.256  14.542 -1.0924  1.8620 -0.5751
19513TIP3    H279955   5.153   2.385  14.521  0.9235  0.2964 -3.4090
19514TIP3   OH279956   5.305   6.003   4.479  0.1599 -0.3460 -0.1998
19514TIP3    H179957   5.314   5.922   4.428  1.2989 -0.3507 -0.0087
19514TIP3    H279958   5.290   6.071   4.413 -0.4827 -0.6526 -0.3829
19515TIP3   OH279959   5.092   6.043  11.887  0.1483  0.6145 -0.1163
19515TIP3    H179960   5.053   6.015  11.970 -2.2520  1.4665 -0.8727
19515TIP3    H279961   5.073   5.972  11.826 -1.4554  1.5634 -0.7945
19516TIP3   OH279962   0.146   5.464   3.553 -0.3226 -0.3246  0.3330
19516TIP3    H179963   0.088   5.523   3.600 -0.1770  0.0625  0.0292
19516TIP3    H279964   0.227   5.464   3.604 -0.0103  0.4393 -0.1535
19517TIP3   OH279965   2.928   5.330   4.711 -0.0034  0.2141  0.3548
19517TIP3    H179966   2.964   5.419   4.705 -1.2740  0.8082  1.0755
19517TIP3    H279967   2.996   5.274   4.675  0.0515  1.6649 -2.0256
19518TIP3   OH279968   1.218   3.622  15.089 -0.4218  0.0094 -0.1974
19518TIP3    H179969   1.214   3.590  15.179 -3.5974  2.6343  0.7845
19518TIP3    H279970   1.164   3.561  15.039 -0.5969 -0.1150  0.1443
19519TIP3   OH279971   0.168   5.416   2.200 -0.1052 -0.3426 -0.3976
19519TIP3    H179972   0.141   5.502   2.166 -0.8678 -0.7833 -0.9294
19519TIP3    H279973   0.247   5.395   2.149  0.3962  0.2685  0.1022
19520TIP3   OH279974   6.011   1.575   4.552 -0.3994  0.0692 -0.0001
19520TIP3    H179975   6.018   1.611   4.641 -0.9456 -1.0872  0.5427
19520TIP3    H279976   5.983   1.649   4.498 -2.4196  0.2903  1.2321
19521TIP3   OH279977   2.368   0.827  15.282  0.0498  0.3119  0.2955
19521TIP3    H179978   2.296   0.788  15.333  0.2869 -0.7878 -0.1865
19521TIP3    H279979   2.445   0.814  15.337  0.5356 -2.0247 -0.8061
19522TIP3   OH279980   1.573   4.726   0.646 -0.2275 -1.3506 -0.2888
19522TIP3    H179981   1.610   4.755   0.729 -1.2886 -2.4267  0.6089
19522TIP3    H279982   1.483   4.758   0.648 -0.4422 -1.9080 -0.7380
19523TIP3   OH279983   6.179   1.708   2.347 -0.2454 -0.3893 -0.2282
19523TIP3    H179984   6.179   1.616   2.373  0.8982  0.0690  1.5897
19523TIP3    H279985   6.269   1.725   2.321  0.3472  0.8944  2.3338
19524TIP3   OH279986   6.168   6.631   1.591  0.2615 -0.4081 -0.3079
19524TIP3    H179987   6.232   6.627   1.662 -0.3461  0.9858  0.3462
19524TIP3    H279988   6.175   6.720   1.557 -0.3151 -0.6857 -1.2039
19525TIP3   OH279989   3.885   1.045   4.015  0.0110  0.5345 -0.2926
19525TIP3    H179990   3.856   1.013   3.930 -0.9852 -0.3060  0.3397
19525TIP3    H279991   3.818   1.015   4.077  1.6617 -0.5401  1.0729
19526TIP3   OH279992   4.874   3.904   5.494 -0.4035  0.5729 -0.1605
19526TIP3    H179993   4.824   3.823   5.509  3.2056 -1.7164  0.9713
19526TIP3    H279994   4.909   3.926   5.580  0.2290  2.2869 -0.8163
19527TIP3   OH279995   0.313   0.995   2.107  0.3970 -0.1104  0.4808
19527TIP3    H179996   0.402   1.028   2.122 -0.3082  2.3154 -0.2587
19527TIP3    H279997   0.326   0.904   2.081  2.8656  0.6955 -1.6201
19528TIP3   OH279998   0.037   1.324   1.168  0.2853 -0.0674  0.6971
19528TIP3    H179999  -0.000   1.250   1.218 -0.6489 -0.3450 -0.3664
19528TIP3    H280000   0.117   1.346   1.215 -0.6534 -0.1808  2.4501
19529TIP3   OH280001   4.316   4.024   3.047  0.7719 -0.2830  0.6810
19529TIP3    H180002   4.387   3.963   3.067  0.4769 -1.2471 -0.9903
19529TIP3    H280003   4.282   3.993   2.963 -1.7984 -0.0339  1.5461
19530TIP3   OH280004   1.336   5.145   4.983 -0.3457  0.3583  0.9396
19530TIP3    H180005   1.334   5.145   5.079  1.7328 -1.5339  1.0472
19530TIP3    H280006   1.288   5.066   4.958 -1.7483  1.3600  0.3249
19531TIP3   OH280007   6.093   1.986   1.922 -0.0511 -0.0717  0.6051
19531TIP3    H180008   6.100   1.891   1.909 -1.9881 -0.1434 -0.1824
19531TIP3    H280009   6.118   2.024   1.838 -1.2132  0.0049  0.2814
19532TIP3   OH280010   5.304   0.766   3.602  0.3982  0.2005 -0.3250
19532TIP3    H180011   5.228   0.824   3.611 -0.2902 -0.9365  1.9172
19532TIP3    H280012   5.360   0.789   3.677  1.0423 -0.7261 -0.5073
19533TIP3   OH280013   4.507   0.046   2.370 -0.2863 -0.1090  0.0080
19533TIP3    H180014   4.537   0.009   2.453  1.7132 -0.4030 -0.7828
19533TIP3    H280015   4.427   0.095   2.393  0.8822  0.8874  2.3505
19534TIP3   OH280016   4.527   3.091   3.116  0.4222  0.0384  0.7764
19534TIP3    H180017   4.552   3.130   3.200  1.8643  1.0454 -0.0683
19534TIP3    H280018   4.604   3.040   3.090  0.6844  1.1197 -0.7023
19535TIP3   OH280019   3.863   2.396   2.368 -0.0304  0.0393 -0.9251
19535TIP3    H180020   3.819   2.473   2.333  0.3264  0.1918 -1.0421
19535TIP3    H280021   3.887   2.345   2.291 -0.9921 -0.5987 -0.8211
19536TIP3   OH280022   6.712   3.686   1.044 -0.0152  0.2391 -0.0408
19536TIP3    H180023   6.794   3.637   1.057 -1.1066 -2.1358 -1.4808
19536TIP3    H280024   6.651   3.648   1.107 -0.0656  2.0187  1.0402
19537TIP3   OH280025   5.391   5.004   2.739 -0.1046 -0.5746  0.0350
19537TIP3    H180026   5.469   5.015   2.684  0.0354  0.5018  0.4276
19537TIP3    H280027   5.340   5.084   2.725  0.4114  0.1874  2.1891
19538TIP3   OH280028   0.861   1.631  15.091  0.3154 -0.0282  0.2068
19538TIP3    H180029   0.854   1.719  15.127 -0.0186  0.6559 -1.4820
19538TIP3    H280030   0.842   1.574  15.166 -1.5150  1.3560  0.8818
19539TIP3   OH280031   6.542   0.324  13.102  0.4346 -0.1326  0.4712
19539TIP3    H180032   6.546   0.329  13.007 -0.2070 -0.9569  0.3927
19539TIP3    H280033   6.450   0.307  13.122  0.5638  0.0251  1.2412
19540TIP3   OH280034   4.934   1.237   3.087 -0.0556 -0.2484 -0.0138
19540TIP3    H180035   5.015   1.196   3.117  0.7303  0.4126 -1.1731
19540TIP3    H280036   4.871   1.219   3.157  1.0193 -0.9752  0.7976
19541TIP3   OH280037   0.125   3.520  13.549 -0.3205 -0.1825  0.0380
19541TIP3    H180038   0.080   3.530  13.633 -2.5773 -1.5488 -0.9262
19541TIP3    H280039   0.057   3.534  13.484  1.1739 -0.1296 -1.5870
19542TIP3   OH280040   4.700   2.498   1.398  0.3985  0.4841  0.0491
19542TIP3    H180041   4.716   2.592   1.394  1.7517  0.2346 -1.4439
19542TIP3    H280042   4.787   2.459   1.396 -0.1757 -0.8423 -1.7731
19543TIP3   OH280043   1.808   2.615  12.581  0.3118  0.0303 -0.4222
19543TIP3    H180044   1.863   2.602  12.504  0.9715 -1.7516  0.3085
19543TIP3    H280045   1.731   2.560  12.565 -0.2310  0.7585 -0.4141
19544TIP3   OH280046   6.000   4.277   3.707 -0.2776 -0.0676 -0.5644
19544TIP3    H180047   5.976   4.361   3.669  1.6443  0.2263 -1.2630
19544TIP3    H280048   5.986   4.214   3.636 -0.2354 -0.0993 -0.5448
19545TIP3   OH280049   0.353   6.287   3.929 -0.0695  0.1163  0.0351
19545TIP3    H180050   0.411   6.322   3.861 -0.2493 -1.3517 -0.9300
19545TIP3    H280051   0.335   6.198   3.900  1.2557 -1.2067  2.9096
19546TIP3   OH280052   0.196   2.141  14.450  0.6092  0.5381  0.3299
19546TIP3    H180053   0.137   2.184  14.512  0.3181 -1.1991  1.3060
19546TIP3    H280054   0.146   2.067  14.416  1.8265 -0.3270  0.3550
19547TIP3   OH280055   1.642   0.750   2.395  0.0305 -0.0538 -0.1295
19547TIP3    H180056   1.683   0.836   2.381 -0.1210  0.0806  0.2354
19547TIP3    H280057   1.626   0.746   2.489  0.8481 -0.8620 -0.0154
19548TIP3   OH280058   0.313   0.217   4.708 -0.5760  0.4875 -0.0850
19548TIP3    H180059   0.289   0.129   4.681  1.5635 -0.4381  0.8044
19548TIP3    H280060   0.404   0.227   4.680  0.8087  0.5888  3.7717
19549TIP3   OH280061   3.795   0.418   5.805  0.6107 -0.0699 -0.3535
19549TIP3    H180062   3.743   0.442   5.728  2.7119 -2.9358 -2.8787
19549TIP3    H280063   3.885   0.438   5.781  1.2741 -0.4105  1.6557
19550TIP3   OH280064   2.362   2.843   2.978 -0.1120 -0.1274  0.1216
19550TIP3    H180065   2.371   2.909   2.909 -0.6639  0.0285  0.1977
19550TIP3    H280066   2.343   2.762   2.930  1.1420 -0.3621 -0.0104
19551TIP3   OH280067   7.083   5.590   3.302  0.1711 -0.7183  0.4323
19551TIP3    H180068   7.061   5.628   3.387 -0.9020 -0.5834  0.1082
19551TIP3    H280069   7.120   5.504   3.323 -1.8636 -1.5100  0.9794
19552TIP3   OH280070   1.465   1.527  14.663 -0.1862  0.1295 -0.5247
19552TIP3    H180071   1.441   1.553  14.574 -1.5369 -0.0037 -0.2235
19552TIP3    H280072   1.534   1.589  14.688  1.4557 -0.8882 -2.2450
19553TIP3   OH280073   4.819   1.842  12.030  0.3593 -0.2499 -0.1547
19553TIP3    H180074   4.780   1.914  12.080  1.5763  0.3651 -0.0537
19553TIP3    H280075   4.786   1.763  12.073 -2.1914  0.1575 -1.1715
19554TIP3   OH280076   1.362   4.473   3.793 -0.2467 -0.1655 -0.2618
19554TIP3    H180077   1.357   4.399   3.854 -0.8163  0.9109  1.0567
19554TIP3    H280078   1.324   4.440   3.712 -3.6621 -0.3770  1.2653
19555TIP3   OH280079   6.548   0.488   1.194  0.0973 -0.3346  0.1941
19555TIP3    H180080   6.454   0.485   1.214 -0.1790  0.4799 -0.8781
19555TIP3    H280081   6.583   0.406   1.228 -1.3260 -1.4487 -0.9305
19556TIP3   OH280082   2.192   4.762   5.609  0.1628 -0.0602 -0.3866
19556TIP3    H180083   2.236   4.846   5.623 -0.6681  0.4704 -0.8657
19556TIP3    H280084   2.189   4.722   5.696  1.0310  0.1637 -0.2399
19557TIP3   OH280085   1.532   2.200   4.855 -0.3719 -0.1567 -0.0405
19557TIP3    H180086   1.617   2.243   4.851 -1.0988  1.3849  0.3301
19557TIP3    H280087   1.475   2.263   4.899 -2.0160 -0.6114 -1.4008
19558TIP3   OH280088   4.028   1.763   4.615 -0.8015 -0.0113 -0.3777
19558TIP3    H180089   4.077   1.712   4.550 -1.4166 -0.3147 -0.6078
19558TIP3    H280090   4.013   1.847   4.573 -5.3287 -1.6332 -2.7112
19559TIP3   OH280091   0.710   4.560   1.725 -0.3447 -0.5185  0.0587
19559TIP3    H180092   0.626   4.571   1.770 -1.5908 -0.9141 -2.0678
19559TIP3    H280093   0.738   4.472   1.748 -0.4027 -0.3369  0.8820
19560TIP3   OH280094   1.974   6.289  14.110  0.0544 -0.2406  0.0761
19560TIP3    H180095   1.881   6.283  14.087 -0.7283  0.1469  2.7671
19560TIP3    H280096   1.987   6.219  14.174  0.8087  1.4789  1.9307
19561TIP3   OH280097   3.508   3.728  14.070 -0.3870  0.6863 -0.5362
19561TIP3    H180098   3.541   3.679  13.995 -1.0539 -0.2334 -0.2333
19561TIP3    H280099   3.457   3.799  14.031 -3.8568 -1.8591 -1.0339
19562TIP3   OH280100   4.423   3.883  14.675  0.2677  0.3562  0.2654
19562TIP3    H180101   4.495   3.930  14.633 -0.0818  1.3316  0.7439
19562TIP3    H280102   4.344   3.921  14.638 -0.0233 -0.5646 -0.0942
19563TIP3   OH280103   3.834   4.116   5.635 -0.4920 -0.4418 -0.1498
19563TIP3    H180104   3.874   4.079   5.714  1.5655  0.8829 -0.4930
19563TIP3    H280105   3.743   4.132   5.659  0.1459  0.1561  2.0550
19564TIP3   OH280106   2.411   1.541   3.776  0.8417  0.2840 -0.1396
19564TIP3    H180107   2.366   1.598   3.713 -2.8268 -0.1317  1.7843
19564TIP3    H280108   2.414   1.593   3.856 -0.0205 -1.1763  0.8818
19565TIP3   OH280109   1.229   2.042   3.864  0.5599  0.0413 -0.2319
19565TIP3    H180110   1.188   1.955   3.860 -0.1528  0.2190  2.1268
19565TIP3    H280111   1.157   2.103   3.852  1.0485  0.3701 -1.7821
19566TIP3   OH280112   1.801   4.831   5.817  0.2800  0.0592 -0.0268
19566TIP3    H180113   1.770   4.921   5.825 -0.8400 -0.4574  2.8671
19566TIP3    H280114   1.724   4.777   5.835  1.1235 -1.4859 -0.7781
19567TIP3   OH280115   5.452   2.380   4.288  0.1388 -0.0630 -0.4795
19567TIP3    H180116   5.435   2.285   4.286 -0.4231  0.0323 -0.4560
19567TIP3    H280117   5.375   2.419   4.246  0.4179  0.3793 -0.5883
19568TIP3   OH280118   1.679   2.738  11.259 -0.5626  0.3583 -0.1803
19568TIP3    H180119   1.650   2.690  11.182 -1.3100  0.5868 -0.0440
19568TIP3    H280120   1.666   2.678  11.332  0.4167  0.0340 -0.2487
19569TIP3   OH280121   4.042   5.698  14.506 -0.2981  0.0546 -0.3017
19569TIP3    H180122   4.080   5.711  14.593  2.4354 -0.0847 -1.3715
19569TIP3    H280123   4.102   5.637  14.463 -1.9626 -0.4312 -2.0769
19570TIP3   OH280124   6.567   4.849   4.812 -0.1559  0.0034 -0.0525
19570TIP3    H180125   6.561   4.856   4.717 -1.0338  1.5974  0.0783
19570TIP3    H280126   6.483   4.812   4.839  0.5207 -1.5310  0.0541
19571TIP3   OH280127   3.563   4.456   1.792  0.1031  0.4867 -0.1905
19571TIP3    H180128   3.614   4.530   1.824 -0.0491 -0.3589  2.2058
19571TIP3    H280129   3.614   4.379   1.817  0.3717 -0.2848 -2.8344
19572TIP3   OH280130   5.495   0.118   5.624 -0.4304 -0.1332  0.0324
19572TIP3    H180131   5.463   0.086   5.539 -1.2357 -1.5518  0.8261
19572TIP3    H280132   5.443   0.069   5.689 -0.1639  1.2647  1.3481
19573TIP3   OH280133   5.711   3.276   4.984  0.0829  0.4283  0.5773
19573TIP3    H180134   5.747   3.362   5.005  0.3180  0.5408 -0.2444
19573TIP3    H280135   5.616   3.288   4.987  0.1049  0.9989 -0.5914
19574TIP3   OH280136   5.447   4.487   0.233 -0.2068 -0.1682  0.0826
19574TIP3    H180137   5.522   4.432   0.257  0.0826 -0.5591 -1.5872
19574TIP3    H280138   5.401   4.502   0.316  1.2778 -0.5549  1.0284
19575TIP3   OH280139   0.233   5.133   3.725  0.2582  0.0781  0.5534
19575TIP3    H180140   0.304   5.185   3.764 -0.1727 -1.3171  3.4973
19575TIP3    H280141   0.216   5.175   3.641  1.6062  3.1358  1.6562
19576TIP3   OH280142   2.876   1.171  14.487  0.0273 -0.0262 -0.4276
19576TIP3    H180143   2.869   1.083  14.449 -0.4928 -0.2508  0.1682
19576TIP3    H280144   2.867   1.157  14.581 -0.3288  0.6976 -0.3478
19577TIP3   OH280145   5.937   6.501   4.177  0.0372 -0.3869 -0.0190
19577TIP3    H180146   5.868   6.559   4.146  0.7012  0.1747 -0.4857
19577TIP3    H280147   6.001   6.559   4.218  0.0013 -0.9473  0.8695
19578TIP3   OH280148   2.479   5.355  15.496  0.1070 -0.3460  0.1995
19578TIP3    H180149   2.522   5.269  15.493  0.2457 -0.2676 -0.1459
19578TIP3    H280150   2.527   5.404  15.561  0.7548 -0.1493 -0.4161
19579TIP3   OH280151   1.950   0.095   2.354 -0.0642 -0.4872  0.0206
19579TIP3    H180152   1.923   0.088   2.446 -0.2252 -1.0114 -0.0609
19579TIP3    H280153   2.017   0.164   2.354 -0.7623  0.1991  0.3674
19580TIP3   OH280154   6.208   3.104   5.226 -0.4356 -0.2465 -0.1348
19580TIP3    H180155   6.236   3.148   5.305 -1.9081  0.3508  0.0828
19580TIP3    H280156   6.192   3.174   5.163 -0.6957 -0.6213 -0.4952
19581TIP3   OH280157   2.414   2.456   0.116  0.4742  0.2882 -0.4465
19581TIP3    H180158   2.467   2.450   0.036 -0.2317  1.1137 -0.9933
19581TIP3    H280159   2.388   2.366   0.134  1.3598 -0.0228 -0.6452
19582TIP3   OH280160   3.885   4.678   4.042  0.3271 -0.0958  0.0837
19582TIP3    H180161   3.795   4.659   4.016  0.6663 -2.0902  0.1845
19582TIP3    H280162   3.888   4.653   4.135  0.7955  0.7068  0.2928
19583TIP3   OH280163   4.004   3.321   4.412  0.2777  0.0108  0.3833
19583TIP3    H180164   4.091   3.286   4.432  1.5178  0.7410 -2.9683
19583TIP3    H280165   4.017   3.416   4.414 -0.4368  0.1203 -0.1514
19584TIP3   OH280166   5.434   2.817  13.917  1.0658  0.0408  0.7260
19584TIP3    H180167   5.451   2.870  13.995  1.7642  0.2835  0.4117
19584TIP3    H280168   5.518   2.812  13.872  0.3882  1.1340 -0.7700
19585TIP3   OH280169   4.086   1.456   3.840 -0.4142  0.2265  0.0767
19585TIP3    H180170   4.023   1.528   3.835  0.1022  0.6127 -2.1329
19585TIP3    H280171   4.111   1.452   3.932 -2.6449  0.9380  0.7653
19586TIP3   OH280172   5.168   0.974   4.276 -0.3797 -0.8335  0.3322
19586TIP3    H180173   5.203   0.907   4.335  0.7285 -0.8340 -0.2818
19586TIP3    H280174   5.226   0.970   4.199 -0.7627  0.3087 -0.0338
19587TIP3   OH280175   3.444   5.136   5.263  0.4375  0.1976  0.5836
19587TIP3    H180176   3.359   5.105   5.294  0.7395 -0.8358  0.4332
19587TIP3    H280177   3.424   5.193   5.190 -0.0846 -1.5766 -0.7188
19588TIP3   OH280178   2.290   2.024   5.125  0.3389 -0.0559 -0.2644
19588TIP3    H180179   2.265   1.932   5.119  1.2974 -0.3156 -0.4343
19588TIP3    H280180   2.260   2.052   5.211  1.0077 -0.8363  0.2366
19589TIP3   OH280181   3.726   0.373   3.270  0.4946  0.0094  0.6279
19589TIP3    H180182   3.785   0.429   3.320  0.9340 -1.2183  1.5366
19589TIP3    H280183   3.688   0.314   3.335 -0.5006 -0.2824 -0.1921
19590TIP3   OH280184   6.658   7.095  13.702 -0.0645 -0.3436 -0.4338
19590TIP3    H180185   6.740   7.048  13.683  0.7489  1.7057 -2.4811
19590TIP3    H280186   6.684   7.186  13.711 -1.7830 -0.0254  2.0544
19591TIP3   OH280187   0.460   4.824   5.820 -0.2034  0.6684  0.4853
19591TIP3    H180188   0.371   4.852   5.842 -0.7244 -0.1526 -0.4470
19591TIP3    H280189   0.469   4.845   5.727  1.1454  2.1095  0.9066
19592TIP3   OH280190   4.678   2.735   2.859 -0.7561  0.2914 -0.1421
19592TIP3    H180191   4.685   2.691   2.774  1.6245  0.3816 -0.0729
19592TIP3    H280192   4.661   2.664   2.921  3.8079 -0.9742  0.0820
19593TIP3   OH280193   0.330   2.911   3.840  0.4031 -0.1496 -0.5175
19593TIP3    H180194   0.305   2.839   3.898  0.1272 -0.0411 -0.4985
19593TIP3    H280195   0.247   2.940   3.801  0.4453  0.4488 -0.1782
19594TIP3   OH280196   3.519   0.805   4.788  0.0602  0.3763  0.7735
19594TIP3    H180197   3.480   0.718   4.791 -1.6125  1.0642  0.2697
19594TIP3    H280198   3.530   0.824   4.695 -0.6573  1.1301  0.8246
19595TIP3   OH280199   5.763   6.079   5.089  0.7100 -0.4481 -0.3142
19595TIP3    H180200   5.731   6.140   5.023 -2.0709 -1.4682 -0.0498
19595TIP3    H280201   5.856   6.100   5.099  0.5956  1.4895 -2.5853
19596TIP3   OH280202   0.271   6.604   5.627  0.5280  0.3582 -0.1059
19596TIP3    H180203   0.189   6.555   5.634  0.8708  0.0229  2.3017
19596TIP3    H280204   0.339   6.536   5.627  0.8858  0.7140 -0.0663
19597TIP3   OH280205   5.162   7.018   1.785  0.0732  0.4862  0.2033
19597TIP3    H180206   5.177   7.062   1.869 -0.1874  2.1265 -0.5518
19597TIP3    H280207   5.199   7.078   1.720 -0.4054 -0.3869 -0.9057
19598TIP3   OH280208   1.301   3.136   2.850 -0.4800  0.2283 -0.1196
19598TIP3    H180209   1.329   3.205   2.910 -1.2795 -0.1677  0.7422
19598TIP3    H280210   1.270   3.182   2.772 -2.1901  0.9331  0.9394
19599TIP3   OH280211   4.059   3.375   3.496 -0.0151  0.4970  0.1648
19599TIP3    H180212   4.052   3.470   3.503 -1.8866  0.6524 -2.2663
19599TIP3    H280213   4.028   3.355   3.407 -0.7338 -2.4790  0.9620
19600TIP3   OH280214   3.150   3.442  15.346  0.5541  0.4037 -0.3242
19600TIP3    H180215   3.147   3.448  15.441  2.4839 -0.7659 -0.1269
19600TIP3    H280216   3.116   3.526  15.315 -1.6173  0.1912  1.3308
19601TIP3   OH280217   5.720   1.284   4.047 -0.0217 -0.5926  0.6717
19601TIP3    H180218   5.752   1.198   4.074 -0.8024 -0.9097  0.6185
19601TIP3    H280219   5.710   1.277   3.952  1.4261  0.0823  0.4434
19602TIP3   OH280220   3.602   6.558   2.843 -0.3637 -0.3278 -0.1784
19602TIP3    H180221   3.648   6.478   2.816 -1.4638 -0.8385 -0.6388
19602TIP3    H280222   3.577   6.600   2.760 -1.7767 -0.7108  0.0292
19603TIP3   OH280223   3.259   3.617   2.683 -0.3806  0.7939 -0.0082
19603TIP3    H180224   3.342   3.610   2.636 -0.1522  0.4066  0.4511
19603TIP3    H280225   3.229   3.527   2.692  0.3594  0.7172  1.9888
19604TIP3   OH280226   0.820   5.764  15.134  0.1100 -0.2876  0.0228
19604TIP3    H180227   0.775   5.786  15.216  1.0555 -0.6915  0.6817
19604TIP3    H280228   0.854   5.847  15.102  1.0721 -0.3215  0.8907
19605TIP3   OH280229   2.793   6.821   5.062  0.2632  0.0544  0.0267
19605TIP3    H180230   2.772   6.736   5.023 -0.6882  0.5194 -0.5130
19605TIP3    H280231   2.745   6.823   5.144  0.1837  0.1076 -0.0199
19606TIP3   OH280232   3.959   4.167  12.891  0.0018  0.1977  0.0091
19606TIP3    H180233   4.015   4.096  12.923  2.0910  1.2026 -1.1986
19606TIP3    H280234   3.959   4.157  12.796 -2.0378  0.1701 -0.0318
19607TIP3   OH280235   7.076   3.311   4.738 -0.2357 -0.6998  0.0634
19607TIP3    H180236   7.071   3.341   4.647 -3.0684 -0.5364  0.1940
19607TIP3    H280237   7.043   3.221   4.735 -0.3340 -0.6976  0.9186
19608TIP3   OH280238   1.135   1.471   5.613  0.1607  0.0450 -0.3773
19608TIP3    H180239   1.143   1.434   5.700  0.4512  3.0986  1.0260
19608TIP3    H280240   1.041   1.489   5.602  0.3803  1.8867  0.3997
19609TIP3   OH280241   6.933   0.357   4.294  0.1344 -0.1508  0.6690
19609TIP3    H180242   6.857   0.300   4.280 -0.1552 -0.1637  2.1122
19609TIP3    H280243   6.901   0.426   4.352 -0.0338  2.6859 -2.4961
19610TIP3   OH280244   1.610   1.140   0.736  0.2927  0.2250  0.4086
19610TIP3    H180245   1.598   1.168   0.645 -0.2580  0.6796  0.6188
19610TIP3    H280246   1.567   1.055   0.741 -0.2517  0.5006  0.4105
19611TIP3   OH280247   3.106   5.206   0.991  0.1818 -0.2993  0.4357
19611TIP3    H180248   3.099   5.112   1.007 -1.3378 -0.1309  0.9680
19611TIP3    H280249   3.033   5.244   1.041 -1.5741  0.7886 -2.6570
19612TIP3   OH280250   0.981   2.346   1.843 -0.3509 -0.4563 -0.5682
19612TIP3    H180251   0.973   2.283   1.772  3.3529 -0.2074 -1.4218
19612TIP3    H280252   0.991   2.292   1.922 -4.3049 -0.7288 -0.0333
19613TIP3   OH280253   3.902   6.834   2.699  0.0644  0.1987  0.3225
19613TIP3    H180254   3.895   6.858   2.791 -0.8502  0.3854  0.2112
19613TIP3    H280255   3.823   6.870   2.658  0.5625  0.3032 -0.5744
19614TIP3   OH280256   5.472   1.574  12.871 -0.1110 -0.2546 -0.0528
19614TIP3    H180257   5.409   1.503  12.886 -0.3230 -0.1470 -0.4058
19614TIP3    H280258   5.553   1.544  12.912 -0.7169  0.1336  1.5035
19615TIP3   OH280259   5.727   0.161   1.050  0.2500  0.4246 -0.1178
19615TIP3    H180260   5.806   0.153   1.104  0.2274  1.4650  0.0903
19615TIP3    H280261   5.760   0.174   0.961  0.3018  0.1258 -0.1431
19616TIP3   OH280262   6.426   6.290   4.280  0.1148  0.1891  0.0325
19616TIP3    H180263   6.334   6.307   4.260  0.6287  1.5445 -1.3828
19616TIP3    H280264   6.441   6.332   4.364 -1.0844 -2.0475  1.4647
19617TIP3   OH280265   1.023   0.337   5.354  0.7901  0.7359 -0.0929
19617TIP3    H180266   1.108   0.302   5.330  0.3437 -0.7935  0.4529
19617TIP3    H280267   0.992   0.381   5.275 -0.8336 -4.5026 -2.8285
19618TIP3   OH280268   1.683   2.429  11.078  0.1791 -0.1012  0.4204
19618TIP3    H180269   1.633   2.415  11.159  0.8519  2.0096  1.2802
19618TIP3    H280270   1.772   2.400  11.100  0.5318  1.1534  0.7175
19619TIP3   OH280271   4.723   2.048   1.538  0.4710 -0.0072 -0.6104
19619TIP3    H180272   4.631   2.025   1.548 -0.0231  2.0221 -0.1220
19619TIP3    H280273   4.757   1.984   1.475 -1.7012  0.2374 -2.1328
19620TIP3   OH280274   6.420   6.192  12.957 -0.1282  0.2197 -0.1977
19620TIP3    H180275   6.397   6.170  12.866  0.7147  0.5924 -0.5144
19620TIP3    H280276   6.388   6.281  12.969  1.2795  0.8206 -0.7098
19621TIP3   OH280277   3.781   6.314   4.715 -0.2469  0.1462  0.2373
19621TIP3    H180278   3.762   6.306   4.809 -0.7413 -0.5241  0.0846
19621TIP3    H280279   3.723   6.251   4.673 -0.0757  0.4883 -0.5330
19622TIP3   OH280280   3.080   0.081  10.916 -0.0154 -0.2334 -0.2675
19622TIP3    H180281   3.113   0.058  11.003 -1.6208 -2.1174 -0.0624
19622TIP3    H280282   3.052   0.172  10.924  1.5946  0.2146  0.6022
19623TIP3   OH280283   4.826   7.087   4.292  0.0800 -0.3596 -0.2566
19623TIP3    H180284   4.794   7.050   4.211 -0.3572 -1.5575  0.4427
19623TIP3    H280285   4.775   7.043   4.361  1.4454 -0.4404  0.7393
19624TIP3   OH280286   2.103   4.507  10.896  0.4652 -0.0143 -0.5284
19624TIP3    H180287   2.140   4.530  10.981  0.4411  1.6027 -0.9284
19624TIP3    H280288   2.165   4.541  10.832 -0.5917  0.7454 -1.1821
19625TIP3   OH280289   6.447   0.834   4.907  0.4535 -0.0109  0.0279
19625TIP3    H180290   6.466   0.750   4.948  1.8173  0.4731  0.4414
19625TIP3    H280291   6.353   0.845   4.918  0.6636 -0.1600  2.5671
19626TIP3   OH280292   1.511   4.260   1.831  0.4333 -0.3093  0.3058
19626TIP3    H180293   1.532   4.344   1.871 -0.0933  0.6911 -1.4392
19626TIP3    H280294   1.590   4.233   1.785 -0.5610  1.3726 -2.6699
19627TIP3   OH280295   1.316   1.861  10.680  0.2350 -0.2455 -0.1026
19627TIP3    H180296   1.323   1.882  10.587 -0.0479 -0.3102 -0.1395
19627TIP3    H280297   1.398   1.817  10.700  1.2153  1.6284  0.1856
19628TIP3   OH280298   6.705   4.799   5.405 -0.0129  0.0947 -0.5785
19628TIP3    H180299   6.800   4.808   5.418 -0.2198  0.6728  0.7122
19628TIP3    H280300   6.669   4.882   5.434 -0.9074 -0.0171 -1.3317
19629TIP3   OH280301   3.164   2.704   1.836 -0.2275  0.2382  0.4504
19629TIP3    H180302   3.120   2.675   1.756  1.7524 -1.0612 -0.2303
19629TIP3    H280303   3.256   2.710   1.813  0.7115 -2.0078  3.0553
19630TIP3   OH280304   5.166   3.659   0.928  0.0632  0.1686  1.2405
19630TIP3    H180305   5.130   3.650   0.839 -0.1459  0.1716  1.3242
19630TIP3    H280306   5.231   3.590   0.935  1.9700  1.7452  0.1595
19631TIP3   OH280307   1.203   2.621  15.234  0.3641  0.1513  0.4138
19631TIP3    H180308   1.271   2.633  15.300  1.5194 -1.3451 -0.4524
19631TIP3    H280309   1.121   2.633  15.281  1.1862  0.3975  1.8259
19632TIP3   OH280310   0.747   3.674  14.904 -0.4674 -0.7033  0.5639
19632TIP3    H180311   0.695   3.715  14.835 -0.4887 -0.5217  0.6851
19632TIP3    H280312   0.783   3.596  14.864  0.2994 -0.0978  0.0551
19633TIP3   OH280313   5.317   4.416   6.079 -0.2485 -0.3378 -0.4376
19633TIP3    H180314   5.295   4.327   6.054 -2.2902 -0.3370  1.0817
19633TIP3    H280315   5.234   4.463   6.077  0.1122  0.6129  2.2328
19634TIP3   OH280316   4.018   4.366   0.054 -0.0066  0.2559 -1.1156
19634TIP3    H180317   3.929   4.359   0.088  0.2102 -0.7599 -0.7080
19634TIP3    H280318   4.073   4.327   0.122  0.5904 -0.4128 -1.9548
19635TIP3   OH280319   2.255   3.009   3.715 -0.0644  0.0050 -0.6817
19635TIP3    H180320   2.288   2.940   3.658  1.9166 -0.4361  0.8680
19635TIP3    H280321   2.165   3.023   3.687  0.2970 -1.3929 -2.7180
19636TIP3   OH280322   0.412   3.600  10.922  0.1377  0.3379 -0.4941
19636TIP3    H180323   0.437   3.691  10.936  3.1915 -0.6311  1.4528
19636TIP3    H280324   0.489   3.550  10.948 -2.5434 -2.9880  1.9338
19637TIP3   OH280325   0.191   5.109   3.343 -0.3967  0.0775 -0.0284
19637TIP3    H180326   0.117   5.056   3.372  0.5913 -0.2467  2.1633
19637TIP3    H280327   0.230   5.059   3.271 -1.0505 -0.8182  0.2213
19638TIP3   OH280328   3.944   3.604   0.772 -1.0410 -0.0851 -0.4298
19638TIP3    H180329   4.009   3.537   0.751  0.9455  1.6214 -0.0946
19638TIP3    H280330   3.860   3.567   0.743  0.5042 -0.8702 -4.6797
19639TIP3   OH280331   6.645   5.097  11.637 -0.2623 -0.3629  0.1093
19639TIP3    H180332   6.731   5.127  11.668 -0.5672  1.4550 -0.6946
19639TIP3    H280333   6.582   5.155  11.681 -1.1085 -1.5894  0.5944
19640TIP3   OH280334   0.351   1.605   5.705 -0.0303 -0.3413  0.3877
19640TIP3    H180335   0.296   1.677   5.734  0.0088 -0.4268  0.6818
19640TIP3    H280336   0.302   1.563   5.634 -1.2473 -1.5844  1.8985
19641TIP3   OH280337   4.708   2.657   2.589  0.0657 -0.0610 -0.2148
19641TIP3    H180338   4.628   2.671   2.539 -0.3758 -1.4417  0.0624
19641TIP3    H280339   4.775   2.703   2.540 -0.9600  1.5113 -0.2107
19642TIP3   OH280340   1.269   3.143   5.644  0.3591  0.0250 -0.4292
19642TIP3    H180341   1.226   3.213   5.692 -2.4476  0.3458 -3.1014
19642TIP3    H280342   1.307   3.186   5.567  0.1938 -1.0998 -1.1712
19643TIP3   OH280343   6.695   4.561   1.530  0.0759  0.7451  0.1257
19643TIP3    H180344   6.720   4.543   1.439  1.5076  3.8216 -0.2541
19643TIP3    H280345   6.605   4.532   1.537  0.3428 -0.7400 -1.8961
19644TIP3   OH280346   0.101   4.452   3.476 -0.1142 -0.2622  0.0852
19644TIP3    H180347   0.195   4.439   3.470  0.0087  0.2845  0.8232
19644TIP3    H280348   0.083   4.463   3.569 -0.5529  2.1434 -0.2189
19645TIP3   OH280349   0.983   1.387   1.257 -0.3596  0.1328  0.7069
19645TIP3    H180350   1.006   1.416   1.345 -1.0148 -0.2007  1.0039
19645TIP3    H280351   1.030   1.305   1.246  0.4398  0.6319  0.3887
19646TIP3   OH280352   6.195   5.147   3.510  0.0295 -0.5922  0.3074
19646TIP3    H180353   6.212   5.103   3.427  1.5576 -1.1627  0.8807
19646TIP3    H280354   6.109   5.114   3.537  0.5461 -2.2252  0.0714
19647TIP3   OH280355   5.075   1.566   1.821 -0.0668  0.1065 -0.8161
19647TIP3    H180356   5.166   1.575   1.851 -0.0156 -0.3759 -0.8196
19647TIP3    H280357   5.066   1.632   1.753  0.1407  0.4802 -0.4889
19648TIP3   OH280358   4.348   1.429   4.050  0.2344  0.3134 -0.2262
19648TIP3    H180359   4.345   1.336   4.028  1.0982 -0.3629  2.2228
19648TIP3    H280360   4.259   1.450   4.078 -0.1874  0.5003 -1.6185
19649TIP3   OH280361   2.120   4.322  13.231  0.2116  0.3112  0.6340
19649TIP3    H180362   2.210   4.351  13.217 -0.0495  0.3131 -1.1561
19649TIP3    H280363   2.129   4.231  13.258  0.7852  0.6623  1.7315
19650TIP3   OH280364   6.568   1.977   2.705 -0.1413  0.1969  0.2461
19650TIP3    H180365   6.481   2.016   2.714 -0.2452 -0.2946  1.5961
19650TIP3    H280366   6.610   1.994   2.789  1.5517  1.5304 -0.8084
19651TIP3   OH280367   1.124   1.868   2.310 -0.1551  0.4506 -0.1966
19651TIP3    H180368   1.138   1.873   2.405  0.7141 -1.0753 -0.2239
19651TIP3    H280369   1.192   1.808   2.279 -1.1131  0.0869 -1.6412
19652TIP3   OH280370   0.420   1.384  15.051  0.1876 -0.5600 -0.6191
19652TIP3    H180371   0.399   1.477  15.065  0.7790 -0.7217  1.7313
19652TIP3    H280372   0.501   1.385  15.000  0.5327  0.2420 -0.0768
19653TIP3   OH280373   1.304   4.943  15.531 -0.0183  0.3604  0.6540
19653TIP3    H180374   1.351   4.866  15.498 -2.0196 -0.0001 -1.6826
19653TIP3    H280375   1.234   4.907  15.585  0.6627  0.7374  1.8183
19654TIP3   OH280376   3.048   0.852   2.877 -0.5135  0.4077  0.6519
19654TIP3    H180377   3.127   0.802   2.860  0.6496  1.6367  2.1928
19654TIP3    H280378   3.079   0.940   2.898 -2.4392  1.6287 -1.1592
19655TIP3   OH280379   1.246   4.004  14.684  0.3974  0.2000  0.1109
19655TIP3    H180380   1.280   3.918  14.710 -0.6261 -0.2422  0.0451
19655TIP3    H280381   1.151   3.993  14.683  0.1915  1.6076  1.0422
19656TIP3   OH280382   3.138   4.193  13.466  0.0281  0.6179  0.1600
19656TIP3    H180383   3.227   4.166  13.445  0.1722  2.3619 -1.6942
19656TIP3    H280384   3.097   4.114  13.503  1.4570 -1.0522 -1.6417
19657TIP3   OH280385   6.737   1.790  15.181 -0.2956  0.6080 -0.3987
19657TIP3    H180386   6.725   1.696  15.170 -1.1969  0.8193 -1.4049
19657TIP3    H280387   6.776   1.819  15.099  2.0667  0.8189  0.7251
19658TIP3   OH280388   6.731   6.567   2.037  0.0640  0.1151 -0.5588
19658TIP3    H180389   6.646   6.532   2.011 -0.7561 -0.0963  2.1479
19658TIP3    H280390   6.722   6.662   2.029  0.2460  0.0299 -2.0539
19659TIP3   OH280391   0.568   0.737   0.518  0.1143 -0.1109 -0.4660
19659TIP3    H180392   0.619   0.657   0.508  1.1589  0.4517  0.1705
19659TIP3    H280393   0.509   0.719   0.591  1.1680  0.0966  0.4508
19660TIP3   OH280394   2.254   4.065  13.238 -0.3722  0.5813 -0.3018
19660TIP3    H180395   2.305   4.067  13.319 -0.9208  0.4404  0.0602
19660TIP3    H280396   2.318   4.071  13.168  0.0448  1.5637  0.1600
19661TIP3   OH280397   2.786   3.067  11.648 -0.5821 -0.2356 -0.0273
19661TIP3    H180398   2.696   3.088  11.621 -0.8365  1.0025  1.6099
19661TIP3    H280399   2.780   3.054  11.743  0.7769 -1.3451 -0.0594
19662TIP3   OH280400   5.147   0.096   5.404  0.0008  0.8176 -0.1536
19662TIP3    H180401   5.131   0.138   5.489 -0.9256 -0.5768  0.3939
19662TIP3    H280402   5.220   0.036   5.420 -0.1006  0.6338 -0.3626
19663TIP3   OH280403   4.987   6.800   2.889 -0.2541 -0.0724 -0.0358
19663TIP3    H180404   4.947   6.885   2.905  0.3573  0.0925  0.6758
19663TIP3    H280405   4.924   6.754   2.834  0.2459  1.5197 -2.0681
19664TIP3   OH280406   6.268   1.737  11.613  0.1400 -0.0737  0.8100
19664TIP3    H180407   6.303   1.794  11.682  1.0203  1.2894 -0.6735
19664TIP3    H280408   6.342   1.724  11.554 -0.0411 -2.8240  1.0771
19665TIP3   OH280409   2.702   5.858  13.504 -0.0961  0.7365 -0.3490
19665TIP3    H180410   2.661   5.868  13.590  0.6551  0.3342  0.0716
19665TIP3    H280411   2.772   5.794  13.519  1.0136  1.7882 -0.9201
19666TIP3   OH280412   4.608   6.135   4.143  0.4103 -0.0960 -0.0938
19666TIP3    H180413   4.669   6.125   4.216 -0.4146  2.0659  1.0083
19666TIP3    H280414   4.521   6.134   4.185 -0.1657 -0.5203 -1.2692
19667TIP3   OH280415   3.663   4.383   2.136  0.2343 -0.1126 -0.1367
19667TIP3    H180416   3.591   4.320   2.124  0.6811 -0.5671 -0.4567
19667TIP3    H280417   3.683   4.378   2.230 -3.1216  3.2915  1.0234
19668TIP3   OH280418   2.584   0.927   5.221  0.2467  0.6875 -0.2677
19668TIP3    H180419   2.556   0.927   5.312  1.7918 -2.9572  0.3852
19668TIP3    H280420   2.664   0.980   5.221 -0.4988  1.8561  0.1358
19669TIP3   OH280421   6.454   5.303   5.027  0.7201 -0.0448 -1.2500
19669TIP3    H180422   6.542   5.340   5.036  0.3192  0.7523 -0.4621
19669TIP3    H280423   6.468   5.208   5.025  1.5783  0.0616 -0.8720
19670TIP3   OH280424   6.341   3.986  10.605  0.0403  0.2737 -0.4840
19670TIP3    H180425   6.352   3.942  10.520  1.9780  1.2390 -0.7731
19670TIP3    H280426   6.323   4.077  10.582 -1.1731  0.2151  0.1535
19671TIP3   OH280427   5.716   2.074   1.549 -0.5418 -0.0585 -0.7719
19671TIP3    H180428   5.746   1.984   1.538 -1.4956 -0.3950 -0.7748
19671TIP3    H280429   5.625   2.073   1.519 -0.1595  1.2216 -2.0927
19672TIP3   OH280430   4.567   4.010  13.411  0.6022  0.3399  0.1658
19672TIP3    H180431   4.622   4.087  13.422  0.3682  0.4193  0.7649
19672TIP3    H280432   4.584   3.956  13.488 -0.1493  0.3584  0.3518
19673TIP3   OH280433   2.323   1.792   5.304  0.0312  0.0876 -0.0239
19673TIP3    H180434   2.322   1.769   5.397  1.3673 -1.2160 -0.2962
19673TIP3    H280435   2.414   1.816   5.286  0.4553 -2.3272 -1.5561
19674TIP3   OH280436   5.701   0.321   2.484  0.5407 -0.6618 -0.2322
19674TIP3    H180437   5.746   0.405   2.492 -2.1006  0.8611  0.1294
19674TIP3    H280438   5.685   0.294   2.575 -3.6833  1.6006 -0.0113
19675TIP3   OH280439   4.423   2.119   1.993  0.0510  0.0885  0.3129
19675TIP3    H180440   4.476   2.053   2.037  1.8971 -0.0878 -1.9855
19675TIP3    H280441   4.460   2.203   2.021 -0.9994  0.1420  1.6617
19676TIP3   OH280442   5.341   3.469  14.519 -0.1461 -0.3013 -0.3825
19676TIP3    H180443   5.426   3.507  14.542 -0.9414  1.2103  0.2682
19676TIP3    H280444   5.286   3.545  14.498 -1.2435 -1.2645 -1.1241
19677TIP3   OH280445   2.192   4.109  15.131  0.2942 -0.3161  0.3447
19677TIP3    H180446   2.252   4.138  15.201 -0.1650 -0.9776  1.0173
19677TIP3    H280447   2.221   4.158  15.054  0.6392  0.6353  1.0538
19678TIP3   OH280448   4.579   6.455   2.775 -0.1329  0.0480 -0.2573
19678TIP3    H180449   4.612   6.399   2.845 -1.3771 -0.3386  0.0511
19678TIP3    H280450   4.645   6.523   2.765 -0.1762  0.4384  1.6994
19679TIP3   OH280451   3.948   2.167   1.471 -0.2033  0.7424  0.0362
19679TIP3    H180452   3.990   2.173   1.557  0.7386  1.9096 -0.4889
19679TIP3    H280453   3.954   2.255   1.435  1.0190 -0.1220 -1.9967
19680TIP3   OH280454   4.150   3.738  14.383 -0.1314 -0.1734  0.2612
19680TIP3    H180455   4.063   3.725  14.344 -0.1392 -0.0992  0.2548
19680TIP3    H280456   4.211   3.713  14.313 -0.1155  1.6769 -0.4250
19681TIP3   OH280457   3.785   6.847   1.673 -0.0451  0.6474  0.1059
19681TIP3    H180458   3.702   6.830   1.717  0.7886 -0.9297  1.1505
19681TIP3    H280459   3.801   6.768   1.621  1.6250  0.1429  1.3048
19682TIP3   OH280460   5.679   1.673   0.665  0.2062  0.3667  0.0919
19682TIP3    H180461   5.690   1.601   0.603 -2.5943 -0.0007 -0.1046
19682TIP3    H280462   5.758   1.726   0.655  2.5747 -2.8241  0.5522
19683TIP3   OH280463   0.990   4.500   3.011 -0.1859 -1.2915  0.1785
19683TIP3    H180464   0.932   4.549   2.953  0.8952  0.8534  0.8090
19683TIP3    H280465   1.060   4.468   2.954  1.6205  1.9546  0.2987
19684TIP3   OH280466   1.232   4.548   1.159  0.5627  0.1240 -0.1602
19684TIP3    H180467   1.152   4.564   1.209 -0.2019  1.0878 -1.6407
19684TIP3    H280468   1.224   4.456   1.131 -0.2819  0.3572 -0.7253
19685TIP3   OH280469   0.636   0.056  13.715 -0.4326  0.5635  0.7729
19685TIP3    H180470   0.650   0.079  13.623 -0.7336  0.0343  0.5922
19685TIP3    H280471   0.705   0.103  13.762 -0.6107  1.2704  0.3376
19686TIP3   OH280472   6.830   4.937   2.869  0.3957 -0.8707  0.4234
19686TIP3    H180473   6.915   4.948   2.912  1.1095 -0.6221 -1.0190
19686TIP3    H280474   6.772   4.904   2.939  1.2446  0.4821  1.8318
19687TIP3   OH280475   5.613   2.200  11.596 -0.6281  0.0715 -0.1965
19687TIP3    H180476   5.530   2.195  11.643 -0.6891 -1.4131 -0.4322
19687TIP3    H280477   5.593   2.172  11.507 -0.2006  1.3745 -0.7228
19688TIP3   OH280478   5.404   6.522  13.215 -0.2028  0.4277  0.1249
19688TIP3    H180479   5.497   6.500  13.204 -0.2970 -0.2696  0.6546
19688TIP3    H280480   5.404   6.593  13.280 -0.0771 -0.0551  0.6627
19689TIP3   OH280481   6.770   3.366   3.100  0.4722  0.1404  0.4634
19689TIP3    H180482   6.821   3.345   3.022 -0.6912  1.5543 -0.7340
19689TIP3    H280483   6.684   3.326   3.084  0.1067  0.7631  0.8312
19690TIP3   OH280484   6.095   1.148  14.760 -0.8935 -0.2663 -0.0858
19690TIP3    H180485   6.054   1.120  14.679 -1.2351 -1.6066  0.5274
19690TIP3    H280486   6.187   1.162  14.736 -0.6652 -2.0868 -0.4165
19691TIP3   OH280487   2.623   3.120  15.384 -0.7590 -0.0327  0.3060
19691TIP3    H180488   2.568   3.091  15.457 -0.2764 -1.0463  0.2878
19691TIP3    H280489   2.648   3.209  15.406 -1.8407  0.2094  0.6442
19692TIP3   OH280490   5.546   5.660   1.058 -0.7291 -0.1296 -0.3698
19692TIP3    H180491   5.521   5.752   1.066 -2.9752 -0.7025 -0.2227
19692TIP3    H280492   5.582   5.653   0.969 -2.4824  0.4928 -1.1740
19693TIP3   OH280493   2.199   6.245   4.571 -0.6172 -0.2990 -0.1131
19693TIP3    H180494   2.145   6.283   4.640 -0.6979  0.3224 -0.5082
19693TIP3    H280495   2.217   6.156   4.600 -2.5741 -0.8169 -0.3777
19694TIP3   OH280496   2.792   6.797  13.165  0.1431  0.0850  0.0609
19694TIP3    H180497   2.865   6.805  13.103 -1.9311 -1.4540 -2.8189
19694TIP3    H280498   2.767   6.887  13.185  0.9567  0.6420 -1.2783
19695TIP3   OH280499   3.774   5.800   1.144  0.4633  0.1764  0.0139
19695TIP3    H180500   3.773   5.756   1.230  0.0313 -0.8308 -0.4875
19695TIP3    H280501   3.866   5.800   1.118  0.5850  0.4042  0.4342
19696TIP3   OH280502   6.624   6.482  14.672 -0.8630 -0.2405 -0.5375
19696TIP3    H180503   6.632   6.463  14.579 -2.2226 -2.1666 -0.3157
19696TIP3    H280504   6.601   6.575  14.676 -0.0751  0.0556 -2.0492
19697TIP3   OH280505   2.744   1.176   4.486 -0.2507  0.0085 -0.3747
19697TIP3    H180506   2.669   1.116   4.491 -0.6986  0.6078  0.4130
19697TIP3    H280507   2.812   1.127   4.440  0.1980 -1.9739  2.1637
19698TIP3   OH280508   0.621   1.007   0.542  0.2098 -0.0812  0.3642
19698TIP3    H180509   0.666   1.010   0.626 -2.0328 -1.9608  1.7810
19698TIP3    H280510   0.626   0.915   0.515  1.1191  0.5262 -1.7726
19699TIP3   OH280511   5.592   5.731   3.880 -0.1414  0.1143  0.4114
19699TIP3    H180512   5.501   5.755   3.900 -0.6669 -0.2643 -1.3361
19699TIP3    H280513   5.603   5.644   3.919 -0.4117  0.3190  0.9464
19700TIP3   OH280514   4.262   3.674   0.617  0.0416  0.3583  0.1152
19700TIP3    H180515   4.232   3.585   0.633 -0.7462  0.7385  0.8624
19700TIP3    H280516   4.344   3.664   0.569  1.1329 -0.8376  2.0827
19701TIP3   OH280517   5.107   5.239   0.684 -0.1173 -0.1754  1.4397
19701TIP3    H180518   5.087   5.327   0.715 -0.9212 -0.4829  1.8222
19701TIP3    H280519   5.045   5.224   0.612  0.3975 -0.2204  0.9957
19702TIP3   OH280520   2.857   1.481   2.396 -0.2917  0.5022  0.2989
19702TIP3    H180521   2.787   1.546   2.402  0.4300  1.3347 -0.0247
19702TIP3    H280522   2.934   1.526   2.430  0.1316 -0.3445  0.4943
19703TIP3   OH280523   1.504   3.064   2.553 -0.2774 -0.0592  0.0359
19703TIP3    H180524   1.551   3.027   2.479  0.8194  1.7986 -0.2581
19703TIP3    H280525   1.427   3.008   2.564 -0.6961 -0.1374 -2.7678
19704TIP3   OH280526   6.435   6.988   5.430  0.2915 -0.7471  0.5461
19704TIP3    H180527   6.340   6.983   5.417 -0.1449 -0.1683  2.9990
19704TIP3    H280528   6.467   6.900   5.407 -0.4950 -0.4421 -2.0997
19705TIP3   OH280529   4.901   2.225  13.695 -0.0253 -0.5670  0.5897
19705TIP3    H180530   4.812   2.201  13.721 -0.5657  0.4857 -0.2141
19705TIP3    H280531   4.957   2.166  13.745 -1.1686 -1.2090  1.1574
19706TIP3   OH280532   6.517   1.609   4.176  0.1125  0.1154  0.0631
19706TIP3    H180533   6.423   1.624   4.184  0.0372 -0.9437  1.7427
19706TIP3    H280534   6.528   1.563   4.093 -0.9490 -0.3595  0.1776
19707TIP3   OH280535   0.841   4.931   1.169  1.2168 -0.7200 -0.5628
19707TIP3    H180536   0.761   4.970   1.204  1.7038  1.4661 -1.7015
19707TIP3    H280537   0.856   4.854   1.223 -1.8291 -1.3997 -0.5403
19708TIP3   OH280538   0.696   4.963  10.699 -0.3419 -0.0371  0.5556
19708TIP3    H180539   0.630   5.031  10.684  0.0616  0.7242  2.1337
19708TIP3    H280540   0.673   4.895  10.635  0.4597  2.3595 -2.5705
19709TIP3   OH280541   1.220   0.035  13.018  0.4501  0.1267  0.0802
19709TIP3    H180542   1.132   0.073  13.022  0.5735  0.4896 -0.5591
19709TIP3    H280543   1.226  -0.019  13.097 -0.3632  0.0566  0.1050
19710TIP3   OH280544   2.455   5.589   6.102  0.1743  0.0996 -0.1442
19710TIP3    H180545   2.380   5.592   6.044 -1.6472  0.3378  2.0685
19710TIP3    H280546   2.522   5.642   6.059  0.1995 -2.3851 -3.5196
19711TIP3   OH280547   0.846   6.156   2.471  0.0007  0.3767  0.0804
19711TIP3    H180548   0.767   6.201   2.500  0.3714  0.6772  0.6296
19711TIP3    H280549   0.884   6.120   2.551  1.6521  2.2031  0.1781
19712TIP3   OH280550   3.324   6.189   4.300 -0.1615 -0.3745 -0.5374
19712TIP3    H180551   3.265   6.263   4.313  1.2706  0.6347  0.6308
19712TIP3    H280552   3.407   6.228   4.272  0.1930 -1.6737 -1.4083
19713TIP3   OH280553   0.856   2.581  14.218 -0.1264 -0.2042 -0.5758
19713TIP3    H180554   0.807   2.661  14.202 -1.8486 -1.0235  0.3619
19713TIP3    H280555   0.941   2.596  14.175 -0.2972  2.1906 -0.2112
19714TIP3   OH280556   2.064   6.564  15.134 -0.2007  0.5563 -0.4541
19714TIP3    H180557   1.988   6.560  15.192  0.0167 -2.1547 -0.2196
19714TIP3    H280558   2.115   6.638  15.167 -1.4969  0.8658  0.9917
19715TIP3   OH280559   6.699   6.716   4.526  0.1756 -0.7464  1.1059
19715TIP3    H180560   6.685   6.665   4.446  0.7013 -1.1689  1.2790
19715TIP3    H280561   6.764   6.782   4.502 -0.6545  0.0010  0.8246
19716TIP3   OH280562   6.062   4.382   4.039 -0.6551 -0.0873 -0.1469
19716TIP3    H180563   6.024   4.442   3.975 -0.7125  0.1544  0.1129
19716TIP3    H280564   6.116   4.322   3.987 -2.1547 -1.0591 -0.6380
19717TIP3   OH280565   1.655   0.053   2.249 -0.0821 -0.1275 -0.5194
19717TIP3    H180566   1.655   0.016   2.161 -0.3721 -0.3222 -0.4372
19717TIP3    H280567   1.748   0.058   2.272 -0.0535 -1.2331 -0.3527
19718TIP3   OH280568   4.143   3.640   3.675 -0.2341 -0.3252 -0.6096
19718TIP3    H180569   4.210   3.708   3.680  0.2710 -0.8929  1.3649
19718TIP3    H280570   4.061   3.687   3.664  0.0426  0.6613  1.2164
19719TIP3   OH280571   4.526   1.927  13.783  0.1221  0.0766 -0.0594
19719TIP3    H180572   4.448   1.900  13.733  0.0977  0.4413 -0.2211
19719TIP3    H280573   4.569   1.845  13.806 -0.4616 -0.1401  0.2752
19720TIP3   OH280574   0.861   2.482  14.702 -0.0100 -0.3321  0.3479
19720TIP3    H180575   0.836   2.434  14.623  0.7444 -0.9438  0.4750
19720TIP3    H280576   0.952   2.458  14.717  0.1812  0.6373  0.7886
19721TIP3   OH280577   3.399   6.540   3.138 -1.2688 -0.0910 -0.1260
19721TIP3    H180578   3.390   6.509   3.048 -0.4474 -0.4603 -0.0836
19721TIP3    H280579   3.482   6.586   3.140 -0.3361 -1.7208  0.8905
19722TIP3   OH280580   5.614   1.428   1.359 -0.2212  0.1286 -0.0538
19722TIP3    H180581   5.646   1.438   1.449 -0.3333  1.8224 -0.1719
19722TIP3    H280582   5.631   1.336   1.338  2.2593  0.3048  0.7840
19723TIP3   OH280583   1.052   6.762   1.521  0.0551  0.4770  0.0655
19723TIP3    H180584   1.101   6.753   1.440  1.6259 -1.0333  1.1135
19723TIP3    H280585   1.003   6.681   1.530  1.8191 -0.4799  1.7741
19724TIP3   OH280586   0.973   2.746  11.814  0.0651 -0.8676  0.6175
19724TIP3    H180587   0.965   2.775  11.724 -1.1606 -1.6677  0.4535
19724TIP3    H280588   0.947   2.822  11.866 -0.8108 -0.9012  0.2481
19725TIP3   OH280589   6.279   1.578   3.506  0.3727 -0.0539  0.5016
19725TIP3    H180590   6.319   1.521   3.441  1.5364  0.7645  0.4787
19725TIP3    H280591   6.335   1.571   3.583 -0.0539  0.2588  0.8509
19726TIP3   OH280592   0.185   4.061   4.478  0.5507  0.5077  0.6296
19726TIP3    H180593   0.220   4.146   4.502 -0.2554  1.3392 -0.9374
19726TIP3    H280594   0.122   4.080   4.407  0.4801 -1.3905  0.1194
19727TIP3   OH280595   6.298   0.304   3.871 -0.1954 -0.3107  0.3760
19727TIP3    H180596   6.214   0.259   3.880 -0.9958  0.9656 -0.3915
19727TIP3    H280597   6.277   0.396   3.887  1.0632  0.0292  0.1649
19728TIP3   OH280598   0.283   3.434   1.072  0.4796  0.3999  0.0890
19728TIP3    H180599   0.264   3.451   1.164  0.6049 -0.6112  0.3153
19728TIP3    H280600   0.241   3.350   1.054  1.6180 -0.0978 -0.3757
19729TIP3   OH280601   2.659   1.182   0.147 -0.2802  0.2149  0.1895
19729TIP3    H180602   2.696   1.134   0.073 -0.6767  0.3287 -0.0800
19729TIP3    H280603   2.567   1.158   0.148 -0.5424  1.1833 -0.1114
19730TIP3   OH280604   4.039   6.269   4.619  0.2822  0.1751 -0.2217
19730TIP3    H180605   3.955   6.300   4.652  0.4551  0.2036  0.1983
19730TIP3    H280606   4.081   6.227   4.694 -0.5837 -2.4947 -1.1196
19731TIP3   OH280607   6.154   2.339   3.618 -0.8466  0.0686  0.4829
19731TIP3    H180608   6.240   2.359   3.655  0.1533 -1.0928 -1.0801
19731TIP3    H280609   6.093   2.392   3.669  0.9614  2.2638  0.5261
19732TIP3   OH280610   5.113   1.204   3.488 -0.0192  0.0142  0.0080
19732TIP3    H180611   5.134   1.289   3.527 -0.3755  0.8940 -1.6297
19732TIP3    H280612   5.141   1.212   3.397  0.4469 -1.8375 -0.0526
19733TIP3   OH280613   3.814   3.716   5.071  0.0204  0.4037  0.0734
19733TIP3    H180614   3.808   3.668   5.153  0.7085  0.9275  0.4477
19733TIP3    H280615   3.856   3.799   5.095  2.4944 -0.3706 -1.1457
19734TIP3   OH280616   4.160   6.209   1.994  0.3289 -0.3769 -0.3710
19734TIP3    H180617   4.117   6.266   2.058  1.0774 -0.4400  0.1897
19734TIP3    H280618   4.124   6.122   2.011  0.6206 -0.4165  0.0500
19735TIP3   OH280619   2.389   3.711   4.724  0.4629  0.2858 -0.2621
19735TIP3    H180620   2.420   3.659   4.650  0.9393 -0.4441  0.4190
19735TIP3    H280621   2.415   3.800   4.703  1.5365 -0.0609 -0.5116
19736TIP3   OH280622   0.674   2.934   1.747 -0.4882 -0.5766  1.1851
19736TIP3    H180623   0.641   3.019   1.778  0.4199  0.4894 -0.5777
19736TIP3    H280624   0.765   2.932   1.776  0.0613 -0.0340 -0.4032
19737TIP3   OH280625   5.175   1.745   2.666  0.4292 -0.0485 -0.2730
19737TIP3    H180626   5.231   1.725   2.591 -0.0757 -0.1294 -0.6363
19737TIP3    H280627   5.091   1.769   2.628  0.0108 -0.5920  0.2833
19738TIP3   OH280628   4.398   0.530   2.459 -0.5895 -0.2473  0.1843
19738TIP3    H180629   4.393   0.625   2.468 -0.3787 -0.1958 -0.2503
19738TIP3    H280630   4.366   0.512   2.371  0.6038 -0.4639 -0.2262
19739TIP3   OH280631   3.686   3.011   1.373 -0.1149 -0.4934  0.1177
19739TIP3    H180632   3.746   3.058   1.316 -0.9008 -1.0128 -1.1660
19739TIP3    H280633   3.742   2.950   1.421  0.5059 -0.3071 -0.3597
19740TIP3   OH280634   3.017   4.796  10.491 -0.5192  0.6212  0.1777
19740TIP3    H180635   3.068   4.869  10.525 -0.4901  1.0811 -0.8145
19740TIP3    H280636   2.955   4.836  10.431 -2.3440  0.1244  1.6314
19741TIP3   OH280637   2.009   4.763   5.035 -0.5064 -0.4570  0.6184
19741TIP3    H180638   1.962   4.834   5.079  0.0806  1.5372 -1.7233
19741TIP3    H280639   2.092   4.803   5.008  0.0115 -2.1646 -0.4530
19742TIP3   OH280640   2.985   3.183  10.238 -0.1615 -0.1668 -0.0449
19742TIP3    H180641   2.904   3.231  10.254 -0.5373 -0.4669 -0.9602
19742TIP3    H280642   3.014   3.212  10.152  0.8788  0.1604  0.3968
19743TIP3   OH280643   0.202   2.195   4.189 -0.1725 -0.0716  0.4323
19743TIP3    H180644   0.164   2.123   4.240  0.8107  0.3441  1.7979
19743TIP3    H280645   0.189   2.273   4.244  2.9736  0.0334  1.1780
19744TIP3   OH280646   2.415   0.717  12.247  0.2429 -0.3726 -0.4680
19744TIP3    H180647   2.439   0.712  12.155  0.3222  0.8243 -0.5243
19744TIP3    H280648   2.405   0.811  12.265 -0.8685 -0.6410  0.4630
19745TIP3   OH280649   5.723   5.198  12.539  0.2058 -0.3222  0.2393
19745TIP3    H180650   5.738   5.175  12.448 -2.4404 -0.3768 -0.2518
19745TIP3    H280651   5.637   5.162  12.560 -0.7464  2.4425  1.7375
19746TIP3   OH280652   0.447   4.553  13.434  0.0723 -0.3792  0.0022
19746TIP3    H180653   0.521   4.609  13.456  1.0172 -1.6208  0.0526
19746TIP3    H280654   0.380   4.577  13.499  0.1083  1.2942 -0.5208
19747TIP3   OH280655   6.543   3.953  13.673 -0.1917  0.0134 -0.0987
19747TIP3    H180656   6.630   3.936  13.637 -1.3127 -0.9429 -2.6463
19747TIP3    H280657   6.550   4.039  13.714  1.8634  0.1055 -0.5260
19748TIP3   OH280658   1.335   0.524   6.027  0.5402  0.8801  0.0496
19748TIP3    H180659   1.251   0.557   6.058  0.0019 -0.3950 -0.0200
19748TIP3    H280660   1.343   0.562   5.939 -1.9967 -2.2278 -1.7244
19749TIP3   OH280661   6.523   4.056  15.013  0.3302  0.0502  0.3988
19749TIP3    H180662   6.598   4.115  15.020  0.4543 -0.2314  1.8468
19749TIP3    H280663   6.471   4.073  15.092 -0.3505 -0.8041  0.1595
19750TIP3   OH280664   7.086   0.381   4.062  0.4057 -0.2288 -0.3419
19750TIP3    H180665   7.058   0.321   4.131  0.6610 -0.7453 -0.6771
19750TIP3    H280666   7.181   0.386   4.071  0.2744  1.0821  0.4420
19751TIP3   OH280667   6.173   2.233   5.594 -0.3673 -0.1504 -0.1066
19751TIP3    H180668   6.163   2.170   5.522 -0.4827 -1.6373  1.1531
19751TIP3    H280669   6.090   2.227   5.642 -0.4426  1.1117 -0.0372
19752TIP3   OH280670   2.770   4.158   2.574  0.3475 -0.2108  0.2412
19752TIP3    H180671   2.790   4.104   2.651  1.4662 -0.9056 -0.5028
19752TIP3    H280672   2.832   4.230   2.578 -1.6103  1.5393  1.6257
19753TIP3   OH280673   0.560   3.738   2.987  0.1522 -0.5944 -0.2530
19753TIP3    H180674   0.588   3.792   3.062 -3.0772 -1.1914  1.5760
19753TIP3    H280675   0.525   3.659   3.027  0.0808 -1.8068 -2.5711
19754TIP3   OH280676   3.576   7.076   0.453  0.3611  0.5580 -0.1458
19754TIP3    H180677   3.507   7.053   0.516  1.1899 -3.3678 -0.3839
19754TIP3    H280678   3.657   7.071   0.503  0.9038 -1.1397 -1.0951
19755TIP3   OH280679   3.113   5.889   3.598  0.4220 -0.5965  0.0774
19755TIP3    H180680   3.142   5.895   3.689  2.5521  0.6329 -0.6083
19755TIP3    H280681   3.194   5.871   3.549 -1.0088 -3.8336 -1.3869
19756TIP3   OH280682   0.159   7.000   5.860  0.1489 -0.2652  0.2244
19756TIP3    H180683   0.070   6.966   5.850  0.9053 -2.4976  0.5531
19756TIP3    H280684   0.153   7.091   5.832 -2.3271 -0.2151  0.6820
19757TIP3   OH280685   0.570   1.223   4.402  0.2020 -0.8475 -0.1471
19757TIP3    H180686   0.495   1.167   4.424 -0.6505  0.2878 -0.0513
19757TIP3    H280687   0.579   1.215   4.307 -0.0275 -1.0178 -0.1571
19758TIP3   OH280688   5.781   5.475   2.867 -0.0387 -0.5139  0.0489
19758TIP3    H180689   5.710   5.419   2.897 -1.5609  1.7605  1.0224
19758TIP3    H280690   5.812   5.519   2.947  0.3864  0.7678 -0.7887
19759TIP3   OH280691   2.709   6.276   2.852  0.0342  0.2955 -0.3200
19759TIP3    H180692   2.763   6.308   2.924 -0.3638 -0.0783  0.1536
19759TIP3    H280693   2.769   6.269   2.778  0.6550 -0.1848  0.2191
19760TIP3   OH280694   1.382   2.455  10.681 -0.2059  0.0178  0.3426
19760TIP3    H180695   1.326   2.498  10.746 -1.2405 -0.9076  0.0994
19760TIP3    H280696   1.363   2.362  10.691  1.4309 -0.3431  0.3471
19761TIP3   OH280697   5.176   2.981   2.169  0.4934 -0.2939 -0.0409
19761TIP3    H180698   5.175   2.894   2.129  2.0967 -0.7453  0.8098
19761TIP3    H280699   5.268   2.997   2.188  0.1458  1.3420  0.3890
19762TIP3   OH280700   7.046   1.136   1.663 -0.0676 -0.6189 -0.3974
19762TIP3    H180701   7.114   1.068   1.665 -0.0712 -0.6202 -0.3134
19762TIP3    H280702   7.069   1.195   1.735 -1.1899 -1.6307  0.8446
19763TIP3   OH280703   2.416   2.203   3.478  0.0550 -0.0336 -0.2057
19763TIP3    H180704   2.422   2.251   3.561  0.5246  0.0676 -0.2959
19763TIP3    H280705   2.322   2.202   3.458 -0.1373 -0.6648  0.6766
19764TIP3   OH280706   6.790   1.734   3.940  0.2582  0.1165 -0.2546
19764TIP3    H180707   6.865   1.699   3.988 -0.4853 -0.6437  0.3826
19764TIP3    H280708   6.785   1.825   3.968  0.7975  0.1150 -0.1284
19765TIP3   OH280709   5.741   1.449   0.465 -0.2711 -0.3262 -0.0448
19765TIP3    H180710   5.781   1.364   0.484  0.9558  0.3031  0.2717
19765TIP3    H280711   5.721   1.445   0.371 -0.3180 -1.0021 -0.0127
19766TIP3   OH280712   2.481   6.629   5.176 -0.1908 -0.3341 -0.0909
19766TIP3    H180713   2.443   6.541   5.171  1.0470 -0.9524  0.8390
19766TIP3    H280714   2.557   6.625   5.117  0.3474 -0.1617  0.5765
19767TIP3   OH280715   1.502   2.476   2.491  0.2085  0.0027 -0.1936
19767TIP3    H180716   1.492   2.548   2.553  0.9084  0.8731 -1.0633
19767TIP3    H280717   1.494   2.517   2.405  2.0532 -0.7012 -0.7463
19768TIP3   OH280718   3.780   0.999   5.139 -0.0648 -0.7971 -0.2058
19768TIP3    H180719   3.773   1.029   5.049 -0.0091  1.0334  0.3449
19768TIP3    H280720   3.853   0.937   5.138  1.1563  0.5726 -1.1281
19769TIP3   OH280721   0.191   2.699   5.081 -0.2419  0.2489 -0.4309
19769TIP3    H180722   0.216   2.676   4.992  0.7759 -0.6811  0.0644
19769TIP3    H280723   0.127   2.632   5.106  0.4863 -0.2926 -0.0055
19770TIP3   OH280724   4.408   2.088  14.647 -0.3303  0.2024  0.3136
19770TIP3    H180725   4.441   2.041  14.723  1.7836  2.8603  1.1844
19770TIP3    H280726   4.315   2.064  14.643  0.2111 -2.5166  1.7170
19771TIP3   OH280727   0.395   4.445   6.002  0.3794  0.1934  0.1626
19771TIP3    H180728   0.377   4.511   6.070  0.8069  2.1423 -1.4956
19771TIP3    H280729   0.489   4.455   5.985  0.7493 -1.8526  0.8032
19772TIP3   OH280730   1.346   1.086   5.321 -0.7613 -0.3752  0.2702
19772TIP3    H180731   1.417   1.022   5.330 -1.1339 -0.7981  0.2356
19772TIP3    H280732   1.296   1.056   5.245 -0.2839  0.5994 -0.4355
19773TIP3   OH280733   0.141   5.549  10.729  0.2476  0.1383  0.2957
19773TIP3    H180734   0.223   5.537  10.680 -0.4993 -1.3970 -0.6615
19773TIP3    H280735   0.073   5.550  10.661 -0.8662 -2.4337  1.2650
19774TIP3   OH280736   6.491   0.162   5.752 -1.1225 -0.0039  0.1554
19774TIP3    H180737   6.537   0.099   5.696 -1.1400  0.1932 -0.0781
19774TIP3    H280738   6.444   0.107   5.815 -1.9418 -0.2669 -0.6650
19775TIP3   OH280739   6.909   0.045   3.259 -0.6555  0.0548  0.0750
19775TIP3    H180740   6.963   0.124   3.257  0.3407 -0.6360 -0.7084
19775TIP3    H280741   6.910   0.013   3.169 -3.5087  0.7548 -0.3363
19776TIP3   OH280742   4.208   4.749   5.352 -0.1200 -0.2453 -0.2989
19776TIP3    H180743   4.214   4.655   5.367 -2.2560 -0.5957 -1.2241
19776TIP3    H280744   4.275   4.788   5.408  1.2468 -2.3486 -0.3915
19777TIP3   OH280745   0.509   5.913   4.484  0.2882 -0.0613 -0.2828
19777TIP3    H180746   0.588   5.962   4.506 -0.8778  1.6889  0.1382
19777TIP3    H280747   0.455   5.974   4.434 -0.9588 -1.1160 -0.2884
19778TIP3   OH280748   0.158   2.493  15.071 -0.3369  0.3168 -0.2866
19778TIP3    H180749   0.073   2.521  15.037 -1.3647 -0.6585  1.3164
19778TIP3    H280750   0.189   2.428  15.008 -1.8126 -0.8731  0.1428
19779TIP3   OH280751   3.795   3.171   2.781 -0.1102  0.4429 -0.3722
19779TIP3    H180752   3.872   3.208   2.824 -1.0459  2.1024 -0.0698
19779TIP3    H280753   3.822   3.160   2.689  1.7662 -2.7718  0.3985
19780TIP3   OH280754   1.845   5.584   5.595 -0.0530  0.3205 -0.0264
19780TIP3    H180755   1.829   5.661   5.651 -0.0332  2.0945 -2.3091
19780TIP3    H280756   1.820   5.613   5.507 -0.1925 -2.3816 -0.9557
19781TIP3   OH280757   3.150   2.423   2.624  0.2543  0.3524  0.2887
19781TIP3    H180758   3.146   2.357   2.555  2.2349 -0.6675  1.0716
19781TIP3    H280759   3.226   2.477   2.602 -1.1541  2.2400 -0.1682
19782TIP3   OH280760   2.654   6.088   5.268  0.2541 -0.1763 -0.2028
19782TIP3    H180761   2.680   6.020   5.206  2.1545 -0.1445  0.5018
19782TIP3    H280762   2.673   6.051   5.354  0.0085  0.7241  0.2568
19783TIP3   OH280763   0.150   6.072   2.591 -0.3818 -0.4483  0.1947
19783TIP3    H180764   0.129   6.133   2.519 -0.2935 -0.6511 -0.0043
19783TIP3    H280765   0.079   6.008   2.589 -1.5308  0.7083  1.6280
19784TIP3   OH280766   0.830   4.224   3.874  0.2234 -0.0957 -0.3557
19784TIP3    H180767   0.922   4.245   3.856 -0.4072  4.0626  0.1114
19784TIP3    H280768   0.815   4.255   3.963 -1.7939  0.0701 -0.6988
19785TIP3   OH280769   3.112   5.814  11.344 -0.3201 -0.5666  0.2418
19785TIP3    H180770   3.171   5.799  11.418  0.7802 -0.5411 -0.5994
19785TIP3    H280771   3.025   5.818  11.383  0.2610 -0.2519  1.5681
19786TIP3   OH280772   3.422   3.186   0.485  0.0685  0.6365  0.1552
19786TIP3    H180773   3.422   3.266   0.538 -0.4722  1.0065 -0.3879
19786TIP3    H280774   3.334   3.150   0.495  0.9700 -1.2269  2.3130
19787TIP3   OH280775   6.886   3.751   5.939  0.1097  0.0749 -0.1248
19787TIP3    H180776   6.791   3.735   5.939 -0.2758  1.9166  1.8445
19787TIP3    H280777   6.896   3.838   5.977  2.5907  0.2150 -0.9128
19788TIP3   OH280778   5.389   4.202   0.492 -0.1385  0.4431  0.2984
19788TIP3    H180779   5.438   4.145   0.432 -1.1615 -0.1058 -0.0491
19788TIP3    H280780   5.393   4.288   0.451  0.8563  0.4913  0.4790
19789TIP3   OH280781   1.506   2.789  13.934  0.4732  0.3857  0.4648
19789TIP3    H180782   1.414   2.801  13.954  0.6927  1.3004  0.9766
19789TIP3    H280783   1.526   2.700  13.964 -0.5476 -0.3442 -0.8950
19790TIP3   OH280784   1.143   2.360   4.553 -0.0640 -0.1589 -0.0141
19790TIP3    H180785   1.219   2.409   4.583 -0.7438  1.2085 -0.4261
19790TIP3    H280786   1.176   2.273   4.531  1.0598 -0.1289  1.4094
19791TIP3   OH280787   5.540   1.356   3.605  0.1699  0.4722 -0.0400
19791TIP3    H180788   5.480   1.306   3.661  0.0247 -1.3277 -1.6859
19791TIP3    H280789   5.545   1.442   3.646 -1.0466 -0.3127  1.9033
19792TIP3   OH280790   4.746   7.109   2.051  0.1209 -0.5768  0.3958
19792TIP3    H180791   4.795   7.121   1.969 -1.5441 -0.6277 -0.6484
19792TIP3    H280792   4.813   7.110   2.119  1.4682  0.3452 -0.8865
19793TIP3   OH280793   7.094   2.876   2.122 -0.5287 -0.1693 -0.1099
19793TIP3    H180794   7.144   2.817   2.179 -2.6775 -1.0764  0.9605
19793TIP3    H280795   7.020   2.904   2.176 -0.3381  2.4378 -1.0842
19794TIP3   OH280796   2.677   1.675  13.994  0.2240 -0.0042  0.0144
19794TIP3    H180797   2.713   1.722  14.069 -0.6212  0.1519  0.3327
19794TIP3    H280798   2.752   1.656  13.938  0.7048  0.8553  0.3667
19795TIP3   OH280799   3.574   2.974   5.857 -0.4746 -0.2622 -0.5407
19795TIP3    H180800   3.533   2.889   5.845 -1.5137 -0.0438  1.1232
19795TIP3    H280801   3.652   2.956   5.910  0.5372 -0.4118 -2.0057
19796TIP3   OH280802   3.230   3.869   3.776 -0.5297 -0.4924 -0.0288
19796TIP3    H180803   3.152   3.885   3.722 -0.2789  1.1613  0.0290
19796TIP3    H280804   3.294   3.933   3.744  0.5753 -1.3709  0.3821
19797TIP3   OH280805   0.297   4.328   5.370 -0.0240  0.5546  0.2522
19797TIP3    H180806   0.230   4.359   5.309 -1.1830  0.1279  1.2669
19797TIP3    H280807   0.366   4.293   5.314 -0.3144  1.6429 -0.8326
19798TIP3   OH280808   5.827   6.605  12.337  0.1278  0.2151  0.0013
19798TIP3    H180809   5.839   6.651  12.253  0.1445 -1.8938 -1.2219
19798TIP3    H280810   5.756   6.542  12.319  1.8468 -2.0536  0.7541
19799TIP3   OH280811   4.742   7.036   1.157 -0.2204  0.4031  0.2773
19799TIP3    H180812   4.747   7.127   1.187  1.4329  0.4084  0.0853
19799TIP3    H280813   4.822   7.023   1.106  0.4679 -1.6453  1.7344
19800TIP3   OH280814   0.771   3.515   0.061  0.2912 -0.5563 -0.7535
19800TIP3    H180815   0.754   3.531   0.154 -0.0862 -0.1443 -0.8872
19800TIP3    H280816   0.718   3.438   0.040 -0.9508  0.3428 -1.0143
19801TIP3   OH280817   4.447   5.624  13.813 -0.0109  0.1842  0.2112
19801TIP3    H180818   4.436   5.719  13.802 -0.3373  0.2785  1.1857
19801TIP3    H280819   4.372   5.598  13.866  1.0492 -0.2857  1.5584
19802TIP3   OH280820   3.458   5.083   4.571 -0.6773  0.3703  0.0882
19802TIP3    H180821   3.479   5.028   4.646 -0.1636  1.7567  0.9864
19802TIP3    H280822   3.520   5.056   4.503 -0.5852 -0.3020  0.4293
19803TIP3   OH280823   4.545   7.094  10.464 -0.0993  0.2214 -0.6584
19803TIP3    H180824   4.457   7.058  10.453  0.2322  0.0546 -3.4503
19803TIP3    H280825   4.536   7.186  10.439  0.6448  0.0113 -1.7485
19804TIP3   OH280826   5.382   4.857  15.527  0.3688  1.0108  0.0862
19804TIP3    H180827   5.442   4.785  15.546 -1.3892 -1.4037 -2.5888
19804TIP3    H280828   5.311   4.846  15.590  0.6663  1.1773  0.4566
19805TIP3   OH280829   4.085   1.481   4.159  0.3586 -0.4549 -0.5401
19805TIP3    H180830   4.085   1.552   4.223 -0.3935 -0.2065 -0.7925
19805TIP3    H280831   4.014   1.424   4.187  0.4260 -0.6663 -0.8035
19806TIP3   OH280832   2.949   4.167   1.986  0.2904  0.4182 -0.6079
19806TIP3    H180833   2.865   4.177   2.031  0.0481 -0.4405 -0.8398
19806TIP3    H280834   3.015   4.194   2.050 -0.1305  0.5651 -0.2337
19807TIP3   OH280835   4.689   2.503  15.163 -0.4363 -0.4759  0.2475
19807TIP3    H180836   4.762   2.474  15.108 -0.6605  0.8148 -0.7794
19807TIP3    H280837   4.728   2.565  15.224 -0.7960  1.0960 -1.0375
19808TIP3   OH280838   1.513   5.033  13.829  0.0851  0.7674 -0.4606
19808TIP3    H180839   1.463   4.962  13.787  0.5667 -0.9707  1.6976
19808TIP3    H280840   1.583   5.053  13.767  0.6482 -1.5415 -0.6666
19809TIP3   OH280841   4.089   6.381   0.643  0.0436 -0.2374 -0.2079
19809TIP3    H180842   4.164   6.325   0.625 -0.0375 -1.0798  1.8382
19809TIP3    H280843   4.122   6.470   0.629  1.8131 -0.5097  1.6698
19810TIP3   OH280844   4.372   4.870  14.227 -0.2722 -0.2239  0.1656
19810TIP3    H180845   4.423   4.790  14.238 -0.9872 -0.7302 -0.1195
19810TIP3    H280846   4.293   4.857  14.280 -0.4202  0.2681  0.0768
19811TIP3   OH280847   0.167   1.311   5.068 -0.8661  0.2048 -0.0724
19811TIP3    H180848   0.194   1.223   5.042 -0.4575  0.1651  0.4619
19811TIP3    H280849   0.194   1.367   4.995 -0.4103 -0.0070 -0.0718
19812TIP3   OH280850   4.096   5.120   2.096 -0.9673 -0.4347  0.0866
19812TIP3    H180851   4.156   5.096   2.025 -1.9278 -0.6986 -0.6478
19812TIP3    H280852   4.140   5.089   2.176 -0.2969 -0.9502 -0.4719
19813TIP3   OH280853   5.315   4.154   9.873  0.0793 -0.8882  0.3755
19813TIP3    H180854   5.270   4.236   9.855  0.2842 -0.8719 -0.0730
19813TIP3    H280855   5.263   4.112   9.941 -0.1065 -0.4550  0.5040
19814TIP3   OH280856   5.078   2.214   4.484 -0.7894  0.0561 -0.0223
19814TIP3    H180857   5.052   2.163   4.408 -0.5014  0.1044 -0.1558
19814TIP3    H280858   5.089   2.303   4.450 -0.6543  0.0763  0.0732
19815TIP3   OH280859   0.182   2.883   0.567 -0.0201 -0.0295 -0.7328
19815TIP3    H180860   0.140   2.829   0.633 -0.8523  0.4755 -0.8347
19815TIP3    H280861   0.217   2.821   0.504 -0.3404 -0.4736 -0.4797
19816TIP3   OH280862   3.995   5.000   0.648  0.1490 -0.4790  0.5383
19816TIP3    H180863   3.916   5.054   0.656 -0.4333 -1.0191 -1.1098
19816TIP3    H280864   4.020   4.982   0.739 -0.8859  0.7381  1.1161
19817TIP3   OH280865   5.167   3.188   1.793 -0.3729  0.2841  0.3280
19817TIP3    H180866   5.080   3.220   1.771 -0.0530  1.3303  0.5397
19817TIP3    H280867   5.225   3.225   1.726 -0.1211 -0.6892 -0.0212
19818TIP3   OH280868   6.097   0.568   1.791  0.0255  0.6458  0.1395
19818TIP3    H180869   6.036   0.499   1.815 -0.4717  0.5556 -1.2812
19818TIP3    H280870   6.167   0.523   1.743 -1.0882  1.2331 -2.2100
19819TIP3   OH280871   1.883   0.401   5.498 -0.3816  0.1766 -0.1601
19819TIP3    H180872   1.872   0.381   5.405 -1.0406  0.8542 -0.2335
19819TIP3    H280873   1.794   0.406   5.533 -0.3177  3.0447 -0.1827
19820TIP3   OH280874   1.508   6.561   5.207 -0.0742  0.6310 -0.4568
19820TIP3    H180875   1.453   6.635   5.182 -0.1391  0.2454 -1.5077
19820TIP3    H280876   1.449   6.485   5.202  0.5358  0.2140 -1.5714
19821TIP3   OH280877   6.606   1.082   2.322  0.1289 -0.4882  0.1283
19821TIP3    H180878   6.572   1.130   2.398 -1.0995 -0.8974 -0.1465
19821TIP3    H280879   6.696   1.061   2.346  0.4203  1.1565  0.6381
19822TIP3   OH280880   5.608   3.977   3.592 -0.4208  0.0324  0.2730
19822TIP3    H180881   5.567   3.903   3.547 -0.9300 -0.4550  1.4924
19822TIP3    H280882   5.687   3.940   3.633 -0.7829  0.0969  1.0563
19823TIP3   OH280883   3.560   1.264   4.797 -0.0800 -0.4061 -0.9455
19823TIP3    H180884   3.469   1.236   4.807  0.6786 -2.2029  2.4080
19823TIP3    H280885   3.611   1.198   4.844  2.8660  1.1800 -1.6521
19824TIP3   OH280886   4.211   5.087   5.232  0.5372 -0.4548  0.5137
19824TIP3    H180887   4.196   5.078   5.326 -0.4169 -0.4005  0.3713
19824TIP3    H280888   4.287   5.031   5.215  0.3420 -0.9496  1.2080
19825TIP3   OH280889   4.051   3.199  11.512  0.7497 -0.2804 -0.2630
19825TIP3    H180890   4.090   3.232  11.592  0.4664 -0.1365 -0.1836
19825TIP3    H280891   3.959   3.183  11.534  1.0080 -1.7476 -0.1053
19826TIP3   OH280892   3.766   3.908   3.310  0.1776  0.0541  0.7996
19826TIP3    H180893   3.695   3.917   3.373 -0.1541 -1.0764  0.5914
19826TIP3    H280894   3.846   3.912   3.363 -0.0998 -3.6413  1.7503
19827TIP3   OH280895   5.927   1.438   1.369 -0.3336 -0.1804 -0.3001
19827TIP3    H180896   5.973   1.364   1.328 -0.9346 -0.4529 -0.5010
19827TIP3    H280897   5.900   1.493   1.295 -0.6045 -0.1890 -0.2104
19828TIP3   OH280898   4.453   2.877   3.734 -0.3866  0.0725 -0.3216
19828TIP3    H180899   4.446   2.811   3.803  2.1310  0.7126  0.6638
19828TIP3    H280900   4.455   2.825   3.653  1.1822 -1.1090  0.4061
19829TIP3   OH280901   1.751   5.357   4.023 -0.2442  0.0871 -0.1282
19829TIP3    H180902   1.798   5.282   4.059 -1.8837 -0.5779  0.7380
19829TIP3    H280903   1.703   5.393   4.097 -0.7850  0.9855 -0.8864
19830TIP3   OH280904   5.149   1.394   4.967 -0.0205  0.0565  0.1574
19830TIP3    H180905   5.118   1.472   4.923 -0.6704 -0.0702  0.3821
19830TIP3    H280906   5.173   1.334   4.896  0.4696  0.4498 -0.0141
19831TIP3   OH280907   0.417   4.089   1.917  0.0708 -0.2608 -0.4648
19831TIP3    H180908   0.460   4.074   2.001 -1.5103 -0.5627  0.3232
19831TIP3    H280909   0.329   4.120   1.940  0.2334  1.5573 -2.0074
19832TIP3   OH280910   3.403   4.499   3.073  0.6607 -0.2343  0.1928
19832TIP3    H180911   3.455   4.428   3.110  1.6462  0.4880  0.2300
19832TIP3    H280912   3.444   4.579   3.106  1.5141  0.4494 -2.2871
19833TIP3   OH280913   0.523   6.885   3.607 -0.2411  0.4525  0.6311
19833TIP3    H180914   0.516   6.794   3.578  2.9205  0.4525 -0.4597
19833TIP3    H280915   0.566   6.930   3.534 -0.1146  2.4390  1.8663
19834TIP3   OH280916   5.544   0.001   4.032  0.2080 -0.8655  0.2272
19834TIP3    H180917   5.511  -0.008   3.943 -1.9133  1.4215  0.6938
19834TIP3    H280918   5.511  -0.077   4.078 -0.9773 -0.7257 -0.3661
19835TIP3   OH280919   5.807   6.890   0.034 -0.2082  0.4715  0.0237
19835TIP3    H180920   5.828   6.821   0.097 -0.4933 -0.1194 -0.5217
19835TIP3    H280921   5.720   6.921   0.060 -1.7713 -1.9078 -1.8659
19836TIP3   OH280922   2.699   2.366   5.859  0.3517 -0.6911 -0.8113
19836TIP3    H180923   2.677   2.300   5.924 -3.8622 -0.4889 -1.7632
19836TIP3    H280924   2.671   2.327   5.776  0.3056  1.2147 -1.7334
19837TIP3   OH280925   2.654   5.295   4.640 -0.7581  0.1652 -0.4861
19837TIP3    H180926   2.718   5.355   4.603 -1.7278  1.1774 -0.5853
19837TIP3    H280927   2.693   5.264   4.721  0.1720  0.1523 -0.9310
19838TIP3   OH280928   6.032   1.604   1.577 -0.1150  0.4818  0.5068
19838TIP3    H180929   6.121   1.569   1.587  1.0261  3.2991  1.1478
19838TIP3    H280930   5.996   1.557   1.502  1.4566 -1.5474  0.9184
19839TIP3   OH280931   0.773   4.495   2.436 -0.2236 -0.3563 -0.1095
19839TIP3    H180932   0.698   4.467   2.384  1.2553 -0.3581 -2.4181
19839TIP3    H280933   0.746   4.576   2.478 -1.9171 -1.0394  0.1733
19840TIP3   OH280934   4.260   3.067   5.035 -0.1034  0.1190  0.4292
19840TIP3    H180935   4.319   2.992   5.035  0.6765  0.7183  0.1290
19840TIP3    H280936   4.307   3.134   4.985 -1.3585  0.3531 -0.4870
19841TIP3   OH280937   4.490   5.589  14.672 -0.0530 -0.1630 -0.0689
19841TIP3    H180938   4.569   5.563  14.720 -0.1900 -0.0936  0.1964
19841TIP3    H280939   4.444   5.506  14.655  0.2801 -0.2434 -0.5844
19842TIP3   OH280940   4.524   7.123   0.732 -0.0054  0.0023  0.1868
19842TIP3    H180941   4.618   7.118   0.746 -0.0279 -1.9220  0.0351
19842TIP3    H280942   4.486   7.082   0.809 -0.6890  0.2078 -0.0331
19843TIP3   OH280943   3.987   2.225   3.636  0.2293 -0.0182  0.0795
19843TIP3    H180944   4.075   2.240   3.602 -0.2180  1.4985 -0.4830
19843TIP3    H280945   3.976   2.290   3.705 -0.5335 -0.0252 -0.0217
19844TIP3   OH280946   5.819   4.056   5.369 -0.3807 -0.3327 -0.4404
19844TIP3    H180947   5.812   4.035   5.276 -0.7523  1.0918 -0.7537
19844TIP3    H280948   5.800   4.149   5.375  1.1015 -0.0536  0.8826
19845TIP3   OH280949   0.170   1.647  13.624  0.0987 -0.4847 -0.2256
19845TIP3    H180950   0.109   1.710  13.585  0.9719  0.4270 -0.1501
19845TIP3    H280951   0.254   1.666  13.582  0.6138 -0.8705  0.6059
19846TIP3   OH280952   5.079   5.583   1.969 -0.2676  0.3614 -0.2032
19846TIP3    H180953   5.028   5.618   2.042 -0.0534 -0.1631  0.2022
19846TIP3    H280954   5.066   5.647   1.899 -0.5579  0.8189  0.2553
19847TIP3   OH280955   4.301   3.073   3.328 -0.2366 -0.5335 -0.1646
19847TIP3    H180956   4.332   3.074   3.418 -1.5422  0.2312  0.3066
19847TIP3    H280957   4.337   2.993   3.290  0.4242 -0.7981  0.9956
19848TIP3   OH280958   1.443   6.983   0.341 -0.4246 -0.8431 -0.3875
19848TIP3    H180959   1.350   6.999   0.326  0.1979  1.7701 -2.2010
19848TIP3    H280960   1.465   7.037   0.417  0.0335  0.5110 -1.4391
19849TIP3   OH280961   7.129   7.028   2.294 -0.1960  0.8829 -0.2543
19849TIP3    H180962   7.157   7.052   2.383  0.2717 -0.4384 -0.0235
19849TIP3    H280963   7.171   7.093   2.238  2.3106 -0.2145  0.1990
19850TIP3   OH280964   1.753   0.140   1.427  0.0861  0.1590 -0.0243
19850TIP3    H180965   1.705   0.080   1.483 -1.6027 -0.4290 -1.9882
19850TIP3    H280966   1.727   0.227   1.457 -1.7901 -0.1515 -0.6475
19851TIP3   OH280967   5.001   4.254   1.931 -0.0088  1.1819  0.1580
19851TIP3    H180968   4.920   4.250   1.881  1.1758  3.0312 -2.1002
19851TIP3    H280969   5.070   4.239   1.867  1.5114  1.3658  1.6836
19852TIP3   OH280970   5.437   3.272   5.308 -0.1449  0.8117  0.2870
19852TIP3    H180971   5.519   3.239   5.345  0.0194 -0.8054 -1.3347
19852TIP3    H280972   5.401   3.330   5.375  1.1550 -0.2745  2.0084
19853TIP3   OH280973   4.279   7.099   0.523 -0.1340 -0.5901  0.0007
19853TIP3    H180974   4.342   7.049   0.471  0.9726  0.7171  0.0321
19853TIP3    H280975   4.295   7.072   0.613  1.1814  0.5264  0.1328
19854TIP3   OH280976   6.425   2.570   0.202  0.6895 -0.6080  0.1072
19854TIP3    H180977   6.360   2.619   0.252 -0.9292 -2.3491 -0.1801
19854TIP3    H280978   6.508   2.614   0.222 -0.5289  1.6814  0.5030
19855TIP3   OH280979   4.196   1.533   4.922 -0.1966 -0.1220 -0.9021
19855TIP3    H180980   4.151   1.565   5.001 -0.2862  3.5720 -2.2712
19855TIP3    H280981   4.289   1.542   4.942 -0.2220  1.0565 -1.2785
19856TIP3   OH280982   5.694   1.421   4.277  0.4820 -0.3143  0.9617
19856TIP3    H180983   5.689   1.361   4.203  0.7626  1.8983 -0.9551
19856TIP3    H280984   5.606   1.459   4.284  1.1056  1.4045  0.0073
19857TIP3   OH280985   2.609   2.689   3.065 -0.2104 -0.7625 -0.4414
19857TIP3    H180986   2.644   2.726   3.146  0.9186  0.9622 -1.6442
19857TIP3    H280987   2.550   2.757   3.031  0.8847 -0.5636 -2.0464
19858TIP3   OH280988   2.988   0.647   5.671 -0.4122  0.2103 -0.6596
19858TIP3    H180989   3.022   0.719   5.725 -0.0768  0.6773 -1.4771
19858TIP3    H280990   3.018   0.568   5.716  0.4656  0.6025 -0.5379
19859TIP3   OH280991   5.197   1.068   3.837  1.2043 -0.5117 -0.0054
19859TIP3    H180992   5.267   1.016   3.877  0.7364 -1.1941 -0.0664
19859TIP3    H280993   5.116   1.029   3.871  0.7864 -1.1639 -1.6875
19860TIP3   OH280994   0.260   1.741   0.679  0.2072  0.1294 -0.2679
19860TIP3    H180995   0.354   1.748   0.663  0.1926  0.4970 -0.1860
19860TIP3    H280996   0.229   1.831   0.682 -0.3455  0.0087 -1.4867
19861TIP3   OH280997   0.933   4.269  11.814  0.0544  1.0033  0.4871
19861TIP3    H180998   1.000   4.302  11.754 -0.3275  3.6652  1.3994
19861TIP3    H280999   0.945   4.174  11.813  1.8056  1.1598 -1.7065
19862TIP3   OH281000   3.499   5.525   4.097 -0.3773  0.8926 -0.1915
19862TIP3    H181001   3.450   5.569   4.167 -0.1172 -0.2450  0.7406
19862TIP3    H281002   3.582   5.501   4.138 -0.4907 -0.4022 -0.6852
19863TIP3   OH281003   6.216   0.263  14.292  0.2484  0.4857 -0.3439
19863TIP3    H181004   6.156   0.338  14.286  1.2969  1.4656  0.8581
19863TIP3    H281005   6.231   0.237  14.201 -0.7096  1.2481 -0.7432
19864TIP3   OH281006   2.386   0.254   4.704 -0.4632 -0.0263  0.4269
19864TIP3    H181007   2.346   0.327   4.751  0.8608  0.6425  0.5752
19864TIP3    H281008   2.464   0.232   4.756 -0.2949 -0.8737 -0.1644
19865TIP3   OH281009   4.027   0.805   5.686 -0.8427 -0.0027 -0.5107
19865TIP3    H181010   4.098   0.744   5.668 -1.7482 -0.9692 -0.8807
19865TIP3    H281011   4.069   0.876   5.737  0.9499  0.8246 -2.9531
19866TIP3   OH281012   6.519   4.108   1.437 -0.5210 -0.4464  0.5073
19866TIP3    H181013   6.586   4.040   1.437  0.0859  0.1314 -0.3456
19866TIP3    H281014   6.437   4.061   1.421 -0.0209 -0.9122 -0.7901
19867TIP3   OH281015   3.329   1.887   5.812  1.2047 -0.1617 -0.3217
19867TIP3    H181016   3.407   1.907   5.864  0.3864 -0.3465  1.0259
19867TIP3    H281017   3.259   1.939   5.853  0.1506 -1.7434 -0.0524
19868TIP3   OH281018   5.511   0.177  14.479 -0.5738 -0.2881 -0.3815
19868TIP3    H181019   5.515   0.240  14.552 -1.5315  0.4682 -0.9534
19868TIP3    H281020   5.565   0.216  14.410 -0.8587 -0.2755 -0.5993
19869TIP3   OH281021   1.852   2.037   2.139 -0.3782 -0.3536  0.3193
19869TIP3    H181022   1.922   2.041   2.074 -0.7310 -0.7884 -0.0954
19869TIP3    H281023   1.868   1.956   2.187 -0.4532 -0.3274  0.3901
19870TIP3   OH281024   1.068   5.637   2.593 -0.3143  0.0872  0.2510
19870TIP3    H181025   1.089   5.712   2.537  0.2720  0.0501  0.4125
19870TIP3    H281026   0.995   5.594   2.549 -0.8312  0.8918  0.2873
19871TIP3   OH281027   1.291   6.769   3.845 -0.3362  0.2842  0.0525
19871TIP3    H181028   1.271   6.759   3.752 -0.2636  0.0322  0.0656
19871TIP3    H281029   1.246   6.850   3.870 -1.1062 -0.1178  0.0095
19872TIP3   OH281030   6.998   6.412   3.770  0.4038  0.7427  0.3032
19872TIP3    H181031   6.991   6.460   3.853  0.1179 -1.3958  1.5792
19872TIP3    H281032   7.068   6.348   3.785 -1.4076 -1.4509 -0.1427
19873TIP3   OH281033   5.274   6.819   2.782 -0.8793  0.2853  0.3750
19873TIP3    H181034   5.270   6.880   2.708  1.9979  0.3269  0.1279
19873TIP3    H281035   5.184   6.813   2.814 -1.7328  2.4055 -1.4013
19874TIP3   OH281036   1.333   6.657   2.091  0.0360 -0.0221 -0.5982
19874TIP3    H181037   1.329   6.567   2.058 -0.6297 -0.1530 -0.1877
19874TIP3    H281038   1.279   6.707   2.030 -0.4339 -0.0943 -0.2465
19875TIP3   OH281039   2.727   3.997   5.677  0.0928 -0.5039 -0.1481
19875TIP3    H181040   2.679   3.919   5.705 -1.0100 -0.1486 -0.9642
19875TIP3    H281041   2.681   4.070   5.718  0.6731 -0.2262  0.0227
19876TIP3   OH281042   6.522   5.359   1.561 -0.4465 -0.2322  0.5276
19876TIP3    H181043   6.584   5.286   1.562  2.4046  2.0082 -0.4089
19876TIP3    H281044   6.544   5.409   1.482 -1.1889  2.5005  1.9288
19877TIP3   OH281045   5.433   3.371   0.028 -0.3846 -0.2017 -0.1594
19877TIP3    H181046   5.406   3.435   0.093  0.3308 -0.8714  0.8314
19877TIP3    H281047   5.366   3.303   0.032  0.5154 -1.0663  1.1286
19878TIP3   OH281048   3.459   2.619   0.713  0.3526  0.2272  0.0428
19878TIP3    H181049   3.445   2.713   0.712  0.3139  0.2400  0.9255
19878TIP3    H281050   3.508   2.601   0.633  1.8379  1.2323  0.6888
19879TIP3   OH281051   2.975   4.100   0.634  0.0287 -0.3286  0.1100
19879TIP3    H181052   2.946   4.066   0.719 -1.2431 -0.3321 -0.3116
19879TIP3    H281053   2.972   4.024   0.576  2.0171 -0.6111  0.2771
19880TIP3   OH281054   3.653   5.460  15.434  0.2446  0.4444  0.0509
19880TIP3    H181055   3.732   5.449  15.488  0.3528 -0.2200 -0.2322
19880TIP3    H281056   3.669   5.540  15.385 -0.3600  1.7254  1.8395
19881TIP3   OH281057   2.439   6.427  14.666 -0.3720 -0.3550 -0.6348
19881TIP3    H181058   2.346   6.444  14.682 -0.2352  0.6063 -0.7954
19881TIP3    H281059   2.485   6.485  14.726  0.1672 -2.2184  0.8771
19882TIP3   OH281060   0.916   3.819  13.749  0.1615 -0.1541 -0.2711
19882TIP3    H181061   0.841   3.877  13.759 -0.5704 -1.1582  0.2691
19882TIP3    H281062   0.972   3.839  13.825  1.7872  2.4321 -2.0233
19883TIP3   OH281063   0.392   2.265  15.221 -0.0908  0.7509  0.1536
19883TIP3    H181064   0.412   2.254  15.128  1.1771  0.4566  0.4380
19883TIP3    H281065   0.297   2.261  15.226 -0.1263 -0.7105 -0.9723
19884TIP3   OH281066   5.371   0.330  13.926 -0.4475  1.0028  0.0575
19884TIP3    H181067   5.398   0.422  13.931  0.8585  0.6573 -0.2027
19884TIP3    H281068   5.415   0.289  14.001 -1.3000  0.6471  0.3723
19885TIP3   OH281069   2.702   0.827   1.724 -0.0219 -0.2211 -0.0077
19885TIP3    H181070   2.674   0.881   1.650  2.1672  0.2106 -0.5809
19885TIP3    H281071   2.797   0.833   1.724  0.1178 -1.4655  1.9291
19886TIP3   OH281072   0.519   4.621   1.994  0.5606  0.1327  0.7323
19886TIP3    H181073   0.587   4.624   2.061 -0.0149  1.1834  1.2950
19886TIP3    H281074   0.483   4.532   2.000  2.3730 -0.7013 -0.1180
19887TIP3   OH281075   3.987   2.517   1.631 -0.4752  0.5598  0.5306
19887TIP3    H181076   3.899   2.526   1.595 -0.6023 -1.6779  0.1448
19887TIP3    H281077   3.986   2.433   1.678  1.0891  1.1014  1.6346
19888TIP3   OH281078   1.460   4.513   2.283 -0.4718  0.5147 -0.0074
19888TIP3    H181079   1.553   4.535   2.274 -0.4231 -0.0273 -1.0345
19888TIP3    H281080   1.459   4.435   2.337 -0.0468 -1.2744 -2.4059
19889TIP3   OH281081   6.105   6.453   3.976  0.4688 -0.0918 -0.1848
19889TIP3    H181082   6.063   6.418   3.898  0.8154  1.4206 -1.0853
19889TIP3    H281083   6.037   6.453   4.043 -0.0096 -0.7980 -0.6662
19890TIP3   OH281084   0.749   0.314   5.909 -0.4366  0.5331 -0.2667
19890TIP3    H181085   0.777   0.399   5.877 -1.5974  0.9912 -0.1196
19890TIP3    H281086   0.830   0.265   5.922  0.1483  0.0160 -4.5206
19891TIP3   OH281087   6.292   5.817  15.080  0.5632 -0.3336 -0.3020
19891TIP3    H181088   6.228   5.761  15.125 -0.8182  0.4846 -1.1675
19891TIP3    H281089   6.356   5.756  15.044  0.5471 -1.1491  0.9926
19892TIP3   OH281090   5.434   1.085   5.505 -0.6446 -0.1872  0.2270
19892TIP3    H181091   5.436   1.088   5.600 -0.6412  0.0398  0.2208
19892TIP3    H281092   5.525   1.072   5.479 -0.4599  1.0071  0.2198
19893TIP3   OH281093   2.902   1.087  12.598 -0.2582 -0.5618  0.3253
19893TIP3    H181094   2.835   1.025  12.628  0.3818 -1.5866 -0.3099
19893TIP3    H281095   2.882   1.101  12.505 -0.5187  0.3625  0.5063
19894TIP3   OH281096   3.941   2.935  10.445  0.2229 -0.4026  0.0350
19894TIP3    H181097   3.954   2.856  10.498  0.7542 -0.3734 -0.0449
19894TIP3    H281098   4.023   2.944  10.396 -0.1743 -0.2991 -0.6156
19895TIP3   OH281099   4.473   2.885   4.977  0.0059  0.4172 -0.8161
19895TIP3    H181100   4.512   2.806   5.014  1.6144  0.8303 -1.5423
19895TIP3    H281101   4.496   2.882   4.884 -0.8930  1.1771 -1.0817
19896TIP3   OH281102   5.921   3.553   2.462 -0.1572 -0.7061  0.3615
19896TIP3    H181103   5.999   3.548   2.406 -0.2971  1.2884 -0.0827
19896TIP3    H281104   5.956   3.570   2.549 -0.0822  0.6140  0.0903
19897TIP3   OH281105   2.013   4.239   2.286  0.1815 -0.0002  0.1219
19897TIP3    H181106   2.014   4.317   2.231 -2.0375  0.7730  1.0393
19897TIP3    H281107   2.102   4.232   2.321  0.5282  1.8780 -0.3003
19898TIP3   OH281108   2.173   1.777   4.985 -0.1667  0.1754 -0.2009
19898TIP3    H181109   2.080   1.793   4.972 -0.0267 -0.3276 -2.3156
19898TIP3    H281110   2.217   1.838   4.926  0.8342  0.1730  0.5061
19899TIP3   OH281111   5.462   5.495   1.412  0.0921  0.4596 -0.2119
19899TIP3    H181112   5.487   5.587   1.414 -0.3020  0.5794 -0.6569
19899TIP3    H281113   5.396   5.489   1.343 -0.5595  0.0091  0.4378
19900TIP3   OH281114   0.321   0.018   4.290  0.3434  0.0264  0.3611
19900TIP3    H181115   0.335   0.002   4.196 -0.1396 -3.0172  0.6900
19900TIP3    H281116   0.262   0.093   4.293  0.2768  0.1412 -1.7788
19901TIP3   OH281117   5.234   4.772   4.353  0.1339  0.1460  0.1337
19901TIP3    H181118   5.260   4.682   4.332 -1.3728 -0.4518  0.7612
19901TIP3    H281119   5.147   4.765   4.391 -0.1503  1.9142 -0.0848
19902TIP3   OH281120   1.072   3.285   1.430  0.0332 -0.0780  0.0194
19902TIP3    H181121   1.057   3.196   1.400 -1.5317 -0.9419  2.9728
19902TIP3    H281122   1.166   3.289   1.449 -0.0809 -1.5307  0.9848
19903TIP3   OH281123   0.621   5.557   3.792 -0.1955  0.3664  0.0675
19903TIP3    H181124   0.692   5.503   3.757 -0.4358 -1.1490  1.7845
19903TIP3    H281125   0.653   5.587   3.877 -1.7620 -0.7941  1.1196
19904TIP3   OH281126   0.748   4.403   0.469 -0.2185 -0.0696 -0.4168
19904TIP3    H181127   0.730   4.423   0.561 -0.5671  0.4010 -0.5842
19904TIP3    H281128   0.744   4.308   0.464 -1.6424 -0.0382 -0.2269
19905TIP3   OH281129   4.976   0.555  13.552  0.3479 -0.1492 -0.3354
19905TIP3    H181130   4.958   0.649  13.544  0.0039 -0.2404 -0.6322
19905TIP3    H281131   5.034   0.548  13.628  0.0164  0.2577 -0.0423
19906TIP3   OH281132   5.152   6.710  11.996  0.2606  0.0747 -0.2943
19906TIP3    H181133   5.130   6.649  12.066  1.5062 -0.0742 -0.0173
19906TIP3    H281134   5.150   6.796  12.037  1.7508 -0.0802  0.1244
19907TIP3   OH281135   6.907   2.980   0.109 -0.1335 -0.7770 -0.7811
19907TIP3    H181136   6.962   3.027   0.045 -0.0683 -0.5743 -0.5787
19907TIP3    H281137   6.953   2.898   0.124  1.4090  0.3561  1.1791
19908TIP3   OH281138   6.910   3.964   4.280  0.5921  0.8832  0.5046
19908TIP3    H181139   6.868   3.883   4.310  5.7607 -1.8479  1.4942
19908TIP3    H281140   6.927   4.014   4.360 -1.0773  2.2933  0.0497
19909TIP3   OH281141   1.999   6.244   2.710  0.1460 -0.1572 -0.3960
19909TIP3    H181142   1.958   6.186   2.775 -1.6108  2.1215  0.6782
19909TIP3    H281143   2.067   6.291   2.759  0.3386 -0.0332 -0.7812
19910TIP3   OH281144   3.790   5.219  14.907  0.0627 -0.3836  0.2767
19910TIP3    H181145   3.715   5.278  14.914  0.3730 -0.0239  0.5862
19910TIP3    H281146   3.756   5.143  14.859 -0.1050  0.4338 -0.9529
19911TIP3   OH281147   1.460   0.818  13.604 -0.4638 -0.0074  0.6303
19911TIP3    H181148   1.423   0.781  13.523  0.8508 -0.4303  0.2028
19911TIP3    H281149   1.521   0.886  13.574  0.8589 -0.9077  1.1960
19912TIP3   OH281150   2.093   6.308   5.626  0.4319 -0.1454  0.0950
19912TIP3    H181151   2.033   6.375   5.594  0.9586 -0.1857 -1.0089
19912TIP3    H281152   2.132   6.346   5.705  0.8490  0.9240 -0.6074
19913TIP3   OH281153   1.589   5.847   2.769  0.2740 -0.3702  0.1090
19913TIP3    H181154   1.590   5.923   2.711  0.7617 -0.4225  0.0371
19913TIP3    H281155   1.523   5.789   2.732 -0.7221  0.3877  0.6633
19914TIP3   OH281156   3.172   0.229   1.495 -0.0952 -0.1066  0.1184
19914TIP3    H181157   3.257   0.266   1.470  0.3518 -1.6999 -0.9370
19914TIP3    H281158   3.184   0.134   1.485 -1.9211 -0.3856  0.2188
19915TIP3   OH281159   1.464   7.116   4.959  0.2981  0.1904  0.2458
19915TIP3    H181160   1.548   7.079   4.985 -0.0551 -1.3682 -0.7165
19915TIP3    H281161   1.408   7.104   5.035  1.0432  1.6712  1.0652
19916TIP3   OH281162   1.562   6.847   0.128  0.0913  0.1458 -0.0261
19916TIP3    H181163   1.475   6.818   0.102  0.2864  1.5423 -2.5560
19916TIP3    H281164   1.547   6.926   0.181 -0.1935 -0.4278  0.7658
19917TIP3   OH281165   0.101   4.120   1.701  0.1889 -0.7426 -0.3927
19917TIP3    H181166   0.091   4.209   1.732 -1.4160 -1.3763  1.0821
19917TIP3    H281167   0.193   4.099   1.718  0.6635  0.6947 -1.0415
19918TIP3   OH281168   2.800   3.523   2.536 -0.0864 -0.0073 -0.6042
19918TIP3    H181169   2.745   3.560   2.467  0.5729 -1.9890 -2.2861
19918TIP3    H281170   2.751   3.447   2.567  1.4491 -1.5527 -1.8304
19919TIP3   OH281171   6.203   0.966   4.946  0.4568  0.1704 -0.4183
19919TIP3    H181172   6.244   1.037   4.994  0.0201  0.8699 -1.0478
19919TIP3    H281173   6.174   1.006   4.864 -0.7343 -0.4813 -0.3418
19920TIP3   OH281174   2.569   4.741   4.527 -0.7943  0.2744  0.7510
19920TIP3    H181175   2.655   4.703   4.542 -0.2534  1.3389  0.4191
19920TIP3    H281176   2.516   4.668   4.495 -0.0612 -0.4198  1.0813
19921TIP3   OH281177   6.971   0.382   0.296 -0.2243  0.2789 -0.0109
19921TIP3    H181178   6.931   0.453   0.346 -0.1684  1.6910 -1.8795
19921TIP3    H281179   7.045   0.354   0.350  1.0790  3.1395 -0.1112
19922TIP3   OH281180   2.736   5.293   4.295  0.2955  0.2028  0.2973
19922TIP3    H181181   2.769   5.260   4.211 -3.6267 -1.5573 -0.7748
19922TIP3    H281182   2.760   5.226   4.359 -0.2674 -0.5580 -0.2707
19923TIP3   OH281183   3.662   3.929   5.865  0.2748  0.0913 -0.3048
19923TIP3    H181184   3.624   4.008   5.827 -1.5718 -0.8660 -0.5561
19923TIP3    H281185   3.738   3.960   5.915  0.2272  1.8706 -1.2808
19924TIP3   OH281186   3.957   2.686   2.270 -0.1142  0.0626 -0.1305
19924TIP3    H181187   3.975   2.778   2.250  1.5830 -0.3616 -0.7476
19924TIP3    H281188   3.877   2.666   2.222 -0.2446  1.1003 -0.3615
19925TIP3   OH281189   4.864   5.900   0.866 -0.1089  0.3338  0.1675
19925TIP3    H181190   4.805   5.974   0.882  0.3299  0.4112  1.5758
19925TIP3    H281191   4.810   5.836   0.820 -0.8356  1.0377  0.0197
19926TIP3   OH281192   1.606   5.289  15.178  0.0695 -0.5257 -0.5900
19926TIP3    H181193   1.647   5.207  15.151 -0.5207 -1.4727  1.1795
19926TIP3    H281194   1.612   5.288  15.274 -0.5042  1.2127 -0.4983
19927TIP3   OH281195   4.690   3.725   2.589  0.0608  0.0879  0.0265
19927TIP3    H181196   4.670   3.632   2.594  0.6875  0.0239  2.7198
19927TIP3    H281197   4.784   3.728   2.570  0.0234  0.1625 -0.1423
19928TIP3   OH281198   5.973   1.188   3.951 -0.6983 -0.2796 -0.2493
19928TIP3    H181199   5.981   1.245   4.028 -3.4966  0.6342 -0.5281
19928TIP3    H281200   5.953   1.102   3.987  1.3239 -0.6515  0.0985
19929TIP3   OH281201   4.855   1.633   5.202 -0.7428 -0.1012 -0.5133
19929TIP3    H181202   4.912   1.677   5.138  0.8173 -1.5466 -0.1679
19929TIP3    H281203   4.904   1.634   5.283 -2.0093  0.2179  0.2790
19930TIP3   OH281204   4.642   4.593   0.197 -0.4740 -0.1555 -0.7195
19930TIP3    H181205   4.669   4.580   0.106  0.4413  1.0889 -0.6444
19930TIP3    H281206   4.577   4.663   0.193 -0.8652 -0.5013 -0.4725
19931TIP3   OH281207   2.517   7.120   2.560 -1.1096  0.3028  0.1848
19931TIP3    H181208   2.528   7.026   2.568 -0.1150  0.5108  1.7441
19931TIP3    H281209   2.441   7.140   2.615 -2.5234  0.2206 -1.6547
19932TIP3   OH281210   6.059   6.054   4.571 -0.3812  0.0476 -0.2045
19932TIP3    H181211   5.976   6.101   4.580 -0.0770  0.6167 -0.3375
19932TIP3    H281212   6.035   5.970   4.531 -0.9119  0.1417 -0.0884
19933TIP3   OH281213   6.359   3.236   0.651  0.7028 -0.3335  0.3845
19933TIP3    H181214   6.289   3.271   0.705 -0.6173 -0.4426 -1.1794
19933TIP3    H281215   6.398   3.313   0.609  0.3114 -0.4189 -0.1398
19934TIP3   OH281216   6.038   5.573  12.727  0.0799  0.3457 -0.0186
19934TIP3    H181217   6.106   5.516  12.689  1.5819  1.6404  0.6122
19934TIP3    H281218   5.957   5.542  12.688  1.1971 -0.3094 -1.9768
19935TIP3   OH281219   2.040   0.597   1.440 -0.0447  0.1238 -0.6189
19935TIP3    H181220   2.005   0.684   1.423 -1.4626 -0.6727 -2.0304
19935TIP3    H281221   2.003   0.572   1.525  0.1018  0.7546 -0.3678
19936TIP3   OH281222   0.966   2.474  12.091  0.1763  0.3822 -0.1625
19936TIP3    H181223   1.049   2.517  12.074  1.3935 -1.5659  0.4843
19936TIP3    H281224   0.947   2.491  12.183 -0.2101  0.8969 -0.3305
19937TIP3   OH281225   5.947   0.695   4.756  0.0504 -0.3402 -0.2737
19937TIP3    H181226   6.040   0.715   4.759 -0.0536  0.8466 -2.7291
19937TIP3    H281227   5.941   0.612   4.710 -0.1624  0.8020 -2.4188
19938TIP3   OH281228   1.826   2.989   1.681 -0.1821 -0.1532  0.0885
19938TIP3    H181229   1.782   3.065   1.718 -1.3645 -1.1951  0.8989
19938TIP3    H281230   1.902   2.975   1.737 -0.2910  0.0667  0.2918
19939TIP3   OH281231   0.923   5.965   5.102  0.1152 -0.1015 -0.0196
19939TIP3    H181232   0.956   5.981   5.191 -1.7786  0.1008  0.6923
19939TIP3    H281233   0.876   6.045   5.079 -1.9923 -1.2434  0.0562
19940TIP3   OH281234   2.310   5.531   4.102  0.7044  0.2495  0.0032
19940TIP3    H181235   2.246   5.476   4.058  0.7846 -1.7194  2.1180
19940TIP3    H281236   2.373   5.469   4.140  1.2173  1.8324  1.9329
19941TIP3   OH281237   1.263   0.136   2.854 -0.4455  0.0528  0.0665
19941TIP3    H181238   1.220   0.056   2.882 -2.0163  0.5456 -0.8233
19941TIP3    H281239   1.355   0.124   2.878 -0.5100 -2.2836 -0.6544
19942TIP3   OH281240   5.434   4.041   2.494 -0.7288 -0.5756 -0.0795
19942TIP3    H181241   5.385   4.022   2.414  0.2831 -1.1563 -0.5887
19942TIP3    H281242   5.510   4.092   2.464  0.9488 -2.7939  0.1239
19943TIP3   OH281243   4.848   3.866   6.254  0.4215 -0.2376 -0.1115
19943TIP3    H181244   4.844   3.779   6.214 -2.1814 -1.0657  1.6987
19943TIP3    H281245   4.776   3.867   6.316  1.8048  2.4224  1.6343
19944TIP3   OH281246   1.379   5.264  12.785 -0.9884 -0.1270 -0.0568
19944TIP3    H181247   1.373   5.184  12.836  0.1859  0.6060  1.2783
19944TIP3    H281248   1.324   5.326  12.831  2.1114  1.3366  2.0025
19945TIP3   OH281249   4.463   0.469   4.087  0.0939  0.3226 -0.1144
19945TIP3    H181250   4.416   0.532   4.032  1.0693 -0.1393 -1.5347
19945TIP3    H281251   4.433   0.488   4.176 -0.9569  1.6130 -0.7076
19946TIP3   OH281252   3.745   0.778   1.513  0.0605 -0.1132 -0.6028
19946TIP3    H181253   3.799   0.785   1.592 -0.0946 -2.6736 -0.1688
19946TIP3    H281254   3.769   0.853   1.460  2.1344  0.2276  0.7198
19947TIP3   OH281255   5.293   4.835  10.752 -0.0254  0.6849  0.1831
19947TIP3    H181256   5.266   4.761  10.807  0.8950 -0.3245 -0.6632
19947TIP3    H281257   5.255   4.911  10.794 -1.4482 -0.3226  0.8080
19948TIP3   OH281258   2.667   3.181   3.557 -0.3314 -0.3351  0.1979
19948TIP3    H181259   2.724   3.112   3.593  1.0679  1.6732  2.0880
19948TIP3    H281260   2.705   3.262   3.589 -2.3027  1.3193 -1.4212
19949TIP3   OH281261   6.270   6.281   5.660  0.6764  0.2659 -0.7121
19949TIP3    H181262   6.270   6.186   5.665 -1.9009  0.2368  0.4707
19949TIP3    H281263   6.251   6.310   5.750 -1.9699  1.7187 -1.6229
19950TIP3   OH281264   5.700   4.787   3.866 -0.4790  0.2454  0.5521
19950TIP3    H181265   5.708   4.712   3.925 -1.6888  0.2319  0.7075
19950TIP3    H281266   5.708   4.749   3.778  0.6329  0.1794  0.6628
19951TIP3   OH281267   5.609   0.574  13.766  0.0489 -0.0066  0.0094
19951TIP3    H181268   5.580   0.583  13.857  2.0105 -1.2014  0.8278
19951TIP3    H281269   5.677   0.641  13.755 -0.4824  0.4262 -0.7356
19952TIP3   OH281270   2.187   2.662   4.710 -0.2101 -0.4473 -0.3487
19952TIP3    H181271   2.141   2.675   4.627 -0.7746  1.1022  0.1726
19952TIP3    H281272   2.158   2.735   4.765  1.3753 -0.5561  0.6724
19953TIP3   OH281273   1.250   2.614   4.109 -0.3445 -0.0037  0.2548
19953TIP3    H181274   1.330   2.631   4.158 -0.2898  0.3404  0.0482
19953TIP3    H281275   1.222   2.700   4.077 -2.4554  0.3901  2.8199
19954TIP3   OH281276   6.891   0.177   1.882  0.1559  0.4682 -0.4458
19954TIP3    H181277   6.872   0.112   1.814  1.0107  0.1609 -0.3999
19954TIP3    H281278   6.820   0.166   1.946 -0.6471  0.7496 -1.2668
19955TIP3   OH281279   4.098   6.726   4.343  0.4896 -0.5853 -0.0038
19955TIP3    H181280   4.094   6.709   4.437 -0.6811  0.2485  0.1154
19955TIP3    H281281   4.103   6.822   4.337  0.2325 -0.6206 -0.8023
19956TIP3   OH281282   6.201   2.223   0.961 -0.6068 -0.6689 -0.0047
19956TIP3    H181283   6.280   2.193   0.917 -0.3526  0.2045 -0.1668
19956TIP3    H281284   6.137   2.236   0.891 -1.2360 -2.3339  0.2228
19957TIP3   OH281285   2.899   5.677   1.536  0.0976  0.5883 -0.4862
19957TIP3    H181286   2.829   5.742   1.536 -0.3490  0.1336 -1.6565
19957TIP3    H281287   2.872   5.613   1.602  0.5539  1.5673  0.6917
19958TIP3   OH281288   3.987   4.900   5.336 -0.5224 -0.5536  0.0451
19958TIP3    H181289   3.950   4.896   5.248 -3.5000 -0.7262  1.2122
19958TIP3    H281290   4.072   4.857   5.327 -0.6331 -0.4113 -2.7464
19959TIP3   OH281291   3.529   6.820   3.874 -0.5410 -0.0578 -0.1950
19959TIP3    H181292   3.589   6.835   3.947 -0.4309 -0.1522 -0.2678
19959TIP3    H281293   3.479   6.742   3.899 -1.0673  0.3741  0.1516
19960TIP3   OH281294   2.430   2.731   4.300 -0.1719 -0.2479  0.3361
19960TIP3    H181295   2.420   2.729   4.395 -0.1357  1.2668  0.3915
19960TIP3    H281296   2.399   2.818   4.274  0.9628 -0.1767 -0.8959
19961TIP3   OH281297   4.275   0.772   2.529 -0.0143  0.8902  0.2322
19961TIP3    H181298   4.236   0.744   2.613 -0.5894  2.1455  0.3955
19961TIP3    H281299   4.201   0.778   2.469  0.3415  0.4174 -0.2624
19962TIP3   OH281300   2.111   4.018   2.518 -0.0638 -0.0025  0.0713
19962TIP3    H181301   2.155   3.934   2.508  0.5035  0.1363  1.1782
19962TIP3    H281302   2.050   4.023   2.444  1.7981 -0.1871 -1.5457
19963TIP3   OH281303   6.869   0.061   1.564  0.0334  0.4553  0.0614
19963TIP3    H181304   6.928   0.091   1.495 -0.7676  0.6228 -0.5712
19963TIP3    H281305   6.925   0.051   1.641  1.3430 -1.5334 -1.0479
19964TIP3   OH281306   1.019   3.809   4.233 -0.3808  0.0642  0.2023
19964TIP3    H181307   1.029   3.876   4.165  0.0178  1.0060  1.1641
19964TIP3    H281308   0.926   3.811   4.255 -0.5958 -0.5598 -0.6178
19965TIP3   OH281309   5.935   6.042   2.000  0.1351 -0.1873 -0.0948
19965TIP3    H181310   5.915   5.987   2.077  1.0318  1.2754  1.2441
19965TIP3    H281311   5.983   6.116   2.036 -1.0701  1.5231 -1.8365
19966TIP3   OH281312   4.634   6.241  14.262 -0.4931  0.5779  0.5830
19966TIP3    H181313   4.581   6.198  14.329 -1.5687  0.2478 -0.4517
19966TIP3    H281314   4.592   6.326  14.250 -0.3791  0.5861  0.2434
19967TIP3   OH281315   3.547   4.995   4.302  0.3978 -0.4367 -0.0582
19967TIP3    H181316   3.513   5.071   4.255 -0.8177  0.3528  1.9905
19967TIP3    H281317   3.555   4.927   4.235 -1.1014  0.6769 -1.4398
19968TIP3   OH281318   0.363   0.477   1.743  0.0412 -0.1921  0.1005
19968TIP3    H181319   0.362   0.432   1.659  0.8326 -0.2950  0.1455
19968TIP3    H281320   0.432   0.434   1.793 -1.0554 -0.7703  1.1646
19969TIP3   OH281321   3.691   3.461   4.945 -0.8083  0.4436 -0.3940
19969TIP3    H181322   3.656   3.440   5.032 -0.9866  0.5182 -0.4462
19969TIP3    H281323   3.731   3.547   4.955  1.4564 -0.6001  0.2556
19970TIP3   OH281324   1.219   1.202   1.210  0.2068  0.3202  0.3038
19970TIP3    H181325   1.234   1.130   1.149 -0.9129 -0.3014  0.7421
19970TIP3    H281326   1.280   1.270   1.181  1.6586 -0.9665  0.1953
19971TIP3   OH281327   5.529   3.840   1.806  0.2790  0.0562 -0.5255
19971TIP3    H181328   5.519   3.925   1.849 -0.8796 -0.4790  0.3090
19971TIP3    H281329   5.617   3.843   1.768  0.0286  1.8700 -1.0832
19972TIP3   OH281330   0.321   5.078  10.690  0.2961  0.0043  0.1543
19972TIP3    H181331   0.246   5.117  10.734  0.4209  0.8328 -0.3299
19972TIP3    H281332   0.366   5.028  10.758 -0.0810  0.4116  0.7109
19973TIP3   OH281333   2.697   7.005   1.840  0.1387 -0.0833  0.1789
19973TIP3    H181334   2.622   6.949   1.858 -2.3979  2.4099 -1.7501
19973TIP3    H281335   2.716   7.046   1.925 -1.7300  0.3430  0.4514
19974TIP3   OH281336   4.371   5.421   2.534 -0.9161  0.2198  0.7618
19974TIP3    H181337   4.315   5.380   2.601  0.4615 -1.2422  1.0730
19974TIP3    H281338   4.329   5.399   2.451  0.0783 -2.4761  0.8698
19975TIP3   OH281339   5.095   6.085  13.550 -0.1994  0.0080  0.5321
19975TIP3    H181340   5.050   6.152  13.499  1.8381  0.0523 -1.4127
19975TIP3    H281341   5.073   6.003  13.506  2.2875  0.1291 -1.2098
19976TIP3   OH281342   2.853   0.900   3.584  0.0064 -0.2403 -0.4617
19976TIP3    H181343   2.818   0.983   3.616  1.5997 -0.1996  1.3317
19976TIP3    H281344   2.777   0.856   3.544 -1.1551  1.4722 -0.2514
19977TIP3   OH281345   3.060   4.203  13.138  0.3645 -0.1849 -0.0279
19977TIP3    H181346   3.076   4.292  13.106  0.7954 -0.3356 -0.2346
19977TIP3    H281347   3.079   4.147  13.064  1.5334 -0.5500  0.5180
19978TIP3   OH281348   1.949   6.569   3.063 -0.6355  0.1647  0.2354
19978TIP3    H181349   1.854   6.568   3.059 -0.6517 -0.6001  0.6697
19978TIP3    H281350   1.970   6.619   3.142 -0.6208  1.7379 -0.7042
19979TIP3   OH281351   0.811   1.348   1.611 -0.3104  0.0523  1.0427
19979TIP3    H181352   0.831   1.284   1.543 -2.3015 -1.4408  1.7637
19979TIP3    H281353   0.888   1.348   1.668 -0.4079 -2.0556  1.2465
19980TIP3   OH281354   4.643   1.878   2.145 -0.6385 -0.5535  0.0707
19980TIP3    H181355   4.664   1.859   2.054  0.7205 -2.7145  0.7722
19980TIP3    H281356   4.610   1.795   2.180  0.6396 -0.3091  1.9989
19981TIP3   OH281357   2.305   4.329   2.336  0.0916  0.4912  0.1696
19981TIP3    H181358   2.278   4.313   2.426 -0.5052 -0.1901 -0.1255
19981TIP3    H281359   2.377   4.392   2.344 -0.7749  1.4127  1.0403
19982TIP3   OH281360   2.834   5.215   4.050 -0.0028  0.3226  0.5458
19982TIP3    H181361   2.773   5.270   4.000  0.3790 -0.4696 -0.8265
19982TIP3    H281362   2.890   5.175   3.985  0.2742 -1.0583  1.5814
19983TIP3   OH281363   6.685   3.930  11.754 -0.1885  0.4895 -0.1522
19983TIP3    H181364   6.666   3.871  11.681 -3.0273  1.3867 -0.2657
19983TIP3    H281365   6.745   3.880  11.810 -0.7801 -1.6494 -1.2992
19984TIP3   OH281366   2.642   2.509   4.489  0.1497 -0.6801  0.0574
19984TIP3    H181367   2.550   2.529   4.502  0.5318  0.7101  0.7490
19984TIP3    H281368   2.655   2.426   4.535 -0.8088 -1.0537 -0.3176
19985TIP3   OH281369   3.763   3.116   0.947  0.4626 -0.3005 -0.0770
19985TIP3    H181370   3.763   3.027   0.913  0.1486 -0.5494  0.5606
19985TIP3    H281371   3.735   3.170   0.873 -2.5122 -1.0740  0.3455
19986TIP3   OH281372   0.113   1.495   0.029 -0.5169  0.6253 -0.2341
19986TIP3    H181373   0.082   1.582   0.050 -1.0536  0.2036  0.7811
19986TIP3    H281374   0.207   1.497   0.049 -0.6982  0.7232  0.6511
19987TIP3   OH281375   6.402   2.376   5.615 -0.3427 -0.3110 -0.2851
19987TIP3    H181376   6.323   2.324   5.602 -1.4316  0.8416  1.4484
19987TIP3    H281377   6.407   2.391   5.709 -0.6331  3.4460 -0.6849
19988TIP3   OH281378   1.353   1.119   3.739 -0.3300 -0.2705  0.2305
19988TIP3    H181379   1.355   1.161   3.653 -1.5118  0.8167  0.7058
19988TIP3    H281380   1.372   1.190   3.801  0.0772 -0.9504  0.8987
19989TIP3   OH281381   2.927   3.385  11.639 -0.7785 -0.2959  0.4429
19989TIP3    H181382   2.831   3.382  11.645 -0.7002 -1.6487  2.0657
19989TIP3    H281383   2.949   3.321  11.572 -1.0240  0.9661 -0.8884
19990TIP3   OH281384   2.204   4.086  12.149 -0.1260 -0.2750 -0.4430
19990TIP3    H181385   2.245   4.158  12.100 -0.0521 -0.7330 -1.0652
19990TIP3    H281386   2.267   4.014  12.144  0.2150 -0.1082  0.9668
19991TIP3   OH281387   1.342   0.801   3.487 -0.0746 -0.1934 -0.0078
19991TIP3    H181388   1.418   0.748   3.464 -0.0041 -0.6108  1.1087
19991TIP3    H281389   1.277   0.779   3.420  1.0462  0.8315 -1.4946
19992TIP3   OH281390   0.034   0.440   6.017  0.0643 -0.0608  0.2870
19992TIP3    H181391   0.072   0.492   5.947 -0.8351  0.1113 -0.0883
19992TIP3    H281392  -0.060   0.448   6.004 -0.1131 -2.3442 -0.2187
19993TIP3   OH281393   3.668   4.929  14.851 -0.2285 -0.8428 -0.1161
19993TIP3    H181394   3.616   4.970  14.781  0.3403 -2.1090 -1.3505
19993TIP3    H281395   3.603   4.887  14.907 -0.6784 -0.1672 -0.1249
19994TIP3   OH281396   3.023   1.548  14.194 -0.1387  0.5933 -0.0589
19994TIP3    H181397   3.103   1.495  14.199 -0.0565  0.7902  0.7884
19994TIP3    H281398   3.018   1.574  14.102 -0.4459 -1.2815 -0.6307
19995TIP3   OH281399   1.816   3.930   2.651 -0.3350 -0.5753  0.2574
19995TIP3    H181400   1.816   3.994   2.580 -0.0805  2.2372  2.5677
19995TIP3    H281401   1.905   3.934   2.687 -0.5860 -1.5764  1.0400
19996TIP3   OH281402   4.191   5.496   1.934 -0.2454 -0.9740 -0.2874
19996TIP3    H181403   4.254   5.441   1.982 -1.1237 -0.2820  1.7860
19996TIP3    H281404   4.232   5.510   1.849  1.2992 -2.4997  0.1307
   7.13222   7.13222  15.65698
