Title
81404
    1CHL1    C3    1   3.979   3.543   9.781
    1CHL1    H3    2   4.089   3.537   9.791
    1CHL1    O3    3   3.918   3.531   9.909
    1CHL1   H3'    4   3.978   3.575   9.969
    1CHL1    C4    5   3.939   3.678   9.720
    1CHL1   H4A    6   3.829   3.687   9.723
    1CHL1   H4B    7   3.978   3.759   9.787
    1CHL1    C5    8   3.988   3.694   9.578
    1CHL1    C6    9   4.066   3.797   9.542
    1CHL1    H6   10   4.093   3.872   9.618
    1CHL1    C7   11   4.111   3.823   9.401
    1CHL1   H7A   12   4.096   3.930   9.374
    1CHL1   H7B   13   4.220   3.802   9.394
    1CHL1    C8   14   4.036   3.735   9.297
    1CHL1    H8   15   3.935   3.778   9.282
    1CHL1   C14   16   4.112   3.736   9.165
    1CHL1   H14   17   4.210   3.690   9.188
    1CHL1   C15   18   4.145   3.872   9.102
    1CHL1  H15A   19   4.054   3.937   9.103
    1CHL1  H15B   20   4.227   3.924   9.156
    1CHL1   C16   21   4.183   3.835   8.958
    1CHL1  H16A   22   4.122   3.894   8.887
    1CHL1  H16B   23   4.291   3.856   8.938
    1CHL1   C17   24   4.153   3.683   8.942
    1CHL1   H17   25   4.247   3.629   8.969
    1CHL1   C13   26   4.053   3.649   9.054
    1CHL1   C18   27   3.912   3.700   9.013
    1CHL1  H18A   28   3.842   3.697   9.100
    1CHL1  H18B   29   3.915   3.804   8.975
    1CHL1  H18C   30   3.870   3.635   8.934
    1CHL1   C12   31   4.051   3.504   9.105
    1CHL1  H12A   32   4.003   3.435   9.032
    1CHL1  H12B   33   4.155   3.470   9.122
    1CHL1   C11   34   3.973   3.492   9.237
    1CHL1  H11A   35   3.866   3.512   9.215
    1CHL1  H11B   36   3.980   3.388   9.274
    1CHL1    C9   37   4.024   3.591   9.347
    1CHL1    H9   38   4.129   3.559   9.368
    1CHL1   C10   39   3.949   3.581   9.482
    1CHL1   C19   40   3.797   3.592   9.454
    1CHL1  H19A   41   3.739   3.603   9.548
    1CHL1  H19B   42   3.775   3.680   9.390
    1CHL1  H19C   43   3.760   3.501   9.402
    1CHL1    C1   44   3.983   3.444   9.548
    1CHL1   H1A   45   3.942   3.361   9.486
    1CHL1   H1B   46   4.093   3.432   9.550
    1CHL1    C2   47   3.931   3.427   9.692
    1CHL1   H2A   48   3.967   3.331   9.734
    1CHL1   H2B   49   3.820   3.425   9.691
    1CHL1   C20   50   4.121   3.644   8.798
    1CHL1   H20   51   4.034   3.705   8.762
    1CHL1   C21   52   4.084   3.495   8.787
    1CHL1  H21A   53   4.084   3.460   8.681
    1CHL1  H21B   54   3.982   3.476   8.827
    1CHL1  H21C   55   4.157   3.433   8.844
    1CHL1   C22   56   4.240   3.675   8.705
    1CHL1  H22A   57   4.281   3.776   8.725
    1CHL1  H22B   58   4.322   3.602   8.727
    1CHL1   C23   59   4.203   3.667   8.557
    1CHL1  H23A   60   4.268   3.592   8.507
    1CHL1  H23B   61   4.098   3.632   8.547
    1CHL1   C24   62   4.217   3.802   8.484
    1CHL1  H24A   63   4.143   3.875   8.523
    1CHL1  H24B   64   4.319   3.842   8.504
    1CHL1   C25   65   4.201   3.785   8.333
    1CHL1   H25   66   4.268   3.701   8.305
    1CHL1   C26   67   4.057   3.745   8.293
    1CHL1  H26A   68   3.988   3.831   8.309
    1CHL1  H26B   69   4.054   3.715   8.187
    1CHL1  H26C   70   4.021   3.659   8.353
    1CHL1   C27   71   4.249   3.908   8.255
    1CHL1  H27A   72   4.254   3.886   8.146
    1CHL1  H27B   73   4.182   3.995   8.272
    1CHL1  H27C   74   4.352   3.936   8.289
    2CHL1    C3   75   3.771   2.697   9.752
    2CHL1    H3   76   3.709   2.789   9.746
    2CHL1    O3   77   3.781   2.658   9.889
    2CHL1   H3'   78   3.702   2.608   9.908
    2CHL1    C4   79   3.705   2.585   9.671
    2CHL1   H4A   80   3.764   2.492   9.684
    2CHL1   H4B   81   3.605   2.566   9.714
    2CHL1    C5   82   3.697   2.621   9.523
    2CHL1    C6   83   3.580   2.624   9.460
    2CHL1    H6   84   3.488   2.598   9.515
    2CHL1    C7   85   3.565   2.652   9.314
    2CHL1   H7A   86   3.500   2.575   9.267
    2CHL1   H7B   87   3.521   2.752   9.298
    2CHL1    C8   88   3.697   2.648   9.235
    2CHL1    H8   89   3.723   2.541   9.223
    2CHL1   C14   90   3.678   2.715   9.099
    2CHL1   H14   91   3.668   2.824   9.118
    2CHL1   C15   92   3.553   2.677   9.017
    2CHL1  H15A   93   3.533   2.568   9.029
    2CHL1  H15B   94   3.464   2.734   9.050
    2CHL1   C16   95   3.591   2.708   8.872
    2CHL1  H16A   96   3.581   2.616   8.811
    2CHL1  H16B   97   3.525   2.787   8.827
    2CHL1   C17   98   3.739   2.756   8.873
    2CHL1   H17   99   3.737   2.866   8.885
    2CHL1   C13  100   3.797   2.699   9.006
    2CHL1   C18  101   3.824   2.548   8.984
    2CHL1  H18A  102   3.860   2.499   9.077
    2CHL1  H18B  103   3.733   2.494   8.950
    2CHL1  H18C  104   3.902   2.533   8.906
    2CHL1   C12  105   3.913   2.773   9.075
    2CHL1  H12A  106   4.009   2.760   9.020
    2CHL1  H12B  107   3.890   2.882   9.077
    2CHL1   C11  108   3.937   2.725   9.221
    2CHL1  H11A  109   3.980   2.623   9.212
    2CHL1  H11B  110   4.013   2.790   9.270
    2CHL1    C9  111   3.810   2.718   9.311
    2CHL1    H9  112   3.776   2.824   9.324
    2CHL1   C10  113   3.830   2.661   9.455
    2CHL1   C19  114   3.922   2.536   9.445
    2CHL1  H19A  115   3.928   2.480   9.540
    2CHL1  H19B  116   3.888   2.467   9.364
    2CHL1  H19C  117   4.025   2.569   9.420
    2CHL1    C1  118   3.899   2.767   9.546
    2CHL1   H1A  119   4.001   2.787   9.506
    2CHL1   H1B  120   3.842   2.862   9.539
    2CHL1    C2  121   3.910   2.728   9.695
    2CHL1   H2A  122   3.958   2.810   9.752
    2CHL1   H2B  123   3.975   2.638   9.705
    2CHL1   C20  124   3.813   2.725   8.741
    2CHL1   H20  125   3.831   2.616   8.733
    2CHL1   C21  126   3.948   2.798   8.743
    2CHL1  H21A  127   4.001   2.788   8.646
    2CHL1  H21B  128   4.014   2.755   8.822
    2CHL1  H21C  129   3.934   2.907   8.764
    2CHL1   C22  130   3.737   2.763   8.611
    2CHL1  H22A  131   3.630   2.731   8.617
    2CHL1  H22B  132   3.738   2.874   8.601
    2CHL1   C23  133   3.796   2.698   8.484
    2CHL1  H23A  134   3.904   2.721   8.476
    2CHL1  H23B  135   3.785   2.588   8.492
    2CHL1   C24  136   3.728   2.748   8.356
    2CHL1  H24A  137   3.621   2.719   8.355
    2CHL1  H24B  138   3.733   2.859   8.356
    2CHL1   C25  139   3.795   2.700   8.225
    2CHL1   H25  140   3.903   2.725   8.231
    2CHL1   C26  141   3.783   2.547   8.206
    2CHL1  H26A  142   3.835   2.494   8.289
    2CHL1  H26B  143   3.676   2.517   8.206
    2CHL1  H26C  144   3.829   2.517   8.110
    2CHL1   C27  145   3.736   2.772   8.103
    2CHL1  H27A  146   3.628   2.749   8.093
    2CHL1  H27B  147   3.748   2.882   8.114
    2CHL1  H27C  148   3.788   2.740   8.011
    3CHL1    C3  149   5.394   3.078   9.735
    3CHL1    H3  150   5.460   2.993   9.707
    3CHL1    O3  151   5.370   3.075   9.875
    3CHL1   H3'  152   5.405   3.158   9.907
    3CHL1    C4  153   5.461   3.212   9.695
    3CHL1   H4A  154   5.397   3.294   9.735
    3CHL1   H4B  155   5.558   3.218   9.748
    3CHL1    C5  156   5.478   3.233   9.546
    3CHL1    C6  157   5.591   3.281   9.489
    3CHL1    H6  158   5.677   3.307   9.552
    3CHL1    C7  159   5.603   3.314   9.341
    3CHL1   H7A  160   5.635   3.419   9.327
    3CHL1   H7B  161   5.683   3.249   9.298
    3CHL1    C8  162   5.474   3.293   9.256
    3CHL1    H8  163   5.411   3.384   9.263
    3CHL1   C14  164   5.508   3.272   9.108
    3CHL1   H14  165   5.580   3.188   9.107
    3CHL1   C15  166   5.578   3.388   9.037
    3CHL1  H15A  167   5.524   3.483   9.054
    3CHL1  H15B  168   5.683   3.397   9.073
    3CHL1   C16  169   5.572   3.348   8.889
    3CHL1  H16A  170   5.533   3.433   8.829
    3CHL1  H16B  171   5.673   3.320   8.850
    3CHL1   C17  172   5.476   3.225   8.881
    3CHL1   H17  173   5.539   3.134   8.889
    3CHL1   C13  174   5.395   3.230   9.013
    3CHL1   C18  175   5.288   3.341   9.001
    3CHL1  H18A  176   5.195   3.299   8.957
    3CHL1  H18B  177   5.265   3.383   9.101
    3CHL1  H18C  178   5.322   3.425   8.936
    3CHL1   C12  179   5.337   3.099   9.069
    3CHL1  H12A  180   5.252   3.063   9.008
    3CHL1  H12B  181   5.416   3.021   9.068
    3CHL1   C11  182   5.289   3.118   9.215
    3CHL1  H11A  183   5.203   3.189   9.215
    3CHL1  H11B  184   5.252   3.020   9.251
    3CHL1    C9  185   5.399   3.172   9.311
    3CHL1    H9  186   5.473   3.089   9.313
    3CHL1   C10  187   5.357   3.196   9.459
    3CHL1   C19  188   5.271   3.324   9.474
    3CHL1  H19A  189   5.330   3.417   9.464
    3CHL1  H19B  190   5.196   3.328   9.393
    3CHL1  H19C  191   5.218   3.327   9.572
    3CHL1    C1  192   5.280   3.070   9.510
    3CHL1   H1A  193   5.181   3.065   9.460
    3CHL1   H1B  194   5.338   2.980   9.480
    3CHL1    C2  195   5.260   3.063   9.662
    3CHL1   H2A  196   5.213   2.966   9.689
    3CHL1   H2B  197   5.190   3.143   9.695
    3CHL1   C20  198   5.408   3.217   8.743
    3CHL1   H20  199   5.355   3.313   8.723
    3CHL1   C21  200   5.303   3.103   8.738
    3CHL1  H21A  201   5.258   3.095   8.637
    3CHL1  H21B  202   5.220   3.124   8.809
    3CHL1  H21C  203   5.350   3.006   8.765
    3CHL1   C22  204   5.517   3.198   8.633
    3CHL1  H22A  205   5.590   3.281   8.639
    3CHL1  H22B  206   5.571   3.104   8.654
    3CHL1   C23  207   5.467   3.194   8.487
    3CHL1  H23A  208   5.397   3.109   8.474
    3CHL1  H23B  209   5.412   3.288   8.466
    3CHL1   C24  210   5.583   3.180   8.386
    3CHL1  H24A  211   5.645   3.272   8.392
    3CHL1  H24B  212   5.647   3.093   8.414
    3CHL1   C25  213   5.536   3.161   8.240
    3CHL1   H25  214   5.458   3.238   8.222
    3CHL1   C26  215   5.648   3.188   8.139
    3CHL1  H26A  216   5.697   3.286   8.160
    3CHL1  H26B  217   5.724   3.107   8.146
    3CHL1  H26C  218   5.608   3.189   8.036
    3CHL1   C27  219   5.478   3.021   8.216
    3CHL1  H27A  220   5.393   3.000   8.284
    3CHL1  H27B  221   5.442   3.012   8.111
    3CHL1  H27C  222   5.557   2.944   8.232
    4CHL1    C3  223   5.509   3.958   9.753
    4CHL1    H3  224   5.426   3.909   9.699
    4CHL1    O3  225   5.487   3.946   9.892
    4CHL1   H3'  226   5.457   3.856   9.904
    4CHL1    C4  227   5.643   3.893   9.715
    4CHL1   H4A  228   5.725   3.948   9.767
    4CHL1   H4B  229   5.644   3.789   9.754
    4CHL1    C5  230   5.663   3.898   9.565
    4CHL1    C6  231   5.683   3.785   9.495
    4CHL1    H6  232   5.690   3.689   9.548
    4CHL1    C7  233   5.701   3.781   9.347
    4CHL1   H7A  234   5.791   3.722   9.320
    4CHL1   H7B  235   5.613   3.729   9.302
    4CHL1    C8  236   5.713   3.921   9.280
    4CHL1    H8  237   5.819   3.954   9.287
    4CHL1   C14  238   5.671   3.910   9.135
    4CHL1   H14  239   5.563   3.883   9.138
    4CHL1   C15  240   5.737   3.800   9.052
    4CHL1  H15A  241   5.846   3.797   9.075
    4CHL1  H15B  242   5.692   3.700   9.073
    4CHL1   C16  243   5.713   3.844   8.908
    4CHL1  H16A  244   5.813   3.865   8.863
    4CHL1  H16B  245   5.660   3.768   8.848
    4CHL1   C17  246   5.635   3.978   8.916
    4CHL1   H17  247   5.528   3.949   8.926
    4CHL1   C13  248   5.678   4.038   9.052
    4CHL1   C18  249   5.824   4.090   9.042
    4CHL1  H18A  250   5.865   4.112   9.143
    4CHL1  H18B  251   5.892   4.016   8.994
    4CHL1  H18C  252   5.827   4.184   8.984
    4CHL1   C12  253   5.588   4.144   9.118
    4CHL1  H12A  254   5.600   4.241   9.066
    4CHL1  H12B  255   5.482   4.111   9.109
    4CHL1   C11  256   5.623   4.161   9.268
    4CHL1  H11A  257   5.723   4.208   9.276
    4CHL1  H11B  258   5.549   4.231   9.313
    4CHL1    C9  259   5.623   4.026   9.347
    4CHL1    H9  260   5.520   3.986   9.336
    4CHL1   C10  261   5.648   4.037   9.500
    4CHL1   C19  262   5.781   4.111   9.525
    4CHL1  H19A  263   5.866   4.054   9.481
    4CHL1  H19B  264   5.779   4.212   9.480
    4CHL1  H19C  265   5.800   4.123   9.634
    4CHL1    C1  266   5.530   4.118   9.562
    4CHL1   H1A  267   5.541   4.226   9.535
    4CHL1   H1B  268   5.436   4.081   9.515
    4CHL1    C2  269   5.514   4.106   9.714
    4CHL1   H2A  270   5.420   4.156   9.746
    4CHL1   H2B  271   5.598   4.156   9.765
    4CHL1   C20  272   5.645   4.065   8.790
    4CHL1   H20  273   5.733   4.132   8.799
    4CHL1   C21  274   5.517   4.150   8.783
    4CHL1  H21A  275   5.427   4.085   8.782
    4CHL1  H21B  276   5.515   4.211   8.690
    4CHL1  H21C  277   5.510   4.219   8.870
    4CHL1   C22  278   5.665   3.985   8.658
    4CHL1  H22A  279   5.742   3.906   8.669
    4CHL1  H22B  280   5.569   3.936   8.629
    4CHL1   C23  281   5.718   4.071   8.542
    4CHL1  H23A  282   5.640   4.146   8.516
    4CHL1  H23B  283   5.809   4.124   8.576
    4CHL1   C24  284   5.749   3.991   8.414
    4CHL1  H24A  285   5.821   3.910   8.438
    4CHL1  H24B  286   5.655   3.945   8.378
    4CHL1   C25  287   5.809   4.078   8.300
    4CHL1   H25  288   5.749   4.171   8.294
    4CHL1   C26  289   5.955   4.117   8.327
    4CHL1  H26A  290   6.019   4.026   8.333
    4CHL1  H26B  291   5.994   4.180   8.244
    4CHL1  H26C  292   5.965   4.173   8.422
    4CHL1   C27  293   5.797   4.006   8.165
    4CHL1  H27A  294   5.690   3.984   8.142
    4CHL1  H27B  295   5.838   4.069   8.084
    4CHL1  H27C  296   5.853   3.910   8.167
    5CHL1    C3  297   4.964   2.375   9.773
    5CHL1    H3  298   5.004   2.273   9.753
    5CHL1    O3  299   4.959   2.392   9.914
    5CHL1   H3'  300   4.905   2.319   9.945
    5CHL1    C4  301   5.057   2.480   9.711
    5CHL1   H4A  302   5.026   2.581   9.747
    5CHL1   H4B  303   5.159   2.463   9.752
    5CHL1    C5  304   5.055   2.477   9.560
    5CHL1    C6  305   5.168   2.462   9.489
    5CHL1    H6  306   5.265   2.456   9.540
    5CHL1    C7  307   5.169   2.464   9.339
    5CHL1   H7A  308   5.257   2.521   9.301
    5CHL1   H7B  309   5.179   2.360   9.302
    5CHL1    C8  310   5.041   2.526   9.278
    5CHL1    H8  311   5.040   2.635   9.300
    5CHL1   C14  312   5.045   2.508   9.128
    5CHL1   H14  313   5.056   2.399   9.112
    5CHL1   C15  314   5.164   2.573   9.056
    5CHL1  H15A  315   5.182   2.675   9.094
    5CHL1  H15B  316   5.256   2.512   9.068
    5CHL1   C16  317   5.119   2.578   8.910
    5CHL1  H16A  318   5.119   2.682   8.873
    5CHL1  H16B  319   5.190   2.518   8.848
    5CHL1   C17  320   4.975   2.519   8.907
    5CHL1   H17  321   4.988   2.408   8.903
    5CHL1   C13  322   4.920   2.549   9.049
    5CHL1   C18  323   4.892   2.701   9.059
    5CHL1  H18A  324   4.974   2.763   9.016
    5CHL1  H18B  325   4.799   2.726   9.005
    5CHL1  H18C  326   4.880   2.732   9.165
    5CHL1   C12  327   4.802   2.468   9.107
    5CHL1  H12A  328   4.707   2.499   9.058
    5CHL1  H12B  329   4.819   2.360   9.086
    5CHL1   C11  330   4.788   2.489   9.260
    5CHL1  H11A  331   4.758   2.594   9.276
    5CHL1  H11B  332   4.707   2.424   9.298
    5CHL1    C9  333   4.919   2.459   9.339
    5CHL1    H9  334   4.936   2.350   9.325
    5CHL1   C10  335   4.916   2.482   9.494
    5CHL1   C19  336   4.860   2.624   9.519
    5CHL1  H19A  337   4.917   2.701   9.463
    5CHL1  H19B  338   4.754   2.625   9.485
    5CHL1  H19C  339   4.861   2.652   9.626
    5CHL1    C1  340   4.824   2.377   9.561
    5CHL1   H1A  341   4.721   2.389   9.523
    5CHL1   H1B  342   4.859   2.276   9.532
    5CHL1    C2  343   4.822   2.385   9.715
    5CHL1   H2A  344   4.759   2.303   9.757
    5CHL1   H2B  345   4.778   2.482   9.747
    5CHL1   C20  346   4.896   2.555   8.780
    5CHL1   H20  347   4.862   2.660   8.783
    5CHL1   C21  348   4.775   2.459   8.773
    5CHL1  H21A  349   4.722   2.467   8.676
    5CHL1  H21B  350   4.702   2.481   8.854
    5CHL1  H21C  351   4.809   2.354   8.784
    5CHL1   C22  352   4.984   2.533   8.653
    5CHL1  H22A  353   5.080   2.588   8.663
    5CHL1  H22B  354   5.004   2.424   8.652
    5CHL1   C23  355   4.934   2.567   8.512
    5CHL1  H23A  356   4.993   2.505   8.441
    5CHL1  H23B  357   4.829   2.533   8.501
    5CHL1   C24  358   4.952   2.715   8.470
    5CHL1  H24A  359   4.856   2.767   8.489
    5CHL1  H24B  360   5.029   2.762   8.535
    5CHL1   C25  361   4.993   2.744   8.322
    5CHL1   H25  362   4.955   2.846   8.300
    5CHL1   C26  363   5.146   2.750   8.302
    5CHL1  H26A  364   5.192   2.649   8.315
    5CHL1  H26B  365   5.169   2.786   8.200
    5CHL1  H26C  366   5.192   2.820   8.375
    5CHL1   C27  367   4.931   2.649   8.218
    5CHL1  H27A  368   4.968   2.545   8.231
    5CHL1  H27B  369   4.820   2.649   8.227
    5CHL1  H27C  370   4.957   2.683   8.115
    6CHL1    C3  371   3.006   5.644   9.752
    6CHL1    H3  372   3.115   5.623   9.752
    6CHL1    O3  373   2.955   5.616   9.882
    6CHL1   H3'  374   2.970   5.522   9.893
    6CHL1    C4  375   2.982   5.792   9.718
    6CHL1   H4A  376   2.874   5.814   9.729
    6CHL1   H4B  377   3.034   5.853   9.795
    6CHL1    C5  378   3.030   5.825   9.578
    6CHL1    C6  379   3.123   5.919   9.557
    6CHL1    H6  380   3.163   5.976   9.642
    6CHL1    C7  381   3.173   5.957   9.421
    6CHL1   H7A  382   3.183   6.067   9.411
    6CHL1   H7B  383   3.275   5.915   9.408
    6CHL1    C8  384   3.082   5.904   9.307
    6CHL1    H8  385   2.991   5.967   9.304
    6CHL1   C14  386   3.158   5.913   9.176
    6CHL1   H14  387   3.239   5.839   9.190
    6CHL1   C15  388   3.228   6.046   9.146
    6CHL1  H15A  389   3.155   6.125   9.173
    6CHL1  H15B  390   3.320   6.060   9.206
    6CHL1   C16  391   3.255   6.044   8.996
    6CHL1  H16A  392   3.220   6.139   8.951
    6CHL1  H16B  393   3.364   6.035   8.975
    6CHL1   C17  394   3.179   5.921   8.936
    6CHL1   H17  395   3.255   5.841   8.920
    6CHL1   C13  396   3.084   5.868   9.049
    6CHL1   C18  397   2.949   5.938   9.036
    6CHL1  H18A  398   2.889   5.890   8.956
    6CHL1  H18B  399   2.888   5.934   9.129
    6CHL1  H18C  400   2.966   6.044   9.010
    6CHL1   C12  401   3.059   5.717   9.068
    6CHL1  H12A  402   3.001   5.677   8.983
    6CHL1  H12B  403   3.157   5.664   9.072
    6CHL1   C11  404   2.982   5.690   9.201
    6CHL1  H11A  405   2.878   5.727   9.189
    6CHL1  H11B  406   2.976   5.580   9.218
    6CHL1    C9  407   3.045   5.757   9.329
    6CHL1    H9  408   3.142   5.705   9.340
    6CHL1   C10  409   2.971   5.736   9.465
    6CHL1   C19  410   2.822   5.775   9.447
    6CHL1  H19A  411   2.813   5.880   9.412
    6CHL1  H19B  412   2.772   5.709   9.374
    6CHL1  H19C  413   2.766   5.766   9.543
    6CHL1    C1  414   2.985   5.587   9.507
    6CHL1   H1A  415   2.929   5.524   9.434
    6CHL1   H1B  416   3.092   5.558   9.500
    6CHL1    C2  417   2.936   5.555   9.649
    6CHL1   H2A  418   2.957   5.448   9.673
    6CHL1   H2B  419   2.827   5.571   9.656
    6CHL1   C20  420   3.134   5.950   8.791
    6CHL1   H20  421   3.051   6.025   8.795
    6CHL1   C21  422   3.077   5.819   8.732
    6CHL1  H21A  423   2.980   5.794   8.780
    6CHL1  H21B  424   3.147   5.735   8.750
    6CHL1  H21C  425   3.060   5.828   8.623
    6CHL1   C22  426   3.248   6.014   8.703
    6CHL1  H22A  427   3.287   6.106   8.751
    6CHL1  H22B  428   3.332   5.941   8.698
    6CHL1   C23  429   3.209   6.058   8.559
    6CHL1  H23A  430   3.163   5.973   8.505
    6CHL1  H23B  431   3.134   6.139   8.568
    6CHL1   C24  432   3.315   6.123   8.468
    6CHL1  H24A  433   3.356   6.215   8.515
    6CHL1  H24B  434   3.399   6.053   8.452
    6CHL1   C25  435   3.253   6.160   8.329
    6CHL1   H25  436   3.191   6.074   8.298
    6CHL1   C26  437   3.164   6.285   8.334
    6CHL1  H26A  438   3.224   6.375   8.357
    6CHL1  H26B  439   3.115   6.301   8.235
    6CHL1  H26C  440   3.084   6.277   8.410
    6CHL1   C27  441   3.359   6.181   8.220
    6CHL1  H27A  442   3.435   6.100   8.221
    6CHL1  H27B  443   3.311   6.185   8.120
    6CHL1  H27C  444   3.409   6.279   8.237
    7CHL1    C3  445   4.826   1.563   9.736
    7CHL1    H3  446   4.902   1.483   9.738
    7CHL1    O3  447   4.787   1.592   9.870
    7CHL1   H3'  448   4.867   1.623   9.912
    7CHL1    C4  449   4.886   1.690   9.673
    7CHL1   H4A  450   4.809   1.771   9.678
    7CHL1   H4B  451   4.972   1.723   9.734
    7CHL1    C5  452   4.926   1.665   9.528
    7CHL1    C6  453   5.051   1.687   9.487
    7CHL1    H6  454   5.125   1.728   9.557
    7CHL1    C7  455   5.098   1.667   9.345
    7CHL1   H7A  456   5.162   1.752   9.313
    7CHL1   H7B  457   5.159   1.575   9.338
    7CHL1    C8  458   4.979   1.655   9.246
    7CHL1    H8  459   4.935   1.757   9.235
    7CHL1   C14  460   5.027   1.607   9.110
    7CHL1   H14  461   5.068   1.505   9.127
    7CHL1   C15  462   5.141   1.686   9.044
    7CHL1  H15A  463   5.124   1.795   9.057
    7CHL1  H15B  464   5.240   1.659   9.086
    7CHL1   C16  465   5.129   1.651   8.895
    7CHL1  H16A  466   5.113   1.746   8.840
    7CHL1  H16B  467   5.221   1.603   8.856
    7CHL1   C17  468   5.003   1.559   8.879
    7CHL1   H17  469   5.038   1.454   8.892
    7CHL1   C13  470   4.918   1.591   9.004
    7CHL1   C18  471   4.845   1.725   8.980
    7CHL1  H18A  472   4.915   1.803   8.942
    7CHL1  H18B  473   4.763   1.712   8.905
    7CHL1  H18C  474   4.799   1.764   9.073
    7CHL1   C12  475   4.821   1.483   9.057
    7CHL1  H12A  476   4.736   1.467   8.987
    7CHL1  H12B  477   4.876   1.387   9.066
    7CHL1   C11  478   4.763   1.522   9.195
    7CHL1  H11A  479   4.695   1.607   9.178
    7CHL1  H11B  480   4.702   1.437   9.233
    7CHL1    C9  481   4.872   1.560   9.301
    7CHL1    H9  482   4.926   1.465   9.321
    7CHL1   C10  483   4.815   1.607   9.438
    7CHL1   C19  484   4.713   1.721   9.414
    7CHL1  H19A  485   4.758   1.804   9.355
    7CHL1  H19B  486   4.623   1.683   9.359
    7CHL1  H19C  487   4.675   1.763   9.509
    7CHL1    C1  488   4.745   1.488   9.510
    7CHL1   H1A  489   4.655   1.459   9.452
    7CHL1   H1B  490   4.815   1.401   9.509
    7CHL1    C2  491   4.705   1.516   9.656
    7CHL1   H2A  492   4.662   1.425   9.702
    7CHL1   H2B  493   4.627   1.596   9.658
    7CHL1   C20  494   4.941   1.570   8.739
    7CHL1   H20  495   4.894   1.671   8.729
    7CHL1   C21  496   4.831   1.463   8.719
    7CHL1  H21A  497   4.744   1.483   8.786
    7CHL1  H21B  498   4.872   1.362   8.740
    7CHL1  H21C  499   4.793   1.465   8.615
    7CHL1   C22  500   5.046   1.559   8.625
    7CHL1  H22A  501   5.129   1.630   8.643
    7CHL1  H22B  502   5.090   1.457   8.623
    7CHL1   C23  503   4.987   1.594   8.487
    7CHL1  H23A  504   4.936   1.506   8.442
    7CHL1  H23B  505   4.912   1.673   8.507
    7CHL1   C24  506   5.092   1.652   8.390
    7CHL1  H24A  507   5.133   1.744   8.436
    7CHL1  H24B  508   5.176   1.580   8.382
    7CHL1   C25  509   5.043   1.690   8.249
    7CHL1   H25  510   4.973   1.611   8.213
    7CHL1   C26  511   4.974   1.827   8.242
    7CHL1  H26A  512   5.042   1.907   8.280
    7CHL1  H26B  513   4.950   1.856   8.138
    7CHL1  H26C  514   4.880   1.830   8.302
    7CHL1   C27  515   5.163   1.695   8.153
    7CHL1  H27A  516   5.231   1.776   8.184
    7CHL1  H27B  517   5.218   1.599   8.152
    7CHL1  H27C  518   5.128   1.717   8.049
    8CHL1    C3  519   6.260   4.036   9.734
    8CHL1    H3  520   6.256   3.927   9.716
    8CHL1    O3  521   6.255   4.060   9.874
    8CHL1   H3'  522   6.340   4.030   9.908
    8CHL1    C4  523   6.391   4.094   9.678
    8CHL1   H4A  524   6.395   4.201   9.708
    8CHL1   H4B  525   6.475   4.043   9.729
    8CHL1    C5  526   6.400   4.083   9.528
    8CHL1    C6  527   6.505   4.025   9.468
    8CHL1    H6  528   6.588   3.987   9.529
    8CHL1    C7  529   6.520   4.014   9.319
    8CHL1   H7A  530   6.623   4.036   9.286
    8CHL1   H7B  531   6.496   3.909   9.293
    8CHL1    C8  532   6.421   4.103   9.239
    8CHL1    H8  533   6.455   4.209   9.244
    8CHL1   C14  534   6.419   4.061   9.092
    8CHL1   H14  535   6.390   3.954   9.094
    8CHL1   C15  536   6.550   4.069   9.012
    8CHL1  H15A  537   6.596   4.170   9.026
    8CHL1  H15B  538   6.625   3.992   9.040
    8CHL1   C16  539   6.503   4.053   8.866
    8CHL1  H16A  540   6.544   4.136   8.804
    8CHL1  H16B  541   6.537   3.957   8.822
    8CHL1   C17  542   6.346   4.059   8.869
    8CHL1   H17  543   6.310   3.955   8.879
    8CHL1   C13  544   6.314   4.128   9.003
    8CHL1   C18  545   6.342   4.280   8.989
    8CHL1  H18A  546   6.438   4.300   8.935
    8CHL1  H18B  547   6.261   4.329   8.931
    8CHL1  H18C  548   6.348   4.329   9.088
    8CHL1   C12  549   6.175   4.103   9.066
    8CHL1  H12A  550   6.096   4.156   9.008
    8CHL1  H12B  551   6.154   3.994   9.063
    8CHL1   C11  552   6.170   4.153   9.211
    8CHL1  H11A  553   6.179   4.263   9.210
    8CHL1  H11B  554   6.070   4.128   9.253
    8CHL1    C9  555   6.281   4.090   9.300
    8CHL1    H9  556   6.259   3.981   9.300
    8CHL1   C10  557   6.277   4.134   9.449
    8CHL1   C19  558   6.282   4.288   9.456
    8CHL1  H19A  559   6.193   4.333   9.408
    8CHL1  H19B  560   6.284   4.325   9.561
    8CHL1  H19C  561   6.373   4.325   9.404
    8CHL1    C1  562   6.145   4.085   9.515
    8CHL1   H1A  563   6.061   4.142   9.470
    8CHL1   H1B  564   6.131   3.977   9.491
    8CHL1    C2  565   6.139   4.102   9.667
    8CHL1   H2A  566   6.045   4.058   9.707
    8CHL1   H2B  567   6.138   4.210   9.693
    8CHL1   C20  568   6.288   4.113   8.738
    8CHL1   H20  569   6.329   4.215   8.721
    8CHL1   C21  570   6.134   4.123   8.744
    8CHL1  H21A  571   6.092   4.144   8.643
    8CHL1  H21B  572   6.102   4.207   8.810
    8CHL1  H21C  573   6.089   4.028   8.781
    8CHL1   C22  574   6.327   4.026   8.617
    8CHL1  H22A  575   6.430   3.985   8.628
    8CHL1  H22B  576   6.258   3.939   8.610
    8CHL1   C23  577   6.326   4.107   8.487
    8CHL1  H23A  578   6.225   4.151   8.470
    8CHL1  H23B  579   6.398   4.190   8.497
    8CHL1   C24  580   6.362   4.023   8.364
    8CHL1  H24A  581   6.458   3.969   8.380
    8CHL1  H24B  582   6.283   3.947   8.349
    8CHL1   C25  583   6.374   4.110   8.237
    8CHL1   H25  584   6.291   4.183   8.238
    8CHL1   C26  585   6.507   4.186   8.233
    8CHL1  H26A  586   6.513   4.249   8.141
    8CHL1  H26B  587   6.518   4.252   8.321
    8CHL1  H26C  588   6.592   4.115   8.232
    8CHL1   C27  589   6.358   4.023   8.112
    8CHL1  H27A  590   6.440   3.948   8.108
    8CHL1  H27B  591   6.261   3.970   8.113
    8CHL1  H27C  592   6.363   4.086   8.021
    9CHL1    C3  593   3.222   6.368   9.711
    9CHL1    H3  594   3.284   6.282   9.677
    9CHL1    O3  595   3.255   6.397   9.846
    9CHL1   H3'  596   3.185   6.358   9.899
    9CHL1    C4  597   3.252   6.491   9.623
    9CHL1   H4A  598   3.197   6.577   9.665
    9CHL1   H4B  599   3.360   6.514   9.634
    9CHL1    C5  600   3.213   6.470   9.478
    9CHL1    C6  601   3.300   6.486   9.377
    9CHL1    H6  602   3.403   6.518   9.401
    9CHL1    C7  603   3.267   6.469   9.232
    9CHL1   H7A  604   3.307   6.554   9.172
    9CHL1   H7B  605   3.316   6.377   9.195
    9CHL1    C8  606   3.114   6.458   9.202
    9CHL1    H8  607   3.070   6.560   9.204
    9CHL1   C14  608   3.093   6.395   9.064
    9CHL1   H14  609   3.145   6.297   9.071
    9CHL1   C15  610   3.156   6.459   8.938
    9CHL1  H15A  611   3.135   6.568   8.937
    9CHL1  H15B  612   3.266   6.443   8.935
    9CHL1   C16  613   3.084   6.389   8.821
    9CHL1  H16A  614   3.038   6.466   8.755
    9CHL1  H16B  615   3.154   6.327   8.760
    9CHL1   C17  616   2.973   6.298   8.884
    9CHL1   H17  617   3.025   6.202   8.903
    9CHL1   C13  618   2.950   6.361   9.024
    9CHL1   C18  619   2.873   6.490   9.001
    9CHL1  H18A  620   2.905   6.546   8.910
    9CHL1  H18B  621   2.765   6.468   8.990
    9CHL1  H18C  622   2.887   6.557   9.088
    9CHL1   C12  623   2.885   6.278   9.137
    9CHL1  H12A  624   2.778   6.260   9.115
    9CHL1  H12B  625   2.937   6.180   9.147
    9CHL1   C11  626   2.897   6.345   9.275
    9CHL1  H11A  627   2.839   6.439   9.275
    9CHL1  H11B  628   2.851   6.277   9.350
    9CHL1    C9  629   3.045   6.373   9.311
    9CHL1    H9  630   3.095   6.274   9.307
    9CHL1   C10  631   3.068   6.422   9.457
    9CHL1   C19  632   2.973   6.540   9.486
    9CHL1  H19A  633   2.984   6.620   9.409
    9CHL1  H19B  634   2.869   6.504   9.486
    9CHL1  H19C  635   2.992   6.585   9.586
    9CHL1    C1  636   3.035   6.305   9.555
    9CHL1   H1A  637   2.926   6.283   9.551
    9CHL1   H1B  638   3.089   6.214   9.522
    9CHL1    C2  639   3.074   6.331   9.702
    9CHL1   H2A  640   3.053   6.240   9.762
    9CHL1   H2B  641   3.012   6.414   9.742
    9CHL1   C20  642   2.853   6.264   8.792
    9CHL1   H20  643   2.783   6.350   8.789
    9CHL1   C21  644   2.785   6.136   8.845
    9CHL1  H21A  645   2.689   6.114   8.793
    9CHL1  H21B  646   2.763   6.141   8.954
    9CHL1  H21C  647   2.849   6.049   8.824
    9CHL1   C22  648   2.899   6.234   8.647
    9CHL1  H22A  649   2.943   6.324   8.598
    9CHL1  H22B  650   2.979   6.161   8.668
    9CHL1   C23  651   2.807   6.160   8.546
    9CHL1  H23A  652   2.720   6.110   8.595
    9CHL1  H23B  653   2.765   6.233   8.473
    9CHL1   C24  654   2.888   6.050   8.474
    9CHL1  H24A  655   2.977   6.097   8.427
    9CHL1  H24B  656   2.923   5.979   8.552
    9CHL1   C25  657   2.819   5.969   8.364
    9CHL1   H25  658   2.722   5.931   8.403
    9CHL1   C26  659   2.796   6.055   8.240
    9CHL1  H26A  660   2.748   5.994   8.161
    9CHL1  H26B  661   2.730   6.142   8.264
    9CHL1  H26C  662   2.892   6.094   8.200
    9CHL1   C27  663   2.907   5.848   8.326
    9CHL1  H27A  664   3.004   5.883   8.283
    9CHL1  H27B  665   2.929   5.785   8.414
    9CHL1  H27C  666   2.856   5.785   8.249
   10CHL1    C3  667   1.004   4.839   9.762
   10CHL1    H3  668   0.947   4.931   9.739
   10CHL1    O3  669   1.016   4.828   9.903
   10CHL1   H3'  670   1.086   4.889   9.928
   10CHL1    C4  671   0.927   4.717   9.707
   10CHL1   H4A  672   0.977   4.625   9.745
   10CHL1   H4B  673   0.825   4.718   9.751
   10CHL1    C5  674   0.923   4.715   9.555
   10CHL1    C6  675   0.808   4.712   9.486
   10CHL1    H6  676   0.713   4.707   9.540
   10CHL1    C7  677   0.803   4.706   9.336
   10CHL1   H7A  678   0.725   4.633   9.303
   10CHL1   H7B  679   0.774   4.806   9.296
   10CHL1    C8  680   0.939   4.666   9.273
   10CHL1    H8  681   0.954   4.558   9.294
   10CHL1   C14  682   0.938   4.691   9.124
   10CHL1   H14  683   0.929   4.800   9.111
   10CHL1   C15  684   0.821   4.631   9.045
   10CHL1  H15A  685   0.790   4.536   9.094
   10CHL1  H15B  686   0.734   4.699   9.044
   10CHL1   C16  687   0.877   4.607   8.905
   10CHL1  H16A  688   0.890   4.498   8.889
   10CHL1  H16B  689   0.811   4.649   8.826
   10CHL1   C17  690   1.019   4.670   8.906
   10CHL1   H17  691   1.004   4.779   8.890
   10CHL1   C13  692   1.066   4.651   9.051
   10CHL1   C18  693   1.100   4.502   9.075
   10CHL1  H18A  694   1.020   4.433   9.040
   10CHL1  H18B  695   1.195   4.475   9.023
   10CHL1  H18C  696   1.116   4.481   9.183
   10CHL1   C12  697   1.178   4.742   9.104
   10CHL1  H12A  698   1.275   4.714   9.057
   10CHL1  H12B  699   1.155   4.847   9.076
   10CHL1   C11  700   1.190   4.730   9.257
   10CHL1  H11A  701   1.234   4.630   9.278
   10CHL1  H11B  702   1.263   4.806   9.293
   10CHL1    C9  703   1.054   4.746   9.334
   10CHL1    H9  704   1.025   4.852   9.317
   10CHL1   C10  705   1.061   4.727   9.487
   10CHL1   C19  706   1.140   4.597   9.517
   10CHL1  H19A  707   1.145   4.574   9.626
   10CHL1  H19B  708   1.093   4.510   9.467
   10CHL1  H19C  709   1.246   4.605   9.484
   10CHL1    C1  710   1.131   4.851   9.546
   10CHL1   H1A  711   1.232   4.860   9.500
   10CHL1   H1B  712   1.075   4.942   9.517
   10CHL1    C2  713   1.143   4.849   9.699
   10CHL1   H2A  714   1.194   4.942   9.733
   10CHL1   H2B  715   1.204   4.762   9.731
   10CHL1   C20  716   1.109   4.619   8.794
   10CHL1   H20  717   1.153   4.521   8.822
   10CHL1   C21  718   1.223   4.720   8.772
   10CHL1  H21A  719   1.262   4.711   8.668
   10CHL1  H21B  720   1.307   4.701   8.843
   10CHL1  H21C  721   1.187   4.824   8.784
   10CHL1   C22  722   1.034   4.593   8.661
   10CHL1  H22A  723   1.107   4.551   8.588
   10CHL1  H22B  724   0.959   4.513   8.677
   10CHL1   C23  725   0.967   4.715   8.598
   10CHL1  H23A  726   0.910   4.770   8.676
   10CHL1  H23B  727   1.044   4.785   8.559
   10CHL1   C24  728   0.868   4.677   8.487
   10CHL1  H24A  729   0.801   4.598   8.527
   10CHL1  H24B  730   0.806   4.765   8.461
   10CHL1   C25  731   0.932   4.623   8.358
   10CHL1   H25  732   0.998   4.538   8.384
   10CHL1   C26  733   0.822   4.568   8.267
   10CHL1  H26A  734   0.753   4.649   8.234
   10CHL1  H26B  735   0.867   4.521   8.177
   10CHL1  H26C  736   0.763   4.491   8.321
   10CHL1   C27  737   1.014   4.730   8.285
   10CHL1  H27A  738   1.102   4.760   8.346
   10CHL1  H27B  739   1.051   4.690   8.188
   10CHL1  H27C  740   0.951   4.819   8.265
   11CHL1    C3  741   2.352   1.088   9.763
   11CHL1    H3  742   2.333   1.196   9.746
   11CHL1    O3  743   2.349   1.063   9.903
   11CHL1   H3'  744   2.441   1.045   9.926
   11CHL1    C4  745   2.243   1.005   9.694
   11CHL1   H4A  746   2.257   0.898   9.720
   11CHL1   H4B  747   2.144   1.035   9.736
   11CHL1    C5  748   2.247   1.020   9.543
   11CHL1    C6  749   2.138   1.057   9.473
   11CHL1    H6  750   2.044   1.078   9.525
   11CHL1    C7  751   2.135   1.059   9.323
   11CHL1   H7A  752   2.044   1.007   9.286
   11CHL1   H7B  753   2.127   1.165   9.291
   11CHL1    C8  754   2.259   0.996   9.254
   11CHL1    H8  755   2.254   0.885   9.262
   11CHL1   C14  756   2.258   1.033   9.106
   11CHL1   H14  757   2.243   1.143   9.105
   11CHL1   C15  758   2.146   0.972   9.025
   11CHL1  H15A  759   2.155   0.861   9.031
   11CHL1  H15B  760   2.043   0.994   9.062
   11CHL1   C16  761   2.175   1.020   8.884
   11CHL1  H16A  762   2.154   0.936   8.814
   11CHL1  H16B  763   2.113   1.107   8.856
   11CHL1   C17  764   2.326   1.061   8.883
   11CHL1   H17  765   2.328   1.172   8.890
   11CHL1   C13  766   2.383   1.009   9.020
   11CHL1   C18  767   2.420   0.861   8.999
   11CHL1  H18A  768   2.341   0.805   8.944
   11CHL1  H18B  769   2.513   0.852   8.939
   11CHL1  H18C  770   2.438   0.810   9.096
   11CHL1   C12  771   2.499   1.080   9.093
   11CHL1  H12A  772   2.595   1.063   9.040
   11CHL1  H12B  773   2.479   1.190   9.095
   11CHL1   C11  774   2.512   1.030   9.240
   11CHL1  H11A  775   2.542   0.923   9.240
   11CHL1  H11B  776   2.594   1.087   9.289
   11CHL1    C9  777   2.383   1.047   9.326
   11CHL1    H9  778   2.370   1.157   9.331
   11CHL1   C10  779   2.384   0.998   9.475
   11CHL1   C19  780   2.409   0.846   9.482
   11CHL1  H19A  781   2.425   0.810   9.586
   11CHL1  H19B  782   2.321   0.790   9.443
   11CHL1  H19C  783   2.499   0.818   9.422
   11CHL1    C1  784   2.492   1.073   9.555
   11CHL1   H1A  785   2.592   1.045   9.515
   11CHL1   H1B  786   2.476   1.181   9.537
   11CHL1    C2  787   2.489   1.049   9.707
   11CHL1   H2A  788   2.568   1.110   9.757
   11CHL1   H2B  789   2.510   0.943   9.730
   11CHL1   C20  790   2.389   1.022   8.749
   11CHL1   H20  791   2.390   0.911   8.739
   11CHL1   C21  792   2.532   1.074   8.745
   11CHL1  H21A  793   2.592   1.033   8.830
   11CHL1  H21B  794   2.529   1.184   8.752
   11CHL1  H21C  795   2.583   1.044   8.651
   11CHL1   C22  796   2.308   1.077   8.627
   11CHL1  H22A  797   2.207   1.031   8.624
   11CHL1  H22B  798   2.294   1.187   8.640
   11CHL1   C23  799   2.372   1.052   8.488
   11CHL1  H23A  800   2.468   1.108   8.481
   11CHL1  H23B  801   2.395   0.944   8.479
   11CHL1   C24  802   2.284   1.096   8.370
   11CHL1  H24A  803   2.191   1.036   8.370
   11CHL1  H24B  804   2.256   1.203   8.384
   11CHL1   C25  805   2.349   1.079   8.231
   11CHL1   H25  806   2.453   1.116   8.239
   11CHL1   C26  807   2.352   0.931   8.188
   11CHL1  H26A  808   2.248   0.893   8.177
   11CHL1  H26B  809   2.402   0.921   8.089
   11CHL1  H26C  810   2.406   0.868   8.262
   11CHL1   C27  811   2.277   1.161   8.123
   11CHL1  H27A  812   2.342   1.173   8.034
   11CHL1  H27B  813   2.184   1.111   8.090
   11CHL1  H27C  814   2.250   1.262   8.163
   12CHL1    C3  815   0.773   2.854   9.753
   12CHL1    H3  816   0.843   2.940   9.757
   12CHL1    O3  817   0.706   2.848   9.878
   12CHL1   H3'  818   0.642   2.776   9.870
   12CHL1    C4  819   0.670   2.874   9.641
   12CHL1   H4A  820   0.593   2.794   9.649
   12CHL1   H4B  821   0.617   2.970   9.660
   12CHL1    C5  822   0.731   2.871   9.502
   12CHL1    C6  823   0.713   2.973   9.416
   12CHL1    H6  824   0.648   3.057   9.445
   12CHL1    C7  825   0.769   2.978   9.276
   12CHL1   H7A  826   0.692   3.010   9.204
   12CHL1   H7B  827   0.852   3.051   9.268
   12CHL1    C8  828   0.826   2.842   9.230
   12CHL1    H8  829   0.738   2.780   9.204
   12CHL1   C14  830   0.915   2.861   9.109
   12CHL1   H14  831   1.008   2.911   9.144
   12CHL1   C15  832   0.864   2.948   8.992
   12CHL1  H15A  833   0.754   2.935   8.978
   12CHL1  H15B  834   0.886   3.056   9.010
   12CHL1   C16  835   0.939   2.895   8.868
   12CHL1  H16A  836   0.864   2.857   8.795
   12CHL1  H16B  837   1.000   2.973   8.819
   12CHL1   C17  838   1.028   2.778   8.919
   12CHL1   H17  839   1.123   2.825   8.951
   12CHL1   C13  840   0.958   2.729   9.047
   12CHL1   C18  841   0.830   2.651   9.007
   12CHL1  H18A  842   0.855   2.562   8.945
   12CHL1  H18B  843   0.775   2.612   9.095
   12CHL1  H18C  844   0.759   2.713   8.948
   12CHL1   C12  845   1.044   2.656   9.152
   12CHL1  H12A  846   1.072   2.555   9.114
   12CHL1  H12B  847   1.137   2.714   9.168
   12CHL1   C11  848   0.971   2.639   9.287
   12CHL1  H11A  849   0.893   2.562   9.270
   12CHL1  H11B  850   1.042   2.600   9.362
   12CHL1    C9  851   0.904   2.770   9.341
   12CHL1    H9  852   0.988   2.838   9.366
   12CHL1   C10  853   0.823   2.750   9.472
   12CHL1   C19  854   0.733   2.624   9.459
   12CHL1  H19A  855   0.796   2.532   9.460
   12CHL1  H19B  856   0.661   2.615   9.542
   12CHL1  H19C  857   0.677   2.626   9.363
   12CHL1    C1  858   0.922   2.730   9.591
   12CHL1   H1A  859   0.978   2.635   9.576
   12CHL1   H1B  860   0.996   2.813   9.591
   12CHL1    C2  861   0.854   2.726   9.730
   12CHL1   H2A  862   0.932   2.717   9.809
   12CHL1   H2B  863   0.787   2.638   9.737
   12CHL1   C20  864   1.062   2.671   8.813
   12CHL1   H20  865   0.975   2.603   8.802
   12CHL1   C21  866   1.182   2.587   8.864
   12CHL1  H21A  867   1.147   2.502   8.927
   12CHL1  H21B  868   1.252   2.649   8.924
   12CHL1  H21C  869   1.239   2.544   8.779
   12CHL1   C22  870   1.087   2.719   8.668
   12CHL1  H22A  871   1.022   2.805   8.640
   12CHL1  H22B  872   1.193   2.750   8.658
   12CHL1   C23  873   1.062   2.605   8.567
   12CHL1  H23A  874   1.111   2.513   8.607
   12CHL1  H23B  875   0.953   2.584   8.561
   12CHL1   C24  876   1.122   2.629   8.429
   12CHL1  H24A  877   1.224   2.672   8.443
   12CHL1  H24B  878   1.137   2.532   8.376
   12CHL1   C25  879   1.047   2.722   8.332
   12CHL1   H25  880   1.049   2.824   8.375
   12CHL1   C26  881   1.123   2.720   8.199
   12CHL1  H26A  882   1.112   2.817   8.146
   12CHL1  H26B  883   1.232   2.705   8.216
   12CHL1  H26C  884   1.088   2.638   8.134
   12CHL1   C27  885   0.900   2.679   8.311
   12CHL1  H27A  886   0.845   2.670   8.407
   12CHL1  H27B  887   0.847   2.756   8.250
   12CHL1  H27C  888   0.896   2.582   8.257
   13CHL1    C3  889   6.443   4.811   9.702
   13CHL1    H3  890   6.482   4.914   9.690
   13CHL1    O3  891   6.426   4.787   9.841
   13CHL1   H3'  892   6.425   4.873   9.882
   13CHL1    C4  893   6.308   4.795   9.628
   13CHL1   H4A  894   6.267   4.694   9.651
   13CHL1   H4B  895   6.238   4.868   9.673
   13CHL1    C5  896   6.320   4.812   9.478
   13CHL1    C6  897   6.243   4.900   9.411
   13CHL1    H6  898   6.166   4.956   9.466
   13CHL1    C7  899   6.258   4.933   9.265
   13CHL1   H7A  900   6.159   4.947   9.218
   13CHL1   H7B  901   6.311   5.030   9.251
   13CHL1    C8  902   6.340   4.826   9.189
   13CHL1    H8  903   6.272   4.739   9.176
   13CHL1   C14  904   6.385   4.880   9.054
   13CHL1   H14  905   6.465   4.955   9.075
   13CHL1   C15  906   6.283   4.954   8.969
   13CHL1  H15A  907   6.188   4.897   8.965
   13CHL1  H15B  908   6.260   5.056   9.008
   13CHL1   C16  909   6.348   4.959   8.830
   13CHL1  H16A  910   6.272   4.934   8.754
   13CHL1  H16B  911   6.389   5.060   8.807
   13CHL1   C17  912   6.466   4.857   8.831
   13CHL1   H17  913   6.559   4.916   8.845
   13CHL1   C13  914   6.449   4.775   8.962
   13CHL1   C18  915   6.348   4.661   8.934
   13CHL1  H18A  916   6.317   4.609   9.027
   13CHL1  H18B  917   6.258   4.702   8.884
   13CHL1  H18C  918   6.391   4.583   8.867
   13CHL1   C12  919   6.577   4.727   9.033
   13CHL1  H12A  920   6.625   4.645   8.976
   13CHL1  H12B  921   6.649   4.812   9.038
   13CHL1   C11  922   6.548   4.680   9.178
   13CHL1  H11A  923   6.491   4.584   9.168
   13CHL1  H11B  924   6.644   4.657   9.229
   13CHL1    C9  925   6.465   4.781   9.264
   13CHL1    H9  926   6.528   4.871   9.275
   13CHL1   C10  927   6.435   4.734   9.410
   13CHL1   C19  928   6.384   4.589   9.405
   13CHL1  H19A  929   6.352   4.553   9.505
   13CHL1  H19B  930   6.297   4.580   9.336
   13CHL1  H19C  931   6.464   4.521   9.370
   13CHL1    C1  932   6.566   4.741   9.495
   13CHL1   H1A  933   6.639   4.668   9.454
   13CHL1   H1B  934   6.610   4.842   9.483
   13CHL1    C2  935   6.546   4.714   9.645
   13CHL1   H2A  936   6.643   4.726   9.698
   13CHL1   H2B  937   6.512   4.609   9.661
   13CHL1   C20  938   6.477   4.787   8.694
   13CHL1   H20  939   6.379   4.739   8.673
   13CHL1   C21  940   6.584   4.676   8.692
   13CHL1  H21A  941   6.563   4.597   8.766
   13CHL1  H21B  942   6.686   4.714   8.713
   13CHL1  H21C  943   6.585   4.627   8.592
   13CHL1   C22  944   6.499   4.894   8.583
   13CHL1  H22A  945   6.412   4.964   8.582
   13CHL1  H22B  946   6.588   4.957   8.606
   13CHL1   C23  947   6.512   4.841   8.440
   13CHL1  H23A  948   6.603   4.777   8.429
   13CHL1  H23B  949   6.423   4.779   8.417
   13CHL1   C24  950   6.521   4.957   8.340
   13CHL1  H24A  951   6.435   5.025   8.361
   13CHL1  H24B  952   6.614   5.016   8.356
   13CHL1   C25  953   6.512   4.914   8.192
   13CHL1   H25  954   6.445   4.826   8.186
   13CHL1   C26  955   6.450   5.027   8.107
   13CHL1  H26A  956   6.469   5.010   7.999
   13CHL1  H26B  957   6.340   5.033   8.123
   13CHL1  H26C  958   6.493   5.125   8.136
   13CHL1   C27  959   6.648   4.873   8.135
   13CHL1  H27A  960   6.634   4.820   8.038
   13CHL1  H27B  961   6.708   4.964   8.115
   13CHL1  H27C  962   6.702   4.807   8.205
   14CHL1    C3  963   4.510   0.758   9.747
   14CHL1    H3  964   4.543   0.655   9.724
   14CHL1    O3  965   4.518   0.777   9.887
   14CHL1   H3'  966   4.496   0.870   9.902
   14CHL1    C4  967   4.602   0.859   9.676
   14CHL1   H4A  968   4.578   0.961   9.713
   14CHL1   H4B  969   4.706   0.837   9.708
   14CHL1    C5  970   4.587   0.855   9.525
   14CHL1    C6  971   4.692   0.833   9.443
   14CHL1    H6  972   4.792   0.820   9.487
   14CHL1    C7  973   4.683   0.833   9.293
   14CHL1   H7A  974   4.768   0.890   9.249
   14CHL1   H7B  975   4.691   0.728   9.256
   14CHL1    C8  976   4.550   0.894   9.240
   14CHL1    H8  977   4.557   1.004   9.253
   14CHL1   C14  978   4.531   0.859   9.093
   14CHL1   H14  979   4.521   0.748   9.089
   14CHL1   C15  980   4.645   0.893   8.995
   14CHL1  H15A  981   4.682   0.995   9.015
   14CHL1  H15B  982   4.729   0.821   9.003
   14CHL1   C16  983   4.577   0.887   8.857
   14CHL1  H16A  984   4.597   0.981   8.802
   14CHL1  H16B  985   4.615   0.802   8.797
   14CHL1   C17  986   4.423   0.870   8.882
   14CHL1   H17  987   4.403   0.761   8.879
   14CHL1   C13  988   4.403   0.914   9.029
   14CHL1   C18  989   4.403   1.069   9.034
   14CHL1  H18A  990   4.488   1.112   8.977
   14CHL1  H18B  991   4.309   1.107   8.989
   14CHL1  H18C  992   4.409   1.107   9.138
   14CHL1   C12  993   4.284   0.854   9.107
   14CHL1  H12A  994   4.188   0.895   9.070
   14CHL1  H12B  995   4.283   0.744   9.092
   14CHL1   C11  996   4.294   0.885   9.258
   14CHL1  H11A  997   4.279   0.994   9.270
   14CHL1  H11B  998   4.210   0.834   9.310
   14CHL1    C9  999   4.430   0.842   9.321
   14CHL1    H9 1000   4.434   0.731   9.309
   14CHL1   C10 1001   4.442   0.869   9.473
   14CHL1   C19 1002   4.395   1.015   9.502
   14CHL1  H19A 1003   4.287   1.026   9.481
   14CHL1  H19B 1004   4.409   1.042   9.609
   14CHL1  H19C 1005   4.452   1.087   9.440
   14CHL1    C1 1006   4.352   0.768   9.550
   14CHL1   H1A 1007   4.246   0.784   9.521
   14CHL1   H1B 1008   4.379   0.665   9.517
   14CHL1    C2 1009   4.364   0.774   9.703
   14CHL1   H2A 1010   4.302   0.694   9.749
   14CHL1   H2B 1011   4.325   0.872   9.739
   14CHL1   C20 1012   4.337   0.937   8.773
   14CHL1   H20 1013   4.351   1.047   8.779
   14CHL1   C21 1014   4.187   0.906   8.796
   14CHL1  H21A 1015   4.172   0.797   8.812
   14CHL1  H21B 1016   4.128   0.935   8.706
   14CHL1  H21C 1017   4.147   0.962   8.882
   14CHL1   C22 1018   4.374   0.894   8.629
   14CHL1  H22A 1019   4.482   0.869   8.619
   14CHL1  H22B 1020   4.318   0.801   8.606
   14CHL1   C23 1021   4.339   1.002   8.524
   14CHL1  H23A 1022   4.331   0.954   8.424
   14CHL1  H23B 1023   4.239   1.044   8.547
   14CHL1   C24 1024   4.440   1.118   8.516
   14CHL1  H24A 1025   4.398   1.198   8.452
   14CHL1  H24B 1026   4.455   1.161   8.617
   14CHL1   C25 1027   4.579   1.080   8.458
   14CHL1   H25 1028   4.620   0.996   8.518
   14CHL1   C26 1029   4.569   1.035   8.312
   14CHL1  H26A 1030   4.671   1.014   8.274
   14CHL1  H26B 1031   4.509   0.942   8.303
   14CHL1  H26C 1032   4.523   1.114   8.249
   14CHL1   C27 1033   4.678   1.197   8.469
   14CHL1  H27A 1034   4.644   1.283   8.407
   14CHL1  H27B 1035   4.688   1.231   8.574
   14CHL1  H27C 1036   4.778   1.165   8.432
   15CHL1    C3 1037   3.765   0.576   9.730
   15CHL1    H3 1038   3.659   0.545   9.716
   15CHL1    O3 1039   3.783   0.616   9.865
   15CHL1   H3' 1040   3.737   0.551   9.918
   15CHL1    C4 1041   3.859   0.460   9.698
   15CHL1   H4A 1042   3.964   0.494   9.713
   15CHL1   H4B 1043   3.841   0.379   9.771
   15CHL1    C5 1044   3.838   0.414   9.555
   15CHL1    C6 1045   3.793   0.290   9.531
   15CHL1    H6 1046   3.778   0.221   9.615
   15CHL1    C7 1047   3.763   0.238   9.395
   15CHL1   H7A 1048   3.803   0.135   9.383
   15CHL1   H7B 1049   3.652   0.232   9.384
   15CHL1    C8 1050   3.819   0.325   9.280
   15CHL1    H8 1051   3.926   0.299   9.266
   15CHL1   C14 1052   3.740   0.297   9.154
   15CHL1   H14 1053   3.640   0.342   9.172
   15CHL1   C15 1054   3.707   0.151   9.124
   15CHL1  H15A 1055   3.797   0.087   9.135
   15CHL1  H15B 1056   3.625   0.116   9.190
   15CHL1   C16 1057   3.660   0.156   8.979
   15CHL1  H16A 1058   3.721   0.085   8.919
   15CHL1  H16B 1059   3.553   0.127   8.971
   15CHL1   C17 1060   3.682   0.302   8.930
   15CHL1   H17 1061   3.589   0.357   8.953
   15CHL1   C13 1062   3.790   0.360   9.024
   15CHL1   C18 1063   3.928   0.301   8.985
   15CHL1  H18A 1064   3.961   0.343   8.888
   15CHL1  H18B 1065   4.003   0.329   9.062
   15CHL1  H18C 1066   3.926   0.191   8.976
   15CHL1   C12 1067   3.800   0.513   9.044
   15CHL1  H12A 1068   3.859   0.557   8.962
   15CHL1  H12B 1069   3.698   0.557   9.038
   15CHL1   C11 1070   3.864   0.552   9.180
   15CHL1  H11A 1071   3.973   0.531   9.172
   15CHL1  H11B 1072   3.852   0.662   9.195
   15CHL1    C9 1073   3.808   0.476   9.304
   15CHL1    H9 1074   3.699   0.498   9.304
   15CHL1   C10 1075   3.857   0.521   9.445
   15CHL1   C19 1076   4.008   0.555   9.435
   15CHL1  H19A 1077   4.050   0.585   9.533
   15CHL1  H19B 1078   4.065   0.467   9.397
   15CHL1  H19C 1079   4.025   0.641   9.366
   15CHL1    C1 1080   3.775   0.647   9.488
   15CHL1   H1A 1081   3.801   0.731   9.419
   15CHL1   H1B 1082   3.667   0.626   9.473
   15CHL1    C2 1083   3.793   0.693   9.634
   15CHL1   H2A 1084   3.725   0.778   9.656
   15CHL1   H2B 1085   3.897   0.728   9.650
   15CHL1   C20 1086   3.697   0.306   8.777
   15CHL1   H20 1087   3.789   0.252   8.748
   15CHL1   C21 1088   3.706   0.451   8.729
   15CHL1  H21A 1089   3.800   0.499   8.764
   15CHL1  H21B 1090   3.619   0.509   8.766
   15CHL1  H21C 1091   3.706   0.455   8.618
   15CHL1   C22 1092   3.576   0.233   8.711
   15CHL1  H22A 1093   3.565   0.132   8.753
   15CHL1  H22B 1094   3.482   0.289   8.732
   15CHL1   C23 1095   3.590   0.210   8.560
   15CHL1  H23A 1096   3.567   0.303   8.504
   15CHL1  H23B 1097   3.695   0.181   8.539
   15CHL1   C24 1098   3.496   0.097   8.516
   15CHL1  H24A 1099   3.527   0.002   8.565
   15CHL1  H24B 1100   3.393   0.118   8.552
   15CHL1   C25 1101   3.493   0.071   8.364
   15CHL1   H25 1102   3.450   0.160   8.314
   15CHL1   C26 1103   3.636   0.057   8.309
   15CHL1  H26A 1104   3.698  -0.009   8.373
   15CHL1  H26B 1105   3.635   0.020   8.204
   15CHL1  H26C 1106   3.686   0.156   8.312
   15CHL1   C27 1107   3.403  -0.049   8.332
   15CHL1  H27A 1108   3.402  -0.069   8.223
   15CHL1  H27B 1109   3.438  -0.140   8.385
   15CHL1  H27C 1110   3.299  -0.029   8.365
   16CHL1    C3 1111   5.280   0.983   9.774
   16CHL1    H3 1112   5.175   0.949   9.755
   16CHL1    O3 1113   5.307   0.973   9.913
   16CHL1   H3' 1114   5.274   0.886   9.940
   16CHL1    C4 1115   5.377   0.893   9.695
   16CHL1   H4A 1116   5.481   0.918   9.724
   16CHL1   H4B 1117   5.361   0.787   9.725
   16CHL1    C5 1118   5.357   0.913   9.546
   16CHL1    C6 1119   5.320   0.813   9.465
   16CHL1    H6 1120   5.309   0.711   9.505
   16CHL1    C7 1121   5.295   0.829   9.318
   16CHL1   H7A 1122   5.334   0.742   9.260
   16CHL1   H7B 1123   5.186   0.835   9.299
   16CHL1    C8 1124   5.362   0.958   9.262
   16CHL1    H8 1125   5.470   0.936   9.258
   16CHL1   C14 1126   5.306   0.992   9.124
   16CHL1   H14 1127   5.201   1.022   9.141
   16CHL1   C15 1128   5.300   0.882   9.017
   16CHL1  H15A 1129   5.392   0.821   9.022
   16CHL1  H15B 1130   5.211   0.817   9.032
   16CHL1   C16 1131   5.288   0.958   8.885
   16CHL1  H16A 1132   5.374   0.932   8.819
   16CHL1  H16B 1133   5.193   0.935   8.832
   16CHL1   C17 1134   5.294   1.109   8.924
   16CHL1   H17 1135   5.190   1.138   8.951
   16CHL1   C13 1136   5.374   1.110   9.056
   16CHL1   C18 1137   5.523   1.074   9.033
   16CHL1  H18A 1138   5.575   1.048   9.127
   16CHL1  H18B 1139   5.536   0.989   8.962
   16CHL1  H18C 1140   5.578   1.162   8.993
   16CHL1   C12 1141   5.359   1.235   9.144
   16CHL1  H12A 1142   5.422   1.318   9.104
   16CHL1  H12B 1143   5.253   1.268   9.144
   16CHL1   C11 1144   5.405   1.207   9.287
   16CHL1  H11A 1145   5.515   1.195   9.282
   16CHL1  H11B 1146   5.383   1.297   9.349
   16CHL1    C9 1147   5.338   1.081   9.349
   16CHL1    H9 1148   5.228   1.099   9.345
   16CHL1   C10 1149   5.371   1.060   9.498
   16CHL1   C19 1150   5.515   1.110   9.520
   16CHL1  H19A 1151   5.582   1.066   9.443
   16CHL1  H19B 1152   5.521   1.221   9.513
   16CHL1  H19C 1153   5.554   1.083   9.621
   16CHL1    C1 1154   5.273   1.146   9.582
   16CHL1   H1A 1155   5.287   1.253   9.555
   16CHL1   H1B 1156   5.169   1.118   9.557
   16CHL1    C2 1157   5.293   1.130   9.733
   16CHL1   H2A 1158   5.218   1.191   9.789
   16CHL1   H2B 1159   5.394   1.166   9.760
   16CHL1   C20 1160   5.334   1.201   8.809
   16CHL1   H20 1161   5.440   1.182   8.782
   16CHL1   C21 1162   5.321   1.349   8.849
   16CHL1  H21A 1163   5.406   1.381   8.913
   16CHL1  H21B 1164   5.226   1.365   8.905
   16CHL1  H21C 1165   5.321   1.415   8.760
   16CHL1   C22 1166   5.251   1.173   8.681
   16CHL1  H22A 1167   5.256   1.064   8.658
   16CHL1  H22B 1168   5.145   1.199   8.697
   16CHL1   C23 1169   5.308   1.245   8.559
   16CHL1  H23A 1170   5.271   1.350   8.555
   16CHL1  H23B 1171   5.418   1.250   8.568
   16CHL1   C24 1172   5.274   1.171   8.430
   16CHL1  H24A 1173   5.299   1.063   8.443
   16CHL1  H24B 1174   5.165   1.178   8.411
   16CHL1   C25 1175   5.351   1.222   8.308
   16CHL1   H25 1176   5.460   1.216   8.328
   16CHL1   C26 1177   5.319   1.132   8.189
   16CHL1  H26A 1178   5.208   1.122   8.179
   16CHL1  H26B 1179   5.360   1.174   8.095
   16CHL1  H26C 1180   5.361   1.031   8.205
   16CHL1   C27 1181   5.318   1.370   8.281
   16CHL1  H27A 1182   5.213   1.391   8.311
   16CHL1  H27B 1183   5.385   1.436   8.340
   16CHL1  H27C 1184   5.329   1.394   8.173
   17CHL1    C3 1185   1.713   6.132   9.751
   17CHL1    H3 1186   1.794   6.197   9.713
   17CHL1    O3 1187   1.721   6.131   9.893
   17CHL1   H3' 1188   1.814   6.150   9.907
   17CHL1    C4 1189   1.577   6.186   9.705
   17CHL1   H4A 1190   1.497   6.118   9.742
   17CHL1   H4B 1191   1.560   6.285   9.753
   17CHL1    C5 1192   1.572   6.197   9.553
   17CHL1    C6 1193   1.546   6.312   9.491
   17CHL1    H6 1194   1.522   6.403   9.549
   17CHL1    C7 1195   1.548   6.328   9.341
   17CHL1   H7A 1196   1.468   6.397   9.306
   17CHL1   H7B 1197   1.645   6.372   9.312
   17CHL1    C8 1198   1.539   6.192   9.268
   17CHL1    H8 1199   1.435   6.155   9.283
   17CHL1   C14 1200   1.564   6.208   9.119
   17CHL1   H14 1201   1.669   6.245   9.112
   17CHL1   C15 1202   1.480   6.310   9.038
   17CHL1  H15A 1203   1.373   6.312   9.069
   17CHL1  H15B 1204   1.518   6.413   9.052
   17CHL1   C16 1205   1.491   6.260   8.893
   17CHL1  H16A 1206   1.390   6.232   8.857
   17CHL1  H16B 1207   1.532   6.336   8.824
   17CHL1   C17 1208   1.581   6.133   8.899
   17CHL1   H17 1209   1.687   6.168   8.899
   17CHL1   C13 1210   1.562   6.077   9.041
   17CHL1   C18 1211   1.423   6.009   9.053
   17CHL1  H18A 1212   1.392   5.998   9.160
   17CHL1  H18B 1213   1.344   6.068   9.001
   17CHL1  H18C 1214   1.421   5.907   9.011
   17CHL1   C12 1215   1.674   5.988   9.097
   17CHL1  H12A 1216   1.675   5.889   9.048
   17CHL1  H12B 1217   1.772   6.038   9.077
   17CHL1   C11 1218   1.659   5.964   9.247
   17CHL1  H11A 1219   1.571   5.896   9.259
   17CHL1  H11B 1220   1.748   5.910   9.284
   17CHL1    C9 1221   1.640   6.095   9.329
   17CHL1    H9 1222   1.738   6.147   9.323
   17CHL1   C10 1223   1.613   6.068   9.478
   17CHL1   C19 1224   1.491   5.975   9.485
   17CHL1  H19A 1225   1.423   5.988   9.399
   17CHL1  H19B 1226   1.524   5.868   9.487
   17CHL1  H19C 1227   1.430   5.993   9.576
   17CHL1    C1 1228   1.736   5.997   9.543
   17CHL1   H1A 1229   1.745   5.894   9.503
   17CHL1   H1B 1230   1.827   6.053   9.512
   17CHL1    C2 1231   1.734   5.991   9.696
   17CHL1   H2A 1232   1.831   5.950   9.733
   17CHL1   H2B 1233   1.652   5.925   9.731
   17CHL1   C20 1234   1.567   6.044   8.775
   17CHL1   H20 1235   1.460   6.043   8.745
   17CHL1   C21 1236   1.609   5.900   8.800
   17CHL1  H21A 1237   1.712   5.899   8.842
   17CHL1  H21B 1238   1.607   5.842   8.705
   17CHL1  H21C 1239   1.544   5.848   8.875
   17CHL1   C22 1240   1.652   6.095   8.657
   17CHL1  H22A 1241   1.611   6.047   8.565
   17CHL1  H22B 1242   1.637   6.205   8.645
   17CHL1   C23 1243   1.803   6.063   8.664
   17CHL1  H23A 1244   1.853   6.120   8.745
   17CHL1  H23B 1245   1.822   5.955   8.685
   17CHL1   C24 1246   1.870   6.086   8.529
   17CHL1  H24A 1247   1.807   6.032   8.455
   17CHL1  H24B 1248   1.866   6.193   8.502
   17CHL1   C25 1249   2.012   6.030   8.511
   17CHL1   H25 1250   2.002   5.919   8.505
   17CHL1   C26 1251   2.061   6.080   8.376
   17CHL1  H26A 1252   1.978   6.076   8.303
   17CHL1  H26B 1253   2.095   6.186   8.384
   17CHL1  H26C 1254   2.144   6.016   8.338
   17CHL1   C27 1255   2.114   6.060   8.622
   17CHL1  H27A 1256   2.071   6.041   8.723
   17CHL1  H27B 1257   2.204   5.996   8.609
   17CHL1  H27C 1258   2.149   6.166   8.618
   18CHL1    C3 1259   0.510   4.286   9.717
   18CHL1    H3 1260   0.414   4.321   9.674
   18CHL1    O3 1261   0.502   4.291   9.858
   18CHL1   H3' 1262   0.449   4.213   9.881
   18CHL1    C4 1263   0.534   4.140   9.674
   18CHL1   H4A 1264   0.628   4.105   9.721
   18CHL1   H4B 1265   0.452   4.077   9.714
   18CHL1    C5 1266   0.544   4.131   9.523
   18CHL1    C6 1267   0.457   4.055   9.454
   18CHL1    H6 1268   0.381   3.996   9.507
   18CHL1    C7 1269   0.459   4.041   9.305
   18CHL1   H7A 1270   0.447   3.935   9.276
   18CHL1   H7B 1271   0.373   4.097   9.263
   18CHL1    C8 1272   0.588   4.095   9.239
   18CHL1    H8 1273   0.668   4.018   9.251
   18CHL1   C14 1274   0.561   4.121   9.092
   18CHL1   H14 1275   0.490   4.207   9.090
   18CHL1   C15 1276   0.491   4.013   9.009
   18CHL1  H15A 1277   0.531   3.912   9.034
   18CHL1  H15B 1278   0.382   4.017   9.028
   18CHL1   C16 1279   0.522   4.049   8.863
   18CHL1  H16A 1280   0.577   3.965   8.815
   18CHL1  H16B 1281   0.429   4.070   8.805
   18CHL1   C17 1282   0.610   4.177   8.870
   18CHL1   H17 1283   0.537   4.260   8.879
   18CHL1   C13 1284   0.680   4.166   9.008
   18CHL1   C18 1285   0.790   4.057   9.003
   18CHL1  H18A 1286   0.875   4.092   8.941
   18CHL1  H18B 1287   0.829   4.035   9.104
   18CHL1  H18C 1288   0.752   3.962   8.959
   18CHL1   C12 1289   0.733   4.295   9.072
   18CHL1  H12A 1290   0.826   4.325   9.020
   18CHL1  H12B 1291   0.656   4.374   9.057
   18CHL1   C11 1292   0.759   4.281   9.224
   18CHL1  H11A 1293   0.845   4.212   9.237
   18CHL1  H11B 1294   0.788   4.380   9.265
   18CHL1    C9 1295   0.636   4.226   9.302
   18CHL1    H9 1296   0.554   4.299   9.283
   18CHL1   C10 1297   0.650   4.221   9.457
   18CHL1   C19 1298   0.790   4.164   9.492
   18CHL1  H19A 1299   0.804   4.154   9.602
   18CHL1  H19B 1300   0.805   4.065   9.444
   18CHL1  H19C 1301   0.870   4.233   9.456
   18CHL1    C1 1302   0.636   4.366   9.514
   18CHL1   H1A 1303   0.723   4.426   9.480
   18CHL1   H1B 1304   0.545   4.412   9.469
   18CHL1    C2 1305   0.623   4.376   9.667
   18CHL1   H2A 1306   0.603   4.481   9.696
   18CHL1   H2B 1307   0.719   4.344   9.714
   18CHL1   C20 1308   0.693   4.207   8.745
   18CHL1   H20 1309   0.795   4.164   8.755
   18CHL1   C21 1310   0.703   4.360   8.736
   18CHL1  H21A 1311   0.607   4.400   8.698
   18CHL1  H21B 1312   0.784   4.392   8.667
   18CHL1  H21C 1313   0.720   4.405   8.836
   18CHL1   C22 1314   0.632   4.154   8.612
   18CHL1  H22A 1315   0.646   4.044   8.607
   18CHL1  H22B 1316   0.522   4.174   8.611
   18CHL1   C23 1317   0.690   4.219   8.484
   18CHL1  H23A 1318   0.656   4.325   8.477
   18CHL1  H23B 1319   0.801   4.220   8.491
   18CHL1   C24 1320   0.649   4.145   8.356
   18CHL1  H24A 1321   0.696   4.045   8.360
   18CHL1  H24B 1322   0.539   4.132   8.354
   18CHL1   C25 1323   0.692   4.214   8.225
   18CHL1   H25 1324   0.791   4.261   8.242
   18CHL1   C26 1325   0.708   4.112   8.111
   18CHL1  H26A 1326   0.610   4.066   8.086
   18CHL1  H26B 1327   0.749   4.161   8.020
   18CHL1  H26C 1328   0.778   4.030   8.141
   18CHL1   C27 1329   0.592   4.322   8.181
   18CHL1  H27A 1330   0.630   4.376   8.092
   18CHL1  H27B 1331   0.494   4.276   8.155
   18CHL1  H27C 1332   0.574   4.396   8.263
   19CHL1    C3 1333   4.791   6.637   9.754
   19CHL1    H3 1334   4.779   6.743   9.726
   19CHL1    O3 1335   4.802   6.628   9.895
   19CHL1   H3' 1336   4.896   6.640   9.913
   19CHL1    C4 1337   4.671   6.554   9.703
   19CHL1   H4A 1338   4.686   6.449   9.735
   19CHL1   H4B 1339   4.580   6.591   9.755
   19CHL1    C5 1340   4.656   6.560   9.552
   19CHL1    C6 1341   4.541   6.599   9.494
   19CHL1    H6 1342   4.455   6.621   9.558
   19CHL1    C7 1343   4.520   6.610   9.346
   19CHL1   H7A 1344   4.430   6.552   9.316
   19CHL1   H7B 1345   4.501   6.716   9.320
   19CHL1    C8 1346   4.638   6.558   9.259
   19CHL1    H8 1347   4.627   6.448   9.249
   19CHL1   C14 1348   4.637   6.624   9.121
   19CHL1   H14 1349   4.660   6.731   9.141
   19CHL1   C15 1350   4.505   6.633   9.044
   19CHL1  H15A 1351   4.451   6.536   9.045
   19CHL1  H15B 1352   4.439   6.711   9.089
   19CHL1   C16 1353   4.548   6.668   8.901
   19CHL1  H16A 1354   4.495   6.600   8.832
   19CHL1  H16B 1355   4.521   6.773   8.876
   19CHL1   C17 1356   4.703   6.651   8.893
   19CHL1   H17 1357   4.745   6.754   8.902
   19CHL1   C13 1358   4.745   6.578   9.024
   19CHL1   C18 1359   4.748   6.425   9.001
   19CHL1  H18A 1360   4.839   6.397   8.943
   19CHL1  H18B 1361   4.751   6.369   9.097
   19CHL1  H18C 1362   4.660   6.390   8.944
   19CHL1   C12 1363   4.876   6.621   9.089
   19CHL1  H12A 1364   4.960   6.589   9.023
   19CHL1  H12B 1365   4.879   6.732   9.096
   19CHL1   C11 1366   4.892   6.561   9.231
   19CHL1  H11A 1367   4.907   6.451   9.221
   19CHL1  H11B 1368   4.984   6.603   9.277
   19CHL1    C9 1369   4.772   6.590   9.325
   19CHL1    H9 1370   4.772   6.700   9.337
   19CHL1   C10 1371   4.785   6.533   9.470
   19CHL1   C19 1372   4.804   6.379   9.464
   19CHL1  H19A 1373   4.719   6.330   9.411
   19CHL1  H19B 1374   4.898   6.352   9.412
   19CHL1  H19C 1375   4.809   6.336   9.566
   19CHL1    C1 1376   4.909   6.598   9.537
   19CHL1   H1A 1377   5.001   6.558   9.491
   19CHL1   H1B 1378   4.903   6.707   9.517
   19CHL1    C2 1379   4.919   6.582   9.690
   19CHL1   H2A 1380   5.007   6.637   9.727
   19CHL1   H2B 1381   4.931   6.475   9.716
   19CHL1   C20 1382   4.748   6.597   8.755
   19CHL1   H20 1383   4.719   6.490   8.747
   19CHL1   C21 1384   4.901   6.607   8.742
   19CHL1  H21A 1385   4.935   6.712   8.756
   19CHL1  H21B 1386   4.935   6.572   8.643
   19CHL1  H21C 1387   4.951   6.543   8.818
   19CHL1   C22 1388   4.676   6.670   8.638
   19CHL1  H22A 1389   4.568   6.647   8.641
   19CHL1  H22B 1390   4.688   6.780   8.652
   19CHL1   C23 1391   4.723   6.634   8.496
   19CHL1  H23A 1392   4.821   6.684   8.477
   19CHL1  H23B 1393   4.739   6.525   8.488
   19CHL1   C24 1394   4.620   6.676   8.389
   19CHL1  H24A 1395   4.536   6.604   8.392
   19CHL1  H24B 1396   4.580   6.777   8.414
   19CHL1   C25 1397   4.677   6.682   8.245
   19CHL1   H25 1398   4.745   6.595   8.232
   19CHL1   C26 1399   4.565   6.672   8.140
   19CHL1  H26A 1400   4.509   6.577   8.152
   19CHL1  H26B 1401   4.494   6.757   8.151
   19CHL1  H26C 1402   4.608   6.675   8.038
   19CHL1   C27 1403   4.757   6.811   8.223
   19CHL1  H27A 1404   4.814   6.806   8.128
   19CHL1  H27B 1405   4.688   6.898   8.219
   19CHL1  H27C 1406   4.827   6.826   8.308
   20CHL1    C3 1407   1.091   1.417   9.719
   20CHL1    H3 1408   0.999   1.480   9.713
   20CHL1    O3 1409   1.126   1.401   9.856
   20CHL1   H3' 1410   1.046   1.414   9.907
   20CHL1    C4 1411   1.062   1.282   9.651
   20CHL1   H4A 1412   1.152   1.218   9.664
   20CHL1   H4B 1413   0.979   1.232   9.704
   20CHL1    C5 1414   1.034   1.303   9.503
   20CHL1    C6 1415   0.921   1.258   9.448
   20CHL1    H6 1416   0.850   1.200   9.508
   20CHL1    C7 1417   0.892   1.272   9.301
   20CHL1   H7A 1418   0.843   1.181   9.261
   20CHL1   H7B 1419   0.820   1.356   9.288
   20CHL1    C8 1420   1.017   1.303   9.217
   20CHL1    H8 1421   1.085   1.216   9.223
   20CHL1   C14 1422   0.981   1.320   9.069
   20CHL1   H14 1423   0.893   1.387   9.064
   20CHL1   C15 1424   0.948   1.192   8.990
   20CHL1  H15A 1425   1.023   1.113   9.013
   20CHL1  H15B 1426   0.849   1.147   9.013
   20CHL1   C16 1427   0.961   1.234   8.842
   20CHL1  H16A 1428   1.026   1.161   8.790
   20CHL1  H16B 1429   0.864   1.237   8.789
   20CHL1   C17 1430   1.028   1.376   8.842
   20CHL1   H17 1431   0.947   1.452   8.837
   20CHL1   C13 1432   1.088   1.388   8.984
   20CHL1   C18 1433   1.212   1.300   8.984
   20CHL1  H18A 1434   1.239   1.268   9.087
   20CHL1  H18B 1435   1.200   1.207   8.925
   20CHL1  H18C 1436   1.297   1.356   8.941
   20CHL1   C12 1437   1.120   1.525   9.047
   20CHL1  H12A 1438   1.194   1.581   8.987
   20CHL1  H12B 1439   1.026   1.584   9.051
   20CHL1   C11 1440   1.177   1.507   9.189
   20CHL1  H11A 1441   1.276   1.458   9.183
   20CHL1  H11B 1442   1.194   1.607   9.234
   20CHL1    C9 1443   1.082   1.426   9.282
   20CHL1    H9 1444   0.998   1.497   9.299
   20CHL1   C10 1445   1.137   1.387   9.422
   20CHL1   C19 1446   1.266   1.306   9.406
   20CHL1  H19A 1447   1.305   1.273   9.504
   20CHL1  H19B 1448   1.249   1.214   9.346
   20CHL1  H19C 1449   1.347   1.366   9.359
   20CHL1    C1 1450   1.174   1.514   9.501
   20CHL1   H1A 1451   1.262   1.562   9.452
   20CHL1   H1B 1452   1.089   1.586   9.495
   20CHL1    C2 1453   1.207   1.483   9.647
   20CHL1   H2A 1454   1.233   1.579   9.698
   20CHL1   H2B 1455   1.297   1.418   9.655
   20CHL1   C20 1456   1.119   1.395   8.719
   20CHL1   H20 1457   1.192   1.311   8.716
   20CHL1   C21 1458   1.200   1.526   8.728
   20CHL1  H21A 1459   1.276   1.520   8.809
   20CHL1  H21B 1460   1.132   1.613   8.747
   20CHL1  H21C 1461   1.257   1.546   8.634
   20CHL1   C22 1462   1.039   1.390   8.586
   20CHL1  H22A 1463   0.971   1.302   8.587
   20CHL1  H22B 1464   0.975   1.481   8.579
   20CHL1   C23 1465   1.128   1.379   8.461
   20CHL1  H23A 1466   1.194   1.468   8.454
   20CHL1  H23B 1467   1.194   1.290   8.475
   20CHL1   C24 1468   1.054   1.366   8.327
   20CHL1  H24A 1469   0.997   1.271   8.320
   20CHL1  H24B 1470   0.978   1.446   8.319
   20CHL1   C25 1471   1.149   1.376   8.207
   20CHL1   H25 1472   1.213   1.465   8.220
   20CHL1   C26 1473   1.237   1.251   8.196
   20CHL1  H26A 1474   1.311   1.265   8.114
   20CHL1  H26B 1475   1.293   1.232   8.290
   20CHL1  H26C 1476   1.175   1.162   8.175
   20CHL1   C27 1477   1.070   1.392   8.076
   20CHL1  H27A 1478   1.005   1.303   8.062
   20CHL1  H27B 1479   1.006   1.483   8.079
   20CHL1  H27C 1480   1.139   1.399   7.990
   21CHL1    C3 1481   0.299   3.623   9.743
   21CHL1    H3 1482   0.382   3.696   9.735
   21CHL1    O3 1483   0.282   3.587   9.879
   21CHL1   H3' 1484   0.190   3.606   9.898
   21CHL1    C4 1485   0.169   3.686   9.692
   21CHL1   H4A 1486   0.086   3.613   9.706
   21CHL1   H4B 1487   0.144   3.774   9.756
   21CHL1    C5 1488   0.174   3.724   9.545
   21CHL1    C6 1489   0.136   3.844   9.499
   21CHL1    H6 1490   0.097   3.919   9.570
   21CHL1    C7 1491   0.126   3.878   9.353
   21CHL1   H7A 1492   0.026   3.920   9.330
   21CHL1   H7B 1493   0.201   3.958   9.329
   21CHL1    C8 1494   0.150   3.758   9.257
   21CHL1    H8 1495   0.055   3.702   9.247
   21CHL1   C14 1496   0.191   3.807   9.119
   21CHL1   H14 1497   0.288   3.858   9.135
   21CHL1   C15 1498   0.100   3.911   9.052
   21CHL1  H15A 1499  -0.007   3.884   9.066
   21CHL1  H15B 1500   0.118   4.012   9.096
   21CHL1   C16 1501   0.139   3.905   8.904
   21CHL1  H16A 1502   0.049   3.881   8.844
   21CHL1  H16B 1503   0.181   4.002   8.869
   21CHL1   C17 1504   0.245   3.791   8.891
   21CHL1   H17 1505   0.344   3.838   8.911
   21CHL1   C13 1506   0.220   3.700   9.013
   21CHL1   C18 1507   0.095   3.612   8.985
   21CHL1  H18A 1508   0.120   3.536   8.908
   21CHL1  H18B 1509   0.062   3.559   9.076
   21CHL1  H18C 1510   0.010   3.673   8.948
   21CHL1   C12 1511   0.338   3.616   9.067
   21CHL1  H12A 1512   0.358   3.530   8.999
   21CHL1  H12B 1513   0.428   3.680   9.071
   21CHL1   C11 1514   0.308   3.560   9.208
   21CHL1  H11A 1515   0.231   3.481   9.195
   21CHL1  H11B 1516   0.401   3.510   9.244
   21CHL1    C9 1517   0.260   3.667   9.311
   21CHL1    H9 1518   0.349   3.732   9.325
   21CHL1   C10 1519   0.223   3.613   9.451
   21CHL1   C19 1520   0.099   3.523   9.439
   21CHL1  H19A 1521   0.083   3.462   9.531
   21CHL1  H19B 1522   0.006   3.580   9.421
   21CHL1  H19C 1523   0.109   3.454   9.352
   21CHL1    C1 1524   0.345   3.535   9.510
   21CHL1   H1A 1525   0.361   3.442   9.452
   21CHL1   H1B 1526   0.436   3.599   9.497
   21CHL1    C2 1527   0.334   3.499   9.660
   21CHL1   H2A 1528   0.429   3.454   9.695
   21CHL1   H2B 1529   0.254   3.422   9.672
   21CHL1   C20 1530   0.259   3.735   8.749
   21CHL1   H20 1531   0.175   3.666   8.726
   21CHL1   C21 1532   0.393   3.659   8.737
   21CHL1  H21A 1533   0.395   3.571   8.804
   21CHL1  H21B 1534   0.478   3.726   8.763
   21CHL1  H21C 1535   0.408   3.621   8.634
   21CHL1   C22 1536   0.254   3.852   8.646
   21CHL1  H22A 1537   0.153   3.899   8.647
   21CHL1  H22B 1538   0.328   3.929   8.677
   21CHL1   C23 1539   0.285   3.816   8.500
   21CHL1  H23A 1540   0.389   3.777   8.493
   21CHL1  H23B 1541   0.215   3.737   8.465
   21CHL1   C24 1542   0.275   3.941   8.410
   21CHL1  H24A 1543   0.170   3.978   8.413
   21CHL1  H24B 1544   0.340   4.021   8.452
   21CHL1   C25 1545   0.315   3.918   8.263
   21CHL1   H25 1546   0.311   4.016   8.212
   21CHL1   C26 1547   0.458   3.862   8.249
   21CHL1  H26A 1548   0.461   3.755   8.277
   21CHL1  H26B 1549   0.492   3.871   8.144
   21CHL1  H26C 1550   0.528   3.917   8.315
   21CHL1   C27 1551   0.217   3.824   8.192
   21CHL1  H27A 1552   0.247   3.813   8.086
   21CHL1  H27B 1553   0.219   3.724   8.240
   21CHL1  H27C 1554   0.113   3.864   8.196
   22CHL1    C3 1555   7.080   4.165   9.759
   22CHL1    H3 1556   7.186   4.134   9.764
   22CHL1    O3 1557   7.022   4.146   9.887
   22CHL1   H3' 1558   6.974   4.227   9.906
   22CHL1    C4 1559   7.070   4.313   9.721
   22CHL1   H4A 1560   6.963   4.343   9.719
   22CHL1   H4B 1561   7.117   4.374   9.802
   22CHL1    C5 1562   7.134   4.336   9.586
   22CHL1    C6 1563   7.238   4.419   9.574
   22CHL1    H6 1564   7.273   4.476   9.662
   22CHL1    C7 1565   7.306   4.448   9.444
   22CHL1   H7A 1566   7.321   4.558   9.434
   22CHL1   H7B 1567   7.405   4.399   9.440
   22CHL1    C8 1568   7.221   4.401   9.323
   22CHL1    H8 1569   7.136   4.472   9.314
   22CHL1   C14 1570   7.304   4.406   9.197
   22CHL1   H14 1571   7.384   4.329   9.207
   22CHL1   C15 1572   7.376   4.538   9.173
   22CHL1  H15A 1573   7.303   4.618   9.196
   22CHL1  H15B 1574   7.468   4.549   9.234
   22CHL1   C16 1575   7.404   4.539   9.023
   22CHL1  H16A 1576   7.354   4.629   8.981
   22CHL1  H16B 1577   7.513   4.542   9.001
   22CHL1   C17 1578   7.335   4.414   8.962
   22CHL1   H17 1579   7.411   4.333   8.961
   22CHL1   C13 1580   7.228   4.374   9.068
   22CHL1   C18 1581   7.105   4.467   9.050
   22CHL1  H18A 1582   7.134   4.574   9.049
   22CHL1  H18B 1583   7.053   4.444   8.955
   22CHL1  H18C 1584   7.031   4.453   9.132
   22CHL1   C12 1585   7.187   4.227   9.081
   22CHL1  H12A 1586   7.127   4.195   8.992
   22CHL1  H12B 1587   7.279   4.165   9.084
   22CHL1   C11 1588   7.105   4.201   9.210
   22CHL1  H11A 1589   7.005   4.247   9.192
   22CHL1  H11B 1590   7.090   4.092   9.222
   22CHL1    C9 1591   7.167   4.260   9.342
   22CHL1    H9 1592   7.257   4.197   9.361
   22CHL1   C10 1593   7.079   4.250   9.470
   22CHL1   C19 1594   6.936   4.303   9.437
   22CHL1  H19A 1595   6.886   4.236   9.364
   22CHL1  H19B 1596   6.871   4.305   9.527
   22CHL1  H19C 1597   6.940   4.405   9.395
   22CHL1    C1 1598   7.071   4.101   9.515
   22CHL1   H1A 1599   7.014   4.044   9.439
   22CHL1   H1B 1600   7.174   4.059   9.518
   22CHL1    C2 1601   7.008   4.079   9.654
   22CHL1   H2A 1602   7.016   3.972   9.682
   22CHL1   H2B 1603   6.901   4.106   9.652
   22CHL1   C20 1604   7.294   4.445   8.817
   22CHL1   H20 1605   7.208   4.516   8.818
   22CHL1   C21 1606   7.248   4.317   8.746
   22CHL1  H21A 1607   7.328   4.240   8.749
   22CHL1  H21B 1608   7.223   4.339   8.640
   22CHL1  H21C 1609   7.157   4.276   8.795
   22CHL1   C22 1610   7.405   4.518   8.735
   22CHL1  H22A 1611   7.366   4.533   8.632
   22CHL1  H22B 1612   7.423   4.620   8.776
   22CHL1   C23 1613   7.539   4.443   8.726
   22CHL1  H23A 1614   7.581   4.424   8.827
   22CHL1  H23B 1615   7.520   4.344   8.679
   22CHL1   C24 1616   7.646   4.513   8.638
   22CHL1  H24A 1617   7.723   4.437   8.615
   22CHL1  H24B 1618   7.600   4.542   8.541
   22CHL1   C25 1619   7.718   4.638   8.696
   22CHL1   H25 1620   7.648   4.723   8.696
   22CHL1   C26 1621   7.768   4.621   8.841
   22CHL1  H26A 1622   7.828   4.528   8.853
   22CHL1  H26B 1623   7.830   4.708   8.871
   22CHL1  H26C 1624   7.682   4.617   8.911
   22CHL1   C27 1625   7.836   4.672   8.604
   22CHL1  H27A 1626   7.905   4.746   8.651
   22CHL1  H27B 1627   7.896   4.581   8.581
   22CHL1  H27C 1628   7.801   4.715   8.507
   23CHL1    C3 1629   3.489   7.098   9.778
   23CHL1    H3 1630   3.389   7.061   9.746
   23CHL1    O3 1631   3.482   7.131   9.916
   23CHL1   H3' 1632   3.573   7.148   9.943
   23CHL1    C4 1633   3.595   6.988   9.755
   23CHL1   H4A 1634   3.691   7.023   9.798
   23CHL1   H4B 1635   3.564   6.899   9.814
   23CHL1    C5 1636   3.612   6.955   9.608
   23CHL1    C6 1637   3.599   6.829   9.560
   23CHL1    H6 1638   3.579   6.747   9.630
   23CHL1    C7 1639   3.615   6.790   9.415
   23CHL1   H7A 1640   3.681   6.701   9.406
   23CHL1   H7B 1641   3.516   6.763   9.374
   23CHL1    C8 1642   3.675   6.903   9.327
   23CHL1    H8 1643   3.785   6.903   9.341
   23CHL1   C14 1644   3.641   6.881   9.179
   23CHL1   H14 1645   3.530   6.886   9.174
   23CHL1   C15 1646   3.678   6.748   9.108
   23CHL1  H15A 1647   3.779   6.715   9.140
   23CHL1  H15B 1648   3.604   6.668   9.131
   23CHL1   C16 1649   3.678   6.784   8.957
   23CHL1  H16A 1650   3.780   6.767   8.915
   23CHL1  H16B 1651   3.605   6.723   8.899
   23CHL1   C17 1652   3.642   6.936   8.951
   23CHL1   H17 1653   3.531   6.938   8.954
   23CHL1   C13 1654   3.691   6.990   9.085
   23CHL1   C18 1655   3.847   6.995   9.086
   23CHL1  H18A 1656   3.883   7.078   9.021
   23CHL1  H18B 1657   3.886   7.014   9.188
   23CHL1  H18C 1658   3.892   6.901   9.049
   23CHL1   C12 1659   3.632   7.124   9.128
   23CHL1  H12A 1660   3.677   7.202   9.063
   23CHL1  H12B 1661   3.522   7.122   9.114
   23CHL1   C11 1662   3.664   7.154   9.274
   23CHL1  H11A 1663   3.773   7.173   9.283
   23CHL1  H11B 1664   3.611   7.248   9.301
   23CHL1    C9 1665   3.619   7.040   9.368
   23CHL1    H9 1666   3.509   7.031   9.353
   23CHL1   C10 1667   3.637   7.077   9.518
   23CHL1   C19 1668   3.783   7.125   9.541
   23CHL1  H19A 1669   3.803   7.143   9.649
   23CHL1  H19B 1670   3.855   7.049   9.505
   23CHL1  H19C 1671   3.802   7.220   9.489
   23CHL1    C1 1672   3.538   7.192   9.552
   23CHL1   H1A 1673   3.568   7.286   9.500
   23CHL1   H1B 1674   3.437   7.164   9.514
   23CHL1    C2 1675   3.525   7.225   9.701
   23CHL1   H2A 1676   3.446   7.301   9.716
   23CHL1   H2B 1677   3.621   7.266   9.738
   23CHL1   C20 1678   3.682   7.016   8.826
   23CHL1   H20 1679   3.782   7.061   8.841
   23CHL1   C21 1680   3.580   7.131   8.806
   23CHL1  H21A 1681   3.486   7.091   8.761
   23CHL1  H21B 1682   3.622   7.208   8.738
   23CHL1  H21C 1683   3.552   7.184   8.900
   23CHL1   C22 1684   3.689   6.932   8.697
   23CHL1  H22A 1685   3.773   6.859   8.704
   23CHL1  H22B 1686   3.595   6.874   8.686
   23CHL1   C23 1687   3.708   7.019   8.572
   23CHL1  H23A 1688   3.623   7.089   8.562
   23CHL1  H23B 1689   3.802   7.078   8.579
   23CHL1   C24 1690   3.708   6.935   8.445
   23CHL1  H24A 1691   3.802   6.876   8.438
   23CHL1  H24B 1692   3.621   6.865   8.453
   23CHL1   C25 1693   3.686   7.019   8.320
   23CHL1   H25 1694   3.639   7.114   8.354
   23CHL1   C26 1695   3.816   7.053   8.246
   23CHL1  H26A 1696   3.864   6.961   8.207
   23CHL1  H26B 1697   3.795   7.122   8.162
   23CHL1  H26C 1698   3.887   7.104   8.316
   23CHL1   C27 1699   3.583   6.956   8.227
   23CHL1  H27A 1700   3.485   6.947   8.278
   23CHL1  H27B 1701   3.570   7.017   8.136
   23CHL1  H27C 1702   3.618   6.854   8.200
   24CHL1    C3 1703   4.270   7.286   9.734
   24CHL1    H3 1704   4.239   7.189   9.690
   24CHL1    O3 1705   4.262   7.277   9.876
   24CHL1   H3' 1706   4.171   7.252   9.894
   24CHL1    C4 1707   4.414   7.317   9.694
   24CHL1   H4A 1708   4.446   7.411   9.745
   24CHL1   H4B 1709   4.479   7.236   9.733
   24CHL1    C5 1710   4.427   7.333   9.543
   24CHL1    C6 1711   4.510   7.255   9.473
   24CHL1    H6 1712   4.573   7.181   9.526
   24CHL1    C7 1713   4.530   7.265   9.325
   24CHL1   H7A 1714   4.638   7.262   9.300
   24CHL1   H7B 1715   4.482   7.177   9.276
   24CHL1    C8 1716   4.468   7.394   9.265
   24CHL1    H8 1717   4.537   7.478   9.289
   24CHL1   C14 1718   4.456   7.379   9.114
   24CHL1   H14 1719   4.382   7.298   9.098
   24CHL1   C15 1720   4.582   7.334   9.037
   24CHL1  H15A 1721   4.671   7.389   9.074
   24CHL1  H15B 1722   4.600   7.225   9.048
   24CHL1   C16 1723   4.552   7.373   8.892
   24CHL1  H16A 1724   4.634   7.438   8.855
   24CHL1  H16B 1725   4.544   7.285   8.825
   24CHL1   C17 1726   4.417   7.453   8.894
   24CHL1   H17 1727   4.336   7.378   8.880
   24CHL1   C13 1728   4.401   7.501   9.041
   24CHL1   C18 1729   4.493   7.623   9.063
   24CHL1  H18A 1730   4.497   7.653   9.170
   24CHL1  H18B 1731   4.596   7.598   9.030
   24CHL1  H18C 1732   4.457   7.711   9.005
   24CHL1   C12 1733   4.259   7.526   9.095
   24CHL1  H12A 1734   4.218   7.619   9.050
   24CHL1  H12B 1735   4.194   7.441   9.066
   24CHL1   C11 1736   4.258   7.541   9.249
   24CHL1  H11A 1737   4.308   7.637   9.273
   24CHL1  H11B 1738   4.153   7.548   9.283
   24CHL1    C9 1739   4.330   7.424   9.323
   24CHL1    H9 1740   4.269   7.334   9.300
   24CHL1   C10 1741   4.331   7.436   9.479
   24CHL1   C19 1742   4.381   7.577   9.519
   24CHL1  H19A 1743   4.390   7.588   9.629
   24CHL1  H19B 1744   4.480   7.599   9.473
   24CHL1  H19C 1745   4.309   7.655   9.485
   24CHL1    C1 1746   4.186   7.414   9.532
   24CHL1   H1A 1747   4.122   7.499   9.501
   24CHL1   H1B 1748   4.145   7.322   9.485
   24CHL1    C2 1749   4.175   7.397   9.685
   24CHL1   H2A 1750   4.070   7.372   9.713
   24CHL1   H2B 1751   4.202   7.492   9.735
   24CHL1   C20 1752   4.408   7.550   8.776
   24CHL1   H20 1753   4.496   7.619   8.778
   24CHL1   C21 1754   4.281   7.637   8.783
   24CHL1  H21A 1755   4.191   7.572   8.792
   24CHL1  H21B 1756   4.271   7.699   8.692
   24CHL1  H21C 1757   4.285   7.706   8.870
   24CHL1   C22 1758   4.411   7.474   8.640
   24CHL1  H22A 1759   4.386   7.367   8.655
   24CHL1  H22B 1760   4.331   7.516   8.575
   24CHL1   C23 1761   4.542   7.485   8.560
   24CHL1  H23A 1762   4.555   7.591   8.532
   24CHL1  H23B 1763   4.629   7.456   8.623
   24CHL1   C24 1764   4.541   7.397   8.433
   24CHL1  H24A 1765   4.600   7.305   8.450
   24CHL1  H24B 1766   4.436   7.366   8.414
   24CHL1   C25 1767   4.591   7.467   8.304
   24CHL1   H25 1768   4.534   7.561   8.293
   24CHL1   C26 1769   4.741   7.501   8.309
   24CHL1  H26A 1770   4.764   7.566   8.397
   24CHL1  H26B 1771   4.802   7.408   8.317
   24CHL1  H26C 1772   4.771   7.555   8.217
   24CHL1   C27 1773   4.562   7.380   8.180
   24CHL1  H27A 1774   4.591   7.435   8.088
   24CHL1  H27B 1775   4.620   7.286   8.185
   24CHL1  H27C 1776   4.454   7.356   8.174
   25CHL1    C3 1777   5.052   0.202   9.717
   25CHL1    H3 1778   5.159   0.212   9.691
   25CHL1    O3 1779   5.043   0.168   9.854
   25CHL1   H3' 1780   4.953   0.189   9.881
   25CHL1    C4 1781   4.980   0.335   9.690
   25CHL1   H4A 1782   4.874   0.326   9.719
   25CHL1   H4B 1783   5.025   0.412   9.757
   25CHL1    C5 1784   4.991   0.374   9.544
   25CHL1    C6 1785   5.048   0.490   9.507
   25CHL1    H6 1786   5.082   0.560   9.585
   25CHL1    C7 1787   5.061   0.537   9.365
   25CHL1   H7A 1788   5.028   0.642   9.355
   25CHL1   H7B 1789   5.168   0.533   9.336
   25CHL1    C8 1790   4.980   0.450   9.265
   25CHL1    H8 1791   4.873   0.480   9.273
   25CHL1   C14 1792   5.030   0.475   9.124
   25CHL1   H14 1793   5.136   0.441   9.123
   25CHL1   C15 1794   5.033   0.620   9.076
   25CHL1  H15A 1795   4.937   0.670   9.100
   25CHL1  H15B 1796   5.116   0.674   9.127
   25CHL1   C16 1797   5.051   0.608   8.923
   25CHL1  H16A 1798   4.977   0.676   8.875
   25CHL1  H16B 1799   5.152   0.638   8.890
   25CHL1   C17 1800   5.027   0.457   8.889
   25CHL1   H17 1801   5.128   0.411   8.889
   25CHL1   C13 1802   4.960   0.397   9.015
   25CHL1   C18 1803   4.810   0.434   9.011
   25CHL1  H18A 1804   4.794   0.542   8.991
   25CHL1  H18B 1805   4.760   0.376   8.930
   25CHL1  H18C 1806   4.761   0.409   9.107
   25CHL1   C12 1807   4.982   0.247   9.042
   25CHL1  H12A 1808   4.929   0.186   8.966
   25CHL1  H12B 1809   5.091   0.225   9.034
   25CHL1   C11 1810   4.935   0.209   9.185
   25CHL1  H11A 1811   4.824   0.215   9.185
   25CHL1  H11B 1812   4.963   0.104   9.204
   25CHL1    C9 1813   4.992   0.300   9.298
   25CHL1    H9 1814   5.102   0.281   9.297
   25CHL1   C10 1815   4.944   0.267   9.442
   25CHL1   C19 1816   4.789   0.265   9.446
   25CHL1  H19A 1817   4.750   0.183   9.382
   25CHL1  H19B 1818   4.751   0.246   9.548
   25CHL1  H19C 1819   4.747   0.361   9.410
   25CHL1    C1 1820   4.997   0.125   9.482
   25CHL1   H1A 1821   4.942   0.048   9.424
   25CHL1   H1B 1822   5.104   0.118   9.452
   25CHL1    C2 1823   4.989   0.091   9.632
   25CHL1   H2A 1824   5.042  -0.005   9.651
   25CHL1   H2B 1825   4.883   0.078   9.661
   25CHL1   C20 1826   4.964   0.425   8.752
   25CHL1   H20 1827   4.906   0.331   8.763
   25CHL1   C21 1828   5.078   0.396   8.653
   25CHL1  H21A 1829   5.037   0.364   8.554
   25CHL1  H21B 1830   5.143   0.313   8.690
   25CHL1  H21C 1831   5.141   0.486   8.638
   25CHL1   C22 1832   4.868   0.533   8.695
   25CHL1  H22A 1833   4.793   0.560   8.773
   25CHL1  H22B 1834   4.926   0.624   8.670
   25CHL1   C23 1835   4.789   0.490   8.570
   25CHL1  H23A 1836   4.856   0.485   8.482
   25CHL1  H23B 1837   4.748   0.388   8.588
   25CHL1   C24 1838   4.671   0.584   8.539
   25CHL1  H24A 1839   4.604   0.585   8.628
   25CHL1  H24B 1840   4.707   0.688   8.525
   25CHL1   C25 1841   4.588   0.542   8.416
   25CHL1   H25 1842   4.614   0.436   8.394
   25CHL1   C26 1843   4.437   0.548   8.443
   25CHL1  H26A 1844   4.406   0.653   8.462
   25CHL1  H26B 1845   4.381   0.510   8.355
   25CHL1  H26C 1846   4.411   0.486   8.531
   25CHL1   C27 1847   4.624   0.623   8.291
   25CHL1  H27A 1848   4.598   0.730   8.306
   25CHL1  H27B 1849   4.733   0.616   8.269
   25CHL1  H27C 1850   4.568   0.586   8.203
   26CHL1    C3 1851   7.278   4.941   9.779
   26CHL1    H3 1852   7.191   4.878   9.751
   26CHL1    O3 1853   7.298   4.936   9.920
   26CHL1   H3' 1854   7.290   4.845   9.947
   26CHL1    C4 1855   7.405   4.889   9.708
   26CHL1   H4A 1856   7.492   4.943   9.752
   26CHL1   H4B 1857   7.417   4.782   9.735
   26CHL1    C5 1858   7.405   4.909   9.558
   26CHL1    C6 1859   7.432   4.811   9.471
   26CHL1    H6 1860   7.459   4.711   9.508
   26CHL1    C7 1861   7.434   4.830   9.322
   26CHL1   H7A 1862   7.519   4.777   9.274
   26CHL1   H7B 1863   7.339   4.790   9.283
   26CHL1    C8 1864   7.435   4.977   9.274
   26CHL1    H8 1865   7.537   5.019   9.283
   26CHL1   C14 1866   7.388   4.986   9.128
   26CHL1   H14 1867   7.285   4.945   9.128
   26CHL1   C15 1868   7.463   4.905   9.023
   26CHL1  H15A 1869   7.572   4.924   9.030
   26CHL1  H15B 1870   7.447   4.796   9.035
   26CHL1   C16 1871   7.407   4.960   8.891
   26CHL1  H16A 1872   7.495   4.985   8.826
   26CHL1  H16B 1873   7.342   4.888   8.838
   26CHL1   C17 1874   7.328   5.091   8.925
   26CHL1   H17 1875   7.221   5.062   8.934
   26CHL1   C13 1876   7.374   5.126   9.068
   26CHL1   C18 1877   7.509   5.198   9.055
   26CHL1  H18A 1878   7.495   5.306   9.032
   26CHL1  H18B 1879   7.569   5.191   9.148
   26CHL1  H18C 1880   7.568   5.156   8.971
   26CHL1   C12 1881   7.279   5.202   9.160
   26CHL1  H12A 1882   7.266   5.306   9.124
   26CHL1  H12B 1883   7.181   5.149   9.159
   26CHL1   C11 1884   7.329   5.200   9.305
   26CHL1  H11A 1885   7.432   5.242   9.308
   26CHL1  H11B 1886   7.265   5.265   9.369
   26CHL1    C9 1887   7.338   5.057   9.360
   26CHL1    H9 1888   7.237   5.012   9.344
   26CHL1   C10 1889   7.365   5.050   9.512
   26CHL1   C19 1890   7.486   5.139   9.544
   26CHL1  H19A 1891   7.574   5.108   9.484
   26CHL1  H19B 1892   7.464   5.246   9.521
   26CHL1  H19C 1893   7.514   5.135   9.651
   26CHL1    C1 1894   7.239   5.101   9.588
   26CHL1   H1A 1895   7.224   5.208   9.565
   26CHL1   H1B 1896   7.150   5.045   9.551
   26CHL1    C2 1897   7.248   5.086   9.740
   26CHL1   H2A 1898   7.153   5.119   9.787
   26CHL1   H2B 1899   7.329   5.152   9.779
   26CHL1   C20 1900   7.338   5.194   8.810
   26CHL1   H20 1901   7.444   5.211   8.785
   26CHL1   C21 1902   7.276   5.331   8.846
   26CHL1  H21A 1903   7.323   5.376   8.937
   26CHL1  H21B 1904   7.167   5.323   8.860
   26CHL1  H21C 1905   7.295   5.402   8.763
   26CHL1   C22 1906   7.266   5.144   8.682
   26CHL1  H22A 1907   7.205   5.053   8.706
   26CHL1  H22B 1908   7.194   5.222   8.651
   26CHL1   C23 1909   7.354   5.113   8.560
   26CHL1  H23A 1910   7.290   5.124   8.470
   26CHL1  H23B 1911   7.435   5.189   8.551
   26CHL1   C24 1912   7.410   4.970   8.556
   26CHL1  H24A 1913   7.497   4.961   8.625
   26CHL1  H24B 1914   7.331   4.899   8.590
   26CHL1   C25 1915   7.458   4.926   8.417
   26CHL1   H25 1916   7.374   4.942   8.345
   26CHL1   C26 1917   7.578   5.009   8.373
   26CHL1  H26A 1918   7.668   4.984   8.433
   26CHL1  H26B 1919   7.600   4.987   8.266
   26CHL1  H26C 1920   7.558   5.117   8.383
   26CHL1   C27 1921   7.497   4.778   8.412
   26CHL1  H27A 1922   7.530   4.750   8.309
   26CHL1  H27B 1923   7.583   4.761   8.481
   26CHL1  H27C 1924   7.413   4.712   8.442
   27CHL1    C3 1925   0.327   1.389   9.774
   27CHL1    H3 1926   0.291   1.284   9.769
   27CHL1    O3 1927   0.323   1.428   9.910
   27CHL1   H3' 1928   0.229   1.423   9.931
   27CHL1    C4 1929   0.472   1.395   9.723
   27CHL1   H4A 1930   0.514   1.495   9.748
   27CHL1   H4B 1931   0.532   1.322   9.781
   27CHL1    C5 1932   0.478   1.368   9.574
   27CHL1    C6 1933   0.553   1.269   9.524
   27CHL1    H6 1934   0.616   1.209   9.591
   27CHL1    C7 1935   0.555   1.235   9.378
   27CHL1   H7A 1936   0.655   1.194   9.349
   27CHL1   H7B 1937   0.483   1.155   9.355
   27CHL1    C8 1938   0.519   1.358   9.291
   27CHL1    H8 1939   0.600   1.433   9.303
   27CHL1   C14 1940   0.506   1.318   9.146
   27CHL1   H14 1941   0.418   1.251   9.140
   27CHL1   C15 1942   0.619   1.235   9.084
   27CHL1  H15A 1943   0.715   1.280   9.117
   27CHL1  H15B 1944   0.615   1.128   9.114
   27CHL1   C16 1945   0.605   1.257   8.934
   27CHL1  H16A 1946   0.698   1.305   8.897
   27CHL1  H16B 1947   0.589   1.161   8.879
   27CHL1   C17 1948   0.487   1.356   8.915
   27CHL1   H17 1949   0.397   1.291   8.909
   27CHL1   C13 1950   0.478   1.433   9.049
   27CHL1   C18 1951   0.593   1.538   9.052
   27CHL1  H18A 1952   0.571   1.620   8.981
   27CHL1  H18B 1953   0.602   1.584   9.153
   27CHL1  H18C 1954   0.691   1.493   9.025
   27CHL1   C12 1955   0.344   1.496   9.089
   27CHL1  H12A 1956   0.326   1.589   9.031
   27CHL1  H12B 1957   0.261   1.425   9.068
   27CHL1   C11 1958   0.339   1.532   9.240
   27CHL1  H11A 1959   0.406   1.620   9.250
   27CHL1  H11B 1960   0.236   1.563   9.267
   27CHL1    C9 1961   0.386   1.418   9.336
   27CHL1    H9 1962   0.312   1.336   9.326
   27CHL1   C10 1963   0.385   1.454   9.488
   27CHL1   C19 1964   0.435   1.598   9.500
   27CHL1  H19A 1965   0.523   1.614   9.434
   27CHL1  H19B 1966   0.352   1.665   9.468
   27CHL1  H19C 1967   0.459   1.629   9.604
   27CHL1    C1 1968   0.240   1.446   9.543
   27CHL1   H1A 1969   0.176   1.516   9.487
   27CHL1   H1B 1970   0.201   1.344   9.526
   27CHL1    C2 1971   0.232   1.478   9.693
   27CHL1   H2A 1972   0.127   1.463   9.729
   27CHL1   H2B 1973   0.258   1.584   9.711
   27CHL1   C20 1974   0.493   1.433   8.783
   27CHL1   H20 1975   0.567   1.516   8.790
   27CHL1   C21 1976   0.352   1.490   8.756
   27CHL1  H21A 1977   0.328   1.571   8.827
   27CHL1  H21B 1978   0.276   1.409   8.766
   27CHL1  H21C 1979   0.342   1.532   8.654
   27CHL1   C22 1980   0.538   1.343   8.665
   27CHL1  H22A 1981   0.634   1.292   8.685
   27CHL1  H22B 1982   0.460   1.265   8.654
   27CHL1   C23 1983   0.556   1.416   8.531
   27CHL1  H23A 1984   0.495   1.509   8.526
   27CHL1  H23B 1985   0.662   1.448   8.519
   27CHL1   C24 1986   0.514   1.327   8.414
   27CHL1  H24A 1987   0.592   1.249   8.397
   27CHL1  H24B 1988   0.420   1.276   8.442
   27CHL1   C25 1989   0.486   1.402   8.283
   27CHL1   H25 1990   0.402   1.472   8.301
   27CHL1   C26 1991   0.608   1.484   8.240
   27CHL1  H26A 1992   0.589   1.533   8.142
   27CHL1  H26B 1993   0.630   1.564   8.314
   27CHL1  H26C 1994   0.698   1.420   8.231
   27CHL1   C27 1995   0.442   1.301   8.176
   27CHL1  H27A 1996   0.426   1.352   8.078
   27CHL1  H27B 1997   0.518   1.222   8.163
   27CHL1  H27C 1998   0.347   1.252   8.206
   28CHL1    C3 1999   6.196   7.004   9.819
   28CHL1    H3 2000   6.106   6.946   9.851
   28CHL1    O3 2001   6.280   7.029   9.930
   28CHL1   H3' 2002   6.364   7.051   9.889
   28CHL1    C4 2003   6.278   6.923   9.718
   28CHL1   H4A 2004   6.374   6.977   9.699
   28CHL1   H4B 2005   6.307   6.827   9.766
   28CHL1    C5 2006   6.206   6.902   9.587
   28CHL1    C6 2007   6.187   6.779   9.538
   28CHL1    H6 2008   6.227   6.692   9.593
   28CHL1    C7 2009   6.128   6.752   9.404
   28CHL1   H7A 2010   6.189   6.675   9.351
   28CHL1   H7B 2011   6.025   6.712   9.414
   28CHL1    C8 2012   6.123   6.881   9.317
   28CHL1    H8 2013   6.227   6.907   9.288
   28CHL1   C14 2014   6.045   6.855   9.192
   28CHL1   H14 2015   5.942   6.832   9.226
   28CHL1   C15 2016   6.085   6.730   9.112
   28CHL1  H15A 2017   6.196   6.721   9.106
   28CHL1  H15B 2018   6.046   6.637   9.158
   28CHL1   C16 2019   6.024   6.756   8.975
   28CHL1  H16A 2020   6.105   6.750   8.898
   28CHL1  H16B 2021   5.946   6.682   8.952
   28CHL1   C17 2022   5.965   6.901   8.978
   28CHL1   H17 2023   5.860   6.895   9.014
   28CHL1   C13 2024   6.030   6.974   9.097
   28CHL1   C18 2025   6.161   7.039   9.048
   28CHL1  H18A 2026   6.204   6.979   8.964
   28CHL1  H18B 2027   6.141   7.140   9.007
   28CHL1  H18C 2028   6.236   7.049   9.129
   28CHL1   C12 2029   5.948   7.078   9.176
   28CHL1  H12A 2030   5.928   7.168   9.114
   28CHL1  H12B 2031   5.850   7.034   9.205
   28CHL1   C11 2032   6.024   7.119   9.305
   28CHL1  H11A 2033   6.114   7.175   9.274
   28CHL1  H11B 2034   5.960   7.189   9.364
   28CHL1    C9 2035   6.064   6.998   9.396
   28CHL1    H9 2036   5.968   6.959   9.437
   28CHL1   C10 2037   6.154   7.031   9.519
   28CHL1   C19 2038   6.275   7.116   9.471
   28CHL1  H19A 2039   6.349   7.134   9.552
   28CHL1  H19B 2040   6.329   7.066   9.387
   28CHL1  H19C 2041   6.242   7.216   9.436
   28CHL1    C1 2042   6.074   7.112   9.624
   28CHL1   H1A 2043   6.045   7.210   9.581
   28CHL1   H1B 2044   5.980   7.057   9.648
   28CHL1    C2 2045   6.149   7.136   9.757
   28CHL1   H2A 2046   6.082   7.188   9.829
   28CHL1   H2B 2047   6.237   7.202   9.738
   28CHL1   C20 2048   5.960   6.958   8.835
   28CHL1   H20 2049   6.063   6.968   8.794
   28CHL1   C21 2050   5.895   7.097   8.841
   28CHL1  H21A 2051   5.974   7.171   8.867
   28CHL1  H21B 2052   5.817   7.104   8.919
   28CHL1  H21C 2053   5.850   7.125   8.743
   28CHL1   C22 2054   5.883   6.860   8.743
   28CHL1  H22A 2055   5.931   6.760   8.744
   28CHL1  H22B 2056   5.780   6.849   8.784
   28CHL1   C23 2057   5.859   6.891   8.595
   28CHL1  H23A 2058   5.806   6.988   8.584
   28CHL1  H23B 2059   5.956   6.897   8.540
   28CHL1   C24 2060   5.773   6.776   8.540
   28CHL1  H24A 2061   5.831   6.682   8.546
   28CHL1  H24B 2062   5.684   6.763   8.605
   28CHL1   C25 2063   5.723   6.795   8.397
   28CHL1   H25 2064   5.808   6.824   8.333
   28CHL1   C26 2065   5.662   6.666   8.344
   28CHL1  H26A 2066   5.733   6.581   8.352
   28CHL1  H26B 2067   5.570   6.642   8.402
   28CHL1  H26C 2068   5.631   6.680   8.238
   28CHL1   C27 2069   5.613   6.901   8.390
   28CHL1  H27A 2070   5.648   7.001   8.424
   28CHL1  H27B 2071   5.577   6.907   8.285
   28CHL1  H27C 2072   5.527   6.871   8.453
   29CHL1    C3 2073   3.976   5.093   6.232
   29CHL1    H3 2074   3.887   5.035   6.264
   29CHL1    O3 2075   3.979   5.098   6.091
   29CHL1   H3' 2076   4.072   5.091   6.068
   29CHL1    C4 2077   3.971   5.235   6.290
   29CHL1   H4A 2078   4.060   5.292   6.255
   29CHL1   H4B 2079   3.881   5.285   6.248
   29CHL1    C5 2080   3.968   5.226   6.441
   29CHL1    C6 2081   3.864   5.276   6.508
   29CHL1    H6 2082   3.785   5.328   6.452
   29CHL1    C7 2083   3.854   5.273   6.656
   29CHL1   H7A 2084   3.818   5.372   6.693
   29CHL1   H7B 2085   3.783   5.194   6.688
   29CHL1    C8 2086   3.989   5.246   6.724
   29CHL1    H8 2087   4.052   5.336   6.708
   29CHL1   C14 2088   3.967   5.226   6.872
   29CHL1   H14 2089   3.908   5.133   6.884
   29CHL1   C15 2090   3.885   5.335   6.945
   29CHL1  H15A 2091   3.923   5.435   6.915
   29CHL1  H15B 2092   3.777   5.328   6.922
   29CHL1   C16 2093   3.916   5.310   7.092
   29CHL1  H16A 2094   3.938   5.407   7.141
   29CHL1  H16B 2095   3.830   5.262   7.145
   29CHL1   C17 2096   4.038   5.213   7.097
   29CHL1   H17 2097   3.996   5.112   7.118
   29CHL1   C13 2098   4.094   5.206   6.952
   29CHL1   C18 2099   4.192   5.324   6.933
   29CHL1  H18A 2100   4.223   5.335   6.826
   29CHL1  H18B 2101   4.147   5.420   6.966
   29CHL1  H18C 2102   4.284   5.306   6.991
   29CHL1   C12 2103   4.157   5.074   6.901
   29CHL1  H12A 2104   4.255   5.055   6.950
   29CHL1  H12B 2105   4.092   4.988   6.929
   29CHL1   C11 2106   4.178   5.074   6.747
   29CHL1  H11A 2107   4.266   5.139   6.729
   29CHL1  H11B 2108   4.206   4.971   6.714
   29CHL1    C9 2109   4.057   5.125   6.662
   29CHL1    H9 2110   3.982   5.043   6.668
   29CHL1   C10 2111   4.084   5.150   6.510
   29CHL1   C19 2112   4.211   5.235   6.493
   29CHL1  H19A 2113   4.206   5.327   6.555
   29CHL1  H19B 2114   4.299   5.175   6.524
   29CHL1  H19C 2115   4.229   5.263   6.387
   29CHL1    C1 2116   4.104   5.015   6.436
   29CHL1   H1A 2117   4.203   4.975   6.467
   29CHL1   H1B 2118   4.026   4.944   6.468
   29CHL1    C2 2119   4.102   5.024   6.282
   29CHL1   H2A 2120   4.105   4.923   6.236
   29CHL1   H2B 2121   4.194   5.078   6.248
   29CHL1   C20 2122   4.131   5.248   7.213
   29CHL1   H20 2123   4.182   5.344   7.193
   29CHL1   C21 2124   4.238   5.138   7.223
   29CHL1  H21A 2125   4.192   5.037   7.235
   29CHL1  H21B 2126   4.305   5.157   7.309
   29CHL1  H21C 2127   4.301   5.137   7.132
   29CHL1   C22 2128   4.055   5.265   7.347
   29CHL1  H22A 2129   3.995   5.359   7.344
   29CHL1  H22B 2130   3.985   5.181   7.362
   29CHL1   C23 2131   4.146   5.273   7.471
   29CHL1  H23A 2132   4.195   5.175   7.486
   29CHL1  H23B 2133   4.226   5.348   7.452
   29CHL1   C24 2134   4.070   5.310   7.599
   29CHL1  H24A 2135   4.041   5.417   7.594
   29CHL1  H24B 2136   3.977   5.250   7.605
   29CHL1   C25 2137   4.151   5.286   7.728
   29CHL1   H25 2138   4.096   5.337   7.810
   29CHL1   C26 2139   4.159   5.136   7.762
   29CHL1  H26A 2140   4.212   5.080   7.682
   29CHL1  H26B 2141   4.215   5.120   7.857
   29CHL1  H26C 2142   4.057   5.094   7.773
   29CHL1   C27 2143   4.291   5.346   7.721
   29CHL1  H27A 2144   4.332   5.368   7.822
   29CHL1  H27B 2145   4.360   5.275   7.670
   29CHL1  H27C 2146   4.293   5.438   7.659
   30CHL1    C3 2147   2.590   2.552   6.227
   30CHL1    H3 2148   2.699   2.564   6.248
   30CHL1    O3 2149   2.573   2.522   6.089
   30CHL1   H3' 2150   2.653   2.474   6.064
   30CHL1    C4 2151   2.537   2.437   6.313
   30CHL1   H4A 2152   2.429   2.422   6.290
   30CHL1   H4B 2153   2.590   2.344   6.284
   30CHL1    C5 2154   2.556   2.470   6.459
   30CHL1    C6 2155   2.630   2.391   6.539
   30CHL1    H6 2156   2.675   2.299   6.497
   30CHL1    C7 2157   2.651   2.416   6.685
   30CHL1   H7A 2158   2.638   2.322   6.742
   30CHL1   H7B 2159   2.754   2.454   6.703
   30CHL1    C8 2160   2.549   2.519   6.741
   30CHL1    H8 2161   2.452   2.466   6.743
   30CHL1   C14 2162   2.588   2.564   6.881
   30CHL1   H14 2163   2.681   2.623   6.868
   30CHL1   C15 2164   2.623   2.458   6.984
   30CHL1  H15A 2165   2.541   2.382   6.983
   30CHL1  H15B 2166   2.718   2.404   6.962
   30CHL1   C16 2167   2.628   2.539   7.114
   30CHL1  H16A 2168   2.610   2.474   7.203
   30CHL1  H16B 2169   2.731   2.580   7.124
   30CHL1   C17 2170   2.532   2.661   7.098
   30CHL1   H17 2171   2.597   2.752   7.110
   30CHL1   C13 2172   2.488   2.658   6.948
   30CHL1   C18 2173   2.346   2.601   6.942
   30CHL1  H18A 2174   2.339   2.510   7.004
   30CHL1  H18B 2175   2.270   2.674   6.978
   30CHL1  H18C 2176   2.313   2.575   6.839
   30CHL1   C12 2177   2.496   2.787   6.865
   30CHL1  H12A 2178   2.427   2.863   6.906
   30CHL1  H12B 2179   2.599   2.828   6.870
   30CHL1   C11 2180   2.459   2.759   6.717
   30CHL1  H11A 2181   2.350   2.738   6.714
   30CHL1  H11B 2182   2.475   2.851   6.656
   30CHL1    C9 2183   2.539   2.642   6.651
   30CHL1    H9 2184   2.643   2.679   6.642
   30CHL1   C10 2185   2.495   2.604   6.506
   30CHL1   C19 2186   2.341   2.592   6.502
   30CHL1  H19A 2187   2.293   2.690   6.518
   30CHL1  H19B 2188   2.305   2.555   6.403
   30CHL1  H19C 2189   2.307   2.521   6.580
   30CHL1    C1 2190   2.540   2.717   6.409
   30CHL1   H1A 2191   2.485   2.810   6.434
   30CHL1   H1B 2192   2.648   2.736   6.426
   30CHL1    C2 2193   2.521   2.684   6.260
   30CHL1   H2A 2194   2.564   2.767   6.200
   30CHL1   H2B 2195   2.412   2.677   6.236
   30CHL1   C20 2196   2.423   2.672   7.210
   30CHL1   H20 2197   2.347   2.592   7.194
   30CHL1   C21 2198   2.355   2.809   7.199
   30CHL1  H21A 2199   2.270   2.816   7.270
   30CHL1  H21B 2200   2.314   2.825   7.098
   30CHL1  H21C 2201   2.427   2.890   7.222
   30CHL1   C22 2202   2.473   2.652   7.356
   30CHL1  H22A 2203   2.516   2.550   7.367
   30CHL1  H22B 2204   2.555   2.725   7.374
   30CHL1   C23 2205   2.369   2.669   7.472
   30CHL1  H23A 2206   2.422   2.630   7.562
   30CHL1  H23B 2207   2.353   2.778   7.490
   30CHL1   C24 2208   2.231   2.600   7.458
   30CHL1  H24A 2209   2.166   2.669   7.400
   30CHL1  H24B 2210   2.236   2.509   7.395
   30CHL1   C25 2211   2.152   2.565   7.588
   30CHL1   H25 2212   2.090   2.656   7.605
   30CHL1   C26 2213   2.049   2.451   7.575
   30CHL1  H26A 2214   1.994   2.457   7.479
   30CHL1  H26B 2215   2.100   2.353   7.584
   30CHL1  H26C 2216   1.977   2.457   7.659
   30CHL1   C27 2217   2.233   2.538   7.716
   30CHL1  H27A 2218   2.164   2.526   7.802
   30CHL1  H27B 2219   2.287   2.440   7.709
   30CHL1  H27C 2220   2.306   2.618   7.739
   31CHL1    C3 2221   2.720   4.965   6.268
   31CHL1    H3 2222   2.765   4.871   6.305
   31CHL1    O3 2223   2.727   4.966   6.126
   31CHL1   H3' 2224   2.712   4.875   6.099
   31CHL1    C4 2225   2.573   4.974   6.315
   31CHL1   H4A 2226   2.528   5.066   6.272
   31CHL1   H4B 2227   2.517   4.889   6.271
   31CHL1    C5 2228   2.563   4.977   6.466
   31CHL1    C6 2229   2.489   4.888   6.533
   31CHL1    H6 2230   2.432   4.812   6.477
   31CHL1    C7 2231   2.473   4.887   6.682
   31CHL1   H7A 2232   2.366   4.887   6.710
   31CHL1   H7B 2233   2.520   4.795   6.723
   31CHL1    C8 2234   2.533   5.010   6.753
   31CHL1    H8 2235   2.459   5.093   6.745
   31CHL1   C14 2236   2.558   4.977   6.899
   31CHL1   H14 2237   2.640   4.901   6.900
   31CHL1   C15 2238   2.444   4.912   6.977
   31CHL1  H15A 2239   2.345   4.952   6.945
   31CHL1  H15B 2240   2.450   4.802   6.961
   31CHL1   C16 2241   2.471   4.945   7.123
   31CHL1  H16A 2242   2.388   5.010   7.161
   31CHL1  H16B 2243   2.476   4.854   7.186
   31CHL1   C17 2244   2.605   5.025   7.124
   31CHL1   H17 2245   2.685   4.948   7.126
   31CHL1   C13 2246   2.609   5.091   6.985
   31CHL1   C18 2247   2.506   5.207   6.982
   31CHL1  H18A 2248   2.499   5.254   6.882
   31CHL1  H18B 2249   2.404   5.173   7.010
   31CHL1  H18C 2250   2.537   5.286   7.053
   31CHL1   C12 2251   2.745   5.132   6.926
   31CHL1  H12A 2252   2.784   5.222   6.979
   31CHL1  H12B 2253   2.817   5.049   6.941
   31CHL1   C11 2254   2.734   5.164   6.774
   31CHL1  H11A 2255   2.677   5.259   6.765
   31CHL1  H11B 2256   2.836   5.181   6.734
   31CHL1    C9 2257   2.665   5.053   6.690
   31CHL1    H9 2258   2.731   4.964   6.698
   31CHL1   C10 2259   2.651   5.083   6.538
   31CHL1   C19 2260   2.581   5.219   6.518
   31CHL1  H19A 2261   2.480   5.220   6.566
   31CHL1  H19B 2262   2.641   5.301   6.563
   31CHL1  H19C 2263   2.567   5.243   6.410
   31CHL1    C1 2264   2.794   5.085   6.476
   31CHL1   H1A 2265   2.848   5.175   6.513
   31CHL1   H1B 2266   2.848   4.995   6.512
   31CHL1    C2 2267   2.798   5.085   6.322
   31CHL1   H2A 2268   2.903   5.080   6.286
   31CHL1   H2B 2269   2.753   5.179   6.283
   31CHL1   C20 2270   2.621   5.112   7.249
   31CHL1   H20 2271   2.557   5.202   7.238
   31CHL1   C21 2272   2.767   5.157   7.265
   31CHL1  H21A 2273   2.835   5.069   7.262
   31CHL1  H21B 2274   2.782   5.208   7.362
   31CHL1  H21C 2275   2.796   5.228   7.185
   31CHL1   C22 2276   2.573   5.044   7.380
   31CHL1  H22A 2277   2.482   4.982   7.365
   31CHL1  H22B 2278   2.652   4.976   7.419
   31CHL1   C23 2279   2.532   5.147   7.485
   31CHL1  H23A 2280   2.621   5.199   7.526
   31CHL1  H23B 2281   2.470   5.224   7.435
   31CHL1   C24 2282   2.446   5.087   7.596
   31CHL1  H24A 2283   2.405   5.170   7.659
   31CHL1  H24B 2284   2.360   5.034   7.549
   31CHL1   C25 2285   2.515   4.989   7.692
   31CHL1   H25 2286   2.553   4.903   7.633
   31CHL1   C26 2287   2.633   5.058   7.763
   31CHL1  H26A 2288   2.598   5.149   7.816
   31CHL1  H26B 2289   2.681   4.990   7.836
   31CHL1  H26C 2290   2.711   5.088   7.689
   31CHL1   C27 2291   2.409   4.938   7.791
   31CHL1  H27A 2292   2.445   4.853   7.852
   31CHL1  H27B 2293   2.319   4.904   7.737
   31CHL1  H27C 2294   2.380   5.020   7.861
   32CHL1    C3 2295   2.084   3.729   6.270
   32CHL1    H3 2296   2.164   3.654   6.288
   32CHL1    O3 2297   2.040   3.718   6.136
   32CHL1   H3' 2298   2.122   3.721   6.086
   32CHL1    C4 2299   1.969   3.706   6.369
   32CHL1   H4A 2300   1.890   3.781   6.349
   32CHL1   H4B 2301   1.924   3.606   6.349
   32CHL1    C5 2302   2.019   3.720   6.512
   32CHL1    C6 2303   2.012   3.617   6.597
   32CHL1    H6 2304   1.971   3.522   6.560
   32CHL1    C7 2305   2.048   3.624   6.743
   32CHL1   H7A 2306   1.966   3.581   6.805
   32CHL1   H7B 2307   2.140   3.564   6.762
   32CHL1    C8 2308   2.072   3.770   6.788
   32CHL1    H8 2309   1.972   3.820   6.791
   32CHL1   C14 2310   2.132   3.775   6.927
   32CHL1   H14 2311   2.229   3.721   6.923
   32CHL1   C15 2312   2.051   3.707   7.036
   32CHL1  H15A 2313   1.947   3.742   7.022
   32CHL1  H15B 2314   2.054   3.596   7.031
   32CHL1   C16 2315   2.105   3.762   7.167
   32CHL1  H16A 2316   2.020   3.788   7.233
   32CHL1  H16B 2317   2.169   3.688   7.220
   32CHL1   C17 2318   2.189   3.888   7.130
   32CHL1   H17 2319   2.295   3.855   7.135
   32CHL1   C13 2320   2.161   3.915   6.979
   32CHL1   C18 2321   2.036   4.007   6.968
   32CHL1  H18A 2322   1.952   3.967   7.030
   32CHL1  H18B 2323   2.060   4.109   7.003
   32CHL1  H18C 2324   1.999   4.016   6.864
   32CHL1   C12 2325   2.276   3.967   6.890
   32CHL1  H12A 2326   2.308   4.068   6.921
   32CHL1  H12B 2327   2.362   3.898   6.900
   32CHL1   C11 2328   2.232   3.970   6.741
   32CHL1  H11A 2329   2.167   4.059   6.729
   32CHL1  H11B 2330   2.323   3.986   6.680
   32CHL1    C9 2331   2.162   3.840   6.687
   32CHL1    H9 2332   2.246   3.770   6.672
   32CHL1   C10 2333   2.089   3.852   6.550
   32CHL1   C19 2334   1.984   3.964   6.556
   32CHL1  H19A 2335   1.936   3.978   6.456
   32CHL1  H19B 2336   1.904   3.944   6.630
   32CHL1  H19C 2337   2.030   4.062   6.581
   32CHL1    C1 2338   2.191   3.883   6.438
   32CHL1   H1A 2339   2.225   3.987   6.453
   32CHL1   H1B 2340   2.278   3.815   6.450
   32CHL1    C2 2341   2.139   3.869   6.293
   32CHL1   H2A 2342   2.221   3.887   6.220
   32CHL1   H2B 2343   2.060   3.945   6.275
   32CHL1   C20 2344   2.171   4.004   7.229
   32CHL1   H20 2345   2.073   4.054   7.211
   32CHL1   C21 2346   2.285   4.103   7.204
   32CHL1  H21A 2347   2.381   4.047   7.202
   32CHL1  H21B 2348   2.291   4.180   7.284
   32CHL1  H21C 2349   2.271   4.154   7.106
   32CHL1   C22 2350   2.170   3.968   7.380
   32CHL1  H22A 2351   2.117   3.873   7.399
   32CHL1  H22B 2352   2.275   3.957   7.416
   32CHL1   C23 2353   2.103   4.076   7.466
   32CHL1  H23A 2354   2.159   4.171   7.460
   32CHL1  H23B 2355   2.002   4.094   7.423
   32CHL1   C24 2356   2.092   4.032   7.613
   32CHL1  H24A 2357   2.055   3.927   7.613
   32CHL1  H24B 2358   2.194   4.029   7.657
   32CHL1   C25 2359   1.998   4.113   7.705
   32CHL1   H25 2360   1.927   4.036   7.743
   32CHL1   C26 2361   2.068   4.174   7.827
   32CHL1  H26A 2362   2.108   4.274   7.802
   32CHL1  H26B 2363   1.995   4.189   7.910
   32CHL1  H26C 2364   2.150   4.109   7.863
   32CHL1   C27 2365   1.914   4.222   7.636
   32CHL1  H27A 2366   1.846   4.177   7.560
   32CHL1  H27B 2367   1.851   4.274   7.711
   32CHL1  H27C 2368   1.979   4.297   7.587
   33CHL1    C3 2369   5.291   3.573   6.265
   33CHL1    H3 2370   5.268   3.682   6.266
   33CHL1    O3 2371   5.298   3.528   6.130
   33CHL1   H3' 2372   5.343   3.599   6.084
   33CHL1    C4 2373   5.426   3.548   6.334
   33CHL1   H4A 2374   5.452   3.441   6.324
   33CHL1   H4B 2375   5.504   3.604   6.277
   33CHL1    C5 2376   5.424   3.587   6.480
   33CHL1    C6 2377   5.513   3.674   6.530
   33CHL1    H6 2378   5.590   3.717   6.464
   33CHL1    C7 2379   5.521   3.712   6.675
   33CHL1   H7A 2380   5.626   3.711   6.710
   33CHL1   H7B 2381   5.484   3.817   6.686
   33CHL1    C8 2382   5.436   3.621   6.768
   33CHL1    H8 2383   5.493   3.526   6.783
   33CHL1   C14 2384   5.414   3.690   6.902
   33CHL1   H14 2385   5.351   3.778   6.878
   33CHL1   C15 2386   5.537   3.748   6.974
   33CHL1  H15A 2387   5.619   3.673   6.975
   33CHL1  H15B 2388   5.574   3.841   6.925
   33CHL1   C16 2389   5.486   3.774   7.116
   33CHL1  H16A 2390   5.552   3.724   7.189
   33CHL1  H16B 2391   5.483   3.883   7.138
   33CHL1   C17 2392   5.342   3.713   7.124
   33CHL1   H17 2393   5.270   3.793   7.095
   33CHL1   C13 2394   5.334   3.612   7.007
   33CHL1   C18 2395   5.408   3.483   7.047
   33CHL1  H18A 2396   5.421   3.416   6.960
   33CHL1  H18B 2397   5.509   3.504   7.089
   33CHL1  H18C 2398   5.350   3.428   7.124
   33CHL1   C12 2399   5.196   3.584   6.945
   33CHL1  H12A 2400   5.134   3.522   7.012
   33CHL1  H12B 2401   5.142   3.681   6.930
   33CHL1   C11 2402   5.207   3.514   6.807
   33CHL1  H11A 2403   5.246   3.411   6.826
   33CHL1  H11B 2404   5.105   3.505   6.764
   33CHL1    C9 2405   5.300   3.588   6.706
   33CHL1    H9 2406   5.250   3.686   6.689
   33CHL1   C10 2407   5.310   3.525   6.564
   33CHL1   C19 2408   5.341   3.375   6.582
   33CHL1  H19A 2409   5.259   3.323   6.634
   33CHL1  H19B 2410   5.355   3.324   6.484
   33CHL1  H19C 2411   5.434   3.365   6.641
   33CHL1    C1 2412   5.175   3.542   6.488
   33CHL1   H1A 2413   5.096   3.483   6.540
   33CHL1   H1B 2414   5.145   3.649   6.492
   33CHL1    C2 2415   5.179   3.498   6.340
   33CHL1   H2A 2416   5.081   3.519   6.292
   33CHL1   H2B 2417   5.198   3.389   6.333
   33CHL1   C20 2418   5.304   3.676   7.268
   33CHL1   H20 2419   5.378   3.603   7.307
   33CHL1   C21 2420   5.164   3.610   7.274
   33CHL1  H21A 2421   5.165   3.511   7.224
   33CHL1  H21B 2422   5.088   3.675   7.226
   33CHL1  H21C 2423   5.135   3.594   7.380
   33CHL1   C22 2424   5.305   3.801   7.360
   33CHL1  H22A 2425   5.343   3.889   7.304
   33CHL1  H22B 2426   5.200   3.827   7.389
   33CHL1   C23 2427   5.391   3.789   7.487
   33CHL1  H23A 2428   5.490   3.746   7.460
   33CHL1  H23B 2429   5.409   3.891   7.526
   33CHL1   C24 2430   5.325   3.709   7.600
   33CHL1  H24A 2431   5.224   3.752   7.618
   33CHL1  H24B 2432   5.311   3.603   7.570
   33CHL1   C25 2433   5.405   3.715   7.732
   33CHL1   H25 2434   5.432   3.821   7.750
   33CHL1   C26 2435   5.318   3.670   7.851
   33CHL1  H26A 2436   5.228   3.734   7.859
   33CHL1  H26B 2437   5.285   3.565   7.837
   33CHL1  H26C 2438   5.375   3.677   7.946
   33CHL1   C27 2439   5.534   3.632   7.726
   33CHL1  H27A 2440   5.590   3.640   7.821
   33CHL1  H27B 2441   5.510   3.525   7.708
   33CHL1  H27C 2442   5.599   3.668   7.643
   34CHL1    C3 2443   4.616   2.181   6.249
   34CHL1    H3 2444   4.518   2.223   6.218
   34CHL1    O3 2445   4.685   2.134   6.135
   34CHL1   H3' 2446   4.621   2.132   6.063
   34CHL1    C4 2447   4.702   2.290   6.314
   34CHL1   H4A 2448   4.803   2.247   6.329
   34CHL1   H4B 2449   4.714   2.372   6.241
   34CHL1    C5 2450   4.650   2.340   6.447
   34CHL1    C6 2451   4.633   2.471   6.471
   34CHL1    H6 2452   4.658   2.544   6.393
   34CHL1    C7 2453   4.602   2.529   6.606
   34CHL1   H7A 2454   4.670   2.613   6.629
   34CHL1   H7B 2455   4.498   2.568   6.610
   34CHL1    C8 2456   4.616   2.420   6.715
   34CHL1    H8 2457   4.724   2.401   6.728
   34CHL1   C14 2458   4.562   2.472   6.846
   34CHL1   H14 2459   4.455   2.497   6.831
   34CHL1   C15 2460   4.629   2.600   6.897
   34CHL1  H15A 2461   4.739   2.594   6.881
   34CHL1  H15B 2462   4.590   2.691   6.848
   34CHL1   C16 2463   4.599   2.598   7.046
   34CHL1  H16A 2464   4.694   2.611   7.102
   34CHL1  H16B 2465   4.528   2.679   7.075
   34CHL1   C17 2466   4.535   2.458   7.079
   34CHL1   H17 2467   4.425   2.473   7.078
   34CHL1   C13 2468   4.568   2.369   6.958
   34CHL1   C18 2469   4.712   2.313   6.977
   34CHL1  H18A 2470   4.713   2.236   7.057
   34CHL1  H18B 2471   4.749   2.264   6.884
   34CHL1  H18C 2472   4.783   2.394   7.004
   34CHL1   C12 2473   4.468   2.259   6.919
   34CHL1  H12A 2474   4.460   2.181   6.997
   34CHL1  H12B 2475   4.367   2.305   6.906
   34CHL1   C11 2476   4.510   2.193   6.786
   34CHL1  H11A 2477   4.596   2.126   6.809
   34CHL1  H11B 2478   4.427   2.128   6.750
   34CHL1    C9 2479   4.544   2.292   6.671
   34CHL1    H9 2480   4.445   2.325   6.635
   34CHL1   C10 2481   4.618   2.229   6.550
   34CHL1   C19 2482   4.750   2.162   6.597
   34CHL1  H19A 2483   4.810   2.125   6.510
   34CHL1  H19B 2484   4.814   2.232   6.655
   34CHL1  H19C 2485   4.728   2.073   6.660
   34CHL1    C1 2486   4.530   2.121   6.481
   34CHL1   H1A 2487   4.514   2.036   6.550
   34CHL1   H1B 2488   4.430   2.165   6.460
   34CHL1    C2 2489   4.589   2.067   6.348
   34CHL1   H2A 2490   4.518   1.995   6.302
   34CHL1   H2B 2491   4.683   2.012   6.368
   34CHL1   C20 2492   4.575   2.408   7.218
   34CHL1   H20 2493   4.684   2.384   7.220
   34CHL1   C21 2494   4.495   2.282   7.256
   34CHL1  H21A 2495   4.525   2.195   7.193
   34CHL1  H21B 2496   4.386   2.299   7.243
   34CHL1  H21C 2497   4.514   2.254   7.362
   34CHL1   C22 2498   4.553   2.518   7.323
   34CHL1  H22A 2499   4.587   2.618   7.288
   34CHL1  H22B 2500   4.444   2.526   7.343
   34CHL1   C23 2501   4.629   2.498   7.454
   34CHL1  H23A 2502   4.591   2.408   7.507
   34CHL1  H23B 2503   4.738   2.483   7.435
   34CHL1   C24 2504   4.607   2.625   7.536
   34CHL1  H24A 2505   4.690   2.697   7.521
   34CHL1  H24B 2506   4.514   2.672   7.500
   34CHL1   C25 2507   4.586   2.597   7.685
   34CHL1   H25 2508   4.513   2.514   7.693
   34CHL1   C26 2509   4.718   2.554   7.752
   34CHL1  H26A 2510   4.699   2.518   7.856
   34CHL1  H26B 2511   4.765   2.471   7.696
   34CHL1  H26C 2512   4.789   2.639   7.755
   34CHL1   C27 2513   4.521   2.722   7.747
   34CHL1  H27A 2514   4.460   2.777   7.673
   34CHL1  H27B 2515   4.451   2.689   7.827
   34CHL1  H27C 2516   4.598   2.790   7.789
   35CHL1    C3 2517   1.963   4.584   6.232
   35CHL1    H3 2518   1.923   4.686   6.245
   35CHL1    O3 2519   1.972   4.554   6.094
   35CHL1   H3' 2520   2.026   4.475   6.090
   35CHL1    C4 2521   2.104   4.574   6.290
   35CHL1   H4A 2522   2.151   4.478   6.260
   35CHL1   H4B 2523   2.165   4.654   6.243
   35CHL1    C5 2524   2.100   4.584   6.440
   35CHL1    C6 2525   2.167   4.682   6.501
   35CHL1    H6 2526   2.225   4.755   6.442
   35CHL1    C7 2527   2.178   4.690   6.649
   35CHL1   H7A 2528   2.285   4.706   6.674
   35CHL1   H7B 2529   2.117   4.774   6.689
   35CHL1    C8 2530   2.137   4.560   6.719
   35CHL1    H8 2531   2.215   4.485   6.695
   35CHL1   C14 2532   2.130   4.585   6.868
   35CHL1   H14 2533   2.041   4.650   6.885
   35CHL1   C15 2534   2.248   4.662   6.926
   35CHL1  H15A 2535   2.343   4.631   6.877
   35CHL1  H15B 2536   2.231   4.771   6.911
   35CHL1   C16 2537   2.251   4.625   7.073
   35CHL1  H16A 2538   2.346   4.570   7.092
   35CHL1  H16B 2539   2.247   4.714   7.140
   35CHL1   C17 2540   2.130   4.530   7.096
   35CHL1   H17 2541   2.042   4.595   7.113
   35CHL1   C13 2542   2.109   4.463   6.956
   35CHL1   C18 2543   2.224   4.362   6.931
   35CHL1  H18A 2544   2.286   4.342   7.021
   35CHL1  H18B 2545   2.184   4.265   6.895
   35CHL1  H18C 2546   2.297   4.401   6.857
   35CHL1   C12 2547   1.971   4.407   6.914
   35CHL1  H12A 2548   1.951   4.312   6.968
   35CHL1  H12B 2549   1.893   4.481   6.943
   35CHL1   C11 2550   1.962   4.383   6.760
   35CHL1  H11A 2551   2.028   4.296   6.740
   35CHL1  H11B 2552   1.858   4.353   6.734
   35CHL1    C9 2553   2.005   4.504   6.670
   35CHL1    H9 2554   1.929   4.583   6.687
   35CHL1   C10 2555   2.012   4.481   6.515
   35CHL1   C19 2556   2.068   4.339   6.490
   35CHL1  H19A 2557   2.163   4.326   6.546
   35CHL1  H19B 2558   1.996   4.263   6.526
   35CHL1  H19C 2559   2.087   4.318   6.383
   35CHL1    C1 2560   1.871   4.492   6.452
   35CHL1   H1A 2561   1.808   4.410   6.494
   35CHL1   H1B 2562   1.824   4.587   6.483
   35CHL1    C2 2563   1.870   4.483   6.298
   35CHL1   H2A 2564   1.766   4.502   6.262
   35CHL1   H2B 2565   1.900   4.380   6.269
   35CHL1   C20 2566   2.149   4.445   7.222
   35CHL1   H20 2567   2.216   4.359   7.200
   35CHL1   C21 2568   2.012   4.387   7.264
   35CHL1  H21A 2569   1.941   4.469   7.288
   35CHL1  H21B 2570   2.023   4.322   7.353
   35CHL1  H21C 2571   1.970   4.324   7.182
   35CHL1   C22 2572   2.219   4.522   7.338
   35CHL1  H22A 2573   2.319   4.559   7.305
   35CHL1  H22B 2574   2.157   4.610   7.366
   35CHL1   C23 2575   2.247   4.436   7.462
   35CHL1  H23A 2576   2.150   4.407   7.508
   35CHL1  H23B 2577   2.300   4.344   7.430
   35CHL1   C24 2578   2.332   4.507   7.568
   35CHL1  H24A 2579   2.439   4.504   7.538
   35CHL1  H24B 2580   2.301   4.613   7.578
   35CHL1   C25 2581   2.317   4.439   7.706
   35CHL1   H25 2582   2.211   4.453   7.738
   35CHL1   C26 2583   2.342   4.288   7.696
   35CHL1  H26A 2584   2.438   4.267   7.645
   35CHL1  H26B 2585   2.344   4.241   7.797
   35CHL1  H26C 2586   2.262   4.239   7.636
   35CHL1   C27 2587   2.406   4.503   7.812
   35CHL1  H27A 2588   2.513   4.501   7.781
   35CHL1  H27B 2589   2.397   4.449   7.909
   35CHL1  H27C 2590   2.376   4.609   7.829
   36CHL1    C3 2591   1.977   2.118   6.255
   36CHL1    H3 2592   1.989   2.012   6.286
   36CHL1    O3 2593   1.949   2.122   6.116
   36CHL1   H3' 2594   1.949   2.215   6.091
   36CHL1    C4 2595   1.861   2.182   6.334
   36CHL1   H4A 2596   1.842   2.283   6.293
   36CHL1   H4B 2597   1.770   2.122   6.314
   36CHL1    C5 2598   1.889   2.193   6.484
   36CHL1    C6 2599   1.804   2.146   6.577
   36CHL1    H6 2600   1.709   2.101   6.545
   36CHL1    C7 2601   1.825   2.158   6.726
   36CHL1   H7A 2602   1.733   2.195   6.776
   36CHL1   H7B 2603   1.847   2.057   6.767
   36CHL1    C8 2604   1.942   2.252   6.767
   36CHL1    H8 2605   1.906   2.357   6.762
   36CHL1   C14 2606   1.990   2.222   6.910
   36CHL1   H14 2607   2.029   2.118   6.905
   36CHL1   C15 2608   1.890   2.219   7.029
   36CHL1  H15A 2609   1.815   2.301   7.019
   36CHL1  H15B 2610   1.836   2.122   7.033
   36CHL1   C16 2611   1.978   2.242   7.155
   36CHL1  H16A 2612   1.951   2.339   7.202
   36CHL1  H16B 2613   1.965   2.161   7.231
   36CHL1   C17 2614   2.125   2.247   7.104
   36CHL1   H17 2615   2.154   2.141   7.089
   36CHL1   C13 2616   2.108   2.306   6.960
   36CHL1   C18 2617   2.061   2.454   6.971
   36CHL1  H18A 2618   1.955   2.462   7.003
   36CHL1  H18B 2619   2.121   2.510   7.045
   36CHL1  H18C 2620   2.068   2.507   6.874
   36CHL1   C12 2621   2.221   2.289   6.857
   36CHL1  H12A 2622   2.309   2.354   6.877
   36CHL1  H12B 2623   2.256   2.183   6.858
   36CHL1   C11 2624   2.180   2.321   6.713
   36CHL1  H11A 2625   2.156   2.429   6.707
   36CHL1  H11B 2626   2.268   2.302   6.648
   36CHL1    C9 2627   2.060   2.237   6.668
   36CHL1    H9 2628   2.091   2.131   6.679
   36CHL1   C10 2629   2.025   2.256   6.518
   36CHL1   C19 2630   2.014   2.406   6.487
   36CHL1  H19A 2631   1.979   2.426   6.384
   36CHL1  H19B 2632   1.944   2.454   6.558
   36CHL1  H19C 2633   2.113   2.456   6.497
   36CHL1    C1 2634   2.139   2.194   6.431
   36CHL1   H1A 2635   2.233   2.252   6.446
   36CHL1   H1B 2636   2.158   2.091   6.466
   36CHL1    C2 2637   2.109   2.192   6.281
   36CHL1   H2A 2638   2.192   2.141   6.227
   36CHL1   H2B 2639   2.102   2.296   6.242
   36CHL1   C20 2640   2.230   2.307   7.202
   36CHL1   H20 2641   2.212   2.416   7.209
   36CHL1   C21 2642   2.371   2.285   7.146
   36CHL1  H21A 2643   2.436   2.368   7.179
   36CHL1  H21B 2644   2.377   2.275   7.036
   36CHL1  H21C 2645   2.414   2.190   7.185
   36CHL1   C22 2646   2.239   2.249   7.349
   36CHL1  H22A 2647   2.149   2.286   7.403
   36CHL1  H22B 2648   2.230   2.139   7.345
   36CHL1   C23 2649   2.371   2.287   7.426
   36CHL1  H23A 2650   2.462   2.250   7.373
   36CHL1  H23B 2651   2.385   2.397   7.427
   36CHL1   C24 2652   2.392   2.239   7.571
   36CHL1  H24A 2653   2.297   2.250   7.627
   36CHL1  H24B 2654   2.419   2.131   7.573
   36CHL1   C25 2655   2.504   2.321   7.645
   36CHL1   H25 2656   2.474   2.428   7.640
   36CHL1   C26 2657   2.516   2.282   7.793
   36CHL1  H26A 2658   2.419   2.297   7.846
   36CHL1  H26B 2659   2.546   2.175   7.803
   36CHL1  H26C 2660   2.593   2.345   7.843
   36CHL1   C27 2661   2.642   2.316   7.579
   36CHL1  H27A 2662   2.710   2.388   7.629
   36CHL1  H27B 2663   2.686   2.214   7.593
   36CHL1  H27C 2664   2.638   2.340   7.471
   37CHL1    C3 2665   4.036   5.764   6.279
   37CHL1    H3 2666   3.979   5.669   6.289
   37CHL1    O3 2667   4.064   5.787   6.142
   37CHL1   H3' 2668   4.106   5.707   6.111
   37CHL1    C4 2669   3.952   5.879   6.334
   37CHL1   H4A 2670   4.004   5.975   6.312
   37CHL1   H4B 2671   3.856   5.883   6.278
   37CHL1    C5 2672   3.930   5.864   6.483
   37CHL1    C6 2673   3.807   5.854   6.534
   37CHL1    H6 2674   3.719   5.860   6.468
   37CHL1    C7 2675   3.779   5.850   6.682
   37CHL1   H7A 2676   3.692   5.915   6.705
   37CHL1   H7B 2677   3.754   5.747   6.713
   37CHL1    C8 2678   3.901   5.899   6.764
   37CHL1    H8 2679   3.914   6.008   6.749
   37CHL1   C14 2680   3.876   5.872   6.911
   37CHL1   H14 2681   3.863   5.762   6.921
   37CHL1   C15 2682   3.748   5.934   6.967
   37CHL1  H15A 2683   3.744   6.040   6.937
   37CHL1  H15B 2684   3.657   5.882   6.931
   37CHL1   C16 2685   3.766   5.926   7.118
   37CHL1  H16A 2686   3.749   6.028   7.159
   37CHL1  H16B 2687   3.694   5.856   7.165
   37CHL1   C17 2688   3.913   5.879   7.142
   37CHL1   H17 2689   3.909   5.769   7.149
   37CHL1   C13 2690   3.986   5.911   7.009
   37CHL1   C18 2691   4.016   6.063   7.004
   37CHL1  H18A 2692   3.928   6.124   7.035
   37CHL1  H18B 2693   4.100   6.087   7.073
   37CHL1  H18C 2694   4.046   6.096   6.902
   37CHL1   C12 2695   4.109   5.828   6.969
   37CHL1  H12A 2696   4.197   5.855   7.032
   37CHL1  H12B 2697   4.087   5.720   6.985
   37CHL1   C11 2698   4.146   5.850   6.819
   37CHL1  H11A 2699   4.184   5.954   6.812
   37CHL1  H11B 2700   4.229   5.781   6.791
   37CHL1    C9 2701   4.028   5.827   6.719
   37CHL1    H9 2702   4.004   5.719   6.727
   37CHL1   C10 2703   4.059   5.856   6.569
   37CHL1   C19 2704   4.137   5.989   6.560
   37CHL1  H19A 2705   4.155   6.020   6.455
   37CHL1  H19B 2706   4.081   6.071   6.611
   37CHL1  H19C 2707   4.237   5.980   6.608
   37CHL1    C1 2708   4.143   5.740   6.509
   37CHL1   H1A 2709   4.240   5.735   6.563
   37CHL1   H1B 2710   4.090   5.644   6.528
   37CHL1    C2 2711   4.168   5.751   6.357
   37CHL1   H2A 2712   4.224   5.662   6.321
   37CHL1   H2B 2713   4.231   5.841   6.337
   37CHL1   C20 2714   3.966   5.931   7.277
   37CHL1   H20 2715   3.990   6.039   7.270
   37CHL1   C21 2716   4.095   5.854   7.313
   37CHL1  H21A 2717   4.176   5.876   7.240
   37CHL1  H21B 2718   4.077   5.745   7.315
   37CHL1  H21C 2719   4.132   5.886   7.413
   37CHL1   C22 2720   3.858   5.915   7.388
   37CHL1  H22A 2721   3.771   5.981   7.364
   37CHL1  H22B 2722   3.821   5.810   7.389
   37CHL1   C23 2723   3.899   5.954   7.530
   37CHL1  H23A 2724   3.965   5.875   7.571
   37CHL1  H23B 2725   3.954   6.050   7.528
   37CHL1   C24 2726   3.775   5.968   7.622
   37CHL1  H24A 2727   3.711   6.050   7.583
   37CHL1  H24B 2728   3.716   5.874   7.615
   37CHL1   C25 2729   3.806   5.995   7.770
   37CHL1   H25 2730   3.873   5.913   7.807
   37CHL1   C26 2731   3.879   6.129   7.791
   37CHL1  H26A 2732   3.817   6.212   7.752
   37CHL1  H26B 2733   3.897   6.145   7.899
   37CHL1  H26C 2734   3.977   6.129   7.739
   37CHL1   C27 2735   3.677   5.992   7.854
   37CHL1  H27A 2736   3.700   6.010   7.961
   37CHL1  H27B 2737   3.608   6.071   7.819
   37CHL1  H27C 2738   3.626   5.893   7.844
   38CHL1    C3 2739   2.648   5.740   6.250
   38CHL1    H3 2740   2.741   5.794   6.278
   38CHL1    O3 2741   2.643   5.729   6.108
   38CHL1   H3' 2742   2.551   5.708   6.087
   38CHL1    C4 2743   2.649   5.599   6.312
   38CHL1   H4A 2744   2.559   5.544   6.277
   38CHL1   H4B 2745   2.737   5.544   6.272
   38CHL1    C5 2746   2.650   5.607   6.463
   38CHL1    C6 2747   2.749   5.552   6.535
   38CHL1    H6 2748   2.829   5.495   6.484
   38CHL1    C7 2749   2.754   5.553   6.685
   38CHL1   H7A 2750   2.783   5.454   6.724
   38CHL1   H7B 2751   2.832   5.626   6.719
   38CHL1    C8 2752   2.619   5.594   6.749
   38CHL1    H8 2753   2.550   5.508   6.740
   38CHL1   C14 2754   2.641   5.627   6.896
   38CHL1   H14 2755   2.709   5.715   6.898
   38CHL1   C15 2756   2.711   5.520   6.981
   38CHL1  H15A 2757   2.671   5.420   6.953
   38CHL1  H15B 2758   2.821   5.521   6.965
   38CHL1   C16 2759   2.673   5.556   7.124
   38CHL1  H16A 2760   2.621   5.468   7.168
   38CHL1  H16B 2761   2.762   5.579   7.187
   38CHL1   C17 2762   2.576   5.678   7.118
   38CHL1   H17 2763   2.641   5.768   7.121
   38CHL1   C13 2764   2.517   5.670   6.974
   38CHL1   C18 2765   2.410   5.561   6.975
   38CHL1  H18A 2766   2.441   5.471   7.033
   38CHL1  H18B 2767   2.317   5.600   7.021
   38CHL1  H18C 2768   2.385   5.529   6.872
   38CHL1   C12 2769   2.459   5.795   6.905
   38CHL1  H12A 2770   2.365   5.828   6.954
   38CHL1  H12B 2771   2.534   5.878   6.913
   38CHL1   C11 2772   2.433   5.771   6.755
   38CHL1  H11A 2773   2.348   5.700   6.747
   38CHL1  H11B 2774   2.401   5.867   6.709
   38CHL1    C9 2775   2.557   5.715   6.679
   38CHL1    H9 2776   2.634   5.795   6.686
   38CHL1   C10 2777   2.536   5.690   6.526
   38CHL1   C19 2778   2.404   5.614   6.507
   38CHL1  H19A 2779   2.318   5.678   6.536
   38CHL1  H19B 2780   2.387   5.586   6.401
   38CHL1  H19C 2781   2.402   5.522   6.569
   38CHL1    C1 2782   2.529   5.827   6.453
   38CHL1   H1A 2783   2.441   5.885   6.489
   38CHL1   H1B 2784   2.620   5.883   6.483
   38CHL1    C2 2785   2.527   5.819   6.300
   38CHL1   H2A 2786   2.529   5.922   6.257
   38CHL1   H2B 2787   2.433   5.771   6.266
   38CHL1   C20 2788   2.481   5.687   7.239
   38CHL1   H20 2789   2.398   5.615   7.225
   38CHL1   C21 2790   2.423   5.829   7.250
   38CHL1  H21A 2791   2.356   5.837   7.338
   38CHL1  H21B 2792   2.364   5.856   7.160
   38CHL1  H21C 2793   2.504   5.904   7.263
   38CHL1   C22 2794   2.550   5.648   7.373
   38CHL1  H22A 2795   2.609   5.554   7.361
   38CHL1  H22B 2796   2.621   5.727   7.405
   38CHL1   C23 2797   2.453   5.614   7.488
   38CHL1  H23A 2798   2.422   5.707   7.540
   38CHL1  H23B 2799   2.361   5.568   7.444
   38CHL1   C24 2800   2.517   5.514   7.585
   38CHL1  H24A 2801   2.538   5.420   7.529
   38CHL1  H24B 2802   2.615   5.554   7.620
   38CHL1   C25 2803   2.434   5.476   7.710
   38CHL1   H25 2804   2.484   5.389   7.758
   38CHL1   C26 2805   2.431   5.590   7.812
   38CHL1  H26A 2806   2.368   5.562   7.899
   38CHL1  H26B 2807   2.534   5.612   7.848
   38CHL1  H26C 2808   2.389   5.681   7.764
   38CHL1   C27 2809   2.292   5.431   7.672
   38CHL1  H27A 2810   2.238   5.512   7.618
   38CHL1  H27B 2811   2.295   5.343   7.606
   38CHL1  H27C 2812   2.233   5.406   7.763
   39CHL1    C3 2813   2.135   5.283   6.235
   39CHL1    H3 2814   2.236   5.238   6.241
   39CHL1    O3 2815   2.102   5.305   6.099
   39CHL1   H3' 2816   2.061   5.225   6.067
   39CHL1    C4 2817   2.034   5.187   6.303
   39CHL1   H4A 2818   1.932   5.226   6.283
   39CHL1   H4B 2819   2.040   5.089   6.252
   39CHL1    C5 2820   2.054   5.174   6.453
   39CHL1    C6 2821   2.067   5.056   6.516
   39CHL1    H6 2822   2.059   4.962   6.459
   39CHL1    C7 2823   2.080   5.041   6.666
   39CHL1   H7A 2824   2.011   4.962   6.704
   39CHL1   H7B 2825   2.184   5.012   6.692
   39CHL1    C8 2826   2.046   5.171   6.745
   39CHL1    H8 2827   1.936   5.182   6.741
   39CHL1   C14 2828   2.091   5.162   6.891
   39CHL1   H14 2829   2.202   5.149   6.888
   39CHL1   C15 2830   2.039   5.048   6.980
   39CHL1  H15A 2831   1.930   5.036   6.965
   39CHL1  H15B 2832   2.089   4.951   6.958
   39CHL1   C16 2833   2.067   5.097   7.124
   39CHL1  H16A 2834   1.974   5.087   7.185
   39CHL1  H16B 2835   2.147   5.037   7.172
   39CHL1   C17 2836   2.110   5.247   7.114
   39CHL1   H17 2837   2.221   5.248   7.115
   39CHL1   C13 2838   2.065   5.289   6.973
   39CHL1   C18 2839   1.914   5.319   6.979
   39CHL1  H18A 2840   1.898   5.420   7.021
   39CHL1  H18B 2841   1.868   5.316   6.878
   39CHL1  H18C 2842   1.860   5.245   7.042
   39CHL1   C12 2843   2.145   5.401   6.906
   39CHL1  H12A 2844   2.133   5.497   6.959
   39CHL1  H12B 2845   2.251   5.369   6.908
   39CHL1   C11 2846   2.104   5.422   6.759
   39CHL1  H11A 2847   2.001   5.462   6.760
   39CHL1  H11B 2848   2.170   5.499   6.716
   39CHL1    C9 2849   2.112   5.291   6.675
   39CHL1    H9 2850   2.220   5.266   6.671
   39CHL1   C10 2851   2.065   5.308   6.528
   39CHL1   C19 2852   1.925   5.370   6.527
   39CHL1  H19A 2853   1.930   5.474   6.566
   39CHL1  H19B 2854   1.882   5.378   6.425
   39CHL1  H19C 2855   1.854   5.312   6.590
   39CHL1    C1 2856   2.164   5.402   6.454
   39CHL1   H1A 2857   2.157   5.503   6.501
   39CHL1   H1B 2858   2.267   5.364   6.468
   39CHL1    C2 2859   2.136   5.419   6.305
   39CHL1   H2A 2860   2.213   5.485   6.258
   39CHL1   H2B 2861   2.037   5.468   6.290
   39CHL1   C20 2862   2.063   5.333   7.233
   39CHL1   H20 2863   1.952   5.341   7.229
   39CHL1   C21 2864   2.118   5.477   7.228
   39CHL1  H21A 2865   2.228   5.476   7.214
   39CHL1  H21B 2866   2.095   5.531   7.323
   39CHL1  H21C 2867   2.070   5.536   7.146
   39CHL1   C22 2868   2.094   5.273   7.372
   39CHL1  H22A 2869   2.155   5.181   7.363
   39CHL1  H22B 2870   2.155   5.347   7.429
   39CHL1   C23 2871   1.966   5.246   7.453
   39CHL1  H23A 2872   1.900   5.335   7.444
   39CHL1  H23B 2873   1.912   5.159   7.409
   39CHL1   C24 2874   1.988   5.225   7.603
   39CHL1  H24A 2875   2.022   5.321   7.647
   39CHL1  H24B 2876   1.892   5.198   7.652
   39CHL1   C25 2877   2.092   5.117   7.637
   39CHL1   H25 2878   2.183   5.139   7.577
   39CHL1   C26 2879   2.133   5.128   7.784
   39CHL1  H26A 2880   2.144   5.027   7.830
   39CHL1  H26B 2881   2.230   5.181   7.794
   39CHL1  H26C 2882   2.057   5.185   7.841
   39CHL1   C27 2883   2.045   4.975   7.599
   39CHL1  H27A 2884   2.126   4.901   7.618
   39CHL1  H27B 2885   1.955   4.947   7.657
   39CHL1  H27C 2886   2.020   4.971   7.490
   40CHL1    C3 2887   5.841   3.123   6.248
   40CHL1    H3 2888   5.776   3.033   6.233
   40CHL1    O3 2889   5.874   3.177   6.120
   40CHL1   H3' 2890   5.789   3.205   6.085
   40CHL1    C4 2891   5.765   3.228   6.330
   40CHL1   H4A 2892   5.826   3.321   6.333
   40CHL1   H4B 2893   5.672   3.254   6.276
   40CHL1    C5 2894   5.737   3.180   6.470
   40CHL1    C6 2895   5.612   3.170   6.519
   40CHL1    H6 2896   5.528   3.201   6.456
   40CHL1    C7 2897   5.581   3.125   6.659
   40CHL1   H7A 2898   5.496   3.181   6.704
   40CHL1   H7B 2899   5.553   3.018   6.657
   40CHL1    C8 2900   5.703   3.137   6.752
   40CHL1    H8 2901   5.727   3.245   6.765
   40CHL1   C14 2902   5.671   3.077   6.889
   40CHL1   H14 2903   5.639   2.973   6.871
   40CHL1   C15 2904   5.559   3.140   6.972
   40CHL1  H15A 2905   5.571   3.251   6.973
   40CHL1  H15B 2906   5.458   3.115   6.934
   40CHL1   C16 2907   5.583   3.085   7.114
   40CHL1  H16A 2908   5.575   3.167   7.188
   40CHL1  H16B 2909   5.509   3.006   7.139
   40CHL1   C17 2910   5.727   3.021   7.115
   40CHL1   H17 2911   5.712   2.912   7.103
   40CHL1   C13 2912   5.791   3.069   6.983
   40CHL1   C18 2913   5.851   3.211   7.007
   40CHL1  H18A 2914   5.780   3.276   7.061
   40CHL1  H18B 2915   5.944   3.204   7.068
   40CHL1  H18C 2916   5.878   3.261   6.912
   40CHL1   C12 2917   5.887   2.972   6.914
   40CHL1  H12A 2918   5.973   2.945   6.979
   40CHL1  H12B 2919   5.832   2.877   6.893
   40CHL1   C11 2920   5.935   3.029   6.779
   40CHL1  H11A 2921   5.994   3.120   6.800
   40CHL1  H11B 2922   6.002   2.955   6.730
   40CHL1    C9 2923   5.819   3.064   6.683
   40CHL1    H9 2924   5.777   2.965   6.654
   40CHL1   C10 2925   5.861   3.134   6.550
   40CHL1   C19 2926   5.946   3.259   6.582
   40CHL1  H19A 2927   6.042   3.230   6.630
   40CHL1  H19B 2928   5.973   3.315   6.490
   40CHL1  H19C 2929   5.892   3.328   6.650
   40CHL1    C1 2930   5.942   3.033   6.464
   40CHL1   H1A 2931   6.039   3.013   6.514
   40CHL1   H1B 2932   5.886   2.937   6.459
   40CHL1    C2 2933   5.970   3.080   6.319
   40CHL1   H2A 2934   6.016   2.996   6.262
   40CHL1   H2B 2935   6.040   3.165   6.321
   40CHL1   C20 2936   5.801   3.043   7.249
   40CHL1   H20 2937   5.812   3.152   7.267
   40CHL1   C21 2938   5.941   2.978   7.245
   40CHL1  H21A 2939   6.006   3.028   7.170
   40CHL1  H21B 2940   5.934   2.870   7.222
   40CHL1  H21C 2941   5.992   2.990   7.343
   40CHL1   C22 2942   5.720   2.983   7.366
   40CHL1  H22A 2943   5.615   3.021   7.364
   40CHL1  H22B 2944   5.716   2.873   7.351
   40CHL1   C23 2945   5.773   3.006   7.509
   40CHL1  H23A 2946   5.873   2.961   7.520
   40CHL1  H23B 2947   5.781   3.115   7.529
   40CHL1   C24 2948   5.676   2.943   7.611
   40CHL1  H24A 2949   5.576   2.989   7.598
   40CHL1  H24B 2950   5.666   2.835   7.589
   40CHL1   C25 2951   5.716   2.956   7.760
   40CHL1   H25 2952   5.733   3.064   7.782
   40CHL1   C26 2953   5.601   2.907   7.849
   40CHL1  H26A 2954   5.582   2.799   7.831
   40CHL1  H26B 2955   5.625   2.921   7.956
   40CHL1  H26C 2956   5.507   2.962   7.826
   40CHL1   C27 2957   5.844   2.878   7.793
   40CHL1  H27A 2958   5.867   2.886   7.902
   40CHL1  H27B 2959   5.832   2.771   7.767
   40CHL1  H27C 2960   5.931   2.919   7.737
   41CHL1    C3 2961   6.012   3.952   6.260
   41CHL1    H3 2962   5.916   4.003   6.281
   41CHL1    O3 2963   6.017   3.920   6.122
   41CHL1   H3' 2964   6.019   4.004   6.077
   41CHL1    C4 2965   6.129   4.046   6.294
   41CHL1   H4A 2966   6.224   3.996   6.264
   41CHL1   H4B 2967   6.120   4.137   6.231
   41CHL1    C5 2968   6.134   4.080   6.441
   41CHL1    C6 2969   6.131   4.208   6.482
   41CHL1    H6 2970   6.129   4.289   6.408
   41CHL1    C7 2971   6.135   4.249   6.625
   41CHL1   H7A 2972   6.203   4.335   6.641
   41CHL1   H7B 2973   6.032   4.280   6.653
   41CHL1    C8 2974   6.172   4.135   6.723
   41CHL1    H8 2975   6.282   4.121   6.720
   41CHL1   C14 2976   6.128   4.174   6.863
   41CHL1   H14 2977   6.017   4.183   6.859
   41CHL1   C15 2978   6.175   4.310   6.919
   41CHL1  H15A 2979   6.284   4.322   6.900
   41CHL1  H15B 2980   6.121   4.396   6.874
   41CHL1   C16 2981   6.149   4.297   7.070
   41CHL1  H16A 2982   6.241   4.332   7.122
   41CHL1  H16B 2983   6.064   4.360   7.103
   41CHL1   C17 2984   6.109   4.149   7.095
   41CHL1   H17 2985   5.998   4.146   7.087
   41CHL1   C13 2986   6.157   4.072   6.971
   41CHL1   C18 2987   6.308   4.047   6.985
   41CHL1  H18A 2988   6.363   4.139   7.014
   41CHL1  H18B 2989   6.326   3.969   7.061
   41CHL1  H18C 2990   6.351   4.011   6.889
   41CHL1   C12 2991   6.082   3.942   6.937
   41CHL1  H12A 2992   6.106   3.863   7.012
   41CHL1  H12B 2993   5.973   3.961   6.941
   41CHL1   C11 2994   6.119   3.894   6.794
   41CHL1  H11A 2995   6.224   3.860   6.796
   41CHL1  H11B 2996   6.055   3.806   6.769
   41CHL1    C9 2997   6.101   4.004   6.685
   41CHL1    H9 2998   5.993   4.030   6.688
   41CHL1   C10 2999   6.130   3.960   6.539
   41CHL1   C19 3000   6.270   3.895   6.533
   41CHL1  H19A 3001   6.274   3.803   6.596
   41CHL1  H19B 3002   6.297   3.864   6.429
   41CHL1  H19C 3003   6.347   3.966   6.569
   41CHL1    C1 3004   6.020   3.859   6.494
   41CHL1   H1A 3005   6.031   3.765   6.553
   41CHL1   H1B 3006   5.921   3.902   6.519
   41CHL1    C2 3007   6.021   3.824   6.344
   41CHL1   H2A 3008   5.935   3.758   6.320
   41CHL1   H2B 3009   6.115   3.770   6.319
   41CHL1   C20 3010   6.143   4.092   7.234
   41CHL1   H20 3011   6.175   3.986   7.223
   41CHL1   C21 3012   6.014   4.094   7.318
   41CHL1  H21A 3013   6.032   4.052   7.420
   41CHL1  H21B 3014   5.934   4.033   7.270
   41CHL1  H21C 3015   5.977   4.198   7.330
   41CHL1   C22 3016   6.256   4.169   7.307
   41CHL1  H22A 3017   6.341   4.185   7.237
   41CHL1  H22B 3018   6.216   4.269   7.337
   41CHL1   C23 3019   6.314   4.101   7.431
   41CHL1  H23A 3020   6.234   4.070   7.501
   41CHL1  H23B 3021   6.367   4.009   7.398
   41CHL1   C24 3022   6.410   4.196   7.504
   41CHL1  H24A 3023   6.474   4.250   7.431
   41CHL1  H24B 3024   6.350   4.272   7.559
   41CHL1   C25 3025   6.501   4.122   7.603
   41CHL1   H25 3026   6.440   4.044   7.654
   41CHL1   C26 3027   6.616   4.054   7.528
   41CHL1  H26A 3028   6.675   4.130   7.472
   41CHL1  H26B 3029   6.684   4.001   7.598
   41CHL1  H26C 3030   6.578   3.981   7.454
   41CHL1   C27 3031   6.555   4.217   7.712
   41CHL1  H27A 3032   6.612   4.300   7.666
   41CHL1  H27B 3033   6.471   4.259   7.771
   41CHL1  H27C 3034   6.622   4.161   7.781
   42CHL1    C3 3035   5.881   2.309   6.241
   42CHL1    H3 3036   5.771   2.321   6.257
   42CHL1    O3 3037   5.909   2.303   6.103
   42CHL1   H3' 3038   5.921   2.395   6.079
   42CHL1    C4 3039   5.953   2.433   6.295
   42CHL1   H4A 3040   6.060   2.425   6.267
   42CHL1   H4B 3041   5.912   2.522   6.244
   42CHL1    C5 3042   5.941   2.444   6.445
   42CHL1    C6 3043   5.895   2.557   6.502
   42CHL1    H6 3044   5.868   2.643   6.440
   42CHL1    C7 3045   5.886   2.577   6.651
   42CHL1   H7A 3046   5.932   2.675   6.680
   42CHL1   H7B 3047   5.779   2.581   6.681
   42CHL1    C8 3048   5.956   2.464   6.731
   42CHL1    H8 3049   6.066   2.483   6.729
   42CHL1   C14 3050   5.908   2.467   6.874
   42CHL1   H14 3051   5.798   2.450   6.869
   42CHL1   C15 3052   5.925   2.600   6.950
   42CHL1  H15A 3053   6.026   2.642   6.931
   42CHL1  H15B 3054   5.847   2.673   6.919
   42CHL1   C16 3055   5.909   2.558   7.096
   42CHL1  H16A 3056   5.998   2.592   7.154
   42CHL1  H16B 3057   5.818   2.604   7.141
   42CHL1   C17 3058   5.899   2.402   7.097
   42CHL1   H17 3059   5.791   2.378   7.090
   42CHL1   C13 3060   5.962   2.357   6.964
   42CHL1   C18 3061   6.117   2.366   6.977
   42CHL1  H18A 3062   6.154   2.283   7.040
   42CHL1  H18B 3063   6.166   2.358   6.878
   42CHL1  H18C 3064   6.149   2.462   7.024
   42CHL1   C12 3065   5.916   2.222   6.906
   42CHL1  H12A 3066   5.955   2.137   6.966
   42CHL1  H12B 3067   5.805   2.219   6.907
   42CHL1   C11 3068   5.965   2.207   6.761
   42CHL1  H11A 3069   6.076   2.195   6.764
   42CHL1  H11B 3070   5.923   2.113   6.720
   42CHL1    C9 3071   5.926   2.327   6.670
   42CHL1    H9 3072   5.815   2.322   6.665
   42CHL1   C10 3073   5.976   2.316   6.524
   42CHL1   C19 3074   6.131   2.302   6.522
   42CHL1  H19A 3075   6.169   2.297   6.418
   42CHL1  H19B 3076   6.179   2.388   6.573
   42CHL1  H19C 3077   6.163   2.209   6.573
   42CHL1    C1 3078   5.911   2.191   6.459
   42CHL1   H1A 3079   5.952   2.099   6.506
   42CHL1   H1B 3080   5.802   2.193   6.480
   42CHL1    C2 3081   5.931   2.181   6.307
   42CHL1   H2A 3082   5.877   2.093   6.267
   42CHL1   H2B 3083   6.039   2.168   6.284
   42CHL1   C20 3084   5.950   2.343   7.228
   42CHL1   H20 3085   6.056   2.372   7.243
   42CHL1   C21 3086   5.940   2.189   7.227
   42CHL1  H21A 3087   6.022   2.144   7.167
   42CHL1  H21B 3088   5.842   2.158   7.183
   42CHL1  H21C 3089   5.946   2.148   7.330
   42CHL1   C22 3090   5.869   2.398   7.346
   42CHL1  H22A 3091   5.839   2.504   7.331
   42CHL1  H22B 3092   5.776   2.339   7.355
   42CHL1   C23 3093   5.946   2.395   7.478
   42CHL1  H23A 3094   5.987   2.293   7.492
   42CHL1  H23B 3095   6.032   2.465   7.475
   42CHL1   C24 3096   5.851   2.434   7.592
   42CHL1  H24A 3097   5.845   2.545   7.598
   42CHL1  H24B 3098   5.749   2.398   7.566
   42CHL1   C25 3099   5.884   2.375   7.729
   42CHL1   H25 3100   5.987   2.406   7.758
   42CHL1   C26 3101   5.785   2.431   7.832
   42CHL1  H26A 3102   5.790   2.542   7.835
   42CHL1  H26B 3103   5.681   2.402   7.805
   42CHL1  H26C 3104   5.806   2.392   7.933
   42CHL1   C27 3105   5.876   2.221   7.726
   42CHL1  H27A 3106   5.775   2.188   7.695
   42CHL1  H27B 3107   5.898   2.178   7.826
   42CHL1  H27C 3108   5.950   2.178   7.656
   43CHL1    C3 3109   5.417   5.929   6.251
   43CHL1    H3 3110   5.525   5.903   6.261
   43CHL1    O3 3111   5.379   5.921   6.115
   43CHL1   H3' 3112   5.330   6.003   6.100
   43CHL1    C4 3113   5.332   5.828   6.330
   43CHL1   H4A 3114   5.225   5.845   6.306
   43CHL1   H4B 3115   5.357   5.726   6.292
   43CHL1    C5 3116   5.353   5.839   6.479
   43CHL1    C6 3117   5.384   5.734   6.553
   43CHL1    H6 3118   5.397   5.637   6.503
   43CHL1    C7 3119   5.393   5.738   6.703
   43CHL1   H7A 3120   5.346   5.648   6.748
   43CHL1   H7B 3121   5.500   5.738   6.730
   43CHL1    C8 3122   5.336   5.865   6.769
   43CHL1    H8 3123   5.225   5.858   6.772
   43CHL1   C14 3124   5.388   5.876   6.911
   43CHL1   H14 3125   5.498   5.885   6.904
   43CHL1   C15 3126   5.362   5.755   7.000
   43CHL1  H15A 3127   5.257   5.721   6.987
   43CHL1  H15B 3128   5.431   5.671   6.979
   43CHL1   C16 3129   5.383   5.807   7.141
   43CHL1  H16A 3130   5.293   5.785   7.202
   43CHL1  H16B 3131   5.471   5.761   7.191
   43CHL1   C17 3132   5.406   5.960   7.126
   43CHL1   H17 3133   5.514   5.976   7.111
   43CHL1   C13 3134   5.341   5.998   6.990
   43CHL1   C18 3135   5.187   5.999   7.005
   43CHL1  H18A 3136   5.137   6.002   6.906
   43CHL1  H18B 3137   5.150   5.911   7.061
   43CHL1  H18C 3138   5.155   6.091   7.059
   43CHL1   C12 3139   5.393   6.121   6.914
   43CHL1  H12A 3140   5.359   6.215   6.963
   43CHL1  H12B 3141   5.504   6.121   6.916
   43CHL1   C11 3142   5.348   6.121   6.765
   43CHL1  H11A 3143   5.239   6.138   6.766
   43CHL1  H11B 3144   5.396   6.206   6.713
   43CHL1    C9 3145   5.381   5.987   6.690
   43CHL1    H9 3146   5.492   5.983   6.688
   43CHL1   C10 3147   5.334   5.977   6.542
   43CHL1   C19 3148   5.179   5.983   6.540
   43CHL1  H19A 3149   5.139   5.994   6.437
   43CHL1  H19B 3150   5.131   5.894   6.585
   43CHL1  H19C 3151   5.143   6.069   6.601
   43CHL1    C1 3152   5.412   6.081   6.456
   43CHL1   H1A 3153   5.389   6.184   6.490
   43CHL1   H1B 3154   5.520   6.066   6.476
   43CHL1    C2 3155   5.392   6.071   6.303
   43CHL1   H2A 3156   5.461   6.142   6.253
   43CHL1   H2B 3157   5.288   6.101   6.279
   43CHL1   C20 3158   5.370   6.026   7.258
   43CHL1   H20 3159   5.275   5.982   7.295
   43CHL1   C21 3160   5.347   6.176   7.247
   43CHL1  H21A 3161   5.367   6.228   7.343
   43CHL1  H21B 3162   5.242   6.196   7.218
   43CHL1  H21C 3163   5.415   6.217   7.169
   43CHL1   C22 3164   5.479   5.994   7.363
   43CHL1  H22A 3165   5.527   5.896   7.347
   43CHL1  H22B 3166   5.559   6.072   7.357
   43CHL1   C23 3167   5.418   5.993   7.502
   43CHL1  H23A 3168   5.364   6.090   7.515
   43CHL1  H23B 3169   5.342   5.912   7.510
   43CHL1   C24 3170   5.519   5.978   7.616
   43CHL1  H24A 3171   5.529   5.872   7.647
   43CHL1  H24B 3172   5.619   6.013   7.581
   43CHL1   C25 3173   5.476   6.069   7.732
   43CHL1   H25 3174   5.469   6.170   7.686
   43CHL1   C26 3175   5.334   6.041   7.783
   43CHL1  H26A 3176   5.282   6.133   7.817
   43CHL1  H26B 3177   5.270   5.991   7.708
   43CHL1  H26C 3178   5.343   5.974   7.871
   43CHL1   C27 3179   5.580   6.073   7.845
   43CHL1  H27A 3180   5.552   6.005   7.928
   43CHL1  H27B 3181   5.681   6.044   7.808
   43CHL1  H27C 3182   5.587   6.175   7.888
   44CHL1    C3 3183   6.647   3.579   6.259
   44CHL1    H3 3184   6.538   3.598   6.256
   44CHL1    O3 3185   6.694   3.554   6.127
   44CHL1   H3' 3186   6.789   3.547   6.136
   44CHL1    C4 3187   6.718   3.703   6.316
   44CHL1   H4A 3188   6.828   3.692   6.301
   44CHL1   H4B 3189   6.687   3.791   6.254
   44CHL1    C5 3190   6.691   3.726   6.463
   44CHL1    C6 3191   6.642   3.843   6.510
   44CHL1    H6 3192   6.624   3.926   6.440
   44CHL1    C7 3193   6.618   3.871   6.655
   44CHL1   H7A 3194   6.652   3.974   6.682
   44CHL1   H7B 3195   6.510   3.867   6.677
   44CHL1    C8 3196   6.689   3.771   6.749
   44CHL1    H8 3197   6.798   3.793   6.749
   44CHL1   C14 3198   6.635   3.785   6.891
   44CHL1   H14 3199   6.527   3.759   6.884
   44CHL1   C15 3200   6.638   3.923   6.957
   44CHL1  H15A 3201   6.740   3.966   6.944
   44CHL1  H15B 3202   6.564   3.993   6.913
   44CHL1   C16 3203   6.613   3.894   7.106
   44CHL1  H16A 3204   6.695   3.939   7.166
   44CHL1  H16B 3205   6.517   3.935   7.143
   44CHL1   C17 3206   6.616   3.738   7.121
   44CHL1   H17 3207   6.512   3.703   7.105
   44CHL1   C13 3208   6.694   3.690   6.995
   44CHL1   C18 3209   6.845   3.717   7.015
   44CHL1  H18A 3210   6.889   3.645   7.087
   44CHL1  H18B 3211   6.900   3.705   6.919
   44CHL1  H18C 3212   6.865   3.819   7.053
   44CHL1   C12 3213   6.665   3.548   6.945
   44CHL1  H12A 3214   6.711   3.473   7.013
   44CHL1  H12B 3215   6.555   3.534   6.942
   44CHL1   C11 3216   6.719   3.523   6.803
   44CHL1  H11A 3217   6.830   3.526   6.809
   44CHL1  H11B 3218   6.689   3.421   6.771
   44CHL1    C9 3219   6.667   3.627   6.700
   44CHL1    H9 3220   6.557   3.615   6.698
   44CHL1   C10 3221   6.716   3.604   6.554
   44CHL1   C19 3222   6.869   3.576   6.557
   44CHL1  H19A 3223   6.912   3.568   6.456
   44CHL1  H19B 3224   6.922   3.657   6.612
   44CHL1  H19C 3225   6.890   3.480   6.609
   44CHL1    C1 3226   6.640   3.482   6.493
   44CHL1   H1A 3227   6.663   3.391   6.553
   44CHL1   H1B 3228   6.531   3.500   6.502
   44CHL1    C2 3229   6.674   3.455   6.345
   44CHL1   H2A 3230   6.611   3.371   6.308
   44CHL1   H2B 3231   6.780   3.425   6.336
   44CHL1   C20 3232   6.654   3.695   7.264
   44CHL1   H20 3233   6.740   3.757   7.297
   44CHL1   C21 3234   6.693   3.548   7.275
   44CHL1  H21A 3235   6.730   3.525   7.378
   44CHL1  H21B 3236   6.775   3.519   7.205
   44CHL1  H21C 3237   6.603   3.486   7.256
   44CHL1   C22 3238   6.534   3.720   7.360
   44CHL1  H22A 3239   6.496   3.823   7.346
   44CHL1  H22B 3240   6.451   3.651   7.332
   44CHL1   C23 3241   6.567   3.700   7.509
   44CHL1  H23A 3242   6.598   3.595   7.530
   44CHL1  H23B 3243   6.652   3.766   7.535
   44CHL1   C24 3244   6.448   3.733   7.600
   44CHL1  H24A 3245   6.392   3.818   7.554
   44CHL1  H24B 3246   6.378   3.647   7.606
   44CHL1   C25 3247   6.490   3.778   7.741
   44CHL1   H25 3248   6.566   3.858   7.728
   44CHL1   C26 3249   6.372   3.839   7.816
   44CHL1  H26A 3250   6.308   3.900   7.748
   44CHL1  H26B 3251   6.309   3.761   7.864
   44CHL1  H26C 3252   6.412   3.907   7.894
   44CHL1   C27 3253   6.555   3.666   7.824
   44CHL1  H27A 3254   6.643   3.623   7.772
   44CHL1  H27B 3255   6.589   3.707   7.922
   44CHL1  H27C 3256   6.482   3.585   7.844
   45CHL1    C3 3257   1.390   1.712   6.249
   45CHL1    H3 3258   1.501   1.709   6.245
   45CHL1    O3 3259   1.338   1.708   6.117
   45CHL1   H3' 3260   1.247   1.680   6.130
   45CHL1    C4 3261   1.336   1.590   6.325
   45CHL1   H4A 3262   1.226   1.592   6.313
   45CHL1   H4B 3263   1.372   1.498   6.273
   45CHL1    C5 3264   1.372   1.589   6.472
   45CHL1    C6 3265   1.436   1.485   6.529
   45CHL1    H6 3266   1.459   1.397   6.468
   45CHL1    C7 3267   1.470   1.476   6.675
   45CHL1   H7A 3268   1.442   1.376   6.714
   45CHL1   H7B 3269   1.579   1.489   6.688
   45CHL1    C8 3270   1.396   1.583   6.760
   45CHL1    H8 3271   1.290   1.551   6.769
   45CHL1   C14 3272   1.458   1.592   6.899
   45CHL1   H14 3273   1.559   1.635   6.883
   45CHL1   C15 3274   1.483   1.463   6.979
   45CHL1  H15A 3275   1.426   1.374   6.944
   45CHL1  H15B 3276   1.592   1.441   6.971
   45CHL1   C16 3277   1.456   1.497   7.124
   45CHL1  H16A 3278   1.357   1.457   7.155
   45CHL1  H16B 3279   1.532   1.452   7.191
   45CHL1   C17 3280   1.454   1.653   7.129
   45CHL1   H17 3281   1.560   1.685   7.122
   45CHL1   C13 3282   1.387   1.689   6.993
   45CHL1   C18 3283   1.238   1.652   7.005
   45CHL1  H18A 3284   1.185   1.669   6.909
   45CHL1  H18B 3285   1.223   1.545   7.030
   45CHL1  H18C 3286   1.189   1.713   7.083
   45CHL1   C12 3287   1.409   1.829   6.931
   45CHL1  H12A 3288   1.360   1.908   6.992
   45CHL1  H12B 3289   1.517   1.851   6.928
   45CHL1   C11 3290   1.352   1.836   6.786
   45CHL1  H11A 3291   1.242   1.833   6.794
   45CHL1  H11B 3292   1.379   1.934   6.742
   45CHL1    C9 3293   1.401   1.721   6.692
   45CHL1    H9 3294   1.509   1.741   6.676
   45CHL1   C10 3295   1.337   1.719   6.549
   45CHL1   C19 3296   1.183   1.727   6.564
   45CHL1  H19A 3297   1.130   1.711   6.468
   45CHL1  H19B 3298   1.147   1.651   6.637
   45CHL1  H19C 3299   1.153   1.827   6.601
   45CHL1    C1 3300   1.387   1.841   6.467
   45CHL1   H1A 3301   1.349   1.934   6.514
   45CHL1   H1B 3302   1.498   1.844   6.472
   45CHL1    C2 3303   1.345   1.841   6.318
   45CHL1   H2A 3304   1.389   1.928   6.266
   45CHL1   H2B 3305   1.234   1.849   6.312
   45CHL1   C20 3306   1.398   1.707   7.262
   45CHL1   H20 3307   1.287   1.706   7.261
   45CHL1   C21 3308   1.448   1.851   7.281
   45CHL1  H21A 3309   1.558   1.852   7.295
   45CHL1  H21B 3310   1.400   1.895   7.372
   45CHL1  H21C 3311   1.422   1.915   7.194
   45CHL1   C22 3312   1.442   1.619   7.382
   45CHL1  H22A 3313   1.399   1.518   7.372
   45CHL1  H22B 3314   1.553   1.610   7.378
   45CHL1   C23 3315   1.405   1.667   7.524
   45CHL1  H23A 3316   1.445   1.769   7.544
   45CHL1  H23B 3317   1.294   1.672   7.531
   45CHL1   C24 3318   1.464   1.569   7.626
   45CHL1  H24A 3319   1.437   1.466   7.597
   45CHL1  H24B 3320   1.575   1.579   7.623
   45CHL1   C25 3321   1.425   1.588   7.774
   45CHL1   H25 3322   1.455   1.690   7.806
   45CHL1   C26 3323   1.275   1.574   7.792
   45CHL1  H26A 3324   1.220   1.648   7.729
   45CHL1  H26B 3325   1.247   1.471   7.760
   45CHL1  H26C 3326   1.245   1.589   7.898
   45CHL1   C27 3327   1.492   1.481   7.860
   45CHL1  H27A 3328   1.452   1.486   7.964
   45CHL1  H27B 3329   1.470   1.380   7.821
   45CHL1  H27C 3330   1.602   1.495   7.863
   46CHL1    C3 3331   0.580   3.704   6.235
   46CHL1    H3 3332   0.481   3.668   6.271
   46CHL1    O3 3333   0.573   3.727   6.095
   46CHL1   H3' 3334   0.530   3.813   6.087
   46CHL1    C4 3335   0.615   3.835   6.308
   46CHL1   H4A 3336   0.708   3.876   6.263
   46CHL1   H4B 3337   0.535   3.909   6.287
   46CHL1    C5 3338   0.636   3.814   6.457
   46CHL1    C6 3339   0.564   3.882   6.547
   46CHL1    H6 3340   0.491   3.957   6.513
   46CHL1    C7 3341   0.583   3.869   6.695
   46CHL1   H7A 3342   0.583   3.969   6.743
   46CHL1   H7B 3343   0.497   3.813   6.738
   46CHL1    C8 3344   0.714   3.795   6.735
   46CHL1    H8 3345   0.801   3.862   6.723
   46CHL1   C14 3346   0.702   3.751   6.879
   46CHL1   H14 3347   0.615   3.682   6.881
   46CHL1   C15 3348   0.669   3.858   6.985
   46CHL1  H15A 3349   0.739   3.943   6.969
   46CHL1  H15B 3350   0.564   3.895   6.978
   46CHL1   C16 3351   0.699   3.788   7.118
   46CHL1  H16A 3352   0.775   3.847   7.175
   46CHL1  H16B 3353   0.608   3.776   7.179
   46CHL1   C17 3354   0.758   3.649   7.078
   46CHL1   H17 3355   0.671   3.582   7.064
   46CHL1   C13 3356   0.818   3.670   6.937
   46CHL1   C18 3357   0.948   3.754   6.948
   46CHL1  H18A 3358   1.031   3.690   6.987
   46CHL1  H18B 3359   0.979   3.792   6.848
   46CHL1  H18C 3360   0.938   3.841   7.016
   46CHL1   C12 3361   0.840   3.547   6.846
   46CHL1  H12A 3362   0.932   3.492   6.877
   46CHL1  H12B 3363   0.754   3.478   6.857
   46CHL1   C11 3364   0.855   3.587   6.698
   46CHL1  H11A 3365   0.950   3.644   6.688
   46CHL1  H11B 3366   0.865   3.494   6.638
   46CHL1    C9 3367   0.736   3.672   6.647
   46CHL1    H9 3368   0.646   3.608   6.662
   46CHL1   C10 3369   0.738   3.705   6.495
   46CHL1   C19 3370   0.880   3.758   6.458
   46CHL1  H19A 3371   0.956   3.679   6.474
   46CHL1  H19B 3372   0.886   3.787   6.351
   46CHL1  H19C 3373   0.907   3.846   6.520
   46CHL1    C1 3374   0.705   3.576   6.415
   46CHL1   H1A 3375   0.786   3.501   6.431
   46CHL1   H1B 3376   0.612   3.532   6.457
   46CHL1    C2 3377   0.685   3.596   6.264
   46CHL1   H2A 3378   0.653   3.499   6.219
   46CHL1   H2B 3379   0.782   3.625   6.218
   46CHL1   C20 3380   0.840   3.585   7.190
   46CHL1   H20 3381   0.931   3.645   7.210
   46CHL1   C21 3382   0.883   3.445   7.140
   46CHL1  H21A 3383   0.804   3.399   7.078
   46CHL1  H21B 3384   0.905   3.376   7.225
   46CHL1  H21C 3385   0.975   3.454   7.079
   46CHL1   C22 3386   0.757   3.580   7.322
   46CHL1  H22A 3387   0.728   3.684   7.350
   46CHL1  H22B 3388   0.663   3.523   7.304
   46CHL1   C23 3389   0.826   3.522   7.447
   46CHL1  H23A 3390   0.846   3.413   7.432
   46CHL1  H23B 3391   0.924   3.572   7.459
   46CHL1   C24 3392   0.743   3.542   7.575
   46CHL1  H24A 3393   0.742   3.650   7.601
   46CHL1  H24B 3394   0.639   3.512   7.554
   46CHL1   C25 3395   0.793   3.462   7.697
   46CHL1   H25 3396   0.801   3.356   7.665
   46CHL1   C26 3397   0.933   3.504   7.744
   46CHL1  H26A 3398   0.963   3.446   7.834
   46CHL1  H26B 3399   1.006   3.482   7.663
   46CHL1  H26C 3400   0.935   3.612   7.768
   46CHL1   C27 3401   0.693   3.467   7.814
   46CHL1  H27A 3402   0.681   3.572   7.850
   46CHL1  H27B 3403   0.594   3.428   7.782
   46CHL1  H27C 3404   0.729   3.405   7.899
   47CHL1    C3 3405   6.721   4.254   6.248
   47CHL1    H3 3406   6.662   4.161   6.260
   47CHL1    O3 3407   6.718   4.294   6.112
   47CHL1   H3' 3408   6.752   4.384   6.114
   47CHL1    C4 3409   6.659   4.366   6.335
   47CHL1   H4A 3410   6.711   4.461   6.312
   47CHL1   H4B 3411   6.554   4.379   6.304
   47CHL1    C5 3412   6.670   4.338   6.484
   47CHL1    C6 3413   6.563   4.340   6.566
   47CHL1    H6 3414   6.465   4.366   6.525
   47CHL1    C7 3415   6.572   4.322   6.715
   47CHL1   H7A 3416   6.511   4.400   6.767
   47CHL1   H7B 3417   6.530   4.223   6.743
   47CHL1    C8 3418   6.718   4.332   6.768
   47CHL1    H8 3419   6.747   4.439   6.765
   47CHL1   C14 3420   6.726   4.283   6.912
   47CHL1   H14 3421   6.692   4.178   6.910
   47CHL1   C15 3422   6.636   4.352   7.016
   47CHL1  H15A 3423   6.643   4.463   7.003
   47CHL1  H15B 3424   6.530   4.322   7.007
   47CHL1   C16 3425   6.698   4.311   7.150
   47CHL1  H16A 3426   6.709   4.401   7.214
   47CHL1  H16B 3427   6.633   4.238   7.203
   47CHL1   C17 3428   6.837   4.246   7.120
   47CHL1   H17 3429   6.822   4.136   7.123
   47CHL1   C13 3430   6.867   4.280   6.972
   47CHL1   C18 3431   6.928   4.421   6.968
   47CHL1  H18A 3432   7.032   4.421   7.006
   47CHL1  H18B 3433   6.931   4.463   6.865
   47CHL1  H18C 3434   6.868   4.490   7.031
   47CHL1   C12 3435   6.951   4.182   6.889
   47CHL1  H12A 3436   7.055   4.177   6.926
   47CHL1  H12B 3437   6.907   4.080   6.896
   47CHL1   C11 3438   6.953   4.224   6.740
   47CHL1  H11A 3439   7.016   4.316   6.733
   47CHL1  H11B 3440   7.005   4.145   6.682
   47CHL1    C9 3441   6.812   4.250   6.679
   47CHL1    H9 3442   6.766   4.149   6.675
   47CHL1   C10 3443   6.812   4.301   6.532
   47CHL1   C19 3444   6.896   4.431   6.525
   47CHL1  H19A 3445   7.002   4.413   6.553
   47CHL1  H19B 3446   6.897   4.474   6.422
   47CHL1  H19C 3447   6.853   4.508   6.593
   47CHL1    C1 3448   6.875   4.193   6.439
   47CHL1   H1A 3449   6.982   4.180   6.466
   47CHL1   H1B 3450   6.823   4.097   6.457
   47CHL1    C2 3451   6.866   4.227   6.289
   47CHL1   H2A 3452   6.907   4.143   6.229
   47CHL1   H2B 3453   6.928   4.317   6.269
   47CHL1   C20 3454   6.942   4.280   7.229
   47CHL1   H20 3455   6.955   4.390   7.233
   47CHL1   C21 3456   7.078   4.214   7.199
   47CHL1  H21A 3457   7.122   4.254   7.105
   47CHL1  H21B 3458   7.067   4.104   7.189
   47CHL1  H21C 3459   7.151   4.235   7.280
   47CHL1   C22 3460   6.892   4.235   7.370
   47CHL1  H22A 3461   6.791   4.279   7.388
   47CHL1  H22B 3462   6.882   4.125   7.367
   47CHL1   C23 3463   6.976   4.274   7.493
   47CHL1  H23A 3464   7.084   4.253   7.476
   47CHL1  H23B 3465   6.965   4.383   7.513
   47CHL1   C24 3466   6.929   4.192   7.615
   47CHL1  H24A 3467   6.819   4.200   7.621
   47CHL1  H24B 3468   6.955   4.085   7.597
   47CHL1   C25 3469   6.983   4.233   7.754
   47CHL1   H25 3470   6.955   4.151   7.824
   47CHL1   C26 3471   7.136   4.245   7.758
   47CHL1  H26A 3472   7.183   4.150   7.726
   47CHL1  H26B 3473   7.170   4.326   7.689
   47CHL1  H26C 3474   7.170   4.270   7.860
   47CHL1   C27 3475   6.912   4.359   7.806
   47CHL1  H27A 3476   6.949   4.385   7.908
   47CHL1  H27B 3477   6.931   4.445   7.738
   47CHL1  H27C 3478   6.803   4.343   7.812
   48CHL1    C3 3479   3.383   7.055   6.248
   48CHL1    H3 3480   3.447   6.965   6.249
   48CHL1    O3 3481   3.374   7.102   6.115
   48CHL1   H3' 3482   3.368   7.023   6.061
   48CHL1    C4 3483   3.242   7.022   6.303
   48CHL1   H4A 3484   3.177   7.110   6.285
   48CHL1   H4B 3485   3.199   6.940   6.241
   48CHL1    C5 3486   3.241   6.986   6.451
   48CHL1    C6 3487   3.186   6.873   6.498
   48CHL1    H6 3488   3.137   6.803   6.428
   48CHL1    C7 3489   3.183   6.838   6.643
   48CHL1   H7A 3490   3.088   6.786   6.670
   48CHL1   H7B 3491   3.268   6.769   6.664
   48CHL1    C8 3492   3.205   6.959   6.737
   48CHL1    H8 3493   3.115   7.024   6.730
   48CHL1   C14 3494   3.224   6.915   6.882
   48CHL1   H14 3495   3.318   6.856   6.883
   48CHL1   C15 3496   3.118   6.822   6.945
   48CHL1  H15A 3497   3.016   6.843   6.904
   48CHL1  H15B 3498   3.145   6.716   6.925
   48CHL1   C16 3499   3.123   6.855   7.095
   48CHL1  H16A 3500   3.031   6.911   7.122
   48CHL1  H16B 3501   3.126   6.767   7.162
   48CHL1   C17 3502   3.245   6.950   7.114
   48CHL1   H17 3503   3.337   6.887   7.113
   48CHL1   C13 3504   3.246   7.029   6.981
   48CHL1   C18 3505   3.124   7.123   6.979
   48CHL1  H18A 3506   3.127   7.193   7.065
   48CHL1  H18B 3507   3.124   7.184   6.887
   48CHL1  H18C 3508   3.027   7.068   6.981
   48CHL1   C12 3509   3.374   7.101   6.939
   48CHL1  H12A 3510   3.395   7.191   7.001
   48CHL1  H12B 3511   3.457   7.029   6.951
   48CHL1   C11 3512   3.369   7.148   6.792
   48CHL1  H11A 3513   3.298   7.233   6.789
   48CHL1  H11B 3514   3.469   7.186   6.765
   48CHL1    C9 3515   3.328   7.037   6.690
   48CHL1    H9 3516   3.412   6.963   6.692
   48CHL1   C10 3517   3.316   7.085   6.543
   48CHL1   C19 3518   3.236   7.217   6.546
   48CHL1  H19A 3519   3.296   7.300   6.589
   48CHL1  H19B 3520   3.203   7.250   6.445
   48CHL1  H19C 3521   3.146   7.204   6.610
   48CHL1    C1 3522   3.456   7.111   6.481
   48CHL1   H1A 3523   3.508   7.187   6.542
   48CHL1   H1B 3524   3.516   7.017   6.486
   48CHL1    C2 3525   3.451   7.160   6.335
   48CHL1   H2A 3526   3.554   7.180   6.298
   48CHL1   H2B 3527   3.393   7.255   6.329
   48CHL1   C20 3528   3.242   7.023   7.250
   48CHL1   H20 3529   3.140   7.066   7.263
   48CHL1   C21 3530   3.340   7.142   7.253
   48CHL1  H21A 3531   3.443   7.110   7.226
   48CHL1  H21B 3532   3.343   7.188   7.354
   48CHL1  H21C 3533   3.307   7.221   7.183
   48CHL1   C22 3534   3.268   6.926   7.369
   48CHL1  H22A 3535   3.193   6.844   7.365
   48CHL1  H22B 3536   3.369   6.881   7.357
   48CHL1   C23 3537   3.260   6.992   7.508
   48CHL1  H23A 3538   3.344   7.063   7.522
   48CHL1  H23B 3539   3.166   7.050   7.509
   48CHL1   C24 3540   3.261   6.892   7.625
   48CHL1  H24A 3541   3.179   6.818   7.611
   48CHL1  H24B 3542   3.357   6.835   7.622
   48CHL1   C25 3543   3.246   6.958   7.765
   48CHL1   H25 3544   3.343   7.008   7.789
   48CHL1   C26 3545   3.137   7.064   7.766
   48CHL1  H26A 3546   3.127   7.109   7.867
   48CHL1  H26B 3547   3.164   7.145   7.694
   48CHL1  H26C 3548   3.039   7.021   7.737
   48CHL1   C27 3549   3.212   6.860   7.877
   48CHL1  H27A 3550   3.103   6.840   7.875
   48CHL1  H27B 3551   3.265   6.763   7.867
   48CHL1  H27C 3552   3.236   6.904   7.976
   49CHL1    C3 3553   1.972   0.471   6.268
   49CHL1    H3 3554   1.900   0.556   6.271
   49CHL1    O3 3555   2.019   0.454   6.135
   49CHL1   H3' 3556   1.965   0.512   6.080
   49CHL1    C4 3557   2.092   0.503   6.359
   49CHL1   H4A 3558   2.166   0.421   6.351
   49CHL1   H4B 3559   2.141   0.595   6.319
   49CHL1    C5 3560   2.048   0.520   6.503
   49CHL1    C6 3561   2.071   0.635   6.568
   49CHL1    H6 3562   2.127   0.715   6.519
   49CHL1    C7 3563   2.028   0.661   6.709
   49CHL1   H7A 3564   2.106   0.718   6.764
   49CHL1   H7B 3565   1.935   0.722   6.707
   49CHL1    C8 3566   1.995   0.531   6.786
   49CHL1    H8 3567   2.091   0.480   6.806
   49CHL1   C14 3568   1.926   0.566   6.917
   49CHL1   H14 3569   1.829   0.613   6.890
   49CHL1   C15 3570   1.995   0.666   7.009
   49CHL1  H15A 3571   2.103   0.640   7.019
   49CHL1  H15B 3572   1.988   0.771   6.973
   49CHL1   C16 3573   1.923   0.648   7.143
   49CHL1  H16A 3574   2.000   0.639   7.223
   49CHL1  H16B 3575   1.856   0.733   7.166
   49CHL1   C17 3576   1.839   0.517   7.131
   49CHL1   H17 3577   1.734   0.548   7.111
   49CHL1   C13 3578   1.891   0.446   7.004
   49CHL1   C18 3579   2.019   0.366   7.040
   49CHL1  H18A 3580   2.090   0.428   7.098
   49CHL1  H18B 3581   1.993   0.277   7.101
   49CHL1  H18C 3582   2.071   0.329   6.949
   49CHL1   C12 3583   1.790   0.361   6.922
   49CHL1  H12A 3584   1.762   0.268   6.977
   49CHL1  H12B 3585   1.698   0.420   6.906
   49CHL1   C11 3586   1.849   0.320   6.785
   49CHL1  H11A 3587   1.930   0.247   6.805
   49CHL1  H11B 3588   1.771   0.267   6.727
   49CHL1    C9 3589   1.904   0.440   6.702
   49CHL1    H9 3590   1.815   0.502   6.679
   49CHL1   C10 3591   1.968   0.403   6.564
   49CHL1   C19 3592   2.069   0.288   6.586
   49CHL1  H19A 3593   2.016   0.196   6.619
   49CHL1  H19B 3594   2.123   0.261   6.492
   49CHL1  H19C 3595   2.143   0.316   6.663
   49CHL1    C1 3596   1.856   0.359   6.464
   49CHL1   H1A 3597   1.813   0.263   6.499
   49CHL1   H1B 3598   1.775   0.435   6.467
   49CHL1    C2 3599   1.902   0.344   6.318
   49CHL1   H2A 3600   1.815   0.321   6.253
   49CHL1   H2B 3601   1.973   0.259   6.311
   49CHL1   C20 3602   1.840   0.438   7.263
   49CHL1   H20 3603   1.943   0.401   7.281
   49CHL1   C21 3604   1.747   0.316   7.253
   49CHL1  H21A 3605   1.739   0.264   7.351
   49CHL1  H21B 3606   1.786   0.242   7.180
   49CHL1  H21C 3607   1.645   0.348   7.221
   49CHL1   C22 3608   1.803   0.522   7.388
   49CHL1  H22A 3609   1.856   0.619   7.387
   49CHL1  H22B 3610   1.694   0.542   7.390
   49CHL1   C23 3611   1.848   0.448   7.514
   49CHL1  H23A 3612   1.776   0.368   7.538
   49CHL1  H23B 3613   1.946   0.400   7.493
   49CHL1   C24 3614   1.868   0.538   7.636
   49CHL1  H24A 3615   1.920   0.632   7.606
   49CHL1  H24B 3616   1.769   0.566   7.678
   49CHL1   C25 3617   1.954   0.470   7.744
   49CHL1   H25 3618   2.058   0.461   7.707
   49CHL1   C26 3619   1.955   0.555   7.871
   49CHL1  H26A 3620   2.001   0.654   7.851
   49CHL1  H26B 3621   1.852   0.570   7.909
   49CHL1  H26C 3622   2.014   0.505   7.951
   49CHL1   C27 3623   1.902   0.329   7.775
   49CHL1  H27A 3624   1.924   0.259   7.692
   49CHL1  H27B 3625   1.946   0.288   7.868
   49CHL1  H27C 3626   1.792   0.335   7.786
   50CHL1    C3 3627   1.331   6.513   6.272
   50CHL1    H3 3628   1.234   6.459   6.279
   50CHL1    O3 3629   1.362   6.537   6.135
   50CHL1   H3' 3630   1.407   6.458   6.105
   50CHL1    C4 3631   1.320   6.647   6.347
   50CHL1   H4A 3632   1.411   6.707   6.326
   50CHL1   H4B 3633   1.235   6.703   6.303
   50CHL1    C5 3634   1.303   6.629   6.497
   50CHL1    C6 3635   1.199   6.681   6.562
   50CHL1    H6 3636   1.126   6.742   6.506
   50CHL1    C7 3637   1.180   6.670   6.710
   50CHL1   H7A 3638   1.158   6.771   6.751
   50CHL1   H7B 3639   1.093   6.604   6.730
   50CHL1    C8 3640   1.302   6.616   6.788
   50CHL1    H8 3641   1.375   6.699   6.799
   50CHL1   C14 3642   1.259   6.565   6.925
   50CHL1   H14 3643   1.197   6.476   6.905
   50CHL1   C15 3644   1.167   6.655   7.009
   50CHL1  H15A 3645   1.192   6.762   7.000
   50CHL1  H15B 3646   1.062   6.638   6.976
   50CHL1   C16 3647   1.186   6.606   7.153
   50CHL1  H16A 3648   1.227   6.689   7.213
   50CHL1  H16B 3649   1.090   6.573   7.198
   50CHL1   C17 3650   1.289   6.489   7.146
   50CHL1   H17 3651   1.231   6.396   7.126
   50CHL1   C13 3652   1.371   6.515   7.017
   50CHL1   C18 3653   1.475   6.625   7.047
   50CHL1  H18A 3654   1.522   6.664   6.954
   50CHL1  H18B 3655   1.430   6.711   7.102
   50CHL1  H18C 3656   1.557   6.584   7.110
   50CHL1   C12 3657   1.434   6.395   6.944
   50CHL1  H12A 3658   1.523   6.357   6.999
   50CHL1  H12B 3659   1.359   6.313   6.938
   50CHL1   C11 3660   1.477   6.433   6.800
   50CHL1  H11A 3661   1.566   6.500   6.808
   50CHL1  H11B 3662   1.509   6.339   6.749
   50CHL1    C9 3663   1.367   6.501   6.713
   50CHL1    H9 3664   1.287   6.425   6.702
   50CHL1   C10 3665   1.407   6.540   6.567
   50CHL1   C19 3666   1.538   6.623   6.571
   50CHL1  H19A 3667   1.622   6.564   6.615
   50CHL1  H19B 3668   1.570   6.655   6.470
   50CHL1  H19C 3669   1.525   6.714   6.633
   50CHL1    C1 3670   1.423   6.410   6.483
   50CHL1   H1A 3671   1.512   6.356   6.523
   50CHL1   H1B 3672   1.334   6.346   6.499
   50CHL1    C2 3673   1.443   6.429   6.332
   50CHL1   H2A 3674   1.447   6.330   6.282
   50CHL1   H2B 3675   1.539   6.481   6.314
   50CHL1   C20 3676   1.357   6.469   7.283
   50CHL1   H20 3677   1.413   6.562   7.310
   50CHL1   C21 3678   1.458   6.353   7.277
   50CHL1  H21A 3679   1.407   6.259   7.248
   50CHL1  H21B 3680   1.507   6.337   7.376
   50CHL1  H21C 3681   1.540   6.374   7.205
   50CHL1   C22 3682   1.249   6.445   7.392
   50CHL1  H22A 3683   1.182   6.534   7.399
   50CHL1  H22B 3684   1.187   6.358   7.362
   50CHL1   C23 3685   1.299   6.420   7.535
   50CHL1  H23A 3686   1.372   6.336   7.537
   50CHL1  H23B 3687   1.350   6.512   7.572
   50CHL1   C24 3688   1.184   6.387   7.632
   50CHL1  H24A 3689   1.122   6.478   7.645
   50CHL1  H24B 3690   1.121   6.309   7.585
   50CHL1   C25 3691   1.232   6.335   7.769
   50CHL1   H25 3692   1.312   6.261   7.751
   50CHL1   C26 3693   1.289   6.448   7.856
   50CHL1  H26A 3694   1.211   6.524   7.876
   50CHL1  H26B 3695   1.326   6.408   7.953
   50CHL1  H26C 3696   1.372   6.499   7.804
   50CHL1   C27 3697   1.118   6.264   7.843
   50CHL1  H27A 3698   1.037   6.336   7.866
   50CHL1  H27B 3699   1.076   6.181   7.781
   50CHL1  H27C 3700   1.155   6.221   7.939
   51CHL1    C3 3701   1.913   7.034   6.208
   51CHL1    H3 3702   1.916   7.145   6.213
   51CHL1    O3 3703   1.852   6.993   6.087
   51CHL1   H3' 3704   1.915   7.014   6.018
   51CHL1    C4 3705   2.057   6.979   6.209
   51CHL1   H4A 3706   2.053   6.871   6.186
   51CHL1   H4B 3707   2.112   7.027   6.125
   51CHL1    C5 3708   2.127   6.998   6.341
   51CHL1    C6 3709   2.249   7.054   6.347
   51CHL1    H6 3710   2.298   7.088   6.255
   51CHL1    C7 3711   2.329   7.060   6.473
   51CHL1   H7A 3712   2.434   7.031   6.452
   51CHL1   H7B 3713   2.329   7.164   6.513
   51CHL1    C8 3714   2.270   6.965   6.582
   51CHL1    H8 3715   2.289   6.860   6.553
   51CHL1   C14 3716   2.344   6.987   6.710
   51CHL1   H14 3717   2.340   7.097   6.728
   51CHL1   C15 3718   2.491   6.948   6.705
   51CHL1  H15A 3719   2.501   6.841   6.676
   51CHL1  H15B 3720   2.547   7.008   6.630
   51CHL1   C16 3721   2.533   6.969   6.849
   51CHL1  H16A 3722   2.598   6.885   6.879
   51CHL1  H16B 3723   2.588   7.065   6.865
   51CHL1   C17 3724   2.402   6.977   6.931
   51CHL1   H17 3725   2.378   7.085   6.946
   51CHL1   C13 3726   2.291   6.923   6.838
   51CHL1   C18 3727   2.300   6.768   6.834
   51CHL1  H18A 3728   2.257   6.728   6.740
   51CHL1  H18B 3729   2.404   6.732   6.844
   51CHL1  H18C 3730   2.242   6.725   6.919
   51CHL1   C12 3731   2.145   6.969   6.856
   51CHL1  H12A 3732   2.101   6.921   6.946
   51CHL1  H12B 3733   2.143   7.079   6.871
   51CHL1   C11 3734   2.062   6.933   6.731
   51CHL1  H11A 3735   2.056   6.822   6.725
   51CHL1  H11B 3736   1.958   6.971   6.744
   51CHL1    C9 3737   2.121   6.991   6.598
   51CHL1    H9 3738   2.110   7.101   6.608
   51CHL1   C10 3739   2.049   6.950   6.466
   51CHL1   C19 3740   2.042   6.797   6.460
   51CHL1  H19A 3741   2.142   6.750   6.468
   51CHL1  H19B 3742   1.979   6.755   6.543
   51CHL1  H19C 3743   1.997   6.761   6.365
   51CHL1    C1 3744   1.905   7.008   6.461
   51CHL1   H1A 3745   1.845   6.963   6.544
   51CHL1   H1B 3746   1.909   7.118   6.479
   51CHL1    C2 3747   1.832   6.982   6.328
   51CHL1   H2A 3748   1.732   7.031   6.329
   51CHL1   H2B 3749   1.815   6.873   6.315
   51CHL1   C20 3750   2.428   6.922   7.069
   51CHL1   H20 3751   2.471   6.820   7.059
   51CHL1   C21 3752   2.298   6.906   7.151
   51CHL1  H21A 3753   2.228   6.992   7.136
   51CHL1  H21B 3754   2.320   6.896   7.259
   51CHL1  H21C 3755   2.244   6.814   7.119
   51CHL1   C22 3756   2.535   7.011   7.141
   51CHL1  H22A 3757   2.517   7.119   7.122
   51CHL1  H22B 3758   2.516   6.994   7.250
   51CHL1   C23 3759   2.684   6.976   7.119
   51CHL1  H23A 3760   2.689   6.871   7.085
   51CHL1  H23B 3761   2.727   7.038   7.037
   51CHL1   C24 3762   2.773   6.987   7.244
   51CHL1  H24A 3763   2.715   6.957   7.334
   51CHL1  H24B 3764   2.853   6.911   7.235
   51CHL1   C25 3765   2.844   7.122   7.271
   51CHL1   H25 3766   2.918   7.136   7.189
   51CHL1   C26 3767   2.752   7.245   7.272
   51CHL1  H26A 3768   2.699   7.257   7.175
   51CHL1  H26B 3769   2.676   7.238   7.353
   51CHL1  H26C 3770   2.811   7.337   7.292
   51CHL1   C27 3771   2.921   7.113   7.403
   51CHL1  H27A 3772   2.986   7.203   7.416
   51CHL1  H27B 3773   2.852   7.107   7.489
   51CHL1  H27C 3774   2.984   7.022   7.404
   52CHL1    C3 3775   5.303   0.295   6.244
   52CHL1    H3 3776   5.201   0.278   6.285
   52CHL1    O3 3777   5.302   0.268   6.104
   52CHL1   H3' 3778   5.218   0.303   6.072
   52CHL1    C4 3779   5.346   0.441   6.265
   52CHL1   H4A 3780   5.445   0.454   6.217
   52CHL1   H4B 3781   5.273   0.506   6.211
   52CHL1    C5 3782   5.358   0.480   6.410
   52CHL1    C6 3783   5.297   0.588   6.460
   52CHL1    H6 3784   5.237   0.651   6.393
   52CHL1    C7 3785   5.310   0.632   6.602
   52CHL1   H7A 3786   5.327   0.742   6.610
   52CHL1   H7B 3787   5.213   0.607   6.651
   52CHL1    C8 3788   5.420   0.559   6.684
   52CHL1    H8 3789   5.520   0.600   6.657
   52CHL1   C14 3790   5.398   0.582   6.833
   52CHL1   H14 3791   5.291   0.552   6.848
   52CHL1   C15 3792   5.411   0.725   6.888
   52CHL1  H15A 3793   5.505   0.771   6.852
   52CHL1  H15B 3794   5.325   0.788   6.854
   52CHL1   C16 3795   5.416   0.705   7.041
   52CHL1  H16A 3796   5.512   0.745   7.081
   52CHL1  H16B 3797   5.335   0.757   7.095
   52CHL1   C17 3798   5.411   0.550   7.061
   52CHL1   H17 3799   5.304   0.522   7.056
   52CHL1   C13 3800   5.477   0.496   6.931
   52CHL1   C18 3801   5.628   0.533   6.930
   52CHL1  H18A 3802   5.650   0.634   6.971
   52CHL1  H18B 3803   5.685   0.460   6.991
   52CHL1  H18C 3804   5.667   0.531   6.827
   52CHL1   C12 3805   5.460   0.349   6.892
   52CHL1  H12A 3806   5.526   0.285   6.955
   52CHL1  H12B 3807   5.354   0.318   6.909
   52CHL1   C11 3808   5.497   0.323   6.746
   52CHL1  H11A 3809   5.605   0.346   6.732
   52CHL1  H11B 3810   5.483   0.215   6.723
   52CHL1    C9 3811   5.413   0.410   6.649
   52CHL1    H9 3812   5.308   0.379   6.668
   52CHL1   C10 3813   5.438   0.384   6.498
   52CHL1   C19 3814   5.585   0.413   6.465
   52CHL1  H19A 3815   5.649   0.345   6.526
   52CHL1  H19B 3816   5.609   0.393   6.358
   52CHL1  H19C 3817   5.615   0.518   6.488
   52CHL1    C1 3818   5.407   0.235   6.465
   52CHL1   H1A 3819   5.486   0.172   6.511
   52CHL1   H1B 3820   5.309   0.208   6.511
   52CHL1    C2 3821   5.401   0.201   6.315
   52CHL1   H2A 3822   5.369   0.096   6.302
   52CHL1   H2B 3823   5.502   0.213   6.271
   52CHL1   C20 3824   5.458   0.502   7.198
   52CHL1   H20 3825   5.564   0.530   7.213
   52CHL1   C21 3826   5.443   0.349   7.200
   52CHL1  H21A 3827   5.535   0.300   7.161
   52CHL1  H21B 3828   5.355   0.317   7.141
   52CHL1  H21C 3829   5.425   0.312   7.304
   52CHL1   C22 3830   5.376   0.557   7.319
   52CHL1  H22A 3831   5.349   0.663   7.305
   52CHL1  H22B 3832   5.281   0.499   7.326
   52CHL1   C23 3833   5.454   0.544   7.451
   52CHL1  H23A 3834   5.539   0.474   7.433
   52CHL1  H23B 3835   5.506   0.641   7.471
   52CHL1   C24 3836   5.377   0.493   7.576
   52CHL1  H24A 3837   5.307   0.570   7.613
   52CHL1  H24B 3838   5.318   0.404   7.545
   52CHL1   C25 3839   5.471   0.446   7.691
   52CHL1   H25 3840   5.539   0.371   7.644
   52CHL1   C26 3841   5.560   0.556   7.749
   52CHL1  H26A 3842   5.630   0.513   7.824
   52CHL1  H26B 3843   5.620   0.606   7.670
   52CHL1  H26C 3844   5.496   0.631   7.800
   52CHL1   C27 3845   5.401   0.371   7.805
   52CHL1  H27A 3846   5.332   0.293   7.766
   52CHL1  H27B 3847   5.476   0.323   7.870
   52CHL1  H27C 3848   5.345   0.443   7.870
   53CHL1    C3 3849   6.623   5.951   6.243
   53CHL1    H3 3850   6.546   5.871   6.240
   53CHL1    O3 3851   6.652   5.992   6.110
   53CHL1   H3' 3852   6.656   6.088   6.118
   53CHL1    C4 3853   6.570   6.073   6.320
   53CHL1   H4A 3854   6.641   6.157   6.305
   53CHL1   H4B 3855   6.474   6.104   6.272
   53CHL1    C5 3856   6.552   6.046   6.468
   53CHL1    C6 3857   6.434   6.063   6.529
   53CHL1    H6 3858   6.348   6.099   6.472
   53CHL1    C7 3859   6.415   6.044   6.677
   53CHL1   H7A 3860   6.350   6.123   6.720
   53CHL1   H7B 3861   6.368   5.945   6.696
   53CHL1    C8 3862   6.547   6.044   6.755
   53CHL1    H8 3863   6.587   6.148   6.752
   53CHL1   C14 3864   6.523   6.003   6.900
   53CHL1   H14 3865   6.489   5.898   6.898
   53CHL1   C15 3866   6.415   6.078   6.980
   53CHL1  H15A 3867   6.419   6.187   6.957
   53CHL1  H15B 3868   6.313   6.040   6.957
   53CHL1   C16 3869   6.453   6.056   7.127
   53CHL1  H16A 3870   6.464   6.156   7.174
   53CHL1  H16B 3871   6.375   5.999   7.183
   53CHL1   C17 3872   6.589   5.979   7.128
   53CHL1   H17 3873   6.564   5.871   7.133
   53CHL1   C13 3874   6.648   6.005   6.987
   53CHL1   C18 3875   6.712   6.146   6.988
   53CHL1  H18A 3876   6.734   6.184   6.886
   53CHL1  H18B 3877   6.646   6.221   7.037
   53CHL1  H18C 3878   6.809   6.144   7.042
   53CHL1   C12 3879   6.743   5.899   6.926
   53CHL1  H12A 3880   6.839   5.894   6.982
   53CHL1  H12B 3881   6.695   5.799   6.931
   53CHL1   C11 3882   6.773   5.934   6.778
   53CHL1  H11A 3883   6.833   6.028   6.780
   53CHL1  H11B 3884   6.839   5.858   6.731
   53CHL1    C9 3885   6.648   5.952   6.689
   53CHL1    H9 3886   6.599   5.852   6.684
   53CHL1   C10 3887   6.677   5.993   6.541
   53CHL1   C19 3888   6.785   6.104   6.541
   53CHL1  H19A 3889   6.805   6.145   6.439
   53CHL1  H19B 3890   6.756   6.188   6.607
   53CHL1  H19C 3891   6.882   6.063   6.576
   53CHL1    C1 3892   6.728   5.870   6.460
   53CHL1   H1A 3893   6.824   5.834   6.504
   53CHL1   H1B 3894   6.655   5.787   6.470
   53CHL1    C2 3895   6.750   5.896   6.309
   53CHL1   H2A 3896   6.780   5.802   6.259
   53CHL1   H2B 3897   6.833   5.969   6.297
   53CHL1   C20 3898   6.676   6.015   7.249
   53CHL1   H20 3899   6.718   6.116   7.233
   53CHL1   C21 3900   6.794   5.916   7.258
   53CHL1  H21A 3901   6.761   5.811   7.244
   53CHL1  H21B 3902   6.848   5.924   7.355
   53CHL1  H21C 3903   6.869   5.940   7.180
   53CHL1   C22 3904   6.596   6.032   7.382
   53CHL1  H22A 3905   6.541   6.129   7.375
   53CHL1  H22B 3906   6.519   5.953   7.394
   53CHL1   C23 3907   6.682   6.040   7.509
   53CHL1  H23A 3908   6.715   5.938   7.539
   53CHL1  H23B 3909   6.773   6.099   7.488
   53CHL1   C24 3910   6.607   6.108   7.624
   53CHL1  H24A 3911   6.588   6.214   7.598
   53CHL1  H24B 3912   6.508   6.058   7.636
   53CHL1   C25 3913   6.678   6.102   7.761
   53CHL1   H25 3914   6.687   5.996   7.790
   53CHL1   C26 3915   6.818   6.165   7.766
   53CHL1  H26A 3916   6.885   6.123   7.687
   53CHL1  H26B 3917   6.810   6.275   7.754
   53CHL1  H26C 3918   6.864   6.146   7.865
   53CHL1   C27 3919   6.592   6.178   7.862
   53CHL1  H27A 3920   6.634   6.168   7.965
   53CHL1  H27B 3921   6.593   6.285   7.834
   53CHL1  H27C 3922   6.487   6.143   7.860
   54CHL1    C3 3923   0.668   6.110   6.253
   54CHL1    H3 3924   0.672   6.220   6.269
   54CHL1    O3 3925   0.681   6.084   6.114
   54CHL1   H3' 3926   0.593   6.099   6.080
   54CHL1    C4 3927   0.780   6.041   6.332
   54CHL1   H4A 3928   0.776   5.932   6.313
   54CHL1   H4B 3929   0.878   6.076   6.291
   54CHL1    C5 3930   0.766   6.071   6.480
   54CHL1    C6 3931   0.863   6.134   6.548
   54CHL1    H6 3932   0.957   6.160   6.497
   54CHL1    C7 3933   0.856   6.165   6.695
   54CHL1   H7A 3934   0.951   6.140   6.745
   54CHL1   H7B 3935   0.838   6.273   6.709
   54CHL1    C8 3936   0.742   6.086   6.765
   54CHL1    H8 3937   0.775   5.980   6.770
   54CHL1   C14 3938   0.720   6.138   6.906
   54CHL1   H14 3939   0.689   6.245   6.896
   54CHL1   C15 3940   0.843   6.139   6.998
   54CHL1  H15A 3941   0.896   6.042   6.986
   54CHL1  H15B 3942   0.913   6.222   6.975
   54CHL1   C16 3943   0.783   6.148   7.138
   54CHL1  H16A 3944   0.832   6.071   7.201
   54CHL1  H16B 3945   0.801   6.248   7.184
   54CHL1   C17 3946   0.629   6.122   7.126
   54CHL1   H17 3947   0.579   6.221   7.130
   54CHL1   C13 3948   0.609   6.068   6.983
   54CHL1   C18 3949   0.636   5.916   6.989
   54CHL1  H18A 3950   0.553   5.862   7.040
   54CHL1  H18B 3951   0.640   5.876   6.885
   54CHL1  H18C 3952   0.731   5.892   7.039
   54CHL1   C12 3953   0.478   6.099   6.909
   54CHL1  H12A 3954   0.391   6.052   6.959
   54CHL1  H12B 3955   0.462   6.209   6.909
   54CHL1   C11 3956   0.484   6.050   6.762
   54CHL1  H11A 3957   0.478   5.939   6.765
   54CHL1  H11B 3958   0.393   6.085   6.709
   54CHL1    C9 3959   0.612   6.095   6.684
   54CHL1    H9 3960   0.597   6.204   6.669
   54CHL1   C10 3961   0.629   6.034   6.541
   54CHL1   C19 3962   0.623   5.879   6.550
   54CHL1  H19A 3963   0.701   5.840   6.619
   54CHL1  H19B 3964   0.523   5.845   6.586
   54CHL1  H19C 3965   0.638   5.832   6.451
   54CHL1    C1 3966   0.513   6.086   6.451
   54CHL1   H1A 3967   0.418   6.041   6.485
   54CHL1   H1B 3968   0.505   6.196   6.464
   54CHL1    C2 3969   0.532   6.058   6.300
   54CHL1   H2A 3970   0.449   6.106   6.244
   54CHL1   H2B 3971   0.526   5.948   6.283
   54CHL1   C20 3972   0.577   6.038   7.244
   54CHL1   H20 3973   0.625   5.937   7.241
   54CHL1   C21 3974   0.424   6.018   7.237
   54CHL1  H21A 3975   0.372   6.116   7.234
   54CHL1  H21B 3976   0.387   5.962   7.326
   54CHL1  H21C 3977   0.395   5.959   7.147
   54CHL1   C22 3978   0.619   6.099   7.380
   54CHL1  H22A 3979   0.727   6.121   7.382
   54CHL1  H22B 3980   0.566   6.196   7.393
   54CHL1   C23 3981   0.594   6.009   7.501
   54CHL1  H23A 3982   0.485   5.992   7.514
   54CHL1  H23B 3983   0.642   5.910   7.485
   54CHL1   C24 3984   0.649   6.076   7.626
   54CHL1  H24A 3985   0.759   6.089   7.617
   54CHL1  H24B 3986   0.605   6.177   7.630
   54CHL1   C25 3987   0.617   6.001   7.756
   54CHL1   H25 3988   0.530   5.934   7.738
   54CHL1   C26 3989   0.735   5.915   7.803
   54CHL1  H26A 3990   0.711   5.867   7.900
   54CHL1  H26B 3991   0.758   5.836   7.729
   54CHL1  H26C 3992   0.825   5.978   7.818
   54CHL1   C27 3993   0.576   6.101   7.864
   54CHL1  H27A 3994   0.606   6.204   7.834
   54CHL1  H27B 3995   0.466   6.104   7.876
   54CHL1  H27C 3996   0.621   6.075   7.962
   55CHL1    C3 3997   0.246   1.622   6.271
   55CHL1    H3 3998   0.236   1.515   6.301
   55CHL1    O3 3999   0.251   1.628   6.129
   55CHL1   H3' 4000   0.286   1.543   6.102
   55CHL1    C4 4001   0.126   1.697   6.325
   55CHL1   H4A 4002   0.126   1.801   6.286
   55CHL1   H4B 4003   0.040   1.641   6.281
   55CHL1    C5 4004   0.116   1.697   6.477
   55CHL1    C6 4005   0.007   1.655   6.540
   55CHL1    H6 4006  -0.082   1.622   6.484
   55CHL1    C7 4007  -0.004   1.652   6.690
   55CHL1   H7A 4008  -0.098   1.699   6.724
   55CHL1   H7B 4009  -0.001   1.546   6.721
   55CHL1    C8 4010   0.111   1.717   6.768
   55CHL1    H8 4011   0.095   1.827   6.772
   55CHL1   C14 4012   0.111   1.657   6.907
   55CHL1   H14 4013   0.128   1.548   6.895
   55CHL1   C15 4014  -0.019   1.670   6.988
   55CHL1  H15A 4015  -0.056   1.774   6.977
   55CHL1  H15B 4016  -0.098   1.600   6.954
   55CHL1   C16 4017   0.026   1.644   7.132
   55CHL1  H16A 4018  -0.006   1.729   7.195
   55CHL1  H16B 4019  -0.019   1.550   7.172
   55CHL1   C17 4020   0.182   1.633   7.129
   55CHL1   H17 4021   0.205   1.526   7.115
   55CHL1   C13 4022   0.223   1.705   6.998
   55CHL1   C18 4023   0.215   1.857   7.019
   55CHL1  H18A 4024   0.217   1.913   6.923
   55CHL1  H18B 4025   0.124   1.888   7.075
   55CHL1  H18C 4026   0.305   1.888   7.076
   55CHL1   C12 4027   0.356   1.668   6.931
   55CHL1  H12A 4028   0.440   1.710   6.989
   55CHL1  H12B 4029   0.364   1.558   6.927
   55CHL1   C11 4030   0.365   1.725   6.787
   55CHL1  H11A 4031   0.374   1.836   6.794
   55CHL1  H11B 4032   0.459   1.688   6.741
   55CHL1    C9 4033   0.243   1.686   6.700
   55CHL1    H9 4034   0.248   1.575   6.695
   55CHL1   C10 4035   0.244   1.735   6.553
   55CHL1   C19 4036   0.246   1.890   6.549
   55CHL1  H19A 4037   0.268   1.927   6.446
   55CHL1  H19B 4038   0.149   1.932   6.580
   55CHL1  H19C 4039   0.322   1.932   6.618
   55CHL1    C1 4040   0.364   1.667   6.483
   55CHL1   H1A 4041   0.460   1.698   6.530
   55CHL1   H1B 4042   0.354   1.558   6.502
   55CHL1    C2 4043   0.371   1.684   6.330
   55CHL1   H2A 4044   0.462   1.635   6.289
   55CHL1   H2B 4045   0.374   1.792   6.303
   55CHL1   C20 4046   0.247   1.676   7.261
   55CHL1   H20 4047   0.244   1.787   7.270
   55CHL1   C21 4048   0.393   1.630   7.262
   55CHL1  H21A 4049   0.455   1.689   7.191
   55CHL1  H21B 4050   0.399   1.522   7.235
   55CHL1  H21C 4051   0.439   1.642   7.363
   55CHL1   C22 4052   0.176   1.621   7.387
   55CHL1  H22A 4053   0.065   1.626   7.378
   55CHL1  H22B 4054   0.202   1.513   7.399
   55CHL1   C23 4055   0.211   1.698   7.515
   55CHL1  H23A 4056   0.320   1.698   7.533
   55CHL1  H23B 4057   0.180   1.804   7.502
   55CHL1   C24 4058   0.139   1.640   7.637
   55CHL1  H24A 4059   0.033   1.619   7.610
   55CHL1  H24B 4060   0.186   1.542   7.663
   55CHL1   C25 4061   0.138   1.731   7.761
   55CHL1   H25 4062   0.072   1.818   7.739
   55CHL1   C26 4063   0.076   1.653   7.878
   55CHL1  H26A 4064   0.069   1.714   7.970
   55CHL1  H26B 4065  -0.026   1.621   7.849
   55CHL1  H26C 4066   0.137   1.562   7.900
   55CHL1   C27 4067   0.276   1.786   7.800
   55CHL1  H27A 4068   0.267   1.856   7.886
   55CHL1  H27B 4069   0.343   1.703   7.830
   55CHL1  H27C 4070   0.322   1.842   7.716
   56CHL1    C3 4071   7.314   7.231   6.275
   56CHL1    H3 4072   7.217   7.183   6.298
   56CHL1    O3 4073   7.342   7.216   6.136
   56CHL1   H3' 4074   7.328   7.122   6.120
   56CHL1    C4 4075   7.304   7.380   6.309
   56CHL1   H4A 4076   7.394   7.433   6.271
   56CHL1   H4B 4077   7.218   7.423   6.253
   56CHL1    C5 4078   7.291   7.404   6.459
   56CHL1    C6 4079   7.190   7.475   6.511
   56CHL1    H6 4080   7.113   7.517   6.445
   56CHL1    C7 4081   7.180   7.514   6.656
   56CHL1   H7A 4082   7.162   7.623   6.663
   56CHL1   H7B 4083   7.096   7.460   6.705
   56CHL1    C8 4084   7.311   7.488   6.732
   56CHL1    H8 4085   7.383   7.566   6.699
   56CHL1   C14 4086   7.290   7.501   6.883
   56CHL1   H14 4087   7.218   7.421   6.911
   56CHL1   C15 4088   7.229   7.632   6.936
   56CHL1  H15A 4089   7.281   7.718   6.888
   56CHL1  H15B 4090   7.120   7.639   6.916
   56CHL1   C16 4091   7.261   7.628   7.086
   56CHL1  H16A 4092   7.302   7.727   7.116
   56CHL1  H16B 4093   7.170   7.606   7.146
   56CHL1   C17 4094   7.367   7.515   7.108
   56CHL1   H17 4095   7.312   7.426   7.145
   56CHL1   C13 4096   7.416   7.477   6.966
   56CHL1   C18 4097   7.527   7.576   6.926
   56CHL1  H18A 4098   7.620   7.554   6.982
   56CHL1  H18B 4099   7.551   7.566   6.818
   56CHL1  H18C 4100   7.498   7.682   6.945
   56CHL1   C12 4101   7.457   7.332   6.939
   56CHL1  H12A 4102   7.554   7.311   6.989
   56CHL1  H12B 4103   7.379   7.263   6.980
   56CHL1   C11 4104   7.478   7.302   6.790
   56CHL1  H11A 4105   7.574   7.350   6.763
   56CHL1  H11B 4106   7.487   7.193   6.775
   56CHL1    C9 4107   7.365   7.350   6.696
   56CHL1    H9 4108   7.280   7.281   6.715
   56CHL1   C10 4109   7.399   7.337   6.545
   56CHL1   C19 4110   7.536   7.405   6.517
   56CHL1  H19A 4111   7.557   7.416   6.409
   56CHL1  H19B 4112   7.539   7.506   6.564
   56CHL1  H19C 4113   7.619   7.344   6.560
   56CHL1    C1 4114   7.407   7.187   6.505
   56CHL1   H1A 4115   7.491   7.139   6.559
   56CHL1   H1B 4116   7.313   7.136   6.538
   56CHL1    C2 4117   7.425   7.162   6.355
   56CHL1   H2A 4118   7.425   7.053   6.334
   56CHL1   H2B 4119   7.524   7.203   6.323
   56CHL1   C20 4120   7.468   7.556   7.217
   56CHL1   H20 4121   7.519   7.649   7.186
   56CHL1   C21 4122   7.578   7.451   7.243
   56CHL1  H21A 4123   7.627   7.418   7.149
   56CHL1  H21B 4124   7.535   7.364   7.296
   56CHL1  H21C 4125   7.658   7.494   7.307
   56CHL1   C22 4126   7.391   7.586   7.349
   56CHL1  H22A 4127   7.354   7.691   7.345
   56CHL1  H22B 4128   7.303   7.520   7.356
   56CHL1   C23 4129   7.470   7.567   7.480
   56CHL1  H23A 4130   7.497   7.460   7.494
   56CHL1  H23B 4131   7.564   7.625   7.474
   56CHL1   C24 4132   7.387   7.611   7.601
   56CHL1  H24A 4133   7.363   7.719   7.591
   56CHL1  H24B 4134   7.291   7.554   7.600
   56CHL1   C25 4135   7.455   7.588   7.737
   56CHL1   H25 4136   7.477   7.479   7.749
   56CHL1   C26 4137   7.588   7.663   7.748
   56CHL1  H26A 4138   7.663   7.616   7.681
   56CHL1  H26B 4139   7.626   7.659   7.852
   56CHL1  H26C 4140   7.575   7.769   7.718
   56CHL1   C27 4141   7.360   7.632   7.848
   56CHL1  H27A 4142   7.269   7.569   7.850
   56CHL1  H27B 4143   7.410   7.628   7.948
   56CHL1  H27C 4144   7.329   7.736   7.827
   57SAPC     N 4145   3.148   3.052   9.974
   57SAPC   C12 4146   3.193   3.104  10.110
   57SAPC  H12A 4147   3.200   3.020  10.178
   57SAPC  H12B 4148   3.116   3.168  10.151
   57SAPC   C13 4149   3.136   3.165   9.877
   57SAPC  H13A 4150   3.060   3.235   9.908
   57SAPC  H13B 4151   3.228   3.222   9.878
   57SAPC  H13C 4152   3.116   3.131   9.776
   57SAPC   C14 4153   3.249   2.952   9.924
   57SAPC  H14A 4154   3.346   2.998   9.914
   57SAPC  H14B 4155   3.259   2.871   9.994
   57SAPC  H14C 4156   3.220   2.910   9.828
   57SAPC   C15 4157   3.017   2.983   9.991
   57SAPC  H15A 4158   3.028   2.902  10.061
   57SAPC  H15B 4159   2.943   3.050  10.034
   57SAPC  H15C 4160   2.979   2.943   9.898
   57SAPC   C11 4161   3.326   3.183  10.117
   57SAPC  H11A 4162   3.409   3.120  10.077
   57SAPC  H11B 4163   3.349   3.202  10.224
   57SAPC     P 4164   3.333   3.446  10.103
   57SAPC   O13 4165   3.201   3.491  10.156
   57SAPC   O14 4166   3.446   3.444  10.198
   57SAPC   O12 4167   3.316   3.302  10.040
   57SAPC   O11 4168   3.375   3.533   9.978
   57SAPC    C1 4169   3.457   3.478   9.873
   57SAPC    HA 4170   3.565   3.486   9.899
   57SAPC    HB 4171   3.434   3.371   9.853
   57SAPC    C2 4172   3.430   3.551   9.739
   57SAPC    HS 4173   3.470   3.654   9.748
   57SAPC   O21 4174   3.288   3.556   9.726
   57SAPC   C21 4175   3.230   3.596   9.618
   57SAPC   O22 4176   3.278   3.624   9.509
   57SAPC   C22 4177   3.081   3.608   9.653
   57SAPC   H2R 4178   3.073   3.661   9.750
   57SAPC   H2S 4179   3.034   3.672   9.576
   57SAPC    C3 4180   3.503   3.480   9.621
   57SAPC    HX 4181   3.610   3.470   9.650
   57SAPC    HY 4182   3.499   3.543   9.529
   57SAPC   O31 4183   3.445   3.351   9.600
   57SAPC   C31 4184   3.503   3.277   9.509
   57SAPC   O32 4185   3.604   3.304   9.446
   57SAPC   C32 4186   3.415   3.154   9.493
   57SAPC   H2X 4187   3.325   3.191   9.441
   57SAPC   H2Y 4188   3.384   3.118   9.594
   57SAPC   C23 4189   3.013   3.469   9.666
   57SAPC   H3R 4190   2.904   3.487   9.677
   57SAPC   H3S 4191   3.049   3.421   9.759
   57SAPC   C24 4192   3.036   3.373   9.547
   57SAPC   H4R 4193   2.961   3.292   9.550
   57SAPC   H4S 4194   3.138   3.329   9.553
   57SAPC   C25 4195   3.022   3.455   9.423
   57SAPC   H5R 4196   2.959   3.545   9.436
   57SAPC   C26 4197   3.071   3.436   9.300
   57SAPC   H6R 4198   3.053   3.516   9.228
   57SAPC   C27 4199   3.154   3.322   9.248
   57SAPC   H7R 4200   3.122   3.225   9.292
   57SAPC   H7S 4201   3.260   3.338   9.276
   57SAPC   C28 4202   3.136   3.323   9.099
   57SAPC   H8R 4203   3.059   3.255   9.061
   57SAPC   C29 4204   3.199   3.406   9.013
   57SAPC   H9R 4205   3.178   3.398   8.905
   57SAPC  C210 4206   3.300   3.512   9.051
   57SAPC  H10R 4207   3.258   3.576   9.132
   57SAPC  H10S 4208   3.312   3.580   8.964
   57SAPC  C211 4209   3.435   3.463   9.096
   57SAPC  H11R 4210   3.449   3.457   9.205
   57SAPC  C212 4211   3.537   3.428   9.015
   57SAPC  H12R 4212   3.631   3.394   9.061
   57SAPC  C213 4213   3.533   3.431   8.864
   57SAPC  H13R 4214   3.439   3.383   8.830
   57SAPC  H13S 4215   3.615   3.367   8.825
   57SAPC  C214 4216   3.548   3.570   8.807
   57SAPC  H14R 4217   3.628   3.630   8.852
   57SAPC  C215 4218   3.472   3.625   8.710
   57SAPC  H15R 4219   3.495   3.728   8.679
   57SAPC  C216 4220   3.357   3.561   8.637
   57SAPC  H16R 4221   3.260   3.597   8.679
   57SAPC  H16S 4222   3.356   3.451   8.648
   57SAPC  C217 4223   3.358   3.595   8.487
   57SAPC  H17R 4224   3.367   3.704   8.471
   57SAPC  H17S 4225   3.260   3.563   8.444
   57SAPC  C218 4226   3.471   3.523   8.413
   57SAPC  H18R 4227   3.456   3.413   8.426
   57SAPC  H18S 4228   3.569   3.549   8.459
   57SAPC  C219 4229   3.477   3.556   8.263
   57SAPC  H19R 4230   3.559   3.496   8.218
   57SAPC  H19S 4231   3.504   3.663   8.250
   57SAPC  C220 4232   3.347   3.527   8.188
   57SAPC  H20R 4233   3.273   3.609   8.205
   57SAPC  H20S 4234   3.302   3.432   8.223
   57SAPC  H20T 4235   3.367   3.519   8.079
   57SAPC   C33 4236   3.477   3.039   9.413
   57SAPC   H3X 4237   3.524   2.965   9.481
   57SAPC   H3Y 4238   3.557   3.074   9.344
   57SAPC   C34 4239   3.368   2.973   9.329
   57SAPC   H4X 4240   3.268   3.010   9.360
   57SAPC   H4Y 4241   3.365   2.863   9.347
   57SAPC   C35 4242   3.387   3.002   9.180
   57SAPC   H5X 4243   3.476   2.948   9.142
   57SAPC   H5Y 4244   3.403   3.110   9.164
   57SAPC   C36 4245   3.262   2.959   9.105
   57SAPC   H6X 4246   3.181   3.027   9.137
   57SAPC   H6Y 4247   3.234   2.856   9.137
   57SAPC   C37 4248   3.277   2.960   8.954
   57SAPC   H7X 4249   3.222   2.874   8.911
   57SAPC   H7Y 4250   3.384   2.949   8.926
   57SAPC   C38 4251   3.218   3.087   8.893
   57SAPC   H8X 4252   3.286   3.172   8.915
   57SAPC   H8Y 4253   3.118   3.105   8.938
   57SAPC   C39 4254   3.196   3.076   8.743
   57SAPC   H9X 4255   3.157   3.172   8.702
   57SAPC   H9Y 4256   3.117   3.000   8.727
   57SAPC  C310 4257   3.322   3.034   8.667
   57SAPC  H10X 4258   3.284   2.997   8.569
   57SAPC  H10Y 4259   3.373   2.947   8.714
   57SAPC  C311 4260   3.420   3.146   8.636
   57SAPC  H11X 4261   3.475   3.175   8.728
   57SAPC  H11Y 4262   3.362   3.234   8.602
   57SAPC  C312 4263   3.519   3.108   8.524
   57SAPC  H12X 4264   3.591   3.032   8.562
   57SAPC  H12Y 4265   3.577   3.199   8.496
   57SAPC  C313 4266   3.448   3.051   8.399
   57SAPC  H13X 4267   3.353   3.106   8.386
   57SAPC  H13Y 4268   3.423   2.944   8.418
   57SAPC  C314 4269   3.525   3.062   8.268
   57SAPC  H14X 4270   3.480   2.990   8.196
   57SAPC  H14Y 4271   3.631   3.035   8.282
   57SAPC  C315 4272   3.513   3.203   8.209
   57SAPC  H15X 4273   3.555   3.274   8.283
   57SAPC  H15Y 4274   3.405   3.228   8.197
   57SAPC  C316 4275   3.586   3.221   8.076
   57SAPC  H16X 4276   3.692   3.190   8.090
   57SAPC  H16Y 4277   3.586   3.329   8.050
   57SAPC  C317 4278   3.525   3.143   7.958
   57SAPC  H17X 4279   3.525   3.035   7.982
   57SAPC  H17Y 4280   3.593   3.157   7.871
   57SAPC  C318 4281   3.385   3.187   7.917
   57SAPC  H18X 4282   3.312   3.172   8.000
   57SAPC  H18Y 4283   3.350   3.128   7.829
   57SAPC  H18Z 4284   3.384   3.294   7.888
   58SAPC     N 4285   4.286   2.330  10.029
   58SAPC   C12 4286   4.396   2.261   9.950
   58SAPC  H12A 4287   4.487   2.266  10.007
   58SAPC  H12B 4288   4.412   2.316   9.858
   58SAPC   C13 4289   4.284   2.277  10.169
   58SAPC  H13A 4290   4.258   2.172  10.165
   58SAPC  H13B 4291   4.381   2.284  10.216
   58SAPC  H13C 4292   4.209   2.327  10.229
   58SAPC   C14 4293   4.309   2.479  10.032
   58SAPC  H14A 4294   4.405   2.505  10.075
   58SAPC  H14B 4295   4.303   2.523   9.933
   58SAPC  H14C 4296   4.232   2.528  10.089
   58SAPC   C15 4297   4.150   2.303   9.973
   58SAPC  H15A 4298   4.126   2.198   9.987
   58SAPC  H15B 4299   4.075   2.360  10.025
   58SAPC  H15C 4300   4.144   2.327   9.868
   58SAPC   C11 4301   4.377   2.112   9.912
   58SAPC  H11A 4302   4.463   2.081   9.850
   58SAPC  H11B 4303   4.286   2.100   9.850
   58SAPC     P 4304   4.264   1.922  10.054
   58SAPC   O13 4305   4.322   1.827  10.151
   58SAPC   O14 4306   4.142   1.997  10.093
   58SAPC   O12 4307   4.376   2.030  10.029
   58SAPC   O11 4308   4.247   1.855   9.910
   58SAPC    C1 4309   4.320   1.734   9.885
   58SAPC    HA 4310   4.426   1.746   9.917
   58SAPC    HB 4311   4.277   1.649   9.943
   58SAPC    C2 4312   4.328   1.691   9.734
   58SAPC    HS 4313   4.415   1.624   9.723
   58SAPC   O21 4314   4.340   1.806   9.649
   58SAPC   C21 4315   4.448   1.878   9.661
   58SAPC   O22 4316   4.547   1.852   9.728
   58SAPC   C22 4317   4.433   2.001   9.573
   58SAPC   H2R 4318   4.338   2.051   9.601
   58SAPC   H2S 4319   4.518   2.070   9.594
   58SAPC    C3 4320   4.204   1.610   9.684
   58SAPC    HX 4321   4.122   1.681   9.658
   58SAPC    HY 4322   4.166   1.551   9.770
   58SAPC   O31 4323   4.235   1.518   9.576
   58SAPC   C31 4324   4.231   1.568   9.453
   58SAPC   O32 4325   4.216   1.685   9.423
   58SAPC   C32 4326   4.247   1.455   9.348
   58SAPC   H2X 4327   4.153   1.397   9.348
   58SAPC   H2Y 4328   4.331   1.390   9.380
   58SAPC   C23 4329   4.429   1.964   9.423
   58SAPC   H3R 4330   4.350   1.888   9.407
   58SAPC   H3S 4331   4.525   1.916   9.393
   58SAPC   C24 4332   4.397   2.085   9.333
   58SAPC   H4R 4333   4.342   2.161   9.393
   58SAPC   H4S 4334   4.324   2.051   9.257
   58SAPC   C25 4335   4.517   2.146   9.266
   58SAPC   H5R 4336   4.541   2.249   9.297
   58SAPC   C26 4337   4.595   2.087   9.172
   58SAPC   H6R 4338   4.675   2.147   9.127
   58SAPC   C27 4339   4.581   1.949   9.111
   58SAPC   H7R 4340   4.630   1.874   9.178
   58SAPC   H7S 4341   4.639   1.945   9.016
   58SAPC   C28 4342   4.442   1.902   9.078
   58SAPC   H8R 4343   4.409   1.811   9.130
   58SAPC   C29 4344   4.358   1.965   8.995
   58SAPC   H9R 4345   4.254   1.929   8.996
   58SAPC  C210 4346   4.382   2.091   8.915
   58SAPC  H10R 4347   4.489   2.118   8.914
   58SAPC  H10S 4348   4.330   2.174   8.968
   58SAPC  C211 4349   4.330   2.083   8.773
   58SAPC  H11R 4350   4.225   2.114   8.761
   58SAPC  C212 4351   4.396   2.042   8.663
   58SAPC  H12R 4352   4.342   2.035   8.568
   58SAPC  C213 4353   4.539   1.993   8.657
   58SAPC  H13R 4354   4.542   1.888   8.695
   58SAPC  H13S 4355   4.602   2.051   8.727
   58SAPC  C214 4356   4.597   2.001   8.517
   58SAPC  H14R 4357   4.630   2.102   8.488
   58SAPC  C215 4358   4.609   1.902   8.426
   58SAPC  H15R 4359   4.652   1.925   8.327
   58SAPC  C216 4360   4.567   1.758   8.445
   58SAPC  H16R 4361   4.465   1.747   8.403
   58SAPC  H16S 4362   4.561   1.734   8.553
   58SAPC  C217 4363   4.659   1.650   8.382
   58SAPC  H17R 4364   4.657   1.559   8.446
   58SAPC  H17S 4365   4.764   1.689   8.384
   58SAPC  C218 4366   4.631   1.608   8.237
   58SAPC  H18R 4367   4.722   1.557   8.197
   58SAPC  H18S 4368   4.610   1.698   8.176
   58SAPC  C219 4369   4.516   1.509   8.227
   58SAPC  H19R 4370   4.430   1.570   8.263
   58SAPC  H19S 4371   4.532   1.425   8.298
   58SAPC  C220 4372   4.477   1.454   8.091
   58SAPC  H20R 4373   4.400   1.375   8.104
   58SAPC  H20S 4374   4.565   1.411   8.038
   58SAPC  H20T 4375   4.431   1.534   8.028
   58SAPC   C33 4376   4.275   1.513   9.207
   58SAPC   H3X 4377   4.372   1.568   9.211
   58SAPC   H3Y 4378   4.199   1.591   9.183
   58SAPC   C34 4379   4.283   1.416   9.086
   58SAPC   H4X 4380   4.369   1.347   9.099
   58SAPC   H4Y 4381   4.307   1.482   9.001
   58SAPC   C35 4382   4.156   1.336   9.044
   58SAPC   H5X 4383   4.065   1.388   9.082
   58SAPC   H5Y 4384   4.160   1.238   9.096
   58SAPC   C36 4385   4.137   1.313   8.891
   58SAPC   H6X 4386   4.097   1.210   8.874
   58SAPC   H6Y 4387   4.235   1.317   8.840
   58SAPC   C37 4388   4.038   1.415   8.828
   58SAPC   H7X 4389   4.095   1.509   8.841
   58SAPC   H7Y 4390   3.943   1.419   8.886
   58SAPC   C38 4391   4.007   1.414   8.677
   58SAPC   H8X 4392   3.998   1.308   8.644
   58SAPC   H8Y 4393   4.096   1.452   8.622
   58SAPC   C39 4394   3.886   1.497   8.626
   58SAPC   H9X 4395   3.793   1.476   8.683
   58SAPC   H9Y 4396   3.868   1.463   8.522
   58SAPC  C310 4397   3.907   1.650   8.619
   58SAPC  H10X 4398   4.016   1.663   8.604
   58SAPC  H10Y 4399   3.877   1.699   8.714
   58SAPC  C311 4400   3.839   1.720   8.500
   58SAPC  H11X 4401   3.729   1.705   8.507
   58SAPC  H11Y 4402   3.870   1.666   8.408
   58SAPC  C312 4403   3.864   1.872   8.479
   58SAPC  H12X 4404   3.793   1.929   8.543
   58SAPC  H12Y 4405   3.834   1.886   8.373
   58SAPC  C313 4406   4.003   1.939   8.493
   58SAPC  H13X 4407   4.081   1.864   8.520
   58SAPC  H13Y 4408   3.998   2.010   8.577
   58SAPC  C314 4409   4.052   2.016   8.367
   58SAPC  H14X 4410   3.966   2.042   8.301
   58SAPC  H14Y 4411   4.118   1.950   8.308
   58SAPC  C315 4412   4.126   2.149   8.396
   58SAPC  H15X 4413   4.191   2.137   8.486
   58SAPC  H15Y 4414   4.050   2.226   8.420
   58SAPC  C316 4415   4.213   2.200   8.279
   58SAPC  H16X 4416   4.243   2.305   8.299
   58SAPC  H16Y 4417   4.153   2.200   8.186
   58SAPC  C317 4418   4.343   2.119   8.259
   58SAPC  H17X 4419   4.319   2.011   8.249
   58SAPC  H17Y 4420   4.404   2.130   8.351
   58SAPC  C318 4421   4.427   2.162   8.138
   58SAPC  H18X 4422   4.532   2.181   8.167
   58SAPC  H18Y 4423   4.386   2.256   8.094
   58SAPC  H18Z 4424   4.426   2.084   8.059
   59SAPC     N 4425   6.389   1.789  10.186
   59SAPC   C12 4426   6.392   1.736  10.043
   59SAPC  H12A 4427   6.293   1.703  10.016
   59SAPC  H12B 4428   6.456   1.649  10.036
   59SAPC   C13 4429   6.494   1.894  10.202
   59SAPC  H13A 4430   6.593   1.852  10.187
   59SAPC  H13B 4431   6.478   1.965  10.122
   59SAPC  H13C 4432   6.486   1.948  10.295
   59SAPC   C14 4433   6.255   1.856  10.206
   59SAPC  H14A 4434   6.247   1.903  10.302
   59SAPC  H14B 4435   6.243   1.932  10.130
   59SAPC  H14C 4436   6.173   1.787  10.194
   59SAPC   C15 4437   6.404   1.677  10.284
   59SAPC  H15A 4438   6.385   1.709  10.386
   59SAPC  H15B 4439   6.332   1.599  10.264
   59SAPC  H15C 4440   6.501   1.631  10.278
   59SAPC   C11 4441   6.437   1.835   9.932
   59SAPC  H11A 4442   6.415   1.791   9.832
   59SAPC  H11B 4443   6.547   1.849   9.936
   59SAPC     P 4444   6.247   2.005   9.872
   59SAPC   O13 4445   6.174   1.882   9.832
   59SAPC   O14 4446   6.178   2.102   9.959
   59SAPC   O12 4447   6.376   1.962   9.951
   59SAPC   O11 4448   6.314   2.075   9.749
   59SAPC    C1 4449   6.242   2.131   9.640
   59SAPC    HA 4450   6.157   2.194   9.674
   59SAPC    HB 4451   6.312   2.198   9.585
   59SAPC    C2 4452   6.192   2.024   9.538
   59SAPC    HS 4453   6.105   1.973   9.586
   59SAPC   O21 4454   6.298   1.929   9.518
   59SAPC   C21 4455   6.263   1.811   9.473
   59SAPC   O22 4456   6.154   1.779   9.429
   59SAPC   C22 4457   6.387   1.721   9.481
   59SAPC   H2R 4458   6.471   1.784   9.447
   59SAPC   H2S 4459   6.404   1.695   9.588
   59SAPC    C3 4460   6.144   2.088   9.405
   59SAPC    HX 4461   6.059   2.154   9.431
   59SAPC    HY 4462   6.106   2.008   9.337
   59SAPC   O31 4463   6.251   2.160   9.341
   59SAPC   C31 4464   6.213   2.249   9.250
   59SAPC   O32 4465   6.098   2.271   9.216
   59SAPC   C32 4466   6.336   2.316   9.189
   59SAPC   H2X 4467   6.400   2.353   9.271
   59SAPC   H2Y 4468   6.299   2.404   9.131
   59SAPC   C23 4469   6.375   1.592   9.396
   59SAPC   H3R 4470   6.323   1.616   9.300
   59SAPC   H3S 4471   6.310   1.519   9.449
   59SAPC   C24 4472   6.511   1.527   9.363
   59SAPC   H4R 4473   6.492   1.443   9.293
   59SAPC   H4S 4474   6.551   1.482   9.457
   59SAPC   C25 4475   6.611   1.624   9.306
   59SAPC   H5R 4476   6.699   1.644   9.369
   59SAPC   C26 4477   6.599   1.687   9.188
   59SAPC   H6R 4478   6.680   1.754   9.154
   59SAPC   C27 4479   6.486   1.672   9.090
   59SAPC   H7R 4480   6.429   1.578   9.110
   59SAPC   H7S 4481   6.533   1.656   8.990
   59SAPC   C28 4482   6.387   1.783   9.085
   59SAPC   H8R 4483   6.355   1.824   9.182
   59SAPC   C29 4484   6.332   1.832   8.973
   59SAPC   H9R 4485   6.261   1.915   8.980
   59SAPC  C210 4486   6.362   1.784   8.832
   59SAPC  H10R 4487   6.462   1.736   8.823
   59SAPC  H10S 4488   6.369   1.872   8.764
   59SAPC  C211 4489   6.257   1.688   8.783
   59SAPC  H11R 4490   6.289   1.583   8.777
   59SAPC  C212 4491   6.131   1.722   8.750
   59SAPC  H12R 4492   6.062   1.644   8.715
   59SAPC  C213 4493   6.074   1.862   8.757
   59SAPC  H13R 4494   6.070   1.894   8.863
   59SAPC  H13S 4495   5.968   1.856   8.725
   59SAPC  C214 4496   6.145   1.970   8.676
   59SAPC  H14R 4497   6.187   2.053   8.734
   59SAPC  C215 4498   6.159   1.969   8.543
   59SAPC  H15R 4499   6.212   2.051   8.492
   59SAPC  C216 4500   6.105   1.859   8.456
   59SAPC  H16R 4501   6.006   1.826   8.495
   59SAPC  H16S 4502   6.172   1.770   8.461
   59SAPC  C217 4503   6.084   1.895   8.309
   59SAPC  H17R 4504   6.183   1.892   8.257
   59SAPC  H17S 4505   6.043   1.998   8.298
   59SAPC  C218 4506   5.988   1.795   8.244
   59SAPC  H18R 4507   5.884   1.824   8.268
   59SAPC  H18S 4508   6.006   1.695   8.290
   59SAPC  C219 4509   6.007   1.781   8.093
   59SAPC  H19R 4510   6.113   1.754   8.073
   59SAPC  H19S 4511   5.987   1.879   8.044
   59SAPC  C220 4512   5.916   1.674   8.036
   59SAPC  H20R 4513   5.933   1.659   7.927
   59SAPC  H20S 4514   5.810   1.703   8.051
   59SAPC  H20T 4515   5.933   1.577   8.088
   59SAPC   C33 4516   6.415   2.221   9.095
   59SAPC   H3X 4517   6.485   2.283   9.035
   59SAPC   H3Y 4518   6.347   2.171   9.023
   59SAPC   C34 4519   6.494   2.114   9.175
   59SAPC   H4X 4520   6.428   2.025   9.183
   59SAPC   H4Y 4521   6.505   2.150   9.280
   59SAPC   C35 4522   6.634   2.071   9.126
   59SAPC   H5X 4523   6.643   1.962   9.145
   59SAPC   H5Y 4524   6.712   2.118   9.189
   59SAPC   C36 4525   6.671   2.097   8.979
   59SAPC   H6X 4526   6.778   2.070   8.966
   59SAPC   H6Y 4527   6.661   2.204   8.953
   59SAPC   C37 4528   6.589   2.009   8.886
   59SAPC   H7X 4529   6.482   2.038   8.893
   59SAPC   H7Y 4530   6.600   1.904   8.923
   59SAPC   C38 4531   6.632   2.011   8.740
   59SAPC   H8X 4532   6.584   1.924   8.692
   59SAPC   H8Y 4533   6.742   1.996   8.731
   59SAPC   C39 4534   6.586   2.137   8.665
   59SAPC   H9X 4535   6.665   2.215   8.670
   59SAPC   H9Y 4536   6.494   2.178   8.713
   59SAPC  C310 4537   6.554   2.099   8.521
   59SAPC  H10X 4538   6.466   2.030   8.523
   59SAPC  H10Y 4539   6.640   2.041   8.481
   59SAPC  C311 4540   6.527   2.217   8.428
   59SAPC  H11X 4541   6.609   2.291   8.444
   59SAPC  H11Y 4542   6.431   2.266   8.452
   59SAPC  C312 4543   6.531   2.172   8.281
   59SAPC  H12X 4544   6.629   2.124   8.263
   59SAPC  H12Y 4545   6.529   2.261   8.214
   59SAPC  C313 4546   6.419   2.075   8.243
   59SAPC  H13X 4547   6.325   2.130   8.221
   59SAPC  H13Y 4548   6.397   2.008   8.328
   59SAPC  C314 4549   6.458   1.983   8.126
   59SAPC  H14X 4550   6.379   1.907   8.113
   59SAPC  H14Y 4551   6.552   1.930   8.155
   59SAPC  C315 4552   6.481   2.055   7.993
   59SAPC  H15X 4553   6.534   1.987   7.923
   59SAPC  H15Y 4554   6.546   2.144   8.008
   59SAPC  C316 4555   6.349   2.097   7.927
   59SAPC  H16X 4556   6.292   2.162   7.997
   59SAPC  H16Y 4557   6.287   2.007   7.909
   59SAPC  C317 4558   6.369   2.172   7.795
   59SAPC  H17X 4559   6.418   2.105   7.722
   59SAPC  H17Y 4560   6.437   2.259   7.812
   59SAPC  C318 4561   6.237   2.223   7.737
   59SAPC  H18X 4562   6.189   2.293   7.808
   59SAPC  H18Y 4563   6.167   2.138   7.720
   59SAPC  H18Z 4564   6.253   2.275   7.641
   60SAPC     N 4565   6.253   1.014  10.020
   60SAPC   C12 4566   6.214   1.135   9.938
   60SAPC  H12A 4567   6.267   1.133   9.843
   60SAPC  H12B 4568   6.245   1.226   9.989
   60SAPC   C13 4569   6.399   0.986  10.008
   60SAPC  H13A 4570   6.458   1.070  10.042
   60SAPC  H13B 4571   6.425   0.899  10.067
   60SAPC  H13C 4572   6.425   0.964   9.906
   60SAPC   C14 4573   6.217   1.038  10.164
   60SAPC  H14A 4574   6.271   1.123  10.203
   60SAPC  H14B 4575   6.112   1.059  10.170
   60SAPC  H14C 4576   6.239   0.951  10.224
   60SAPC   C15 4577   6.177   0.894   9.972
   60SAPC  H15A 4578   6.071   0.909   9.982
   60SAPC  H15B 4579   6.200   0.870   9.870
   60SAPC  H15C 4580   6.203   0.805  10.027
   60SAPC   C11 4581   6.064   1.150   9.906
   60SAPC  H11A 4582   6.030   1.058   9.853
   60SAPC  H11B 4583   6.052   1.230   9.830
   60SAPC     P 4584   5.970   1.318  10.072
   60SAPC   O13 4585   5.864   1.322  10.175
   60SAPC   O14 4586   6.106   1.365  10.110
   60SAPC   O12 4587   5.984   1.167  10.024
   60SAPC   O11 4588   5.920   1.385   9.937
   60SAPC    C1 4589   5.785   1.368   9.891
   60SAPC    HA 4590   5.725   1.303   9.958
   60SAPC    HB 4591   5.737   1.468   9.892
   60SAPC    C2 4592   5.765   1.315   9.744
   60SAPC    HS 4593   5.655   1.307   9.729
   60SAPC   O21 4594   5.827   1.187   9.724
   60SAPC   C21 4595   5.769   1.080   9.772
   60SAPC   O22 4596   5.674   1.078   9.850
   60SAPC   C22 4597   5.827   0.958   9.699
   60SAPC   H2R 4598   5.935   0.949   9.723
   60SAPC   H2S 4599   5.775   0.867   9.735
   60SAPC    C3 4600   5.819   1.411   9.633
   60SAPC    HX 4601   5.803   1.516   9.666
   60SAPC    HY 4602   5.753   1.391   9.546
   60SAPC   O31 4603   5.958   1.390   9.603
   60SAPC   C31 4604   6.010   1.377   9.480
   60SAPC   O32 4605   6.126   1.340   9.461
   60SAPC   C32 4606   5.914   1.407   9.362
   60SAPC   H2X 4607   5.847   1.492   9.389
   60SAPC   H2Y 4608   5.855   1.315   9.345
   60SAPC   C23 4609   5.813   0.972   9.545
   60SAPC   H3R 4610   5.818   1.078   9.512
   60SAPC   H3S 4611   5.714   0.931   9.517
   60SAPC   C24 4612   5.917   0.895   9.462
   60SAPC   H4R 4613   5.880   0.899   9.357
   60SAPC   H4S 4614   5.910   0.788   9.493
   60SAPC   C25 4615   6.061   0.937   9.468
   60SAPC   H5R 4616   6.117   0.903   9.557
   60SAPC   C26 4617   6.127   1.008   9.374
   60SAPC   H6R 4618   6.233   1.033   9.391
   60SAPC   C27 4619   6.070   1.061   9.245
   60SAPC   H7R 4620   6.102   1.167   9.237
   60SAPC   H7S 4621   5.959   1.066   9.250
   60SAPC   C28 4622   6.109   0.981   9.123
   60SAPC   H8R 4623   6.105   0.871   9.135
   60SAPC   C29 4624   6.146   1.031   9.003
   60SAPC   H9R 4625   6.170   0.962   8.921
   60SAPC  C210 4626   6.155   1.178   8.968
   60SAPC  H10R 4627   6.161   1.240   9.060
   60SAPC  H10S 4628   6.059   1.208   8.919
   60SAPC  C211 4629   6.274   1.217   8.885
   60SAPC  H11R 4630   6.368   1.170   8.916
   60SAPC  C212 4631   6.275   1.295   8.776
   60SAPC  H12R 4632   6.373   1.325   8.734
   60SAPC  C213 4633   6.158   1.361   8.708
   60SAPC  H13R 4634   6.196   1.431   8.629
   60SAPC  H13S 4635   6.103   1.424   8.781
   60SAPC  C214 4636   6.067   1.258   8.648
   60SAPC  H14R 4637   6.000   1.209   8.721
   60SAPC  C215 4638   6.059   1.216   8.522
   60SAPC  H15R 4639   5.988   1.135   8.500
   60SAPC  C216 4640   6.141   1.258   8.403
   60SAPC  H16R 4641   6.242   1.294   8.431
   60SAPC  H16S 4642   6.089   1.339   8.347
   60SAPC  C217 4643   6.150   1.133   8.315
   60SAPC  H17R 4644   6.050   1.088   8.302
   60SAPC  H17S 4645   6.215   1.057   8.364
   60SAPC  C218 4646   6.201   1.158   8.173
   60SAPC  H18R 4647   6.306   1.193   8.177
   60SAPC  H18S 4648   6.141   1.239   8.125
   60SAPC  C219 4649   6.187   1.030   8.092
   60SAPC  H19R 4650   6.079   1.014   8.070
   60SAPC  H19S 4651   6.221   0.944   8.154
   60SAPC  C220 4652   6.267   1.030   7.962
   60SAPC  H20R 4653   6.237   0.948   7.895
   60SAPC  H20S 4654   6.374   1.017   7.988
   60SAPC  H20T 4655   6.256   1.128   7.910
   60SAPC   C33 4656   5.989   1.447   9.231
   60SAPC   H3X 4657   6.090   1.400   9.231
   60SAPC   H3Y 4658   6.005   1.556   9.229
   60SAPC   C34 4659   5.924   1.400   9.099
   60SAPC   H4X 4660   5.902   1.291   9.102
   60SAPC   H4Y 4661   6.001   1.416   9.021
   60SAPC   C35 4662   5.799   1.478   9.052
   60SAPC   H5X 4663   5.799   1.577   9.102
   60SAPC   H5Y 4664   5.707   1.424   9.085
   60SAPC   C36 4665   5.795   1.503   8.900
   60SAPC   H6X 4666   5.882   1.569   8.876
   60SAPC   H6Y 4667   5.703   1.559   8.872
   60SAPC   C37 4668   5.808   1.378   8.811
   60SAPC   H7X 4669   5.879   1.308   8.859
   60SAPC   H7Y 4670   5.850   1.407   8.712
   60SAPC   C38 4671   5.677   1.304   8.785
   60SAPC   H8X 4672   5.616   1.358   8.708
   60SAPC   H8Y 4673   5.619   1.310   8.879
   60SAPC   C39 4674   5.697   1.157   8.742
   60SAPC   H9X 4675   5.614   1.094   8.780
   60SAPC   H9Y 4676   5.790   1.115   8.788
   60SAPC  C310 4677   5.698   1.140   8.591
   60SAPC  H10X 4678   5.794   1.182   8.553
   60SAPC  H10Y 4679   5.617   1.201   8.546
   60SAPC  C311 4680   5.678   0.995   8.544
   60SAPC  H11X 4681   5.586   0.955   8.590
   60SAPC  H11Y 4682   5.763   0.932   8.578
   60SAPC  C312 4683   5.663   0.985   8.391
   60SAPC  H12X 4684   5.573   1.043   8.362
   60SAPC  H12Y 4685   5.645   0.879   8.362
   60SAPC  C313 4686   5.784   1.040   8.313
   60SAPC  H13X 4687   5.865   0.964   8.319
   60SAPC  H13Y 4688   5.822   1.135   8.356
   60SAPC  C314 4689   5.750   1.068   8.166
   60SAPC  H14X 4690   5.660   1.007   8.142
   60SAPC  H14Y 4691   5.833   1.037   8.100
   60SAPC  C315 4692   5.712   1.213   8.136
   60SAPC  H15X 4693   5.802   1.277   8.134
   60SAPC  H15Y 4694   5.646   1.250   8.217
   60SAPC  C316 4695   5.635   1.222   8.003
   60SAPC  H16X 4696   5.556   1.144   8.003
   60SAPC  H16Y 4697   5.703   1.199   7.918
   60SAPC  C317 4698   5.568   1.357   7.978
   60SAPC  H17X 4699   5.498   1.378   8.061
   60SAPC  H17Y 4700   5.507   1.352   7.885
   60SAPC  C318 4701   5.667   1.472   7.968
   60SAPC  H18X 4702   5.710   1.493   8.069
   60SAPC  H18Y 4703   5.618   1.565   7.931
   60SAPC  H18Z 4704   5.750   1.446   7.899
   61SAPC     N 4705   1.880   7.065  10.193
   61SAPC   C12 4706   2.024   7.026  10.157
   61SAPC  H12A 4707   2.080   6.998  10.245
   61SAPC  H12B 4708   2.074   7.111  10.113
   61SAPC   C13 4709   1.877   7.138  10.323
   61SAPC  H13A 4710   1.911   7.073  10.402
   61SAPC  H13B 4711   1.945   7.222  10.321
   61SAPC  H13C 4712   1.777   7.170  10.347
   61SAPC   C14 4713   1.829   7.145  10.077
   61SAPC  H14A 4714   1.723   7.164  10.082
   61SAPC  H14B 4715   1.886   7.234  10.060
   61SAPC  H14C 4716   1.845   7.084   9.989
   61SAPC   C15 4717   1.796   6.941  10.203
   61SAPC  H15A 4718   1.833   6.871  10.276
   61SAPC  H15B 4719   1.692   6.963  10.221
   61SAPC  H15C 4720   1.800   6.890  10.108
   61SAPC   C11 4721   2.039   6.909  10.058
   61SAPC  H11A 4722   2.032   6.818  10.122
   61SAPC  H11B 4723   2.141   6.910  10.013
   61SAPC     P 4724   1.896   6.776   9.888
   61SAPC   O13 4725   1.906   6.787   9.742
   61SAPC   O14 4726   1.968   6.667   9.957
   61SAPC   O12 4727   1.940   6.912   9.954
   61SAPC   O11 4728   1.744   6.766   9.933
   61SAPC    C1 4729   1.686   6.636   9.958
   61SAPC    HA 4730   1.760   6.562   9.993
   61SAPC    HB 4731   1.612   6.646  10.040
   61SAPC    C2 4732   1.611   6.568   9.838
   61SAPC    HS 4733   1.595   6.462   9.865
   61SAPC   O21 4734   1.682   6.580   9.713
   61SAPC   C21 4735   1.786   6.498   9.706
   61SAPC   O22 4736   1.824   6.428   9.799
   61SAPC   C22 4737   1.832   6.485   9.560
   61SAPC   H2R 4738   1.896   6.395   9.553
   61SAPC   H2S 4739   1.739   6.467   9.502
   61SAPC    C3 4740   1.470   6.628   9.817
   61SAPC    HX 4741   1.419   6.619   9.915
   61SAPC    HY 4742   1.412   6.566   9.745
   61SAPC   O31 4743   1.476   6.767   9.782
   61SAPC   C31 4744   1.474   6.789   9.650
   61SAPC   O32 4745   1.454   6.705   9.564
   61SAPC   C32 4746   1.499   6.938   9.627
   61SAPC   H2X 4747   1.601   6.962   9.662
   61SAPC   H2Y 4748   1.425   6.993   9.690
   61SAPC   C23 4749   1.900   6.608   9.495
   61SAPC   H3R 4750   2.004   6.616   9.531
   61SAPC   H3S 4751   1.847   6.701   9.525
   61SAPC   C24 4752   1.899   6.600   9.341
   61SAPC   H4R 4753   1.951   6.506   9.311
   61SAPC   H4S 4754   1.959   6.685   9.301
   61SAPC   C25 4755   1.761   6.603   9.281
   61SAPC   H5R 4756   1.681   6.627   9.353
   61SAPC   C26 4757   1.728   6.578   9.153
   61SAPC   H6R 4758   1.623   6.589   9.123
   61SAPC   C27 4759   1.825   6.546   9.042
   61SAPC   H7R 4760   1.927   6.525   9.083
   61SAPC   H7S 4761   1.832   6.647   8.997
   61SAPC   C28 4762   1.792   6.442   8.936
   61SAPC   H8R 4763   1.685   6.417   8.939
   61SAPC   C29 4764   1.862   6.382   8.834
   61SAPC   H9R 4765   1.802   6.311   8.774
   61SAPC  C210 4766   2.006   6.392   8.780
   61SAPC  H10R 4767   2.055   6.298   8.812
   61SAPC  H10S 4768   2.058   6.473   8.835
   61SAPC  C211 4769   2.035   6.396   8.628
   61SAPC  H11R 4770   1.987   6.308   8.584
   61SAPC  C212 4771   2.104   6.470   8.535
   61SAPC  H12R 4772   2.094   6.431   8.432
   61SAPC  C213 4773   2.192   6.596   8.532
   61SAPC  H13R 4774   2.271   6.577   8.456
   61SAPC  H13S 4775   2.244   6.604   8.630
   61SAPC  C214 4776   2.134   6.733   8.499
   61SAPC  H14R 4777   2.086   6.782   8.585
   61SAPC  C215 4778   2.139   6.813   8.391
   61SAPC  H15R 4779   2.084   6.908   8.397
   61SAPC  C216 4780   2.207   6.793   8.260
   61SAPC  H16R 4781   2.295   6.725   8.269
   61SAPC  H16S 4782   2.245   6.891   8.222
   61SAPC  C217 4783   2.107   6.737   8.158
   61SAPC  H17R 4784   2.144   6.756   8.055
   61SAPC  H17S 4785   2.010   6.791   8.167
   61SAPC  C218 4786   2.087   6.587   8.180
   61SAPC  H18R 4787   1.979   6.564   8.190
   61SAPC  H18S 4788   2.135   6.558   8.275
   61SAPC  C219 4789   2.149   6.501   8.071
   61SAPC  H19R 4790   2.092   6.521   7.978
   61SAPC  H19S 4791   2.135   6.394   8.097
   61SAPC  C220 4792   2.297   6.530   8.049
   61SAPC  H20R 4793   2.347   6.450   7.990
   61SAPC  H20S 4794   2.350   6.539   8.146
   61SAPC  H20T 4795   2.309   6.625   7.992
   61SAPC   C33 4796   1.481   6.980   9.479
   61SAPC   H3X 4797   1.467   7.090   9.474
   61SAPC   H3Y 4798   1.388   6.933   9.441
   61SAPC   C34 4799   1.601   6.943   9.391
   61SAPC   H4X 4800   1.617   6.834   9.395
   61SAPC   H4Y 4801   1.692   6.991   9.432
   61SAPC   C35 4802   1.584   6.986   9.244
   61SAPC   H5X 4803   1.679   6.968   9.189
   61SAPC   H5Y 4804   1.563   7.095   9.240
   61SAPC   C36 4805   1.471   6.910   9.173
   61SAPC   H6X 4806   1.381   6.913   9.236
   61SAPC   H6Y 4807   1.500   6.803   9.162
   61SAPC   C37 4808   1.431   6.967   9.036
   61SAPC   H7X 4809   1.402   7.074   9.047
   61SAPC   H7Y 4810   1.340   6.912   9.003
   61SAPC   C38 4811   1.537   6.954   8.926
   61SAPC   H8X 4812   1.591   6.858   8.936
   61SAPC   H8Y 4813   1.612   7.036   8.937
   61SAPC   C39 4814   1.470   6.959   8.788
   61SAPC   H9X 4815   1.380   7.024   8.795
   61SAPC   H9Y 4816   1.435   6.856   8.766
   61SAPC  C310 4817   1.557   7.010   8.673
   61SAPC  H10X 4818   1.663   7.018   8.705
   61SAPC  H10Y 4819   1.521   7.110   8.640
   61SAPC  C311 4820   1.549   6.921   8.549
   61SAPC  H11X 4821   1.444   6.897   8.520
   61SAPC  H11Y 4822   1.592   6.826   8.586
   61SAPC  C312 4823   1.623   6.975   8.426
   61SAPC  H12X 4824   1.704   7.046   8.454
   61SAPC  H12Y 4825   1.550   7.028   8.361
   61SAPC  C313 4826   1.683   6.857   8.350
   61SAPC  H13X 4827   1.609   6.775   8.362
   61SAPC  H13Y 4828   1.778   6.826   8.400
   61SAPC  C314 4829   1.709   6.863   8.200
   61SAPC  H14X 4830   1.799   6.923   8.177
   61SAPC  H14Y 4831   1.621   6.905   8.147
   61SAPC  C315 4832   1.726   6.716   8.160
   61SAPC  H15X 4833   1.629   6.666   8.182
   61SAPC  H15Y 4834   1.802   6.672   8.228
   61SAPC  C316 4835   1.766   6.682   8.018
   61SAPC  H16X 4836   1.871   6.714   7.999
   61SAPC  H16Y 4837   1.701   6.736   7.945
   61SAPC  C317 4838   1.755   6.530   7.997
   61SAPC  H17X 4839   1.816   6.480   8.076
   61SAPC  H17Y 4840   1.801   6.503   7.900
   61SAPC  C318 4841   1.611   6.477   8.001
   61SAPC  H18X 4842   1.544   6.541   7.941
   61SAPC  H18Y 4843   1.572   6.474   8.105
   61SAPC  H18Z 4844   1.607   6.373   7.961
   62SAPC     N 4845   1.191   6.719  10.164
   62SAPC   C12 4846   1.200   6.638  10.035
   62SAPC  H12A 4847   1.253   6.546  10.053
   62SAPC  H12B 4848   1.256   6.697   9.964
   62SAPC   C13 4849   1.188   6.865  10.128
   62SAPC  H13A 4850   1.102   6.884  10.066
   62SAPC  H13B 4851   1.185   6.929  10.215
   62SAPC  H13C 4852   1.272   6.891  10.065
   62SAPC   C14 4853   1.063   6.687  10.234
   62SAPC  H14A 4854   1.050   6.746  10.324
   62SAPC  H14B 4855   0.981   6.708  10.167
   62SAPC  H14C 4856   1.057   6.582  10.258
   62SAPC   C15 4857   1.309   6.691  10.251
   62SAPC  H15A 4858   1.304   6.745  10.345
   62SAPC  H15B 4859   1.316   6.586  10.277
   62SAPC  H15C 4860   1.401   6.719  10.202
   62SAPC   C11 4861   1.069   6.603   9.960
   62SAPC  H11A 4862   1.006   6.534  10.021
   62SAPC  H11B 4863   1.093   6.547   9.867
   62SAPC     P 4864   1.041   6.820   9.818
   62SAPC   O13 4865   1.188   6.836   9.828
   62SAPC   O14 4866   0.983   6.779   9.689
   62SAPC   O12 4867   0.994   6.719   9.932
   62SAPC   O11 4868   0.974   6.951   9.874
   62SAPC    C1 4869   0.845   6.952   9.937
   62SAPC    HA 4870   0.804   6.851   9.955
   62SAPC    HB 4871   0.854   7.000  10.036
   62SAPC    C2 4872   0.740   7.033   9.855
   62SAPC    HS 4873   0.640   7.015   9.898
   62SAPC   O21 4874   0.740   6.997   9.716
   62SAPC   C21 4875   0.704   6.874   9.687
   62SAPC   O22 4876   0.666   6.789   9.766
   62SAPC   C22 4877   0.713   6.852   9.536
   62SAPC   H2R 4878   0.817   6.880   9.507
   62SAPC   H2S 4879   0.702   6.743   9.520
   62SAPC    C3 4880   0.770   7.185   9.862
   62SAPC    HX 4881   0.751   7.214   9.968
   62SAPC    HY 4882   0.696   7.237   9.797
   62SAPC   O31 4883   0.907   7.215   9.830
   62SAPC   C31 4884   0.932   7.307   9.737
   62SAPC   O32 4885   0.851   7.388   9.697
   62SAPC   C32 4886   1.081   7.302   9.701
   62SAPC   H2X 4887   1.135   7.238   9.774
   62SAPC   H2Y 4888   1.118   7.406   9.712
   62SAPC   C23 4889   0.608   6.927   9.450
   62SAPC   H3R 4890   0.505   6.895   9.478
   62SAPC   H3S 4891   0.624   6.896   9.344
   62SAPC   C24 4892   0.611   7.081   9.454
   62SAPC   H4R 4893   0.561   7.113   9.548
   62SAPC   H4S 4894   0.547   7.116   9.370
   62SAPC   C25 4895   0.747   7.146   9.450
   62SAPC   H5R 4896   0.805   7.131   9.542
   62SAPC   C26 4897   0.804   7.220   9.353
   62SAPC   H6R 4898   0.905   7.258   9.369
   62SAPC   C27 4899   0.746   7.259   9.220
   62SAPC   H7R 4900   0.714   7.366   9.227
   62SAPC   H7S 4901   0.654   7.200   9.201
   62SAPC   C28 4902   0.841   7.246   9.104
   62SAPC   H8R 4903   0.899   7.336   9.079
   62SAPC   C29 4904   0.853   7.136   9.028
   62SAPC   H9R 4905   0.921   7.136   8.941
   62SAPC  C210 4906   0.774   7.009   9.049
   62SAPC  H10R 4907   0.747   6.995   9.155
   62SAPC  H10S 4908   0.836   6.921   9.023
   62SAPC  C211 4909   0.648   7.013   8.966
   62SAPC  H11R 4910   0.558   7.044   9.022
   62SAPC  C212 4911   0.636   6.980   8.837
   62SAPC  H12R 4912   0.538   6.987   8.788
   62SAPC  C213 4913   0.748   6.930   8.750
   62SAPC  H13R 4914   0.721   6.832   8.705
   62SAPC  H13S 4915   0.838   6.908   8.812
   62SAPC  C214 4916   0.789   7.025   8.641
   62SAPC  H14R 4917   0.869   7.095   8.668
   62SAPC  C215 4918   0.736   7.031   8.518
   62SAPC  H15R 4919   0.785   7.096   8.444
   62SAPC  C216 4920   0.626   6.946   8.462
   62SAPC  H16R 4921   0.545   7.011   8.421
   62SAPC  H16S 4922   0.579   6.884   8.541
   62SAPC  C217 4923   0.680   6.857   8.350
   62SAPC  H17R 4924   0.602   6.783   8.322
   62SAPC  H17S 4925   0.767   6.799   8.387
   62SAPC  C218 4926   0.718   6.937   8.225
   62SAPC  H18R 4927   0.796   7.012   8.252
   62SAPC  H18S 4928   0.630   6.993   8.187
   62SAPC  C219 4929   0.776   6.846   8.117
   62SAPC  H19R 4930   0.845   6.775   8.167
   62SAPC  H19S 4931   0.837   6.907   8.047
   62SAPC  C220 4932   0.670   6.771   8.037
   62SAPC  H20R 4933   0.586   6.838   8.009
   62SAPC  H20S 4934   0.630   6.686   8.096
   62SAPC  H20T 4935   0.713   6.731   7.943
   62SAPC   C33 4936   1.113   7.255   9.556
   62SAPC   H3X 4937   1.221   7.276   9.540
   62SAPC   H3Y 4938   1.056   7.316   9.483
   62SAPC   C34 4939   1.095   7.104   9.531
   62SAPC   H4X 4940   0.994   7.072   9.564
   62SAPC   H4Y 4941   1.166   7.046   9.594
   62SAPC   C35 4942   1.114   7.061   9.383
   62SAPC   H5X 4943   1.223   7.052   9.361
   62SAPC   H5Y 4944   1.074   7.138   9.315
   62SAPC   C36 4945   1.043   6.928   9.351
   62SAPC   H6X 4946   0.933   6.946   9.356
   62SAPC   H6Y 4947   1.069   6.854   9.430
   62SAPC   C37 4948   1.071   6.867   9.213
   62SAPC   H7X 4949   1.180   6.845   9.205
   62SAPC   H7Y 4950   1.046   6.941   9.134
   62SAPC   C38 4951   0.993   6.736   9.189
   62SAPC   H8X 4952   0.884   6.758   9.181
   62SAPC   H8Y 4953   1.008   6.672   9.279
   62SAPC   C39 4954   1.040   6.656   9.066
   62SAPC   H9X 4955   0.997   6.554   9.072
   62SAPC   H9Y 4956   1.151   6.646   9.072
   62SAPC  C310 4957   1.002   6.717   8.930
   62SAPC  H10X 4958   1.029   6.825   8.929
   62SAPC  H10Y 4959   0.892   6.709   8.918
   62SAPC  C311 4960   1.072   6.646   8.813
   62SAPC  H11X 4961   1.059   6.537   8.827
   62SAPC  H11Y 4962   1.181   6.667   8.817
   62SAPC  C312 4963   1.016   6.682   8.674
   62SAPC  H12X 4964   0.906   6.666   8.675
   62SAPC  H12Y 4965   1.061   6.614   8.599
   62SAPC  C313 4966   1.041   6.826   8.628
   62SAPC  H13X 4967   1.014   6.896   8.709
   62SAPC  H13Y 4968   0.977   6.847   8.539
   62SAPC  C314 4969   1.185   6.856   8.590
   62SAPC  H14X 4970   1.222   6.787   8.511
   62SAPC  H14Y 4971   1.246   6.838   8.681
   62SAPC  C315 4972   1.202   7.003   8.547
   62SAPC  H15X 4973   1.301   7.036   8.584
   62SAPC  H15Y 4974   1.127   7.068   8.596
   62SAPC  C316 4975   1.201   7.023   8.395
   62SAPC  H16X 4976   1.220   6.927   8.342
   62SAPC  H16Y 4977   1.286   7.091   8.369
   62SAPC  C317 4978   1.072   7.087   8.343
   62SAPC  H17X 4979   1.057   7.184   8.394
   62SAPC  H17Y 4980   0.987   7.021   8.369
   62SAPC  C318 4981   1.074   7.110   8.191
   62SAPC  H18X 4982   1.069   7.012   8.138
   62SAPC  H18Y 4983   1.167   7.162   8.160
   62SAPC  H18Z 4984   0.987   7.171   8.160
   63SAPC     N 4985   3.735   4.257   5.906
   63SAPC   C12 4986   3.862   4.178   5.873
   63SAPC  H12A 4987   3.919   4.233   5.800
   63SAPC  H12B 4988   3.833   4.082   5.831
   63SAPC   C13 4989   3.773   4.393   5.952
   63SAPC  H13A 4990   3.849   4.381   6.028
   63SAPC  H13B 4991   3.821   4.450   5.874
   63SAPC  H13C 4992   3.690   4.447   5.996
   63SAPC   C14 4993   3.641   4.263   5.789
   63SAPC  H14A 4994   3.685   4.317   5.706
   63SAPC  H14B 4995   3.615   4.163   5.756
   63SAPC  H14C 4996   3.547   4.310   5.814
   63SAPC   C15 4997   3.668   4.190   6.020
   63SAPC  H15A 4998   3.577   4.240   6.049
   63SAPC  H15B 4999   3.645   4.087   5.997
   63SAPC  H15C 5000   3.735   4.185   6.105
   63SAPC   C11 5001   3.959   4.147   5.991
   63SAPC  H11A 5002   4.039   4.077   5.959
   63SAPC  H11B 5003   3.906   4.095   6.073
   63SAPC     P 5004   4.123   4.350   5.963
   63SAPC   O13 5005   4.238   4.265   5.926
   63SAPC   O14 5006   4.052   4.414   5.849
   63SAPC   O12 5007   4.016   4.266   6.042
   63SAPC   O11 5008   4.154   4.463   6.070
   63SAPC    C1 5009   4.049   4.493   6.163
   63SAPC    HA 5010   3.951   4.503   6.111
   63SAPC    HB 5011   4.039   4.414   6.241
   63SAPC    C2 5012   4.066   4.630   6.234
   63SAPC    HS 5013   4.113   4.698   6.160
   63SAPC   O21 5014   4.140   4.613   6.356
   63SAPC   C21 5015   4.234   4.704   6.374
   63SAPC   O22 5016   4.275   4.782   6.290
   63SAPC   C22 5017   4.263   4.716   6.524
   63SAPC   H2R 5018   4.187   4.785   6.567
   63SAPC   H2S 5019   4.250   4.617   6.572
   63SAPC    C3 5020   3.926   4.687   6.272
   63SAPC    HX 5021   3.864   4.694   6.180
   63SAPC    HY 5022   3.939   4.791   6.309
   63SAPC   O31 5023   3.861   4.598   6.367
   63SAPC   C31 5024   3.872   4.639   6.494
   63SAPC   O32 5025   3.882   4.755   6.529
   63SAPC   C32 5026   3.876   4.519   6.589
   63SAPC   H2X 5027   3.870   4.424   6.531
   63SAPC   H2Y 5028   3.785   4.529   6.653
   63SAPC   C23 5029   4.405   4.769   6.548
   63SAPC   H3R 5030   4.404   4.837   6.636
   63SAPC   H3S 5031   4.444   4.829   6.463
   63SAPC   C24 5032   4.500   4.653   6.578
   63SAPC   H4R 5033   4.473   4.620   6.680
   63SAPC   H4S 5034   4.605   4.691   6.581
   63SAPC   C25 5035   4.490   4.539   6.479
   63SAPC   H5R 5036   4.526   4.565   6.378
   63SAPC   C26 5037   4.441   4.414   6.500
   63SAPC   H6R 5038   4.441   4.346   6.414
   63SAPC   C27 5039   4.384   4.351   6.625
   63SAPC   H7R 5040   4.389   4.241   6.610
   63SAPC   H7S 5041   4.276   4.374   6.630
   63SAPC   C28 5042   4.445   4.378   6.761
   63SAPC   H8R 5043   4.530   4.448   6.765
   63SAPC   C29 5044   4.406   4.321   6.876
   63SAPC   H9R 5045   4.457   4.351   6.969
   63SAPC  C210 5046   4.295   4.220   6.892
   63SAPC  H10R 5047   4.262   4.181   6.794
   63SAPC  H10S 5048   4.206   4.270   6.935
   63SAPC  C211 5049   4.331   4.103   6.981
   63SAPC  H11R 5050   4.337   4.006   6.930
   63SAPC  C212 5051   4.356   4.109   7.113
   63SAPC  H12R 5052   4.377   4.015   7.167
   63SAPC  C213 5053   4.354   4.233   7.200
   63SAPC  H13R 5054   4.439   4.298   7.169
   63SAPC  H13S 5055   4.380   4.205   7.305
   63SAPC  C214 5056   4.226   4.313   7.204
   63SAPC  H14R 5057   4.229   4.410   7.152
   63SAPC  C215 5058   4.114   4.274   7.265
   63SAPC  H15R 5059   4.025   4.339   7.264
   63SAPC  C216 5060   4.097   4.144   7.340
   63SAPC  H16R 5061   4.189   4.081   7.340
   63SAPC  H16S 5062   4.018   4.083   7.290
   63SAPC  C217 5063   4.054   4.168   7.485
   63SAPC  H17R 5064   4.031   4.070   7.533
   63SAPC  H17S 5065   3.958   4.225   7.479
   63SAPC  C218 5066   4.151   4.246   7.575
   63SAPC  H18R 5067   4.195   4.333   7.522
   63SAPC  H18S 5068   4.233   4.180   7.608
   63SAPC  C219 5069   4.080   4.295   7.702
   63SAPC  H19R 5070   4.021   4.209   7.740
   63SAPC  H19S 5071   4.009   4.376   7.676
   63SAPC  C220 5072   4.173   4.338   7.814
   63SAPC  H20R 5073   4.248   4.412   7.778
   63SAPC  H20S 5074   4.226   4.249   7.852
   63SAPC  H20T 5075   4.115   4.384   7.897
   63SAPC   C33 5076   4.004   4.522   6.675
   63SAPC   H3X 5077   4.029   4.626   6.706
   63SAPC   H3Y 5078   4.088   4.485   6.612
   63SAPC   C34 5079   3.999   4.438   6.803
   63SAPC   H4X 5080   4.097   4.446   6.855
   63SAPC   H4Y 5081   3.985   4.331   6.775
   63SAPC   C35 5082   3.888   4.477   6.902
   63SAPC   H5X 5083   3.892   4.403   6.985
   63SAPC   H5Y 5084   3.790   4.466   6.852
   63SAPC   C36 5085   3.898   4.618   6.964
   63SAPC   H6X 5086   4.004   4.648   6.977
   63SAPC   H6Y 5087   3.852   4.608   7.065
   63SAPC   C37 5088   3.818   4.726   6.888
   63SAPC   H7X 5089   3.716   4.687   6.871
   63SAPC   H7Y 5090   3.863   4.740   6.788
   63SAPC   C38 5091   3.807   4.866   6.953
   63SAPC   H8X 5092   3.732   4.923   6.895
   63SAPC   H8Y 5093   3.905   4.917   6.939
   63SAPC   C39 5094   3.771   4.876   7.103
   63SAPC   H9X 5095   3.685   4.810   7.128
   63SAPC   H9Y 5096   3.737   4.981   7.121
   63SAPC  C310 5097   3.890   4.851   7.196
   63SAPC  H10X 5098   3.979   4.905   7.156
   63SAPC  H10Y 5099   3.916   4.743   7.195
   63SAPC  C311 5100   3.870   4.892   7.342
   63SAPC  H11X 5101   3.798   4.823   7.390
   63SAPC  H11Y 5102   3.827   4.995   7.347
   63SAPC  C312 5103   4.003   4.890   7.419
   63SAPC  H12X 5104   3.985   4.910   7.527
   63SAPC  H12Y 5105   4.066   4.974   7.383
   63SAPC  C313 5106   4.085   4.760   7.401
   63SAPC  H13X 5107   4.181   4.771   7.455
   63SAPC  H13Y 5108   4.112   4.746   7.294
   63SAPC  C314 5109   4.011   4.635   7.451
   63SAPC  H14X 5110   4.078   4.546   7.440
   63SAPC  H14Y 5111   3.921   4.616   7.389
   63SAPC  C315 5112   3.968   4.646   7.598
   63SAPC  H15X 5113   3.911   4.556   7.627
   63SAPC  H15Y 5114   3.899   4.733   7.609
   63SAPC  C316 5115   4.088   4.665   7.691
   63SAPC  H16X 5116   4.145   4.755   7.663
   63SAPC  H16Y 5117   4.155   4.578   7.677
   63SAPC  C317 5118   4.049   4.678   7.838
   63SAPC  H17X 5119   4.137   4.648   7.899
   63SAPC  H17Y 5120   3.970   4.603   7.863
   63SAPC  C318 5121   4.006   4.821   7.876
   63SAPC  H18X 5122   4.084   4.894   7.847
   63SAPC  H18Y 5123   3.992   4.831   7.986
   63SAPC  H18Z 5124   3.913   4.851   7.824
   64SAPC     N 5125   3.334   6.064   5.836
   64SAPC   C12 5126   3.426   6.179   5.877
   64SAPC  H12A 5127   3.368   6.270   5.875
   64SAPC  H12B 5128   3.505   6.188   5.805
   64SAPC   C13 5129   3.310   6.068   5.689
   64SAPC  H13A 5130   3.245   5.989   5.658
   64SAPC  H13B 5131   3.264   6.162   5.661
   64SAPC  H13C 5132   3.403   6.059   5.635
   64SAPC   C14 5133   3.395   5.934   5.876
   64SAPC  H14A 5134   3.493   5.923   5.832
   64SAPC  H14B 5135   3.409   5.935   5.983
   64SAPC  H14C 5136   3.333   5.850   5.848
   64SAPC   C15 5137   3.203   6.080   5.907
   64SAPC  H15A 5138   3.163   6.179   5.892
   64SAPC  H15B 5139   3.129   6.006   5.879
   64SAPC  H15C 5140   3.220   6.076   6.014
   64SAPC   C11 5141   3.491   6.173   6.018
   64SAPC  H11A 5142   3.556   6.262   6.032
   64SAPC  H11B 5143   3.557   6.085   6.026
   64SAPC     P 5144   3.306   6.295   6.155
   64SAPC   O13 5145   3.237   6.337   6.030
   64SAPC   O14 5146   3.223   6.260   6.272
   64SAPC   O12 5147   3.392   6.166   6.120
   64SAPC   O11 5148   3.418   6.400   6.190
   64SAPC    C1 5149   3.429   6.520   6.113
   64SAPC    HA 5150   3.483   6.499   6.018
   64SAPC    HB 5151   3.330   6.563   6.087
   64SAPC    C2 5152   3.506   6.630   6.191
   64SAPC    HS 5153   3.549   6.703   6.120
   64SAPC   O21 5154   3.610   6.578   6.272
   64SAPC   C21 5155   3.696   6.494   6.220
   64SAPC   O22 5156   3.716   6.470   6.102
   64SAPC   C22 5157   3.771   6.437   6.339
   64SAPC   H2R 5158   3.821   6.520   6.394
   64SAPC   H2S 5159   3.692   6.398   6.406
   64SAPC    C3 5160   3.410   6.706   6.285
   64SAPC    HX 5161   3.351   6.774   6.220
   64SAPC    HY 5162   3.467   6.769   6.357
   64SAPC   O31 5163   3.316   6.620   6.350
   64SAPC   C31 5164   3.346   6.572   6.470
   64SAPC   O32 5165   3.445   6.600   6.535
   64SAPC   C32 5166   3.229   6.485   6.515
   64SAPC   H2X 5167   3.248   6.382   6.478
   64SAPC   H2Y 5168   3.137   6.523   6.466
   64SAPC   C23 5169   3.875   6.328   6.306
   64SAPC   H3R 5170   3.967   6.374   6.265
   64SAPC   H3S 5171   3.835   6.258   6.229
   64SAPC   C24 5172   3.910   6.248   6.433
   64SAPC   H4R 5173   3.951   6.318   6.509
   64SAPC   H4S 5174   3.990   6.175   6.409
   64SAPC   C25 5175   3.785   6.177   6.482
   64SAPC   H5R 5176   3.738   6.114   6.405
   64SAPC   C26 5177   3.725   6.186   6.602
   64SAPC   H6R 5178   3.632   6.130   6.617
   64SAPC   C27 5179   3.767   6.269   6.721
   64SAPC   H7R 5180   3.865   6.318   6.700
   64SAPC   H7S 5181   3.788   6.201   6.806
   64SAPC   C28 5182   3.670   6.374   6.768
   64SAPC   H8R 5183   3.710   6.476   6.766
   64SAPC   C29 5184   3.540   6.362   6.803
   64SAPC   H9R 5185   3.487   6.454   6.831
   64SAPC  C210 5186   3.451   6.239   6.805
   64SAPC  H10R 5187   3.428   6.212   6.700
   64SAPC  H10S 5188   3.353   6.271   6.846
   64SAPC  C211 5189   3.489   6.113   6.879
   64SAPC  H11R 5190   3.544   6.040   6.817
   64SAPC  C212 5191   3.464   6.082   7.008
   64SAPC  H12R 5192   3.498   5.984   7.046
   64SAPC  C213 5193   3.394   6.166   7.110
   64SAPC  H13R 5194   3.351   6.257   7.063
   64SAPC  H13S 5195   3.469   6.204   7.182
   64SAPC  C214 5196   3.284   6.092   7.183
   64SAPC  H14R 5197   3.189   6.086   7.129
   64SAPC  C215 5198   3.292   6.038   7.306
   64SAPC  H15R 5199   3.202   5.994   7.351
   64SAPC  C216 5200   3.413   6.040   7.398
   64SAPC  H16R 5201   3.507   6.048   7.340
   64SAPC  H16S 5202   3.419   5.945   7.455
   64SAPC  C217 5203   3.407   6.158   7.496
   64SAPC  H17R 5204   3.407   6.252   7.437
   64SAPC  H17S 5205   3.500   6.156   7.557
   64SAPC  C218 5206   3.286   6.159   7.590
   64SAPC  H18R 5207   3.283   6.066   7.651
   64SAPC  H18S 5208   3.193   6.163   7.529
   64SAPC  C219 5209   3.284   6.281   7.684
   64SAPC  H19R 5210   3.184   6.287   7.733
   64SAPC  H19S 5211   3.296   6.374   7.624
   64SAPC  C220 5212   3.391   6.278   7.793
   64SAPC  H20R 5213   3.493   6.281   7.747
   64SAPC  H20S 5214   3.383   6.185   7.853
   64SAPC  H20T 5215   3.381   6.365   7.860
   64SAPC   C33 5216   3.208   6.481   6.668
   64SAPC   H3X 5217   3.219   6.582   6.713
   64SAPC   H3Y 5218   3.289   6.418   6.711
   64SAPC   C34 5219   3.071   6.427   6.710
   64SAPC   H4X 5220   3.066   6.319   6.684
   64SAPC   H4Y 5221   2.993   6.479   6.650
   64SAPC   C35 5222   3.040   6.448   6.859
   64SAPC   H5X 5223   2.947   6.393   6.885
   64SAPC   H5Y 5224   3.019   6.556   6.876
   64SAPC   C36 5225   3.154   6.403   6.953
   64SAPC   H6X 5226   3.249   6.454   6.925
   64SAPC   H6Y 5227   3.167   6.294   6.940
   64SAPC   C37 5228   3.128   6.433   7.101
   64SAPC   H7X 5229   3.126   6.338   7.159
   64SAPC   H7Y 5230   3.027   6.478   7.108
   64SAPC   C38 5231   3.226   6.532   7.165
   64SAPC   H8X 5232   3.175   6.578   7.252
   64SAPC   H8Y 5233   3.250   6.613   7.093
   64SAPC   C39 5234   3.359   6.475   7.218
   64SAPC   H9X 5235   3.424   6.451   7.131
   64SAPC   H9Y 5236   3.340   6.382   7.275
   64SAPC  C310 5237   3.432   6.575   7.309
   64SAPC  H10X 5238   3.398   6.562   7.414
   64SAPC  H10Y 5239   3.401   6.677   7.277
   64SAPC  C311 5240   3.585   6.569   7.299
   64SAPC  H11X 5241   3.627   6.651   7.362
   64SAPC  H11Y 5242   3.613   6.590   7.194
   64SAPC  C312 5243   3.652   6.437   7.338
   64SAPC  H12X 5244   3.760   6.444   7.310
   64SAPC  H12Y 5245   3.608   6.355   7.278
   64SAPC  C313 5246   3.645   6.401   7.487
   64SAPC  H13X 5247   3.695   6.302   7.501
   64SAPC  H13Y 5248   3.538   6.389   7.516
   64SAPC  C314 5249   3.709   6.502   7.582
   64SAPC  H14X 5250   3.786   6.563   7.529
   64SAPC  H14Y 5251   3.759   6.447   7.664
   64SAPC  C315 5252   3.603   6.593   7.644
   64SAPC  H15X 5253   3.521   6.530   7.684
   64SAPC  H15Y 5254   3.558   6.659   7.566
   64SAPC  C316 5255   3.656   6.679   7.757
   64SAPC  H16X 5256   3.741   6.742   7.723
   64SAPC  H16Y 5257   3.694   6.613   7.838
   64SAPC  C317 5258   3.544   6.766   7.811
   64SAPC  H17X 5259   3.448   6.714   7.791
   64SAPC  H17Y 5260   3.541   6.862   7.755
   64SAPC  C318 5261   3.554   6.793   7.959
   64SAPC  H18X 5262   3.653   6.836   7.984
   64SAPC  H18Y 5263   3.541   6.698   8.017
   64SAPC  H18Z 5264   3.474   6.863   7.992
   65SAPC     N 5265   4.737   6.319   5.754
   65SAPC   C12 5266   4.634   6.226   5.818
   65SAPC  H12A 5267   4.630   6.133   5.764
   65SAPC  H12B 5268   4.536   6.270   5.805
   65SAPC   C13 5269   4.874   6.278   5.796
   65SAPC  H13A 5270   4.898   6.178   5.761
   65SAPC  H13B 5271   4.947   6.348   5.757
   65SAPC  H13C 5272   4.878   6.278   5.904
   65SAPC   C14 5273   4.726   6.317   5.605
   65SAPC  H14A 5274   4.626   6.340   5.572
   65SAPC  H14B 5275   4.791   6.393   5.562
   65SAPC  H14C 5276   4.755   6.222   5.564
   65SAPC   C15 5277   4.713   6.459   5.802
   65SAPC  H15A 5278   4.792   6.525   5.771
   65SAPC  H15B 5279   4.619   6.498   5.765
   65SAPC  H15C 5280   4.706   6.459   5.910
   65SAPC   C11 5281   4.651   6.196   5.968
   65SAPC  H11A 5282   4.742   6.134   5.986
   65SAPC  H11B 5283   4.564   6.135   6.000
   65SAPC     P 5284   4.650   6.312   6.200
   65SAPC   O13 5285   4.529   6.387   6.238
   65SAPC   O14 5286   4.663   6.171   6.242
   65SAPC   O12 5287   4.659   6.317   6.042
   65SAPC   O11 5288   4.780   6.393   6.241
   65SAPC    C1 5289   4.870   6.453   6.148
   65SAPC    HA 5290   4.906   6.376   6.076
   65SAPC    HB 5291   4.818   6.531   6.088
   65SAPC    C2 5292   4.995   6.513   6.219
   65SAPC    HS 5293   5.048   6.576   6.144
   65SAPC   O21 5294   5.077   6.399   6.243
   65SAPC   C21 5295   5.135   6.390   6.360
   65SAPC   O22 5296   5.209   6.471   6.412
   65SAPC   C22 5297   5.103   6.255   6.417
   65SAPC   H2R 5298   5.103   6.182   6.333
   65SAPC   H2S 5299   5.187   6.234   6.486
   65SAPC    C3 5300   4.968   6.608   6.342
   65SAPC    HX 5301   4.923   6.701   6.300
   65SAPC    HY 5302   5.065   6.643   6.384
   65SAPC   O31 5303   4.881   6.551   6.443
   65SAPC   C31 5304   4.879   6.617   6.560
   65SAPC   O32 5305   4.954   6.708   6.589
   65SAPC   C32 5306   4.762   6.569   6.648
   65SAPC   H2X 5307   4.753   6.644   6.730
   65SAPC   H2Y 5308   4.788   6.471   6.694
   65SAPC   C23 5309   4.969   6.243   6.492
   65SAPC   H3R 5310   4.936   6.138   6.479
   65SAPC   H3S 5311   4.889   6.305   6.446
   65SAPC   C24 5312   4.982   6.273   6.643
   65SAPC   H4R 5313   4.972   6.383   6.659
   65SAPC   H4S 5314   5.086   6.251   6.676
   65SAPC   C25 5315   4.886   6.192   6.726
   65SAPC   H5R 5316   4.853   6.098   6.680
   65SAPC   C26 5317   4.840   6.224   6.848
   65SAPC   H6R 5318   4.771   6.155   6.899
   65SAPC   C27 5319   4.877   6.348   6.925
   65SAPC   H7R 5320   4.794   6.422   6.915
   65SAPC   H7S 5321   4.966   6.397   6.879
   65SAPC   C28 5322   4.899   6.323   7.072
   65SAPC   H8R 5323   4.814   6.281   7.126
   65SAPC   C29 5324   5.013   6.348   7.140
   65SAPC   H9R 5325   5.015   6.326   7.248
   65SAPC  C210 5326   5.141   6.406   7.084
   65SAPC  H10R 5327   5.182   6.332   7.012
   65SAPC  H10S 5328   5.217   6.410   7.165
   65SAPC  C211 5329   5.138   6.541   7.016
   65SAPC  H11R 5330   5.159   6.535   6.908
   65SAPC  C212 5331   5.113   6.664   7.067
   65SAPC  H12R 5332   5.119   6.748   6.996
   65SAPC  C213 5333   5.081   6.710   7.207
   65SAPC  H13R 5334   4.978   6.752   7.206
   65SAPC  H13S 5335   5.147   6.796   7.232
   65SAPC  C214 5336   5.095   6.612   7.320
   65SAPC  H14R 5337   5.188   6.553   7.320
   65SAPC  C215 5338   5.007   6.591   7.419
   65SAPC  H15R 5339   5.027   6.507   7.487
   65SAPC  C216 5340   4.876   6.662   7.441
   65SAPC  H16R 5341   4.821   6.611   7.523
   65SAPC  H16S 5342   4.814   6.651   7.349
   65SAPC  C217 5343   4.881   6.812   7.476
   65SAPC  H17R 5344   4.775   6.845   7.485
   65SAPC  H17S 5345   4.927   6.870   7.394
   65SAPC  C218 5346   4.954   6.845   7.608
   65SAPC  H18R 5347   5.052   6.889   7.582
   65SAPC  H18S 5348   4.974   6.750   7.662
   65SAPC  C219 5349   4.879   6.939   7.704
   65SAPC  H19R 5350   4.789   6.981   7.653
   65SAPC  H19S 5351   4.946   7.024   7.729
   65SAPC  C220 5352   4.837   6.872   7.835
   65SAPC  H20R 5353   4.778   6.942   7.898
   65SAPC  H20S 5354   4.927   6.841   7.892
   65SAPC  H20T 5355   4.776   6.781   7.815
   65SAPC   C33 5356   4.627   6.555   6.575
   65SAPC   H3X 5357   4.625   6.463   6.514
   65SAPC   H3Y 5358   4.614   6.641   6.506
   65SAPC   C34 5359   4.503   6.561   6.667
   65SAPC   H4X 5360   4.415   6.573   6.601
   65SAPC   H4Y 5361   4.509   6.652   6.731
   65SAPC   C35 5362   4.480   6.437   6.754
   65SAPC   H5X 5363   4.557   6.432   6.833
   65SAPC   H5Y 5364   4.488   6.346   6.691
   65SAPC   C36 5365   4.340   6.443   6.816
   65SAPC   H6X 5366   4.266   6.452   6.733
   65SAPC   H6Y 5367   4.332   6.536   6.876
   65SAPC   C37 5368   4.300   6.322   6.902
   65SAPC   H7X 5369   4.311   6.229   6.842
   65SAPC   H7Y 5370   4.192   6.332   6.928
   65SAPC   C38 5371   4.378   6.308   7.033
   65SAPC   H8X 5372   4.485   6.287   7.009
   65SAPC   H8Y 5373   4.339   6.220   7.089
   65SAPC   C39 5374   4.368   6.431   7.125
   65SAPC   H9X 5375   4.262   6.459   7.137
   65SAPC   H9Y 5376   4.421   6.516   7.076
   65SAPC  C310 5377   4.430   6.410   7.264
   65SAPC  H10X 5378   4.371   6.336   7.321
   65SAPC  H10Y 5379   4.425   6.507   7.318
   65SAPC  C311 5380   4.577   6.365   7.258
   65SAPC  H11X 5381   4.625   6.415   7.171
   65SAPC  H11Y 5382   4.582   6.255   7.240
   65SAPC  C312 5383   4.657   6.403   7.383
   65SAPC  H12X 5384   4.648   6.513   7.396
   65SAPC  H12Y 5385   4.765   6.379   7.366
   65SAPC  C313 5386   4.612   6.336   7.513
   65SAPC  H13X 5387   4.628   6.226   7.507
   65SAPC  H13Y 5388   4.504   6.354   7.529
   65SAPC  C314 5389   4.690   6.393   7.633
   65SAPC  H14X 5390   4.671   6.502   7.639
   65SAPC  H14Y 5391   4.798   6.377   7.617
   65SAPC  C315 5392   4.650   6.331   7.768
   65SAPC  H15X 5393   4.668   6.222   7.764
   65SAPC  H15Y 5394   4.542   6.349   7.785
   65SAPC  C316 5395   4.729   6.392   7.885
   65SAPC  H16X 5396   4.715   6.502   7.884
   65SAPC  H16Y 5397   4.837   6.372   7.870
   65SAPC  C317 5398   4.688   6.338   8.023
   65SAPC  H17X 5399   4.578   6.354   8.036
   65SAPC  H17Y 5400   4.738   6.399   8.101
   65SAPC  C318 5401   4.722   6.191   8.047
   65SAPC  H18X 5402   4.832   6.176   8.042
   65SAPC  H18Y 5403   4.675   6.126   7.970
   65SAPC  H18Z 5404   4.686   6.158   8.147
   66SAPC     N 5405   2.007   5.964   6.051
   66SAPC   C12 5406   2.132   6.051   6.046
   66SAPC  H12A 5407   2.215   5.993   6.009
   66SAPC  H12B 5408   2.157   6.082   6.147
   66SAPC   C13 5409   1.898   6.036   6.125
   66SAPC  H13A 5410   1.924   6.052   6.229
   66SAPC  H13B 5411   1.885   6.134   6.081
   66SAPC  H13C 5412   1.804   5.983   6.120
   66SAPC   C14 5413   1.959   5.940   5.911
   66SAPC  H14A 5414   1.931   6.034   5.867
   66SAPC  H14B 5415   2.037   5.896   5.851
   66SAPC  H14C 5416   1.873   5.875   5.910
   66SAPC   C15 5417   2.033   5.832   6.117
   66SAPC  H15A 5418   2.102   5.772   6.060
   66SAPC  H15B 5419   2.072   5.844   6.218
   66SAPC  H15C 5420   1.942   5.775   6.124
   66SAPC   C11 5421   2.126   6.181   5.961
   66SAPC  H11A 5422   2.123   6.152   5.853
   66SAPC  H11B 5423   2.221   6.237   5.976
   66SAPC     P 5424   1.927   6.341   5.895
   66SAPC   O13 5425   2.004   6.364   5.770
   66SAPC   O14 5426   1.798   6.269   5.884
   66SAPC   O12 5427   2.017   6.264   5.999
   66SAPC   O11 5428   1.903   6.481   5.966
   66SAPC    C1 5429   1.824   6.488   6.085
   66SAPC    HA 5430   1.746   6.566   6.072
   66SAPC    HB 5431   1.770   6.394   6.108
   66SAPC    C2 5432   1.907   6.524   6.212
   66SAPC    HS 5433   1.947   6.627   6.197
   66SAPC   O21 5434   2.016   6.431   6.224
   66SAPC   C21 5435   2.094   6.435   6.330
   66SAPC   O22 5436   2.087   6.513   6.422
   66SAPC   C22 5437   2.202   6.330   6.318
   66SAPC   H2R 5438   2.239   6.330   6.213
   66SAPC   H2S 5439   2.285   6.364   6.384
   66SAPC    C3 5440   1.813   6.528   6.336
   66SAPC    HX 5441   1.725   6.590   6.308
   66SAPC    HY 5442   1.862   6.582   6.420
   66SAPC   O31 5443   1.769   6.394   6.368
   66SAPC   C31 5444   1.789   6.355   6.492
   66SAPC   O32 5445   1.829   6.424   6.584
   66SAPC   C32 5446   1.757   6.206   6.505
   66SAPC   H2X 5447   1.854   6.151   6.509
   66SAPC   H2Y 5448   1.699   6.171   6.417
   66SAPC   C23 5449   2.158   6.188   6.360
   66SAPC   H3R 5450   2.239   6.117   6.337
   66SAPC   H3S 5451   2.069   6.161   6.300
   66SAPC   C24 5452   2.121   6.175   6.510
   66SAPC   H4R 5453   2.069   6.077   6.522
   66SAPC   H4S 5454   2.047   6.254   6.533
   66SAPC   C25 5455   2.234   6.181   6.609
   66SAPC   H5R 5456   2.336   6.168   6.568
   66SAPC   C26 5457   2.217   6.204   6.740
   66SAPC   H6R 5458   2.306   6.210   6.806
   66SAPC   C27 5459   2.084   6.226   6.809
   66SAPC   H7R 5460   1.999   6.202   6.742
   66SAPC   H7S 5461   2.075   6.335   6.829
   66SAPC   C28 5462   2.068   6.146   6.936
   66SAPC   H8R 5463   2.082   6.038   6.925
   66SAPC   C29 5464   2.035   6.195   7.058
   66SAPC   H9R 5465   2.027   6.125   7.142
   66SAPC  C210 5466   2.010   6.340   7.090
   66SAPC  H10R 5467   1.972   6.393   7.000
   66SAPC  H10S 5468   2.107   6.388   7.115
   66SAPC  C211 5469   1.909   6.363   7.200
   66SAPC  H11R 5470   1.828   6.289   7.208
   66SAPC  C212 5471   1.911   6.466   7.287
   66SAPC  H12R 5472   1.828   6.475   7.359
   66SAPC  C213 5473   2.014   6.576   7.289
   66SAPC  H13R 5474   2.006   6.636   7.196
   66SAPC  H13S 5475   2.116   6.531   7.286
   66SAPC  C214 5476   2.007   6.671   7.408
   66SAPC  H14R 5477   1.947   6.761   7.391
   66SAPC  C215 5478   2.063   6.650   7.529
   66SAPC  H15R 5479   2.049   6.725   7.608
   66SAPC  C216 5480   2.142   6.527   7.566
   66SAPC  H16R 5481   2.242   6.532   7.516
   66SAPC  H16S 5482   2.095   6.437   7.521
   66SAPC  C217 5483   2.167   6.503   7.717
   66SAPC  H17R 5484   2.110   6.577   7.776
   66SAPC  H17S 5485   2.274   6.519   7.742
   66SAPC  C218 5486   2.126   6.361   7.763
   66SAPC  H18R 5487   2.082   6.309   7.675
   66SAPC  H18S 5488   2.046   6.370   7.839
   66SAPC  C219 5489   2.235   6.269   7.819
   66SAPC  H19R 5490   2.200   6.231   7.918
   66SAPC  H19S 5491   2.329   6.324   7.838
   66SAPC  C220 5492   2.261   6.150   7.727
   66SAPC  H20R 5493   2.165   6.098   7.707
   66SAPC  H20S 5494   2.333   6.078   7.773
   66SAPC  H20T 5495   2.301   6.183   7.629
   66SAPC   C33 5496   1.679   6.180   6.635
   66SAPC   H3X 5497   1.570   6.184   6.616
   66SAPC   H3Y 5498   1.704   6.258   6.710
   66SAPC   C34 5499   1.708   6.048   6.707
   66SAPC   H4X 5500   1.817   6.032   6.719
   66SAPC   H4Y 5501   1.665   5.963   6.650
   66SAPC   C35 5502   1.644   6.059   6.846
   66SAPC   H5X 5503   1.540   6.096   6.835
   66SAPC   H5Y 5504   1.699   6.136   6.904
   66SAPC   C36 5505   1.640   5.929   6.924
   66SAPC   H6X 5506   1.741   5.883   6.928
   66SAPC   H6Y 5507   1.572   5.858   6.872
   66SAPC   C37 5508   1.589   5.956   7.066
   66SAPC   H7X 5509   1.552   5.861   7.111
   66SAPC   H7Y 5510   1.502   6.025   7.063
   66SAPC   C38 5511   1.696   6.014   7.158
   66SAPC   H8X 5512   1.715   6.120   7.130
   66SAPC   H8Y 5513   1.790   5.957   7.146
   66SAPC   C39 5514   1.650   6.004   7.303
   66SAPC   H9X 5515   1.631   5.898   7.327
   66SAPC   H9Y 5516   1.554   6.059   7.316
   66SAPC  C310 5517   1.752   6.058   7.403
   66SAPC  H10X 5518   1.767   6.168   7.388
   66SAPC  H10Y 5519   1.850   6.008   7.389
   66SAPC  C311 5520   1.700   6.031   7.544
   66SAPC  H11X 5521   1.681   5.921   7.549
   66SAPC  H11Y 5522   1.604   6.084   7.559
   66SAPC  C312 5523   1.796   6.063   7.658
   66SAPC  H12X 5524   1.883   5.995   7.649
   66SAPC  H12Y 5525   1.747   6.041   7.755
   66SAPC  C313 5526   1.848   6.206   7.658
   66SAPC  H13X 5527   1.915   6.219   7.571
   66SAPC  H13Y 5528   1.908   6.217   7.751
   66SAPC  C314 5529   1.743   6.319   7.656
   66SAPC  H14X 5530   1.683   6.315   7.750
   66SAPC  H14Y 5531   1.675   6.307   7.569
   66SAPC  C315 5532   1.818   6.452   7.644
   66SAPC  H15X 5533   1.879   6.446   7.551
   66SAPC  H15Y 5534   1.892   6.456   7.727
   66SAPC  C316 5535   1.742   6.585   7.647
   66SAPC  H16X 5536   1.770   6.645   7.557
   66SAPC  H16Y 5537   1.778   6.643   7.734
   66SAPC  C317 5538   1.591   6.577   7.652
   66SAPC  H17X 5539   1.560   6.495   7.720
   66SAPC  H17Y 5540   1.555   6.553   7.550
   66SAPC  C318 5541   1.529   6.708   7.700
   66SAPC  H18X 5542   1.421   6.715   7.675
   66SAPC  H18Y 5543   1.582   6.794   7.653
   66SAPC  H18Z 5544   1.538   6.719   7.811
   67SAPC     N 5545   6.701   2.101   6.058
   67SAPC   C12 5546   6.754   1.969   6.110
   67SAPC  H12A 5547   6.741   1.964   6.217
   67SAPC  H12B 5548   6.860   1.964   6.090
   67SAPC   C13 5549   6.778   2.215   6.116
   67SAPC  H13A 5550   6.760   2.224   6.222
   67SAPC  H13B 5551   6.884   2.201   6.100
   67SAPC  H13C 5552   6.751   2.306   6.064
   67SAPC   C14 5553   6.715   2.105   5.909
   67SAPC  H14A 5554   6.665   2.018   5.868
   67SAPC  H14B 5555   6.669   2.192   5.864
   67SAPC  H14C 5556   6.818   2.096   5.878
   67SAPC   C15 5557   6.554   2.113   6.088
   67SAPC  H15A 5558   6.512   2.203   6.046
   67SAPC  H15B 5559   6.502   2.032   6.039
   67SAPC  H15C 5560   6.532   2.108   6.193
   67SAPC   C11 5561   6.695   1.841   6.048
   67SAPC  H11A 5562   6.584   1.840   6.057
   67SAPC  H11B 5563   6.735   1.755   6.105
   67SAPC     P 5564   6.687   1.710   5.825
   67SAPC   O13 5565   6.540   1.703   5.837
   67SAPC   O14 5566   6.746   1.727   5.690
   67SAPC   O12 5567   6.738   1.831   5.912
   67SAPC   O11 5568   6.754   1.588   5.899
   67SAPC    C1 5569   6.896   1.589   5.918
   67SAPC    HA 5570   6.945   1.551   5.826
   67SAPC    HB 5571   6.936   1.691   5.938
   67SAPC    C2 5572   6.943   1.500   6.036
   67SAPC    HS 5573   6.909   1.395   6.020
   67SAPC   O21 5574   6.897   1.549   6.161
   67SAPC   C21 5575   6.778   1.535   6.207
   67SAPC   O22 5576   6.681   1.487   6.152
   67SAPC   C22 5577   6.780   1.601   6.345
   67SAPC   H2R 5578   6.881   1.581   6.388
   67SAPC   H2S 5579   6.769   1.711   6.331
   67SAPC    C3 5580   7.098   1.505   6.045
   67SAPC    HX 5581   7.140   1.458   5.953
   67SAPC    HY 5582   7.133   1.443   6.130
   67SAPC   O31 5583   7.145   1.642   6.053
   67SAPC   C31 5584   7.133   1.697   6.173
   67SAPC   O32 5585   7.110   1.638   6.277
   67SAPC   C32 5586   7.152   1.849   6.163
   67SAPC   H2X 5587   7.083   1.887   6.085
   67SAPC   H2Y 5588   7.257   1.867   6.129
   67SAPC   C23 5589   6.675   1.549   6.445
   67SAPC   H3R 5590   6.714   1.567   6.547
   67SAPC   H3S 5591   6.666   1.439   6.433
   67SAPC   C24 5592   6.540   1.623   6.438
   67SAPC   H4R 5593   6.503   1.619   6.334
   67SAPC   H4S 5594   6.555   1.730   6.464
   67SAPC   C25 5595   6.444   1.553   6.531
   67SAPC   H5R 5596   6.412   1.455   6.493
   67SAPC   C26 5597   6.393   1.591   6.650
   67SAPC   H6R 5598   6.326   1.519   6.698
   67SAPC   C27 5599   6.411   1.715   6.736
   67SAPC   H7R 5600   6.398   1.678   6.839
   67SAPC   H7S 5601   6.323   1.782   6.719
   67SAPC   C28 5602   6.534   1.802   6.740
   67SAPC   H8R 5603   6.607   1.788   6.659
   67SAPC   C29 5604   6.562   1.889   6.839
   67SAPC   H9R 5605   6.656   1.946   6.835
   67SAPC  C210 5606   6.476   1.916   6.961
   67SAPC  H10R 5607   6.416   1.827   6.989
   67SAPC  H10S 5608   6.401   1.994   6.935
   67SAPC  C211 5609   6.554   1.965   7.081
   67SAPC  H11R 5610   6.608   2.060   7.065
   67SAPC  C212 5611   6.562   1.908   7.203
   67SAPC  H12R 5612   6.623   1.959   7.280
   67SAPC  C213 5613   6.495   1.781   7.250
   67SAPC  H13R 5614   6.469   1.715   7.164
   67SAPC  H13S 5615   6.399   1.807   7.298
   67SAPC  C214 5616   6.581   1.703   7.347
   67SAPC  H14R 5617   6.642   1.624   7.301
   67SAPC  C215 5618   6.591   1.720   7.480
   67SAPC  H15R 5619   6.659   1.654   7.536
   67SAPC  C216 5620   6.520   1.823   7.565
   67SAPC  H16R 5621   6.442   1.877   7.508
   67SAPC  H16S 5622   6.593   1.900   7.599
   67SAPC  C217 5623   6.454   1.763   7.691
   67SAPC  H17R 5624   6.379   1.686   7.662
   67SAPC  H17S 5625   6.400   1.845   7.743
   67SAPC  C218 5626   6.554   1.702   7.791
   67SAPC  H18R 5627   6.637   1.775   7.806
   67SAPC  H18S 5628   6.598   1.609   7.748
   67SAPC  C219 5629   6.495   1.670   7.929
   67SAPC  H19R 5630   6.458   1.766   7.973
   67SAPC  H19S 5631   6.576   1.633   7.995
   67SAPC  C220 5632   6.379   1.570   7.929
   67SAPC  H20R 5633   6.294   1.609   7.869
   67SAPC  H20S 5634   6.343   1.553   8.032
   67SAPC  H20T 5635   6.412   1.473   7.886
   67SAPC   C33 5636   7.128   1.919   6.298
   67SAPC   H3X 5637   7.157   2.026   6.290
   67SAPC   H3Y 5638   7.195   1.875   6.375
   67SAPC   C34 5639   6.982   1.910   6.346
   67SAPC   H4X 5640   6.928   1.842   6.277
   67SAPC   H4Y 5641   6.934   2.010   6.341
   67SAPC   C35 5642   6.966   1.852   6.488
   67SAPC   H5X 5643   7.021   1.756   6.496
   67SAPC   H5Y 5644   6.858   1.830   6.505
   67SAPC   C36 5645   7.013   1.949   6.597
   67SAPC   H6X 5646   7.000   2.050   6.553
   67SAPC   H6Y 5647   7.122   1.936   6.616
   67SAPC   C37 5648   6.933   1.944   6.729
   67SAPC   H7X 5649   6.844   1.878   6.719
   67SAPC   H7Y 5650   6.894   2.046   6.750
   67SAPC   C38 5651   7.015   1.901   6.852
   67SAPC   H8X 5652   7.120   1.933   6.842
   67SAPC   H8Y 5653   7.019   1.790   6.860
   67SAPC   C39 5654   6.956   1.949   6.985
   67SAPC   H9X 5655   6.850   1.919   6.991
   67SAPC   H9Y 5656   6.962   2.060   6.993
   67SAPC  C310 5657   7.032   1.885   7.101
   67SAPC  H10X 5658   7.136   1.924   7.106
   67SAPC  H10Y 5659   7.039   1.776   7.080
   67SAPC  C311 5660   6.965   1.901   7.236
   67SAPC  H11X 5661   6.854   1.895   7.225
   67SAPC  H11Y 5662   6.990   1.999   7.280
   67SAPC  C312 5663   7.009   1.787   7.328
   67SAPC  H12X 5664   7.119   1.774   7.324
   67SAPC  H12Y 5665   6.963   1.693   7.292
   67SAPC  C313 5666   6.968   1.811   7.473
   67SAPC  H13X 5667   6.862   1.841   7.476
   67SAPC  H13Y 5668   7.029   1.893   7.518
   67SAPC  C314 5669   6.985   1.683   7.554
   67SAPC  H14X 5670   7.092   1.658   7.568
   67SAPC  H14Y 5671   6.938   1.601   7.495
   67SAPC  C315 5672   6.914   1.693   7.689
   67SAPC  H15X 5673   6.808   1.721   7.672
   67SAPC  H15Y 5674   6.961   1.774   7.749
   67SAPC  C316 5675   6.919   1.563   7.769
   67SAPC  H16X 5676   6.851   1.575   7.856
   67SAPC  H16Y 5677   7.023   1.550   7.806
   67SAPC  C317 5678   6.880   1.435   7.693
   67SAPC  H17X 5679   6.947   1.422   7.605
   67SAPC  H17Y 5680   6.776   1.445   7.656
   67SAPC  C318 5681   6.894   1.309   7.779
   67SAPC  H18X 5682   6.995   1.306   7.826
   67SAPC  H18Y 5683   6.885   1.218   7.717
   67SAPC  H18Z 5684   6.818   1.307   7.859
   68SAPC     N 5685   2.486   0.303   5.957
   68SAPC   C12 5686   2.520   0.175   5.883
   68SAPC  H12A 5687   2.552   0.201   5.783
   68SAPC  H12B 5688   2.430   0.116   5.872
   68SAPC   C13 5689   2.449   0.272   6.099
   68SAPC  H13A 5690   2.532   0.225   6.149
   68SAPC  H13B 5691   2.421   0.361   6.153
   68SAPC  H13C 5692   2.366   0.204   6.102
   68SAPC   C14 5693   2.605   0.393   5.949
   68SAPC  H14A 5694   2.592   0.488   5.998
   68SAPC  H14B 5695   2.692   0.341   5.988
   68SAPC  H14C 5696   2.630   0.413   5.846
   68SAPC   C15 5697   2.370   0.370   5.888
   68SAPC  H15A 5698   2.393   0.390   5.785
   68SAPC  H15B 5699   2.281   0.308   5.891
   68SAPC  H15C 5700   2.346   0.465   5.933
   68SAPC   C11 5701   2.632   0.085   5.943
   68SAPC  H11A 5702   2.643  -0.003   5.876
   68SAPC  H11B 5703   2.601   0.049   6.043
   68SAPC     P 5704   2.882   0.090   6.014
   68SAPC   O13 5705   2.849  -0.048   6.054
   68SAPC   O14 5706   2.992   0.108   5.917
   68SAPC   O12 5707   2.755   0.155   5.948
   68SAPC   O11 5708   2.904   0.187   6.135
   68SAPC    C1 5709   2.800   0.226   6.226
   68SAPC    HA 5710   2.800   0.337   6.234
   68SAPC    HB 5711   2.699   0.192   6.196
   68SAPC    C2 5712   2.832   0.166   6.364
   68SAPC    HS 5713   2.941   0.186   6.375
   68SAPC   O21 5714   2.802   0.025   6.356
   68SAPC   C21 5715   2.887  -0.044   6.430
   68SAPC   O22 5716   2.968   0.007   6.506
   68SAPC   C22 5717   2.877  -0.194   6.403
   68SAPC   H2R 5718   2.845  -0.210   6.298
   68SAPC   H2S 5719   2.979  -0.234   6.415
   68SAPC    C3 5720   2.763   0.236   6.486
   68SAPC    HX 5721   2.780   0.345   6.476
   68SAPC    HY 5722   2.820   0.202   6.575
   68SAPC   O31 5723   2.621   0.207   6.502
   68SAPC   C31 5724   2.578   0.256   6.620
   68SAPC   O32 5725   2.643   0.332   6.690
   68SAPC   C32 5726   2.437   0.208   6.654
   68SAPC   H2X 5727   2.399   0.141   6.573
   68SAPC   H2Y 5728   2.374   0.299   6.656
   68SAPC   C23 5729   2.784  -0.269   6.501
   68SAPC   H3R 5730   2.807  -0.377   6.492
   68SAPC   H3S 5731   2.678  -0.256   6.469
   68SAPC   C24 5732   2.803  -0.227   6.648
   68SAPC   H4R 5733   2.912  -0.213   6.667
   68SAPC   H4S 5734   2.774  -0.313   6.711
   68SAPC   C25 5735   2.720  -0.107   6.688
   68SAPC   H5R 5736   2.615  -0.110   6.655
   68SAPC   C26 5737   2.759   0.002   6.755
   68SAPC   H6R 5738   2.686   0.078   6.782
   68SAPC   C27 5739   2.897   0.030   6.806
   68SAPC   H7R 5740   2.930   0.128   6.767
   68SAPC   H7S 5741   2.971  -0.043   6.766
   68SAPC   C28 5742   2.898   0.024   6.956
   68SAPC   H8R 5743   2.864  -0.071   7.000
   68SAPC   C29 5744   2.934   0.125   7.036
   68SAPC   H9R 5745   2.934   0.110   7.145
   68SAPC  C210 5746   2.978   0.261   6.989
   68SAPC  H10R 5747   3.049   0.250   6.905
   68SAPC  H10S 5748   3.031   0.312   7.072
   68SAPC  C211 5749   2.865   0.349   6.942
   68SAPC  H11R 5750   2.869   0.381   6.837
   68SAPC  C212 5751   2.761   0.387   7.018
   68SAPC  H12R 5752   2.682   0.449   6.973
   68SAPC  C213 5753   2.739   0.348   7.163
   68SAPC  H13R 5754   2.721   0.440   7.222
   68SAPC  H13S 5755   2.830   0.303   7.208
   68SAPC  C214 5756   2.624   0.253   7.178
   68SAPC  H14R 5757   2.604   0.189   7.091
   68SAPC  C215 5758   2.548   0.240   7.287
   68SAPC  H15R 5759   2.466   0.167   7.285
   68SAPC  C216 5760   2.559   0.315   7.418
   68SAPC  H16R 5761   2.641   0.390   7.417
   68SAPC  H16S 5762   2.584   0.242   7.498
   68SAPC  C217 5763   2.427   0.385   7.452
   68SAPC  H17R 5764   2.343   0.312   7.450
   68SAPC  H17S 5765   2.405   0.462   7.375
   68SAPC  C218 5766   2.428   0.454   7.590
   68SAPC  H18R 5767   2.330   0.504   7.605
   68SAPC  H18S 5768   2.506   0.533   7.589
   68SAPC  C219 5769   2.454   0.360   7.709
   68SAPC  H19R 5770   2.454   0.421   7.802
   68SAPC  H19S 5771   2.556   0.316   7.700
   68SAPC  C220 5772   2.352   0.247   7.724
   68SAPC  H20R 5773   2.250   0.288   7.742
   68SAPC  H20S 5774   2.379   0.181   7.808
   68SAPC  H20T 5775   2.348   0.184   7.632
   68SAPC   C33 5776   2.424   0.136   6.792
   68SAPC   H3X 5777   2.496   0.178   6.865
   68SAPC   H3Y 5778   2.447   0.028   6.780
   68SAPC   C34 5779   2.283   0.153   6.852
   68SAPC   H4X 5780   2.211   0.136   6.769
   68SAPC   H4Y 5781   2.270   0.257   6.888
   68SAPC   C35 5782   2.242   0.053   6.963
   68SAPC   H5X 5783   2.263  -0.049   6.926
   68SAPC   H5Y 5784   2.132   0.061   6.975
   68SAPC   C36 5785   2.304   0.073   7.103
   68SAPC   H6X 5786   2.281   0.175   7.138
   68SAPC   H6Y 5787   2.414   0.061   7.096
   68SAPC   C37 5788   2.247  -0.030   7.203
   68SAPC   H7X 5789   2.289  -0.129   7.176
   68SAPC   H7Y 5790   2.137  -0.035   7.187
   68SAPC   C38 5791   2.270  -0.008   7.354
   68SAPC   H8X 5792   2.189  -0.059   7.409
   68SAPC   H8Y 5793   2.262   0.101   7.378
   68SAPC   C39 5794   2.403  -0.064   7.407
   68SAPC   H9X 5795   2.464   0.017   7.453
   68SAPC   H9Y 5796   2.461  -0.100   7.318
   68SAPC  C310 5797   2.392  -0.180   7.509
   68SAPC  H10X 5798   2.299  -0.238   7.490
   68SAPC  H10Y 5799   2.385  -0.137   7.611
   68SAPC  C311 5800   2.511  -0.277   7.496
   68SAPC  H11X 5801   2.591  -0.225   7.440
   68SAPC  H11Y 5802   2.478  -0.360   7.429
   68SAPC  C312 5803   2.577  -0.339   7.620
   68SAPC  H12X 5804   2.671  -0.389   7.588
   68SAPC  H12Y 5805   2.511  -0.418   7.663
   68SAPC  C313 5806   2.610  -0.237   7.727
   68SAPC  H13X 5807   2.668  -0.283   7.810
   68SAPC  H13Y 5808   2.511  -0.206   7.769
   68SAPC  C314 5809   2.683  -0.113   7.675
   68SAPC  H14X 5810   2.679  -0.104   7.565
   68SAPC  H14Y 5811   2.791  -0.122   7.700
   68SAPC  C315 5812   2.624   0.018   7.727
   68SAPC  H15X 5813   2.513   0.015   7.726
   68SAPC  H15Y 5814   2.655   0.100   7.659
   68SAPC  C316 5815   2.678   0.048   7.865
   68SAPC  H16X 5816   2.678   0.157   7.886
   68SAPC  H16Y 5817   2.783   0.013   7.867
   68SAPC  C317 5818   2.606  -0.027   7.975
   68SAPC  H17X 5819   2.534  -0.102   7.937
   68SAPC  H17Y 5820   2.543   0.050   8.026
   68SAPC  C318 5821   2.701  -0.095   8.071
   68SAPC  H18X 5822   2.784  -0.027   8.101
   68SAPC  H18Y 5823   2.747  -0.185   8.024
   68SAPC  H18Z 5824   2.647  -0.124   8.164
   69SLPC     N 5825   3.266   4.425   9.637
   69SLPC   C13 5826   3.178   4.309   9.601
   69SLPC  H13A 5827   3.081   4.314   9.650
   69SLPC  H13B 5828   3.162   4.299   9.495
   69SLPC  H13C 5829   3.227   4.218   9.632
   69SLPC   C14 5830   3.273   4.436   9.787
   69SLPC  H14A 5831   3.176   4.443   9.833
   69SLPC  H14B 5832   3.321   4.347   9.827
   69SLPC  H14C 5833   3.333   4.519   9.820
   69SLPC   C15 5834   3.207   4.551   9.582
   69SLPC  H15A 5835   3.266   4.637   9.610
   69SLPC  H15B 5836   3.199   4.547   9.474
   69SLPC  H15C 5837   3.108   4.566   9.622
   69SLPC   C12 5838   3.405   4.395   9.582
   69SLPC  H12A 5839   3.461   4.487   9.572
   69SLPC  H12B 5840   3.393   4.353   9.483
   69SLPC   C11 5841   3.495   4.296   9.662
   69SLPC  H11A 5842   3.538   4.352   9.748
   69SLPC  H11B 5843   3.580   4.266   9.599
   69SLPC     P 5844   3.453   4.116   9.847
   69SLPC   O13 5845   3.580   4.042   9.847
   69SLPC   O14 5846   3.433   4.226   9.945
   69SLPC   O12 5847   3.423   4.179   9.703
   69SLPC   O11 5848   3.335   4.015   9.868
   69SLPC    C1 5849   3.201   4.043   9.832
   69SLPC    HA 5850   3.137   4.012   9.917
   69SLPC    HB 5851   3.182   4.151   9.816
   69SLPC    C2 5852   3.155   3.961   9.708
   69SLPC    HS 5853   3.172   3.854   9.730
   69SLPC   O21 5854   3.222   4.002   9.587
   69SLPC   C21 5855   3.333   3.932   9.558
   69SLPC   O22 5856   3.386   3.852   9.632
   69SLPC   C22 5857   3.379   3.957   9.414
   69SLPC   H2R 5858   3.489   3.971   9.419
   69SLPC   H2S 5859   3.359   3.864   9.357
   69SLPC    C3 5860   3.002   3.983   9.692
   69SLPC    HX 5861   2.980   4.091   9.694
   69SLPC    HY 5862   2.953   3.937   9.780
   69SLPC   O31 5863   2.949   3.919   9.574
   69SLPC   C31 5864   2.951   3.991   9.464
   69SLPC   O32 5865   2.993   4.105   9.452
   69SLPC   C32 5866   2.881   3.911   9.355
   69SLPC   H2X 5867   2.772   3.931   9.361
   69SLPC   H2Y 5868   2.898   3.803   9.378
   69SLPC   C23 5869   3.314   4.078   9.342
   69SLPC   H3R 5870   3.330   4.168   9.405
   69SLPC   H3S 5871   3.205   4.062   9.332
   69SLPC   C24 5872   3.374   4.104   9.203
   69SLPC   H4R 5873   3.339   4.027   9.132
   69SLPC   H4S 5874   3.484   4.094   9.211
   69SLPC   C25 5875   3.343   4.245   9.150
   69SLPC   H5R 5876   3.405   4.264   9.059
   69SLPC   H5S 5877   3.374   4.319   9.227
   69SLPC   C26 5878   3.195   4.271   9.113
   69SLPC   H6R 5879   3.183   4.380   9.098
   69SLPC   H6S 5880   3.128   4.240   9.196
   69SLPC   C27 5881   3.154   4.198   8.984
   69SLPC   H7R 5882   3.149   4.090   9.006
   69SLPC   H7S 5883   3.232   4.213   8.907
   69SLPC   C28 5884   3.018   4.242   8.927
   69SLPC   H8R 5885   2.939   4.226   9.004
   69SLPC   H8S 5886   2.993   4.174   8.843
   69SLPC   C29 5887   3.016   4.386   8.879
   69SLPC   H9R 5888   2.990   4.460   8.956
   69SLPC  C210 5889   3.046   4.428   8.755
   69SLPC  H10R 5890   3.044   4.536   8.733
   69SLPC  C211 5891   3.088   4.341   8.639
   69SLPC  H11R 5892   3.128   4.244   8.676
   69SLPC  H11S 5893   3.174   4.389   8.589
   69SLPC  C212 5894   2.979   4.312   8.537
   69SLPC  H12R 5895   2.926   4.217   8.552
   69SLPC  C213 5896   2.943   4.391   8.435
   69SLPC  H13R 5897   2.864   4.357   8.366
   69SLPC  C214 5898   3.004   4.525   8.401
   69SLPC  H14R 5899   3.019   4.584   8.494
   69SLPC  H14S 5900   2.934   4.584   8.337
   69SLPC  C215 5901   3.141   4.522   8.333
   69SLPC  H15R 5902   3.217   4.473   8.398
   69SLPC  H15S 5903   3.171   4.627   8.318
   69SLPC  C216 5904   3.143   4.456   8.196
   69SLPC  H16R 5905   3.066   4.503   8.132
   69SLPC  H16S 5906   3.118   4.348   8.204
   69SLPC  C217 5907   3.281   4.474   8.132
   69SLPC  H17R 5908   3.336   4.378   8.133
   69SLPC  H17S 5909   3.340   4.546   8.193
   69SLPC  C218 5910   3.272   4.529   7.990
   69SLPC  H18R 5911   3.244   4.449   7.918
   69SLPC  H18S 5912   3.372   4.566   7.957
   69SLPC  H18T 5913   3.201   4.614   7.983
   69SLPC   C33 5914   2.933   3.938   9.213
   69SLPC   H3X 5915   3.043   3.948   9.214
   69SLPC   H3Y 5916   2.891   4.033   9.173
   69SLPC   C34 5917   2.896   3.821   9.123
   69SLPC   H4X 5918   2.786   3.804   9.124
   69SLPC   H4Y 5919   2.942   3.729   9.165
   69SLPC   C35 5920   2.945   3.836   8.979
   69SLPC   H5X 5921   2.928   3.939   8.943
   69SLPC   H5Y 5922   2.889   3.767   8.913
   69SLPC   C36 5923   3.093   3.799   8.974
   69SLPC   H6X 5924   3.105   3.700   9.023
   69SLPC   H6Y 5925   3.154   3.871   9.031
   69SLPC   C37 5926   3.148   3.786   8.832
   69SLPC   H7X 5927   3.090   3.709   8.778
   69SLPC   H7Y 5928   3.253   3.751   8.840
   69SLPC   C38 5929   3.148   3.917   8.753
   69SLPC   H8X 5930   3.198   3.996   8.812
   69SLPC   H8Y 5931   3.043   3.949   8.733
   69SLPC   C39 5932   3.224   3.899   8.622
   69SLPC   H9X 5933   3.181   3.813   8.566
   69SLPC   H9Y 5934   3.330   3.874   8.643
   69SLPC  C310 5935   3.219   4.022   8.532
   69SLPC  H10X 5936   3.287   4.100   8.572
   69SLPC  H10Y 5937   3.116   4.064   8.531
   69SLPC  C311 5938   3.257   3.984   8.389
   69SLPC  H11X 5939   3.179   3.919   8.346
   69SLPC  H11Y 5940   3.352   3.927   8.391
   69SLPC  C312 5941   3.275   4.108   8.302
   69SLPC  H12X 5942   3.353   4.173   8.347
   69SLPC  H12Y 5943   3.180   4.165   8.299
   69SLPC  C313 5944   3.318   4.071   8.160
   69SLPC  H13X 5945   3.409   4.006   8.164
   69SLPC  H13Y 5946   3.346   4.164   8.107
   69SLPC  C314 5947   3.209   4.000   8.079
   69SLPC  H14X 5948   3.112   4.051   8.098
   69SLPC  H14Y 5949   3.198   3.894   8.110
   69SLPC  C315 5950   3.239   4.010   7.930
   69SLPC  H15X 5951   3.255   4.118   7.908
   69SLPC  H15Y 5952   3.153   3.974   7.869
   69SLPC  C316 5953   3.365   3.936   7.886
   69SLPC  H16X 5954   3.355   3.829   7.912
   69SLPC  H16Y 5955   3.451   3.976   7.943
   69SLPC  C317 5956   3.392   3.951   7.735
   69SLPC  H17X 5957   3.320   3.885   7.682
   69SLPC  H17Y 5958   3.494   3.915   7.713
   69SLPC  C318 5959   3.373   4.091   7.676
   69SLPC  H18X 5960   3.268   4.125   7.684
   69SLPC  H18Y 5961   3.401   4.091   7.568
   69SLPC  H18Z 5962   3.438   4.164   7.729
   70SLPC     N 5963   4.747   3.946   9.638
   70SLPC   C13 5964   4.800   3.959   9.778
   70SLPC  H13A 5965   4.908   3.956   9.781
   70SLPC  H13B 5966   4.768   4.050   9.826
   70SLPC  H13C 5967   4.765   3.876   9.839
   70SLPC   C14 5968   4.788   4.065   9.558
   70SLPC  H14A 5969   4.895   4.070   9.546
   70SLPC  H14B 5970   4.742   4.065   9.460
   70SLPC  H14C 5971   4.759   4.157   9.607
   70SLPC   C15 5972   4.597   3.938   9.647
   70SLPC  H15A 5973   4.548   3.953   9.552
   70SLPC  H15B 5974   4.569   3.840   9.683
   70SLPC  H15C 5975   4.557   4.009   9.717
   70SLPC   C12 5976   4.795   3.815   9.577
   70SLPC  H12A 5977   4.898   3.825   9.546
   70SLPC  H12B 5978   4.736   3.794   9.490
   70SLPC   C11 5979   4.785   3.690   9.668
   70SLPC  H11A 5980   4.859   3.700   9.751
   70SLPC  H11B 5981   4.817   3.601   9.610
   70SLPC     P 5982   4.626   3.623   9.862
   70SLPC   O13 5983   4.701   3.712   9.953
   70SLPC   O14 5984   4.482   3.610   9.888
   70SLPC   O12 5985   4.651   3.671   9.713
   70SLPC   O11 5986   4.698   3.483   9.861
   70SLPC    C1 5987   4.629   3.360   9.880
   70SLPC    HA 5988   4.688   3.303   9.954
   70SLPC    HB 5989   4.527   3.372   9.923
   70SLPC    C2 5990   4.621   3.269   9.753
   70SLPC    HS 5991   4.647   3.166   9.787
   70SLPC   O21 5992   4.713   3.312   9.652
   70SLPC   C21 5993   4.839   3.289   9.677
   70SLPC   O22 5994   4.885   3.230   9.774
   70SLPC   C22 5995   4.924   3.343   9.561
   70SLPC   H2R 5996   4.983   3.428   9.601
   70SLPC   H2S 5997   4.993   3.261   9.532
   70SLPC    C3 5998   4.478   3.261   9.690
   70SLPC    HX 5999   4.406   3.249   9.773
   70SLPC    HY 6000   4.472   3.167   9.631
   70SLPC   O31 6001   4.441   3.377   9.612
   70SLPC   C31 6002   4.469   3.370   9.482
   70SLPC   O32 6003   4.520   3.274   9.426
   70SLPC   C32 6004   4.421   3.495   9.408
   70SLPC   H2X 6005   4.395   3.573   9.483
   70SLPC   H2Y 6006   4.330   3.466   9.352
   70SLPC   C23 6007   4.840   3.388   9.439
   70SLPC   H3R 6008   4.766   3.464   9.470
   70SLPC   H3S 6009   4.782   3.303   9.398
   70SLPC   C24 6010   4.928   3.449   9.329
   70SLPC   H4R 6011   5.005   3.513   9.377
   70SLPC   H4S 6012   4.867   3.514   9.263
   70SLPC   C25 6013   4.997   3.340   9.247
   70SLPC   H5R 6014   5.034   3.262   9.316
   70SLPC   H5S 6015   5.081   3.386   9.192
   70SLPC   C26 6016   4.909   3.264   9.148
   70SLPC   H6R 6017   4.836   3.203   9.205
   70SLPC   H6S 6018   4.974   3.195   9.090
   70SLPC   C27 6019   4.833   3.354   9.054
   70SLPC   H7R 6020   4.900   3.433   9.013
   70SLPC   H7S 6021   4.750   3.404   9.109
   70SLPC   C28 6022   4.777   3.270   8.940
   70SLPC   H8R 6023   4.717   3.186   8.982
   70SLPC   H8S 6024   4.864   3.224   8.889
   70SLPC   C29 6025   4.691   3.353   8.851
   70SLPC   H9R 6026   4.608   3.406   8.899
   70SLPC  C210 6027   4.712   3.367   8.719
   70SLPC  H10R 6028   4.640   3.425   8.661
   70SLPC  C211 6029   4.823   3.302   8.641
   70SLPC  H11R 6030   4.921   3.330   8.687
   70SLPC  H11S 6031   4.825   3.349   8.541
   70SLPC  C212 6032   4.817   3.150   8.632
   70SLPC  H12R 6033   4.807   3.097   8.728
   70SLPC  C213 6034   4.821   3.078   8.519
   70SLPC  H13R 6035   4.813   2.968   8.525
   70SLPC  C214 6036   4.831   3.137   8.382
   70SLPC  H14R 6037   4.744   3.205   8.371
   70SLPC  H14S 6038   4.821   3.059   8.304
   70SLPC  C215 6039   4.957   3.222   8.355
   70SLPC  H15R 6040   5.007   3.252   8.449
   70SLPC  H15S 6041   4.926   3.316   8.304
   70SLPC  C216 6042   5.061   3.152   8.268
   70SLPC  H16R 6043   5.022   3.134   8.165
   70SLPC  H16S 6044   5.084   3.052   8.313
   70SLPC  C217 6045   5.192   3.231   8.258
   70SLPC  H17R 6046   5.262   3.170   8.196
   70SLPC  H17S 6047   5.233   3.238   8.361
   70SLPC  C218 6048   5.186   3.372   8.198
   70SLPC  H18R 6049   5.164   3.367   8.089
   70SLPC  H18S 6050   5.284   3.423   8.210
   70SLPC  H18T 6051   5.109   3.434   8.248
   70SLPC   C33 6052   4.528   3.549   9.310
   70SLPC   H3X 6053   4.559   3.471   9.238
   70SLPC   H3Y 6054   4.618   3.578   9.369
   70SLPC   C34 6055   4.480   3.673   9.233
   70SLPC   H4X 6056   4.405   3.726   9.296
   70SLPC   H4Y 6057   4.428   3.641   9.140
   70SLPC   C35 6058   4.592   3.773   9.201
   70SLPC   H5X 6059   4.640   3.803   9.297
   70SLPC   H5Y 6060   4.547   3.864   9.156
   70SLPC   C36 6061   4.699   3.719   9.106
   70SLPC   H6X 6062   4.654   3.705   9.005
   70SLPC   H6Y 6063   4.732   3.618   9.140
   70SLPC   C37 6064   4.822   3.811   9.098
   70SLPC   H7X 6065   4.863   3.825   9.200
   70SLPC   H7Y 6066   4.789   3.910   9.060
   70SLPC   C38 6067   4.934   3.758   9.007
   70SLPC   H8X 6068   4.979   3.666   9.049
   70SLPC   H8Y 6069   5.013   3.836   9.000
   70SLPC   C39 6070   4.882   3.728   8.866
   70SLPC   H9X 6071   4.804   3.804   8.845
   70SLPC   H9Y 6072   4.833   3.628   8.863
   70SLPC  C310 6073   4.989   3.735   8.756
   70SLPC  H10X 6074   5.071   3.665   8.778
   70SLPC  H10Y 6075   5.031   3.838   8.756
   70SLPC  C311 6076   4.932   3.705   8.616
   70SLPC  H11X 6077   4.923   3.596   8.602
   70SLPC  H11Y 6078   5.004   3.743   8.539
   70SLPC  C312 6079   4.794   3.770   8.593
   70SLPC  H12X 6080   4.796   3.872   8.637
   70SLPC  H12Y 6081   4.717   3.711   8.647
   70SLPC  C313 6082   4.753   3.786   8.447
   70SLPC  H13X 6083   4.820   3.864   8.405
   70SLPC  H13Y 6084   4.650   3.827   8.446
   70SLPC  C314 6085   4.761   3.660   8.359
   70SLPC  H14X 6086   4.863   3.617   8.366
   70SLPC  H14Y 6087   4.744   3.687   8.252
   70SLPC  C315 6088   4.659   3.553   8.398
   70SLPC  H15X 6089   4.665   3.543   8.509
   70SLPC  H15Y 6090   4.688   3.455   8.354
   70SLPC  C316 6091   4.513   3.584   8.360
   70SLPC  H16X 6092   4.485   3.687   8.392
   70SLPC  H16Y 6093   4.450   3.513   8.418
   70SLPC  C317 6094   4.482   3.564   8.211
   70SLPC  H17X 6095   4.568   3.511   8.166
   70SLPC  H17Y 6096   4.477   3.663   8.160
   70SLPC  C318 6097   4.353   3.484   8.185
   70SLPC  H18X 6098   4.364   3.417   8.097
   70SLPC  H18Y 6099   4.268   3.552   8.164
   70SLPC  H18Z 6100   4.327   3.420   8.272
   71SLPC     N 6101   3.604   1.852   9.565
   71SLPC   C13 6102   3.650   1.714   9.602
   71SLPC  H13A 6103   3.755   1.699   9.581
   71SLPC  H13B 6104   3.638   1.702   9.708
   71SLPC  H13C 6105   3.592   1.637   9.553
   71SLPC   C14 6106   3.622   1.879   9.419
   71SLPC  H14A 6107   3.563   1.811   9.360
   71SLPC  H14B 6108   3.592   1.980   9.394
   71SLPC  H14C 6109   3.726   1.867   9.391
   71SLPC   C15 6110   3.691   1.945   9.644
   71SLPC  H15A 6111   3.669   2.049   9.622
   71SLPC  H15B 6112   3.670   1.930   9.749
   71SLPC  H15C 6113   3.796   1.926   9.629
   71SLPC   C12 6114   3.460   1.868   9.607
   71SLPC  H12A 6115   3.396   1.827   9.531
   71SLPC  H12B 6116   3.436   1.973   9.615
   71SLPC   C11 6117   3.417   1.804   9.742
   71SLPC  H11A 6118   3.429   1.694   9.739
   71SLPC  H11B 6119   3.308   1.821   9.756
   71SLPC     P 6120   3.432   1.957   9.953
   71SLPC   O13 6121   3.335   1.889  10.040
   71SLPC   O14 6122   3.540   2.034  10.019
   71SLPC   O12 6123   3.496   1.855   9.850
   71SLPC   O11 6124   3.353   2.051   9.854
   71SLPC    C1 6125   3.424   2.155   9.787
   71SLPC    HA 6126   3.448   2.236   9.859
   71SLPC    HB 6127   3.519   2.119   9.741
   71SLPC    C2 6128   3.336   2.214   9.676
   71SLPC    HS 6129   3.246   2.251   9.730
   71SLPC   O21 6130   3.304   2.112   9.578
   71SLPC   C21 6131   3.175   2.079   9.570
   71SLPC   O22 6132   3.083   2.128   9.632
   71SLPC   C22 6133   3.157   1.959   9.477
   71SLPC   H2R 6134   3.204   1.871   9.526
   71SLPC   H2S 6135   3.048   1.940   9.475
   71SLPC    C3 6136   3.407   2.336   9.612
   71SLPC    HX 6137   3.426   2.408   9.694
   71SLPC    HY 6138   3.336   2.387   9.543
   71SLPC   O31 6139   3.534   2.302   9.550
   71SLPC   C31 6140   3.527   2.288   9.418
   71SLPC   O32 6141   3.427   2.293   9.350
   71SLPC   C32 6142   3.666   2.265   9.360
   71SLPC   H2X 6143   3.724   2.200   9.428
   71SLPC   H2Y 6144   3.714   2.365   9.353
   71SLPC   C23 6145   3.211   1.978   9.333
   71SLPC   H3R 6146   3.181   1.889   9.274
   71SLPC   H3S 6147   3.322   1.983   9.333
   71SLPC   C24 6148   3.156   2.102   9.263
   71SLPC   H4R 6149   3.197   2.194   9.310
   71SLPC   H4S 6150   3.046   2.108   9.277
   71SLPC   C25 6151   3.186   2.106   9.112
   71SLPC   H5R 6152   3.099   2.156   9.063
   71SLPC   H5S 6153   3.193   2.003   9.070
   71SLPC   C26 6154   3.311   2.187   9.079
   71SLPC   H6R 6155   3.400   2.139   9.123
   71SLPC   H6S 6156   3.300   2.287   9.127
   71SLPC   C27 6157   3.331   2.210   8.928
   71SLPC   H7R 6158   3.235   2.248   8.888
   71SLPC   H7S 6159   3.354   2.114   8.877
   71SLPC   C28 6160   3.440   2.315   8.898
   71SLPC   H8R 6161   3.540   2.270   8.919
   71SLPC   H8S 6162   3.427   2.398   8.971
   71SLPC   C29 6163   3.429   2.370   8.759
   71SLPC   H9R 6164   3.356   2.452   8.747
   71SLPC  C210 6165   3.499   2.332   8.650
   71SLPC  H10R 6166   3.478   2.381   8.554
   71SLPC  C211 6167   3.604   2.223   8.645
   71SLPC  H11R 6168   3.558   2.132   8.601
   71SLPC  H11S 6169   3.637   2.193   8.747
   71SLPC  C212 6170   3.723   2.267   8.564
   71SLPC  H12R 6171   3.805   2.313   8.621
   71SLPC  C213 6172   3.735   2.255   8.430
   71SLPC  H13R 6173   3.827   2.288   8.381
   71SLPC  C214 6174   3.630   2.197   8.340
   71SLPC  H14R 6175   3.617   2.259   8.248
   71SLPC  H14S 6176   3.532   2.192   8.392
   71SLPC  C215 6177   3.662   2.053   8.302
   71SLPC  H15R 6178   3.650   1.992   8.395
   71SLPC  H15S 6179   3.766   2.046   8.264
   71SLPC  C216 6180   3.572   1.991   8.196
   71SLPC  H16R 6181   3.467   2.025   8.211
   71SLPC  H16S 6182   3.572   1.880   8.206
   71SLPC  C217 6183   3.617   2.027   8.055
   71SLPC  H17R 6184   3.710   1.971   8.031
   71SLPC  H17S 6185   3.641   2.135   8.051
   71SLPC  C218 6186   3.508   1.994   7.955
   71SLPC  H18R 6187   3.416   2.054   7.975
   71SLPC  H18S 6188   3.481   1.887   7.966
   71SLPC  H18T 6189   3.540   2.012   7.851
   71SLPC   C33 6190   3.654   2.205   9.219
   71SLPC   H3X 6191   3.597   2.274   9.153
   71SLPC   H3Y 6192   3.594   2.112   9.227
   71SLPC   C34 6193   3.787   2.174   9.150
   71SLPC   H4X 6194   3.845   2.104   9.214
   71SLPC   H4Y 6195   3.847   2.267   9.140
   71SLPC   C35 6196   3.769   2.110   9.011
   71SLPC   H5X 6197   3.867   2.073   8.975
   71SLPC   H5Y 6198   3.736   2.187   8.939
   71SLPC   C36 6199   3.666   1.996   9.014
   71SLPC   H6X 6200   3.563   2.038   9.020
   71SLPC   H6Y 6201   3.683   1.937   9.107
   71SLPC   C37 6202   3.668   1.897   8.896
   71SLPC   H7X 6203   3.772   1.864   8.876
   71SLPC   H7Y 6204   3.630   1.947   8.805
   71SLPC   C38 6205   3.582   1.774   8.931
   71SLPC   H8X 6206   3.477   1.806   8.946
   71SLPC   H8Y 6207   3.617   1.733   9.028
   71SLPC   C39 6208   3.589   1.660   8.828
   71SLPC   H9X 6209   3.536   1.571   8.868
   71SLPC   H9Y 6210   3.696   1.632   8.814
   71SLPC  C310 6211   3.528   1.695   8.692
   71SLPC  H10X 6212   3.543   1.610   8.622
   71SLPC  H10Y 6213   3.580   1.783   8.650
   71SLPC  C311 6214   3.378   1.726   8.699
   71SLPC  H11X 6215   3.363   1.815   8.763
   71SLPC  H11Y 6216   3.322   1.641   8.745
   71SLPC  C312 6217   3.322   1.757   8.560
   71SLPC  H12X 6218   3.301   1.663   8.504
   71SLPC  H12Y 6219   3.401   1.812   8.504
   71SLPC  C313 6220   3.197   1.844   8.565
   71SLPC  H13X 6221   3.206   1.919   8.647
   71SLPC  H13Y 6222   3.108   1.781   8.588
   71SLPC  C314 6223   3.175   1.920   8.434
   71SLPC  H14X 6224   3.071   1.959   8.437
   71SLPC  H14Y 6225   3.183   1.852   8.347
   71SLPC  C315 6226   3.273   2.038   8.418
   71SLPC  H15X 6227   3.376   2.001   8.400
   71SLPC  H15Y 6228   3.277   2.093   8.515
   71SLPC  C316 6229   3.231   2.138   8.309
   71SLPC  H16X 6230   3.120   2.139   8.302
   71SLPC  H16Y 6231   3.268   2.106   8.209
   71SLPC  C317 6232   3.276   2.281   8.340
   71SLPC  H17X 6233   3.385   2.292   8.319
   71SLPC  H17Y 6234   3.259   2.304   8.447
   71SLPC  C318 6235   3.207   2.386   8.255
   71SLPC  H18X 6236   3.255   2.485   8.269
   71SLPC  H18Y 6237   3.100   2.395   8.284
   71SLPC  H18Z 6238   3.212   2.360   8.148
   72SLPC     N 6239   5.880   6.315   9.792
   72SLPC   C13 6240   5.819   6.427   9.870
   72SLPC  H13A 6241   5.793   6.511   9.808
   72SLPC  H13B 6242   5.726   6.396   9.915
   72SLPC  H13C 6243   5.885   6.461   9.949
   72SLPC   C14 6244   5.778   6.269   9.692
   72SLPC  H14A 6245   5.819   6.188   9.633
   72SLPC  H14B 6246   5.691   6.232   9.744
   72SLPC  H14C 6247   5.747   6.349   9.627
   72SLPC   C15 6248   5.905   6.199   9.884
   72SLPC  H15A 6249   5.957   6.122   9.829
   72SLPC  H15B 6250   5.969   6.228   9.966
   72SLPC  H15C 6251   5.812   6.159   9.923
   72SLPC   C12 6252   6.009   6.356   9.724
   72SLPC  H12A 6253   6.084   6.377   9.799
   72SLPC  H12B 6254   5.993   6.448   9.669
   72SLPC   C11 6255   6.074   6.253   9.628
   72SLPC  H11A 6256   6.157   6.304   9.574
   72SLPC  H11B 6257   6.001   6.223   9.550
   72SLPC     P 6258   6.269   6.110   9.726
   72SLPC   O13 6259   6.322   6.209   9.823
   72SLPC   O14 6260   6.292   5.969   9.762
   72SLPC   O12 6261   6.115   6.136   9.700
   72SLPC   O11 6262   6.329   6.135   9.581
   72SLPC    C1 6263   6.467   6.108   9.559
   72SLPC    HA 6264   6.530   6.161   9.633
   72SLPC    HB 6265   6.489   6.002   9.584
   72SLPC    C2 6266   6.518   6.135   9.412
   72SLPC    HS 6267   6.623   6.168   9.419
   72SLPC   O21 6268   6.440   6.226   9.332
   72SLPC   C21 6269   6.378   6.334   9.368
   72SLPC   O22 6270   6.372   6.386   9.478
   72SLPC   C22 6271   6.320   6.400   9.241
   72SLPC   H2R 6272   6.234   6.461   9.276
   72SLPC   H2S 6273   6.397   6.469   9.201
   72SLPC    C3 6274   6.515   6.009   9.322
   72SLPC    HX 6275   6.588   5.932   9.358
   72SLPC    HY 6276   6.549   6.039   9.221
   72SLPC   O31 6277   6.380   5.963   9.312
   72SLPC   C31 6278   6.346   5.879   9.409
   72SLPC   O32 6279   6.429   5.815   9.472
   72SLPC   C32 6280   6.194   5.886   9.429
   72SLPC   H2X 6281   6.175   5.901   9.537
   72SLPC   H2Y 6282   6.148   5.788   9.402
   72SLPC   C23 6283   6.272   6.303   9.130
   72SLPC   H3R 6284   6.181   6.348   9.084
   72SLPC   H3S 6285   6.241   6.206   9.175
   72SLPC   C24 6286   6.373   6.280   9.018
   72SLPC   H4R 6287   6.459   6.221   9.057
   72SLPC   H4S 6288   6.412   6.378   8.983
   72SLPC   C25 6289   6.313   6.207   8.896
   72SLPC   H5R 6290   6.387   6.209   8.814
   72SLPC   H5S 6291   6.222   6.262   8.861
   72SLPC   C26 6292   6.275   6.062   8.925
   72SLPC   H6R 6293   6.203   6.058   9.010
   72SLPC   H6S 6294   6.367   6.010   8.958
   72SLPC   C27 6295   6.213   5.986   8.807
   72SLPC   H7R 6296   6.121   6.041   8.776
   72SLPC   H7S 6297   6.173   5.889   8.843
   72SLPC   C28 6298   6.307   5.967   8.685
   72SLPC   H8R 6299   6.369   6.057   8.667
   72SLPC   H8S 6300   6.247   5.950   8.594
   72SLPC   C29 6301   6.390   5.846   8.716
   72SLPC   H9R 6302   6.358   5.796   8.808
   72SLPC  C210 6303   6.484   5.783   8.644
   72SLPC  H10R 6304   6.531   5.693   8.685
   72SLPC  C211 6305   6.529   5.822   8.507
   72SLPC  H11R 6306   6.456   5.893   8.464
   72SLPC  H11S 6307   6.530   5.732   8.442
   72SLPC  C212 6308   6.665   5.886   8.516
   72SLPC  H12R 6309   6.686   5.939   8.610
   72SLPC  C213 6310   6.760   5.883   8.421
   72SLPC  H13R 6311   6.856   5.932   8.443
   72SLPC  C214 6312   6.751   5.816   8.287
   72SLPC  H14R 6313   6.698   5.719   8.294
   72SLPC  H14S 6314   6.854   5.793   8.250
   72SLPC  C215 6315   6.681   5.903   8.180
   72SLPC  H15R 6316   6.686   5.846   8.085
   72SLPC  H15S 6317   6.735   5.999   8.166
   72SLPC  C216 6318   6.534   5.932   8.216
   72SLPC  H16R 6319   6.531   6.002   8.302
   72SLPC  H16S 6320   6.487   5.836   8.246
   72SLPC  C217 6321   6.448   5.991   8.106
   72SLPC  H17R 6322   6.478   6.096   8.087
   72SLPC  H17S 6323   6.343   5.997   8.143
   72SLPC  C218 6324   6.453   5.910   7.978
   72SLPC  H18R 6325   6.441   5.801   7.998
   72SLPC  H18S 6326   6.552   5.921   7.927
   72SLPC  H18T 6327   6.373   5.943   7.909
   72SLPC   C33 6328   6.128   6.000   9.347
   72SLPC   H3X 6329   6.157   5.991   9.240
   72SLPC   H3Y 6330   6.166   6.097   9.385
   72SLPC   C34 6331   5.975   6.001   9.353
   72SLPC   H4X 6332   5.945   5.995   9.460
   72SLPC   H4Y 6333   5.939   5.910   9.301
   72SLPC   C35 6334   5.910   6.124   9.288
   72SLPC   H5X 6335   5.949   6.216   9.338
   72SLPC   H5Y 6336   5.801   6.120   9.307
   72SLPC   C36 6337   5.933   6.138   9.137
   72SLPC   H6X 6338   5.906   6.044   9.084
   72SLPC   H6Y 6339   6.041   6.156   9.118
   72SLPC   C37 6340   5.853   6.255   9.080
   72SLPC   H7X 6341   5.877   6.344   9.143
   72SLPC   H7Y 6342   5.744   6.235   9.091
   72SLPC   C38 6343   5.885   6.293   8.935
   72SLPC   H8X 6344   5.995   6.305   8.921
   72SLPC   H8Y 6345   5.839   6.392   8.917
   72SLPC   C39 6346   5.829   6.196   8.831
   72SLPC   H9X 6347   5.736   6.151   8.872
   72SLPC   H9Y 6348   5.900   6.113   8.814
   72SLPC  C310 6349   5.792   6.266   8.699
   72SLPC  H10X 6350   5.716   6.345   8.720
   72SLPC  H10Y 6351   5.746   6.192   8.631
   72SLPC  C311 6352   5.910   6.329   8.624
   72SLPC  H11X 6353   5.963   6.403   8.689
   72SLPC  H11Y 6354   5.871   6.383   8.536
   72SLPC  C312 6355   6.008   6.221   8.578
   72SLPC  H12X 6356   5.953   6.137   8.532
   72SLPC  H12Y 6357   6.061   6.183   8.668
   72SLPC  C313 6358   6.112   6.271   8.480
   72SLPC  H13X 6359   6.064   6.339   8.406
   72SLPC  H13Y 6360   6.153   6.184   8.424
   72SLPC  C314 6361   6.229   6.341   8.550
   72SLPC  H14X 6362   6.263   6.278   8.636
   72SLPC  H14Y 6363   6.196   6.439   8.591
   72SLPC  C315 6364   6.348   6.358   8.456
   72SLPC  H15X 6365   6.387   6.257   8.432
   72SLPC  H15Y 6366   6.430   6.414   8.507
   72SLPC  C316 6367   6.307   6.429   8.326
   72SLPC  H16X 6368   6.261   6.527   8.350
   72SLPC  H16Y 6369   6.231   6.368   8.273
   72SLPC  C317 6370   6.422   6.450   8.228
   72SLPC  H17X 6371   6.459   6.554   8.241
   72SLPC  H17Y 6372   6.383   6.440   8.124
   72SLPC  C318 6373   6.538   6.353   8.239
   72SLPC  H18X 6374   6.502   6.248   8.230
   72SLPC  H18Y 6375   6.583   6.366   8.340
   72SLPC  H18Z 6376   6.615   6.373   8.162
   73SLPC     N 6377   6.794   5.774   9.619
   73SLPC   C13 6378   6.689   5.669   9.606
   73SLPC  H13A 6379   6.725   5.578   9.561
   73SLPC  H13B 6380   6.652   5.643   9.704
   73SLPC  H13C 6381   6.604   5.705   9.549
   73SLPC   C14 6382   6.721   5.891   9.675
   73SLPC  H14A 6383   6.636   5.914   9.613
   73SLPC  H14B 6384   6.681   5.865   9.771
   73SLPC  H14C 6385   6.785   5.978   9.683
   73SLPC   C15 6386   6.849   5.808   9.484
   73SLPC  H15A 6387   6.923   5.886   9.490
   73SLPC  H15B 6388   6.895   5.722   9.437
   73SLPC  H15C 6389   6.770   5.841   9.418
   73SLPC   C12 6390   6.900   5.723   9.716
   73SLPC  H12A 6391   6.987   5.786   9.711
   73SLPC  H12B 6392   6.930   5.624   9.687
   73SLPC   C11 6393   6.859   5.712   9.867
   73SLPC  H11A 6394   6.847   5.814   9.908
   73SLPC  H11B 6395   6.945   5.666   9.921
   73SLPC     P 6396   6.731   5.508   9.971
   73SLPC   O13 6397   6.810   5.524  10.095
   73SLPC   O14 6398   6.590   5.472   9.994
   73SLPC   O12 6399   6.737   5.641   9.886
   73SLPC   O11 6400   6.804   5.405   9.876
   73SLPC    C1 6401   6.728   5.302   9.812
   73SLPC    HA 6402   6.704   5.222   9.886
   73SLPC    HB 6403   6.633   5.340   9.770
   73SLPC    C2 6404   6.808   5.237   9.696
   73SLPC    HS 6405   6.906   5.203   9.736
   73SLPC   O21 6406   6.821   5.331   9.587
   73SLPC   C21 6407   6.942   5.380   9.568
   73SLPC   O22 6408   7.038   5.367   9.642
   73SLPC   C22 6409   6.943   5.462   9.439
   73SLPC   H2R 6410   6.845   5.450   9.387
   73SLPC   H2S 6411   6.958   5.568   9.468
   73SLPC    C3 6412   6.734   5.110   9.645
   73SLPC    HX 6413   6.759   5.027   9.714
   73SLPC    HY 6414   6.775   5.082   9.546
   73SLPC   O31 6415   6.589   5.126   9.645
   73SLPC   C31 6416   6.538   5.168   9.530
   73SLPC   O32 6417   6.605   5.200   9.433
   73SLPC   C32 6418   6.384   5.144   9.527
   73SLPC   H2X 6419   6.363   5.065   9.602
   73SLPC   H2Y 6420   6.377   5.102   9.424
   73SLPC   C23 6421   7.058   5.421   9.344
   73SLPC   H3R 6422   7.059   5.311   9.331
   73SLPC   H3S 6423   7.153   5.450   9.393
   73SLPC   C24 6424   7.053   5.489   9.206
   73SLPC   H4R 6425   7.154   5.482   9.161
   73SLPC   H4S 6426   7.031   5.597   9.219
   73SLPC   C25 6427   6.953   5.428   9.105
   73SLPC   H5R 6428   6.975   5.476   9.008
   73SLPC   H5S 6429   6.849   5.452   9.135
   73SLPC   C26 6430   6.968   5.279   9.076
   73SLPC   H6R 6431   6.958   5.217   9.167
   73SLPC   H6S 6432   7.071   5.267   9.035
   73SLPC   C27 6433   6.876   5.224   8.966
   73SLPC   H7R 6434   6.861   5.300   8.886
   73SLPC   H7S 6435   6.777   5.202   9.012
   73SLPC   C28 6436   6.939   5.098   8.902
   73SLPC   H8R 6437   6.990   5.042   8.983
   73SLPC   H8S 6438   7.018   5.130   8.831
   73SLPC   C29 6439   6.838   5.009   8.838
   73SLPC   H9R 6440   6.752   4.986   8.902
   73SLPC  C210 6441   6.842   4.953   8.715
   73SLPC  H10R 6442   6.757   4.891   8.685
   73SLPC  C211 6443   6.947   4.963   8.607
   73SLPC  H11R 6444   6.931   4.880   8.536
   73SLPC  H11S 6445   7.047   4.943   8.652
   73SLPC  C212 6446   6.948   5.095   8.533
   73SLPC  H12R 6447   6.904   5.179   8.588
   73SLPC  C213 6448   6.999   5.117   8.410
   73SLPC  H13R 6449   6.989   5.217   8.366
   73SLPC  C214 6450   7.065   5.014   8.322
   73SLPC  H14R 6451   7.063   4.913   8.368
   73SLPC  H14S 6452   7.172   5.040   8.307
   73SLPC  C215 6453   7.000   5.004   8.183
   73SLPC  H15R 6454   6.889   5.007   8.195
   73SLPC  H15S 6455   7.024   4.906   8.138
   73SLPC  C216 6456   7.046   5.114   8.086
   73SLPC  H16R 6457   7.102   5.192   8.142
   73SLPC  H16S 6458   6.956   5.163   8.042
   73SLPC  C217 6459   7.133   5.058   7.972
   73SLPC  H17R 6460   7.067   5.008   7.898
   73SLPC  H17S 6461   7.199   4.980   8.015
   73SLPC  C218 6462   7.221   5.161   7.901
   73SLPC  H18R 6463   7.173   5.257   7.871
   73SLPC  H18S 6464   7.268   5.118   7.810
   73SLPC  H18T 6465   7.299   5.202   7.970
   73SLPC   C33 6466   6.264   5.247   9.534
   73SLPC   H3X 6467   6.285   5.328   9.607
   73SLPC   H3Y 6468   6.179   5.192   9.580
   73SLPC   C34 6469   6.212   5.296   9.395
   73SLPC   H4X 6470   6.131   5.225   9.366
   73SLPC   H4Y 6471   6.293   5.279   9.322
   73SLPC   C35 6472   6.156   5.441   9.374
   73SLPC   H5X 6473   6.133   5.484   9.474
   73SLPC   H5Y 6474   6.059   5.425   9.321
   73SLPC   C36 6475   6.234   5.548   9.291
   73SLPC   H6X 6476   6.327   5.496   9.259
   73SLPC   H6Y 6477   6.270   5.633   9.354
   73SLPC   C37 6478   6.178   5.623   9.168
   73SLPC   H7X 6479   6.120   5.712   9.199
   73SLPC   H7Y 6480   6.109   5.555   9.114
   73SLPC   C38 6481   6.287   5.663   9.064
   73SLPC   H8X 6482   6.235   5.701   8.974
   73SLPC   H8Y 6483   6.341   5.570   9.037
   73SLPC   C39 6484   6.399   5.764   9.100
   73SLPC   H9X 6485   6.444   5.742   9.200
   73SLPC   H9Y 6486   6.354   5.865   9.107
   73SLPC  C310 6487   6.515   5.766   8.997
   73SLPC  H10X 6488   6.498   5.856   8.934
   73SLPC  H10Y 6489   6.510   5.674   8.935
   73SLPC  C311 6490   6.661   5.788   9.041
   73SLPC  H11X 6491   6.694   5.709   9.111
   73SLPC  H11Y 6492   6.667   5.886   9.092
   73SLPC  C312 6493   6.752   5.791   8.916
   73SLPC  H12X 6494   6.838   5.859   8.935
   73SLPC  H12Y 6495   6.697   5.832   8.828
   73SLPC  C313 6496   6.808   5.652   8.883
   73SLPC  H13X 6497   6.726   5.578   8.873
   73SLPC  H13Y 6498   6.864   5.629   8.976
   73SLPC  C314 6499   6.906   5.641   8.765
   73SLPC  H14X 6500   6.983   5.565   8.788
   73SLPC  H14Y 6501   6.959   5.739   8.753
   73SLPC  C315 6502   6.843   5.603   8.631
   73SLPC  H15X 6503   6.915   5.621   8.549
   73SLPC  H15Y 6504   6.755   5.669   8.613
   73SLPC  C316 6505   6.793   5.458   8.621
   73SLPC  H16X 6506   6.718   5.439   8.700
   73SLPC  H16Y 6507   6.879   5.389   8.637
   73SLPC  C317 6508   6.729   5.428   8.485
   73SLPC  H17X 6509   6.809   5.430   8.407
   73SLPC  H17Y 6510   6.658   5.509   8.460
   73SLPC  C318 6511   6.656   5.293   8.480
   73SLPC  H18X 6512   6.550   5.305   8.512
   73SLPC  H18Y 6513   6.703   5.219   8.548
   73SLPC  H18Z 6514   6.657   5.252   8.377
   74SLPC     N 6515   7.144   0.013   9.892
   74SLPC   C13 6516   7.069  -0.110   9.939
   74SLPC  H13A 6517   7.093  -0.193   9.875
   74SLPC  H13B 6518   7.093  -0.137  10.040
   74SLPC  H13C 6519   6.962  -0.097   9.930
   74SLPC   C14 6520   7.289  -0.016   9.908
   74SLPC  H14A 6521   7.315  -0.027  10.012
   74SLPC  H14B 6522   7.314  -0.106   9.853
   74SLPC  H14C 6523   7.350   0.062   9.865
   74SLPC   C15 6524   7.105   0.127   9.981
   74SLPC  H15A 6525   7.134   0.105  10.082
   74SLPC  H15B 6526   7.160   0.217   9.956
   74SLPC  H15C 6527   6.999   0.148   9.978
   74SLPC   C12 6528   7.114   0.044   9.746
   74SLPC  H12A 6529   7.144   0.145   9.725
   74SLPC  H12B 6530   7.008   0.037   9.730
   74SLPC   C11 6531   7.176  -0.046   9.638
   74SLPC  H11A 6532   7.287  -0.041   9.641
   74SLPC  H11B 6533   7.146  -0.011   9.537
   74SLPC     P 6534   6.986  -0.219   9.630
   74SLPC   O13 6535   6.944  -0.314   9.734
   74SLPC   O14 6536   6.905  -0.095   9.616
   74SLPC   O12 6537   7.135  -0.179   9.661
   74SLPC   O11 6538   7.005  -0.285   9.490
   74SLPC    C1 6539   6.891  -0.325   9.415
   74SLPC    HA 6540   6.905  -0.431   9.384
   74SLPC    HB 6541   6.797  -0.319   9.473
   74SLPC    C2 6542   6.867  -0.237   9.290
   74SLPC    HS 6543   6.797  -0.293   9.224
   74SLPC   O21 6544   6.987  -0.205   9.221
   74SLPC   C21 6545   7.045  -0.306   9.162
   74SLPC   O22 6546   7.066  -0.417   9.205
   74SLPC   C22 6547   7.055  -0.265   9.016
   74SLPC   H2R 6548   6.954  -0.227   8.990
   74SLPC   H2S 6549   7.125  -0.179   9.009
   74SLPC    C3 6550   6.798  -0.104   9.328
   74SLPC    HX 6551   6.877  -0.034   9.363
   74SLPC    HY 6552   6.730  -0.118   9.415
   74SLPC   O31 6553   6.730  -0.050   9.213
   74SLPC   C31 6554   6.606  -0.096   9.196
   74SLPC   O32 6555   6.550  -0.175   9.269
   74SLPC   C32 6556   6.544  -0.035   9.071
   74SLPC   H2X 6557   6.497   0.059   9.106
   74SLPC   H2Y 6558   6.464  -0.104   9.036
   74SLPC   C23 6559   7.091  -0.377   8.918
   74SLPC   H3R 6560   7.007  -0.388   8.845
   74SLPC   H3S 6561   7.105  -0.475   8.969
   74SLPC   C24 6562   7.214  -0.343   8.837
   74SLPC   H4R 6563   7.246  -0.428   8.773
   74SLPC   H4S 6564   7.293  -0.328   8.913
   74SLPC   C25 6565   7.198  -0.217   8.752
   74SLPC   H5R 6566   7.292  -0.158   8.753
   74SLPC   H5S 6567   7.118  -0.151   8.791
   74SLPC   C26 6568   7.169  -0.252   8.607
   74SLPC   H6R 6569   7.255  -0.309   8.567
   74SLPC   H6S 6570   7.159  -0.156   8.551
   74SLPC   C27 6571   7.042  -0.334   8.585
   74SLPC   H7R 6572   6.957  -0.277   8.627
   74SLPC   H7S 6573   7.047  -0.431   8.639
   74SLPC   C28 6574   7.012  -0.356   8.437
   74SLPC   H8R 6575   7.038  -0.265   8.379
   74SLPC   H8S 6576   6.902  -0.364   8.430
   74SLPC   C29 6577   7.081  -0.478   8.382
   74SLPC   H9R 6578   7.040  -0.573   8.419
   74SLPC  C210 6579   7.180  -0.481   8.292
   74SLPC  H10R 6580   7.218  -0.579   8.258
   74SLPC  C211 6581   7.244  -0.364   8.225
   74SLPC  H11R 6582   7.163  -0.299   8.187
   74SLPC  H11S 6583   7.300  -0.398   8.135
   74SLPC  C212 6584   7.336  -0.284   8.312
   74SLPC  H12R 6585   7.422  -0.338   8.354
   74SLPC  C213 6586   7.321  -0.155   8.343
   74SLPC  H13R 6587   7.397  -0.111   8.409
   74SLPC  C214 6588   7.210  -0.061   8.300
   74SLPC  H14R 6589   7.220   0.035   8.355
   74SLPC  H14S 6590   7.110  -0.096   8.333
   74SLPC  C215 6591   7.199  -0.024   8.151
   74SLPC  H15R 6592   7.194   0.086   8.142
   74SLPC  H15S 6593   7.100  -0.061   8.114
   74SLPC  C216 6594   7.310  -0.075   8.058
   74SLPC  H16R 6595   7.291  -0.182   8.032
   74SLPC  H16S 6596   7.410  -0.070   8.107
   74SLPC  C217 6597   7.316   0.007   7.930
   74SLPC  H17R 6598   7.383   0.094   7.952
   74SLPC  H17S 6599   7.215   0.047   7.908
   74SLPC  C218 6600   7.366  -0.068   7.808
   74SLPC  H18R 6601   7.473  -0.098   7.821
   74SLPC  H18S 6602   7.359  -0.005   7.717
   74SLPC  H18T 6603   7.307  -0.161   7.791
   74SLPC   C33 6604   6.644  -0.004   8.958
   74SLPC   H3X 6605   6.721   0.066   8.997
   74SLPC   H3Y 6606   6.592   0.048   8.874
   74SLPC   C34 6607   6.714  -0.128   8.902
   74SLPC   H4X 6608   6.642  -0.192   8.847
   74SLPC   H4Y 6609   6.751  -0.188   8.988
   74SLPC   C35 6610   6.833  -0.096   8.811
   74SLPC   H5X 6611   6.885  -0.192   8.792
   74SLPC   H5Y 6612   6.906  -0.031   8.865
   74SLPC   C36 6613   6.798  -0.035   8.675
   74SLPC   H6X 6614   6.891  -0.027   8.615
   74SLPC   H6Y 6615   6.758   0.068   8.688
   74SLPC   C37 6616   6.696  -0.120   8.599
   74SLPC   H7X 6617   6.597  -0.108   8.648
   74SLPC   H7Y 6618   6.725  -0.227   8.608
   74SLPC   C38 6619   6.682  -0.086   8.450
   74SLPC   H8X 6620   6.776  -0.117   8.399
   74SLPC   H8Y 6621   6.670   0.023   8.436
   74SLPC   C39 6622   6.562  -0.161   8.390
   74SLPC   H9X 6623   6.468  -0.109   8.418
   74SLPC   H9Y 6624   6.558  -0.261   8.437
   74SLPC  C310 6625   6.570  -0.180   8.238
   74SLPC  H10X 6626   6.500  -0.261   8.209
   74SLPC  H10Y 6627   6.673  -0.212   8.210
   74SLPC  C311 6628   6.531  -0.054   8.160
   74SLPC  H11X 6629   6.599   0.029   8.189
   74SLPC  H11Y 6630   6.428  -0.026   8.188
   74SLPC  C312 6631   6.539  -0.074   8.008
   74SLPC  H12X 6632   6.488   0.011   7.958
   74SLPC  H12Y 6633   6.486  -0.167   7.978
   74SLPC  C313 6634   6.683  -0.080   7.957
   74SLPC  H13X 6635   6.721  -0.183   7.969
   74SLPC  H13Y 6636   6.747  -0.012   8.018
   74SLPC  C314 6637   6.692  -0.036   7.811
   74SLPC  H14X 6638   6.648   0.066   7.803
   74SLPC  H14Y 6639   6.631  -0.105   7.748
   74SLPC  C315 6640   6.835  -0.030   7.756
   74SLPC  H15X 6641   6.900   0.026   7.826
   74SLPC  H15Y 6642   6.833   0.027   7.660
   74SLPC  C316 6643   6.894  -0.168   7.728
   74SLPC  H16X 6644   6.923  -0.170   7.620
   74SLPC  H16Y 6645   6.818  -0.248   7.743
   74SLPC  C317 6646   7.017  -0.197   7.813
   74SLPC  H17X 6647   7.085  -0.110   7.808
   74SLPC  H17Y 6648   7.073  -0.282   7.768
   74SLPC  C318 6649   6.987  -0.233   7.958
   74SLPC  H18X 6650   6.942  -0.146   8.010
   74SLPC  H18Y 6651   7.082  -0.261   8.009
   74SLPC  H18Z 6652   6.917  -0.318   7.966
   75SLPC     N 6653   1.179   2.390   6.155
   75SLPC   C13 6654   1.090   2.493   6.218
   75SLPC  H13A 6655   1.056   2.567   6.147
   75SLPC  H13B 6656   1.004   2.449   6.267
   75SLPC  H13C 6657   1.144   2.547   6.295
   75SLPC   C14 6658   1.093   2.309   6.065
   75SLPC  H14A 6659   1.011   2.263   6.119
   75SLPC  H14B 6660   1.044   2.369   5.990
   75SLPC  H14C 6661   1.148   2.231   6.014
   75SLPC   C15 6662   1.237   2.300   6.260
   75SLPC  H15A 6663   1.164   2.275   6.336
   75SLPC  H15B 6664   1.285   2.213   6.220
   75SLPC  H15C 6665   1.311   2.356   6.315
   75SLPC   C12 6666   1.295   2.455   6.083
   75SLPC  H12A 6667   1.258   2.507   5.996
   75SLPC  H12B 6668   1.360   2.376   6.048
   75SLPC   C11 6669   1.388   2.557   6.156
   75SLPC  H11A 6670   1.343   2.658   6.150
   75SLPC  H11B 6671   1.480   2.561   6.093
   75SLPC     P 6672   1.360   2.584   6.418
   75SLPC   O13 6673   1.290   2.468   6.476
   75SLPC   O14 6674   1.454   2.655   6.505
   75SLPC   O12 6675   1.429   2.524   6.289
   75SLPC   O11 6676   1.253   2.686   6.359
   75SLPC    C1 6677   1.273   2.827   6.348
   75SLPC    HA 6678   1.381   2.854   6.346
   75SLPC    HB 6679   1.229   2.862   6.252
   75SLPC    C2 6680   1.204   2.909   6.461
   75SLPC    HS 6681   1.206   3.016   6.432
   75SLPC   O21 6682   1.283   2.891   6.579
   75SLPC   C21 6683   1.244   2.953   6.687
   75SLPC   O22 6684   1.177   3.054   6.692
   75SLPC   C22 6685   1.294   2.870   6.804
   75SLPC   H2R 6686   1.277   2.763   6.780
   75SLPC   H2S 6687   1.404   2.881   6.811
   75SLPC    C3 6688   1.054   2.868   6.483
   75SLPC    HX 6689   1.003   2.883   6.386
   75SLPC    HY 6690   1.004   2.936   6.556
   75SLPC   O31 6691   1.042   2.729   6.520
   75SLPC   C31 6692   1.049   2.702   6.651
   75SLPC   O32 6693   1.026   2.780   6.740
   75SLPC   C32 6694   1.078   2.555   6.673
   75SLPC   H2X 6695   1.087   2.513   6.571
   75SLPC   H2Y 6696   0.988   2.511   6.721
   75SLPC   C23 6697   1.226   2.898   6.939
   75SLPC   H3R 6698   1.119   2.869   6.939
   75SLPC   H3S 6699   1.229   3.007   6.960
   75SLPC   C24 6700   1.300   2.820   7.047
   75SLPC   H4R 6701   1.406   2.807   7.014
   75SLPC   H4S 6702   1.260   2.717   7.059
   75SLPC   C25 6703   1.303   2.896   7.179
   75SLPC   H5R 6704   1.300   3.005   7.159
   75SLPC   H5S 6705   1.398   2.870   7.230
   75SLPC   C26 6706   1.189   2.867   7.272
   75SLPC   H6R 6707   1.094   2.898   7.222
   75SLPC   H6S 6708   1.199   2.928   7.364
   75SLPC   C27 6709   1.187   2.720   7.304
   75SLPC   H7R 6710   1.288   2.676   7.287
   75SLPC   H7S 6711   1.120   2.674   7.229
   75SLPC   C28 6712   1.149   2.695   7.448
   75SLPC   H8R 6713   1.085   2.778   7.484
   75SLPC   H8S 6714   1.240   2.690   7.512
   75SLPC   C29 6715   1.073   2.567   7.448
   75SLPC   H9R 6716   1.090   2.501   7.362
   75SLPC  C210 6717   0.986   2.533   7.542
   75SLPC  H10R 6718   0.920   2.448   7.518
   75SLPC  C211 6719   0.947   2.607   7.666
   75SLPC  H11R 6720   0.895   2.535   7.732
   75SLPC  H11S 6721   0.872   2.683   7.635
   75SLPC  C212 6722   1.057   2.668   7.749
   75SLPC  H12R 6723   1.157   2.622   7.739
   75SLPC  C213 6724   1.039   2.772   7.832
   75SLPC  H13R 6725   1.125   2.810   7.889
   75SLPC  C214 6726   0.908   2.843   7.854
   75SLPC  H14R 6727   0.824   2.796   7.797
   75SLPC  H14S 6728   0.913   2.948   7.818
   75SLPC  C215 6729   0.867   2.839   8.002
   75SLPC  H15R 6730   0.942   2.889   8.067
   75SLPC  H15S 6731   0.865   2.732   8.032
   75SLPC  C216 6732   0.730   2.900   8.030
   75SLPC  H16R 6733   0.686   2.850   8.119
   75SLPC  H16S 6734   0.667   2.876   7.942
   75SLPC  C217 6735   0.728   3.051   8.056
   75SLPC  H17R 6736   0.622   3.085   8.056
   75SLPC  H17S 6737   0.777   3.104   7.971
   75SLPC  C218 6738   0.792   3.091   8.189
   75SLPC  H18R 6739   0.739   3.043   8.274
   75SLPC  H18S 6740   0.789   3.201   8.203
   75SLPC  H18T 6741   0.898   3.058   8.193
   75SLPC   C33 6742   1.207   2.512   6.749
   75SLPC   H3X 6743   1.234   2.412   6.710
   75SLPC   H3Y 6744   1.293   2.576   6.720
   75SLPC   C34 6745   1.199   2.494   6.901
   75SLPC   H4X 6746   1.129   2.411   6.925
   75SLPC   H4Y 6747   1.158   2.587   6.948
   75SLPC   C35 6748   1.339   2.460   6.955
   75SLPC   H5X 6749   1.405   2.549   6.944
   75SLPC   H5Y 6750   1.381   2.380   6.889
   75SLPC   C36 6751   1.346   2.409   7.099
   75SLPC   H6X 6752   1.272   2.327   7.113
   75SLPC   H6Y 6753   1.318   2.492   7.168
   75SLPC   C37 6754   1.487   2.356   7.132
   75SLPC   H7X 6755   1.560   2.437   7.110
   75SLPC   H7Y 6756   1.509   2.273   7.062
   75SLPC   C38 6757   1.509   2.306   7.276
   75SLPC   H8X 6758   1.613   2.269   7.285
   75SLPC   H8Y 6759   1.443   2.218   7.293
   75SLPC   C39 6760   1.485   2.410   7.385
   75SLPC   H9X 6761   1.482   2.359   7.484
   75SLPC   H9Y 6762   1.386   2.459   7.370
   75SLPC  C310 6763   1.595   2.517   7.390
   75SLPC  H10X 6764   1.618   2.549   7.286
   75SLPC  H10Y 6765   1.687   2.473   7.433
   75SLPC  C311 6766   1.556   2.643   7.469
   75SLPC  H11X 6767   1.474   2.695   7.415
   75SLPC  H11Y 6768   1.643   2.711   7.471
   75SLPC  C312 6769   1.512   2.616   7.613
   75SLPC  H12X 6770   1.594   2.564   7.666
   75SLPC  H12Y 6771   1.422   2.551   7.615
   75SLPC  C313 6772   1.481   2.748   7.685
   75SLPC  H13X 6773   1.394   2.798   7.638
   75SLPC  H13Y 6774   1.568   2.815   7.672
   75SLPC  C314 6775   1.455   2.730   7.836
   75SLPC  H14X 6776   1.474   2.625   7.865
   75SLPC  H14Y 6777   1.348   2.752   7.858
   75SLPC  C315 6778   1.545   2.823   7.917
   75SLPC  H15X 6779   1.538   2.926   7.877
   75SLPC  H15Y 6780   1.650   2.788   7.904
   75SLPC  C316 6781   1.513   2.826   8.067
   75SLPC  H16X 6782   1.606   2.857   8.120
   75SLPC  H16Y 6783   1.486   2.725   8.104
   75SLPC  C317 6784   1.406   2.929   8.101
   75SLPC  H17X 6785   1.310   2.899   8.054
   75SLPC  H17Y 6786   1.435   3.027   8.058
   75SLPC  C318 6787   1.386   2.947   8.252
   75SLPC  H18X 6788   1.302   3.017   8.273
   75SLPC  H18Y 6789   1.479   2.986   8.299
   75SLPC  H18Z 6790   1.361   2.850   8.299
   76SLPC     N 6791   2.533   0.748   6.186
   76SLPC   C13 6792   2.472   0.869   6.123
   76SLPC  H13A 6793   2.526   0.957   6.158
   76SLPC  H13B 6794   2.481   0.867   6.016
   76SLPC  H13C 6795   2.368   0.880   6.149
   76SLPC   C14 6796   2.458   0.631   6.133
   76SLPC  H14A 6797   2.354   0.640   6.158
   76SLPC  H14B 6798   2.464   0.631   6.025
   76SLPC  H14C 6799   2.497   0.538   6.172
   76SLPC   C15 6800   2.514   0.759   6.335
   76SLPC  H15A 6801   2.562   0.848   6.371
   76SLPC  H15B 6802   2.410   0.770   6.361
   76SLPC  H15C 6803   2.558   0.676   6.389
   76SLPC   C12 6804   2.681   0.748   6.150
   76SLPC  H12A 6805   2.689   0.765   6.043
   76SLPC  H12B 6806   2.725   0.653   6.173
   76SLPC   C11 6807   2.769   0.856   6.217
   76SLPC  H11A 6808   2.868   0.858   6.165
   76SLPC  H11B 6809   2.787   0.826   6.322
   76SLPC     P 6810   2.709   1.082   6.331
   76SLPC   O13 6811   2.653   1.211   6.287
   76SLPC   O14 6812   2.640   1.006   6.437
   76SLPC   O12 6813   2.713   0.987   6.204
   76SLPC   O11 6814   2.863   1.093   6.362
   76SLPC    C1 6815   2.920   1.222   6.388
   76SLPC    HA 6816   3.026   1.218   6.357
   76SLPC    HB 6817   2.874   1.302   6.326
   76SLPC    C2 6818   2.918   1.265   6.539
   76SLPC    HS 6819   3.025   1.267   6.572
   76SLPC   O21 6820   2.841   1.171   6.618
   76SLPC   C21 6821   2.909   1.061   6.643
   76SLPC   O22 6822   3.027   1.046   6.618
   76SLPC   C22 6823   2.824   0.947   6.702
   76SLPC   H2R 6824   2.752   0.912   6.626
   76SLPC   H2S 6825   2.900   0.867   6.717
   76SLPC    C3 6826   2.867   1.412   6.558
   76SLPC    HX 6827   2.878   1.465   6.462
   76SLPC    HY 6828   2.936   1.463   6.629
   76SLPC   O31 6829   2.730   1.422   6.603
   76SLPC   C31 6830   2.714   1.386   6.730
   76SLPC   O32 6831   2.804   1.376   6.812
   76SLPC   C32 6832   2.567   1.360   6.759
   76SLPC   H2X 6833   2.509   1.380   6.666
   76SLPC   H2Y 6834   2.535   1.430   6.839
   76SLPC   C23 6835   2.757   0.959   6.842
   76SLPC   H3R 6836   2.651   0.990   6.827
   76SLPC   H3S 6837   2.808   1.034   6.906
   76SLPC   C24 6838   2.753   0.823   6.913
   76SLPC   H4R 6839   2.853   0.802   6.955
   76SLPC   H4S 6840   2.732   0.743   6.838
   76SLPC   C25 6841   2.646   0.812   7.023
   76SLPC   H5R 6842   2.545   0.810   6.977
   76SLPC   H5S 6843   2.651   0.904   7.085
   76SLPC   C26 6844   2.666   0.685   7.109
   76SLPC   H6R 6845   2.765   0.644   7.080
   76SLPC   H6S 6846   2.588   0.610   7.083
   76SLPC   C27 6847   2.673   0.703   7.261
   76SLPC   H7R 6848   2.717   0.612   7.308
   76SLPC   H7S 6849   2.572   0.712   7.307
   76SLPC   C28 6850   2.756   0.823   7.300
   76SLPC   H8R 6851   2.822   0.850   7.214
   76SLPC   H8S 6852   2.687   0.909   7.313
   76SLPC   C29 6853   2.846   0.815   7.419
   76SLPC   H9R 6854   2.862   0.917   7.459
   76SLPC  C210 6855   2.909   0.716   7.486
   76SLPC  H10R 6856   2.975   0.758   7.563
   76SLPC  C211 6857   2.931   0.566   7.486
   76SLPC  H11R 6858   2.894   0.522   7.391
   76SLPC  H11S 6859   2.867   0.525   7.566
   76SLPC  C212 6860   3.077   0.523   7.509
   76SLPC  H12R 6861   3.114   0.482   7.413
   76SLPC  C213 6862   3.167   0.506   7.613
   76SLPC  H13R 6863   3.268   0.477   7.580
   76SLPC  C214 6864   3.172   0.518   7.766
   76SLPC  H14R 6865   3.215   0.423   7.806
   76SLPC  H14S 6866   3.072   0.522   7.815
   76SLPC  C215 6867   3.271   0.624   7.824
   76SLPC  H15R 6868   3.236   0.728   7.805
   76SLPC  H15S 6869   3.365   0.611   7.767
   76SLPC  C216 6870   3.311   0.611   7.973
   76SLPC  H16R 6871   3.416   0.646   7.984
   76SLPC  H16S 6872   3.311   0.503   8.000
   76SLPC  C217 6873   3.228   0.688   8.078
   76SLPC  H17R 6874   3.262   0.651   8.177
   76SLPC  H17S 6875   3.121   0.658   8.068
   76SLPC  C218 6876   3.240   0.842   8.088
   76SLPC  H18R 6877   3.142   0.891   8.070
   76SLPC  H18S 6878   3.313   0.883   8.015
   76SLPC  H18T 6879   3.273   0.872   8.190
   76SLPC   C33 6880   2.543   1.213   6.803
   76SLPC   H3X 6881   2.598   1.193   6.897
   76SLPC   H3Y 6882   2.583   1.149   6.722
   76SLPC   C34 6883   2.395   1.176   6.821
   76SLPC   H4X 6884   2.345   1.192   6.722
   76SLPC   H4Y 6885   2.348   1.246   6.893
   76SLPC   C35 6886   2.364   1.032   6.868
   76SLPC   H5X 6887   2.439   0.960   6.827
   76SLPC   H5Y 6888   2.266   1.006   6.824
   76SLPC   C36 6889   2.350   1.018   7.021
   76SLPC   H6X 6890   2.301   1.111   7.059
   76SLPC   H6Y 6891   2.450   1.012   7.069
   76SLPC   C37 6892   2.260   0.901   7.065
   76SLPC   H7X 6893   2.305   0.805   7.030
   76SLPC   H7Y 6894   2.163   0.913   7.013
   76SLPC   C38 6895   2.232   0.893   7.217
   76SLPC   H8X 6896   2.148   0.822   7.233
   76SLPC   H8Y 6897   2.199   0.992   7.254
   76SLPC   C39 6898   2.353   0.840   7.296
   76SLPC   H9X 6899   2.436   0.914   7.294
   76SLPC   H9Y 6900   2.386   0.752   7.237
   76SLPC  C310 6901   2.329   0.786   7.439
   76SLPC  H10X 6902   2.412   0.716   7.463
   76SLPC  H10Y 6903   2.235   0.727   7.440
   76SLPC  C311 6904   2.324   0.888   7.555
   76SLPC  H11X 6905   2.308   0.834   7.651
   76SLPC  H11Y 6906   2.234   0.951   7.539
   76SLPC  C312 6907   2.445   0.983   7.571
   76SLPC  H12X 6908   2.411   1.069   7.632
   76SLPC  H12Y 6909   2.477   1.020   7.472
   76SLPC  C313 6910   2.568   0.929   7.644
   76SLPC  H13X 6911   2.607   0.845   7.583
   76SLPC  H13Y 6912   2.541   0.890   7.744
   76SLPC  C314 6913   2.678   1.038   7.657
   76SLPC  H14X 6914   2.682   1.097   7.563
   76SLPC  H14Y 6915   2.777   0.989   7.669
   76SLPC  C315 6916   2.659   1.134   7.777
   76SLPC  H15X 6917   2.669   1.077   7.872
   76SLPC  H15Y 6918   2.555   1.173   7.772
   76SLPC  C316 6919   2.755   1.254   7.777
   76SLPC  H16X 6920   2.726   1.325   7.858
   76SLPC  H16Y 6921   2.745   1.308   7.680
   76SLPC  C317 6922   2.903   1.223   7.801
   76SLPC  H17X 6923   2.962   1.315   7.779
   76SLPC  H17Y 6924   2.935   1.146   7.727
   76SLPC  C318 6925   2.939   1.179   7.943
   76SLPC  H18X 6926   3.038   1.128   7.946
   76SLPC  H18Y 6927   2.863   1.108   7.982
   76SLPC  H18Z 6928   2.944   1.267   8.010
   77SLPC     N 6929   6.038   1.665   6.435
   77SLPC   C13 6930   6.165   1.632   6.362
   77SLPC  H13A 6931   6.187   1.707   6.287
   77SLPC  H13B 6932   6.249   1.623   6.429
   77SLPC  H13C 6933   6.151   1.540   6.307
   77SLPC   C14 6934   6.049   1.799   6.502
   77SLPC  H14A 6935   5.957   1.824   6.551
   77SLPC  H14B 6936   6.129   1.799   6.575
   77SLPC  H14C 6937   6.069   1.876   6.429
   77SLPC   C15 6938   6.011   1.560   6.538
   77SLPC  H15A 6939   5.917   1.579   6.588
   77SLPC  H15B 6940   6.003   1.464   6.489
   77SLPC  H15C 6941   6.090   1.555   6.611
   77SLPC   C12 6942   5.925   1.669   6.332
   77SLPC  H12A 6943   5.948   1.741   6.255
   77SLPC  H12B 6944   5.835   1.706   6.379
   77SLPC   C11 6945   5.891   1.537   6.257
   77SLPC  H11A 6946   5.799   1.553   6.198
   77SLPC  H11B 6947   5.870   1.457   6.332
   77SLPC     P 6948   6.024   1.357   6.118
   77SLPC   O13 6949   5.995   1.349   5.972
   77SLPC   O14 6950   6.158   1.318   6.168
   77SLPC   O12 6951   5.998   1.504   6.169
   77SLPC   O11 6952   5.915   1.274   6.195
   77SLPC    C1 6953   5.811   1.205   6.125
   77SLPC    HA 6954   5.739   1.277   6.082
   77SLPC    HB 6955   5.852   1.143   6.042
   77SLPC    C2 6956   5.734   1.110   6.221
   77SLPC    HS 6957   5.646   1.071   6.166
   77SLPC   O21 6958   5.690   1.191   6.331
   77SLPC   C21 6959   5.616   1.135   6.422
   77SLPC   O22 6960   5.562   1.025   6.414
   77SLPC   C22 6961   5.599   1.235   6.537
   77SLPC   H2R 6962   5.533   1.316   6.498
   77SLPC   H2S 6963   5.545   1.185   6.620
   77SLPC    C3 6964   5.823   0.990   6.265
   77SLPC    HX 6965   5.851   0.933   6.173
   77SLPC    HY 6966   5.767   0.917   6.327
   77SLPC   O31 6967   5.946   1.036   6.326
   77SLPC   C31 6968   5.941   1.046   6.457
   77SLPC   O32 6969   5.854   1.001   6.530
   77SLPC   C32 6970   6.056   1.134   6.507
   77SLPC   H2X 6971   6.012   1.225   6.555
   77SLPC   H2Y 6972   6.114   1.168   6.419
   77SLPC   C23 6973   5.734   1.296   6.582
   77SLPC   H3R 6974   5.732   1.405   6.564
   77SLPC   H3S 6975   5.816   1.260   6.517
   77SLPC   C24 6976   5.773   1.277   6.729
   77SLPC   H4R 6977   5.709   1.345   6.790
   77SLPC   H4S 6978   5.878   1.312   6.743
   77SLPC   C25 6979   5.758   1.139   6.792
   77SLPC   H5R 6980   5.848   1.077   6.769
   77SLPC   H5S 6981   5.670   1.085   6.752
   77SLPC   C26 6982   5.742   1.150   6.945
   77SLPC   H6R 6983   5.737   1.048   6.988
   77SLPC   H6S 6984   5.645   1.200   6.967
   77SLPC   C27 6985   5.855   1.232   7.011
   77SLPC   H7R 6986   5.857   1.334   6.967
   77SLPC   H7S 6987   5.953   1.183   6.988
   77SLPC   C28 6988   5.839   1.249   7.162
   77SLPC   H8R 6989   5.738   1.292   7.181
   77SLPC   H8S 6990   5.912   1.325   7.197
   77SLPC   C29 6991   5.857   1.118   7.233
   77SLPC   H9R 6992   5.793   1.036   7.196
   77SLPC  C210 6993   5.940   1.092   7.336
   77SLPC  H10R 6994   5.945   0.990   7.375
   77SLPC  C211 6995   6.035   1.189   7.402
   77SLPC  H11R 6996   6.081   1.256   7.326
   77SLPC  H11S 6997   6.121   1.132   7.443
   77SLPC  C212 6998   5.972   1.275   7.510
   77SLPC  H12R 6999   5.923   1.366   7.473
   77SLPC  C213 7000   5.966   1.248   7.642
   77SLPC  H13R 7001   5.919   1.322   7.709
   77SLPC  C214 7002   6.020   1.127   7.713
   77SLPC  H14R 7003   6.091   1.159   7.792
   77SLPC  H14S 7004   6.078   1.065   7.641
   77SLPC  C215 7005   5.909   1.042   7.779
   77SLPC  H15R 7006   5.820   1.038   7.714
   77SLPC  H15S 7007   5.879   1.091   7.874
   77SLPC  C216 7008   5.951   0.897   7.810
   77SLPC  H16R 7009   5.863   0.841   7.847
   77SLPC  H16S 7010   6.026   0.896   7.892
   77SLPC  C217 7011   6.007   0.821   7.690
   77SLPC  H17R 7012   6.035   0.719   7.725
   77SLPC  H17S 7013   6.102   0.866   7.654
   77SLPC  C218 7014   5.907   0.809   7.575
   77SLPC  H18R 7015   5.826   0.739   7.604
   77SLPC  H18S 7016   5.956   0.770   7.483
   77SLPC  H18T 7017   5.863   0.908   7.551
   77SLPC   C33 7018   6.139   1.058   6.612
   77SLPC   H3X 7019   6.190   0.973   6.563
   77SLPC   H3Y 7020   6.069   1.015   6.688
   77SLPC   C34 7021   6.242   1.138   6.692
   77SLPC   H4X 7022   6.320   1.182   6.626
   77SLPC   H4Y 7023   6.293   1.064   6.758
   77SLPC   C35 7024   6.183   1.246   6.783
   77SLPC   H5X 7025   6.077   1.222   6.806
   77SLPC   H5Y 7026   6.185   1.344   6.730
   77SLPC   C36 7027   6.259   1.255   6.916
   77SLPC   H6X 7028   6.361   1.213   6.902
   77SLPC   H6Y 7029   6.209   1.191   6.992
   77SLPC   C37 7030   6.275   1.398   6.970
   77SLPC   H7X 7031   6.339   1.454   6.899
   77SLPC   H7Y 7032   6.331   1.395   7.066
   77SLPC   C38 7033   6.144   1.474   6.991
   77SLPC   H8X 7034   6.114   1.460   7.097
   77SLPC   H8Y 7035   6.063   1.432   6.928
   77SLPC   C39 7036   6.161   1.623   6.957
   77SLPC   H9X 7037   6.182   1.632   6.848
   77SLPC   H9Y 7038   6.248   1.662   7.013
   77SLPC  C310 7039   6.040   1.712   6.989
   77SLPC  H10X 7040   5.954   1.684   6.924
   77SLPC  H10Y 7041   6.067   1.818   6.968
   77SLPC  C311 7042   5.999   1.698   7.135
   77SLPC  H11X 7043   6.089   1.706   7.200
   77SLPC  H11Y 7044   5.957   1.596   7.148
   77SLPC  C312 7045   5.895   1.802   7.181
   77SLPC  H12X 7046   5.806   1.793   7.117
   77SLPC  H12Y 7047   5.937   1.904   7.169
   77SLPC  C313 7048   5.853   1.780   7.328
   77SLPC  H13X 7049   5.769   1.848   7.351
   77SLPC  H13Y 7050   5.937   1.806   7.396
   77SLPC  C314 7051   5.811   1.635   7.353
   77SLPC  H14X 7052   5.900   1.568   7.351
   77SLPC  H14Y 7053   5.746   1.606   7.268
   77SLPC  C315 7054   5.734   1.609   7.483
   77SLPC  H15X 7055   5.693   1.704   7.524
   77SLPC  H15Y 7056   5.802   1.566   7.558
   77SLPC  C316 7057   5.618   1.513   7.453
   77SLPC  H16X 7058   5.656   1.436   7.383
   77SLPC  H16Y 7059   5.539   1.569   7.400
   77SLPC  C317 7060   5.558   1.442   7.574
   77SLPC  H17X 7061   5.461   1.398   7.542
   77SLPC  H17Y 7062   5.538   1.517   7.654
   77SLPC  C318 7063   5.641   1.328   7.633
   77SLPC  H18X 7064   5.579   1.264   7.699
   77SLPC  H18Y 7065   5.724   1.371   7.693
   77SLPC  H18Z 7066   5.684   1.264   7.553
   78SLPC     N 7067   1.326   0.880   6.117
   78SLPC   C13 7068   1.176   0.875   6.107
   78SLPC  H13A 7069   1.139   0.911   6.013
   78SLPC  H13B 7070   1.141   0.774   6.124
   78SLPC  H13C 7071   1.132   0.933   6.187
   78SLPC   C14 7072   1.368   1.021   6.090
   78SLPC  H14A 7073   1.340   1.049   5.989
   78SLPC  H14B 7074   1.318   1.087   6.159
   78SLPC  H14C 7075   1.475   1.031   6.100
   78SLPC   C15 7076   1.382   0.789   6.012
   78SLPC  H15A 7077   1.490   0.787   6.014
   78SLPC  H15B 7078   1.346   0.688   6.027
   78SLPC  H15C 7079   1.349   0.819   5.914
   78SLPC   C12 7080   1.365   0.835   6.257
   78SLPC  H12A 7081   1.473   0.827   6.265
   78SLPC  H12B 7082   1.325   0.736   6.273
   78SLPC   C11 7083   1.312   0.918   6.377
   78SLPC  H11A 7084   1.332   1.026   6.362
   78SLPC  H11B 7085   1.367   0.888   6.469
   78SLPC     P 7086   1.123   0.759   6.455
   78SLPC   O13 7087   1.176   0.654   6.365
   78SLPC   O14 7088   1.161   0.755   6.597
   78SLPC   O12 7089   1.171   0.899   6.394
   78SLPC   O11 7090   0.965   0.765   6.441
   78SLPC    C1 7091   0.906   0.734   6.314
   78SLPC    HA 7092   0.951   0.795   6.233
   78SLPC    HB 7093   0.922   0.627   6.289
   78SLPC    C2 7094   0.752   0.763   6.310
   78SLPC    HS 7095   0.720   0.769   6.204
   78SLPC   O21 7096   0.715   0.883   6.377
   78SLPC   C21 7097   0.792   0.988   6.370
   78SLPC   O22 7098   0.873   1.017   6.284
   78SLPC   C22 7099   0.753   1.078   6.486
   78SLPC   H2R 7100   0.735   1.178   6.441
   78SLPC   H2S 7101   0.658   1.042   6.532
   78SLPC    C3 7102   0.670   0.651   6.379
   78SLPC    HX 7103   0.685   0.555   6.325
   78SLPC    HY 7104   0.563   0.678   6.369
   78SLPC   O31 7105   0.702   0.644   6.520
   78SLPC   C31 7106   0.782   0.544   6.557
   78SLPC   O32 7107   0.808   0.445   6.491
   78SLPC   C32 7108   0.832   0.571   6.700
   78SLPC   H2X 7109   0.744   0.600   6.761
   78SLPC   H2Y 7110   0.902   0.657   6.694
   78SLPC   C23 7111   0.860   1.094   6.594
   78SLPC   H3R 7112   0.840   1.186   6.653
   78SLPC   H3S 7113   0.961   1.102   6.549
   78SLPC   C24 7114   0.854   0.979   6.693
   78SLPC   H4R 7115   0.877   0.884   6.639
   78SLPC   H4S 7116   0.752   0.971   6.735
   78SLPC   C25 7117   0.955   0.997   6.805
   78SLPC   H5R 7118   0.922   1.078   6.874
   78SLPC   H5S 7119   1.053   1.026   6.762
   78SLPC   C26 7120   0.974   0.866   6.881
   78SLPC   H6R 7121   1.059   0.878   6.952
   78SLPC   H6S 7122   1.009   0.792   6.806
   78SLPC   C27 7123   0.846   0.812   6.949
   78SLPC   H7R 7124   0.867   0.708   6.982
   78SLPC   H7S 7125   0.765   0.805   6.873
   78SLPC   C28 7126   0.796   0.889   7.072
   78SLPC   H8R 7127   0.705   0.840   7.111
   78SLPC   H8S 7128   0.769   0.992   7.040
   78SLPC   C29 7129   0.906   0.894   7.174
   78SLPC   H9R 7130   1.003   0.929   7.134
   78SLPC  C210 7131   0.906   0.861   7.303
   78SLPC  H10R 7132   0.999   0.880   7.358
   78SLPC  C211 7133   0.791   0.809   7.384
   78SLPC  H11R 7134   0.732   0.734   7.327
   78SLPC  H11S 7135   0.722   0.892   7.410
   78SLPC  C212 7136   0.852   0.747   7.507
   78SLPC  H12R 7137   0.886   0.644   7.494
   78SLPC  C213 7138   0.867   0.807   7.627
   78SLPC  H13R 7139   0.913   0.749   7.708
   78SLPC  C214 7140   0.827   0.947   7.666
   78SLPC  H14R 7141   0.814   1.012   7.577
   78SLPC  H14S 7142   0.914   0.988   7.722
   78SLPC  C215 7143   0.702   0.958   7.755
   78SLPC  H15R 7144   0.674   0.856   7.791
   78SLPC  H15S 7145   0.615   0.993   7.694
   78SLPC  C216 7146   0.719   1.046   7.880
   78SLPC  H16R 7147   0.826   1.050   7.908
   78SLPC  H16S 7148   0.665   0.997   7.964
   78SLPC  C217 7149   0.660   1.187   7.876
   78SLPC  H17R 7150   0.550   1.178   7.891
   78SLPC  H17S 7151   0.675   1.234   7.777
   78SLPC  C218 7152   0.716   1.277   7.986
   78SLPC  H18R 7153   0.726   1.222   8.082
   78SLPC  H18S 7154   0.649   1.364   8.002
   78SLPC  H18T 7155   0.815   1.319   7.959
   78SLPC   C33 7156   0.903   0.449   6.762
   78SLPC   H3X 7157   1.001   0.434   6.713
   78SLPC   H3Y 7158   0.841   0.359   6.741
   78SLPC   C34 7159   0.920   0.456   6.915
   78SLPC   H4X 7160   0.913   0.354   6.957
   78SLPC   H4Y 7161   0.833   0.512   6.957
   78SLPC   C35 7162   1.052   0.521   6.961
   78SLPC   H5X 7163   1.067   0.615   6.905
   78SLPC   H5Y 7164   1.138   0.455   6.935
   78SLPC   C36 7165   1.053   0.552   7.112
   78SLPC   H6X 7166   1.069   0.458   7.168
   78SLPC   H6Y 7167   0.953   0.589   7.141
   78SLPC   C37 7168   1.154   0.661   7.156
   78SLPC   H7X 7169   1.138   0.682   7.264
   78SLPC   H7Y 7170   1.129   0.755   7.101
   78SLPC   C38 7171   1.302   0.633   7.131
   78SLPC   H8X 7172   1.316   0.601   7.026
   78SLPC   H8Y 7173   1.334   0.550   7.198
   78SLPC   C39 7174   1.396   0.752   7.159
   78SLPC   H9X 7175   1.375   0.834   7.087
   78SLPC   H9Y 7176   1.500   0.717   7.141
   78SLPC  C310 7177   1.389   0.808   7.303
   78SLPC  H10X 7178   1.493   0.830   7.337
   78SLPC  H10Y 7179   1.348   0.731   7.371
   78SLPC  C311 7180   1.309   0.939   7.313
   78SLPC  H11X 7181   1.203   0.920   7.287
   78SLPC  H11Y 7182   1.350   1.011   7.239
   78SLPC  C312 7183   1.316   1.006   7.452
   78SLPC  H12X 7184   1.266   1.105   7.448
   78SLPC  H12Y 7185   1.423   1.023   7.479
   78SLPC  C313 7186   1.250   0.923   7.563
   78SLPC  H13X 7187   1.296   0.822   7.566
   78SLPC  H13Y 7188   1.143   0.910   7.539
   78SLPC  C314 7189   1.263   0.987   7.702
   78SLPC  H14X 7190   1.220   1.089   7.697
   78SLPC  H14Y 7191   1.370   0.999   7.728
   78SLPC  C315 7192   1.192   0.905   7.810
   78SLPC  H15X 7193   1.264   0.834   7.857
   78SLPC  H15Y 7194   1.112   0.844   7.764
   78SLPC  C316 7195   1.131   0.989   7.922
   78SLPC  H16X 7196   1.046   1.045   7.878
   78SLPC  H16Y 7197   1.203   1.063   7.962
   78SLPC  C317 7198   1.073   0.903   8.034
   78SLPC  H17X 7199   1.023   0.815   7.989
   78SLPC  H17Y 7200   0.998   0.966   8.085
   78SLPC  C318 7201   1.171   0.857   8.140
   78SLPC  H18X 7202   1.221   0.945   8.185
   78SLPC  H18Y 7203   1.247   0.788   8.097
   78SLPC  H18Z 7204   1.118   0.804   8.222
   79SLPC     N 7205   7.064   3.133   6.240
   79SLPC   C13 7206   6.920   3.111   6.205
   79SLPC  H13A 7207   6.892   3.166   6.117
   79SLPC  H13B 7208   6.903   3.006   6.185
   79SLPC  H13C 7209   6.856   3.143   6.286
   79SLPC   C14 7210   7.154   3.084   6.130
   79SLPC  H14A 7211   7.138   2.980   6.107
   79SLPC  H14B 7212   7.144   3.144   6.041
   79SLPC  H14C 7213   7.256   3.097   6.163
   79SLPC   C15 7214   7.103   3.055   6.363
   79SLPC  H15A 7215   7.044   3.080   6.450
   79SLPC  H15B 7216   7.104   2.948   6.347
   79SLPC  H15C 7217   7.205   3.083   6.387
   79SLPC   C12 7218   7.093   3.280   6.268
   79SLPC  H12A 7219   7.062   3.303   6.369
   79SLPC  H12B 7220   7.035   3.343   6.201
   79SLPC   C11 7221   7.241   3.324   6.258
   79SLPC  H11A 7222   7.253   3.425   6.302
   79SLPC  H11B 7223   7.271   3.329   6.151
   79SLPC     P 7224   7.478   3.242   6.327
   79SLPC   O13 7225   7.527   3.105   6.352
   79SLPC   O14 7226   7.516   3.308   6.200
   79SLPC   O12 7227   7.321   3.230   6.327
   79SLPC   O11 7228   7.497   3.339   6.449
   79SLPC    C1 7229   7.570   3.307   6.568
   79SLPC    HA 7230   7.678   3.294   6.545
   79SLPC    HB 7231   7.562   3.394   6.636
   79SLPC    C2 7232   7.521   3.183   6.648
   79SLPC    HS 7233   7.570   3.095   6.601
   79SLPC   O21 7234   7.377   3.170   6.638
   79SLPC   C21 7235   7.333   3.055   6.684
   79SLPC   O22 7236   7.400   2.958   6.711
   79SLPC   C22 7237   7.181   3.063   6.701
   79SLPC   H2R 7238   7.141   3.144   6.637
   79SLPC   H2S 7239   7.140   2.965   6.668
   79SLPC    C3 7240   7.565   3.190   6.798
   79SLPC    HX 7241   7.667   3.234   6.801
   79SLPC    HY 7242   7.572   3.087   6.838
   79SLPC   O31 7243   7.467   3.264   6.875
   79SLPC   C31 7244   7.513   3.336   6.976
   79SLPC   O32 7245   7.629   3.343   7.012
   79SLPC   C32 7246   7.398   3.415   7.038
   79SLPC   H2X 7247   7.303   3.389   6.986
   79SLPC   H2Y 7248   7.420   3.522   7.019
   79SLPC   C23 7249   7.141   3.087   6.849
   79SLPC   H3R 7250   7.174   3.189   6.878
   79SLPC   H3S 7251   7.193   3.014   6.915
   79SLPC   C24 7252   6.990   3.074   6.869
   79SLPC   H4R 7253   6.963   2.966   6.876
   79SLPC   H4S 7254   6.937   3.116   6.781
   79SLPC   C25 7255   6.938   3.148   6.994
   79SLPC   H5R 7256   6.829   3.132   7.003
   79SLPC   H5S 7257   6.955   3.257   6.980
   79SLPC   C26 7258   7.006   3.105   7.125
   79SLPC   H6R 7259   7.114   3.128   7.122
   79SLPC   H6S 7260   6.995   2.995   7.138
   79SLPC   C27 7261   6.943   3.178   7.245
   79SLPC   H7R 7262   6.836   3.147   7.251
   79SLPC   H7S 7263   6.946   3.287   7.225
   79SLPC   C28 7264   7.010   3.151   7.380
   79SLPC   H8R 7265   6.965   3.219   7.456
   79SLPC   H8S 7266   7.116   3.179   7.370
   79SLPC   C29 7267   6.991   3.008   7.425
   79SLPC   H9R 7268   6.887   2.973   7.429
   79SLPC  C210 7269   7.090   2.923   7.459
   79SLPC  H10R 7270   7.063   2.820   7.487
   79SLPC  C211 7271   7.237   2.955   7.457
   79SLPC  H11R 7272   7.255   3.064   7.463
   79SLPC  H11S 7273   7.277   2.925   7.358
   79SLPC  C212 7274   7.315   2.883   7.565
   79SLPC  H12R 7275   7.270   2.789   7.601
   79SLPC  C213 7276   7.430   2.924   7.621
   79SLPC  H13R 7277   7.477   2.859   7.696
   79SLPC  C214 7278   7.504   3.051   7.589
   79SLPC  H14R 7279   7.478   3.090   7.489
   79SLPC  H14S 7280   7.614   3.030   7.587
   79SLPC  C215 7281   7.473   3.159   7.695
   79SLPC  H15R 7282   7.523   3.254   7.666
   79SLPC  H15S 7283   7.513   3.128   7.794
   79SLPC  C216 7284   7.322   3.180   7.705
   79SLPC  H16R 7285   7.272   3.084   7.730
   79SLPC  H16S 7286   7.284   3.213   7.605
   79SLPC  C217 7287   7.269   3.276   7.809
   79SLPC  H17R 7288   7.301   3.380   7.785
   79SLPC  H17S 7289   7.307   3.250   7.910
   79SLPC  C218 7290   7.117   3.263   7.805
   79SLPC  H18R 7291   7.086   3.162   7.838
   79SLPC  H18S 7292   7.079   3.278   7.702
   79SLPC  H18T 7293   7.069   3.339   7.871
   79SLPC   C33 7294   7.381   3.394   7.191
   79SLPC   H3X 7295   7.477   3.414   7.243
   79SLPC   H3Y 7296   7.351   3.289   7.212
   79SLPC   C34 7297   7.274   3.491   7.246
   79SLPC   H4X 7298   7.179   3.476   7.190
   79SLPC   H4Y 7299   7.309   3.595   7.228
   79SLPC   C35 7300   7.246   3.474   7.395
   79SLPC   H5X 7301   7.341   3.474   7.452
   79SLPC   H5Y 7302   7.197   3.376   7.413
   79SLPC   C36 7303   7.156   3.587   7.449
   79SLPC   H6X 7304   7.068   3.601   7.382
   79SLPC   H6Y 7305   7.215   3.681   7.448
   79SLPC   C37 7306   7.106   3.557   7.591
   79SLPC   H7X 7307   7.191   3.517   7.649
   79SLPC   H7Y 7308   7.030   3.476   7.586
   79SLPC   C38 7309   7.046   3.678   7.665
   79SLPC   H8X 7310   7.008   3.642   7.763
   79SLPC   H8Y 7311   6.958   3.715   7.608
   79SLPC   C39 7312   7.142   3.796   7.690
   79SLPC   H9X 7313   7.094   3.866   7.762
   79SLPC   H9Y 7314   7.157   3.851   7.595
   79SLPC  C310 7315   7.282   3.757   7.744
   79SLPC  H10X 7316   7.339   3.850   7.766
   79SLPC  H10Y 7317   7.337   3.702   7.665
   79SLPC  C311 7318   7.279   3.671   7.871
   79SLPC  H11X 7319   7.216   3.581   7.851
   79SLPC  H11Y 7320   7.232   3.727   7.954
   79SLPC  C312 7321   7.417   3.619   7.912
   79SLPC  H12X 7322   7.487   3.705   7.924
   79SLPC  H12Y 7323   7.458   3.554   7.832
   79SLPC  C313 7324   7.411   3.538   8.043
   79SLPC  H13X 7325   7.338   3.455   8.029
   79SLPC  H13Y 7326   7.371   3.602   8.124
   79SLPC  C314 7327   7.547   3.480   8.084
   79SLPC  H14X 7328   7.624   3.560   8.082
   79SLPC  H14Y 7329   7.576   3.404   8.009
   79SLPC  C315 7330   7.548   3.414   8.223
   79SLPC  H15X 7331   7.547   3.492   8.302
   79SLPC  H15Y 7332   7.642   3.356   8.234
   79SLPC  C316 7333   7.428   3.321   8.244
   79SLPC  H16X 7334   7.406   3.269   8.149
   79SLPC  H16Y 7335   7.340   3.384   8.271
   79SLPC  C317 7336   7.447   3.216   8.353
   79SLPC  H17X 7337   7.466   3.264   8.451
   79SLPC  H17Y 7338   7.536   3.154   8.327
   79SLPC  C318 7339   7.325   3.124   8.364
   79SLPC  H18X 7340   7.348   3.039   8.432
   79SLPC  H18Y 7341   7.298   3.084   8.264
   79SLPC  H18Z 7342   7.237   3.179   8.404
   80SLPC     N 7343   6.496   1.183   6.350
   80SLPC   C13 7344   6.354   1.140   6.355
   80SLPC  H13A 7345   6.341   1.047   6.408
   80SLPC  H13B 7346   6.292   1.216   6.400
   80SLPC  H13C 7347   6.315   1.128   6.255
   80SLPC   C14 7348   6.552   1.211   6.486
   80SLPC  H14A 7349   6.657   1.237   6.477
   80SLPC  H14B 7350   6.500   1.293   6.534
   80SLPC  H14C 7351   6.545   1.124   6.549
   80SLPC   C15 7352   6.501   1.304   6.263
   80SLPC  H15A 7353   6.467   1.279   6.164
   80SLPC  H15B 7354   6.441   1.387   6.299
   80SLPC  H15C 7355   6.603   1.337   6.247
   80SLPC   C12 7356   6.578   1.076   6.281
   80SLPC  H12A 7357   6.566   0.981   6.331
   80SLPC  H12B 7358   6.683   1.100   6.291
   80SLPC   C11 7359   6.552   1.061   6.130
   80SLPC  H11A 7360   6.449   1.090   6.103
   80SLPC  H11B 7361   6.559   0.954   6.100
   80SLPC     P 7362   6.796   1.090   6.050
   80SLPC   O13 7363   6.793   0.946   6.020
   80SLPC   O14 7364   6.875   1.176   5.960
   80SLPC   O12 7365   6.645   1.142   6.057
   80SLPC   O11 7366   6.842   1.112   6.200
   80SLPC    C1 7367   6.968   1.062   6.247
   80SLPC    HA 7368   6.999   0.969   6.194
   80SLPC    HB 7369   7.046   1.139   6.228
   80SLPC    C2 7370   6.968   1.031   6.400
   80SLPC    HS 7371   6.907   0.940   6.416
   80SLPC   O21 7372   6.910   1.143   6.469
   80SLPC   C21 7373   6.874   1.119   6.594
   80SLPC   O22 7374   6.845   1.012   6.641
   80SLPC   C22 7375   6.876   1.248   6.673
   80SLPC   H2R 7376   6.778   1.299   6.666
   80SLPC   H2S 7377   6.895   1.221   6.779
   80SLPC    C3 7378   7.114   1.002   6.448
   80SLPC    HX 7379   7.177   1.085   6.408
   80SLPC    HY 7380   7.150   0.909   6.400
   80SLPC   O31 7381   7.134   1.001   6.592
   80SLPC   C31 7382   7.103   0.884   6.650
   80SLPC   O32 7383   7.055   0.789   6.591
   80SLPC   C32 7384   7.127   0.894   6.801
   80SLPC   H2X 7385   7.093   0.994   6.833
   80SLPC   H2Y 7386   7.236   0.883   6.820
   80SLPC   C23 7387   6.990   1.336   6.621
   80SLPC   H3R 7388   6.967   1.377   6.521
   80SLPC   H3S 7389   7.081   1.273   6.609
   80SLPC   C24 7390   7.028   1.447   6.716
   80SLPC   H4R 7391   7.129   1.473   6.679
   80SLPC   H4S 7392   7.040   1.414   6.822
   80SLPC   C25 7393   6.943   1.573   6.701
   80SLPC   H5R 7394   6.918   1.585   6.593
   80SLPC   H5S 7395   7.008   1.661   6.724
   80SLPC   C26 7396   6.816   1.580   6.784
   80SLPC   H6R 7397   6.747   1.502   6.744
   80SLPC   H6S 7398   6.768   1.679   6.768
   80SLPC   C27 7399   6.831   1.560   6.936
   80SLPC   H7R 7400   6.885   1.647   6.979
   80SLPC   H7S 7401   6.892   1.470   6.958
   80SLPC   C28 7402   6.695   1.546   7.006
   80SLPC   H8R 7403   6.634   1.638   6.989
   80SLPC   H8S 7404   6.714   1.540   7.115
   80SLPC   C29 7405   6.623   1.424   6.953
   80SLPC   H9R 7406   6.581   1.434   6.852
   80SLPC  C210 7407   6.608   1.308   7.019
   80SLPC  H10R 7408   6.559   1.223   6.969
   80SLPC  C211 7409   6.658   1.280   7.157
   80SLPC  H11R 7410   6.764   1.314   7.166
   80SLPC  H11S 7411   6.662   1.170   7.173
   80SLPC  C212 7412   6.575   1.347   7.264
   80SLPC  H12R 7413   6.499   1.419   7.231
   80SLPC  C213 7414   6.590   1.323   7.395
   80SLPC  H13R 7415   6.525   1.372   7.469
   80SLPC  C214 7416   6.691   1.226   7.448
   80SLPC  H14R 7417   6.731   1.259   7.546
   80SLPC  H14S 7418   6.780   1.220   7.381
   80SLPC  C215 7419   6.630   1.085   7.456
   80SLPC  H15R 7420   6.713   1.013   7.443
   80SLPC  H15S 7421   6.559   1.068   7.373
   80SLPC  C216 7422   6.563   1.050   7.590
   80SLPC  H16R 7423   6.526   0.945   7.583
   80SLPC  H16S 7424   6.476   1.116   7.608
   80SLPC  C217 7425   6.662   1.060   7.705
   80SLPC  H17R 7426   6.681   1.168   7.724
   80SLPC  H17S 7427   6.758   1.012   7.675
   80SLPC  C218 7428   6.615   0.999   7.835
   80SLPC  H18R 7429   6.530   1.059   7.873
   80SLPC  H18S 7430   6.696   1.001   7.911
   80SLPC  H18T 7431   6.582   0.893   7.821
   80SLPC   C33 7432   7.048   0.786   6.879
   80SLPC   H3X 7433   7.099   0.687   6.870
   80SLPC   H3Y 7434   6.949   0.776   6.829
   80SLPC   C34 7435   7.019   0.818   7.027
   80SLPC   H4X 7436   6.908   0.820   7.039
   80SLPC   H4Y 7437   7.056   0.920   7.051
   80SLPC   C35 7438   7.075   0.716   7.128
   80SLPC   H5X 7439   7.185   0.730   7.133
   80SLPC   H5Y 7440   7.058   0.613   7.090
   80SLPC   C36 7441   7.015   0.726   7.270
   80SLPC   H6X 7442   7.092   0.689   7.342
   80SLPC   H6Y 7443   6.928   0.658   7.278
   80SLPC   C37 7444   6.969   0.868   7.310
   80SLPC   H7X 7445   6.877   0.896   7.254
   80SLPC   H7Y 7446   7.048   0.939   7.278
   80SLPC   C38 7447   6.946   0.897   7.460
   80SLPC   H8X 7448   6.859   0.839   7.497
   80SLPC   H8Y 7449   6.923   1.005   7.471
   80SLPC   C39 7450   7.068   0.867   7.547
   80SLPC   H9X 7451   7.160   0.898   7.494
   80SLPC   H9Y 7452   7.071   0.757   7.560
   80SLPC  C310 7453   7.066   0.932   7.687
   80SLPC  H10X 7454   7.108   0.855   7.755
   80SLPC  H10Y 7455   6.962   0.950   7.722
   80SLPC  C311 7456   7.154   1.057   7.705
   80SLPC  H11X 7457   7.095   1.147   7.675
   80SLPC  H11Y 7458   7.242   1.052   7.638
   80SLPC  C312 7459   7.203   1.071   7.850
   80SLPC  H12X 7460   7.277   0.992   7.874
   80SLPC  H12Y 7461   7.114   1.050   7.914
   80SLPC  C313 7462   7.261   1.208   7.890
   80SLPC  H13X 7463   7.196   1.288   7.849
   80SLPC  H13Y 7464   7.362   1.221   7.846
   80SLPC  C314 7465   7.269   1.224   8.043
   80SLPC  H14X 7466   7.357   1.168   8.081
   80SLPC  H14Y 7467   7.180   1.173   8.087
   80SLPC  C315 7468   7.270   1.367   8.103
   80SLPC  H15X 7469   7.366   1.414   8.075
   80SLPC  H15Y 7470   7.271   1.357   8.213
   80SLPC  C316 7471   7.156   1.464   8.064
   80SLPC  H16X 7472   7.171   1.484   7.956
   80SLPC  H16Y 7473   7.171   1.561   8.117
   80SLPC  C317 7474   7.009   1.421   8.078
   80SLPC  H17X 7475   6.997   1.312   8.060
   80SLPC  H17Y 7476   6.956   1.471   7.994
   80SLPC  C318 7477   6.928   1.466   8.201
   80SLPC  H18X 7478   6.984   1.541   8.261
   80SLPC  H18Y 7479   6.903   1.379   8.265
   80SLPC  H18Z 7480   6.832   1.511   8.170
   81SAPS     N 7481   3.988   4.423  10.131
   81SAPS   HN1 7482   3.917   4.469  10.071
   81SAPS   HN2 7483   3.955   4.414  10.230
   81SAPS   HN3 7484   4.078   4.475  10.126
   81SAPS   C12 7485   4.004   4.291  10.065
   81SAPS  H12A 7486   3.988   4.213  10.138
   81SAPS   C13 7487   3.895   4.279   9.955
   81SAPS  O13A 7488   3.823   4.381   9.931
   81SAPS  O13B 7489   3.861   4.163   9.925
   81SAPS   C11 7490   4.145   4.278   9.999
   81SAPS  H11A 7491   4.148   4.338   9.906
   81SAPS  H11B 7492   4.158   4.173   9.967
   81SAPS     P 7493   4.320   4.454  10.081
   81SAPS   O13 7494   4.214   4.553  10.109
   81SAPS   O14 7495   4.437   4.453  10.171
   81SAPS   O12 7496   4.250   4.312  10.092
   81SAPS   O11 7497   4.361   4.461   9.929
   81SAPS    C1 7498   4.482   4.396   9.889
   81SAPS    HA 7499   4.568   4.454   9.930
   81SAPS    HB 7500   4.490   4.293   9.932
   81SAPS    C2 7501   4.504   4.384   9.735
   81SAPS    HS 7502   4.612   4.397   9.714
   81SAPS   O21 7503   4.426   4.484   9.665
   81SAPS   C21 7504   4.462   4.500   9.539
   81SAPS   O22 7505   4.556   4.445   9.484
   81SAPS   C22 7506   4.363   4.594   9.469
   81SAPS   H2R 7507   4.291   4.529   9.415
   81SAPS   H2S 7508   4.308   4.654   9.545
   81SAPS    C3 7509   4.472   4.240   9.685
   81SAPS    HX 7510   4.525   4.172   9.756
   81SAPS    HY 7511   4.518   4.229   9.585
   81SAPS   O31 7512   4.331   4.214   9.687
   81SAPS   C31 7513   4.285   4.144   9.586
   81SAPS   O32 7514   4.352   4.077   9.510
   81SAPS   C32 7515   4.135   4.169   9.574
   81SAPS   H2X 7516   4.100   4.224   9.663
   81SAPS   H2Y 7517   4.083   4.071   9.571
   81SAPS   C23 7518   4.433   4.687   9.368
   81SAPS   H3R 7519   4.516   4.633   9.316
   81SAPS   H3S 7520   4.480   4.772   9.422
   81SAPS   C24 7521   4.337   4.738   9.260
   81SAPS   H4R 7522   4.250   4.787   9.309
   81SAPS   H4S 7523   4.297   4.651   9.203
   81SAPS   C25 7524   4.408   4.835   9.171
   81SAPS   H5R 7525   4.421   4.936   9.214
   81SAPS   C26 7526   4.469   4.811   9.054
   81SAPS   H6R 7527   4.520   4.896   9.005
   81SAPS   C27 7528   4.482   4.679   8.983
   81SAPS   H7R 7529   4.424   4.683   8.889
   81SAPS   H7S 7530   4.437   4.596   9.043
   81SAPS   C28 7531   4.627   4.646   8.955
   81SAPS   H8R 7532   4.668   4.564   9.016
   81SAPS   C29 7533   4.707   4.709   8.867
   81SAPS   H9R 7534   4.812   4.676   8.857
   81SAPS  C210 7535   4.668   4.826   8.779
   81SAPS  H10R 7536   4.726   4.916   8.810
   81SAPS  H10S 7537   4.562   4.854   8.794
   81SAPS  C211 7538   4.690   4.800   8.633
   81SAPS  H11R 7539   4.783   4.842   8.591
   81SAPS  C212 7540   4.609   4.730   8.552
   81SAPS  H12R 7541   4.639   4.720   8.446
   81SAPS  C213 7542   4.478   4.663   8.588
   81SAPS  H13R 7543   4.488   4.614   8.687
   81SAPS  H13S 7544   4.461   4.579   8.517
   81SAPS  C214 7545   4.357   4.754   8.590
   81SAPS  H14R 7546   4.339   4.802   8.687
   81SAPS  C215 7547   4.274   4.781   8.488
   81SAPS  H15R 7548   4.191   4.851   8.503
   81SAPS  C216 7549   4.286   4.725   8.348
   81SAPS  H16R 7550   4.189   4.734   8.294
   81SAPS  H16S 7551   4.313   4.618   8.349
   81SAPS  C217 7552   4.394   4.802   8.270
   81SAPS  H17R 7553   4.492   4.787   8.320
   81SAPS  H17S 7554   4.373   4.911   8.272
   81SAPS  C218 7555   4.412   4.756   8.125
   81SAPS  H18R 7556   4.408   4.645   8.119
   81SAPS  H18S 7557   4.513   4.788   8.092
   81SAPS  C219 7558   4.310   4.817   8.030
   81SAPS  H19R 7559   4.297   4.925   8.055
   81SAPS  H19S 7560   4.212   4.768   8.048
   81SAPS  C220 7561   4.353   4.810   7.883
   81SAPS  H20R 7562   4.381   4.707   7.854
   81SAPS  H20S 7563   4.439   4.878   7.867
   81SAPS  H20T 7564   4.274   4.846   7.814
   81SAPS   C33 7565   4.102   4.248   9.446
   81SAPS   H3X 7566   4.139   4.192   9.357
   81SAPS   H3Y 7567   4.153   4.346   9.448
   81SAPS   C34 7568   3.951   4.271   9.434
   81SAPS   H4X 7569   3.914   4.315   9.528
   81SAPS   H4Y 7570   3.901   4.172   9.421
   81SAPS   C35 7571   3.912   4.362   9.317
   81SAPS   H5X 7572   3.952   4.464   9.335
   81SAPS   H5Y 7573   3.801   4.369   9.313
   81SAPS   C36 7574   3.964   4.311   9.181
   81SAPS   H6X 7575   3.941   4.203   9.173
   81SAPS   H6Y 7576   4.074   4.322   9.178
   81SAPS   C37 7577   3.903   4.386   9.062
   81SAPS   H7X 7578   3.914   4.495   9.080
   81SAPS   H7Y 7579   3.794   4.364   9.056
   81SAPS   C38 7580   3.971   4.352   8.929
   81SAPS   H8X 7581   4.079   4.374   8.938
   81SAPS   H8Y 7582   3.929   4.418   8.850
   81SAPS   C39 7583   3.954   4.205   8.885
   81SAPS   H9X 7584   3.848   4.187   8.857
   81SAPS   H9Y 7585   3.978   4.138   8.970
   81SAPS  C310 7586   4.046   4.167   8.769
   81SAPS  H10X 7587   4.030   4.060   8.742
   81SAPS  H10Y 7588   4.151   4.177   8.804
   81SAPS  C311 7589   4.026   4.253   8.644
   81SAPS  H11X 7590   4.041   4.361   8.668
   81SAPS  H11Y 7591   3.921   4.241   8.608
   81SAPS  C312 7592   4.123   4.218   8.529
   81SAPS  H12X 7593   4.092   4.278   8.441
   81SAPS  H12Y 7594   4.112   4.111   8.504
   81SAPS  C313 7595   4.269   4.250   8.563
   81SAPS  H13X 7596   4.300   4.189   8.651
   81SAPS  H13Y 7597   4.279   4.357   8.591
   81SAPS  C314 7598   4.367   4.219   8.449
   81SAPS  H14X 7599   4.357   4.112   8.423
   81SAPS  H14Y 7600   4.471   4.236   8.484
   81SAPS  C315 7601   4.343   4.304   8.323
   81SAPS  H15X 7602   4.357   4.412   8.347
   81SAPS  H15Y 7603   4.238   4.290   8.288
   81SAPS  C316 7604   4.436   4.263   8.210
   81SAPS  H16X 7605   4.437   4.152   8.204
   81SAPS  H16Y 7606   4.539   4.298   8.233
   81SAPS  C317 7607   4.394   4.316   8.073
   81SAPS  H17X 7608   4.408   4.426   8.070
   81SAPS  H17Y 7609   4.285   4.297   8.061
   81SAPS  C318 7610   4.470   4.249   7.958
   81SAPS  H18X 7611   4.449   4.299   7.861
   81SAPS  H18Y 7612   4.442   4.142   7.950
   81SAPS  H18Z 7613   4.580   4.255   7.976
   82SAPS     N 7614   2.747   3.876  10.045
   82SAPS   HN1 7615   2.750   3.834   9.950
   82SAPS   HN2 7616   2.649   3.881  10.079
   82SAPS   HN3 7617   2.789   3.971  10.047
   82SAPS   C12 7618   2.821   3.782  10.135
   82SAPS  H12A 7619   2.927   3.793  10.115
   82SAPS   C13 7620   2.800   3.809  10.286
   82SAPS  O13A 7621   2.712   3.891  10.323
   82SAPS  O13B 7622   2.865   3.736  10.366
   82SAPS   C11 7623   2.778   3.633  10.108
   82SAPS  H11A 7624   2.756   3.580  10.203
   82SAPS  H11B 7625   2.866   3.581  10.066
   82SAPS     P 7626   2.683   3.592   9.871
   82SAPS   O13 7627   2.782   3.695   9.831
   82SAPS   O14 7628   2.712   3.447   9.854
   82SAPS   O12 7629   2.661   3.619  10.025
   82SAPS   O11 7630   2.542   3.627   9.816
   82SAPS    C1 7631   2.481   3.754   9.836
   82SAPS    HA 7632   2.393   3.741   9.902
   82SAPS    HB 7633   2.547   3.831   9.882
   82SAPS    C2 7634   2.430   3.813   9.702
   82SAPS    HS 7635   2.356   3.891   9.728
   82SAPS   O21 7636   2.374   3.704   9.628
   82SAPS   C21 7637   2.264   3.729   9.562
   82SAPS   O22 7638   2.207   3.836   9.556
   82SAPS   C22 7639   2.216   3.601   9.494
   82SAPS   H2R 7640   2.186   3.529   9.573
   82SAPS   H2S 7641   2.128   3.626   9.431
   82SAPS    C3 7642   2.547   3.882   9.624
   82SAPS    HX 7643   2.602   3.947   9.696
   82SAPS    HY 7644   2.507   3.951   9.547
   82SAPS   O31 7645   2.639   3.787   9.570
   82SAPS   C31 7646   2.600   3.740   9.453
   82SAPS   O32 7647   2.518   3.792   9.379
   82SAPS   C32 7648   2.673   3.611   9.426
   82SAPS   H2X 7649   2.648   3.538   9.506
   82SAPS   H2Y 7650   2.781   3.635   9.433
   82SAPS   C23 7651   2.329   3.540   9.408
   82SAPS   H3R 7652   2.417   3.522   9.473
   82SAPS   H3S 7653   2.359   3.612   9.329
   82SAPS   C24 7654   2.296   3.406   9.343
   82SAPS   H4R 7655   2.265   3.334   9.421
   82SAPS   H4S 7656   2.388   3.364   9.296
   82SAPS   C25 7657   2.188   3.420   9.240
   82SAPS   H5R 7658   2.086   3.418   9.282
   82SAPS   C26 7659   2.203   3.432   9.107
   82SAPS   H6R 7660   2.112   3.421   9.047
   82SAPS   C27 7661   2.330   3.435   9.025
   82SAPS   H7R 7662   2.341   3.331   8.987
   82SAPS   H7S 7663   2.419   3.452   9.089
   82SAPS   C28 7664   2.334   3.532   8.908
   82SAPS   H8R 7665   2.332   3.638   8.938
   82SAPS   C29 7666   2.341   3.504   8.775
   82SAPS   H9R 7667   2.345   3.587   8.703
   82SAPS  C210 7668   2.345   3.366   8.713
   82SAPS  H10R 7669   2.289   3.298   8.781
   82SAPS  H10S 7670   2.452   3.333   8.714
   82SAPS  C211 7671   2.289   3.332   8.577
   82SAPS  H11R 7672   2.183   3.305   8.579
   82SAPS  C212 7673   2.352   3.327   8.458
   82SAPS  H12R 7674   2.294   3.295   8.370
   82SAPS  C213 7675   2.496   3.357   8.426
   82SAPS  H13R 7676   2.545   3.405   8.513
   82SAPS  H13S 7677   2.498   3.434   8.346
   82SAPS  C214 7678   2.574   3.236   8.381
   82SAPS  H14R 7679   2.528   3.138   8.402
   82SAPS  C215 7680   2.696   3.240   8.323
   82SAPS  H15R 7681   2.745   3.146   8.295
   82SAPS  C216 7682   2.773   3.366   8.295
   82SAPS  H16R 7683   2.819   3.399   8.391
   82SAPS  H16S 7684   2.706   3.448   8.262
   82SAPS  C217 7685   2.890   3.355   8.194
   82SAPS  H17R 7686   2.947   3.261   8.213
   82SAPS  H17S 7687   2.961   3.439   8.213
   82SAPS  C218 7688   2.846   3.364   8.048
   82SAPS  H18R 7689   2.874   3.463   8.005
   82SAPS  H18S 7690   2.735   3.358   8.046
   82SAPS  C219 7691   2.902   3.259   7.955
   82SAPS  H19R 7692   2.951   3.183   8.021
   82SAPS  H19S 7693   2.982   3.301   7.890
   82SAPS  C220 7694   2.798   3.187   7.872
   82SAPS  H20R 7695   2.842   3.143   7.781
   82SAPS  H20S 7696   2.720   3.259   7.839
   82SAPS  H20T 7697   2.745   3.108   7.931
   82SAPS   C33 7698   2.641   3.552   9.287
   82SAPS   H3X 7699   2.608   3.629   9.213
   82SAPS   H3Y 7700   2.562   3.475   9.295
   82SAPS   C34 7701   2.767   3.487   9.234
   82SAPS   H4X 7702   2.794   3.409   9.308
   82SAPS   H4Y 7703   2.848   3.562   9.228
   82SAPS   C35 7704   2.754   3.417   9.100
   82SAPS   H5X 7705   2.655   3.368   9.095
   82SAPS   H5Y 7706   2.834   3.339   9.100
   82SAPS   C36 7707   2.778   3.499   8.975
   82SAPS   H6X 7708   2.877   3.549   8.977
   82SAPS   H6Y 7709   2.699   3.578   8.966
   82SAPS   C37 7710   2.771   3.403   8.856
   82SAPS   H7X 7711   2.688   3.332   8.877
   82SAPS   H7Y 7712   2.864   3.344   8.846
   82SAPS   C38 7713   2.731   3.466   8.724
   82SAPS   H8X 7714   2.660   3.549   8.744
   82SAPS   H8Y 7715   2.677   3.390   8.663
   82SAPS   C39 7716   2.852   3.513   8.646
   82SAPS   H9X 7717   2.898   3.429   8.590
   82SAPS   H9Y 7718   2.927   3.552   8.718
   82SAPS  C310 7719   2.811   3.626   8.553
   82SAPS  H10X 7720   2.747   3.694   8.614
   82SAPS  H10Y 7721   2.748   3.591   8.469
   82SAPS  C311 7722   2.930   3.707   8.505
   82SAPS  H11X 7723   2.962   3.671   8.405
   82SAPS  H11Y 7724   3.015   3.693   8.575
   82SAPS  C312 7725   2.892   3.855   8.499
   82SAPS  H12X 7726   2.977   3.913   8.456
   82SAPS  H12Y 7727   2.872   3.894   8.601
   82SAPS  C313 7728   2.769   3.872   8.412
   82SAPS  H13X 7729   2.677   3.831   8.458
   82SAPS  H13Y 7730   2.791   3.813   8.321
   82SAPS  C314 7731   2.744   4.015   8.368
   82SAPS  H14X 7732   2.842   4.063   8.347
   82SAPS  H14Y 7733   2.694   4.074   8.448
   82SAPS  C315 7734   2.662   4.014   8.239
   82SAPS  H15X 7735   2.695   3.929   8.175
   82SAPS  H15Y 7736   2.694   4.105   8.184
   82SAPS  C316 7737   2.510   4.006   8.259
   82SAPS  H16X 7738   2.479   4.081   8.335
   82SAPS  H16Y 7739   2.484   3.906   8.300
   82SAPS  C317 7740   2.430   4.031   8.131
   82SAPS  H17X 7741   2.462   3.958   8.052
   82SAPS  H17Y 7742   2.450   4.131   8.088
   82SAPS  C318 7743   2.281   4.017   8.148
   82SAPS  H18X 7744   2.232   4.030   8.049
   82SAPS  H18Y 7745   2.240   4.095   8.217
   82SAPS  H18Z 7746   2.257   3.917   8.190
   83SAPS     N 7747   4.165   5.021  10.145
   83SAPS   HN1 7748   4.171   4.918  10.157
   83SAPS   HN2 7749   4.096   5.059  10.214
   83SAPS   HN3 7750   4.137   5.046  10.048
   83SAPS   C12 7751   4.303   5.071  10.171
   83SAPS  H12A 7752   4.298   5.172  10.208
   83SAPS   C13 7753   4.377   4.987  10.277
   83SAPS  O13A 7754   4.310   4.899  10.339
   83SAPS  O13B 7755   4.489   5.029  10.319
   83SAPS   C11 7756   4.378   5.073  10.035
   83SAPS  H11A 7757   4.376   4.972   9.989
   83SAPS  H11B 7758   4.485   5.099  10.051
   83SAPS     P 7759   4.371   5.309   9.918
   83SAPS   O13 7760   4.267   5.389   9.850
   83SAPS   O14 7761   4.429   5.364  10.044
   83SAPS   O12 7762   4.311   5.165   9.948
   83SAPS   O11 7763   4.488   5.273   9.820
   83SAPS    C1 7764   4.467   5.183   9.710
   83SAPS    HA 7765   4.528   5.091   9.728
   83SAPS    HB 7766   4.362   5.152   9.696
   83SAPS    C2 7767   4.514   5.246   9.577
   83SAPS    HS 7768   4.615   5.289   9.597
   83SAPS   O21 7769   4.420   5.348   9.539
   83SAPS   C21 7770   4.465   5.436   9.451
   83SAPS   O22 7771   4.575   5.436   9.399
   83SAPS   C22 7772   4.359   5.543   9.426
   83SAPS   H2R 7773   4.295   5.548   9.516
   83SAPS   H2S 7774   4.411   5.640   9.413
   83SAPS    C3 7775   4.533   5.139   9.466
   83SAPS    HX 7776   4.594   5.056   9.508
   83SAPS    HY 7777   4.594   5.181   9.383
   83SAPS   O31 7778   4.405   5.088   9.425
   83SAPS   C31 7779   4.356   5.147   9.317
   83SAPS   O32 7780   4.417   5.218   9.240
   83SAPS   C32 7781   4.210   5.109   9.300
   83SAPS   H2X 7782   4.149   5.181   9.358
   83SAPS   H2Y 7783   4.194   5.006   9.340
   83SAPS   C23 7784   4.272   5.514   9.302
   83SAPS   H3R 7785   4.187   5.586   9.305
   83SAPS   H3S 7786   4.231   5.411   9.308
   83SAPS   C24 7787   4.345   5.537   9.168
   83SAPS   H4R 7788   4.439   5.478   9.167
   83SAPS   H4S 7789   4.372   5.645   9.160
   83SAPS   C25 7790   4.253   5.495   9.058
   83SAPS   H5R 7791   4.146   5.489   9.085
   83SAPS   C26 7792   4.289   5.462   8.933
   83SAPS   H6R 7793   4.211   5.425   8.865
   83SAPS   C27 7794   4.428   5.461   8.879
   83SAPS   H7R 7795   4.486   5.380   8.928
   83SAPS   H7S 7796   4.479   5.557   8.904
   83SAPS   C28 7797   4.426   5.443   8.729
   83SAPS   H8R 7798   4.335   5.476   8.677
   83SAPS   C29 7799   4.527   5.395   8.655
   83SAPS   H9R 7800   4.515   5.393   8.546
   83SAPS  C210 7801   4.661   5.349   8.706
   83SAPS  H10R 7802   4.665   5.349   8.817
   83SAPS  H10S 7803   4.737   5.423   8.674
   83SAPS  C211 7804   4.695   5.210   8.657
   83SAPS  H11R 7805   4.632   5.130   8.698
   83SAPS  C212 7806   4.793   5.178   8.570
   83SAPS  H12R 7807   4.805   5.072   8.542
   83SAPS  C213 7808   4.889   5.273   8.503
   83SAPS  H13R 7809   4.975   5.216   8.463
   83SAPS  H13S 7810   4.932   5.340   8.580
   83SAPS  C214 7811   4.825   5.360   8.398
   83SAPS  H14R 7812   4.745   5.427   8.436
   83SAPS  C215 7813   4.856   5.365   8.268
   83SAPS  H15R 7814   4.799   5.434   8.203
   83SAPS  C216 7815   4.961   5.285   8.196
   83SAPS  H16R 7816   4.986   5.192   8.252
   83SAPS  H16S 7817   5.056   5.342   8.185
   83SAPS  C217 7818   4.911   5.247   8.056
   83SAPS  H17R 7819   4.892   5.339   7.997
   83SAPS  H17S 7820   4.815   5.193   8.066
   83SAPS  C218 7821   5.004   5.154   7.979
   83SAPS  H18R 7822   5.109   5.167   8.013
   83SAPS  H18S 7823   4.999   5.181   7.871
   83SAPS  C219 7824   4.959   5.008   7.987
   83SAPS  H19R 7825   5.032   4.946   7.931
   83SAPS  H19S 7826   4.861   5.002   7.935
   83SAPS  C220 7827   4.942   4.951   8.127
   83SAPS  H20R 7828   4.863   5.005   8.183
   83SAPS  H20S 7829   5.037   4.962   8.184
   83SAPS  H20T 7830   4.914   4.844   8.123
   83SAPS   C33 7831   4.174   5.116   9.151
   83SAPS   H3X 7832   4.240   5.050   9.091
   83SAPS   H3Y 7833   4.192   5.220   9.116
   83SAPS   C34 7834   4.029   5.078   9.126
   83SAPS   H4X 7835   3.964   5.148   9.182
   83SAPS   H4Y 7836   4.012   4.975   9.165
   83SAPS   C35 7837   3.988   5.077   8.978
   83SAPS   H5X 7838   3.880   5.100   8.973
   83SAPS   H5Y 7839   4.005   4.976   8.935
   83SAPS   C36 7840   4.063   5.178   8.891
   83SAPS   H6X 7841   4.164   5.139   8.868
   83SAPS   H6Y 7842   4.078   5.273   8.947
   83SAPS   C37 7843   3.987   5.205   8.762
   83SAPS   H7X 7844   3.893   5.260   8.783
   83SAPS   H7Y 7845   3.958   5.106   8.721
   83SAPS   C38 7846   4.070   5.282   8.659
   83SAPS   H8X 7847   4.170   5.235   8.652
   83SAPS   H8Y 7848   4.085   5.387   8.692
   83SAPS   C39 7849   4.005   5.279   8.521
   83SAPS   H9X 7850   4.071   5.337   8.452
   83SAPS   H9Y 7851   3.907   5.331   8.523
   83SAPS  C310 7852   3.987   5.136   8.470
   83SAPS  H10X 7853   3.884   5.101   8.494
   83SAPS  H10Y 7854   4.058   5.069   8.522
   83SAPS  C311 7855   4.015   5.123   8.320
   83SAPS  H11X 7856   3.962   5.205   8.266
   83SAPS  H11Y 7857   3.976   5.027   8.281
   83SAPS  C312 7858   4.165   5.127   8.294
   83SAPS  H12X 7859   4.208   5.031   8.329
   83SAPS  H12Y 7860   4.213   5.206   8.356
   83SAPS  C313 7861   4.199   5.148   8.146
   83SAPS  H13X 7862   4.143   5.073   8.086
   83SAPS  H13Y 7863   4.307   5.126   8.133
   83SAPS  C314 7864   4.171   5.288   8.091
   83SAPS  H14X 7865   4.061   5.297   8.078
   83SAPS  H14Y 7866   4.217   5.295   7.991
   83SAPS  C315 7867   4.226   5.405   8.174
   83SAPS  H15X 7868   4.337   5.398   8.179
   83SAPS  H15Y 7869   4.188   5.400   8.278
   83SAPS  C316 7870   4.187   5.543   8.116
   83SAPS  H16X 7871   4.242   5.559   8.020
   83SAPS  H16Y 7872   4.221   5.621   8.187
   83SAPS  C317 7873   4.037   5.561   8.091
   83SAPS  H17X 7874   4.007   5.502   8.002
   83SAPS  H17Y 7875   4.018   5.668   8.068
   83SAPS  C318 7876   3.948   5.519   8.209
   83SAPS  H18X 7877   3.980   5.572   8.301
   83SAPS  H18Y 7878   3.956   5.410   8.229
   83SAPS  H18Z 7879   3.841   5.542   8.189
   84SAPS     N 7880   6.057   3.110  10.266
   84SAPS   HN1 7881   6.121   3.043  10.220
   84SAPS   HN2 7882   6.108   3.184  10.319
   84SAPS   HN3 7883   5.993   3.063  10.333
   84SAPS   C12 7884   5.967   3.182  10.169
   84SAPS  H12A 7885   5.927   3.111  10.098
   84SAPS   C13 7886   5.850   3.247  10.247
   84SAPS  O13A 7887   5.856   3.250  10.373
   84SAPS  O13B 7888   5.745   3.277  10.185
   84SAPS   C11 7889   6.055   3.289  10.098
   84SAPS  H11A 7890   6.148   3.239  10.066
   84SAPS  H11B 7891   6.081   3.369  10.171
   84SAPS     P 7892   6.078   3.428   9.883
   84SAPS   O13 7893   5.995   3.483   9.775
   84SAPS   O14 7894   6.164   3.520   9.961
   84SAPS   O12 7895   5.987   3.348   9.987
   84SAPS   O11 7896   6.167   3.307   9.831
   84SAPS    C1 7897   6.101   3.210   9.749
   84SAPS    HA 7898   6.021   3.157   9.803
   84SAPS    HB 7899   6.056   3.260   9.661
   84SAPS    C2 7900   6.202   3.106   9.694
   84SAPS    HS 7901   6.231   3.038   9.777
   84SAPS   O21 7902   6.313   3.176   9.640
   84SAPS   C21 7903   6.432   3.127   9.658
   84SAPS   O22 7904   6.470   3.055   9.750
   84SAPS   C22 7905   6.514   3.164   9.536
   84SAPS   H2R 7906   6.545   3.270   9.547
   84SAPS   H2S 7907   6.604   3.100   9.532
   84SAPS    C3 7908   6.135   3.020   9.581
   84SAPS    HX 7909   6.066   2.952   9.635
   84SAPS    HY 7910   6.212   2.958   9.530
   84SAPS   O31 7911   6.057   3.102   9.491
   84SAPS   C31 7912   6.086   3.102   9.361
   84SAPS   O32 7913   6.166   3.031   9.305
   84SAPS   C32 7914   6.002   3.209   9.291
   84SAPS   H2X 7915   5.896   3.191   9.319
   84SAPS   H2Y 7916   6.013   3.194   9.182
   84SAPS   C23 7917   6.426   3.145   9.409
   84SAPS   H3R 7918   6.333   3.204   9.416
   84SAPS   H3S 7919   6.394   3.039   9.402
   84SAPS   C24 7920   6.495   3.181   9.279
   84SAPS   H4R 7921   6.434   3.136   9.197
   84SAPS   H4S 7922   6.595   3.133   9.275
   84SAPS   C25 7923   6.501   3.331   9.268
   84SAPS   H5R 7924   6.526   3.386   9.361
   84SAPS   C26 7925   6.469   3.400   9.158
   84SAPS   H6R 7926   6.466   3.509   9.162
   84SAPS   C27 7927   6.423   3.336   9.030
   84SAPS   H7R 7928   6.479   3.243   9.011
   84SAPS   H7S 7929   6.448   3.403   8.945
   84SAPS   C28 7930   6.274   3.309   9.035
   84SAPS   H8R 7931   6.218   3.365   9.111
   84SAPS   C29 7932   6.207   3.222   8.958
   84SAPS   H9R 7933   6.098   3.212   8.972
   84SAPS  C210 7934   6.267   3.135   8.852
   84SAPS  H10R 7935   6.218   3.035   8.856
   84SAPS  H10S 7936   6.374   3.116   8.874
   84SAPS  C211 7937   6.254   3.201   8.718
   84SAPS  H11R 7938   6.268   3.310   8.717
   84SAPS  C212 7939   6.231   3.139   8.601
   84SAPS  H12R 7940   6.224   3.199   8.510
   84SAPS  C213 7941   6.213   2.990   8.582
   84SAPS  H13R 7942   6.127   2.972   8.513
   84SAPS  H13S 7943   6.184   2.939   8.676
   84SAPS  C214 7944   6.337   2.923   8.527
   84SAPS  H14R 7945   6.389   2.855   8.597
   84SAPS  C215 7946   6.388   2.943   8.404
   84SAPS  H15R 7947   6.481   2.891   8.376
   84SAPS  C216 7948   6.327   3.035   8.303
   84SAPS  H16R 7949   6.359   3.138   8.329
   84SAPS  H16S 7950   6.216   3.034   8.312
   84SAPS  C217 7951   6.361   3.013   8.155
   84SAPS  H17R 7952   6.471   3.005   8.142
   84SAPS  H17S 7953   6.329   3.104   8.099
   84SAPS  C218 7954   6.290   2.893   8.092
   84SAPS  H18R 7955   6.184   2.891   8.127
   84SAPS  H18S 7956   6.336   2.799   8.129
   84SAPS  C219 7957   6.289   2.894   7.938
   84SAPS  H19R 7958   6.228   2.981   7.905
   84SAPS  H19S 7959   6.238   2.802   7.903
   84SAPS  C220 7960   6.427   2.905   7.872
   84SAPS  H20R 7961   6.476   3.001   7.897
   84SAPS  H20S 7962   6.419   2.897   7.761
   84SAPS  H20T 7963   6.494   2.823   7.903
   84SAPS   C33 7964   6.045   3.352   9.332
   84SAPS   H3X 7965   6.149   3.373   9.298
   84SAPS   H3Y 7966   6.048   3.358   9.443
   84SAPS   C34 7967   5.951   3.465   9.285
   84SAPS   H4X 7968   5.988   3.563   9.323
   84SAPS   H4Y 7969   5.854   3.446   9.336
   84SAPS   C35 7970   5.922   3.475   9.134
   84SAPS   H5X 7971   5.823   3.526   9.128
   84SAPS   H5Y 7972   5.911   3.374   9.088
   84SAPS   C36 7973   6.015   3.564   9.050
   84SAPS   H6X 7974   6.119   3.527   9.051
   84SAPS   H6Y 7975   6.016   3.665   9.096
   84SAPS   C37 7976   5.966   3.576   8.904
   84SAPS   H7X 7977   5.856   3.594   8.905
   84SAPS   H7Y 7978   5.983   3.480   8.851
   84SAPS   C38 7979   6.033   3.692   8.828
   84SAPS   H8X 7980   6.141   3.668   8.813
   84SAPS   H8Y 7981   6.027   3.782   8.893
   84SAPS   C39 7982   5.967   3.726   8.693
   84SAPS   H9X 7983   6.002   3.828   8.663
   84SAPS   H9Y 7984   5.857   3.729   8.703
   84SAPS  C310 7985   6.003   3.630   8.580
   84SAPS  H10X 7986   5.954   3.531   8.596
   84SAPS  H10Y 7987   6.113   3.614   8.586
   84SAPS  C311 7988   5.970   3.683   8.439
   84SAPS  H11X 7989   6.003   3.788   8.431
   84SAPS  H11Y 7990   5.860   3.680   8.423
   84SAPS  C312 7991   6.041   3.602   8.330
   84SAPS  H12X 7992   6.029   3.494   8.351
   84SAPS  H12Y 7993   6.149   3.628   8.338
   84SAPS  C313 7994   5.998   3.630   8.185
   84SAPS  H13X 7995   6.001   3.740   8.169
   84SAPS  H13Y 7996   5.893   3.597   8.170
   84SAPS  C314 7997   6.089   3.565   8.079
   84SAPS  H14X 7998   6.193   3.601   8.098
   84SAPS  H14Y 7999   6.060   3.599   7.978
   84SAPS  C315 8000   6.092   3.411   8.080
   84SAPS  H15X 8001   6.098   3.374   8.185
   84SAPS  H15Y 8002   6.184   3.377   8.027
   84SAPS  C316 8003   5.971   3.345   8.011
   84SAPS  H16X 8004   5.962   3.385   7.908
   84SAPS  H16Y 8005   5.879   3.374   8.067
   84SAPS  C317 8006   5.981   3.192   8.005
   84SAPS  H17X 8007   6.066   3.164   7.940
   84SAPS  H17Y 8008   5.889   3.152   7.958
   84SAPS  C318 8009   6.000   3.124   8.142
   84SAPS  H18X 8010   6.099   3.151   8.184
   84SAPS  H18Y 8011   5.994   3.014   8.132
   84SAPS  H18Z 8012   5.922   3.158   8.214
   85SAPS     N 8013   2.739   6.240   9.998
   85SAPS   HN1 8014   2.799   6.157  10.014
   85SAPS   HN2 8015   2.661   6.219   9.932
   85SAPS   HN3 8016   2.795   6.323   9.970
   85SAPS   C12 8017   2.672   6.274  10.127
   85SAPS  H12A 8018   2.661   6.183  10.184
   85SAPS   C13 8019   2.753   6.372  10.215
   85SAPS  O13A 8020   2.873   6.393  10.183
   85SAPS  O13B 8021   2.707   6.401  10.329
   85SAPS   C11 8022   2.530   6.324  10.093
   85SAPS  H11A 8023   2.535   6.420  10.038
   85SAPS  H11B 8024   2.473   6.340  10.187
   85SAPS     P 8025   2.321   6.229   9.965
   85SAPS   O13 8026   2.310   6.139   9.850
   85SAPS   O14 8027   2.235   6.200  10.083
   85SAPS   O12 8028   2.470   6.222  10.014
   85SAPS   O11 8029   2.311   6.380   9.923
   85SAPS    C1 8030   2.186   6.449   9.911
   85SAPS    HA 8031   2.099   6.388   9.942
   85SAPS    HB 8032   2.189   6.539   9.976
   85SAPS    C2 8033   2.157   6.504   9.768
   85SAPS    HS 8034   2.050   6.530   9.761
   85SAPS   O21 8035   2.190   6.408   9.667
   85SAPS   C21 8036   2.129   6.292   9.667
   85SAPS   O22 8037   2.040   6.254   9.741
   85SAPS   C22 8038   2.179   6.216   9.546
   85SAPS   H2R 8039   2.272   6.264   9.508
   85SAPS   H2S 8040   2.202   6.112   9.577
   85SAPS    C3 8041   2.238   6.634   9.739
   85SAPS    HX 8042   2.201   6.712   9.809
   85SAPS    HY 8043   2.215   6.671   9.637
   85SAPS   O31 8044   2.379   6.614   9.761
   85SAPS   C31 8045   2.441   6.553   9.661
   85SAPS   O32 8046   2.403   6.546   9.546
   85SAPS   C32 8047   2.571   6.491   9.715
   85SAPS   H2X 8048   2.545   6.439   9.810
   85SAPS   H2Y 8049   2.641   6.574   9.736
   85SAPS   C23 8050   2.076   6.221   9.433
   85SAPS   H3R 8051   2.048   6.327   9.412
   85SAPS   H3S 8052   1.984   6.167   9.463
   85SAPS   C24 8053   2.137   6.161   9.307
   85SAPS   H4R 8054   2.168   6.057   9.328
   85SAPS   H4S 8055   2.230   6.218   9.288
   85SAPS   C25 8056   2.039   6.170   9.193
   85SAPS   H5R 8057   1.950   6.107   9.201
   85SAPS   C26 8058   2.054   6.251   9.087
   85SAPS   H6R 8059   1.977   6.246   9.009
   85SAPS   C27 8060   2.170   6.346   9.062
   85SAPS   H7R 8061   2.191   6.357   8.954
   85SAPS   H7S 8062   2.259   6.292   9.100
   85SAPS   C28 8063   2.168   6.480   9.131
   85SAPS   H8R 8064   2.150   6.470   9.239
   85SAPS   C29 8065   2.185   6.606   9.083
   85SAPS   H9R 8066   2.178   6.686   9.158
   85SAPS  C210 8067   2.214   6.659   8.943
   85SAPS  H10R 8068   2.209   6.580   8.866
   85SAPS  H10S 8069   2.321   6.687   8.942
   85SAPS  C211 8070   2.134   6.783   8.904
   85SAPS  H11R 8071   2.181   6.875   8.943
   85SAPS  C212 8072   2.023   6.802   8.827
   85SAPS  H12R 8073   1.986   6.905   8.813
   85SAPS  C213 8074   1.945   6.695   8.753
   85SAPS  H13R 8075   1.909   6.626   8.832
   85SAPS  H13S 8076   2.024   6.633   8.705
   85SAPS  C214 8077   1.831   6.712   8.654
   85SAPS  H14R 8078   1.807   6.819   8.644
   85SAPS  C215 8079   1.753   6.627   8.578
   85SAPS  H15R 8080   1.677   6.677   8.516
   85SAPS  C216 8081   1.729   6.480   8.545
   85SAPS  H16R 8082   1.625   6.455   8.574
   85SAPS  H16S 8083   1.793   6.407   8.600
   85SAPS  C217 8084   1.743   6.443   8.394
   85SAPS  H17R 8085   1.852   6.440   8.370
   85SAPS  H17S 8086   1.697   6.523   8.333
   85SAPS  C218 8087   1.676   6.310   8.351
   85SAPS  H18R 8088   1.570   6.329   8.326
   85SAPS  H18S 8089   1.675   6.240   8.437
   85SAPS  C219 8090   1.746   6.241   8.232
   85SAPS  H19R 8091   1.855   6.237   8.252
   85SAPS  H19S 8092   1.733   6.304   8.142
   85SAPS  C220 8093   1.695   6.101   8.196
   85SAPS  H20R 8094   1.737   6.069   8.098
   85SAPS  H20S 8095   1.584   6.100   8.188
   85SAPS  H20T 8096   1.726   6.025   8.271
   85SAPS   C33 8097   2.634   6.391   9.615
   85SAPS   H3X 8098   2.735   6.362   9.649
   85SAPS   H3Y 8099   2.645   6.443   9.517
   85SAPS   C34 8100   2.549   6.265   9.593
   85SAPS   H4X 8101   2.442   6.292   9.610
   85SAPS   H4Y 8102   2.573   6.188   9.670
   85SAPS   C35 8103   2.559   6.203   9.451
   85SAPS   H5X 8104   2.488   6.118   9.448
   85SAPS   H5Y 8105   2.661   6.164   9.436
   85SAPS   C36 8106   2.523   6.299   9.336
   85SAPS   H6X 8107   2.603   6.376   9.326
   85SAPS   H6Y 8108   2.429   6.353   9.359
   85SAPS   C37 8109   2.509   6.229   9.200
   85SAPS   H7X 8110   2.418   6.166   9.200
   85SAPS   H7Y 8111   2.595   6.160   9.186
   85SAPS   C38 8112   2.506   6.328   9.082
   85SAPS   H8X 8113   2.605   6.379   9.079
   85SAPS   H8Y 8114   2.432   6.409   9.100
   85SAPS   C39 8115   2.478   6.260   8.947
   85SAPS   H9X 8116   2.372   6.231   8.933
   85SAPS   H9Y 8117   2.534   6.164   8.949
   85SAPS  C310 8118   2.527   6.341   8.826
   85SAPS  H10X 8119   2.574   6.267   8.757
   85SAPS  H10Y 8120   2.606   6.413   8.858
   85SAPS  C311 8121   2.427   6.413   8.737
   85SAPS  H11X 8122   2.415   6.517   8.775
   85SAPS  H11Y 8123   2.327   6.364   8.741
   85SAPS  C312 8124   2.480   6.414   8.592
   85SAPS  H12X 8125   2.589   6.433   8.591
   85SAPS  H12Y 8126   2.433   6.499   8.537
   85SAPS  C313 8127   2.448   6.283   8.519
   85SAPS  H13X 8128   2.351   6.247   8.559
   85SAPS  H13Y 8129   2.524   6.205   8.543
   85SAPS  C314 8130   2.433   6.295   8.366
   85SAPS  H14X 8131   2.531   6.312   8.316
   85SAPS  H14Y 8132   2.370   6.384   8.346
   85SAPS  C315 8133   2.360   6.173   8.309
   85SAPS  H15X 8134   2.274   6.208   8.246
   85SAPS  H15Y 8135   2.318   6.118   8.396
   85SAPS  C316 8136   2.441   6.072   8.228
   85SAPS  H16X 8137   2.380   5.979   8.220
   85SAPS  H16Y 8138   2.533   6.044   8.284
   85SAPS  C317 8139   2.473   6.119   8.086
   85SAPS  H17X 8140   2.553   6.195   8.089
   85SAPS  H17Y 8141   2.382   6.169   8.045
   85SAPS  C318 8142   2.511   6.005   7.991
   85SAPS  H18X 8143   2.520   6.043   7.886
   85SAPS  H18Y 8144   2.435   5.924   7.991
   85SAPS  H18Z 8145   2.608   5.960   8.020
   86SAPS     N 8146   5.018   5.958  10.062
   86SAPS   HN1 8147   4.993   5.918  10.155
   86SAPS   HN2 8148   4.928   5.996  10.026
   86SAPS   HN3 8149   5.052   5.883   9.998
   86SAPS   C12 8150   5.121   6.064  10.089
   86SAPS  H12A 8151   5.128   6.127  10.002
   86SAPS   C13 8152   5.079   6.150  10.212
   86SAPS  O13A 8153   4.985   6.109  10.284
   86SAPS  O13B 8154   5.146   6.252  10.244
   86SAPS   C11 8155   5.261   5.996  10.116
   86SAPS  H11A 8156   5.261   5.895  10.070
   86SAPS  H11B 8157   5.273   5.981  10.226
   86SAPS     P 8158   5.511   6.000  10.039
   86SAPS   O13 8159   5.612   6.096   9.990
   86SAPS   O14 8160   5.547   5.920  10.158
   86SAPS   O12 8161   5.372   6.073  10.067
   86SAPS   O11 8162   5.470   5.899   9.925
   86SAPS    C1 8163   5.402   5.945   9.808
   86SAPS    HA 8164   5.293   5.954   9.827
   86SAPS    HB 8165   5.440   6.043   9.772
   86SAPS    C2 8166   5.424   5.842   9.695
   86SAPS    HS 8167   5.395   5.743   9.738
   86SAPS   O21 8168   5.563   5.846   9.660
   86SAPS   C21 8169   5.605   5.738   9.599
   86SAPS   O22 8170   5.545   5.632   9.591
   86SAPS   C22 8171   5.737   5.769   9.530
   86SAPS   H2R 8172   5.770   5.873   9.555
   86SAPS   H2S 8173   5.815   5.699   9.567
   86SAPS    C3 8174   5.334   5.867   9.570
   86SAPS    HX 8175   5.229   5.877   9.604
   86SAPS    HY 8176   5.341   5.777   9.505
   86SAPS   O31 8177   5.377   5.985   9.497
   86SAPS   C31 8178   5.304   6.005   9.387
   86SAPS   O32 8179   5.204   5.942   9.358
   86SAPS   C32 8180   5.370   6.112   9.300
   86SAPS   H2X 8181   5.461   6.067   9.255
   86SAPS   H2Y 8182   5.401   6.197   9.364
   86SAPS   C23 8183   5.719   5.754   9.378
   86SAPS   H3R 8184   5.670   5.657   9.354
   86SAPS   H3S 8185   5.819   5.752   9.329
   86SAPS   C24 8186   5.633   5.869   9.324
   86SAPS   H4R 8187   5.663   5.962   9.376
   86SAPS   H4S 8188   5.529   5.849   9.356
   86SAPS   C25 8189   5.640   5.893   9.176
   86SAPS   H5R 8190   5.729   5.947   9.142
   86SAPS   C26 8191   5.549   5.855   9.085
   86SAPS   H6R 8192   5.565   5.888   8.982
   86SAPS   C27 8193   5.420   5.778   9.108
   86SAPS   H7R 8194   5.405   5.752   9.215
   86SAPS   H7S 8195   5.431   5.681   9.055
   86SAPS   C28 8196   5.292   5.834   9.053
   86SAPS   H8R 8197   5.227   5.881   9.128
   86SAPS   C29 8198   5.243   5.820   8.928
   86SAPS   H9R 8199   5.148   5.870   8.906
   86SAPS  C210 8200   5.301   5.747   8.809
   86SAPS  H10R 8201   5.250   5.785   8.718
   86SAPS  H10S 8202   5.266   5.642   8.819
   86SAPS  C211 8203   5.449   5.743   8.786
   86SAPS  H11R 8204   5.512   5.732   8.876
   86SAPS  C212 8205   5.513   5.735   8.670
   86SAPS  H12R 8206   5.623   5.737   8.672
   86SAPS  C213 8207   5.447   5.726   8.535
   86SAPS  H13R 8208   5.398   5.821   8.506
   86SAPS  H13S 8209   5.368   5.648   8.534
   86SAPS  C214 8210   5.554   5.688   8.439
   86SAPS  H14R 8211   5.560   5.579   8.425
   86SAPS  C215 8212   5.647   5.767   8.386
   86SAPS  H15R 8213   5.724   5.721   8.322
   86SAPS  C216 8214   5.665   5.914   8.411
   86SAPS  H16R 8215   5.759   5.928   8.469
   86SAPS  H16S 8216   5.585   5.957   8.475
   86SAPS  C217 8217   5.675   5.999   8.283
   86SAPS  H17R 8218   5.574   6.042   8.263
   86SAPS  H17S 8219   5.702   5.940   8.193
   86SAPS  C218 8220   5.781   6.109   8.301
   86SAPS  H18R 8221   5.881   6.072   8.271
   86SAPS  H18S 8222   5.785   6.134   8.410
   86SAPS  C219 8223   5.750   6.240   8.230
   86SAPS  H19R 8224   5.741   6.223   8.121
   86SAPS  H19S 8225   5.835   6.310   8.247
   86SAPS  C220 8226   5.622   6.304   8.284
   86SAPS  H20R 8227   5.612   6.410   8.252
   86SAPS  H20S 8228   5.621   6.301   8.395
   86SAPS  H20T 8229   5.532   6.249   8.247
   86SAPS   C33 8230   5.279   6.160   9.185
   86SAPS   H3X 8231   5.205   6.230   9.228
   86SAPS   H3Y 8232   5.219   6.077   9.140
   86SAPS   C34 8233   5.353   6.230   9.070
   86SAPS   H4X 8234   5.421   6.308   9.110
   86SAPS   H4Y 8235   5.270   6.280   9.015
   86SAPS   C35 8236   5.424   6.147   8.961
   86SAPS   H5X 8237   5.360   6.060   8.936
   86SAPS   H5Y 8238   5.522   6.110   8.998
   86SAPS   C36 8239   5.443   6.230   8.833
   86SAPS   H6X 8240   5.522   6.306   8.853
   86SAPS   H6Y 8241   5.347   6.282   8.812
   86SAPS   C37 8242   5.477   6.158   8.702
   86SAPS   H7X 8243   5.574   6.105   8.715
   86SAPS   H7Y 8244   5.490   6.234   8.622
   86SAPS   C38 8245   5.376   6.054   8.657
   86SAPS   H8X 8246   5.386   5.973   8.732
   86SAPS   H8Y 8247   5.408   6.015   8.558
   86SAPS   C39 8248   5.226   6.086   8.652
   86SAPS   H9X 8249   5.192   6.120   8.752
   86SAPS   H9Y 8250   5.173   5.990   8.632
   86SAPS  C310 8251   5.183   6.186   8.545
   86SAPS  H10X 8252   5.209   6.287   8.583
   86SAPS  H10Y 8253   5.072   6.182   8.536
   86SAPS  C311 8254   5.246   6.169   8.406
   86SAPS  H11X 8255   5.355   6.191   8.411
   86SAPS  H11Y 8256   5.199   6.246   8.342
   86SAPS  C312 8257   5.227   6.035   8.333
   86SAPS  H12X 8258   5.120   6.006   8.339
   86SAPS  H12Y 8259   5.286   5.955   8.382
   86SAPS  C313 8260   5.268   6.048   8.186
   86SAPS  H13X 8261   5.375   6.076   8.178
   86SAPS  H13Y 8262   5.209   6.131   8.142
   86SAPS  C314 8263   5.240   5.922   8.102
   86SAPS  H14X 8264   5.202   5.954   8.003
   86SAPS  H14Y 8265   5.155   5.869   8.151
   86SAPS  C315 8266   5.360   5.827   8.088
   86SAPS  H15X 8267   5.382   5.788   8.190
   86SAPS  H15Y 8268   5.450   5.884   8.057
   86SAPS  C316 8269   5.341   5.704   7.995
   86SAPS  H16X 8270   5.245   5.652   8.014
   86SAPS  H16Y 8271   5.420   5.631   8.025
   86SAPS  C317 8272   5.360   5.722   7.843
   86SAPS  H17X 8273   5.435   5.801   7.826
   86SAPS  H17Y 8274   5.264   5.755   7.798
   86SAPS  C318 8275   5.414   5.598   7.771
   86SAPS  H18X 8276   5.362   5.581   7.674
   86SAPS  H18Y 8277   5.404   5.507   7.835
   86SAPS  H18Z 8278   5.522   5.610   7.748
   87SAPS     N 8279   5.567   6.929  10.224
   87SAPS   HN1 8280   5.520   7.017  10.254
   87SAPS   HN2 8281   5.498   6.853  10.208
   87SAPS   HN3 8282   5.632   6.902  10.300
   87SAPS   C12 8283   5.643   6.939  10.097
   87SAPS  H12A 8284   5.591   7.006  10.030
   87SAPS   C13 8285   5.789   6.990  10.114
   87SAPS  O13A 8286   5.835   7.003  10.231
   87SAPS  O13B 8287   5.864   6.983  10.014
   87SAPS   C11 8288   5.645   6.795  10.036
   87SAPS  H11A 8289   5.725   6.736  10.085
   87SAPS  H11B 8290   5.674   6.805   9.929
   87SAPS     P 8291   5.444   6.656   9.938
   87SAPS   O13 8292   5.540   6.564   9.872
   87SAPS   O14 8293   5.317   6.601   9.991
   87SAPS   O12 8294   5.519   6.729  10.057
   87SAPS   O11 8295   5.410   6.778   9.844
   87SAPS    C1 8296   5.295   6.858   9.879
   87SAPS    HA 8297   5.203   6.795   9.876
   87SAPS    HB 8298   5.306   6.902   9.980
   87SAPS    C2 8299   5.267   6.973   9.779
   87SAPS    HS 8300   5.176   7.026   9.815
   87SAPS   O21 8301   5.251   6.922   9.647
   87SAPS   C21 8302   5.128   6.893   9.612
   87SAPS   O22 8303   5.030   6.894   9.684
   87SAPS   C22 8304   5.127   6.870   9.461
   87SAPS   H2R 8305   5.231   6.878   9.425
   87SAPS   H2S 8306   5.093   6.766   9.440
   87SAPS    C3 8307   5.377   7.082   9.775
   87SAPS    HX 8308   5.388   7.124   9.877
   87SAPS    HY 8309   5.338   7.163   9.710
   87SAPS   O31 8310   5.506   7.035   9.732
   87SAPS   C31 8311   5.531   7.042   9.601
   87SAPS   O32 8312   5.456   7.088   9.516
   87SAPS   C32 8313   5.669   6.985   9.573
   87SAPS   H2X 8314   5.742   7.049   9.626
   87SAPS   H2Y 8315   5.688   6.991   9.463
   87SAPS   C23 8316   5.035   6.974   9.393
   87SAPS   H3R 8317   5.060   7.075   9.430
   87SAPS   H3S 8318   4.929   6.954   9.421
   87SAPS   C24 8319   5.046   6.975   9.240
   87SAPS   H4R 8320   4.984   7.056   9.197
   87SAPS   H4S 8321   5.004   6.879   9.203
   87SAPS   C25 8322   5.191   6.993   9.201
   87SAPS   H5R 8323   5.244   7.076   9.251
   87SAPS   C26 8324   5.259   6.911   9.121
   87SAPS   H6R 8325   5.367   6.927   9.108
   87SAPS   C27 8326   5.204   6.789   9.053
   87SAPS   H7R 8327   5.262   6.771   8.961
   87SAPS   H7S 8328   5.100   6.809   9.018
   87SAPS   C28 8329   5.202   6.665   9.139
   87SAPS   H8R 8330   5.197   6.678   9.248
   87SAPS   C29 8331   5.207   6.542   9.086
   87SAPS   H9R 8332   5.202   6.453   9.150
   87SAPS  C210 8333   5.215   6.518   8.937
   87SAPS  H10R 8334   5.161   6.595   8.878
   87SAPS  H10S 8335   5.169   6.421   8.908
   87SAPS  C211 8336   5.362   6.521   8.905
   87SAPS  H11R 8337   5.429   6.483   8.984
   87SAPS  C212 8338   5.421   6.560   8.792
   87SAPS  H12R 8339   5.530   6.550   8.788
   87SAPS  C213 8340   5.358   6.612   8.667
   87SAPS  H13R 8341   5.389   6.717   8.648
   87SAPS  H13S 8342   5.247   6.609   8.671
   87SAPS  C214 8343   5.414   6.520   8.563
   87SAPS  H14R 8344   5.516   6.483   8.578
   87SAPS  C215 8345   5.353   6.484   8.450
   87SAPS  H15R 8346   5.406   6.407   8.392
   87SAPS  C216 8347   5.217   6.524   8.400
   87SAPS  H16R 8348   5.179   6.616   8.450
   87SAPS  H16S 8349   5.145   6.443   8.422
   87SAPS  C217 8350   5.219   6.547   8.247
   87SAPS  H17R 8351   5.246   6.652   8.225
   87SAPS  H17S 8352   5.116   6.530   8.208
   87SAPS  C218 8353   5.318   6.455   8.173
   87SAPS  H18R 8354   5.321   6.354   8.220
   87SAPS  H18S 8355   5.420   6.499   8.179
   87SAPS  C219 8356   5.284   6.427   8.029
   87SAPS  H19R 8357   5.282   6.523   7.973
   87SAPS  H19S 8358   5.183   6.379   8.024
   87SAPS  C220 8359   5.385   6.334   7.966
   87SAPS  H20R 8360   5.389   6.236   8.020
   87SAPS  H20S 8361   5.485   6.380   7.970
   87SAPS  H20T 8362   5.358   6.314   7.860
   87SAPS   C33 8363   5.681   6.839   9.622
   87SAPS   H3X 8364   5.649   6.835   9.729
   87SAPS   H3Y 8365   5.788   6.807   9.619
   87SAPS   C34 8366   5.595   6.740   9.544
   87SAPS   H4X 8367   5.506   6.791   9.501
   87SAPS   H4Y 8368   5.556   6.664   9.615
   87SAPS   C35 8369   5.672   6.668   9.433
   87SAPS   H5X 8370   5.760   6.616   9.477
   87SAPS   H5Y 8371   5.710   6.744   9.361
   87SAPS   C36 8372   5.583   6.565   9.362
   87SAPS   H6X 8373   5.489   6.615   9.331
   87SAPS   H6Y 8374   5.555   6.486   9.435
   87SAPS   C37 8375   5.649   6.501   9.240
   87SAPS   H7X 8376   5.579   6.426   9.197
   87SAPS   H7Y 8377   5.740   6.446   9.274
   87SAPS   C38 8378   5.689   6.600   9.130
   87SAPS   H8X 8379   5.710   6.542   9.038
   87SAPS   H8Y 8380   5.784   6.650   9.159
   87SAPS   C39 8381   5.586   6.710   9.099
   87SAPS   H9X 8382   5.588   6.786   9.180
   87SAPS   H9Y 8383   5.483   6.668   9.095
   87SAPS  C310 8384   5.620   6.776   8.965
   87SAPS  H10X 8385   5.587   6.716   8.878
   87SAPS  H10Y 8386   5.731   6.766   8.959
   87SAPS  C311 8387   5.577   6.921   8.942
   87SAPS  H11X 8388   5.667   6.979   8.911
   87SAPS  H11Y 8389   5.543   6.969   9.036
   87SAPS  C312 8390   5.476   6.938   8.827
   87SAPS  H12X 8391   5.381   6.887   8.854
   87SAPS  H12Y 8392   5.516   6.886   8.737
   87SAPS  C313 8393   5.446   7.084   8.791
   87SAPS  H13X 8394   5.531   7.127   8.735
   87SAPS  H13Y 8395   5.435   7.141   8.886
   87SAPS  C314 8396   5.315   7.100   8.711
   87SAPS  H14X 8397   5.289   7.207   8.706
   87SAPS  H14Y 8398   5.234   7.048   8.766
   87SAPS  C315 8399   5.322   7.045   8.568
   87SAPS  H15X 8400   5.365   6.942   8.570
   87SAPS  H15Y 8401   5.390   7.109   8.508
   87SAPS  C316 8402   5.185   7.036   8.501
   87SAPS  H16X 8403   5.128   7.130   8.519
   87SAPS  H16Y 8404   5.128   6.953   8.548
   87SAPS  C317 8405   5.194   7.013   8.350
   87SAPS  H17X 8406   5.267   6.932   8.330
   87SAPS  H17Y 8407   5.232   7.106   8.302
   87SAPS  C318 8408   5.060   6.975   8.287
   87SAPS  H18X 8409   5.027   6.878   8.329
   87SAPS  H18Y 8410   5.069   6.963   8.177
   87SAPS  H18Z 8411   4.983   7.052   8.308
   88SAPS     N 8412   7.263   2.935  10.182
   88SAPS   HN1 8413   7.282   3.027  10.227
   88SAPS   HN2 8414   7.215   2.949  10.091
   88SAPS   HN3 8415   7.201   2.881  10.246
   88SAPS   C12 8416   7.390   2.858  10.163
   88SAPS  H12A 8417   7.452   2.914  10.094
   88SAPS   C13 8418   7.472   2.837  10.292
   88SAPS  O13A 8419   7.422   2.870  10.403
   88SAPS  O13B 8420   7.572   2.761  10.286
   88SAPS   C11 8421   7.358   2.718  10.105
   88SAPS  H11A 8422   7.309   2.656  10.183
   88SAPS  H11B 8423   7.453   2.667  10.078
   88SAPS     P 8424   7.331   2.746   9.846
   88SAPS   O13 8425   7.432   2.853   9.859
   88SAPS   O14 8426   7.375   2.616   9.795
   88SAPS   O12 8427   7.271   2.725   9.992
   88SAPS   O11 8428   7.202   2.800   9.771
   88SAPS    C1 8429   7.073   2.761   9.821
   88SAPS    HA 8430   7.063   2.651   9.814
   88SAPS    HB 8431   7.061   2.788   9.928
   88SAPS    C2 8432   6.952   2.827   9.746
   88SAPS    HS 8433   6.862   2.766   9.770
   88SAPS   O21 8434   6.972   2.832   9.604
   88SAPS   C21 8435   6.982   2.714   9.547
   88SAPS   O22 8436   6.973   2.605   9.603
   88SAPS   C22 8437   6.996   2.733   9.397
   88SAPS   H2R 8438   6.902   2.694   9.351
   88SAPS   H2S 8439   7.003   2.841   9.372
   88SAPS    C3 8440   6.923   2.973   9.792
   88SAPS    HX 8441   6.889   2.975   9.898
   88SAPS    HY 8442   6.838   3.009   9.730
   88SAPS   O31 8443   7.034   3.061   9.770
   88SAPS   C31 8444   7.123   3.071   9.868
   88SAPS   O32 8445   7.109   3.027   9.982
   88SAPS   C32 8446   7.251   3.133   9.814
   88SAPS   H2X 8447   7.335   3.086   9.869
   88SAPS   H2Y 8448   7.250   3.242   9.835
   88SAPS   C23 8449   7.117   2.655   9.344
   88SAPS   H3R 8450   7.091   2.612   9.245
   88SAPS   H3S 8451   7.142   2.568   9.409
   88SAPS   C24 8452   7.239   2.745   9.324
   88SAPS   H4R 8453   7.284   2.766   9.424
   88SAPS   H4S 8454   7.205   2.842   9.282
   88SAPS   C25 8455   7.333   2.679   9.227
   88SAPS   H5R 8456   7.288   2.650   9.131
   88SAPS   C26 8457   7.462   2.654   9.249
   88SAPS   H6R 8458   7.521   2.606   9.169
   88SAPS   C27 8459   7.536   2.691   9.375
   88SAPS   H7R 8460   7.512   2.618   9.456
   88SAPS   H7S 8461   7.501   2.789   9.413
   88SAPS   C28 8462   7.684   2.695   9.351
   88SAPS   H8R 8463   7.738   2.607   9.387
   88SAPS   C29 8464   7.752   2.794   9.290
   88SAPS   H9R 8465   7.861   2.781   9.281
   88SAPS  C210 8466   7.704   2.925   9.232
   88SAPS  H10R 8467   7.788   2.967   9.171
   88SAPS  H10S 8468   7.691   2.999   9.314
   88SAPS  C211 8469   7.582   2.927   9.144
   88SAPS  H11R 8470   7.488   2.949   9.197
   88SAPS  C212 8471   7.575   2.892   9.014
   88SAPS  H12R 8472   7.477   2.896   8.964
   88SAPS  C213 8473   7.688   2.842   8.928
   88SAPS  H13R 8474   7.787   2.853   8.979
   88SAPS  H13S 8475   7.695   2.903   8.835
   88SAPS  C214 8476   7.663   2.696   8.900
   88SAPS  H14R 8477   7.668   2.631   8.988
   88SAPS  C215 8478   7.636   2.642   8.780
   88SAPS  H15R 8479   7.615   2.534   8.776
   88SAPS  C216 8480   7.626   2.715   8.649
   88SAPS  H16R 8481   7.580   2.815   8.663
   88SAPS  H16S 8482   7.560   2.659   8.580
   88SAPS  C217 8483   7.764   2.734   8.584
   88SAPS  H17R 8484   7.814   2.636   8.572
   88SAPS  H17S 8485   7.827   2.796   8.651
   88SAPS  C218 8486   7.757   2.803   8.447
   88SAPS  H18R 8487   7.861   2.823   8.414
   88SAPS  H18S 8488   7.705   2.901   8.455
   88SAPS  C219 8489   7.688   2.718   8.339
   88SAPS  H19R 8490   7.583   2.750   8.328
   88SAPS  H19S 8491   7.686   2.612   8.374
   88SAPS  C220 8492   7.761   2.722   8.205
   88SAPS  H20R 8493   7.752   2.823   8.158
   88SAPS  H20S 8494   7.719   2.647   8.135
   88SAPS  H20T 8495   7.869   2.698   8.219
   88SAPS   C33 8496   7.269   3.106   9.662
   88SAPS   H3X 8497   7.212   3.182   9.605
   88SAPS   H3Y 8498   7.224   3.007   9.636
   88SAPS   C34 8499   7.415   3.097   9.617
   88SAPS   H4X 8500   7.462   3.010   9.668
   88SAPS   H4Y 8501   7.470   3.189   9.645
   88SAPS   C35 8502   7.423   3.075   9.465
   88SAPS   H5X 8503   7.346   3.001   9.436
   88SAPS   H5Y 8504   7.522   3.032   9.439
   88SAPS   C36 8505   7.404   3.208   9.392
   88SAPS   H6X 8506   7.498   3.266   9.404
   88SAPS   H6Y 8507   7.322   3.264   9.442
   88SAPS   C37 8508   7.367   3.203   9.243
   88SAPS   H7X 8509   7.445   3.146   9.187
   88SAPS   H7Y 8510   7.366   3.305   9.201
   88SAPS   C38 8511   7.229   3.143   9.219
   88SAPS   H8X 8512   7.152   3.211   9.260
   88SAPS   H8Y 8513   7.220   3.047   9.275
   88SAPS   C39 8514   7.202   3.115   9.071
   88SAPS   H9X 8515   7.299   3.088   9.023
   88SAPS   H9Y 8516   7.165   3.207   9.022
   88SAPS  C310 8517   7.105   2.999   9.049
   88SAPS  H10X 8518   7.009   3.017   9.101
   88SAPS  H10Y 8519   7.147   2.905   9.091
   88SAPS  C311 8520   7.077   2.977   8.900
   88SAPS  H11X 8521   7.052   3.072   8.850
   88SAPS  H11Y 8522   6.989   2.910   8.892
   88SAPS  C312 8523   7.198   2.910   8.835
   88SAPS  H12X 8524   7.230   2.826   8.900
   88SAPS  H12Y 8525   7.283   2.981   8.828
   88SAPS  C313 8526   7.168   2.854   8.696
   88SAPS  H13X 8527   7.184   2.935   8.622
   88SAPS  H13Y 8528   7.062   2.823   8.689
   88SAPS  C314 8529   7.257   2.732   8.668
   88SAPS  H14X 8530   7.242   2.656   8.748
   88SAPS  H14Y 8531   7.362   2.766   8.674
   88SAPS  C315 8532   7.231   2.668   8.532
   88SAPS  H15X 8533   7.133   2.616   8.533
   88SAPS  H15Y 8534   7.310   2.592   8.512
   88SAPS  C316 8535   7.232   2.774   8.421
   88SAPS  H16X 8536   7.320   2.839   8.438
   88SAPS  H16Y 8537   7.140   2.836   8.427
   88SAPS  C317 8538   7.244   2.716   8.281
   88SAPS  H17X 8539   7.167   2.636   8.269
   88SAPS  H17Y 8540   7.344   2.669   8.273
   88SAPS  C318 8541   7.228   2.819   8.169
   88SAPS  H18X 8542   7.223   2.770   8.070
   88SAPS  H18Y 8543   7.315   2.888   8.169
   88SAPS  H18Z 8544   7.135   2.879   8.184
   89SAPS     N 8545   6.439   0.520  10.142
   89SAPS   HN1 8546   6.506   0.592  10.178
   89SAPS   HN2 8547   6.341   0.555  10.141
   89SAPS   HN3 8548   6.450   0.431  10.195
   89SAPS   C12 8549   6.471   0.503   9.998
   89SAPS  H12A 8550   6.468   0.398   9.975
   89SAPS   C13 8551   6.364   0.576   9.914
   89SAPS  O13A 8552   6.273   0.635   9.979
   89SAPS  O13B 8553   6.392   0.606   9.795
   89SAPS   C11 8554   6.612   0.563   9.970
   89SAPS  H11A 8555   6.603   0.670   9.945
   89SAPS  H11B 8556   6.649   0.512   9.878
   89SAPS     P 8557   6.777   0.413  10.110
   89SAPS   O13 8558   6.883   0.435  10.212
   89SAPS   O14 8559   6.672   0.317  10.148
   89SAPS   O12 8560   6.704   0.550  10.080
   89SAPS   O11 8561   6.843   0.372   9.973
   89SAPS    C1 8562   6.916   0.464   9.891
   89SAPS    HA 8563   6.888   0.571   9.908
   89SAPS    HB 8564   7.025   0.455   9.913
   89SAPS    C2 8565   6.899   0.432   9.740
   89SAPS    HS 8566   6.986   0.475   9.686
   89SAPS   O21 8567   6.774   0.480   9.691
   89SAPS   C21 8568   6.779   0.596   9.631
   89SAPS   O22 8569   6.878   0.665   9.616
   89SAPS   C22 8570   6.639   0.629   9.581
   89SAPS   H2R 8571   6.569   0.557   9.629
   89SAPS   H2S 8572   6.611   0.731   9.616
   89SAPS    C3 8573   6.900   0.281   9.714
   89SAPS    HX 8574   6.808   0.232   9.753
   89SAPS    HY 8575   6.986   0.244   9.775
   89SAPS   O31 8576   6.924   0.254   9.575
   89SAPS   C31 8577   6.815   0.245   9.498
   89SAPS   O32 8578   6.701   0.230   9.537
   89SAPS   C32 8579   6.858   0.271   9.354
   89SAPS   H2X 8580   6.934   0.194   9.328
   89SAPS   H2Y 8581   6.906   0.371   9.352
   89SAPS   C23 8582   6.627   0.618   9.428
   89SAPS   H3R 8583   6.652   0.514   9.398
   89SAPS   H3S 8584   6.702   0.684   9.379
   89SAPS   C24 8585   6.486   0.652   9.377
   89SAPS   H4R 8586   6.485   0.640   9.266
   89SAPS   H4S 8587   6.464   0.759   9.398
   89SAPS   C25 8588   6.383   0.566   9.446
   89SAPS   H5R 8589   6.363   0.591   9.550
   89SAPS   C26 8590   6.319   0.462   9.391
   89SAPS   H6R 8591   6.249   0.405   9.454
   89SAPS   C27 8592   6.340   0.414   9.250
   89SAPS   H7R 8593   6.449   0.405   9.230
   89SAPS   H7S 8594   6.302   0.493   9.181
   89SAPS   C28 8595   6.272   0.284   9.215
   89SAPS   H8R 8596   6.206   0.240   9.291
   89SAPS   C29 8597   6.291   0.220   9.098
   89SAPS   H9R 8598   6.238   0.125   9.081
   89SAPS  C210 8599   6.382   0.266   8.987
   89SAPS  H10R 8600   6.410   0.179   8.924
   89SAPS  H10S 8601   6.479   0.300   9.031
   89SAPS  C211 8602   6.324   0.373   8.898
   89SAPS  H11R 8603   6.237   0.343   8.838
   89SAPS  C212 8604   6.369   0.499   8.881
   89SAPS  H12R 8605   6.318   0.562   8.807
   89SAPS  C213 8606   6.489   0.560   8.947
   89SAPS  H13R 8607   6.498   0.526   9.052
   89SAPS  H13S 8608   6.477   0.670   8.952
   89SAPS  C214 8609   6.614   0.522   8.871
   89SAPS  H14R 8610   6.674   0.441   8.916
   89SAPS  C215 8611   6.655   0.575   8.755
   89SAPS  H15R 8612   6.747   0.538   8.708
   89SAPS  C216 8613   6.581   0.683   8.682
   89SAPS  H16R 8614   6.655   0.757   8.645
   89SAPS  H16S 8615   6.513   0.737   8.752
   89SAPS  C217 8616   6.494   0.640   8.563
   89SAPS  H17R 8617   6.414   0.716   8.552
   89SAPS  H17S 8618   6.446   0.542   8.581
   89SAPS  C218 8619   6.576   0.638   8.434
   89SAPS  H18R 8620   6.652   0.557   8.442
   89SAPS  H18S 8621   6.634   0.733   8.427
   89SAPS  C219 8622   6.492   0.616   8.307
   89SAPS  H19R 8623   6.445   0.516   8.317
   89SAPS  H19S 8624   6.565   0.611   8.223
   89SAPS  C220 8625   6.384   0.718   8.273
   89SAPS  H20R 8626   6.309   0.673   8.203
   89SAPS  H20S 8627   6.426   0.806   8.220
   89SAPS  H20T 8628   6.330   0.753   8.363
   89SAPS   C33 8629   6.746   0.273   9.249
   89SAPS   H3X 8630   6.664   0.343   9.279
   89SAPS   H3Y 8631   6.699   0.173   9.244
   89SAPS   C34 8632   6.797   0.313   9.109
   89SAPS   H4X 8633   6.811   0.423   9.104
   89SAPS   H4Y 8634   6.718   0.285   9.037
   89SAPS   C35 8635   6.928   0.244   9.068
   89SAPS   H5X 8636   6.927   0.141   9.110
   89SAPS   H5Y 8637   7.015   0.297   9.112
   89SAPS   C36 8638   6.945   0.229   8.916
   89SAPS   H6X 8639   6.854   0.181   8.876
   89SAPS   H6Y 8640   7.031   0.161   8.896
   89SAPS   C37 8641   6.966   0.358   8.835
   89SAPS   H7X 8642   7.068   0.398   8.854
   89SAPS   H7Y 8643   6.894   0.436   8.866
   89SAPS   C38 8644   6.948   0.326   8.686
   89SAPS   H8X 8645   6.842   0.299   8.669
   89SAPS   H8Y 8646   7.009   0.237   8.661
   89SAPS   C39 8647   6.988   0.439   8.591
   89SAPS   H9X 8648   7.092   0.471   8.617
   89SAPS   H9Y 8649   6.922   0.527   8.606
   89SAPS  C310 8650   6.985   0.397   8.443
   89SAPS  H10X 8651   7.066   0.322   8.425
   89SAPS  H10Y 8652   7.006   0.487   8.382
   89SAPS  C311 8653   6.853   0.335   8.398
   89SAPS  H11X 8654   6.771   0.392   8.446
   89SAPS  H11Y 8655   6.844   0.230   8.435
   89SAPS  C312 8656   6.834   0.340   8.246
   89SAPS  H12X 8657   6.895   0.261   8.197
   89SAPS  H12Y 8658   6.870   0.438   8.210
   89SAPS  C313 8659   6.687   0.326   8.207
   89SAPS  H13X 8660   6.628   0.395   8.272
   89SAPS  H13Y 8661   6.651   0.223   8.230
   89SAPS  C314 8662   6.658   0.361   8.061
   89SAPS  H14X 8663   6.691   0.277   7.996
   89SAPS  H14Y 8664   6.718   0.451   8.033
   89SAPS  C315 8665   6.510   0.394   8.033
   89SAPS  H15X 8666   6.494   0.404   7.924
   89SAPS  H15Y 8667   6.485   0.493   8.077
   89SAPS  C316 8668   6.412   0.290   8.087
   89SAPS  H16X 8669   6.418   0.285   8.198
   89SAPS  H16Y 8670   6.442   0.191   8.048
   89SAPS  C317 8671   6.267   0.316   8.046
   89SAPS  H17X 8672   6.205   0.234   8.089
   89SAPS  H17Y 8673   6.258   0.310   7.935
   89SAPS  C318 8674   6.207   0.449   8.094
   89SAPS  H18X 8675   6.099   0.453   8.072
   89SAPS  H18Y 8676   6.257   0.534   8.043
   89SAPS  H18Z 8677   6.221   0.459   8.204
   90SAPS     N 8678   0.018   0.760   9.911
   90SAPS   HN1 8679  -0.004   0.663   9.880
   90SAPS   HN2 8680  -0.065   0.819   9.893
   90SAPS   HN3 8681   0.103   0.793   9.861
   90SAPS   C12 8682   0.041   0.756  10.059
   90SAPS  H12A 8683   0.103   0.840  10.085
   90SAPS   C13 8684  -0.093   0.774  10.136
   90SAPS  O13A 8685  -0.187   0.832  10.075
   90SAPS  O13B 8686  -0.088   0.770  10.262
   90SAPS   C11 8687   0.112   0.622  10.099
   90SAPS  H11A 8688   0.043   0.539  10.074
   90SAPS  H11B 8689   0.124   0.622  10.209
   90SAPS     P 8690   0.378   0.591  10.100
   90SAPS   O13 8691   0.387   0.695  10.204
   90SAPS   O14 8692   0.417   0.452  10.136
   90SAPS   O12 8693   0.236   0.601  10.029
   90SAPS   O11 8694   0.478   0.628   9.981
   90SAPS    C1 8695   0.437   0.581   9.852
   90SAPS    HA 8696   0.425   0.471   9.850
   90SAPS    HB 8697   0.341   0.632   9.826
   90SAPS    C2 8698   0.528   0.624   9.734
   90SAPS    HS 8699   0.630   0.638   9.775
   90SAPS   O21 8700   0.471   0.747   9.688
   90SAPS   C21 8701   0.555   0.833   9.637
   90SAPS   O22 8702   0.673   0.814   9.614
   90SAPS   C22 8703   0.479   0.963   9.610
   90SAPS   H2R 8704   0.485   1.027   9.702
   90SAPS   H2S 8705   0.534   1.012   9.527
   90SAPS    C3 8706   0.534   0.516   9.619
   90SAPS    HX 8707   0.586   0.427   9.661
   90SAPS    HY 8708   0.598   0.560   9.540
   90SAPS   O31 8709   0.404   0.476   9.565
   90SAPS   C31 8710   0.416   0.398   9.453
   90SAPS   O32 8711   0.523   0.355   9.417
   90SAPS   C32 8712   0.283   0.388   9.370
   90SAPS   H2X 8713   0.326   0.373   9.268
   90SAPS   H2Y 8714   0.242   0.491   9.367
   90SAPS   C23 8715   0.332   0.943   9.568
   90SAPS   H3R 8716   0.277   0.883   9.644
   90SAPS   H3S 8717   0.337   0.885   9.473
   90SAPS   C24 8718   0.252   1.073   9.544
   90SAPS   H4R 8719   0.310   1.136   9.474
   90SAPS   H4S 8720   0.249   1.128   9.640
   90SAPS   C25 8721   0.111   1.059   9.492
   90SAPS   H5R 8722   0.032   1.058   9.568
   90SAPS   C26 8723   0.076   1.044   9.362
   90SAPS   H6R 8724  -0.030   1.030   9.337
   90SAPS   C27 8725   0.169   1.036   9.244
   90SAPS   H7R 8726   0.134   0.953   9.179
   90SAPS   H7S 8727   0.273   1.011   9.275
   90SAPS   C28 8728   0.172   1.159   9.159
   90SAPS   H8R 8729   0.159   1.254   9.214
   90SAPS   C29 8730   0.187   1.165   9.026
   90SAPS   H9R 8731   0.185   1.265   8.979
   90SAPS  C210 8732   0.204   1.051   8.929
   90SAPS  H10R 8733   0.134   0.969   8.952
   90SAPS  H10S 8734   0.307   1.010   8.938
   90SAPS  C211 8735   0.177   1.104   8.790
   90SAPS  H11R 8736   0.090   1.170   8.781
   90SAPS  C212 8737   0.246   1.075   8.678
   90SAPS  H12R 8738   0.215   1.123   8.584
   90SAPS  C213 8739   0.365   0.984   8.671
   90SAPS  H13R 8740   0.332   0.878   8.672
   90SAPS  H13S 8741   0.428   0.996   8.762
   90SAPS  C214 8742   0.454   1.005   8.551
   90SAPS  H14R 8743   0.558   1.030   8.580
   90SAPS  C215 8744   0.422   1.006   8.420
   90SAPS  H15R 8745   0.503   1.025   8.348
   90SAPS  C216 8746   0.287   0.984   8.359
   90SAPS  H16R 8747   0.242   1.082   8.329
   90SAPS  H16S 8748   0.217   0.938   8.432
   90SAPS  C217 8749   0.293   0.895   8.235
   90SAPS  H17R 8750   0.190   0.873   8.201
   90SAPS  H17S 8751   0.340   0.798   8.263
   90SAPS  C218 8752   0.367   0.955   8.115
   90SAPS  H18R 8753   0.468   0.993   8.142
   90SAPS  H18S 8754   0.307   1.042   8.078
   90SAPS  C219 8755   0.383   0.854   8.002
   90SAPS  H19R 8756   0.302   0.778   8.009
   90SAPS  H19S 8757   0.477   0.797   8.015
   90SAPS  C220 8758   0.382   0.918   7.864
   90SAPS  H20R 8759   0.282   0.961   7.841
   90SAPS  H20S 8760   0.410   0.844   7.786
   90SAPS  H20T 8761   0.456   1.002   7.859
   90SAPS   C33 8762   0.164   0.281   9.371
   90SAPS   H3X 8763   0.209   0.193   9.422
   90SAPS   H3Y 8764   0.155   0.244   9.266
   90SAPS   C34 8765   0.015   0.275   9.428
   90SAPS   H4X 8766   0.021   0.235   9.532
   90SAPS   H4Y 8767  -0.023   0.187   9.372
   90SAPS   C35 8768  -0.113   0.369   9.426
   90SAPS   H5X 8769  -0.134   0.404   9.529
   90SAPS   H5Y 8770  -0.197   0.299   9.407
   90SAPS   C36 8771  -0.132   0.485   9.327
   90SAPS   H6X 8772  -0.135   0.446   9.223
   90SAPS   H6Y 8773  -0.039   0.543   9.346
   90SAPS   C37 8774  -0.239   0.597   9.346
   90SAPS   H7X 8775  -0.205   0.670   9.422
   90SAPS   H7Y 8776  -0.333   0.553   9.386
   90SAPS   C38 8777  -0.275   0.672   9.214
   90SAPS   H8X 8778  -0.376   0.717   9.229
   90SAPS   H8Y 8779  -0.284   0.598   9.132
   90SAPS   C39 8780  -0.183   0.789   9.169
   90SAPS   H9X 8781  -0.077   0.771   9.196
   90SAPS   H9Y 8782  -0.214   0.879   9.227
   90SAPS  C310 8783  -0.191   0.822   9.018
   90SAPS  H10X 8784  -0.154   0.926   9.004
   90SAPS  H10Y 8785  -0.297   0.820   8.987
   90SAPS  C311 8786  -0.107   0.734   8.923
   90SAPS  H11X 8787  -0.127   0.627   8.947
   90SAPS  H11Y 8788   0.001   0.753   8.941
   90SAPS  C312 8789  -0.139   0.756   8.774
   90SAPS  H12X 8790  -0.226   0.824   8.768
   90SAPS  H12Y 8791  -0.171   0.661   8.728
   90SAPS  C313 8792  -0.026   0.819   8.689
   90SAPS  H13X 8793   0.015   0.905   8.746
   90SAPS  H13Y 8794  -0.070   0.860   8.596
   90SAPS  C314 8795   0.090   0.726   8.648
   90SAPS  H14X 8796   0.144   0.694   8.739
   90SAPS  H14Y 8797   0.161   0.783   8.584
   90SAPS  C315 8798   0.047   0.601   8.570
   90SAPS  H15X 8799  -0.015   0.539   8.638
   90SAPS  H15Y 8800   0.137   0.541   8.543
   90SAPS  C316 8801  -0.039   0.624   8.445
   90SAPS  H16X 8802  -0.129   0.683   8.471
   90SAPS  H16Y 8803  -0.075   0.524   8.410
   90SAPS  C317 8804   0.036   0.690   8.330
   90SAPS  H17X 8805   0.131   0.635   8.312
   90SAPS  H17Y 8806   0.063   0.793   8.362
   90SAPS  C318 8807  -0.046   0.696   8.202
   90SAPS  H18X 8808   0.010   0.748   8.122
   90SAPS  H18Y 8809  -0.142   0.750   8.219
   90SAPS  H18Z 8810  -0.070   0.593   8.167
   91SAPS     N 8811   3.459   3.668   5.774
   91SAPS   HN1 8812   3.471   3.567   5.793
   91SAPS   HN2 8813   3.459   3.684   5.672
   91SAPS   HN3 8814   3.536   3.720   5.821
   91SAPS   C12 8815   3.330   3.717   5.830
   91SAPS  H12A 8816   3.310   3.814   5.786
   91SAPS   C13 8817   3.208   3.626   5.795
   91SAPS  O13A 8818   3.229   3.544   5.700
   91SAPS  O13B 8819   3.095   3.682   5.807
   91SAPS   C11 8820   3.354   3.741   5.981
   91SAPS  H11A 8821   3.378   3.645   6.032
   91SAPS  H11B 8822   3.260   3.780   6.027
   91SAPS     P 8823   3.581   3.828   6.088
   91SAPS   O13 8824   3.606   3.686   6.116
   91SAPS   O14 8825   3.690   3.901   6.018
   91SAPS   O12 8826   3.457   3.840   5.991
   91SAPS   O11 8827   3.533   3.910   6.215
   91SAPS    C1 8828   3.462   4.034   6.205
   91SAPS    HA 8829   3.534   4.115   6.227
   91SAPS    HB 8830   3.417   4.051   6.105
   91SAPS    C2 8831   3.348   4.054   6.311
   91SAPS    HS 8832   3.326   4.161   6.329
   91SAPS   O21 8833   3.389   3.994   6.436
   91SAPS   C21 8834   3.475   4.067   6.504
   91SAPS   O22 8835   3.512   4.179   6.472
   91SAPS   C22 8836   3.513   3.994   6.633
   91SAPS   H2R 8837   3.426   3.931   6.662
   91SAPS   H2S 8838   3.599   3.927   6.612
   91SAPS    C3 8839   3.211   4.003   6.260
   91SAPS    HX 8840   3.193   4.045   6.159
   91SAPS    HY 8841   3.128   4.041   6.324
   91SAPS   O31 8842   3.210   3.861   6.250
   91SAPS   C31 8843   3.196   3.804   6.368
   91SAPS   O32 8844   3.157   3.858   6.470
   91SAPS   C32 8845   3.234   3.660   6.358
   91SAPS   H2X 8846   3.193   3.618   6.264
   91SAPS   H2Y 8847   3.181   3.621   6.447
   91SAPS   C23 8848   3.545   4.091   6.749
   91SAPS   H3R 8849   3.532   4.038   6.845
   91SAPS   H3S 8850   3.471   4.174   6.749
   91SAPS   C24 8851   3.687   4.150   6.743
   91SAPS   H4R 8852   3.687   4.244   6.802
   91SAPS   H4S 8853   3.710   4.182   6.639
   91SAPS   C25 8854   3.794   4.058   6.794
   91SAPS   H5R 8855   3.840   3.992   6.718
   91SAPS   C26 8856   3.836   4.048   6.922
   91SAPS   H6R 8857   3.920   3.980   6.945
   91SAPS   C27 8858   3.786   4.127   7.041
   91SAPS   H7R 8859   3.699   4.189   7.012
   91SAPS   H7S 8860   3.866   4.197   7.072
   91SAPS   C28 8861   3.748   4.042   7.160
   91SAPS   H8R 8862   3.762   3.933   7.150
   91SAPS   C29 8863   3.700   4.091   7.276
   91SAPS   H9R 8864   3.674   4.022   7.358
   91SAPS  C210 8865   3.677   4.238   7.301
   91SAPS  H10R 8866   3.646   4.285   7.206
   91SAPS  H10S 8867   3.775   4.284   7.327
   91SAPS  C211 8868   3.574   4.277   7.405
   91SAPS  H11R 8869   3.472   4.290   7.365
   91SAPS  C212 8870   3.595   4.297   7.536
   91SAPS  H12R 8871   3.511   4.329   7.599
   91SAPS  C213 8872   3.726   4.284   7.610
   91SAPS  H13R 8873   3.725   4.347   7.702
   91SAPS  H13S 8874   3.806   4.330   7.548
   91SAPS  C214 8875   3.758   4.139   7.640
   91SAPS  H14R 8876   3.752   4.073   7.552
   91SAPS  C215 8877   3.795   4.083   7.757
   91SAPS  H15R 8878   3.813   3.975   7.760
   91SAPS  C216 8879   3.814   4.154   7.889
   91SAPS  H16R 8880   3.812   4.264   7.874
   91SAPS  H16S 8881   3.914   4.132   7.933
   91SAPS  C217 8882   3.705   4.113   7.990
   91SAPS  H17R 8883   3.735   4.018   8.041
   91SAPS  H17S 8884   3.612   4.092   7.935
   91SAPS  C218 8885   3.671   4.221   8.095
   91SAPS  H18R 8886   3.757   4.235   8.164
   91SAPS  H18S 8887   3.586   4.182   8.155
   91SAPS  C219 8888   3.631   4.356   8.035
   91SAPS  H19R 8889   3.723   4.409   8.002
   91SAPS  H19S 8890   3.584   4.419   8.114
   91SAPS  C220 8891   3.536   4.346   7.915
   91SAPS  H20R 8892   3.519   4.445   7.867
   91SAPS  H20S 8893   3.438   4.302   7.944
   91SAPS  H20T 8894   3.579   4.280   7.836
   91SAPS   C33 8895   3.384   3.628   6.373
   91SAPS   H3X 8896   3.448   3.706   6.326
   91SAPS   H3Y 8897   3.404   3.533   6.319
   91SAPS   C34 8898   3.423   3.608   6.520
   91SAPS   H4X 8899   3.339   3.561   6.577
   91SAPS   H4Y 8900   3.440   3.709   6.564
   91SAPS   C35 8901   3.545   3.517   6.535
   91SAPS   H5X 8902   3.624   3.556   6.467
   91SAPS   H5Y 8903   3.519   3.416   6.498
   91SAPS   C36 8904   3.598   3.507   6.679
   91SAPS   H6X 8905   3.686   3.439   6.679
   91SAPS   H6Y 8906   3.520   3.461   6.743
   91SAPS   C37 8907   3.638   3.643   6.738
   91SAPS   H7X 8908   3.549   3.709   6.743
   91SAPS   H7Y 8909   3.710   3.691   6.668
   91SAPS   C38 8910   3.704   3.633   6.876
   91SAPS   H8X 8911   3.777   3.717   6.885
   91SAPS   H8Y 8912   3.760   3.538   6.884
   91SAPS   C39 8913   3.606   3.648   6.993
   91SAPS   H9X 8914   3.662   3.632   7.088
   91SAPS   H9Y 8915   3.528   3.569   6.986
   91SAPS  C310 8916   3.540   3.787   6.998
   91SAPS  H10X 8917   3.472   3.801   6.912
   91SAPS  H10Y 8918   3.620   3.864   6.989
   91SAPS  C311 8919   3.460   3.812   7.127
   91SAPS  H11X 8920   3.434   3.920   7.134
   91SAPS  H11Y 8921   3.526   3.789   7.213
   91SAPS  C312 8922   3.332   3.728   7.134
   91SAPS  H12X 8923   3.334   3.652   7.053
   91SAPS  H12Y 8924   3.243   3.793   7.114
   91SAPS  C313 8925   3.316   3.655   7.267
   91SAPS  H13X 8926   3.411   3.601   7.290
   91SAPS  H13Y 8927   3.236   3.579   7.259
   91SAPS  C314 8928   3.281   3.750   7.383
   91SAPS  H14X 8929   3.182   3.795   7.363
   91SAPS  H14Y 8930   3.355   3.832   7.389
   91SAPS  C315 8931   3.276   3.676   7.517
   91SAPS  H15X 8932   3.216   3.583   7.507
   91SAPS  H15Y 8933   3.220   3.742   7.588
   91SAPS  C316 8934   3.416   3.643   7.572
   91SAPS  H16X 8935   3.482   3.731   7.557
   91SAPS  H16Y 8936   3.458   3.560   7.511
   91SAPS  C317 8937   3.421   3.603   7.721
   91SAPS  H17X 8938   3.467   3.687   7.778
   91SAPS  H17Y 8939   3.491   3.517   7.731
   91SAPS  C318 8940   3.286   3.568   7.784
   91SAPS  H18X 8941   3.221   3.658   7.789
   91SAPS  H18Y 8942   3.301   3.531   7.888
   91SAPS  H18Z 8943   3.235   3.489   7.726
   92SAPS     N 8944   2.701   3.223   5.819
   92SAPS   HN1 8945   2.633   3.159   5.772
   92SAPS   HN2 8946   2.794   3.211   5.774
   92SAPS   HN3 8947   2.709   3.203   5.921
   92SAPS   C12 8948   2.653   3.364   5.808
   92SAPS  H12A 8949   2.732   3.428   5.845
   92SAPS   C13 8950   2.614   3.408   5.665
   92SAPS  O13A 8951   2.582   3.319   5.581
   92SAPS  O13B 8952   2.598   3.530   5.642
   92SAPS   C11 8953   2.526   3.382   5.899
   92SAPS  H11A 8954   2.437   3.346   5.842
   92SAPS  H11B 8955   2.510   3.491   5.916
   92SAPS     P 8956   2.629   3.353   6.139
   92SAPS   O13 8957   2.667   3.494   6.119
   92SAPS   O14 8958   2.572   3.308   6.267
   92SAPS   O12 8959   2.529   3.311   6.023
   92SAPS   O11 8960   2.748   3.259   6.091
   92SAPS    C1 8961   2.752   3.122   6.130
   92SAPS    HA 8962   2.654   3.081   6.159
   92SAPS    HB 8963   2.788   3.062   6.043
   92SAPS    C2 8964   2.854   3.095   6.244
   92SAPS    HS 8965   2.860   2.984   6.254
   92SAPS   O21 8966   2.813   3.157   6.366
   92SAPS   C21 8967   2.730   3.086   6.439
   92SAPS   O22 8968   2.669   2.987   6.403
   92SAPS   C22 8969   2.735   3.141   6.582
   92SAPS   H2R 8970   2.842   3.144   6.613
   92SAPS   H2S 8971   2.695   3.244   6.578
   92SAPS    C3 8972   2.998   3.143   6.208
   92SAPS    HX 8973   3.007   3.150   6.097
   92SAPS    HY 8974   3.071   3.066   6.241
   92SAPS   O31 8975   3.032   3.270   6.265
   92SAPS   C31 8976   3.069   3.263   6.391
   92SAPS   O32 8977   3.085   3.164   6.460
   92SAPS   C32 8978   3.100   3.402   6.437
   92SAPS   H2X 8979   3.053   3.474   6.366
   92SAPS   H2Y 8980   3.211   3.410   6.431
   92SAPS   C23 8981   2.653   3.057   6.682
   92SAPS   H3R 8982   2.698   2.957   6.696
   92SAPS   H3S 8983   2.552   3.043   6.638
   92SAPS   C24 8984   2.632   3.128   6.818
   92SAPS   H4R 8985   2.549   3.077   6.869
   92SAPS   H4S 8986   2.596   3.231   6.796
   92SAPS   C25 8987   2.755   3.135   6.905
   92SAPS   H5R 8988   2.844   3.176   6.855
   92SAPS   C26 8989   2.766   3.098   7.034
   92SAPS   H6R 8990   2.863   3.110   7.084
   92SAPS   C27 8991   2.657   3.039   7.122
   92SAPS   H7R 8992   2.699   2.944   7.162
   92SAPS   H7S 8993   2.570   3.006   7.061
   92SAPS   C28 8994   2.604   3.118   7.240
   92SAPS   H8R 8995   2.595   3.056   7.331
   92SAPS   C29 8996   2.564   3.247   7.248
   92SAPS   H9R 8997   2.527   3.283   7.345
   92SAPS  C210 8998   2.563   3.349   7.137
   92SAPS  H10R 8999   2.565   3.298   7.038
   92SAPS  H10S 9000   2.659   3.404   7.142
   92SAPS  C211 9001   2.452   3.453   7.134
   92SAPS  H11R 9002   2.350   3.418   7.110
   92SAPS  C212 9003   2.463   3.584   7.154
   92SAPS  H12R 9004   2.373   3.646   7.146
   92SAPS  C213 9005   2.591   3.656   7.187
   92SAPS  H13R 9006   2.657   3.656   7.098
   92SAPS  H13S 9007   2.645   3.600   7.266
   92SAPS  C214 9008   2.570   3.797   7.234
   92SAPS  H14R 9009   2.611   3.875   7.168
   92SAPS  C215 9010   2.500   3.834   7.343
   92SAPS  H15R 9011   2.491   3.942   7.366
   92SAPS  C216 9012   2.430   3.741   7.438
   92SAPS  H16R 9013   2.458   3.635   7.423
   92SAPS  H16S 9014   2.321   3.747   7.418
   92SAPS  C217 9015   2.454   3.776   7.585
   92SAPS  H17R 9016   2.474   3.885   7.599
   92SAPS  H17S 9017   2.544   3.721   7.619
   92SAPS  C218 9018   2.335   3.739   7.675
   92SAPS  H18R 9019   2.255   3.816   7.664
   92SAPS  H18S 9020   2.370   3.743   7.781
   92SAPS  C219 9021   2.274   3.602   7.646
   92SAPS  H19R 9022   2.355   3.527   7.638
   92SAPS  H19S 9023   2.221   3.603   7.548
   92SAPS  C220 9024   2.175   3.561   7.754
   92SAPS  H20R 9025   2.143   3.455   7.742
   92SAPS  H20S 9026   2.085   3.627   7.750
   92SAPS  H20T 9027   2.221   3.573   7.855
   92SAPS   C33 9028   3.055   3.435   6.580
   92SAPS   H3X 9029   3.114   3.521   6.617
   92SAPS   H3Y 9030   3.077   3.349   6.646
   92SAPS   C34 9031   2.907   3.476   6.586
   92SAPS   H4X 9032   2.846   3.387   6.561
   92SAPS   H4Y 9033   2.885   3.553   6.509
   92SAPS   C35 9034   2.866   3.530   6.724
   92SAPS   H5X 9035   2.760   3.502   6.743
   92SAPS   H5Y 9036   2.871   3.641   6.723
   92SAPS   C36 9037   2.956   3.479   6.837
   92SAPS   H6X 9038   3.055   3.527   6.831
   92SAPS   H6Y 9039   2.969   3.369   6.826
   92SAPS   C37 9040   2.897   3.502   6.975
   92SAPS   H7X 9041   2.803   3.443   6.980
   92SAPS   H7Y 9042   2.870   3.608   6.990
   92SAPS   C38 9043   2.991   3.455   7.087
   92SAPS   H8X 9044   3.063   3.537   7.112
   92SAPS   H8Y 9045   3.050   3.367   7.055
   92SAPS   C39 9046   2.904   3.418   7.206
   92SAPS   H9X 9047   2.847   3.327   7.180
   92SAPS   H9Y 9048   2.832   3.502   7.218
   92SAPS  C310 9049   2.968   3.396   7.342
   92SAPS  H10X 9050   3.032   3.482   7.369
   92SAPS  H10Y 9051   3.029   3.303   7.343
   92SAPS  C311 9052   2.850   3.385   7.440
   92SAPS  H11X 9053   2.787   3.298   7.414
   92SAPS  H11Y 9054   2.788   3.476   7.427
   92SAPS  C312 9055   2.890   3.378   7.587
   92SAPS  H12X 9056   2.988   3.427   7.600
   92SAPS  H12Y 9057   2.901   3.271   7.617
   92SAPS  C313 9058   2.789   3.452   7.676
   92SAPS  H13X 9059   2.796   3.559   7.650
   92SAPS  H13Y 9060   2.824   3.443   7.780
   92SAPS  C314 9061   2.640   3.410   7.667
   92SAPS  H14X 9062   2.633   3.300   7.656
   92SAPS  H14Y 9063   2.593   3.455   7.577
   92SAPS  C315 9064   2.565   3.455   7.795
   92SAPS  H15X 9065   2.526   3.557   7.775
   92SAPS  H15Y 9066   2.637   3.464   7.879
   92SAPS  C316 9067   2.447   3.369   7.846
   92SAPS  H16X 9068   2.380   3.341   7.762
   92SAPS  H16Y 9069   2.390   3.436   7.914
   92SAPS  C317 9070   2.483   3.245   7.930
   92SAPS  H17X 9071   2.564   3.272   8.002
   92SAPS  H17Y 9072   2.524   3.167   7.863
   92SAPS  C318 9073   2.371   3.185   8.015
   92SAPS  H18X 9074   2.276   3.179   7.957
   92SAPS  H18Y 9075   2.353   3.248   8.105
   92SAPS  H18Z 9076   2.398   3.083   8.049
   93SAPS     N 9077   3.749   2.507   6.106
   93SAPS   HN1 9078   3.713   2.596   6.144
   93SAPS   HN2 9079   3.666   2.448   6.084
   93SAPS   HN3 9080   3.811   2.460   6.176
   93SAPS   C12 9081   3.823   2.553   5.984
   93SAPS  H12A 9082   3.785   2.501   5.898
   93SAPS   C13 9083   3.797   2.704   5.962
   93SAPS  O13A 9084   3.720   2.762   6.043
   93SAPS  O13B 9085   3.816   2.750   5.846
   93SAPS   C11 9086   3.977   2.531   5.997
   93SAPS  H11A 9087   3.997   2.423   6.010
   93SAPS  H11B 9088   4.013   2.584   6.088
   93SAPS     P 9089   4.167   2.517   5.808
   93SAPS   O13 9090   4.114   2.424   5.706
   93SAPS   O14 9091   4.262   2.620   5.761
   93SAPS   O12 9092   4.047   2.585   5.883
   93SAPS   O11 9093   4.238   2.435   5.922
   93SAPS    C1 9094   4.292   2.507   6.034
   93SAPS    HA 9095   4.396   2.538   6.009
   93SAPS    HB 9096   4.236   2.599   6.061
   93SAPS    C2 9097   4.297   2.415   6.157
   93SAPS    HS 9098   4.332   2.317   6.118
   93SAPS   O21 9099   4.167   2.404   6.220
   93SAPS   C21 9100   4.166   2.297   6.303
   93SAPS   O22 9101   4.250   2.209   6.301
   93SAPS   C22 9102   4.052   2.309   6.404
   93SAPS   H2R 9103   4.056   2.411   6.447
   93SAPS   H2S 9104   3.956   2.298   6.349
   93SAPS    C3 9105   4.401   2.468   6.259
   93SAPS    HX 9106   4.499   2.470   6.206
   93SAPS    HY 9107   4.411   2.394   6.340
   93SAPS   O31 9108   4.373   2.602   6.306
   93SAPS   C31 9109   4.314   2.608   6.425
   93SAPS   O32 9110   4.278   2.512   6.491
   93SAPS   C32 9111   4.310   2.751   6.475
   93SAPS   H2X 9112   4.404   2.802   6.447
   93SAPS   H2Y 9113   4.305   2.747   6.586
   93SAPS   C23 9114   4.060   2.204   6.519
   93SAPS   H3R 9115   4.156   2.147   6.515
   93SAPS   H3S 9116   3.980   2.130   6.499
   93SAPS   C24 9117   4.049   2.264   6.661
   93SAPS   H4R 9118   4.006   2.366   6.654
   93SAPS   H4S 9119   4.152   2.275   6.702
   93SAPS   C25 9120   3.963   2.179   6.752
   93SAPS   H5R 9121   3.935   2.081   6.710
   93SAPS   C26 9122   3.918   2.210   6.876
   93SAPS   H6R 9123   3.855   2.137   6.927
   93SAPS   C27 9124   3.943   2.337   6.955
   93SAPS   H7R 9125   3.980   2.419   6.889
   93SAPS   H7S 9126   4.025   2.317   7.027
   93SAPS   C28 9127   3.819   2.383   7.028
   93SAPS   H8R 9128   3.752   2.446   6.968
   93SAPS   C29 9129   3.782   2.354   7.155
   93SAPS   H9R 9130   3.686   2.395   7.191
   93SAPS  C210 9131   3.854   2.268   7.256
   93SAPS  H10R 9132   3.853   2.320   7.354
   93SAPS  H10S 9133   3.961   2.258   7.229
   93SAPS  C211 9134   3.793   2.130   7.265
   93SAPS  H11R 9135   3.808   2.069   7.175
   93SAPS  C212 9136   3.725   2.076   7.368
   93SAPS  H12R 9137   3.689   1.972   7.358
   93SAPS  C213 9138   3.691   2.141   7.500
   93SAPS  H13R 9139   3.581   2.134   7.515
   93SAPS  H13S 9140   3.715   2.249   7.499
   93SAPS  C214 9141   3.758   2.073   7.617
   93SAPS  H14R 9142   3.799   1.973   7.598
   93SAPS  C215 9143   3.773   2.126   7.740
   93SAPS  H15R 9144   3.820   2.065   7.819
   93SAPS  C216 9145   3.727   2.261   7.786
   93SAPS  H16R 9146   3.661   2.247   7.874
   93SAPS  H16S 9147   3.664   2.310   7.708
   93SAPS  C217 9148   3.837   2.360   7.826
   93SAPS  H17R 9149   3.926   2.308   7.868
   93SAPS  H17S 9150   3.795   2.423   7.907
   93SAPS  C218 9151   3.878   2.454   7.712
   93SAPS  H18R 9152   3.794   2.463   7.640
   93SAPS  H18S 9153   3.964   2.411   7.656
   93SAPS  C219 9154   3.910   2.596   7.761
   93SAPS  H19R 9155   3.818   2.636   7.809
   93SAPS  H19S 9156   3.930   2.661   7.673
   93SAPS  C220 9157   4.026   2.607   7.860
   93SAPS  H20R 9158   4.122   2.580   7.811
   93SAPS  H20S 9159   4.011   2.539   7.947
   93SAPS  H20T 9160   4.035   2.711   7.898
   93SAPS   C33 9161   4.188   2.829   6.420
   93SAPS   H3X 9162   4.201   2.844   6.311
   93SAPS   H3Y 9163   4.187   2.930   6.467
   93SAPS   C34 9164   4.053   2.760   6.446
   93SAPS   H4X 9165   4.046   2.668   6.384
   93SAPS   H4Y 9166   3.973   2.829   6.412
   93SAPS   C35 9167   4.025   2.722   6.592
   93SAPS   H5X 9168   4.095   2.642   6.625
   93SAPS   H5Y 9169   3.922   2.680   6.599
   93SAPS   C36 9170   4.036   2.840   6.689
   93SAPS   H6X 9171   3.975   2.925   6.651
   93SAPS   H6Y 9172   4.141   2.874   6.695
   93SAPS   C37 9173   3.987   2.805   6.831
   93SAPS   H7X 9174   4.043   2.717   6.868
   93SAPS   H7Y 9175   3.879   2.777   6.826
   93SAPS   C38 9176   4.004   2.922   6.928
   93SAPS   H8X 9177   3.961   3.014   6.882
   93SAPS   H8Y 9178   4.112   2.941   6.943
   93SAPS   C39 9179   3.935   2.900   7.064
   93SAPS   H9X 9180   3.825   2.899   7.048
   93SAPS   H9Y 9181   3.959   2.987   7.130
   93SAPS  C310 9182   3.976   2.771   7.136
   93SAPS  H10X 9183   3.940   2.682   7.079
   93SAPS  H10Y 9184   3.924   2.769   7.234
   93SAPS  C311 9185   4.127   2.758   7.158
   93SAPS  H11X 9186   4.165   2.850   7.207
   93SAPS  H11Y 9187   4.179   2.749   7.060
   93SAPS  C312 9188   4.166   2.637   7.244
   93SAPS  H12X 9189   4.277   2.636   7.253
   93SAPS  H12Y 9190   4.135   2.543   7.194
   93SAPS  C313 9191   4.105   2.643   7.385
   93SAPS  H13X 9192   4.000   2.608   7.382
   93SAPS  H13Y 9193   4.105   2.749   7.419
   93SAPS  C314 9194   4.184   2.562   7.489
   93SAPS  H14X 9195   4.140   2.579   7.590
   93SAPS  H14Y 9196   4.288   2.601   7.492
   93SAPS  C315 9197   4.189   2.411   7.461
   93SAPS  H15X 9198   4.215   2.396   7.354
   93SAPS  H15Y 9199   4.089   2.365   7.477
   93SAPS  C316 9200   4.296   2.343   7.547
   93SAPS  H16X 9201   4.387   2.405   7.544
   93SAPS  H16Y 9202   4.322   2.245   7.500
   93SAPS  C317 9203   4.256   2.321   7.693
   93SAPS  H17X 9204   4.165   2.257   7.697
   93SAPS  H17Y 9205   4.228   2.419   7.738
   93SAPS  C318 9206   4.367   2.258   7.777
   93SAPS  H18X 9207   4.452   2.329   7.790
   93SAPS  H18Y 9208   4.406   2.166   7.729
   93SAPS  H18Z 9209   4.328   2.231   7.878
   94SAPS     N 9210   4.935   4.604   5.830
   94SAPS   HN1 9211   4.886   4.533   5.772
   94SAPS   HN2 9212   5.012   4.649   5.777
   94SAPS   HN3 9213   4.965   4.570   5.924
   94SAPS   C12 9214   4.830   4.707   5.847
   94SAPS  H12A 9215   4.878   4.804   5.846
   94SAPS   C13 9216   4.728   4.698   5.729
   94SAPS  O13A 9217   4.746   4.601   5.649
   94SAPS  O13B 9218   4.689   4.809   5.682
   94SAPS   C11 9219   4.765   4.680   5.984
   94SAPS  H11A 9220   4.843   4.645   6.056
   94SAPS  H11B 9221   4.691   4.598   5.973
   94SAPS     P 9222   4.617   4.776   6.167
   94SAPS   O13 9223   4.591   4.905   6.233
   94SAPS   O14 9224   4.504   4.691   6.123
   94SAPS   O12 9225   4.708   4.800   6.037
   94SAPS   O11 9226   4.716   4.687   6.254
   94SAPS    C1 9227   4.823   4.749   6.326
   94SAPS    HA 9228   4.886   4.811   6.259
   94SAPS    HB 9229   4.781   4.815   6.405
   94SAPS    C2 9230   4.913   4.643   6.396
   94SAPS    HS 9231   4.956   4.578   6.317
   94SAPS   O21 9232   4.828   4.566   6.483
   94SAPS   C21 9233   4.870   4.447   6.520
   94SAPS   O22 9234   4.976   4.395   6.492
   94SAPS   C22 9235   4.754   4.380   6.591
   94SAPS   H2R 9236   4.688   4.459   6.631
   94SAPS   H2S 9237   4.699   4.323   6.512
   94SAPS    C3 9238   5.029   4.709   6.474
   94SAPS    HX 9239   5.095   4.759   6.401
   94SAPS    HY 9240   5.090   4.631   6.525
   94SAPS   O31 9241   4.978   4.809   6.565
   94SAPS   C31 9242   4.939   4.762   6.683
   94SAPS   O32 9243   4.969   4.654   6.730
   94SAPS   C32 9244   4.851   4.867   6.750
   94SAPS   H2X 9245   4.780   4.906   6.674
   94SAPS   H2Y 9246   4.918   4.950   6.780
   94SAPS   C23 9247   4.789   4.284   6.706
   94SAPS   H3R 9248   4.876   4.222   6.679
   94SAPS   H3S 9249   4.702   4.215   6.716
   94SAPS   C24 9250   4.803   4.358   6.841
   94SAPS   H4R 9251   4.726   4.318   6.911
   94SAPS   H4S 9252   4.781   4.466   6.827
   94SAPS   C25 9253   4.940   4.341   6.898
   94SAPS   H5R 9254   5.017   4.307   6.827
   94SAPS   C26 9255   4.975   4.371   7.023
   94SAPS   H6R 9256   5.080   4.354   7.053
   94SAPS   C27 9257   4.886   4.429   7.129
   94SAPS   H7R 9258   4.821   4.352   7.177
   94SAPS   H7S 9259   4.814   4.501   7.084
   94SAPS   C28 9260   4.974   4.496   7.231
   94SAPS   H8R 9261   5.010   4.434   7.315
   94SAPS   C29 9262   5.020   4.621   7.219
   94SAPS   H9R 9263   5.082   4.664   7.299
   94SAPS  C210 9264   4.986   4.708   7.101
   94SAPS  H10R 9265   4.875   4.703   7.093
   94SAPS  H10S 9266   5.026   4.661   7.009
   94SAPS  C211 9267   5.021   4.854   7.099
   94SAPS  H11R 9268   5.084   4.887   7.016
   94SAPS  C212 9269   4.977   4.944   7.189
   94SAPS  H12R 9270   5.006   5.049   7.178
   94SAPS  C213 9271   4.887   4.909   7.304
   94SAPS  H13R 9272   4.886   4.801   7.328
   94SAPS  H13S 9273   4.783   4.932   7.273
   94SAPS  C214 9274   4.921   4.986   7.429
   94SAPS  H14R 9275   4.967   5.085   7.414
   94SAPS  C215 9276   4.894   4.946   7.553
   94SAPS  H15R 9277   4.923   5.010   7.637
   94SAPS  C216 9278   4.822   4.818   7.591
   94SAPS  H16R 9279   4.891   4.731   7.589
   94SAPS  H16S 9280   4.739   4.795   7.521
   94SAPS  C217 9281   4.768   4.841   7.733
   94SAPS  H17R 9282   4.716   4.939   7.735
   94SAPS  H17S 9283   4.853   4.846   7.804
   94SAPS  C218 9284   4.668   4.739   7.785
   94SAPS  H18R 9285   4.596   4.708   7.706
   94SAPS  H18S 9286   4.613   4.792   7.866
   94SAPS  C219 9287   4.729   4.621   7.857
   94SAPS  H19R 9288   4.805   4.660   7.929
   94SAPS  H19S 9289   4.783   4.555   7.785
   94SAPS  C220 9290   4.627   4.542   7.937
   94SAPS  H20R 9291   4.669   4.446   7.973
   94SAPS  H20S 9292   4.536   4.520   7.876
   94SAPS  H20T 9293   4.596   4.600   8.027
   94SAPS   C33 9294   4.775   4.814   6.874
   94SAPS   H3X 9295   4.791   4.886   6.957
   94SAPS   H3Y 9296   4.815   4.715   6.906
   94SAPS   C34 9297   4.624   4.797   6.857
   94SAPS   H4X 9298   4.608   4.695   6.817
   94SAPS   H4Y 9299   4.586   4.870   6.783
   94SAPS   C35 9300   4.544   4.812   6.988
   94SAPS   H5X 9301   4.437   4.798   6.962
   94SAPS   H5Y 9302   4.556   4.915   7.028
   94SAPS   C36 9303   4.582   4.709   7.096
   94SAPS   H6X 9304   4.675   4.740   7.147
   94SAPS   H6Y 9305   4.601   4.613   7.045
   94SAPS   C37 9306   4.471   4.687   7.200
   94SAPS   H7X 9307   4.375   4.680   7.144
   94SAPS   H7Y 9308   4.462   4.773   7.270
   94SAPS   C38 9309   4.487   4.555   7.277
   94SAPS   H8X 9310   4.517   4.478   7.202
   94SAPS   H8Y 9311   4.389   4.526   7.320
   94SAPS   C39 9312   4.591   4.553   7.390
   94SAPS   H9X 9313   4.561   4.624   7.470
   94SAPS   H9Y 9314   4.690   4.585   7.350
   94SAPS  C310 9315   4.601   4.411   7.448
   94SAPS  H10X 9316   4.633   4.341   7.367
   94SAPS  H10Y 9317   4.500   4.379   7.481
   94SAPS  C311 9318   4.699   4.395   7.566
   94SAPS  H11X 9319   4.693   4.290   7.601
   94SAPS  H11Y 9320   4.664   4.460   7.649
   94SAPS  C312 9321   4.845   4.425   7.528
   94SAPS  H12X 9322   4.858   4.533   7.504
   94SAPS  H12Y 9323   4.862   4.367   7.435
   94SAPS  C313 9324   4.950   4.382   7.633
   94SAPS  H13X 9325   4.906   4.296   7.689
   94SAPS  H13Y 9326   4.962   4.464   7.706
   94SAPS  C314 9327   5.087   4.334   7.577
   94SAPS  H14X 9328   5.075   4.296   7.474
   94SAPS  H14Y 9329   5.124   4.249   7.640
   94SAPS  C315 9330   5.198   4.441   7.573
   94SAPS  H15X 9331   5.136   4.532   7.586
   94SAPS  H15Y 9332   5.241   4.449   7.471
   94SAPS  C316 9333   5.313   4.419   7.675
   94SAPS  H16X 9334   5.391   4.357   7.626
   94SAPS  H16Y 9335   5.274   4.360   7.760
   94SAPS  C317 9336   5.394   4.537   7.736
   94SAPS  H17X 9337   5.446   4.498   7.826
   94SAPS  H17Y 9338   5.328   4.617   7.775
   94SAPS  C318 9339   5.501   4.600   7.646
   94SAPS  H18X 9340   5.534   4.697   7.689
   94SAPS  H18Y 9341   5.460   4.620   7.544
   94SAPS  H18Z 9342   5.590   4.534   7.636
   95SAPS     N 9343   1.450   3.286   5.958
   95SAPS   HN1 9344   1.387   3.235   6.024
   95SAPS   HN2 9345   1.472   3.225   5.877
   95SAPS   HN3 9346   1.537   3.314   6.008
   95SAPS   C12 9347   1.376   3.403   5.901
   95SAPS  H12A 9348   1.411   3.493   5.951
   95SAPS   C13 9349   1.403   3.419   5.750
   95SAPS  O13A 9350   1.481   3.338   5.693
   95SAPS  O13B 9351   1.335   3.504   5.686
   95SAPS   C11 9352   1.223   3.389   5.926
   95SAPS  H11A 9353   1.183   3.305   5.865
   95SAPS  H11B 9354   1.174   3.481   5.889
   95SAPS     P 9355   1.157   3.236   6.129
   95SAPS   O13 9356   1.036   3.187   6.058
   95SAPS   O14 9357   1.280   3.155   6.113
   95SAPS   O12 9358   1.192   3.376   6.064
   95SAPS   O11 9359   1.129   3.269   6.280
   95SAPS    C1 9360   1.077   3.396   6.324
   95SAPS    HA 9361   1.021   3.447   6.243
   95SAPS    HB 9362   1.004   3.379   6.406
   95SAPS    C2 9363   1.183   3.499   6.376
   95SAPS    HS 9364   1.137   3.599   6.366
   95SAPS   O21 9365   1.302   3.491   6.295
   95SAPS   C21 9366   1.384   3.593   6.309
   95SAPS   O22 9367   1.361   3.694   6.372
   95SAPS   C22 9368   1.516   3.560   6.237
   95SAPS   H2R 9369   1.499   3.469   6.175
   95SAPS   H2S 9370   1.538   3.646   6.170
   95SAPS    C3 9371   1.217   3.479   6.528
   95SAPS    HX 9372   1.121   3.470   6.583
   95SAPS    HY 9373   1.268   3.572   6.564
   95SAPS   O31 9374   1.302   3.364   6.552
   95SAPS   C31 9375   1.328   3.346   6.682
   95SAPS   O32 9376   1.281   3.413   6.773
   95SAPS   C32 9377   1.434   3.237   6.698
   95SAPS   H2X 9378   1.531   3.279   6.662
   95SAPS   H2Y 9379   1.407   3.152   6.632
   95SAPS   C23 9380   1.633   3.535   6.334
   95SAPS   H3R 9381   1.666   3.631   6.381
   95SAPS   H3S 9382   1.719   3.498   6.274
   95SAPS   C24 9383   1.600   3.436   6.446
   95SAPS   H4R 9384   1.554   3.345   6.403
   95SAPS   H4S 9385   1.525   3.481   6.514
   95SAPS   C25 9386   1.726   3.399   6.520
   95SAPS   H5R 9387   1.797   3.341   6.459
   95SAPS   C26 9388   1.760   3.427   6.647
   95SAPS   H6R 9389   1.858   3.390   6.681
   95SAPS   C27 9390   1.686   3.503   6.756
   95SAPS   H7R 9391   1.579   3.520   6.730
   95SAPS   H7S 9392   1.731   3.603   6.774
   95SAPS   C28 9393   1.699   3.414   6.876
   95SAPS   H8R 9394   1.688   3.308   6.849
   95SAPS   C29 9395   1.716   3.436   7.007
   95SAPS   H9R 9396   1.729   3.348   7.071
   95SAPS  C210 9397   1.729   3.564   7.082
   95SAPS  H10R 9398   1.676   3.644   7.027
   95SAPS  H10S 9399   1.837   3.589   7.085
   95SAPS  C211 9400   1.683   3.551   7.226
   95SAPS  H11R 9401   1.762   3.528   7.299
   95SAPS  C212 9402   1.557   3.564   7.269
   95SAPS  H12R 9403   1.535   3.552   7.376
   95SAPS  C213 9404   1.438   3.594   7.181
   95SAPS  H13R 9405   1.470   3.643   7.087
   95SAPS  H13S 9406   1.374   3.670   7.232
   95SAPS  C214 9407   1.359   3.472   7.142
   95SAPS  H14R 9408   1.404   3.411   7.062
   95SAPS  C215 9409   1.240   3.436   7.192
   95SAPS  H15R 9410   1.190   3.345   7.156
   95SAPS  C216 9411   1.167   3.516   7.297
   95SAPS  H16R 9412   1.062   3.482   7.307
   95SAPS  H16S 9413   1.165   3.623   7.269
   95SAPS  C217 9414   1.226   3.500   7.437
   95SAPS  H17R 9415   1.335   3.482   7.427
   95SAPS  H17S 9416   1.182   3.410   7.485
   95SAPS  C218 9417   1.201   3.624   7.522
   95SAPS  H18R 9418   1.093   3.648   7.530
   95SAPS  H18S 9419   1.251   3.711   7.474
   95SAPS  C219 9420   1.259   3.606   7.662
   95SAPS  H19R 9421   1.208   3.524   7.716
   95SAPS  H19S 9422   1.240   3.701   7.718
   95SAPS  C220 9423   1.408   3.576   7.652
   95SAPS  H20R 9424   1.459   3.584   7.750
   95SAPS  H20S 9425   1.455   3.643   7.578
   95SAPS  H20T 9426   1.425   3.473   7.614
   95SAPS   C33 9427   1.450   3.194   6.845
   95SAPS   H3X 9428   1.352   3.151   6.878
   95SAPS   H3Y 9429   1.465   3.284   6.909
   95SAPS   C34 9430   1.562   3.092   6.875
   95SAPS   H4X 9431   1.665   3.127   6.854
   95SAPS   H4Y 9432   1.549   3.006   6.806
   95SAPS   C35 9433   1.553   3.045   7.021
   95SAPS   H5X 9434   1.605   2.948   7.035
   95SAPS   H5Y 9435   1.444   3.029   7.034
   95SAPS   C36 9436   1.596   3.146   7.129
   95SAPS   H6X 9437   1.546   3.244   7.112
   95SAPS   H6Y 9438   1.706   3.158   7.116
   95SAPS   C37 9439   1.573   3.106   7.276
   95SAPS   H7X 9440   1.650   3.156   7.338
   95SAPS   H7Y 9441   1.587   2.996   7.285
   95SAPS   C38 9442   1.436   3.138   7.336
   95SAPS   H8X 9443   1.384   3.040   7.350
   95SAPS   H8Y 9444   1.374   3.202   7.270
   95SAPS   C39 9445   1.436   3.190   7.480
   95SAPS   H9X 9446   1.451   3.300   7.479
   95SAPS   H9Y 9447   1.520   3.144   7.535
   95SAPS  C310 9448   1.303   3.152   7.548
   95SAPS  H10X 9449   1.298   3.042   7.562
   95SAPS  H10Y 9450   1.219   3.180   7.480
   95SAPS  C311 9451   1.281   3.222   7.682
   95SAPS  H11X 9452   1.177   3.205   7.718
   95SAPS  H11Y 9453   1.290   3.331   7.664
   95SAPS  C312 9454   1.383   3.179   7.788
   95SAPS  H12X 9455   1.471   3.136   7.737
   95SAPS  H12Y 9456   1.342   3.096   7.849
   95SAPS  C313 9457   1.430   3.296   7.876
   95SAPS  H13X 9458   1.444   3.259   7.980
   95SAPS  H13Y 9459   1.355   3.378   7.878
   95SAPS  C314 9460   1.566   3.346   7.833
   95SAPS  H14X 9461   1.567   3.385   7.728
   95SAPS  H14Y 9462   1.634   3.258   7.830
   95SAPS  C315 9463   1.629   3.447   7.928
   95SAPS  H15X 9464   1.607   3.419   8.034
   95SAPS  H15Y 9465   1.583   3.547   7.913
   95SAPS  C316 9466   1.779   3.450   7.905
   95SAPS  H16X 9467   1.801   3.411   7.803
   95SAPS  H16Y 9468   1.830   3.385   7.979
   95SAPS  C317 9469   1.837   3.590   7.910
   95SAPS  H17X 9470   1.948   3.583   7.908
   95SAPS  H17Y 9471   1.807   3.634   8.007
   95SAPS  C318 9472   1.790   3.680   7.795
   95SAPS  H18X 9473   1.716   3.627   7.731
   95SAPS  H18Y 9474   1.875   3.713   7.732
   95SAPS  H18Z 9475   1.741   3.771   7.838
   96SAPS     N 9476   1.536   5.031   5.917
   96SAPS   HN1 9477   1.604   4.977   5.860
   96SAPS   HN2 9478   1.562   5.131   5.921
   96SAPS   HN3 9479   1.522   4.990   6.011
   96SAPS   C12 9480   1.405   5.012   5.848
   96SAPS  H12A 9481   1.347   5.103   5.860
   96SAPS   C13 9482   1.420   4.981   5.697
   96SAPS  O13A 9483   1.536   4.958   5.651
   96SAPS  O13B 9484   1.315   4.962   5.630
   96SAPS   C11 9485   1.332   4.893   5.916
   96SAPS  H11A 9486   1.371   4.798   5.873
   96SAPS  H11B 9487   1.225   4.901   5.889
   96SAPS     P 9488   1.267   4.786   6.141
   96SAPS   O13 9489   1.283   4.654   6.074
   96SAPS   O14 9490   1.304   4.797   6.283
   96SAPS   O12 9491   1.353   4.893   6.058
   96SAPS   O11 9492   1.121   4.839   6.116
   96SAPS    C1 9493   1.022   4.844   6.219
   96SAPS    HA 9494   0.931   4.792   6.183
   96SAPS    HB 9495   1.053   4.793   6.313
   96SAPS    C2 9496   0.982   4.991   6.253
   96SAPS    HS 9497   0.948   5.038   6.159
   96SAPS   O21 9498   1.094   5.057   6.314
   96SAPS   C21 9499   1.142   5.164   6.258
   96SAPS   O22 9500   1.108   5.210   6.149
   96SAPS   C22 9501   1.246   5.231   6.351
   96SAPS   H2R 9502   1.337   5.247   6.289
   96SAPS   H2S 9503   1.206   5.330   6.380
   96SAPS    C3 9504   0.864   4.997   6.355
   96SAPS    HX 9505   0.792   4.914   6.335
   96SAPS    HY 9506   0.808   5.091   6.335
   96SAPS   O31 9507   0.914   5.002   6.490
   96SAPS   C31 9508   0.915   4.888   6.557
   96SAPS   O32 9509   0.849   4.790   6.529
   96SAPS   C32 9510   1.005   4.904   6.682
   96SAPS   H2X 9511   0.943   4.882   6.771
   96SAPS   H2Y 9512   1.035   5.011   6.686
   96SAPS   C23 9513   1.287   5.150   6.478
   96SAPS   H3R 9514   1.397   5.157   6.492
   96SAPS   H3S 9515   1.266   5.042   6.464
   96SAPS   C24 9516   1.218   5.196   6.609
   96SAPS   H4R 9517   1.211   5.106   6.674
   96SAPS   H4S 9518   1.113   5.224   6.586
   96SAPS   C25 9519   1.284   5.305   6.687
   96SAPS   H5R 9520   1.241   5.406   6.677
   96SAPS   C26 9521   1.388   5.286   6.769
   96SAPS   H6R 9522   1.430   5.372   6.823
   96SAPS   C27 9523   1.456   5.153   6.796
   96SAPS   H7R 9524   1.534   5.140   6.718
   96SAPS   H7S 9525   1.386   5.068   6.780
   96SAPS   C28 9526   1.522   5.135   6.931
   96SAPS   H8R 9527   1.622   5.091   6.925
   96SAPS   C29 9528   1.471   5.163   7.053
   96SAPS   H9R 9529   1.536   5.146   7.140
   96SAPS  C210 9530   1.337   5.221   7.089
   96SAPS  H10R 9531   1.288   5.271   7.002
   96SAPS  H10S 9532   1.353   5.302   7.163
   96SAPS  C211 9533   1.241   5.115   7.139
   96SAPS  H11R 9534   1.228   5.029   7.073
   96SAPS  C212 9535   1.172   5.121   7.254
   96SAPS  H12R 9536   1.106   5.037   7.281
   96SAPS  C213 9537   1.178   5.234   7.353
   96SAPS  H13R 9538   1.199   5.331   7.303
   96SAPS  H13S 9539   1.264   5.216   7.421
   96SAPS  C214 9540   1.052   5.250   7.434
   96SAPS  H14R 9541   0.976   5.317   7.390
   96SAPS  C215 9542   1.026   5.189   7.551
   96SAPS  H15R 9543   0.931   5.209   7.602
   96SAPS  C216 9544   1.121   5.094   7.620
   96SAPS  H16R 9545   1.198   5.154   7.673
   96SAPS  H16S 9546   1.176   5.032   7.546
   96SAPS  C217 9547   1.058   4.999   7.724
   96SAPS  H17R 9548   1.140   4.947   7.779
   96SAPS  H17S 9549   1.001   4.921   7.670
   96SAPS  C218 9550   0.965   5.066   7.826
   96SAPS  H18R 9551   0.929   4.991   7.900
   96SAPS  H18S 9552   0.876   5.100   7.769
   96SAPS  C219 9553   1.023   5.187   7.899
   96SAPS  H19R 9554   1.092   5.244   7.833
   96SAPS  H19S 9555   1.082   5.154   7.987
   96SAPS  C220 9556   0.911   5.282   7.942
   96SAPS  H20R 9557   0.858   5.321   7.853
   96SAPS  H20S 9558   0.950   5.370   7.998
   96SAPS  H20T 9559   0.839   5.229   8.008
   96SAPS   C33 9560   1.138   4.824   6.691
   96SAPS   H3X 9561   1.206   4.855   6.609
   96SAPS   H3Y 9562   1.119   4.715   6.678
   96SAPS   C34 9563   1.208   4.843   6.827
   96SAPS   H4X 9564   1.146   4.796   6.906
   96SAPS   H4Y 9565   1.214   4.952   6.850
   96SAPS   C35 9566   1.349   4.782   6.832
   96SAPS   H5X 9567   1.415   4.839   6.763
   96SAPS   H5Y 9568   1.345   4.678   6.793
   96SAPS   C36 9569   1.413   4.781   6.973
   96SAPS   H6X 9570   1.352   4.842   7.043
   96SAPS   H6Y 9571   1.514   4.827   6.967
   96SAPS   C37 9572   1.427   4.638   7.027
   96SAPS   H7X 9573   1.482   4.577   6.952
   96SAPS   H7Y 9574   1.324   4.596   7.036
   96SAPS   C38 9575   1.497   4.619   7.163
   96SAPS   H8X 9576   1.492   4.512   7.190
   96SAPS   H8Y 9577   1.440   4.673   7.242
   96SAPS   C39 9578   1.646   4.661   7.166
   96SAPS   H9X 9579   1.675   4.700   7.066
   96SAPS   H9Y 9580   1.708   4.572   7.186
   96SAPS  C310 9581   1.676   4.768   7.272
   96SAPS  H10X 9582   1.785   4.790   7.275
   96SAPS  H10Y 9583   1.649   4.724   7.371
   96SAPS  C311 9584   1.598   4.898   7.248
   96SAPS  H11X 9585   1.494   4.875   7.215
   96SAPS  H11Y 9586   1.647   4.953   7.165
   96SAPS  C312 9587   1.584   4.988   7.370
   96SAPS  H12X 9588   1.521   5.074   7.339
   96SAPS  H12Y 9589   1.684   5.026   7.401
   96SAPS  C313 9590   1.514   4.925   7.491
   96SAPS  H13X 9591   1.575   4.842   7.532
   96SAPS  H13Y 9592   1.416   4.883   7.460
   96SAPS  C314 9593   1.492   5.029   7.601
   96SAPS  H14X 9594   1.415   5.101   7.566
   96SAPS  H14Y 9595   1.587   5.085   7.616
   96SAPS  C315 9596   1.449   4.969   7.735
   96SAPS  H15X 9597   1.531   4.907   7.778
   96SAPS  H15Y 9598   1.363   4.901   7.716
   96SAPS  C316 9599   1.406   5.076   7.835
   96SAPS  H16X 9600   1.317   5.039   7.890
   96SAPS  H16Y 9601   1.375   5.168   7.780
   96SAPS  C317 9602   1.511   5.115   7.940
   96SAPS  H17X 9603   1.545   5.023   7.992
   96SAPS  H17Y 9604   1.459   5.180   8.013
   96SAPS  C318 9605   1.633   5.193   7.889
   96SAPS  H18X 9606   1.703   5.212   7.974
   96SAPS  H18Y 9607   1.603   5.291   7.847
   96SAPS  H18Z 9608   1.687   5.136   7.811
   97SAPS     N 9609   1.745   1.273   6.134
   97SAPS   HN1 9610   1.756   1.173   6.107
   97SAPS   HN2 9611   1.790   1.292   6.226
   97SAPS   HN3 9612   1.647   1.308   6.134
   97SAPS   C12 9613   1.831   1.360   6.048
   97SAPS  H12A 9614   1.769   1.434   5.999
   97SAPS   C13 9615   1.929   1.437   6.143
   97SAPS  O13A 9616   1.922   1.404   6.266
   97SAPS  O13B 9617   1.957   1.554   6.107
   97SAPS   C11 9618   1.904   1.268   5.944
   97SAPS  H11A 9619   1.827   1.207   5.892
   97SAPS  H11B 9620   1.969   1.199   6.002
   97SAPS     P 9621   2.097   1.273   5.767
   97SAPS   O13 9622   2.044   1.178   5.667
   97SAPS   O14 9623   2.189   1.377   5.715
   97SAPS   O12 9624   1.976   1.342   5.845
   97SAPS   O11 9625   2.171   1.190   5.877
   97SAPS    C1 9626   2.240   1.257   5.983
   97SAPS    HA 9627   2.335   1.300   5.946
   97SAPS    HB 9628   2.180   1.338   6.028
   97SAPS    C2 9629   2.271   1.154   6.093
   97SAPS    HS 9630   2.319   1.068   6.041
   97SAPS   O21 9631   2.147   1.119   6.158
   97SAPS   C21 9632   2.113   0.993   6.160
   97SAPS   O22 9633   2.176   0.899   6.115
   97SAPS   C22 9634   1.978   0.980   6.229
   97SAPS   H2R 9635   1.935   1.081   6.246
   97SAPS   H2S 9636   1.911   0.923   6.161
   97SAPS    C3 9637   2.372   1.209   6.196
   97SAPS    HX 9638   2.464   1.237   6.141
   97SAPS    HY 9639   2.400   1.127   6.266
   97SAPS   O31 9640   2.322   1.327   6.261
   97SAPS   C31 9641   2.295   1.315   6.390
   97SAPS   O32 9642   2.310   1.215   6.458
   97SAPS   C32 9643   2.238   1.447   6.441
   97SAPS   H2X 9644   2.143   1.466   6.386
   97SAPS   H2Y 9645   2.311   1.527   6.418
   97SAPS   C23 9646   1.992   0.904   6.362
   97SAPS   H3R 9647   2.041   0.806   6.342
   97SAPS   H3S 9648   1.891   0.882   6.401
   97SAPS   C24 9649   2.074   0.981   6.467
   97SAPS   H4R 9650   2.175   1.003   6.427
   97SAPS   H4S 9651   2.090   0.916   6.556
   97SAPS   C25 9652   2.011   1.109   6.515
   97SAPS   H5R 9653   2.055   1.202   6.475
   97SAPS   C26 9654   1.907   1.118   6.600
   97SAPS   H6R 9655   1.873   1.218   6.632
   97SAPS   C27 9656   1.834   1.002   6.663
   97SAPS   H7R 9657   1.845   0.910   6.601
   97SAPS   H7S 9658   1.725   1.024   6.661
   97SAPS   C28 9659   1.879   0.966   6.802
   97SAPS   H8R 9660   1.975   0.913   6.809
   97SAPS   C29 9661   1.817   1.001   6.916
   97SAPS   H9R 9662   1.859   0.969   7.012
   97SAPS  C210 9663   1.692   1.086   6.924
   97SAPS  H10R 9664   1.651   1.083   7.028
   97SAPS  H10S 9665   1.614   1.039   6.861
   97SAPS  C211 9666   1.708   1.230   6.881
   97SAPS  H11R 9667   1.621   1.267   6.825
   97SAPS  C212 9668   1.811   1.315   6.901
   97SAPS  H12R 9669   1.801   1.417   6.861
   97SAPS  C213 9670   1.942   1.291   6.972
   97SAPS  H13R 9671   1.998   1.387   6.973
   97SAPS  H13S 9672   2.005   1.224   6.910
   97SAPS  C214 9673   1.938   1.239   7.114
   97SAPS  H14R 9674   1.949   1.130   7.123
   97SAPS  C215 9675   1.928   1.312   7.226
   97SAPS  H15R 9676   1.931   1.258   7.322
   97SAPS  C216 9677   1.918   1.462   7.237
   97SAPS  H16R 9678   1.904   1.509   7.138
   97SAPS  H16S 9679   2.010   1.505   7.281
   97SAPS  C217 9680   1.798   1.502   7.325
   97SAPS  H17R 9681   1.707   1.455   7.282
   97SAPS  H17S 9682   1.784   1.612   7.320
   97SAPS  C218 9683   1.806   1.459   7.472
   97SAPS  H18R 9684   1.826   1.350   7.480
   97SAPS  H18S 9685   1.706   1.475   7.517
   97SAPS  C219 9686   1.909   1.538   7.554
   97SAPS  H19R 9687   1.889   1.646   7.543
   97SAPS  H19S 9688   2.011   1.519   7.513
   97SAPS  C220 9689   1.908   1.502   7.703
   97SAPS  H20R 9690   1.810   1.527   7.749
   97SAPS  H20S 9691   1.988   1.557   7.757
   97SAPS  H20T 9692   1.926   1.393   7.717
   97SAPS   C33 9693   2.210   1.442   6.593
   97SAPS   H3X 9694   2.308   1.425   6.643
   97SAPS   H3Y 9695   2.144   1.356   6.619
   97SAPS   C34 9696   2.147   1.572   6.645
   97SAPS   H4X 9697   2.050   1.588   6.594
   97SAPS   H4Y 9698   2.213   1.655   6.613
   97SAPS   C35 9699   2.127   1.578   6.797
   97SAPS   H5X 9700   2.029   1.533   6.822
   97SAPS   H5Y 9701   2.123   1.684   6.829
   97SAPS   C36 9702   2.236   1.503   6.875
   97SAPS   H6X 9703   2.336   1.524   6.832
   97SAPS   H6Y 9704   2.215   1.394   6.863
   97SAPS   C37 9705   2.243   1.535   7.024
   97SAPS   H7X 9706   2.142   1.525   7.070
   97SAPS   H7Y 9707   2.274   1.641   7.038
   97SAPS   C38 9708   2.342   1.444   7.097
   97SAPS   H8X 9709   2.406   1.509   7.160
   97SAPS   H8Y 9710   2.411   1.391   7.028
   97SAPS   C39 9711   2.272   1.348   7.193
   97SAPS   H9X 9712   2.208   1.277   7.137
   97SAPS   H9Y 9713   2.206   1.415   7.251
   97SAPS  C310 9714   2.368   1.274   7.287
   97SAPS  H10X 9715   2.450   1.342   7.315
   97SAPS  H10Y 9716   2.417   1.190   7.233
   97SAPS  C311 9717   2.308   1.222   7.419
   97SAPS  H11X 9718   2.392   1.218   7.492
   97SAPS  H11Y 9719   2.273   1.118   7.400
   97SAPS  C312 9720   2.193   1.298   7.487
   97SAPS  H12X 9721   2.129   1.349   7.412
   97SAPS  H12Y 9722   2.232   1.377   7.556
   97SAPS  C313 9723   2.097   1.204   7.560
   97SAPS  H13X 9724   2.086   1.111   7.500
   97SAPS  H13Y 9725   1.998   1.253   7.560
   97SAPS  C314 9726   2.133   1.170   7.705
   97SAPS  H14X 9727   2.116   1.260   7.767
   97SAPS  H14Y 9728   2.240   1.143   7.714
   97SAPS  C315 9729   2.047   1.054   7.759
   97SAPS  H15X 9730   2.057   1.049   7.869
   97SAPS  H15Y 9731   2.083   0.958   7.716
   97SAPS  C316 9732   1.900   1.072   7.719
   97SAPS  H16X 9733   1.889   1.063   7.609
   97SAPS  H16Y 9734   1.867   1.174   7.749
   97SAPS  C317 9735   1.806   0.970   7.782
   97SAPS  H17X 9736   1.809   0.982   7.892
   97SAPS  H17Y 9737   1.838   0.867   7.757
   97SAPS  C318 9738   1.664   0.994   7.731
   97SAPS  H18X 9739   1.655   0.972   7.623
   97SAPS  H18Y 9740   1.634   1.100   7.749
   97SAPS  H18Z 9741   1.594   0.929   7.787
   98SAPS     N 9742   0.629   2.986   5.869
   98SAPS   HN1 9743   0.721   3.010   5.912
   98SAPS   HN2 9744   0.611   3.046   5.787
   98SAPS   HN3 9745   0.560   3.000   5.946
   98SAPS   C12 9746   0.630   2.840   5.832
   98SAPS  H12A 9747   0.528   2.805   5.835
   98SAPS   C13 9748   0.677   2.811   5.687
   98SAPS  O13A 9749   0.647   2.896   5.598
   98SAPS  O13B 9750   0.689   2.689   5.656
   98SAPS   C11 9751   0.715   2.761   5.937
   98SAPS  H11A 9752   0.793   2.825   5.984
   98SAPS  H11B 9753   0.770   2.679   5.886
   98SAPS     P 9754   0.533   2.782   6.126
   98SAPS   O13 9755   0.589   2.918   6.133
   98SAPS   O14 9756   0.401   2.769   6.058
   98SAPS   O12 9757   0.633   2.699   6.036
   98SAPS   O11 9758   0.539   2.704   6.264
   98SAPS    C1 9759   0.639   2.604   6.290
   98SAPS    HA 9760   0.619   2.513   6.229
   98SAPS    HB 9761   0.740   2.641   6.264
   98SAPS    C2 9762   0.643   2.561   6.440
   98SAPS    HS 9763   0.719   2.481   6.451
   98SAPS   O21 9764   0.510   2.516   6.480
   98SAPS   C21 9765   0.487   2.385   6.491
   98SAPS   O22 9766   0.572   2.298   6.497
   98SAPS   C22 9767   0.336   2.350   6.476
   98SAPS   H2R 9768   0.275   2.441   6.461
   98SAPS   H2S 9769   0.333   2.298   6.378
   98SAPS    C3 9770   0.697   2.682   6.526
   98SAPS    HX 9771   0.615   2.757   6.534
   98SAPS    HY 9772   0.779   2.731   6.470
   98SAPS   O31 9773   0.748   2.640   6.656
   98SAPS   C31 9774   0.747   2.736   6.751
   98SAPS   O32 9775   0.732   2.854   6.731
   98SAPS   C32 9776   0.732   2.666   6.888
   98SAPS   H2X 9777   0.666   2.581   6.859
   98SAPS   H2Y 9778   0.676   2.734   6.956
   98SAPS   C23 9779   0.269   2.251   6.578
   98SAPS   H3R 9780   0.341   2.168   6.598
   98SAPS   H3S 9781   0.183   2.206   6.523
   98SAPS   C24 9782   0.211   2.299   6.715
   98SAPS   H4R 9783   0.300   2.314   6.781
   98SAPS   H4S 9784   0.163   2.209   6.758
   98SAPS   C25 9785   0.107   2.411   6.719
   98SAPS   H5R 9786   0.051   2.407   6.624
   98SAPS   C26 9787   0.066   2.513   6.804
   98SAPS   H6R 9788  -0.014   2.576   6.760
   98SAPS   C27 9789   0.102   2.574   6.940
   98SAPS   H7R 9790   0.184   2.522   6.993
   98SAPS   H7S 9791   0.014   2.570   7.008
   98SAPS   C28 9792   0.138   2.720   6.916
   98SAPS   H8R 9793   0.088   2.762   6.828
   98SAPS   C29 9794   0.214   2.810   6.982
   98SAPS   H9R 9795   0.230   2.907   6.933
   98SAPS  C210 9796   0.292   2.797   7.110
   98SAPS  H10R 9797   0.363   2.882   7.123
   98SAPS  H10S 9798   0.351   2.704   7.114
   98SAPS  C211 9799   0.183   2.801   7.213
   98SAPS  H11R 9800   0.092   2.858   7.188
   98SAPS  C212 9801   0.190   2.746   7.334
   98SAPS  H12R 9802   0.096   2.738   7.391
   98SAPS  C213 9803   0.305   2.672   7.391
   98SAPS  H13R 9804   0.311   2.693   7.500
   98SAPS  H13S 9805   0.400   2.711   7.348
   98SAPS  C214 9806   0.295   2.524   7.367
   98SAPS  H14R 9807   0.204   2.486   7.317
   98SAPS  C215 9808   0.391   2.439   7.404
   98SAPS  H15R 9809   0.380   2.331   7.386
   98SAPS  C216 9810   0.517   2.485   7.472
   98SAPS  H16R 9811   0.532   2.595   7.466
   98SAPS  H16S 9812   0.608   2.438   7.429
   98SAPS  C217 9813   0.503   2.449   7.620
   98SAPS  H17R 9814   0.531   2.342   7.628
   98SAPS  H17S 9815   0.397   2.455   7.654
   98SAPS  C218 9816   0.584   2.540   7.711
   98SAPS  H18R 9817   0.547   2.644   7.703
   98SAPS  H18S 9818   0.690   2.541   7.677
   98SAPS  C219 9819   0.576   2.492   7.857
   98SAPS  H19R 9820   0.599   2.384   7.857
   98SAPS  H19S 9821   0.472   2.501   7.894
   98SAPS  C220 9822   0.673   2.560   7.952
   98SAPS  H20R 9823   0.673   2.509   8.051
   98SAPS  H20S 9824   0.643   2.666   7.967
   98SAPS  H20T 9825   0.777   2.557   7.912
   98SAPS   C33 9826   0.848   2.592   6.961
   98SAPS   H3X 9827   0.940   2.593   6.900
   98SAPS   H3Y 9828   0.812   2.488   6.974
   98SAPS   C34 9829   0.882   2.633   7.104
   98SAPS   H4X 9830   0.924   2.736   7.101
   98SAPS   H4Y 9831   0.964   2.567   7.139
   98SAPS   C35 9832   0.767   2.618   7.204
   98SAPS   H5X 9833   0.769   2.515   7.245
   98SAPS   H5Y 9834   0.668   2.632   7.154
   98SAPS   C36 9835   0.771   2.719   7.319
   98SAPS   H6X 9836   0.876   2.734   7.353
   98SAPS   H6Y 9837   0.715   2.679   7.406
   98SAPS   C37 9838   0.710   2.855   7.281
   98SAPS   H7X 9839   0.704   2.913   7.376
   98SAPS   H7Y 9840   0.607   2.843   7.242
   98SAPS   C38 9841   0.796   2.933   7.182
   98SAPS   H8X 9842   0.781   2.897   7.078
   98SAPS   H8Y 9843   0.901   2.913   7.211
   98SAPS   C39 9844   0.779   3.085   7.187
   98SAPS   H9X 9845   0.869   3.133   7.142
   98SAPS   H9Y 9846   0.777   3.115   7.294
   98SAPS  C310 9847   0.655   3.133   7.113
   98SAPS  H10X 9848   0.577   3.054   7.111
   98SAPS  H10Y 9849   0.684   3.152   7.007
   98SAPS  C311 9850   0.595   3.261   7.173
   98SAPS  H11X 9851   0.560   3.326   7.090
   98SAPS  H11Y 9852   0.675   3.317   7.227
   98SAPS  C312 9853   0.479   3.238   7.271
   98SAPS  H12X 9854   0.398   3.186   7.215
   98SAPS  H12Y 9855   0.439   3.337   7.303
   98SAPS  C313 9856   0.514   3.155   7.395
   98SAPS  H13X 9857   0.549   3.055   7.361
   98SAPS  H13Y 9858   0.421   3.139   7.453
   98SAPS  C314 9859   0.620   3.218   7.487
   98SAPS  H14X 9860   0.575   3.306   7.539
   98SAPS  H14Y 9861   0.704   3.256   7.426
   98SAPS  C315 9862   0.678   3.121   7.590
   98SAPS  H15X 9863   0.769   3.164   7.637
   98SAPS  H15Y 9864   0.713   3.029   7.539
   98SAPS  C316 9865   0.579   3.085   7.700
   98SAPS  H16X 9866   0.485   3.143   7.687
   98SAPS  H16Y 9867   0.622   3.112   7.799
   98SAPS  C317 9868   0.546   2.936   7.699
   98SAPS  H17X 9869   0.640   2.879   7.712
   98SAPS  H17Y 9870   0.504   2.907   7.601
   98SAPS  C318 9871   0.448   2.898   7.810
   98SAPS  H18X 9872   0.345   2.934   7.787
   98SAPS  H18Y 9873   0.477   2.944   7.907
   98SAPS  H18Z 9874   0.448   2.788   7.821
   99SAPS     N 9875   5.775   7.262   5.817
   99SAPS   HN1 9876   5.713   7.186   5.851
   99SAPS   HN2 9877   5.749   7.353   5.861
   99SAPS   HN3 9878   5.762   7.277   5.714
   99SAPS   C12 9879   5.918   7.237   5.849
   99SAPS  H12A 9880   5.948   7.143   5.805
   99SAPS   C13 9881   6.014   7.347   5.795
   99SAPS  O13A 9882   5.965   7.445   5.733
   99SAPS  O13B 9883   6.138   7.323   5.791
   99SAPS   C11 9884   5.928   7.225   6.004
   99SAPS  H11A 9885   5.853   7.150   6.039
   99SAPS  H11B 9886   5.898   7.321   6.050
   99SAPS     P 9887   6.094   7.056   6.116
   99SAPS   O13 9888   6.004   6.951   6.062
   99SAPS   O14 9889   6.239   7.031   6.099
   99SAPS   O12 9890   6.060   7.193   6.045
   99SAPS   O11 9891   6.061   7.090   6.265
   99SAPS    C1 9892   6.138   7.188   6.336
   99SAPS    HA 9893   6.174   7.270   6.271
   99SAPS    HB 9894   6.071   7.234   6.413
   99SAPS    C2 9895   6.258   7.124   6.410
   99SAPS    HS 9896   6.334   7.100   6.332
   99SAPS   O21 9897   6.210   7.006   6.475
   99SAPS   C21 9898   6.299   6.910   6.489
   99SAPS   O22 9899   6.409   6.905   6.437
   99SAPS   C22 9900   6.240   6.807   6.584
   99SAPS   H2R 9901   6.155   6.854   6.637
   99SAPS   H2S 9902   6.203   6.721   6.524
   99SAPS    C3 9903   6.324   7.219   6.515
   99SAPS    HX 9904   6.369   7.304   6.459
   99SAPS    HY 9905   6.406   7.167   6.568
   99SAPS   O31 9906   6.226   7.273   6.606
   99SAPS   C31 9907   6.191   7.195   6.708
   99SAPS   O32 9908   6.254   7.099   6.749
   99SAPS   C32 9909   6.059   7.246   6.766
   99SAPS   H2X 9910   6.010   7.311   6.690
   99SAPS   H2Y 9911   6.083   7.305   6.857
   99SAPS   C23 9912   6.344   6.762   6.688
   99SAPS   H3R 9913   6.408   6.850   6.711
   99SAPS   H3S 9914   6.411   6.684   6.646
   99SAPS   C24 9915   6.279   6.709   6.817
   99SAPS   H4R 9916   6.279   6.598   6.816
   99SAPS   H4S 9917   6.172   6.741   6.819
   99SAPS   C25 9918   6.354   6.764   6.935
   99SAPS   H5R 9919   6.463   6.768   6.921
   99SAPS   C26 9920   6.304   6.810   7.050
   99SAPS   H6R 9921   6.373   6.857   7.122
   99SAPS   C27 9922   6.160   6.817   7.092
   99SAPS   H7R 9923   6.143   6.750   7.178
   99SAPS   H7S 9924   6.096   6.780   7.008
   99SAPS   C28 9925   6.109   6.953   7.125
   99SAPS   H8R 9926   6.184   7.030   7.149
   99SAPS   C29 9927   5.979   6.984   7.125
   99SAPS   H9R 9928   5.954   7.089   7.141
   99SAPS  C210 9929   5.857   6.901   7.095
   99SAPS  H10R 9930   5.858   6.882   6.986
   99SAPS  H10S 9931   5.767   6.964   7.110
   99SAPS  C211 9932   5.822   6.774   7.167
   99SAPS  H11R 9933   5.775   6.697   7.104
   99SAPS  C212 9934   5.824   6.746   7.297
   99SAPS  H12R 9935   5.793   6.645   7.326
   99SAPS  C213 9936   5.864   6.834   7.409
   99SAPS  H13R 9937   5.789   6.916   7.417
   99SAPS  H13S 9938   5.962   6.881   7.386
   99SAPS  C214 9939   5.867   6.765   7.543
   99SAPS  H14R 9940   5.826   6.664   7.550
   99SAPS  C215 9941   5.926   6.821   7.649
   99SAPS  H15R 9942   5.928   6.771   7.746
   99SAPS  C216 9943   5.992   6.956   7.640
   99SAPS  H16R 9944   5.973   7.013   7.733
   99SAPS  H16S 9945   5.946   7.018   7.561
   99SAPS  C217 9946   6.142   6.937   7.608
   99SAPS  H17R 9947   6.183   7.033   7.569
   99SAPS  H17S 9948   6.154   6.863   7.526
   99SAPS  C218 9949   6.226   6.895   7.729
   99SAPS  H18R 9950   6.329   6.869   7.696
   99SAPS  H18S 9951   6.180   6.803   7.772
   99SAPS  C219 9952   6.233   7.006   7.833
   99SAPS  H19R 9953   6.130   7.046   7.844
   99SAPS  H19S 9954   6.297   7.087   7.792
   99SAPS  C220 9955   6.276   6.972   7.975
   99SAPS  H20R 9956   6.374   6.918   7.976
   99SAPS  H20S 9957   6.197   6.912   8.024
   99SAPS  H20T 9958   6.287   7.065   8.035
   99SAPS   C33 9959   5.960   7.132   6.798
   99SAPS   H3X 9960   6.009   7.060   6.868
   99SAPS   H3Y 9961   5.940   7.077   6.704
   99SAPS   C34 9962   5.827   7.180   6.858
   99SAPS   H4X 9963   5.767   7.089   6.882
   99SAPS   H4Y 9964   5.771   7.238   6.782
   99SAPS   C35 9965   5.842   7.265   6.985
   99SAPS   H5X 9966   5.842   7.373   6.958
   99SAPS   H5Y 9967   5.942   7.246   7.029
   99SAPS   C36 9968   5.733   7.240   7.092
   99SAPS   H6X 9969   5.691   7.137   7.089
   99SAPS   H6Y 9970   5.648   7.305   7.062
   99SAPS   C37 9971   5.774   7.278   7.236
   99SAPS   H7X 9972   5.677   7.306   7.283
   99SAPS   H7Y 9973   5.841   7.366   7.227
   99SAPS   C38 9974   5.839   7.183   7.338
   99SAPS   H8X 9975   5.815   7.080   7.305
   99SAPS   H8Y 9976   5.792   7.196   7.438
   99SAPS   C39 9977   5.992   7.201   7.358
   99SAPS   H9X 9978   6.036   7.228   7.259
   99SAPS   H9Y 9979   6.037   7.104   7.387
   99SAPS  C310 9980   6.042   7.309   7.456
   99SAPS  H10X 9981   5.994   7.406   7.429
   99SAPS  H10Y 9982   6.151   7.321   7.438
   99SAPS  C311 9983   6.024   7.288   7.607
   99SAPS  H11X 9984   6.082   7.200   7.640
   99SAPS  H11Y 9985   5.917   7.271   7.630
   99SAPS  C312 9986   6.078   7.410   7.684
   99SAPS  H12X 9987   6.034   7.502   7.639
   99SAPS  H12Y 9988   6.188   7.415   7.671
   99SAPS  C313 9989   6.046   7.409   7.834
   99SAPS  H13X 9990   5.945   7.365   7.850
   99SAPS  H13Y 9991   6.045   7.513   7.875
   99SAPS  C314 9992   6.149   7.330   7.914
   99SAPS  H14X 9993   6.246   7.383   7.916
   99SAPS  H14Y 9994   6.166   7.237   7.854
   99SAPS  C315 9995   6.106   7.292   8.056
   99SAPS  H15X 9996   6.081   7.382   8.115
   99SAPS  H15Y 9997   6.193   7.244   8.105
   99SAPS  C316 9998   5.986   7.196   8.064
   99SAPS  H16X 9999   5.985   7.125   7.979
   99SAPS  H16Y10000   5.893   7.256   8.057
   99SAPS  C31710001   5.989   7.117   8.195
   99SAPS  H17X10002   6.048   7.174   8.270
   99SAPS  H17Y10003   6.041   7.021   8.180
   99SAPS  C31810004   5.850   7.093   8.252
   99SAPS  H18X10005   5.857   7.055   8.356
   99SAPS  H18Y10006   5.795   7.019   8.190
   99SAPS  H18Z10007   5.791   7.188   8.254
  100SAPS     N10008   1.141   7.275   5.874
  100SAPS   HN110009   1.117   7.254   5.775
  100SAPS   HN210010   1.231   7.232   5.901
  100SAPS   HN310011   1.064   7.242   5.935
  100SAPS   C1210012   1.154   7.423   5.888
  100SAPS  H12A10013   1.219   7.459   5.810
  100SAPS   C1310014   1.018   7.497   5.866
  100SAPS  O13A10015   0.922   7.428   5.820
  100SAPS  O13B10016   1.027   7.621   5.845
  100SAPS   C1110017   1.224   7.452   6.024
  100SAPS  H11A10018   1.181   7.390   6.105
  100SAPS  H11B10019   1.204   7.558   6.053
  100SAPS     P10020   1.446   7.302   6.036
  100SAPS   O1310021   1.385   7.202   5.944
  100SAPS   O1410022   1.590   7.326   6.017
  100SAPS   O1210023   1.366   7.437   6.013
  100SAPS   O1110024   1.411   7.266   6.185
  100SAPS    C110025   1.462   7.346   6.292
  100SAPS    HA10026   1.566   7.315   6.317
  100SAPS    HB10027   1.465   7.454   6.266
  100SAPS    C210028   1.374   7.336   6.421
  100SAPS    HS10029   1.418   7.402   6.498
  100SAPS   O2110030   1.367   7.200   6.469
  100SAPS   C2110031   1.476   7.154   6.527
  100SAPS   O2210032   1.579   7.215   6.546
  100SAPS   C2210033   1.450   7.010   6.569
  100SAPS   H2R10034   1.385   6.963   6.492
  100SAPS   H2S10035   1.547   6.956   6.571
  100SAPS    C310036   1.229   7.385   6.394
  100SAPS    HX10037   1.188   7.320   6.313
  100SAPS    HY10038   1.231   7.489   6.354
  100SAPS   O3110039   1.142   7.372   6.509
  100SAPS   C3110040   1.163   7.463   6.603
  100SAPS   O3210041   1.242   7.556   6.595
  100SAPS   C3210042   1.079   7.431   6.726
  100SAPS   H2X10043   1.020   7.339   6.707
  100SAPS   H2Y10044   1.009   7.516   6.740
  100SAPS   C2310045   1.379   7.000   6.706
  100SAPS   H3R10046   1.320   6.907   6.706
  100SAPS   H3S10047   1.307   7.084   6.720
  100SAPS   C2410048   1.478   6.993   6.823
  100SAPS   H4R10049   1.537   7.087   6.827
  100SAPS   H4S10050   1.551   6.911   6.805
  100SAPS   C2510051   1.406   6.966   6.953
  100SAPS   H5R10052   1.370   6.863   6.965
  100SAPS   C2610053   1.380   7.056   7.049
  100SAPS   H6R10054   1.326   7.024   7.140
  100SAPS   C2710055   1.419   7.201   7.046
  100SAPS   H7R10056   1.338   7.259   7.094
  100SAPS   H7S10057   1.423   7.238   6.941
  100SAPS   C2810058   1.553   7.225   7.110
  100SAPS   H8R10059   1.636   7.161   7.074
  100SAPS   C2910060   1.578   7.318   7.204
  100SAPS   H9R10061   1.680   7.328   7.245
  100SAPS  C21010062   1.476   7.413   7.261
  100SAPS  H10R10063   1.525   7.474   7.340
  100SAPS  H10S10064   1.398   7.355   7.315
  100SAPS  C21110065   1.410   7.504   7.160
  100SAPS  H11R10066   1.444   7.497   7.056
  100SAPS  C21210067   1.313   7.593   7.191
  100SAPS  H12R10068   1.270   7.654   7.111
  100SAPS  C21310069   1.258   7.615   7.330
  100SAPS  H13R10070   1.226   7.518   7.372
  100SAPS  H13S10071   1.167   7.679   7.326
  100SAPS  C21410072   1.362   7.682   7.416
  100SAPS  H14R10073   1.427   7.755   7.365
  100SAPS  C21510074   1.383   7.660   7.546
  100SAPS  H15R10075   1.467   7.712   7.593
  100SAPS  C21610076   1.308   7.565   7.636
  100SAPS  H16R10077   1.245   7.495   7.577
  100SAPS  H16S10078   1.240   7.620   7.704
  100SAPS  C21710079   1.406   7.482   7.720
  100SAPS  H17R10080   1.481   7.437   7.651
  100SAPS  H17S10081   1.351   7.399   7.770
  100SAPS  C21810082   1.477   7.562   7.830
  100SAPS  H18R10083   1.403   7.587   7.908
  100SAPS  H18S10084   1.518   7.657   7.788
  100SAPS  C21910085   1.595   7.488   7.891
  100SAPS  H19R10086   1.672   7.471   7.813
  100SAPS  H19S10087   1.561   7.388   7.923
  100SAPS  C22010088   1.659   7.564   8.009
  100SAPS  H20R10089   1.697   7.663   7.976
  100SAPS  H20S10090   1.743   7.506   8.052
  100SAPS  H20T10091   1.583   7.582   8.088
  100SAPS   C3310092   1.168   7.415   6.851
  100SAPS   H3X10093   1.244   7.496   6.854
  100SAPS   H3Y10094   1.222   7.318   6.845
  100SAPS   C3410095   1.092   7.422   6.985
  100SAPS   H4X10096   1.062   7.527   7.002
  100SAPS   H4Y10097   1.162   7.395   7.066
  100SAPS   C3510098   0.968   7.332   6.996
  100SAPS   H5X10099   1.000   7.226   6.996
  100SAPS   H5Y10100   0.902   7.347   6.908
  100SAPS   C3610101   0.884   7.361   7.123
  100SAPS   H6X10102   0.799   7.290   7.126
  100SAPS   H6Y10103   0.843   7.463   7.115
  100SAPS   C3710104   0.964   7.350   7.254
  100SAPS   H7X10105   1.047   7.424   7.253
  100SAPS   H7Y10106   1.009   7.248   7.261
  100SAPS   C3810107   0.877   7.377   7.378
  100SAPS   H8X10108   0.796   7.302   7.384
  100SAPS   H8Y10109   0.830   7.477   7.366
  100SAPS   C3910110   0.957   7.377   7.510
  100SAPS   H9X10111   0.892   7.415   7.591
  100SAPS   H9Y10112   1.042   7.447   7.499
  100SAPS  C31010113   1.010   7.239   7.552
  100SAPS  H10X10114   1.073   7.196   7.470
  100SAPS  H10Y10115   0.924   7.170   7.568
  100SAPS  C31110116   1.095   7.246   7.680
  100SAPS  H11X10117   1.032   7.292   7.759
  100SAPS  H11Y10118   1.181   7.314   7.663
  100SAPS  C31210119   1.147   7.110   7.730
  100SAPS  H12X10120   1.063   7.038   7.732
  100SAPS  H12Y10121   1.182   7.123   7.835
  100SAPS  C31310122   1.263   7.050   7.649
  100SAPS  H13X10123   1.229   7.029   7.545
  100SAPS  H13Y10124   1.290   6.953   7.695
  100SAPS  C31410125   1.390   7.137   7.643
  100SAPS  H14X10126   1.409   7.180   7.744
  100SAPS  H14Y10127   1.373   7.221   7.573
  100SAPS  C31510128   1.514   7.058   7.600
  100SAPS  H15X10129   1.485   6.989   7.518
  100SAPS  H15Y10130   1.547   6.996   7.686
  100SAPS  C31610131   1.632   7.143   7.551
  100SAPS  H16X10132   1.595   7.208   7.469
  100SAPS  H16Y10133   1.711   7.077   7.510
  100SAPS  C31710134   1.695   7.233   7.659
  100SAPS  H17X10135   1.613   7.290   7.708
  100SAPS  H17Y10136   1.761   7.307   7.609
  100SAPS  C31810137   1.774   7.160   7.768
  100SAPS  H18X10138   1.816   7.233   7.840
  100SAPS  H18Y10139   1.858   7.102   7.723
  100SAPS  H18Z10140   1.708   7.090   7.823
  101OSM      N10141   4.669   2.988  10.206
  101OSM    C1510142   4.818   2.989  10.219
  101OSM   H15A10143   4.857   3.089  10.202
  101OSM   H15B10144   4.864   2.925  10.145
  101OSM   H15C10145   4.851   2.956  10.316
  101OSM    C1410146   4.610   3.077  10.312
  101OSM   H14A10147   4.630   3.041  10.412
  101OSM   H14B10148   4.503   3.084  10.300
  101OSM   H14C10149   4.651   3.176  10.305
  101OSM    C1310150   4.633   3.046  10.072
  101OSM   H13A10151   4.668   3.148  10.064
  101OSM   H13B10152   4.526   3.043  10.059
  101OSM   H13C10153   4.676   2.988   9.992
  101OSM    C1210154   4.616   2.845  10.216
  101OSM   H12A10155   4.644   2.805  10.312
  101OSM   H12B10156   4.667   2.786  10.141
  101OSM    C1110157   4.464   2.823  10.194
  101OSM   H11A10158   4.408   2.898  10.254
  101OSM   H11B10159   4.438   2.722  10.233
  101OSM      P10160   4.292   2.875  10.004
  101OSM    O1310161   4.199   2.760  10.011
  101OSM    O1410162   4.254   3.000  10.073
  101OSM    O1110163   4.326   2.907   9.851
  101OSM    O1210164   4.434   2.828  10.055
  101OSM    C1S10165   4.319   2.800   9.756
  101OSM    H1S10166   4.214   2.790   9.719
  101OSM    H1T10167   4.349   2.702   9.800
  101OSM     NF10168   4.401   2.703   9.548
  101OSM    HNF10169   4.468   2.631   9.564
  101OSM    C2S10170   4.410   2.821   9.632
  101OSM    H2S10171   4.371   2.910   9.577
  101OSM    C3S10172   4.558   2.848   9.668
  101OSM    H3S10173   4.599   2.754   9.711
  101OSM     O310174   4.579   2.947   9.767
  101OSM    HO310175   4.493   2.956   9.809
  101OSM    C4S10176   4.628   2.872   9.536
  101OSM    H4S10177   4.641   2.778   9.480
  101OSM    C5S10178   4.666   2.983   9.471
  101OSM    H5S10179   4.648   3.083   9.513
  101OSM    C6S10180   4.733   2.976   9.336
  101OSM    H6S10181   4.770   2.873   9.313
  101OSM    H6T10182   4.823   3.040   9.338
  101OSM    C7S10183   4.642   3.020   9.220
  101OSM    H7S10184   4.706   3.043   9.132
  101OSM    H7T10185   4.590   3.115   9.248
  101OSM    C8S10186   4.538   2.917   9.172
  101OSM    H8S10187   4.496   2.864   9.260
  101OSM    H8T10188   4.590   2.841   9.109
  101OSM    C9S10189   4.419   2.977   9.094
  101OSM    H9S10190   4.356   3.033   9.166
  101OSM    H9T10191   4.358   2.893   9.054
  101OSM   C10S10192   4.455   3.072   8.978
  101OSM   H10S10193   4.525   3.020   8.908
  101OSM   H10T10194   4.507   3.161   9.020
  101OSM   C11S10195   4.331   3.120   8.901
  101OSM   H11S10196   4.261   3.166   8.975
  101OSM   H11T10197   4.278   3.033   8.856
  101OSM   C12S10198   4.359   3.226   8.792
  101OSM   H12S10199   4.416   3.309   8.839
  101OSM   H12T10200   4.263   3.268   8.756
  101OSM   C13S10201   4.436   3.174   8.670
  101OSM   H13S10202   4.519   3.109   8.703
  101OSM   H13T10203   4.480   3.260   8.615
  101OSM   C14S10204   4.347   3.099   8.570
  101OSM   H14S10205   4.275   3.170   8.524
  101OSM   H14T10206   4.288   3.022   8.623
  101OSM   C15S10207   4.431   3.033   8.460
  101OSM   H15S10208   4.513   2.978   8.511
  101OSM   H15T10209   4.479   3.110   8.397
  101OSM   C16S10210   4.352   2.934   8.374
  101OSM   H16S10211   4.308   2.856   8.440
  101OSM   H16T10212   4.425   2.884   8.306
  101OSM   C17S10213   4.241   2.997   8.289
  101OSM   H17S10214   4.165   3.043   8.356
  101OSM   H17T10215   4.189   2.916   8.233
  101OSM   C18S10216   4.290   3.103   8.189
  101OSM   H18S10217   4.206   3.142   8.129
  101OSM   H18T10218   4.366   3.058   8.121
  101OSM   H18U10219   4.338   3.188   8.243
  101OSM    C1F10220   4.306   2.685   9.458
  101OSM     OF10221   4.228   2.774   9.429
  101OSM    C2F10222   4.303   2.550   9.396
  101OSM    H2F10223   4.221   2.492   9.443
  101OSM    H2G10224   4.399   2.497   9.416
  101OSM    C3F10225   4.281   2.556   9.244
  101OSM    H3F10226   4.365   2.608   9.193
  101OSM    H3G10227   4.190   2.616   9.224
  101OSM    C4F10228   4.263   2.416   9.185
  101OSM    H4F10229   4.232   2.346   9.266
  101OSM    H4G10230   4.359   2.379   9.144
  101OSM    C5F10231   4.154   2.410   9.078
  101OSM    H5F10232   4.057   2.437   9.125
  101OSM    H5G10233   4.144   2.305   9.040
  101OSM    C6F10234   4.179   2.503   8.959
  101OSM    H6F10235   4.186   2.609   8.992
  101OSM    H6G10236   4.093   2.496   8.889
  101OSM    C7F10237   4.302   2.465   8.877
  101OSM    H7F10238   4.307   2.354   8.869
  101OSM    H7G10239   4.395   2.499   8.929
  101OSM    C8F10240   4.294   2.520   8.735
  101OSM    H8F10241   4.204   2.479   8.684
  101OSM    H8G10242   4.382   2.479   8.681
  101OSM    C9F10243   4.290   2.671   8.732
  101OSM    H9F10244   4.190   2.715   8.728
  101OSM   C10F10245   4.396   2.753   8.731
  101OSM   H10F10246   4.381   2.862   8.728
  101OSM   C11F10247   4.539   2.707   8.733
  101OSM   H11F10248   4.548   2.610   8.784
  101OSM   H11G10249   4.601   2.780   8.789
  101OSM   C12F10250   4.595   2.694   8.590
  101OSM   H12F10251   4.703   2.673   8.599
  101OSM   H12G10252   4.586   2.790   8.536
  101OSM   C13F10253   4.530   2.583   8.505
  101OSM   H13F10254   4.421   2.599   8.498
  101OSM   H13G10255   4.548   2.483   8.550
  101OSM   C14F10256   4.584   2.586   8.363
  101OSM   H14F10257   4.693   2.563   8.363
  101OSM   H14G10258   4.572   2.691   8.330
  101OSM   C15F10259   4.517   2.490   8.266
  101OSM   H15F10260   4.407   2.508   8.266
  101OSM   H15G10261   4.533   2.385   8.299
  101OSM   C16F10262   4.573   2.509   8.124
  101OSM   H16F10263   4.515   2.447   8.052
  101OSM   H16G10264   4.678   2.475   8.122
  101OSM   C17F10265   4.568   2.656   8.079
  101OSM   H17F10266   4.612   2.662   7.977
  101OSM   H17G10267   4.635   2.719   8.141
  101OSM   C18F10268   4.427   2.716   8.080
  101OSM   H18F10269   4.429   2.820   8.042
  101OSM   H18G10270   4.385   2.717   8.183
  101OSM   H18H10271   4.358   2.655   8.017
  102OSM      N10272   2.886   2.553  10.320
  102OSM    C1510273   2.994   2.449  10.326
  102OSM   H15A10274   2.964   2.363  10.384
  102OSM   H15B10275   3.085   2.488  10.369
  102OSM   H15C10276   3.019   2.414  10.227
  102OSM    C1410277   2.764   2.490  10.259
  102OSM   H14A10278   2.730   2.409  10.321
  102OSM   H14B10279   2.791   2.451  10.162
  102OSM   H14C10280   2.686   2.563  10.245
  102OSM    C1310281   2.855   2.597  10.460
  102OSM   H13A10282   2.774   2.669  10.460
  102OSM   H13B10283   2.942   2.642  10.505
  102OSM   H13C10284   2.827   2.512  10.520
  102OSM    C1210285   2.929   2.671  10.235
  102OSM   H12A10286   3.016   2.718  10.278
  102OSM   H12B10287   2.851   2.747  10.236
  102OSM    C1110288   2.964   2.641  10.088
  102OSM   H11A10289   2.964   2.736  10.031
  102OSM   H11B10290   2.885   2.577  10.042
  102OSM      P10291   3.122   2.465   9.982
  102OSM    O1310292   3.266   2.463   9.947
  102OSM    O1410293   3.060   2.345  10.041
  102OSM    O1110294   3.036   2.505   9.853
  102OSM    O1210295   3.095   2.585  10.080
  102OSM    C1S10296   3.056   2.417   9.741
  102OSM    H1S10297   3.038   2.312   9.771
  102OSM    H1T10298   3.160   2.428   9.703
  102OSM     NF10299   3.020   2.555   9.545
  102OSM    HNF10300   2.998   2.647   9.578
  102OSM    C2S10301   2.964   2.442   9.618
  102OSM    H2S10302   2.965   2.351   9.555
  102OSM    C3S10303   2.817   2.461   9.661
  102OSM    H3S10304   2.810   2.535   9.743
  102OSM     O310305   2.755   2.340   9.710
  102OSM    HO310306   2.827   2.276   9.706
  102OSM    C4S10307   2.746   2.516   9.540
  102OSM    H4S10308   2.763   2.624   9.530
  102OSM    C5S10309   2.674   2.458   9.443
  102OSM    H5S10310   2.657   2.349   9.443
  102OSM    C6S10311   2.617   2.538   9.329
  102OSM    H6S10312   2.613   2.647   9.350
  102OSM    H6T10313   2.513   2.507   9.307
  102OSM    C7S10314   2.697   2.512   9.200
  102OSM    H7S10315   2.803   2.545   9.209
  102OSM    H7T10316   2.651   2.569   9.117
  102OSM    C8S10317   2.691   2.363   9.166
  102OSM    H8S10318   2.593   2.326   9.201
  102OSM    H8T10319   2.770   2.309   9.223
  102OSM    C9S10320   2.700   2.330   9.017
  102OSM    H9S10321   2.647   2.408   8.957
  102OSM    H9T10322   2.647   2.234   8.998
  102OSM   C10S10323   2.844   2.315   8.971
  102OSM   H10S10324   2.895   2.237   9.032
  102OSM   H10T10325   2.899   2.409   8.991
  102OSM   C11S10326   2.854   2.277   8.824
  102OSM   H11S10327   2.812   2.361   8.763
  102OSM   H11T10328   2.791   2.188   8.802
  102OSM   C12S10329   2.998   2.245   8.786
  102OSM   H12S10330   3.037   2.170   8.858
  102OSM   H12T10331   3.058   2.337   8.798
  102OSM   C13S10332   3.018   2.187   8.646
  102OSM   H13S10333   2.975   2.084   8.644
  102OSM   H13T10334   3.127   2.177   8.628
  102OSM   C14S10335   2.956   2.269   8.534
  102OSM   H14S10336   3.037   2.323   8.480
  102OSM   H14T10337   2.886   2.346   8.574
  102OSM   C15S10338   2.876   2.183   8.437
  102OSM   H15S10339   2.793   2.138   8.495
  102OSM   H15T10340   2.942   2.101   8.399
  102OSM   C16S10341   2.821   2.259   8.316
  102OSM   H16S10342   2.888   2.346   8.299
  102OSM   H16T10343   2.719   2.296   8.340
  102OSM   C17S10344   2.819   2.174   8.188
  102OSM   H17S10345   2.721   2.186   8.137
  102OSM   H17T10346   2.830   2.067   8.218
  102OSM   C18S10347   2.930   2.206   8.089
  102OSM   H18S10348   2.895   2.276   8.010
  102OSM   H18T10349   2.967   2.113   8.042
  102OSM   H18U10350   3.017   2.253   8.140
  102OSM    C1F10351   3.113   2.529   9.454
  102OSM     OF10352   3.136   2.413   9.425
  102OSM    C2F10353   3.189   2.642   9.394
  102OSM    H2F10354   3.274   2.667   9.461
  102OSM    H2G10355   3.124   2.731   9.383
  102OSM    C3F10356   3.243   2.599   9.256
  102OSM    H3F10357   3.303   2.505   9.264
  102OSM    H3G10358   3.311   2.679   9.218
  102OSM    C4F10359   3.134   2.576   9.152
  102OSM    H4F10360   3.067   2.664   9.155
  102OSM    H4G10361   3.073   2.487   9.177
  102OSM    C5F10362   3.189   2.562   9.009
  102OSM    H5F10363   3.206   2.455   8.987
  102OSM    H5G10364   3.285   2.617   8.998
  102OSM    C6F10365   3.088   2.621   8.912
  102OSM    H6F10366   3.076   2.730   8.934
  102OSM    H6G10367   2.991   2.572   8.933
  102OSM    C7F10368   3.115   2.606   8.764
  102OSM    H7F10369   3.158   2.506   8.742
  102OSM    H7G10370   3.190   2.682   8.732
  102OSM    C8F10371   2.982   2.622   8.689
  102OSM    H8F10372   2.938   2.721   8.714
  102OSM    H8G10373   2.910   2.546   8.726
  102OSM    C9F10374   3.000   2.609   8.541
  102OSM    H9F10375   2.965   2.515   8.495
  102OSM   C10F10376   3.046   2.705   8.462
  102OSM   H10F10377   3.057   2.686   8.354
  102OSM   C11F10378   3.087   2.841   8.506
  102OSM   H11F10379   3.183   2.829   8.560
  102OSM   H11G10380   3.013   2.887   8.576
  102OSM   C12F10381   3.107   2.933   8.384
  102OSM   H12F10382   3.164   2.878   8.307
  102OSM   H12G10383   3.169   3.021   8.413
  102OSM   C13F10384   2.978   2.994   8.330
  102OSM   H13F10385   2.978   3.103   8.354
  102OSM   H13G10386   2.891   2.950   8.383
  102OSM   C14F10387   2.955   2.975   8.179
  102OSM   H14F10388   2.872   3.043   8.148
  102OSM   H14G10389   2.916   2.872   8.165
  102OSM   C15F10390   3.075   2.987   8.083
  102OSM   H15F10391   3.156   2.917   8.112
  102OSM   H15G10392   3.119   3.089   8.091
  102OSM   C16F10393   3.040   2.956   7.934
  102OSM   H16F10394   3.122   2.896   7.891
  102OSM   H16G10395   3.039   3.051   7.876
  102OSM   C17F10396   2.905   2.882   7.910
  102OSM   H17F10397   2.825   2.920   7.977
  102OSM   H17G10398   2.919   2.775   7.934
  102OSM   C18F10399   2.846   2.885   7.769
  102OSM   H18F10400   2.829   2.781   7.735
  102OSM   H18G10401   2.914   2.937   7.698
  102OSM   H18H10402   2.748   2.937   7.767
  103OSM      N10403   2.714   4.805  10.252
  103OSM    C1510404   2.836   4.869  10.313
  103OSM   H15A10405   2.814   4.964  10.360
  103OSM   H15B10406   2.906   4.892  10.234
  103OSM   H15C10407   2.886   4.806  10.385
  103OSM    C1410408   2.759   4.678  10.187
  103OSM   H14A10409   2.832   4.704  10.112
  103OSM   H14B10410   2.678   4.628  10.136
  103OSM   H14C10411   2.807   4.611  10.257
  103OSM    C1310412   2.614   4.778  10.359
  103OSM   H13A10413   2.581   4.870  10.404
  103OSM   H13B10414   2.658   4.718  10.438
  103OSM   H13C10415   2.528   4.725  10.321
  103OSM    C1210416   2.661   4.902  10.147
  103OSM   H12A10417   2.667   5.002  10.187
  103OSM   H12B10418   2.556   4.883  10.128
  103OSM    C1110419   2.732   4.901  10.010
  103OSM   H11A10420   2.698   4.990   9.952
  103OSM   H11B10421   2.698   4.812   9.952
  103OSM      P10422   2.972   5.008   9.977
  103OSM    O1310423   2.963   5.120  10.074
  103OSM    O1410424   3.103   4.945   9.952
  103OSM    O1110425   2.914   5.057   9.838
  103OSM    O1210426   2.874   4.894  10.022
  103OSM    C1S10427   2.895   4.961   9.734
  103OSM    H1S10428   2.839   4.872   9.770
  103OSM    H1T10429   2.992   4.924   9.696
  103OSM     NF10430   2.731   4.930   9.547
  103OSM    HNF10431   2.744   4.918   9.448
  103OSM    C2S10432   2.816   5.027   9.616
  103OSM    H2S10433   2.750   5.105   9.657
  103OSM    C3S10434   2.924   5.094   9.526
  103OSM    H3S10435   3.000   5.017   9.500
  103OSM     O310436   2.994   5.198   9.592
  103OSM    HO310437   2.971   5.190   9.685
  103OSM    C4S10438   2.866   5.151   9.399
  103OSM    H4S10439   2.789   5.229   9.411
  103OSM    C5S10440   2.912   5.115   9.277
  103OSM    H5S10441   2.994   5.042   9.274
  103OSM    C6S10442   2.871   5.161   9.140
  103OSM    H6S10443   2.861   5.072   9.074
  103OSM    H6T10444   2.954   5.221   9.098
  103OSM    C7S10445   2.742   5.245   9.119
  103OSM    H7S10446   2.755   5.346   9.162
  103OSM    H7T10447   2.658   5.196   9.172
  103OSM    C8S10448   2.706   5.255   8.969
  103OSM    H8S10449   2.606   5.301   8.957
  103OSM    H8T10450   2.699   5.152   8.928
  103OSM    C9S10451   2.807   5.332   8.881
  103OSM    H9S10452   2.910   5.299   8.904
  103OSM    H9T10453   2.800   5.440   8.904
  103OSM   C10S10454   2.784   5.307   8.731
  103OSM   H10S10455   2.677   5.327   8.705
  103OSM   H10T10456   2.803   5.200   8.710
  103OSM   C11S10457   2.874   5.395   8.642
  103OSM   H11S10458   2.972   5.407   8.692
  103OSM   H11T10459   2.828   5.495   8.634
  103OSM   C12S10460   2.898   5.337   8.501
  103OSM   H12S10461   2.943   5.417   8.439
  103OSM   H12T10462   2.801   5.308   8.455
  103OSM   C13S10463   2.994   5.218   8.503
  103OSM   H13S10464   2.944   5.130   8.550
  103OSM   H13T10465   3.081   5.244   8.566
  103OSM   C14S10466   3.048   5.177   8.364
  103OSM   H14S10467   3.126   5.099   8.380
  103OSM   H14T10468   3.097   5.264   8.316
  103OSM   C15S10469   2.942   5.120   8.269
  103OSM   H15S10470   2.871   5.200   8.240
  103OSM   H15T10471   2.885   5.041   8.321
  103OSM   C16S10472   3.005   5.059   8.142
  103OSM   H16S10473   3.071   4.975   8.173
  103OSM   H16T10474   3.068   5.135   8.092
  103OSM   C17S10475   2.901   5.006   8.043
  103OSM   H17S10476   2.838   5.090   8.007
  103OSM   H17T10477   2.834   4.935   8.096
  103OSM   C18S10478   2.964   4.935   7.923
  103OSM   H18S10479   2.886   4.888   7.859
  103OSM   H18T10480   3.034   4.855   7.956
  103OSM   H18U10481   3.019   5.007   7.859
  103OSM    C1F10482   2.626   4.873   9.607
  103OSM     OF10483   2.608   4.882   9.727
  103OSM    C2F10484   2.525   4.799   9.525
  103OSM    H2F10485   2.425   4.828   9.563
  103OSM    H2G10486   2.538   4.690   9.543
  103OSM    C3F10487   2.530   4.828   9.373
  103OSM    H3F10488   2.552   4.935   9.351
  103OSM    H3G10489   2.428   4.809   9.334
  103OSM    C4F10490   2.626   4.735   9.298
  103OSM    H4F10491   2.599   4.631   9.329
  103OSM    H4G10492   2.732   4.751   9.327
  103OSM    C5F10493   2.608   4.745   9.147
  103OSM    H5F10494   2.514   4.800   9.124
  103OSM    H5G10495   2.600   4.644   9.101
  103OSM    C6F10496   2.726   4.812   9.078
  103OSM    H6F10497   2.810   4.740   9.072
  103OSM    H6G10498   2.760   4.898   9.140
  103OSM    C7F10499   2.687   4.862   8.939
  103OSM    H7F10500   2.636   4.960   8.951
  103OSM    H7G10501   2.611   4.795   8.894
  103OSM    C8F10502   2.810   4.876   8.848
  103OSM    H8F10503   2.898   4.904   8.909
  103OSM    H8G10504   2.792   4.958   8.776
  103OSM    C9F10505   2.831   4.744   8.779
  103OSM    H9F10506   2.834   4.655   8.844
  103OSM   C10F10507   2.843   4.727   8.647
  103OSM   H10F10508   2.850   4.624   8.607
  103OSM   C11F10509   2.840   4.836   8.543
  103OSM   H11F10510   2.887   4.799   8.449
  103OSM   H11G10511   2.902   4.922   8.576
  103OSM   C12F10512   2.699   4.892   8.510
  103OSM   H12F10513   2.708   4.963   8.426
  103OSM   H12G10514   2.661   4.949   8.597
  103OSM   C13F10515   2.595   4.786   8.474
  103OSM   H13F10516   2.568   4.731   8.567
  103OSM   H13G10517   2.503   4.836   8.438
  103OSM   C14F10518   2.641   4.683   8.370
  103OSM   H14F10519   2.554   4.619   8.346
  103OSM   H14G10520   2.719   4.617   8.413
  103OSM   C15F10521   2.693   4.741   8.237
  103OSM   H15F10522   2.788   4.795   8.253
  103OSM   H15G10523   2.618   4.812   8.197
  103OSM   C16F10524   2.713   4.625   8.138
  103OSM   H16F10525   2.612   4.580   8.126
  103OSM   H16G10526   2.783   4.551   8.182
  103OSM   C17F10527   2.758   4.658   7.997
  103OSM   H17F10528   2.761   4.562   7.939
  103OSM   H17G10529   2.859   4.702   7.997
  103OSM   C18F10530   2.657   4.745   7.927
  103OSM   H18F10531   2.650   4.844   7.977
  103OSM   H18G10532   2.557   4.698   7.932
  103OSM   H18H10533   2.683   4.760   7.819
  104OSM      N10534   2.196   4.476  10.252
  104OSM    C1510535   2.134   4.472  10.115
  104OSM   H15A10536   2.058   4.548  10.100
  104OSM   H15B10537   2.090   4.376  10.096
  104OSM   H15C10538   2.211   4.482  10.040
  104OSM    C1410539   2.261   4.608  10.274
  104OSM   H14A10540   2.335   4.625  10.197
  104OSM   H14B10541   2.310   4.611  10.371
  104OSM   H14C10542   2.188   4.687  10.270
  104OSM    C1310543   2.087   4.455  10.353
  104OSM   H13A10544   2.029   4.368  10.331
  104OSM   H13B10545   2.017   4.537  10.355
  104OSM   H13C10546   2.126   4.445  10.454
  104OSM    C1210547   2.299   4.363  10.262
  104OSM   H12A10548   2.246   4.270  10.249
  104OSM   H12B10549   2.343   4.363  10.360
  104OSM    C1110550   2.412   4.360  10.156
  104OSM   H11A10551   2.492   4.290  10.187
  104OSM   H11B10552   2.460   4.460  10.148
  104OSM      P10553   2.310   4.175  10.004
  104OSM    O1310554   2.421   4.082  10.033
  104OSM    O1410555   2.189   4.156  10.088
  104OSM    O1110556   2.271   4.178   9.851
  104OSM    O1210557   2.361   4.324  10.028
  104OSM    C1S10558   2.331   4.269   9.756
  104OSM    H1S10559   2.422   4.318   9.796
  104OSM    H1T10560   2.260   4.350   9.729
  104OSM     NF10561   2.491   4.245   9.563
  104OSM    HNF10562   2.484   4.285   9.472
  104OSM    C2S10563   2.370   4.191   9.626
  104OSM    H2S10564   2.392   4.088   9.659
  104OSM    C3S10565   2.249   4.186   9.527
  104OSM    H3S10566   2.236   4.287   9.483
  104OSM     O310567   2.126   4.154   9.590
  104OSM    HO310568   2.146   4.148   9.684
  104OSM    C4S10569   2.279   4.088   9.417
  104OSM    H4S10570   2.339   4.002   9.451
  104OSM    C5S10571   2.242   4.084   9.287
  104OSM    H5S10572   2.175   4.160   9.245
  104OSM    C6S10573   2.288   3.974   9.194
  104OSM    H6S10574   2.226   3.969   9.102
  104OSM    H6T10575   2.282   3.875   9.244
  104OSM    C7S10576   2.435   4.000   9.156
  104OSM    H7S10577   2.494   4.009   9.250
  104OSM    H7T10578   2.445   4.096   9.102
  104OSM    C8S10579   2.505   3.887   9.077
  104OSM    H8S10580   2.473   3.788   9.116
  104OSM    H8T10581   2.613   3.898   9.099
  104OSM    C9S10582   2.491   3.891   8.924
  104OSM    H9S10583   2.388   3.860   8.897
  104OSM    H9T10584   2.562   3.817   8.881
  104OSM   C10S10585   2.518   4.028   8.860
  104OSM   H10S10586   2.434   4.096   8.888
  104OSM   H10T10587   2.514   4.016   8.750
  104OSM   C11S10588   2.650   4.097   8.899
  104OSM   H11S10589   2.734   4.049   8.843
  104OSM   H11T10590   2.671   4.085   9.007
  104OSM   C12S10591   2.648   4.248   8.869
  104OSM   H12S10592   2.745   4.295   8.894
  104OSM   H12T10593   2.570   4.296   8.933
  104OSM   C13S10594   2.613   4.277   8.723
  104OSM   H13S10595   2.520   4.222   8.698
  104OSM   H13T10596   2.694   4.239   8.657
  104OSM   C14S10597   2.583   4.424   8.693
  104OSM   H14S10598   2.678   4.478   8.671
  104OSM   H14T10599   2.536   4.473   8.781
  104OSM   C15S10600   2.488   4.433   8.574
  104OSM   H15S10601   2.473   4.539   8.544
  104OSM   H15T10602   2.389   4.391   8.603
  104OSM   C16S10603   2.538   4.350   8.456
  104OSM   H16S10604   2.538   4.242   8.479
  104OSM   H16T10605   2.644   4.379   8.437
  104OSM   C17S10606   2.456   4.371   8.330
  104OSM   H17S10607   2.407   4.471   8.329
  104OSM   H17T10608   2.376   4.293   8.327
  104OSM   C18S10609   2.543   4.355   8.208
  104OSM   H18S10610   2.567   4.247   8.196
  104OSM   H18T10611   2.642   4.404   8.223
  104OSM   H18U10612   2.495   4.391   8.114
  104OSM    C1F10613   2.612   4.235   9.621
  104OSM     OF10614   2.623   4.189   9.734
  104OSM    C2F10615   2.735   4.277   9.546
  104OSM    H2F10616   2.819   4.217   9.587
  104OSM    H2G10617   2.757   4.384   9.569
  104OSM    C3F10618   2.731   4.256   9.392
  104OSM    H3F10619   2.690   4.156   9.366
  104OSM    H3G10620   2.835   4.259   9.355
  104OSM    C4F10621   2.656   4.367   9.319
  104OSM    H4F10622   2.722   4.417   9.245
  104OSM    H4G10623   2.629   4.443   9.395
  104OSM    C5F10624   2.529   4.321   9.249
  104OSM    H5F10625   2.485   4.233   9.301
  104OSM    H5G10626   2.553   4.288   9.146
  104OSM    C6F10627   2.426   4.433   9.246
  104OSM    H6F10628   2.472   4.518   9.192
  104OSM    H6G10629   2.402   4.468   9.349
  104OSM    C7F10630   2.296   4.398   9.175
  104OSM    H7F10631   2.226   4.354   9.250
  104OSM    H7G10632   2.313   4.323   9.095
  104OSM    C8F10633   2.229   4.523   9.117
  104OSM    H8F10634   2.229   4.601   9.197
  104OSM    H8G10635   2.122   4.499   9.100
  104OSM    C9F10636   2.297   4.575   8.993
  104OSM    H9F10637   2.395   4.622   9.009
  104OSM   C10F10638   2.249   4.568   8.868
  104OSM   H10F10639   2.309   4.607   8.785
  104OSM   C11F10640   2.117   4.506   8.828
  104OSM   H11F10641   2.067   4.564   8.748
  104OSM   H11G10642   2.045   4.496   8.912
  104OSM   C12F10643   2.154   4.366   8.776
  104OSM   H12F10644   2.221   4.313   8.847
  104OSM   H12G10645   2.209   4.383   8.681
  104OSM   C13F10646   2.037   4.273   8.745
  104OSM   H13F10647   1.963   4.326   8.682
  104OSM   H13G10648   1.987   4.246   8.840
  104OSM   C14F10649   2.087   4.146   8.674
  104OSM   H14F10650   2.003   4.074   8.661
  104OSM   H14G10651   2.163   4.097   8.738
  104OSM   C15F10652   2.146   4.168   8.534
  104OSM   H15F10653   2.193   4.074   8.499
  104OSM   H15G10654   2.227   4.244   8.537
  104OSM   C16F10655   2.039   4.210   8.431
  104OSM   H16F10656   1.951   4.253   8.482
  104OSM   H16G10657   2.006   4.118   8.378
  104OSM   C17F10658   2.091   4.313   8.331
  104OSM   H17F10659   2.187   4.275   8.289
  104OSM   H17G10660   2.113   4.409   8.383
  104OSM   C18F10661   1.999   4.338   8.212
  104OSM   H18F10662   1.902   4.380   8.245
  104OSM   H18G10663   1.981   4.241   8.160
  104OSM   H18H10664   2.046   4.407   8.139
  105OSM      N10665   2.001   3.828  10.251
  105OSM    C1510666   1.859   3.781  10.237
  105OSM   H15A10667   1.861   3.682  10.193
  105OSM   H15B10668   1.802   3.844  10.170
  105OSM   H15C10669   1.810   3.772  10.332
  105OSM    C1410670   2.007   3.969  10.299
  105OSM   H14A10671   1.964   4.036  10.225
  105OSM   H14B10672   2.109   4.000  10.311
  105OSM   H14C10673   1.955   3.981  10.393
  105OSM    C1310674   2.066   3.735  10.349
  105OSM   H13A10675   2.064   3.636  10.308
  105OSM   H13B10676   2.014   3.733  10.443
  105OSM   H13C10677   2.170   3.761  10.365
  105OSM    C1210678   2.072   3.815  10.116
  105OSM   H12A10679   2.164   3.873  10.118
  105OSM   H12B10680   2.011   3.860  10.039
  105OSM    C1110681   2.108   3.671  10.071
  105OSM   H11A10682   2.196   3.634  10.129
  105OSM   H11B10683   2.140   3.675   9.965
  105OSM      P10684   1.966   3.465   9.994
  105OSM    O1310685   2.088   3.381   9.986
  105OSM    O1410686   1.841   3.403  10.041
  105OSM    O1110687   1.939   3.549   9.860
  105OSM    O1210688   1.998   3.582  10.093
  105OSM    C1S10689   1.816   3.623   9.855
  105OSM    H1S10690   1.811   3.697   9.937
  105OSM    H1T10691   1.728   3.555   9.865
  105OSM     NF10692   1.760   3.611   9.616
  105OSM    HNF10693   1.834   3.567   9.565
  105OSM    C2S10694   1.797   3.703   9.721
  105OSM    H2S10695   1.715   3.775   9.736
  105OSM    C3S10696   1.924   3.783   9.687
  105OSM    H3S10697   2.008   3.713   9.665
  105OSM     O310698   1.964   3.859   9.801
  105OSM    HO310699   2.013   3.793   9.850
  105OSM    C4S10700   1.901   3.874   9.567
  105OSM    H4S10701   1.888   3.980   9.593
  105OSM    C5S10702   1.905   3.838   9.437
  105OSM    H5S10703   1.930   3.734   9.410
  105OSM    C6S10704   1.885   3.930   9.319
  105OSM    H6S10705   1.986   3.948   9.274
  105OSM    H6T10706   1.849   4.029   9.354
  105OSM    C7S10707   1.792   3.888   9.202
  105OSM    H7S10708   1.690   3.927   9.221
  105OSM    H7T10709   1.786   3.778   9.198
  105OSM    C8S10710   1.844   3.942   9.065
  105OSM    H8S10711   1.937   3.887   9.040
  105OSM    H8T10712   1.871   4.049   9.078
  105OSM    C9S10713   1.746   3.932   8.946
  105OSM    H9S10714   1.664   4.005   8.964
  105OSM    H9T10715   1.699   3.832   8.941
  105OSM   C10S10716   1.812   3.966   8.810
  105OSM   H10S10717   1.908   4.017   8.832
  105OSM   H10T10718   1.749   4.042   8.758
  105OSM   C11S10719   1.837   3.846   8.715
  105OSM   H11S10720   1.766   3.765   8.745
  105OSM   H11T10721   1.940   3.808   8.736
  105OSM   C12S10722   1.820   3.864   8.561
  105OSM   H12S10723   1.918   3.846   8.512
  105OSM   H12T10724   1.794   3.969   8.536
  105OSM   C13S10725   1.714   3.766   8.502
  105OSM   H13S10726   1.612   3.788   8.542
  105OSM   H13T10727   1.739   3.665   8.540
  105OSM   C14S10728   1.702   3.744   8.350
  105OSM   H14S10729   1.647   3.824   8.296
  105OSM   H14T10730   1.638   3.654   8.337
  105OSM   C15S10731   1.834   3.716   8.279
  105OSM   H15S10732   1.825   3.618   8.227
  105OSM   H15T10733   1.914   3.706   8.356
  105OSM   C16S10734   1.879   3.821   8.177
  105OSM   H16S10735   1.887   3.920   8.226
  105OSM   H16T10736   1.803   3.827   8.096
  105OSM   C17S10737   2.014   3.782   8.117
  105OSM   H17S10738   2.013   3.672   8.099
  105OSM   H17T10739   2.092   3.800   8.195
  105OSM   C18S10740   2.051   3.850   7.986
  105OSM   H18S10741   2.156   3.826   7.958
  105OSM   H18T10742   2.041   3.960   7.997
  105OSM   H18U10743   1.985   3.818   7.903
  105OSM    C1F10744   1.638   3.562   9.610
  105OSM     OF10745   1.551   3.605   9.686
  105OSM    C2F10746   1.612   3.455   9.509
  105OSM    H2F10747   1.529   3.488   9.443
  105OSM    H2G10748   1.578   3.363   9.562
  105OSM    C3F10749   1.730   3.423   9.416
  105OSM    H3F10750   1.811   3.372   9.472
  105OSM    H3G10751   1.770   3.514   9.367
  105OSM    C4F10752   1.678   3.328   9.307
  105OSM    H4F10753   1.593   3.376   9.253
  105OSM    H4G10754   1.637   3.239   9.360
  105OSM    C5F10755   1.781   3.277   9.209
  105OSM    H5F10756   1.731   3.207   9.138
  105OSM    H5G10757   1.859   3.219   9.263
  105OSM    C6F10758   1.846   3.387   9.126
  105OSM    H6F10759   1.916   3.335   9.057
  105OSM    H6G10760   1.904   3.455   9.192
  105OSM    C7F10761   1.746   3.472   9.045
  105OSM    H7F10762   1.672   3.520   9.113
  105OSM    H7G10763   1.688   3.404   8.978
  105OSM    C8F10764   1.813   3.583   8.963
  105OSM    H8F10765   1.819   3.673   9.027
  105OSM    H8G10766   1.745   3.608   8.878
  105OSM    C9F10767   1.952   3.551   8.917
  105OSM    H9F10768   2.032   3.612   8.964
  105OSM   C10F10769   1.987   3.458   8.828
  105OSM   H10F10770   2.093   3.440   8.806
  105OSM   C11F10771   1.892   3.370   8.753
  105OSM   H11F10772   1.806   3.339   8.816
  105OSM   H11G10773   1.941   3.278   8.714
  105OSM   C12F10774   1.842   3.457   8.639
  105OSM   H12F10775   1.806   3.554   8.679
  105OSM   H12G10776   1.753   3.408   8.594
  105OSM   C13F10777   1.944   3.478   8.526
  105OSM   H13F10778   1.885   3.509   8.437
  105OSM   H13G10779   1.989   3.379   8.505
  105OSM   C14F10780   2.058   3.581   8.547
  105OSM   H14F10781   2.125   3.545   8.628
  105OSM   H14G10782   2.015   3.677   8.582
  105OSM   C15F10783   2.146   3.606   8.423
  105OSM   H15F10784   2.253   3.598   8.452
  105OSM   H15G10785   2.131   3.710   8.387
  105OSM   C16F10786   2.116   3.507   8.310
  105OSM   H16F10787   2.013   3.526   8.272
  105OSM   H16G10788   2.117   3.403   8.348
  105OSM   C17F10789   2.208   3.509   8.188
  105OSM   H17F10790   2.309   3.474   8.216
  105OSM   H17G10791   2.218   3.612   8.148
  105OSM   C18F10792   2.145   3.416   8.084
  105OSM   H18F10793   2.133   3.314   8.126
  105OSM   H18G10794   2.207   3.410   7.992
  105OSM   H18H10795   2.044   3.453   8.055
  106OSM      N10796   2.790   1.967  10.028
  106OSM    C1510797   2.789   2.070  10.137
  106OSM   H15A10798   2.780   2.021  10.233
  106OSM   H15B10799   2.710   2.143  10.125
  106OSM   H15C10800   2.884   2.122  10.138
  106OSM    C1410801   2.820   2.033   9.897
  106OSM   H14A10802   2.830   1.961   9.817
  106OSM   H14B10803   2.914   2.086   9.903
  106OSM   H14C10804   2.745   2.106   9.869
  106OSM    C1310805   2.906   1.877  10.060
  106OSM   H13A10806   2.997   1.932  10.082
  106OSM   H13B10807   2.930   1.810   9.978
  106OSM   H13C10808   2.885   1.816  10.146
  106OSM    C1210809   2.665   1.880  10.024
  106OSM   H12A10810   2.687   1.790   9.968
  106OSM   H12B10811   2.587   1.926   9.966
  106OSM    C1110812   2.604   1.830  10.158
  106OSM   H11A10813   2.504   1.786  10.138
  106OSM   H11B10814   2.587   1.915  10.227
  106OSM      P10815   2.673   1.579  10.200
  106OSM    O1310816   2.792   1.509  10.252
  106OSM    O1410817   2.539   1.535  10.248
  106OSM    O1110818   2.675   1.567  10.041
  106OSM    O1210819   2.691   1.736  10.223
  106OSM    C1S10820   2.551   1.533   9.978
  106OSM    H1S10821   2.470   1.602  10.010
  106OSM    H1T10822   2.516   1.431  10.006
  106OSM     NF10823   2.444   1.593   9.767
  106OSM    HNF10824   2.395   1.533   9.704
  106OSM    C2S10825   2.565   1.540   9.823
  106OSM    H2S10826   2.647   1.611   9.800
  106OSM    C3S10827   2.598   1.401   9.763
  106OSM    H3S10828   2.503   1.346   9.746
  106OSM     O310829   2.674   1.320   9.851
  106OSM    HO310830   2.687   1.372   9.931
  106OSM    C4S10831   2.675   1.410   9.633
  106OSM    H4S10832   2.783   1.426   9.645
  106OSM    C5S10833   2.625   1.396   9.509
  106OSM    H5S10834   2.517   1.381   9.495
  106OSM    C6S10835   2.705   1.399   9.382
  106OSM    H6S10836   2.664   1.320   9.315
  106OSM    H6T10837   2.812   1.372   9.401
  106OSM    C7S10838   2.708   1.529   9.301
  106OSM    H7S10839   2.782   1.598   9.346
  106OSM    H7T10840   2.608   1.577   9.309
  106OSM    C8S10841   2.741   1.503   9.153
  106OSM    H8S10842   2.785   1.402   9.143
  106OSM    H8T10843   2.818   1.575   9.119
  106OSM    C9S10844   2.617   1.515   9.062
  106OSM    H9S10845   2.587   1.621   9.057
  106OSM    H9T10846   2.534   1.455   9.104
  106OSM   C10S10847   2.643   1.465   8.920
  106OSM   H10S10848   2.650   1.354   8.923
  106OSM   H10T10849   2.741   1.506   8.888
  106OSM   C11S10850   2.540   1.504   8.814
  106OSM   H11S10851   2.511   1.610   8.827
  106OSM   H11T10852   2.448   1.442   8.825
  106OSM   C12S10853   2.598   1.486   8.672
  106OSM   H12S10854   2.618   1.377   8.657
  106OSM   H12T10855   2.694   1.541   8.663
  106OSM   C13S10856   2.503   1.532   8.563
  106OSM   H13S10857   2.475   1.637   8.585
  106OSM   H13T10858   2.412   1.468   8.571
  106OSM   C14S10859   2.557   1.527   8.419
  106OSM   H14S10860   2.587   1.423   8.396
  106OSM   H14T10861   2.646   1.592   8.411
  106OSM   C15S10862   2.451   1.572   8.317
  106OSM   H15S10863   2.409   1.671   8.347
  106OSM   H15T10864   2.366   1.500   8.319
  106OSM   C16S10865   2.496   1.577   8.171
  106OSM   H16S10866   2.605   1.601   8.164
  106OSM   H16T10867   2.440   1.656   8.118
  106OSM   C17S10868   2.462   1.444   8.104
  106OSM   H17S10869   2.352   1.432   8.106
  106OSM   H17T10870   2.506   1.362   8.165
  106OSM   C18S10871   2.509   1.429   7.960
  106OSM   H18S10872   2.436   1.474   7.889
  106OSM   H18T10873   2.519   1.321   7.935
  106OSM   H18U10874   2.607   1.479   7.946
  106OSM    C1F10875   2.395   1.713   9.791
  106OSM     OF10876   2.450   1.797   9.863
  106OSM    C2F10877   2.272   1.741   9.717
  106OSM    H2F10878   2.199   1.794   9.782
  106OSM    H2G10879   2.227   1.645   9.683
  106OSM    C3F10880   2.311   1.830   9.599
  106OSM    H3F10881   2.328   1.930   9.644
  106OSM    H3G10882   2.224   1.837   9.530
  106OSM    C4F10883   2.438   1.795   9.520
  106OSM    H4F10884   2.428   1.695   9.472
  106OSM    H4G10885   2.528   1.793   9.585
  106OSM    C5F10886   2.462   1.902   9.414
  106OSM    H5F10887   2.471   2.002   9.461
  106OSM    H5G10888   2.370   1.902   9.351
  106OSM    C6F10889   2.580   1.881   9.321
  106OSM    H6F10890   2.557   1.935   9.227
  106OSM    H6G10891   2.590   1.774   9.293
  106OSM    C7F10892   2.712   1.933   9.376
  106OSM    H7F10893   2.739   1.876   9.467
  106OSM    H7G10894   2.701   2.039   9.406
  106OSM    C8F10895   2.824   1.919   9.271
  106OSM    H8F10896   2.834   1.812   9.242
  106OSM    H8G10897   2.920   1.948   9.319
  106OSM    C9F10898   2.797   2.009   9.154
  106OSM    H9F10899   2.782   2.114   9.183
  106OSM   C10F10900   2.786   1.976   9.025
  106OSM   H10F10901   2.762   2.056   8.953
  106OSM   C11F10902   2.799   1.841   8.962
  106OSM   H11F10903   2.784   1.761   9.038
  106OSM   H11G10904   2.901   1.828   8.919
  106OSM   C12F10905   2.695   1.818   8.850
  106OSM   H12F10906   2.592   1.823   8.892
  106OSM   H12G10907   2.711   1.715   8.813
  106OSM   C13F10908   2.706   1.912   8.729
  106OSM   H13F10909   2.811   1.913   8.693
  106OSM   H13G10910   2.677   2.015   8.757
  106OSM   C14F10911   2.614   1.865   8.614
  106OSM   H14F10912   2.510   1.860   8.651
  106OSM   H14G10913   2.646   1.763   8.584
  106OSM   C15F10914   2.620   1.955   8.490
  106OSM   H15F10915   2.724   1.952   8.452
  106OSM   H15G10916   2.594   2.059   8.518
  106OSM   C16F10917   2.529   1.908   8.376
  106OSM   H16F10918   2.423   1.904   8.412
  106OSM   H16G10919   2.562   1.806   8.348
  106OSM   C17F10920   2.540   1.996   8.251
  106OSM   H17F10921   2.645   1.986   8.216
  106OSM   H17G10922   2.523   2.102   8.278
  106OSM   C18F10923   2.450   1.957   8.134
  106OSM   H18F10924   2.458   2.032   8.052
  106OSM   H18G10925   2.344   1.950   8.165
  106OSM   H18H10926   2.481   1.858   8.092
  107OSM      N10927   3.851   5.983   9.993
  107OSM    C1510928   3.899   6.112  10.053
  107OSM   H15A10929   3.884   6.111  10.160
  107OSM   H15B10930   3.842   6.194  10.012
  107OSM   H15C10931   4.003   6.130  10.031
  107OSM    C1410932   3.706   5.972  10.029
  107OSM   H14A10933   3.654   6.065  10.008
  107OSM   H14B10934   3.696   5.949  10.134
  107OSM   H14C10935   3.655   5.895   9.973
  107OSM    C1310936   3.861   5.997   9.843
  107OSM   H13A10937   3.809   6.087   9.813
  107OSM   H13B10938   3.815   5.914   9.793
  107OSM   H13C10939   3.964   6.006   9.810
  107OSM    C1210940   3.930   5.863  10.044
  107OSM   H12A10941   4.030   5.867  10.002
  107OSM   H12B10942   3.886   5.772  10.006
  107OSM    C1110943   3.945   5.842  10.197
  107OSM   H11A10944   3.985   5.935  10.243
  107OSM   H11B10945   4.021   5.763  10.214
  107OSM      P10946   3.775   5.659  10.278
  107OSM    O1310947   3.874   5.586  10.361
  107OSM    O1410948   3.637   5.655  10.329
  107OSM    O1110949   3.779   5.606  10.129
  107OSM    O1210950   3.820   5.810  10.260
  107OSM    C1S10951   3.667   5.627  10.042
  107OSM    H1S10952   3.611   5.720  10.066
  107OSM    H1T10953   3.594   5.544  10.054
  107OSM     NF10954   3.590   5.618   9.810
  107OSM    HNF10955   3.570   5.528   9.772
  107OSM    C2S10956   3.708   5.634   9.891
  107OSM    H2S10957   3.752   5.734   9.871
  107OSM    C3S10958   3.817   5.530   9.857
  107OSM    H3S10959   3.777   5.429   9.881
  107OSM     O310960   3.936   5.550   9.932
  107OSM    HO310961   3.904   5.564  10.021
  107OSM    C4S10962   3.848   5.529   9.709
  107OSM    H4S10963   3.802   5.446   9.653
  107OSM    C5S10964   3.929   5.614   9.644
  107OSM    H5S10965   3.979   5.693   9.702
  107OSM    C6S10966   3.965   5.614   9.498
  107OSM    H6S10967   4.075   5.602   9.495
  107OSM    H6T10968   3.944   5.712   9.451
  107OSM    C7S10969   3.915   5.503   9.403
  107OSM    H7S10970   3.904   5.405   9.454
  107OSM    H7T10971   3.995   5.489   9.327
  107OSM    C8S10972   3.789   5.541   9.324
  107OSM    H8S10973   3.782   5.651   9.316
  107OSM    H8T10974   3.699   5.505   9.379
  107OSM    C9S10975   3.793   5.483   9.182
  107OSM    H9S10976   3.690   5.470   9.144
  107OSM    H9T10977   3.839   5.382   9.185
  107OSM   C10S10978   3.871   5.572   9.082
  107OSM   H10S10979   3.972   5.594   9.122
  107OSM   H10T10980   3.819   5.670   9.071
  107OSM   C11S10981   3.882   5.501   8.946
  107OSM   H11S10982   3.782   5.469   8.911
  107OSM   H11T10983   3.936   5.406   8.966
  107OSM   C12S10984   3.953   5.574   8.830
  107OSM   H12S10985   3.920   5.523   8.737
  107OSM   H12T10986   4.063   5.558   8.840
  107OSM   C13S10987   3.937   5.725   8.812
  107OSM   H13S10988   3.988   5.777   8.896
  107OSM   H13T10989   3.830   5.756   8.815
  107OSM   C14S10990   3.997   5.772   8.678
  107OSM   H14S10991   4.102   5.738   8.672
  107OSM   H14T10992   3.998   5.883   8.677
  107OSM   C15S10993   3.920   5.722   8.554
  107OSM   H15S10994   3.828   5.667   8.586
  107OSM   H15T10995   3.984   5.650   8.498
  107OSM   C16S10996   3.877   5.837   8.462
  107OSM   H16S10997   3.968   5.893   8.431
  107OSM   H16T10998   3.812   5.905   8.520
  107OSM   C17S10999   3.804   5.799   8.333
  107OSM   H17S11000   3.736   5.713   8.352
  107OSM   H17T11001   3.880   5.766   8.259
  107OSM   C18S11002   3.725   5.916   8.273
  107OSM   H18S11003   3.696   5.894   8.168
  107OSM   H18T11004   3.787   6.008   8.273
  107OSM   H18U11005   3.633   5.936   8.332
  107OSM    C1F11006   3.504   5.717   9.794
  107OSM     OF11007   3.508   5.818   9.863
  107OSM    C2F11008   3.410   5.700   9.681
  107OSM    H2F11009   3.315   5.754   9.701
  107OSM    H2G11010   3.387   5.592   9.669
  107OSM    C3F11011   3.480   5.754   9.555
  107OSM    H3F11012   3.590   5.746   9.560
  107OSM    H3G11013   3.455   5.862   9.544
  107OSM    C4F11014   3.438   5.678   9.430
  107OSM    H4F11015   3.327   5.674   9.426
  107OSM    H4G11016   3.475   5.573   9.436
  107OSM    C5F11017   3.491   5.743   9.302
  107OSM    H5F11018   3.602   5.756   9.306
  107OSM    H5G11019   3.448   5.846   9.295
  107OSM    C6F11020   3.451   5.663   9.179
  107OSM    H6F11021   3.349   5.625   9.198
  107OSM    H6G11022   3.516   5.573   9.165
  107OSM    C7F11023   3.443   5.748   9.053
  107OSM    H7F11024   3.403   5.848   9.082
  107OSM    H7G11025   3.369   5.698   8.986
  107OSM    C8F11026   3.569   5.780   8.974
  107OSM    H8F11027   3.651   5.810   9.044
  107OSM    H8G11028   3.549   5.867   8.908
  107OSM    C9F11029   3.602   5.657   8.897
  107OSM    H9F11030   3.628   5.573   8.962
  107OSM   C10F11031   3.590   5.635   8.765
  107OSM   H10F11032   3.622   5.537   8.726
  107OSM   C11F11033   3.539   5.729   8.660
  107OSM   H11F11034   3.611   5.737   8.575
  107OSM   H11G11035   3.522   5.832   8.698
  107OSM   C12F11036   3.406   5.670   8.611
  107OSM   H12F11037   3.334   5.675   8.696
  107OSM   H12G11038   3.417   5.562   8.584
  107OSM   C13F11039   3.346   5.743   8.491
  107OSM   H13F11040   3.360   5.852   8.506
  107OSM   H13G11041   3.237   5.722   8.486
  107OSM   C14F11042   3.410   5.702   8.359
  107OSM   H14F11043   3.394   5.594   8.342
  107OSM   H14G11044   3.520   5.719   8.366
  107OSM   C15F11045   3.355   5.783   8.241
  107OSM   H15F11046   3.369   5.891   8.265
  107OSM   H15G11047   3.246   5.765   8.230
  107OSM   C16F11048   3.427   5.753   8.109
  107OSM   H16F11049   3.537   5.765   8.124
  107OSM   H16G11050   3.395   5.826   8.032
  107OSM   C17F11051   3.403   5.610   8.058
  107OSM   H17F11052   3.295   5.599   8.035
  107OSM   H17G11053   3.428   5.537   8.137
  107OSM   C18F11054   3.486   5.579   7.934
  107OSM   H18F11055   3.463   5.651   7.853
  107OSM   H18G11056   3.464   5.476   7.897
  107OSM   H18H11057   3.594   5.585   7.957
  108OSM      N11058   1.799   2.905  10.270
  108OSM    C1511059   1.859   3.024  10.199
  108OSM   H15A11060   1.947   2.997  10.143
  108OSM   H15B11061   1.886   3.102  10.268
  108OSM   H15C11062   1.788   3.064  10.128
  108OSM    C1411063   1.779   2.795  10.170
  108OSM   H14A11064   1.868   2.773  10.113
  108OSM   H14B11065   1.702   2.826  10.101
  108OSM   H14C11066   1.746   2.704  10.218
  108OSM    C1311067   1.890   2.859  10.380
  108OSM   H13A11068   1.981   2.815  10.342
  108OSM   H13B11069   1.842   2.784  10.442
  108OSM   H13C11070   1.919   2.942  10.443
  108OSM    C1211071   1.664   2.946  10.328
  108OSM   H12A11072   1.680   3.011  10.413
  108OSM   H12B11073   1.613   2.859  10.365
  108OSM    C1111074   1.566   3.019  10.233
  108OSM   H11A11075   1.609   3.117  10.202
  108OSM   H11B11076   1.474   3.039  10.291
  108OSM      P11077   1.426   2.992  10.020
  108OSM    O1311078   1.295   2.956  10.078
  108OSM    O1411079   1.452   3.135   9.993
  108OSM    O1111080   1.450   2.904   9.892
  108OSM    O1211081   1.537   2.938  10.119
  108OSM    C1S11082   1.548   2.940   9.795
  108OSM    H1S11083   1.649   2.910   9.830
  108OSM    H1T11084   1.552   3.050   9.776
  108OSM     NF11085   1.437   2.952   9.576
  108OSM    HNF11086   1.339   2.955   9.594
  108OSM    C2S11087   1.521   2.869   9.659
  108OSM    H2S11088   1.621   2.858   9.613
  108OSM    C3S11089   1.459   2.728   9.678
  108OSM    H3S11090   1.351   2.737   9.704
  108OSM     O311091   1.519   2.654   9.785
  108OSM    HO311092   1.574   2.719   9.828
  108OSM    C4S11093   1.469   2.648   9.549
  108OSM    H4S11094   1.386   2.577   9.535
  108OSM    C5S11095   1.566   2.653   9.454
  108OSM    H5S11096   1.649   2.725   9.465
  108OSM    C6S11097   1.575   2.571   9.328
  108OSM    H6S11098   1.543   2.466   9.348
  108OSM    H6T11099   1.681   2.565   9.295
  108OSM    C7S11100   1.492   2.626   9.211
  108OSM    H7S11101   1.384   2.621   9.239
  108OSM    H7T11102   1.507   2.561   9.123
  108OSM    C8S11103   1.524   2.771   9.172
  108OSM    H8S11104   1.515   2.838   9.260
  108OSM    H8T11105   1.446   2.802   9.099
  108OSM    C9S11106   1.662   2.794   9.107
  108OSM    H9S11107   1.678   2.719   9.026
  108OSM    H9T11108   1.742   2.779   9.183
  108OSM   C10S11109   1.674   2.935   9.047
  108OSM   H10S11110   1.653   3.010   9.127
  108OSM   H10T11111   1.596   2.947   8.969
  108OSM   C11S11112   1.811   2.967   8.986
  108OSM   H11S11113   1.859   2.870   8.963
  108OSM   H11T11114   1.875   3.018   9.062
  108OSM   C12S11115   1.807   3.050   8.857
  108OSM   H12S11116   1.911   3.081   8.831
  108OSM   H12T11117   1.746   3.141   8.874
  108OSM   C13S11118   1.751   2.971   8.737
  108OSM   H13S11119   1.647   2.940   8.761
  108OSM   H13T11120   1.811   2.878   8.725
  108OSM   C14S11121   1.748   3.044   8.603
  108OSM   H14S11122   1.725   2.969   8.525
  108OSM   H14T11123   1.849   3.086   8.582
  108OSM   C15S11124   1.640   3.152   8.591
  108OSM   H15S11125   1.659   3.230   8.667
  108OSM   H15T11126   1.541   3.105   8.614
  108OSM   C16S11127   1.626   3.216   8.451
  108OSM   H16S11128   1.584   3.318   8.464
  108OSM   H16T11129   1.554   3.158   8.389
  108OSM   C17S11130   1.757   3.227   8.372
  108OSM   H17S11131   1.780   3.128   8.327
  108OSM   H17T11132   1.839   3.253   8.442
  108OSM   C18S11133   1.750   3.332   8.261
  108OSM   H18S11134   1.850   3.347   8.215
  108OSM   H18T11135   1.714   3.429   8.301
  108OSM   H18U11136   1.680   3.298   8.183
  108OSM    C1F11137   1.492   3.051   9.508
  108OSM     OF11138   1.613   3.070   9.514
  108OSM    C2F11139   1.401   3.138   9.427
  108OSM    H2F11140   1.431   3.244   9.443
  108OSM    H2G11141   1.296   3.126   9.461
  108OSM    C3F11142   1.413   3.105   9.278
  108OSM    H3F11143   1.371   3.004   9.258
  108OSM    H3G11144   1.520   3.104   9.249
  108OSM    C4F11145   1.342   3.209   9.190
  108OSM    H4F11146   1.365   3.310   9.228
  108OSM    H4G11147   1.232   3.192   9.200
  108OSM    C5F11148   1.383   3.200   9.043
  108OSM    H5F11149   1.493   3.210   9.035
  108OSM    H5G11150   1.338   3.286   8.988
  108OSM    C6F11151   1.338   3.070   8.977
  108OSM    H6F11152   1.228   3.057   8.988
  108OSM    H6G11153   1.386   2.984   9.029
  108OSM    C7F11154   1.376   3.068   8.830
  108OSM    H7F11155   1.485   3.087   8.819
  108OSM    H7G11156   1.324   3.153   8.781
  108OSM    C8F11157   1.335   2.940   8.756
  108OSM    H8F11158   1.331   2.966   8.648
  108OSM    H8G11159   1.230   2.918   8.786
  108OSM    C9F11160   1.423   2.820   8.781
  108OSM    H9F11161   1.442   2.796   8.887
  108OSM   C10F11162   1.480   2.743   8.686
  108OSM   H10F11163   1.546   2.660   8.715
  108OSM   C11F11164   1.464   2.766   8.538
  108OSM   H11F11165   1.534   2.844   8.502
  108OSM   H11G11166   1.363   2.807   8.518
  108OSM   C12F11167   1.476   2.640   8.450
  108OSM   H12F11168   1.431   2.663   8.351
  108OSM   H12G11169   1.416   2.557   8.493
  108OSM   C13F11170   1.618   2.590   8.421
  108OSM   H13F11171   1.621   2.550   8.318
  108OSM   H13G11172   1.635   2.505   8.490
  108OSM   C14F11173   1.734   2.690   8.439
  108OSM   H14F11174   1.827   2.630   8.441
  108OSM   H14G11175   1.728   2.742   8.537
  108OSM   C15F11176   1.759   2.788   8.325
  108OSM   H15F11177   1.678   2.864   8.319
  108OSM   H15G11178   1.758   2.729   8.231
  108OSM   C16F11179   1.896   2.858   8.339
  108OSM   H16F11180   1.964   2.797   8.403
  108OSM   H16G11181   1.883   2.956   8.391
  108OSM   C17F11182   1.964   2.881   8.205
  108OSM   H17F11183   1.887   2.870   8.125
  108OSM   H17G11184   2.038   2.799   8.190
  108OSM   C18F11185   2.032   3.018   8.186
  108OSM   H18F11186   1.972   3.099   8.232
  108OSM   H18G11187   2.044   3.040   8.078
  108OSM   H18H11188   2.134   3.020   8.231
  109OSM      N11189   1.493   4.001  10.150
  109OSM    C1511190   1.462   3.856  10.129
  109OSM   H15A11191   1.540   3.790  10.162
  109OSM   H15B11192   1.440   3.833  10.026
  109OSM   H15C11193   1.372   3.827  10.182
  109OSM    C1411194   1.368   4.079  10.121
  109OSM   H14A11195   1.331   4.061  10.021
  109OSM   H14B11196   1.386   4.186  10.129
  109OSM   H14C11197   1.289   4.054  10.191
  109OSM    C1311198   1.528   4.027  10.293
  109OSM   H13A11199   1.444   4.005  10.358
  109OSM   H13B11200   1.551   4.132  10.303
  109OSM   H13C11201   1.614   3.970  10.325
  109OSM    C1211202   1.603   4.049  10.056
  109OSM   H12A11203   1.555   4.082   9.965
  109OSM   H12B11204   1.665   3.965  10.028
  109OSM    C1111205   1.696   4.164  10.103
  109OSM   H11A11206   1.760   4.197  10.018
  109OSM   H11B11207   1.766   4.124  10.180
  109OSM      P11208   1.564   4.396  10.083
  109OSM    O1311209   1.417   4.375  10.086
  109OSM    O1411210   1.618   4.512  10.155
  109OSM    O1111211   1.624   4.383   9.935
  109OSM    O1211212   1.625   4.272  10.160
  109OSM    C1S11213   1.559   4.302   9.836
  109OSM    H1S11214   1.449   4.301   9.852
  109OSM    H1T11215   1.596   4.198   9.840
  109OSM     NF11216   1.504   4.270   9.597
  109OSM    HNF11217   1.552   4.216   9.528
  109OSM    C2S11218   1.586   4.348   9.688
  109OSM    H2S11219   1.556   4.455   9.677
  109OSM    C3S11220   1.739   4.337   9.657
  109OSM    H3S11221   1.772   4.235   9.686
  109OSM     O311222   1.817   4.429   9.732
  109OSM    HO311223   1.760   4.457   9.803
  109OSM    C4S11224   1.768   4.357   9.509
  109OSM    H4S11225   1.709   4.436   9.459
  109OSM    C5S11226   1.859   4.287   9.437
  109OSM    H5S11227   1.916   4.210   9.492
  109OSM    C6S11228   1.900   4.294   9.291
  109OSM    H6S11229   1.934   4.194   9.260
  109OSM    H6T11230   1.991   4.358   9.285
  109OSM    C7S11231   1.806   4.342   9.177
  109OSM    H7S11232   1.854   4.315   9.080
  109OSM    H7T11233   1.803   4.453   9.179
  109OSM    C8S11234   1.665   4.282   9.178
  109OSM    H8S11235   1.625   4.286   9.282
  109OSM    H8T11236   1.669   4.175   9.148
  109OSM    C9S11237   1.563   4.357   9.089
  109OSM    H9S11238   1.557   4.463   9.120
  109OSM    H9T11239   1.463   4.313   9.106
  109OSM   C10S11240   1.591   4.351   8.938
  109OSM   H10S11241   1.593   4.245   8.906
  109OSM   H10T11242   1.690   4.395   8.914
  109OSM   C11S11243   1.482   4.425   8.858
  109OSM   H11S11244   1.494   4.535   8.871
  109OSM   H11T11245   1.382   4.397   8.897
  109OSM   C12S11246   1.486   4.389   8.709
  109OSM   H12S11247   1.458   4.282   8.702
  109OSM   H12T11248   1.590   4.402   8.671
  109OSM   C13S11249   1.389   4.466   8.619
  109OSM   H13S11250   1.408   4.574   8.634
  109OSM   H13T11251   1.285   4.442   8.652
  109OSM   C14S11252   1.399   4.438   8.468
  109OSM   H14S11253   1.373   4.333   8.446
  109OSM   H14T11254   1.504   4.454   8.434
  109OSM   C15S11255   1.306   4.530   8.388
  109OSM   H15S11256   1.322   4.636   8.420
  109OSM   H15T11257   1.202   4.502   8.414
  109OSM   C16S11258   1.319   4.521   8.236
  109OSM   H16S11259   1.236   4.580   8.192
  109OSM   H16T11260   1.303   4.416   8.205
  109OSM   C17S11261   1.450   4.577   8.179
  109OSM   H17S11262   1.524   4.495   8.173
  109OSM   H17T11263   1.489   4.653   8.249
  109OSM   C18S11264   1.432   4.642   8.041
  109OSM   H18S11265   1.369   4.734   8.049
  109OSM   H18T11266   1.380   4.572   7.972
  109OSM   H18U11267   1.530   4.669   7.997
  109OSM    C1F11268   1.370   4.276   9.595
  109OSM     OF11269   1.304   4.335   9.679
  109OSM    C2F11270   1.302   4.204   9.485
  109OSM    H2F11271   1.198   4.180   9.516
  109OSM    H2G11272   1.357   4.109   9.466
  109OSM    C3F11273   1.300   4.293   9.360
  109OSM    H3F11274   1.404   4.315   9.328
  109OSM    H3G11275   1.251   4.390   9.381
  109OSM    C4F11276   1.227   4.227   9.243
  109OSM    H4F11277   1.248   4.285   9.151
  109OSM    H4G11278   1.117   4.228   9.260
  109OSM    C5F11279   1.274   4.083   9.223
  109OSM    H5F11280   1.223   4.017   9.297
  109OSM    H5G11281   1.383   4.076   9.241
  109OSM    C6F11282   1.245   4.034   9.082
  109OSM    H6F11283   1.164   4.095   9.036
  109OSM    H6G11284   1.208   3.929   9.088
  109OSM    C7F11285   1.371   4.036   8.997
  109OSM    H7F11286   1.451   3.982   9.051
  109OSM    H7G11287   1.407   4.140   8.980
  109OSM    C8F11288   1.347   3.966   8.864
  109OSM    H8F11289   1.296   3.870   8.888
  109OSM    H8G11290   1.445   3.936   8.821
  109OSM    C9F11291   1.263   4.051   8.772
  109OSM    H9F11292   1.176   4.100   8.817
  109OSM   C10F11293   1.286   4.066   8.640
  109OSM   H10F11294   1.221   4.129   8.579
  109OSM   C11F11295   1.399   3.997   8.571
  109OSM   H11F11296   1.384   3.996   8.461
  109OSM   H11G11297   1.400   3.890   8.600
  109OSM   C12F11298   1.536   4.055   8.614
  109OSM   H12F11299   1.602   3.967   8.626
  109OSM   H12G11300   1.534   4.100   8.716
  109OSM   C13F11301   1.605   4.151   8.517
  109OSM   H13F11302   1.711   4.164   8.547
  109OSM   H13G11303   1.560   4.253   8.517
  109OSM   C14F11304   1.595   4.102   8.374
  109OSM   H14F11305   1.494   4.124   8.333
  109OSM   H14G11306   1.606   3.992   8.379
  109OSM   C15F11307   1.700   4.157   8.280
  109OSM   H15F11308   1.801   4.131   8.317
  109OSM   H15G11309   1.692   4.268   8.272
  109OSM   C16F11310   1.674   4.091   8.147
  109OSM   H16F11311   1.572   4.120   8.114
  109OSM   H16G11312   1.670   3.981   8.161
  109OSM   C17F11313   1.775   4.120   8.038
  109OSM   H17F11314   1.876   4.091   8.074
  109OSM   H17G11315   1.776   4.229   8.015
  109OSM   C18F11316   1.743   4.039   7.914
  109OSM   H18F11317   1.819   3.960   7.897
  109OSM   H18G11318   1.736   4.104   7.824
  109OSM   H18H11319   1.645   3.987   7.925
  110OSM      N11320   2.026   5.026  10.167
  110OSM    C1511321   2.012   5.057  10.021
  110OSM   H15A11322   2.055   5.153   9.996
  110OSM   H15B11323   1.907   5.058   9.993
  110OSM   H15C11324   2.058   4.983   9.958
  110OSM    C1411325   2.172   5.017  10.198
  110OSM   H14A11326   2.190   5.004  10.304
  110OSM   H14B11327   2.220   5.109  10.170
  110OSM   H14C11328   2.220   4.938  10.141
  110OSM    C1311329   1.971   5.144  10.243
  110OSM   H13A11330   1.976   5.131  10.350
  110OSM   H13B11331   1.869   5.161  10.214
  110OSM   H13C11332   2.026   5.233  10.217
  110OSM    C1211333   1.947   4.900  10.200
  110OSM   H12A11334   1.976   4.864  10.298
  110OSM   H12B11335   1.972   4.825  10.127
  110OSM    C1111336   1.791   4.907  10.200
  110OSM   H11A11337   1.757   4.975  10.281
  110OSM   H11B11338   1.754   4.805  10.224
  110OSM      P11339   1.596   4.914  10.025
  110OSM    O1311340   1.594   4.778   9.969
  110OSM    O1411341   1.496   4.944  10.131
  110OSM    O1111342   1.569   5.017   9.909
  110OSM    O1211343   1.742   4.953  10.075
  110OSM    C1S11344   1.504   4.973   9.789
  110OSM    H1S11345   1.464   5.061   9.735
  110OSM    H1T11346   1.417   4.908   9.815
  110OSM     NF11347   1.665   4.985   9.601
  110OSM    HNF11348   1.634   4.994   9.506
  110OSM    C2S11349   1.594   4.894   9.688
  110OSM    H2S11350   1.669   4.832   9.742
  110OSM    C3S11351   1.498   4.799   9.613
  110OSM    H3S11352   1.401   4.852   9.600
  110OSM     O311353   1.473   4.679   9.685
  110OSM    HO311354   1.514   4.690   9.771
  110OSM    C4S11355   1.549   4.765   9.474
  110OSM    H4S11356   1.484   4.802   9.394
  110OSM    C5S11357   1.658   4.694   9.441
  110OSM    H5S11358   1.722   4.654   9.521
  110OSM    C6S11359   1.703   4.664   9.300
  110OSM    H6S11360   1.669   4.560   9.278
  110OSM    H6T11361   1.814   4.663   9.296
  110OSM    C7S11362   1.654   4.752   9.183
  110OSM    H7S11363   1.679   4.858   9.201
  110OSM    H7T11364   1.543   4.743   9.175
  110OSM    C8S11365   1.715   4.709   9.048
  110OSM    H8S11366   1.704   4.599   9.036
  110OSM    H8T11367   1.824   4.731   9.047
  110OSM    C9S11368   1.648   4.777   8.928
  110OSM    H9S11369   1.663   4.887   8.932
  110OSM    H9T11370   1.539   4.757   8.933
  110OSM   C10S11371   1.700   4.724   8.793
  110OSM   H10S11372   1.701   4.613   8.795
  110OSM   H10T11373   1.805   4.758   8.776
  110OSM   C11S11374   1.611   4.770   8.677
  110OSM   H11S11375   1.621   4.879   8.663
  110OSM   H11T11376   1.505   4.750   8.704
  110OSM   C12S11377   1.640   4.698   8.544
  110OSM   H12S11378   1.562   4.728   8.472
  110OSM   H12T11379   1.633   4.588   8.557
  110OSM   C13S11380   1.777   4.731   8.486
  110OSM   H13S11381   1.857   4.678   8.541
  110OSM   H13T11382   1.794   4.841   8.497
  110OSM   C14S11383   1.785   4.697   8.336
  110OSM   H14S11384   1.695   4.743   8.289
  110OSM   H14T11385   1.779   4.588   8.319
  110OSM   C15S11386   1.910   4.756   8.270
  110OSM   H15S11387   1.996   4.687   8.279
  110OSM   H15T11388   1.936   4.849   8.326
  110OSM   C16S11389   1.885   4.796   8.124
  110OSM   H16S11390   1.776   4.806   8.108
  110OSM   H16T11391   1.921   4.717   8.055
  110OSM   C17S11392   1.946   4.932   8.090
  110OSM   H17S11393   2.057   4.924   8.085
  110OSM   H17T11394   1.922   5.004   8.171
  110OSM   C18S11395   1.890   4.986   7.960
  110OSM   H18S11396   1.780   4.973   7.957
  110OSM   H18T11397   1.934   4.933   7.873
  110OSM   H18U11398   1.911   5.095   7.951
  110OSM    C1F11399   1.779   5.041   9.639
  110OSM     OF11400   1.816   5.044   9.755
  110OSM    C2F11401   1.861   5.096   9.529
  110OSM    H2F11402   1.891   5.199   9.560
  110OSM    H2G11403   1.801   5.104   9.436
  110OSM    C3F11404   1.985   5.007   9.504
  110OSM    H3F11405   2.044   4.995   9.597
  110OSM    H3G11406   2.051   5.059   9.432
  110OSM    C4F11407   1.955   4.872   9.439
  110OSM    H4F11408   1.861   4.878   9.382
  110OSM    H4G11409   1.943   4.795   9.519
  110OSM    C5F11410   2.067   4.830   9.342
  110OSM    H5F11411   2.068   4.719   9.331
  110OSM    H5G11412   2.165   4.860   9.385
  110OSM    C6F11413   2.050   4.893   9.203
  110OSM    H6F11414   2.043   5.003   9.215
  110OSM    H6G11415   1.955   4.859   9.156
  110OSM    C7F11416   2.167   4.861   9.110
  110OSM    H7F11417   2.146   4.761   9.067
  110OSM    H7G11418   2.259   4.854   9.172
  110OSM    C8F11419   2.195   4.962   8.996
  110OSM    H8F11420   2.305   4.963   8.980
  110OSM    H8G11421   2.168   5.064   9.030
  110OSM    C9F11422   2.130   4.924   8.865
  110OSM    H9F11423   2.135   4.817   8.841
  110OSM   C10F11424   2.070   5.006   8.778
  110OSM   H10F11425   2.028   4.963   8.686
  110OSM   C11F11426   2.053   5.155   8.791
  110OSM   H11F11427   2.098   5.206   8.704
  110OSM   H11G11428   2.103   5.196   8.881
  110OSM   C12F11429   1.904   5.193   8.797
  110OSM   H12F11430   1.897   5.304   8.804
  110OSM   H12G11431   1.855   5.150   8.887
  110OSM   C13F11432   1.829   5.148   8.671
  110OSM   H13F11433   1.806   5.040   8.678
  110OSM   H13G11434   1.898   5.164   8.585
  110OSM   C14F11435   1.701   5.227   8.644
  110OSM   H14F11436   1.727   5.332   8.620
  110OSM   H14G11437   1.637   5.228   8.734
  110OSM   C15F11438   1.621   5.167   8.527
  110OSM   H15F11439   1.536   5.235   8.504
  110OSM   H15G11440   1.578   5.070   8.561
  110OSM   C16F11441   1.703   5.140   8.400
  110OSM   H16F11442   1.798   5.087   8.423
  110OSM   H16G11443   1.729   5.237   8.353
  110OSM   C17F11444   1.629   5.051   8.299
  110OSM   H17F11445   1.619   4.949   8.343
  110OSM   H17G11446   1.690   5.042   8.207
  110OSM   C18F11447   1.490   5.102   8.265
  110OSM   H18F11448   1.438   5.034   8.195
  110OSM   H18G11449   1.499   5.203   8.218
  110OSM   H18H11450   1.428   5.112   8.356
  111OSM      N11451   4.120   1.199  10.213
  111OSM    C1511452   4.039   1.116  10.117
  111OSM   H15A11453   3.967   1.180  10.068
  111OSM   H15B11454   3.984   1.039  10.169
  111OSM   H15C11455   4.101   1.071  10.041
  111OSM    C1411456   4.023   1.260  10.310
  111OSM   H14A11457   3.958   1.185  10.354
  111OSM   H14B11458   3.959   1.329  10.257
  111OSM   H14C11459   4.071   1.316  10.388
  111OSM    C1311460   4.219   1.112  10.285
  111OSM   H13A11461   4.288   1.067  10.216
  111OSM   H13B11462   4.168   1.033  10.337
  111OSM   H13C11463   4.275   1.169  10.358
  111OSM    C1211464   4.190   1.311  10.137
  111OSM   H12A11465   4.280   1.274  10.091
  111OSM   H12B11466   4.220   1.387  10.209
  111OSM    C1111467   4.108   1.385  10.027
  111OSM   H11A11468   4.092   1.315   9.942
  111OSM   H11B11469   4.168   1.470   9.990
  111OSM      P11470   3.856   1.463   9.999
  111OSM    O1311471   3.743   1.409  10.077
  111OSM    O1411472   3.852   1.606   9.964
  111OSM    O1111473   3.875   1.376   9.866
  111OSM    O1211474   3.987   1.433  10.081
  111OSM    C1S11475   3.811   1.420   9.744
  111OSM    H1S11476   3.831   1.529   9.728
  111OSM    H1T11477   3.701   1.405   9.750
  111OSM     NF11478   3.825   1.399   9.490
  111OSM    HNF11479   3.768   1.342   9.432
  111OSM    C2S11480   3.865   1.341   9.620
  111OSM    H2S11481   3.976   1.345   9.625
  111OSM    C3S11482   3.820   1.193   9.633
  111OSM    H3S11483   3.709   1.189   9.624
  111OSM     O311484   3.851   1.133   9.759
  111OSM    HO311485   3.869   1.210   9.815
  111OSM    C4S11486   3.882   1.109   9.525
  111OSM    H4S11487   3.990   1.092   9.537
  111OSM    C5S11488   3.818   1.053   9.421
  111OSM    H5S11489   3.709   1.067   9.410
  111OSM    C6S11490   3.884   0.970   9.313
  111OSM    H6S11491   3.816   0.887   9.283
  111OSM    H6T11492   3.978   0.924   9.350
  111OSM    C7S11493   3.915   1.050   9.186
  111OSM    H7S11494   3.972   0.985   9.116
  111OSM    H7T11495   3.980   1.137   9.210
  111OSM    C8S11496   3.789   1.097   9.115
  111OSM    H8S11497   3.732   1.164   9.183
  111OSM    H8T11498   3.724   1.010   9.091
  111OSM    C9S11499   3.818   1.177   8.987
  111OSM    H9S11500   3.922   1.216   8.992
  111OSM    H9T11501   3.752   1.267   8.988
  111OSM   C10S11502   3.795   1.102   8.854
  111OSM   H10S11503   3.722   1.020   8.869
  111OSM   H10T11504   3.891   1.058   8.819
  111OSM   C11S11505   3.740   1.200   8.750
  111OSM   H11S11506   3.814   1.281   8.740
  111OSM   H11T11507   3.649   1.248   8.792
  111OSM   C12S11508   3.703   1.148   8.610
  111OSM   H12S11509   3.646   1.229   8.561
  111OSM   H12T11510   3.635   1.060   8.617
  111OSM   C13S11511   3.822   1.114   8.521
  111OSM   H13S11512   3.831   1.004   8.510
  111OSM   H13T11513   3.916   1.148   8.570
  111OSM   C14S11514   3.814   1.181   8.383
  111OSM   H14S11515   3.791   1.289   8.392
  111OSM   H14T11516   3.730   1.135   8.327
  111OSM   C15S11517   3.945   1.164   8.307
  111OSM   H15S11518   3.985   1.062   8.329
  111OSM   H15T11519   4.019   1.237   8.347
  111OSM   C16S11520   3.933   1.177   8.155
  111OSM   H16S11521   3.914   1.283   8.128
  111OSM   H16T11522   3.846   1.117   8.120
  111OSM   C17S11523   4.059   1.125   8.085
  111OSM   H17S11524   4.045   1.136   7.975
  111OSM   H17T11525   4.069   1.017   8.106
  111OSM   C18S11526   4.188   1.196   8.128
  111OSM   H18S11527   4.181   1.304   8.106
  111OSM   H18T11528   4.276   1.154   8.075
  111OSM   H18U11529   4.205   1.184   8.237
  111OSM    C1F11530   3.865   1.520   9.448
  111OSM     OF11531   3.928   1.594   9.523
  111OSM    C2F11532   3.824   1.570   9.312
  111OSM    H2F11533   3.749   1.650   9.329
  111OSM    H2G11534   3.776   1.487   9.254
  111OSM    C3F11535   3.940   1.632   9.230
  111OSM    H3F11536   3.997   1.549   9.183
  111OSM    H3G11537   4.009   1.687   9.298
  111OSM    C4F11538   3.898   1.732   9.121
  111OSM    H4F11539   3.837   1.810   9.171
  111OSM    H4G11540   3.833   1.681   9.046
  111OSM    C5F11541   4.013   1.805   9.047
  111OSM    H5F11542   4.088   1.843   9.120
  111OSM    H5G11543   3.969   1.893   8.994
  111OSM    C6F11544   4.081   1.719   8.939
  111OSM    H6F11545   3.995   1.661   8.898
  111OSM    H6G11546   4.152   1.649   8.987
  111OSM    C7F11547   4.147   1.786   8.815
  111OSM    H7F11548   4.159   1.894   8.836
  111OSM    H7G11549   4.072   1.791   8.733
  111OSM    C8F11550   4.282   1.730   8.756
  111OSM    H8F11551   4.362   1.773   8.821
  111OSM    H8G11552   4.297   1.781   8.659
  111OSM    C9F11553   4.323   1.585   8.741
  111OSM    H9F11554   4.363   1.545   8.836
  111OSM   C10F11555   4.335   1.502   8.636
  111OSM   H10F11556   4.370   1.400   8.657
  111OSM   C11F11557   4.310   1.521   8.488
  111OSM   H11F11558   4.299   1.422   8.439
  111OSM   H11G11559   4.407   1.562   8.453
  111OSM   C12F11560   4.195   1.610   8.435
  111OSM   H12F11561   4.190   1.701   8.498
  111OSM   H12G11562   4.100   1.553   8.444
  111OSM   C13F11563   4.205   1.655   8.289
  111OSM   H13F11564   4.243   1.572   8.226
  111OSM   H13G11565   4.275   1.741   8.282
  111OSM   C14F11566   4.071   1.693   8.224
  111OSM   H14F11567   4.095   1.758   8.137
  111OSM   H14G11568   4.009   1.756   8.291
  111OSM   C15F11569   3.994   1.569   8.177
  111OSM   H15F11570   3.929   1.531   8.259
  111OSM   H15G11571   4.067   1.487   8.156
  111OSM   C16F11572   3.912   1.589   8.049
  111OSM   H16F11573   3.825   1.655   8.070
  111OSM   H16G11574   3.872   1.490   8.019
  111OSM   C17F11575   3.992   1.647   7.932
  111OSM   H17F11576   3.992   1.758   7.941
  111OSM   H17G11577   3.935   1.624   7.839
  111OSM   C18F11578   4.137   1.599   7.916
  111OSM   H18F11579   4.173   1.619   7.813
  111OSM   H18G11580   4.146   1.490   7.937
  111OSM   H18H11581   4.205   1.652   7.986
  112OSM      N11582   2.221   5.642  10.318
  112OSM    C1511583   2.147   5.772  10.331
  112OSM   H15A11584   2.205   5.844  10.387
  112OSM   H15B11585   2.050   5.761  10.376
  112OSM   H15C11586   2.135   5.815  10.233
  112OSM    C1411587   2.351   5.673  10.250
  112OSM   H14A11588   2.330   5.709  10.151
  112OSM   H14B11589   2.413   5.585  10.237
  112OSM   H14C11590   2.407   5.750  10.302
  112OSM    C1311591   2.251   5.583  10.452
  112OSM   H13A11592   2.160   5.555  10.503
  112OSM   H13B11593   2.305   5.654  10.513
  112OSM   H13C11594   2.315   5.497  10.440
  112OSM    C1211595   2.141   5.545  10.233
  112OSM   H12A11596   2.047   5.523  10.281
  112OSM   H12B11597   2.196   5.453  10.224
  112OSM    C1111598   2.112   5.587  10.087
  112OSM   H11A11599   2.069   5.689  10.083
  112OSM   H11B11600   2.037   5.519  10.041
  112OSM      P11601   2.301   5.448   9.973
  112OSM    O1311602   2.445   5.471   9.955
  112OSM    O1411603   2.259   5.344  10.071
  112OSM    O1111604   2.232   5.418   9.835
  112OSM    O1211605   2.233   5.586  10.012
  112OSM    C1S11606   2.167   5.518   9.756
  112OSM    H1S11607   2.210   5.619   9.769
  112OSM    H1T11608   2.059   5.523   9.783
  112OSM     NF11609   2.084   5.563   9.529
  112OSM    HNF11610   1.996   5.523   9.507
  112OSM    C2S11611   2.177   5.482   9.605
  112OSM    H2S11612   2.281   5.503   9.572
  112OSM    C3S11613   2.149   5.331   9.584
  112OSM    H3S11614   2.051   5.306   9.630
  112OSM     O311615   2.245   5.244   9.642
  112OSM    HO311616   2.278   5.296   9.716
  112OSM    C4S11617   2.146   5.296   9.437
  112OSM    H4S11618   2.240   5.252   9.399
  112OSM    C5S11619   2.039   5.305   9.356
  112OSM    H5S11620   1.944   5.344   9.395
  112OSM    C6S11621   2.035   5.262   9.212
  112OSM    H6S11622   1.951   5.190   9.205
  112OSM    H6T11623   2.126   5.203   9.186
  112OSM    C7S11624   2.008   5.365   9.102
  112OSM    H7S11625   1.929   5.436   9.134
  112OSM    H7T11626   1.964   5.307   9.018
  112OSM    C8S11627   2.129   5.440   9.045
  112OSM    H8S11628   2.128   5.544   9.082
  112OSM    H8T11629   2.116   5.445   8.935
  112OSM    C9S11630   2.269   5.384   9.073
  112OSM    H9S11631   2.281   5.286   9.023
  112OSM    H9T11632   2.282   5.368   9.182
  112OSM   C10S11633   2.379   5.482   9.027
  112OSM   H10S11634   2.479   5.436   9.048
  112OSM   H10T11635   2.372   5.573   9.090
  112OSM   C11S11636   2.371   5.526   8.880
  112OSM   H11S11637   2.457   5.593   8.858
  112OSM   H11T11638   2.279   5.587   8.866
  112OSM   C12S11639   2.369   5.412   8.777
  112OSM   H12S11640   2.298   5.333   8.808
  112OSM   H12T11641   2.470   5.366   8.772
  112OSM   C13S11642   2.327   5.460   8.637
  112OSM   H13S11643   2.385   5.551   8.611
  112OSM   H13T11644   2.219   5.488   8.640
  112OSM   C14S11645   2.349   5.353   8.529
  112OSM   H14S11646   2.293   5.261   8.554
  112OSM   H14T11647   2.457   5.329   8.528
  112OSM   C15S11648   2.309   5.400   8.388
  112OSM   H15S11649   2.374   5.349   8.314
  112OSM   H15T11650   2.328   5.509   8.378
  112OSM   C16S11651   2.163   5.369   8.351
  112OSM   H16S11652   2.097   5.414   8.429
  112OSM   H16T11653   2.146   5.260   8.352
  112OSM   C17S11654   2.122   5.426   8.214
  112OSM   H17S11655   2.143   5.535   8.217
  112OSM   H17T11656   2.012   5.414   8.202
  112OSM   C18S11657   2.191   5.365   8.093
  112OSM   H18S11658   2.170   5.256   8.086
  112OSM   H18T11659   2.302   5.379   8.099
  112OSM   H18U11660   2.156   5.414   8.000
  112OSM    C1F11661   2.120   5.676   9.471
  112OSM     OF11662   2.196   5.756   9.523
  112OSM    C2F11663   2.071   5.686   9.331
  112OSM    H2F11664   1.962   5.662   9.329
  112OSM    H2G11665   2.125   5.606   9.275
  112OSM    C3F11666   2.097   5.820   9.261
  112OSM    H3F11667   2.202   5.852   9.280
  112OSM    H3G11668   2.029   5.895   9.306
  112OSM    C4F11669   2.075   5.814   9.109
  112OSM    H4F11670   2.158   5.756   9.063
  112OSM    H4G11671   2.080   5.917   9.068
  112OSM    C5F11672   1.941   5.750   9.071
  112OSM    H5F11673   1.862   5.804   9.128
  112OSM    H5G11674   1.936   5.644   9.104
  112OSM    C6F11675   1.908   5.757   8.922
  112OSM    H6F11676   1.921   5.862   8.888
  112OSM    H6G11677   1.802   5.727   8.908
  112OSM    C7F11678   1.994   5.665   8.834
  112OSM    H7F11679   1.959   5.560   8.844
  112OSM    H7G11680   2.098   5.671   8.872
  112OSM    C8F11681   1.999   5.706   8.686
  112OSM    H8F11682   2.073   5.643   8.633
  112OSM    H8G11683   2.039   5.810   8.685
  112OSM    C9F11684   1.864   5.702   8.620
  112OSM    H9F11685   1.778   5.714   8.687
  112OSM   C10F11686   1.840   5.688   8.488
  112OSM   H10F11687   1.736   5.696   8.454
  112OSM   C11F11688   1.942   5.672   8.378
  112OSM   H11F11689   1.936   5.569   8.338
  112OSM   H11G11690   2.045   5.688   8.416
  112OSM   C12F11691   1.917   5.770   8.261
  112OSM   H12F11692   1.896   5.871   8.302
  112OSM   H12G11693   1.829   5.737   8.203
  112OSM   C13F11694   2.037   5.781   8.166
  112OSM   H13F11695   2.046   5.687   8.107
  112OSM   H13G11696   2.129   5.794   8.226
  112OSM   C14F11697   2.024   5.899   8.069
  112OSM   H14F11698   2.008   5.993   8.126
  112OSM   H14G11699   1.935   5.887   8.004
  112OSM   C15F11700   2.152   5.920   7.988
  112OSM   H15F11701   2.238   5.917   8.059
  112OSM   H15G11702   2.150   6.022   7.944
  112OSM   C16F11703   2.174   5.818   7.875
  112OSM   H16F11704   2.179   5.716   7.918
  112OSM   H16G11705   2.272   5.841   7.828
  112OSM   C17F11706   2.066   5.825   7.768
  112OSM   H17F11707   2.066   5.926   7.723
  112OSM   H17G11708   1.967   5.810   7.816
  112OSM   C18F11709   2.080   5.722   7.655
  112OSM   H18F11710   2.068   5.620   7.696
  112OSM   H18G11711   2.179   5.731   7.607
  112OSM   H18H11712   2.002   5.738   7.578
  113OSM      N11713   1.379   2.413  10.081
  113OSM    C1511714   1.520   2.372  10.109
  113OSM   H15A11715   1.584   2.395  10.025
  113OSM   H15B11716   1.524   2.265  10.128
  113OSM   H15C11717   1.559   2.422  10.196
  113OSM    C1411718   1.298   2.383  10.203
  113OSM   H14A11719   1.196   2.417  10.192
  113OSM   H14B11720   1.341   2.429  10.291
  113OSM   H14C11721   1.297   2.276  10.220
  113OSM    C1311722   1.373   2.561  10.055
  113OSM   H13A11723   1.271   2.594  10.041
  113OSM   H13B11724   1.429   2.590   9.967
  113OSM   H13C11725   1.411   2.618  10.139
  113OSM    C1211726   1.324   2.338   9.959
  113OSM   H12A11727   1.383   2.368   9.873
  113OSM   H12B11728   1.223   2.372   9.941
  113OSM    C1111729   1.318   2.183   9.962
  113OSM   H11A11730   1.417   2.142   9.992
  113OSM   H11B11731   1.300   2.147   9.859
  113OSM      P11732   1.229   2.032  10.159
  113OSM    O1311733   1.366   2.049  10.213
  113OSM    O1411734   1.119   2.048  10.256
  113OSM    O1111735   1.219   1.892  10.088
  113OSM    O1211736   1.210   2.139  10.044
  113OSM    C1S11737   1.117   1.834  10.006
  113OSM    H1S11738   1.019   1.885  10.021
  113OSM    H1T11739   1.103   1.728  10.038
  113OSM     NF11740   1.054   1.739   9.779
  113OSM    HNF11741   1.099   1.670   9.723
  113OSM    C2S11742   1.148   1.830   9.851
  113OSM    H2S11743   1.132   1.934   9.815
  113OSM    C3S11744   1.301   1.792   9.824
  113OSM    H3S11745   1.314   1.683   9.837
  113OSM     O311746   1.396   1.845   9.916
  113OSM    HO311747   1.342   1.874   9.990
  113OSM    C4S11748   1.358   1.840   9.690
  113OSM    H4S11749   1.358   1.950   9.680
  113OSM    C5S11750   1.415   1.766   9.592
  113OSM    H5S11751   1.424   1.657   9.607
  113OSM    C6S11752   1.479   1.814   9.461
  113OSM    H6S11753   1.548   1.734   9.426
  113OSM    H6T11754   1.543   1.901   9.483
  113OSM    C7S11755   1.398   1.852   9.334
  113OSM    H7S11756   1.338   1.942   9.359
  113OSM    H7T11757   1.332   1.768   9.306
  113OSM    C8S11758   1.485   1.884   9.210
  113OSM    H8S11759   1.533   1.791   9.174
  113OSM    H8T11760   1.564   1.955   9.242
  113OSM    C9S11761   1.412   1.950   9.089
  113OSM    H9S11762   1.489   1.999   9.026
  113OSM    H9T11763   1.346   2.031   9.127
  113OSM   C10S11764   1.331   1.854   9.000
  113OSM   H10S11765   1.227   1.892   8.991
  113OSM   H10T11766   1.325   1.755   9.049
  113OSM   C11S11767   1.383   1.835   8.855
  113OSM   H11S11768   1.313   1.767   8.803
  113OSM   H11T11769   1.483   1.786   8.857
  113OSM   C12S11770   1.392   1.965   8.773
  113OSM   H12S11771   1.484   2.020   8.802
  113OSM   H12T11772   1.304   2.029   8.797
  113OSM   C13S11773   1.394   1.943   8.620
  113OSM   H13S11774   1.293   1.910   8.588
  113OSM   H13T11775   1.466   1.863   8.593
  113OSM   C14S11776   1.432   2.072   8.544
  113OSM   H14S11777   1.542   2.077   8.533
  113OSM   H14T11778   1.401   2.159   8.606
  113OSM   C15S11779   1.365   2.089   8.406
  113OSM   H15S11780   1.394   2.189   8.366
  113OSM   H15T11781   1.255   2.088   8.417
  113OSM   C16S11782   1.402   1.982   8.303
  113OSM   H16S11783   1.371   1.883   8.342
  113OSM   H16T11784   1.513   1.982   8.291
  113OSM   C17S11785   1.336   2.002   8.165
  113OSM   H17S11786   1.226   1.994   8.177
  113OSM   H17T11787   1.366   1.919   8.097
  113OSM   C18S11788   1.371   2.133   8.094
  113OSM   H18S11789   1.335   2.221   8.152
  113OSM   H18T11790   1.322   2.137   7.994
  113OSM   H18U11791   1.480   2.142   8.079
  113OSM    C1F11792   0.918   1.747   9.766
  113OSM     OF11793   0.849   1.773   9.864
  113OSM    C2F11794   0.851   1.708   9.631
  113OSM    H2F11795   0.803   1.610   9.652
  113OSM    H2G11796   0.931   1.688   9.556
  113OSM    C3F11797   0.737   1.795   9.561
  113OSM    H3F11798   0.701   1.873   9.630
  113OSM    H3G11799   0.652   1.725   9.543
  113OSM    C4F11800   0.761   1.871   9.427
  113OSM    H4F11801   0.772   1.793   9.348
  113OSM    H4G11802   0.854   1.930   9.441
  113OSM    C5F11803   0.667   1.985   9.375
  113OSM    H5F11804   0.596   2.015   9.455
  113OSM    H5G11805   0.612   1.941   9.289
  113OSM    C6F11806   0.734   2.116   9.320
  113OSM    H6F11807   0.827   2.088   9.267
  113OSM    H6G11808   0.763   2.186   9.402
  113OSM    C7F11809   0.646   2.201   9.226
  113OSM    H7F11810   0.555   2.233   9.281
  113OSM    H7G11811   0.612   2.139   9.140
  113OSM    C8F11812   0.711   2.330   9.167
  113OSM    H8F11813   0.702   2.410   9.244
  113OSM    H8G11814   0.647   2.363   9.083
  113OSM    C9F11815   0.856   2.325   9.122
  113OSM    H9F11816   0.928   2.328   9.205
  113OSM   C10F11817   0.904   2.317   8.996
  113OSM   H10F11818   1.013   2.316   8.983
  113OSM   C11F11819   0.824   2.311   8.868
  113OSM   H11F11820   0.743   2.387   8.868
  113OSM   H11G11821   0.773   2.213   8.863
  113OSM   C12F11822   0.902   2.325   8.734
  113OSM   H12F11823   0.914   2.433   8.709
  113OSM   H12G11824   0.836   2.282   8.656
  113OSM   C13F11825   1.041   2.258   8.731
  113OSM   H13F11826   1.041   2.172   8.801
  113OSM   H13G11827   1.116   2.330   8.772
  113OSM   C14F11828   1.096   2.208   8.595
  113OSM   H14F11829   1.145   2.110   8.617
  113OSM   H14G11830   1.177   2.276   8.561
  113OSM   C15F11831   0.999   2.185   8.478
  113OSM   H15F11832   0.899   2.151   8.511
  113OSM   H15G11833   1.040   2.102   8.416
  113OSM   C16F11834   0.990   2.306   8.384
  113OSM   H16F11835   1.094   2.340   8.364
  113OSM   H16G11836   0.934   2.388   8.435
  113OSM   C17F11837   0.926   2.274   8.249
  113OSM   H17F11838   0.874   2.364   8.210
  113OSM   H17G11839   0.850   2.195   8.263
  113OSM   C18F11840   1.030   2.230   8.145
  113OSM   H18F11841   1.100   2.158   8.191
  113OSM   H18G11842   1.088   2.317   8.108
  113OSM   H18H11843   0.981   2.181   8.058
  114OSM      N11844   1.200   5.324  10.205
  114OSM    C1511845   1.271   5.290  10.332
  114OSM   H15A11846   1.351   5.361  10.348
  114OSM   H15B11847   1.317   5.192  10.328
  114OSM   H15C11848   1.205   5.294  10.418
  114OSM    C1411849   1.090   5.227  10.177
  114OSM   H14A11850   1.025   5.217  10.262
  114OSM   H14B11851   1.131   5.129  10.154
  114OSM   H14C11852   1.033   5.259  10.091
  114OSM    C1311853   1.143   5.462  10.217
  114OSM   H13A11854   1.080   5.471  10.303
  114OSM   H13B11855   1.089   5.487  10.127
  114OSM   H13C11856   1.226   5.531  10.224
  114OSM    C1211857   1.298   5.324  10.089
  114OSM   H12A11858   1.252   5.373  10.005
  114OSM   H12B11859   1.318   5.221  10.061
  114OSM    C1111860   1.435   5.392  10.113
  114OSM   H11A11861   1.492   5.380  10.019
  114OSM   H11B11862   1.492   5.336  10.190
  114OSM      P11863   1.503   5.638  10.081
  114OSM    O1311864   1.486   5.765  10.154
  114OSM    O1411865   1.640   5.583  10.065
  114OSM    O1111866   1.426   5.644   9.943
  114OSM    O1211867   1.419   5.528  10.156
  114OSM    C1S11868   1.286   5.677   9.944
  114OSM    H1S11869   1.272   5.781   9.981
  114OSM    H1T11870   1.228   5.610  10.011
  114OSM     NF11871   1.187   5.539   9.758
  114OSM    HNF11872   1.231   5.505   9.675
  114OSM    C2S11873   1.223   5.673   9.800
  114OSM    H2S11874   1.130   5.734   9.801
  114OSM    C3S11875   1.324   5.740   9.704
  114OSM    H3S11876   1.416   5.678   9.698
  114OSM     O311877   1.364   5.866   9.756
  114OSM    HO311878   1.394   5.847   9.845
  114OSM    C4S11879   1.269   5.750   9.563
  114OSM    H4S11880   1.301   5.668   9.497
  114OSM    C5S11881   1.194   5.849   9.510
  114OSM    H5S11882   1.169   5.936   9.572
  114OSM    C6S11883   1.144   5.860   9.368
  114OSM    H6S11884   1.195   5.948   9.324
  114OSM    H6T11885   1.035   5.885   9.369
  114OSM    C7S11886   1.165   5.747   9.264
  114OSM    H7S11887   1.109   5.657   9.297
  114OSM    H7T11888   1.273   5.721   9.256
  114OSM    C8S11889   1.114   5.790   9.125
  114OSM    H8S11890   1.174   5.873   9.085
  114OSM    H8T11891   1.011   5.828   9.142
  114OSM    C9S11892   1.102   5.678   9.021
  114OSM    H9S11893   1.023   5.709   8.950
  114OSM    H9T11894   1.068   5.584   9.071
  114OSM   C10S11895   1.227   5.650   8.936
  114OSM   H10S11896   1.221   5.547   8.896
  114OSM   H10T11897   1.318   5.657   8.999
  114OSM   C11S11898   1.239   5.743   8.814
  114OSM   H11S11899   1.246   5.848   8.851
  114OSM   H11T11900   1.147   5.737   8.751
  114OSM   C12S11901   1.361   5.714   8.727
  114OSM   H12S11902   1.448   5.694   8.794
  114OSM   H12T11903   1.382   5.803   8.665
  114OSM   C13S11904   1.352   5.592   8.635
  114OSM   H13S11905   1.260   5.598   8.574
  114OSM   H13T11906   1.346   5.501   8.698
  114OSM   C14S11907   1.475   5.581   8.542
  114OSM   H14S11908   1.477   5.479   8.497
  114OSM   H14T11909   1.568   5.591   8.600
  114OSM   C15S11910   1.472   5.682   8.427
  114OSM   H15S11911   1.521   5.776   8.460
  114OSM   H15T11912   1.366   5.708   8.403
  114OSM   C16S11913   1.538   5.630   8.298
  114OSM   H16S11914   1.473   5.553   8.252
  114OSM   H16T11915   1.635   5.580   8.322
  114OSM   C17S11916   1.564   5.741   8.196
  114OSM   H17S11917   1.614   5.697   8.107
  114OSM   H17T11918   1.634   5.815   8.240
  114OSM   C18S11919   1.438   5.814   8.153
  114OSM   H18S11920   1.361   5.741   8.119
  114OSM   H18T11921   1.458   5.886   8.070
  114OSM   H18U11922   1.396   5.871   8.239
  114OSM    C1F11923   1.091   5.466   9.814
  114OSM     OF11924   1.047   5.492   9.926
  114OSM    C2F11925   1.046   5.346   9.737
  114OSM    H2F11926   0.980   5.287   9.804
  114OSM    H2G11927   1.134   5.283   9.711
  114OSM    C3F11928   0.966   5.380   9.610
  114OSM    H3F11929   0.880   5.445   9.637
  114OSM    H3G11930   0.925   5.283   9.574
  114OSM    C4F11931   1.041   5.441   9.489
  114OSM    H4F11932   1.085   5.539   9.515
  114OSM    H4G11933   0.966   5.461   9.410
  114OSM    C5F11934   1.147   5.347   9.430
  114OSM    H5F11935   1.099   5.248   9.412
  114OSM    H5G11936   1.230   5.332   9.502
  114OSM    C6F11937   1.203   5.397   9.297
  114OSM    H6F11938   1.263   5.489   9.314
  114OSM    H6G11939   1.119   5.424   9.230
  114OSM    C7F11940   1.290   5.293   9.224
  114OSM    H7F11941   1.230   5.200   9.211
  114OSM    H7G11942   1.379   5.269   9.286
  114OSM    C8F11943   1.335   5.344   9.085
  114OSM    H8F11944   1.395   5.436   9.098
  114OSM    H8G11945   1.244   5.373   9.029
  114OSM    C9F11946   1.414   5.241   9.007
  114OSM    H9F11947   1.523   5.245   9.021
  114OSM   C10F11948   1.362   5.149   8.924
  114OSM   H10F11949   1.430   5.082   8.869
  114OSM   C11F11950   1.215   5.131   8.892
  114OSM   H11F11951   1.151   5.179   8.970
  114OSM   H11G11952   1.189   5.023   8.893
  114OSM   C12F11953   1.175   5.191   8.756
  114OSM   H12F11954   1.205   5.298   8.753
  114OSM   H12G11955   1.064   5.187   8.747
  114OSM   C13F11956   1.235   5.116   8.636
  114OSM   H13F11957   1.202   5.009   8.639
  114OSM   H13G11958   1.345   5.117   8.642
  114OSM   C14F11959   1.193   5.177   8.501
  114OSM   H14F11960   1.083   5.172   8.489
  114OSM   H14G11961   1.237   5.115   8.419
  114OSM   C15F11962   1.240   5.323   8.488
  114OSM   H15F11963   1.332   5.333   8.549
  114OSM   H15G11964   1.163   5.388   8.534
  114OSM   C16F11965   1.272   5.374   8.346
  114OSM   H16F11966   1.375   5.342   8.318
  114OSM   H16G11967   1.273   5.485   8.349
  114OSM   C17F11968   1.174   5.329   8.238
  114OSM   H17F11969   1.178   5.219   8.227
  114OSM   H17G11970   1.206   5.373   8.140
  114OSM   C18F11971   1.032   5.373   8.268
  114OSM   H18F11972   0.959   5.326   8.199
  114OSM   H18G11973   1.023   5.484   8.259
  114OSM   H18H11974   1.002   5.345   8.371
  115OSM      N11975   6.604   3.415  10.200
  115OSM    C1511976   6.455   3.417  10.219
  115OSM   H15A11977   6.423   3.325  10.265
  115OSM   H15B11978   6.403   3.428  10.125
  115OSM   H15C11979   6.425   3.499  10.284
  115OSM    C1411980   6.671   3.405  10.335
  115OSM   H14A11981   6.647   3.491  10.395
  115OSM   H14B11982   6.778   3.402  10.321
  115OSM   H14C11983   6.640   3.316  10.387
  115OSM    C1311984   6.640   3.292  10.121
  115OSM   H13A11985   6.614   3.203  10.175
  115OSM   H13B11986   6.745   3.295  10.098
  115OSM   H13C11987   6.587   3.291  10.026
  115OSM    C1211988   6.653   3.538  10.126
  115OSM   H12A11989   6.609   3.625  10.172
  115OSM   H12B11990   6.615   3.534  10.025
  115OSM    C1111991   6.807   3.562  10.116
  115OSM   H11A11992   6.849   3.577  10.217
  115OSM   H11B11993   6.821   3.656  10.060
  115OSM      P11994   7.025   3.467  10.007
  115OSM    O1311995   7.073   3.607  10.022
  115OSM    O1411996   7.107   3.364  10.075
  115OSM    O1111997   7.018   3.431   9.854
  115OSM    O1211998   6.873   3.453  10.051
  115OSM    C1S11999   6.964   3.525   9.759
  115OSM    H1S12000   7.027   3.616   9.756
  115OSM    H1T12001   6.861   3.554   9.785
  115OSM     NF12002   6.937   3.558   9.511
  115OSM    HNF12003   6.859   3.538   9.452
  115OSM    C2S12004   6.962   3.461   9.616
  115OSM    H2S12005   7.063   3.418   9.600
  115OSM    C3S12006   6.856   3.347   9.609
  115OSM    H3S12007   6.757   3.394   9.592
  115OSM     O312008   6.841   3.272   9.729
  115OSM    HO312009   6.902   3.314   9.790
  115OSM    C4S12010   6.889   3.255   9.496
  115OSM    H4S12011   6.971   3.184   9.516
  115OSM    C5S12012   6.824   3.250   9.378
  115OSM    H5S12013   6.740   3.318   9.360
  115OSM    C6S12014   6.855   3.157   9.264
  115OSM    H6S12015   6.798   3.062   9.277
  115OSM    H6T12016   6.962   3.128   9.267
  115OSM    C7S12017   6.821   3.211   9.123
  115OSM    H7S12018   6.712   3.229   9.113
  115OSM    H7T12019   6.845   3.132   9.048
  115OSM    C8S12020   6.895   3.339   9.082
  115OSM    H8S12021   6.999   3.336   9.122
  115OSM    H8T12022   6.843   3.426   9.127
  115OSM    C9S12023   6.901   3.357   8.929
  115OSM    H9S12024   6.797   3.365   8.889
  115OSM    H9T12025   6.947   3.266   8.885
  115OSM   C10S12026   6.983   3.479   8.884
  115OSM   H10S12027   7.085   3.471   8.927
  115OSM   H10T12028   6.936   3.572   8.922
  115OSM   C11S12029   6.994   3.486   8.731
  115OSM   H11S12030   6.892   3.507   8.690
  115OSM   H11T12031   7.026   3.387   8.693
  115OSM   C12S12032   7.092   3.593   8.680
  115OSM   H12S12033   7.195   3.565   8.709
  115OSM   H12T12034   7.068   3.689   8.730
  115OSM   C13S12035   7.085   3.615   8.528
  115OSM   H13S12036   7.154   3.698   8.499
  115OSM   H13T12037   6.982   3.648   8.503
  115OSM   C14S12038   7.118   3.492   8.442
  115OSM   H14S12039   7.056   3.407   8.476
  115OSM   H14T12040   7.225   3.463   8.455
  115OSM   C15S12041   7.088   3.517   8.293
  115OSM   H15S12042   7.165   3.584   8.248
  115OSM   H15T12043   6.991   3.572   8.289
  115OSM   C16S12044   7.072   3.390   8.208
  115OSM   H16S12045   7.055   3.302   8.274
  115OSM   H16T12046   7.166   3.370   8.152
  115OSM   C17S12047   6.957   3.399   8.106
  115OSM   H17S12048   6.860   3.404   8.159
  115OSM   H17T12049   6.956   3.305   8.047
  115OSM   C18S12050   6.965   3.521   8.014
  115OSM   H18S12051   7.067   3.526   7.970
  115OSM   H18T12052   6.947   3.615   8.070
  115OSM   H18U12053   6.891   3.512   7.932
  115OSM    C1F12054   7.009   3.666   9.481
  115OSM     OF12055   7.110   3.695   9.543
  115OSM    C2F12056   6.959   3.751   9.368
  115OSM    H2F12057   7.043   3.774   9.300
  115OSM    H2G12058   6.920   3.846   9.410
  115OSM    C3F12059   6.844   3.682   9.289
  115OSM    H3F12060   6.760   3.662   9.358
  115OSM    H3G12061   6.880   3.586   9.247
  115OSM    C4F12062   6.788   3.766   9.174
  115OSM    H4F12063   6.855   3.764   9.085
  115OSM    H4G12064   6.782   3.872   9.208
  115OSM    C5F12065   6.645   3.723   9.135
  115OSM    H5F12066   6.582   3.814   9.138
  115OSM    H5G12067   6.603   3.654   9.211
  115OSM    C6F12068   6.626   3.667   8.993
  115OSM    H6F12069   6.651   3.559   8.990
  115OSM    H6G12070   6.696   3.721   8.925
  115OSM    C7F12071   6.482   3.692   8.946
  115OSM    H7F12072   6.463   3.802   8.951
  115OSM    H7G12073   6.409   3.646   9.016
  115OSM    C8F12074   6.444   3.647   8.803
  115OSM    H8F12075   6.350   3.702   8.779
  115OSM    H8G12076   6.416   3.539   8.804
  115OSM    C9F12077   6.546   3.668   8.695
  115OSM    H9F12078   6.651   3.676   8.726
  115OSM   C10F12079   6.516   3.670   8.564
  115OSM   H10F12080   6.598   3.680   8.491
  115OSM   C11F12081   6.377   3.650   8.507
  115OSM   H11F12082   6.364   3.708   8.413
  115OSM   H11G12083   6.302   3.692   8.577
  115OSM   C12F12084   6.344   3.501   8.484
  115OSM   H12F12085   6.240   3.479   8.516
  115OSM   H12G12086   6.407   3.437   8.550
  115OSM   C13F12087   6.356   3.452   8.338
  115OSM   H13F12088   6.257   3.460   8.287
  115OSM   H13G12089   6.376   3.343   8.343
  115OSM   C14F12090   6.461   3.523   8.251
  115OSM   H14F12091   6.535   3.575   8.316
  115OSM   H14G12092   6.411   3.601   8.190
  115OSM   C15F12093   6.544   3.430   8.161
  115OSM   H15F12094   6.625   3.491   8.115
  115OSM   H15G12095   6.480   3.392   8.079
  115OSM   C16F12096   6.607   3.310   8.234
  115OSM   H16F12097   6.692   3.270   8.174
  115OSM   H16G12098   6.530   3.229   8.235
  115OSM   C17F12099   6.650   3.332   8.381
  115OSM   H17F12100   6.655   3.231   8.428
  115OSM   H17G12101   6.574   3.387   8.439
  115OSM   C18F12102   6.783   3.402   8.405
  115OSM   H18F12103   6.800   3.418   8.514
  115OSM   H18G12104   6.786   3.500   8.354
  115OSM   H18H12105   6.866   3.338   8.367
  116OSM      N12106   3.182   0.420  10.165
  116OSM    C1512107   3.147   0.564  10.145
  116OSM   H15A12108   3.161   0.591  10.042
  116OSM   H15B12109   3.205   0.628  10.211
  116OSM   H15C12110   3.042   0.576  10.166
  116OSM    C1412111   3.324   0.394  10.124
  116OSM   H14A12112   3.351   0.291  10.141
  116OSM   H14B12113   3.393   0.455  10.181
  116OSM   H14C12114   3.338   0.415  10.019
  116OSM    C1312115   3.165   0.385  10.310
  116OSM   H13A12116   3.229   0.446  10.373
  116OSM   H13B12117   3.191   0.282  10.328
  116OSM   H13C12118   3.063   0.401  10.340
  116OSM    C1212119   3.087   0.337  10.079
  116OSM   H12A12120   3.123   0.235  10.075
  116OSM   H12B12121   3.092   0.375   9.978
  116OSM    C1112122   2.937   0.334  10.118
  116OSM   H11A12123   2.925   0.279  10.213
  116OSM   H11B12124   2.889   0.274  10.037
  116OSM      P12125   2.721   0.476  10.102
  116OSM    O1312126   2.659   0.345  10.130
  116OSM    O1412127   2.664   0.592  10.175
  116OSM    O1112128   2.716   0.508   9.947
  116OSM    O1212129   2.877   0.464  10.131
  116OSM    C1S12130   2.813   0.594   9.884
  116OSM    H1S12131   2.911   0.591   9.936
  116OSM    H1T12132   2.778   0.700   9.887
  116OSM     NF12133   2.961   0.602   9.681
  116OSM    HNF12134   2.958   0.667   9.606
  116OSM    C2S12135   2.834   0.553   9.735
  116OSM    H2S12136   2.836   0.442   9.731
  116OSM    C3S12137   2.712   0.603   9.653
  116OSM    H3S12138   2.709   0.714   9.659
  116OSM     O312139   2.587   0.557   9.703
  116OSM    HO312140   2.607   0.520   9.789
  116OSM    C4S12141   2.725   0.560   9.510
  116OSM    H4S12142   2.735   0.452   9.497
  116OSM    C5S12143   2.722   0.641   9.402
  116OSM    H5S12144   2.703   0.749   9.416
  116OSM    C6S12145   2.735   0.598   9.259
  116OSM    H6S12146   2.818   0.654   9.211
  116OSM    H6T12147   2.643   0.626   9.204
  116OSM    C7S12148   2.762   0.448   9.237
  116OSM    H7S12149   2.672   0.389   9.266
  116OSM    H7T12150   2.847   0.415   9.300
  116OSM    C8S12151   2.798   0.417   9.092
  116OSM    H8S12152   2.823   0.309   9.082
  116OSM    H8T12153   2.890   0.475   9.067
  116OSM    C9S12154   2.687   0.451   8.993
  116OSM    H9S12155   2.661   0.559   8.998
  116OSM    H9T12156   2.595   0.393   9.019
  116OSM   C10S12157   2.728   0.418   8.850
  116OSM   H10S12158   2.641   0.437   8.782
  116OSM   H10T12159   2.754   0.311   8.843
  116OSM   C11S12160   2.847   0.502   8.802
  116OSM   H11S12161   2.938   0.482   8.862
  116OSM   H11T12162   2.822   0.610   8.817
  116OSM   C12S12163   2.882   0.476   8.655
  116OSM   H12S12164   2.797   0.425   8.605
  116OSM   H12T12165   2.970   0.409   8.650
  116OSM   C13S12166   2.904   0.604   8.575
  116OSM   H13S12167   2.943   0.572   8.476
  116OSM   H13T12168   2.980   0.668   8.624
  116OSM   C14S12169   2.772   0.681   8.557
  116OSM   H14S12170   2.732   0.713   8.655
  116OSM   H14T12171   2.697   0.614   8.510
  116OSM   C15S12172   2.789   0.804   8.468
  116OSM   H15S12173   2.863   0.874   8.513
  116OSM   H15T12174   2.692   0.857   8.460
  116OSM   C16S12175   2.837   0.763   8.330
  116OSM   H16S12176   2.770   0.683   8.291
  116OSM   H16T12177   2.940   0.722   8.333
  116OSM   C17S12178   2.837   0.878   8.232
  116OSM   H17S12179   2.920   0.948   8.257
  116OSM   H17T12180   2.740   0.933   8.236
  116OSM   C18S12181   2.856   0.824   8.094
  116OSM   H18S12182   2.941   0.753   8.093
  116OSM   H18T12183   2.876   0.906   8.021
  116OSM   H18U12184   2.764   0.770   8.062
  116OSM    C1F12185   3.078   0.552   9.723
  116OSM     OF12186   3.086   0.478   9.820
  116OSM    C2F12187   3.202   0.590   9.649
  116OSM    H2F12188   3.286   0.594   9.722
  116OSM    H2G12189   3.191   0.689   9.601
  116OSM    C3F12190   3.235   0.482   9.543
  116OSM    H3F12191   3.171   0.500   9.454
  116OSM    H3G12192   3.212   0.380   9.580
  116OSM    C4F12193   3.382   0.483   9.501
  116OSM    H4F12194   3.436   0.405   9.560
  116OSM    H4G12195   3.429   0.581   9.526
  116OSM    C5F12196   3.401   0.457   9.352
  116OSM    H5F12197   3.331   0.378   9.317
  116OSM    H5G12198   3.504   0.418   9.336
  116OSM    C6F12199   3.384   0.584   9.268
  116OSM    H6F12200   3.448   0.663   9.313
  116OSM    H6G12201   3.279   0.620   9.273
  116OSM    C7F12202   3.428   0.565   9.123
  116OSM    H7F12203   3.522   0.507   9.126
  116OSM    H7G12204   3.452   0.664   9.078
  116OSM    C8F12205   3.328   0.490   9.034
  116OSM    H8F12206   3.293   0.398   9.086
  116OSM    H8G12207   3.381   0.456   8.943
  116OSM    C9F12208   3.212   0.578   8.997
  116OSM    H9F12209   3.120   0.564   9.055
  116OSM   C10F12210   3.215   0.669   8.898
  116OSM   H10F12211   3.123   0.726   8.875
  116OSM   C11F12212   3.333   0.699   8.809
  116OSM   H11F12213   3.429   0.662   8.851
  116OSM   H11G12214   3.344   0.809   8.793
  116OSM   C12F12215   3.311   0.633   8.674
  116OSM   H12F12216   3.214   0.668   8.631
  116OSM   H12G12217   3.303   0.523   8.691
  116OSM   C13F12218   3.421   0.660   8.570
  116OSM   H13F12219   3.514   0.608   8.601
  116OSM   H13G12220   3.443   0.769   8.564
  116OSM   C14F12221   3.380   0.609   8.431
  116OSM   H14F12222   3.470   0.597   8.367
  116OSM   H14G12223   3.312   0.683   8.384
  116OSM   C15F12224   3.307   0.475   8.441
  116OSM   H15F12225   3.209   0.491   8.490
  116OSM   H15G12226   3.366   0.407   8.506
  116OSM   C16F12227   3.283   0.403   8.310
  116OSM   H16F12228   3.379   0.386   8.257
  116OSM   H16G12229   3.217   0.464   8.244
  116OSM   C17F12230   3.212   0.271   8.337
  116OSM   H17F12231   3.272   0.211   8.409
  116OSM   H17G12232   3.210   0.215   8.241
  116OSM   C18F12233   3.073   0.285   8.397
  116OSM   H18F12234   3.079   0.309   8.505
  116OSM   H18G12235   3.016   0.190   8.386
  116OSM   H18H12236   3.016   0.366   8.346
  117OSM      N12237   1.786   0.823  10.274
  117OSM    C1512238   1.873   0.860  10.157
  117OSM   H15A12239   1.813   0.858  10.068
  117OSM   H15B12240   1.958   0.795  10.144
  117OSM   H15C12241   1.908   0.962  10.165
  117OSM    C1412242   1.740   0.682  10.258
  117OSM   H14A12243   1.682   0.676  10.166
  117OSM   H14B12244   1.676   0.652  10.340
  117OSM   H14C12245   1.823   0.614  10.251
  117OSM    C1312246   1.863   0.841  10.401
  117OSM   H13A12247   1.890   0.945  10.413
  117OSM   H13B12248   1.954   0.783  10.402
  117OSM   H13C12249   1.803   0.815  10.487
  117OSM    C1212250   1.663   0.914  10.276
  117OSM   H12A12251   1.697   1.017  10.281
  117OSM   H12B12252   1.605   0.898  10.366
  117OSM    C1112253   1.567   0.904  10.156
  117OSM   H11A12254   1.480   0.971  10.174
  117OSM   H11B12255   1.526   0.802  10.146
  117OSM      P12256   1.616   1.074   9.962
  117OSM    O1312257   1.569   1.173  10.062
  117OSM    O1412258   1.742   1.110   9.895
  117OSM    O1112259   1.500   1.035   9.862
  117OSM    O1212260   1.638   0.937  10.037
  117OSM    C1S12261   1.499   0.908   9.794
  117OSM    H1S12262   1.395   0.871   9.792
  117OSM    H1T12263   1.557   0.829   9.845
  117OSM     NF12264   1.689   0.922   9.634
  117OSM    HNF12265   1.730   1.009   9.607
  117OSM    C2S12266   1.544   0.922   9.644
  117OSM    H2S12267   1.506   0.834   9.589
  117OSM    C3S12268   1.478   1.052   9.588
  117OSM    H3S12269   1.529   1.140   9.631
  117OSM     O312270   1.341   1.062   9.628
  117OSM    HO312271   1.342   1.023   9.716
  117OSM    C4S12272   1.485   1.065   9.436
  117OSM    H4S12273   1.551   1.148   9.406
  117OSM    C5S12274   1.416   0.998   9.341
  117OSM    H5S12275   1.350   0.916   9.373
  117OSM    C6S12276   1.420   1.021   9.190
  117OSM    H6S12277   1.316   1.016   9.149
  117OSM    H6T12278   1.475   0.939   9.139
  117OSM    C7S12279   1.475   1.158   9.145
  117OSM    H7S12280   1.576   1.160   9.192
  117OSM    H7T12281   1.416   1.241   9.190
  117OSM    C8S12282   1.488   1.179   8.992
  117OSM    H8S12283   1.397   1.153   8.934
  117OSM    H8T12284   1.556   1.094   8.970
  117OSM    C9S12285   1.553   1.314   8.944
  117OSM    H9S12286   1.660   1.295   8.967
  117OSM    H9T12287   1.514   1.401   9.002
  117OSM   C10S12288   1.576   1.352   8.795
  117OSM   H10S12289   1.494   1.417   8.758
  117OSM   H10T12290   1.557   1.249   8.757
  117OSM   C11S12291   1.719   1.406   8.747
  117OSM   H11S12292   1.789   1.405   8.833
  117OSM   H11T12293   1.690   1.512   8.730
  117OSM   C12S12294   1.802   1.372   8.613
  117OSM   H12S12295   1.869   1.460   8.602
  117OSM   H12T12296   1.735   1.378   8.524
  117OSM   C13S12297   1.899   1.251   8.576
  117OSM   H13S12298   1.874   1.157   8.629
  117OSM   H13T12299   2.003   1.273   8.606
  117OSM   C14S12300   1.895   1.203   8.426
  117OSM   H14S12301   1.961   1.265   8.361
  117OSM   H14T12302   1.791   1.213   8.389
  117OSM   C15S12303   1.926   1.054   8.397
  117OSM   H15S12304   1.838   0.995   8.429
  117OSM   H15T12305   2.013   1.018   8.457
  117OSM   C16S12306   1.939   1.016   8.248
  117OSM   H16S12307   2.022   1.072   8.200
  117OSM   H16T12308   1.845   1.045   8.197
  117OSM   C17S12309   1.959   0.864   8.228
  117OSM   H17S12310   1.908   0.813   8.312
  117OSM   H17T12311   2.066   0.836   8.241
  117OSM   C18S12312   1.906   0.807   8.097
  117OSM   H18S12313   1.886   0.698   8.107
  117OSM   H18T12314   1.977   0.823   8.013
  117OSM   H18U12315   1.810   0.855   8.069
  117OSM    C1F12316   1.770   0.820   9.664
  117OSM     OF12317   1.738   0.729   9.740
  117OSM    C2F12318   1.905   0.826   9.602
  117OSM    H2F12319   1.982   0.823   9.683
  117OSM    H2G12320   1.914   0.922   9.547
  117OSM    C3F12321   1.931   0.710   9.503
  117OSM    H3F12322   1.938   0.614   9.558
  117OSM    H3G12323   2.030   0.728   9.455
  117OSM    C4F12324   1.826   0.694   9.391
  117OSM    H4F12325   1.733   0.650   9.435
  117OSM    H4G12326   1.865   0.620   9.318
  117OSM    C5F12327   1.787   0.824   9.319
  117OSM    H5F12328   1.880   0.881   9.296
  117OSM    H5G12329   1.724   0.887   9.385
  117OSM    C6F12330   1.709   0.803   9.188
  117OSM    H6F12331   1.677   0.903   9.152
  117OSM    H6G12332   1.619   0.740   9.205
  117OSM    C7F12333   1.801   0.742   9.082
  117OSM    H7F12334   1.822   0.635   9.106
  117OSM    H7G12335   1.894   0.800   9.097
  117OSM    C8F12336   1.756   0.754   8.936
  117OSM    H8F12337   1.685   0.839   8.928
  117OSM    H8G12338   1.701   0.662   8.906
  117OSM    C9F12339   1.879   0.780   8.851
  117OSM    H9F12340   1.940   0.863   8.890
  117OSM   C10F12341   1.923   0.719   8.741
  117OSM   H10F12342   2.016   0.755   8.694
  117OSM   C11F12343   1.858   0.603   8.671
  117OSM   H11F12344   1.765   0.570   8.722
  117OSM   H11G12345   1.927   0.516   8.671
  117OSM   C12F12346   1.825   0.641   8.526
  117OSM   H12F12347   1.779   0.553   8.477
  117OSM   H12G12348   1.918   0.665   8.470
  117OSM   C13F12349   1.728   0.760   8.520
  117OSM   H13F12350   1.786   0.853   8.542
  117OSM   H13G12351   1.656   0.753   8.604
  117OSM   C14F12352   1.650   0.769   8.388
  117OSM   H14F12353   1.589   0.676   8.381
  117OSM   H14G12354   1.717   0.769   8.299
  117OSM   C15F12355   1.556   0.887   8.380
  117OSM   H15F12356   1.617   0.980   8.387
  117OSM   H15G12357   1.485   0.881   8.466
  117OSM   C16F12358   1.472   0.905   8.255
  117OSM   H16F12359   1.397   0.984   8.278
  117OSM   H16G12360   1.417   0.811   8.233
  117OSM   C17F12361   1.553   0.953   8.136
  117OSM   H17F12362   1.614   0.868   8.099
  117OSM   H17G12363   1.621   1.035   8.169
  117OSM   C18F12364   1.465   1.005   8.024
  117OSM   H18F12365   1.411   0.920   7.976
  117OSM   H18G12366   1.525   1.059   7.947
  117OSM   H18H12367   1.390   1.076   8.063
  118OSM      N12368   0.829   2.255  10.125
  118OSM    C1512369   0.952   2.278  10.043
  118OSM   H15A12370   0.957   2.204   9.964
  118OSM   H15B12371   1.040   2.261  10.102
  118OSM   H15C12372   0.954   2.378  10.001
  118OSM    C1412373   0.847   2.121  10.190
  118OSM   H14A12374   0.934   2.117  10.253
  118OSM   H14B12375   0.860   2.044  10.115
  118OSM   H14C12376   0.759   2.094  10.248
  118OSM    C1312377   0.816   2.358  10.231
  118OSM   H13A12378   0.725   2.338  10.286
  118OSM   H13B12379   0.809   2.457  10.189
  118OSM   H13C12380   0.898   2.355  10.302
  118OSM    C1212381   0.704   2.251  10.040
  118OSM   H12A12382   0.705   2.159   9.984
  118OSM   H12B12383   0.707   2.331   9.968
  118OSM    C1112384   0.567   2.261  10.115
  118OSM   H11A12385   0.485   2.244  10.042
  118OSM   H11B12386   0.554   2.365  10.151
  118OSM      P12387   0.498   2.029  10.218
  118OSM    O1312388   0.593   1.932  10.277
  118OSM    O1412389   0.362   2.034  10.277
  118OSM    O1112390   0.492   2.006  10.061
  118OSM    O1212391   0.560   2.173  10.228
  118OSM    C1S12392   0.603   1.943   9.994
  118OSM    H1S12393   0.601   1.835  10.019
  118OSM    H1T12394   0.702   1.981  10.026
  118OSM     NF12395   0.678   2.059   9.775
  118OSM    HNF12396   0.626   2.115   9.711
  118OSM    C2S12397   0.595   1.952   9.838
  118OSM    H2S12398   0.631   1.852   9.805
  118OSM    C3S12399   0.443   1.961   9.796
  118OSM    H3S12400   0.403   2.060   9.827
  118OSM     O312401   0.363   1.860   9.858
  118OSM    HO312402   0.383   1.870   9.951
  118OSM    C4S12403   0.422   1.945   9.646
  118OSM    H4S12404   0.466   1.853   9.605
  118OSM    C5S12405   0.351   2.026   9.565
  118OSM    H5S12406   0.302   2.113   9.611
  118OSM    C6S12407   0.328   2.014   9.415
  118OSM    H6S12408   0.383   2.096   9.365
  118OSM    H6T12409   0.220   2.030   9.391
  118OSM    C7S12410   0.360   1.883   9.339
  118OSM    H7S12411   0.276   1.812   9.351
  118OSM    H7T12412   0.451   1.838   9.382
  118OSM    C8S12413   0.386   1.904   9.188
  118OSM    H8S12414   0.451   1.823   9.150
  118OSM    H8T12415   0.441   2.000   9.175
  118OSM    C9S12416   0.260   1.910   9.102
  118OSM    H9S12417   0.176   1.950   9.164
  118OSM    H9T12418   0.232   1.808   9.070
  118OSM   C10S12419   0.277   2.002   8.981
  118OSM   H10S12420   0.298   2.104   9.019
  118OSM   H10T12421   0.183   2.007   8.923
  118OSM   C11S12422   0.391   1.959   8.887
  118OSM   H11S12423   0.378   1.852   8.860
  118OSM   H11T12424   0.487   1.969   8.942
  118OSM   C12S12425   0.399   2.041   8.757
  118OSM   H12S12426   0.310   2.018   8.694
  118OSM   H12T12427   0.489   2.010   8.699
  118OSM   C13S12428   0.402   2.193   8.778
  118OSM   H13S12429   0.500   2.223   8.821
  118OSM   H13T12430   0.322   2.224   8.849
  118OSM   C14S12431   0.375   2.272   8.648
  118OSM   H14S12432   0.382   2.381   8.669
  118OSM   H14T12433   0.273   2.250   8.612
  118OSM   C15S12434   0.475   2.240   8.537
  118OSM   H15S12435   0.463   2.134   8.508
  118OSM   H15T12436   0.579   2.253   8.575
  118OSM   C16S12437   0.455   2.331   8.416
  118OSM   H16S12438   0.479   2.436   8.446
  118OSM   H16T12439   0.348   2.329   8.384
  118OSM   C17S12440   0.543   2.291   8.298
  118OSM   H17S12441   0.648   2.288   8.334
  118OSM   H17T12442   0.538   2.369   8.219
  118OSM   C18S12443   0.504   2.155   8.239
  118OSM   H18S12444   0.452   2.168   8.142
  118OSM   H18T12445   0.436   2.098   8.306
  118OSM   H18U12446   0.595   2.092   8.224
  118OSM    C1F12447   0.816   2.068   9.768
  118OSM     OF12448   0.887   2.052   9.865
  118OSM    C2F12449   0.872   2.115   9.633
  118OSM    H2F12450   0.862   2.226   9.637
  118OSM    H2G12451   0.796   2.079   9.561
  118OSM    C3F12452   1.018   2.094   9.569
  118OSM    H3F12453   1.086   2.137   9.646
  118OSM    H3G12454   1.024   2.160   9.480
  118OSM    C4F12455   1.089   1.960   9.528
  118OSM    H4F12456   1.065   1.888   9.609
  118OSM    H4G12457   1.197   1.983   9.533
  118OSM    C5F12458   1.078   1.873   9.398
  118OSM    H5F12459   0.992   1.803   9.398
  118OSM    H5G12460   1.159   1.798   9.404
  118OSM    C6F12461   1.084   1.943   9.263
  118OSM    H6F12462   1.184   1.931   9.217
  118OSM    H6G12463   1.067   2.052   9.279
  118OSM    C7F12464   0.984   1.887   9.161
  118OSM    H7F12465   0.889   1.866   9.214
  118OSM    H7G12466   1.018   1.791   9.117
  118OSM    C8F12467   0.955   1.989   9.051
  118OSM    H8F12468   1.029   1.979   8.969
  118OSM    H8G12469   0.972   2.089   9.095
  118OSM    C9F12470   0.812   1.979   9.006
  118OSM    H9F12471   0.735   1.993   9.083
  118OSM   C10F12472   0.773   1.949   8.882
  118OSM   H10F12473   0.667   1.948   8.854
  118OSM   C11F12474   0.871   1.921   8.774
  118OSM   H11F12475   0.935   1.834   8.802
  118OSM   H11G12476   0.938   2.007   8.755
  118OSM   C12F12477   0.796   1.890   8.646
  118OSM   H12F12478   0.748   1.981   8.604
  118OSM   H12G12479   0.717   1.814   8.665
  118OSM   C13F12480   0.895   1.832   8.547
  118OSM   H13F12481   0.959   1.757   8.598
  118OSM   H13G12482   0.963   1.911   8.508
  118OSM   C14F12483   0.821   1.762   8.434
  118OSM   H14F12484   0.759   1.837   8.381
  118OSM   H14G12485   0.752   1.687   8.478
  118OSM   C15F12486   0.920   1.691   8.343
  118OSM   H15F12487   0.864   1.625   8.274
  118OSM   H15G12488   0.984   1.628   8.407
  118OSM   C16F12489   1.012   1.783   8.262
  118OSM   H16F12490   1.070   1.720   8.192
  118OSM   H16G12491   1.085   1.833   8.330
  118OSM   C17F12492   0.936   1.890   8.183
  118OSM   H17F12493   1.006   1.934   8.109
  118OSM   H17G12494   0.905   1.972   8.251
  118OSM   C18F12495   0.812   1.837   8.110
  118OSM   H18F12496   0.723   1.835   8.176
  118OSM   H18G12497   0.830   1.733   8.075
  118OSM   H18H12498   0.789   1.900   8.022
  119OSM      N12499   2.031   0.346  10.232
  119OSM    C1512500   1.941   0.394  10.122
  119OSM   H15A12501   1.940   0.502  10.115
  119OSM   H15B12502   1.840   0.357  10.133
  119OSM   H15C12503   1.978   0.358  10.028
  119OSM    C1412504   1.981   0.385  10.368
  119OSM   H14A12505   1.982   0.492  10.382
  119OSM   H14B12506   2.046   0.343  10.445
  119OSM   H14C12507   1.882   0.347  10.387
  119OSM    C1312508   2.034   0.196  10.226
  119OSM   H13A12509   2.074   0.165  10.130
  119OSM   H13B12510   1.937   0.151  10.238
  119OSM   H13C12511   2.104   0.155  10.297
  119OSM    C1212512   2.173   0.400  10.209
  119OSM   H12A12513   2.236   0.370  10.291
  119OSM   H12B12514   2.171   0.508  10.208
  119OSM    C1112515   2.247   0.352  10.083
  119OSM   H11A12516   2.334   0.419  10.065
  119OSM   H11B12517   2.181   0.360   9.994
  119OSM      P12518   2.294   0.107   9.997
  119OSM    O1312519   2.417   0.027  10.013
  119OSM    O1412520   2.164   0.039  10.014
  119OSM    O1112521   2.298   0.188   9.860
  119OSM    O1212522   2.296   0.221  10.107
  119OSM    C1S12523   2.226   0.135   9.748
  119OSM    H1S12524   2.117   0.133   9.770
  119OSM    H1T12525   2.258   0.031   9.724
  119OSM     NF12526   2.370   0.184   9.552
  119OSM    HNF12527   2.453   0.200   9.606
  119OSM    C2S12528   2.244   0.221   9.619
  119OSM    H2S12529   2.157   0.195   9.554
  119OSM    C3S12530   2.234   0.374   9.650
  119OSM    H3S12531   2.320   0.408   9.712
  119OSM     O312532   2.114   0.414   9.718
  119OSM    HO312533   2.062   0.333   9.726
  119OSM    C4S12534   2.238   0.439   9.515
  119OSM    H4S12535   2.140   0.446   9.466
  119OSM    C5S12536   2.350   0.482   9.454
  119OSM    H5S12537   2.446   0.474   9.506
  119OSM    C6S12538   2.356   0.541   9.316
  119OSM    H6S12539   2.433   0.487   9.257
  119OSM    H6T12540   2.387   0.647   9.317
  119OSM    C7S12541   2.225   0.528   9.237
  119OSM    H7S12542   2.141   0.575   9.293
  119OSM    H7T12543   2.200   0.421   9.219
  119OSM    C8S12544   2.238   0.602   9.105
  119OSM    H8S12545   2.319   0.558   9.042
  119OSM    H8T12546   2.269   0.705   9.134
  119OSM    C9S12547   2.107   0.616   9.030
  119OSM    H9S12548   2.123   0.677   8.939
  119OSM    H9T12549   2.040   0.671   9.101
  119OSM   C10S12550   2.039   0.487   8.989
  119OSM   H10S12551   1.940   0.507   8.943
  119OSM   H10T12552   2.021   0.423   9.079
  119OSM   C11S12553   2.126   0.414   8.889
  119OSM   H11S12554   2.229   0.407   8.930
  119OSM   H11T12555   2.133   0.469   8.792
  119OSM   C12S12556   2.080   0.272   8.870
  119OSM   H12S12557   2.049   0.228   8.968
  119OSM   H12T12558   2.171   0.220   8.835
  119OSM   C13S12559   1.975   0.245   8.763
  119OSM   H13S12560   1.882   0.304   8.780
  119OSM   H13T12561   1.951   0.137   8.776
  119OSM   C14S12562   2.029   0.260   8.622
  119OSM   H14S12563   2.133   0.219   8.618
  119OSM   H14T12564   2.038   0.367   8.594
  119OSM   C15S12565   1.946   0.185   8.518
  119OSM   H15S12566   1.840   0.219   8.522
  119OSM   H15T12567   1.948   0.077   8.543
  119OSM   C16S12568   2.004   0.209   8.379
  119OSM   H16S12569   2.113   0.187   8.385
  119OSM   H16T12570   1.993   0.317   8.356
  119OSM   C17S12571   1.941   0.127   8.266
  119OSM   H17S12572   1.980   0.165   8.170
  119OSM   H17T12573   1.831   0.145   8.267
  119OSM   C18S12574   1.968  -0.024   8.274
  119OSM   H18S12575   1.920  -0.076   8.188
  119OSM   H18T12576   1.928  -0.067   8.368
  119OSM   H18U12577   2.077  -0.043   8.270
  119OSM    C1F12578   2.372   0.140   9.425
  119OSM     OF12579   2.268   0.106   9.372
  119OSM    C2F12580   2.503   0.143   9.347
  119OSM    H2F12581   2.584   0.182   9.412
  119OSM    H2G12582   2.488   0.214   9.263
  119OSM    C3F12583   2.545   0.005   9.286
  119OSM    H3F12584   2.460  -0.036   9.227
  119OSM    H3G12585   2.564  -0.063   9.371
  119OSM    C4F12586   2.670   0.004   9.195
  119OSM    H4F12587   2.741  -0.075   9.230
  119OSM    H4G12588   2.721   0.102   9.206
  119OSM    C5F12589   2.641  -0.021   9.044
  119OSM    H5F12590   2.716   0.036   8.985
  119OSM    H5G12591   2.542   0.024   9.024
  119OSM    C6F12592   2.642  -0.167   8.994
  119OSM    H6F12593   2.566  -0.224   9.052
  119OSM    H6G12594   2.741  -0.212   9.017
  119OSM    C7F12595   2.616  -0.184   8.840
  119OSM    H7F12596   2.714  -0.187   8.789
  119OSM    H7G12597   2.566  -0.092   8.803
  119OSM    C8F12598   2.533  -0.309   8.794
  119OSM    H8F12599   2.517  -0.367   8.888
  119OSM    H8G12600   2.598  -0.371   8.727
  119OSM    C9F12601   2.392  -0.305   8.741
  119OSM    H9F12602   2.319  -0.325   8.821
  119OSM   C10F12603   2.339  -0.293   8.618
  119OSM   H10F12604   2.229  -0.296   8.610
  119OSM   C11F12605   2.406  -0.280   8.485
  119OSM   H11F12606   2.401  -0.379   8.436
  119OSM   H11G12607   2.514  -0.256   8.496
  119OSM   C12F12608   2.336  -0.179   8.389
  119OSM   H12F12609   2.232  -0.157   8.421
  119OSM   H12G12610   2.330  -0.226   8.289
  119OSM   C13F12611   2.413  -0.048   8.376
  119OSM   H13F12612   2.519  -0.073   8.396
  119OSM   H13G12613   2.377   0.024   8.452
  119OSM   C14F12614   2.412   0.019   8.238
  119OSM   H14F12615   2.379  -0.051   8.158
  119OSM   H14G12616   2.519   0.043   8.221
  119OSM   C15F12617   2.339   0.154   8.229
  119OSM   H15F12618   2.367   0.215   8.317
  119OSM   H15G12619   2.230   0.134   8.230
  119OSM   C16F12620   2.374   0.232   8.101
  119OSM   H16F12621   2.327   0.180   8.015
  119OSM   H16G12622   2.484   0.232   8.086
  119OSM   C17F12623   2.331   0.380   8.101
  119OSM   H17F12624   2.354   0.423   8.002
  119OSM   H17G12625   2.393   0.434   8.176
  119OSM   C18F12626   2.184   0.402   8.133
  119OSM   H18F12627   2.163   0.372   8.238
  119OSM   H18G12628   2.120   0.342   8.065
  119OSM   H18H12629   2.157   0.509   8.121
  120OSM      N12630   0.896   5.898  10.196
  120OSM    C1512631   0.970   5.926  10.069
  120OSM   H15A12632   1.076   5.938  10.088
  120OSM   H15B12633   0.937   6.021  10.030
  120OSM   H15C12634   0.954   5.851   9.993
  120OSM    C1412635   0.937   5.763  10.248
  120OSM   H14A12636   0.893   5.744  10.344
  120OSM   H14B12637   1.044   5.762  10.261
  120OSM   H14C12638   0.910   5.685  10.178
  120OSM    C1312639   0.939   6.001  10.295
  120OSM   H13A12640   1.047   6.005  10.301
  120OSM   H13B12641   0.900   5.984  10.395
  120OSM   H13C12642   0.911   6.099  10.260
  120OSM    C1212643   0.746   5.905  10.172
  120OSM   H12A12644   0.695   5.862  10.257
  120OSM   H12B12645   0.723   5.844  10.085
  120OSM    C1112646   0.683   6.045  10.146
  120OSM   H11A12647   0.696   6.108  10.237
  120OSM   H11B12648   0.574   6.033  10.132
  120OSM      P12649   0.797   6.250  10.030
  120OSM    O1312650   0.701   6.336  10.103
  120OSM    O1412651   0.936   6.243  10.082
  120OSM    O1112652   0.792   6.291   9.879
  120OSM    O1212653   0.738   6.104  10.028
  120OSM    C1S12654   0.784   6.195   9.773
  120OSM    H1S12655   0.693   6.133   9.783
  120OSM    H1T12656   0.871   6.126   9.775
  120OSM     NF12657   0.907   6.319   9.598
  120OSM    HNF12658   0.922   6.417   9.612
  120OSM    C2S12659   0.778   6.265   9.633
  120OSM    H2S12660   0.752   6.188   9.557
  120OSM    C3S12661   0.666   6.371   9.635
  120OSM    H3S12662   0.693   6.454   9.704
  120OSM     O312663   0.541   6.321   9.682
  120OSM    HO312664   0.543   6.227   9.658
  120OSM    C4S12665   0.654   6.431   9.496
  120OSM    H4S12666   0.718   6.519   9.480
  120OSM    C5S12667   0.575   6.390   9.394
  120OSM    H5S12668   0.508   6.304   9.409
  120OSM    C6S12669   0.568   6.454   9.258
  120OSM    H6S12670   0.633   6.544   9.251
  120OSM    H6T12671   0.464   6.490   9.239
  120OSM    C7S12672   0.606   6.359   9.143
  120OSM    H7S12673   0.538   6.270   9.143
  120OSM    H7T12674   0.710   6.322   9.159
  120OSM    C8S12675   0.597   6.428   9.007
  120OSM    H8S12676   0.665   6.517   9.008
  120OSM    H8T12677   0.494   6.466   8.992
  120OSM    C9S12678   0.635   6.341   8.886
  120OSM    H9S12679   0.574   6.248   8.883
  120OSM    H9T12680   0.742   6.312   8.895
  120OSM   C10S12681   0.616   6.420   8.757
  120OSM   H10S12682   0.654   6.523   8.777
  120OSM   H10T12683   0.507   6.425   8.737
  120OSM   C11S12684   0.689   6.373   8.631
  120OSM   H11S12685   0.660   6.445   8.550
  120OSM   H11T12686   0.654   6.273   8.598
  120OSM   C12S12687   0.842   6.377   8.643
  120OSM   H12S12688   0.880   6.282   8.685
  120OSM   H12T12689   0.870   6.456   8.716
  120OSM   C13S12690   0.913   6.406   8.510
  120OSM   H13S12691   1.022   6.392   8.522
  120OSM   H13T12692   0.895   6.511   8.480
  120OSM   C14S12693   0.863   6.316   8.397
  120OSM   H14S12694   0.755   6.338   8.377
  120OSM   H14T12695   0.869   6.210   8.429
  120OSM   C15S12696   0.942   6.333   8.267
  120OSM   H15S12697   1.047   6.302   8.284
  120OSM   H15T12698   0.943   6.439   8.236
  120OSM   C16S12699   0.880   6.247   8.156
  120OSM   H16S12700   0.863   6.144   8.194
  120OSM   H16T12701   0.953   6.240   8.072
  120OSM   C17S12702   0.749   6.306   8.104
  120OSM   H17S12703   0.719   6.393   8.166
  120OSM   H17T12704   0.668   6.230   8.113
  120OSM   C18S12705   0.763   6.352   7.960
  120OSM   H18S12706   0.669   6.398   7.922
  120OSM   H18T12707   0.792   6.267   7.894
  120OSM   H18U12708   0.845   6.427   7.953
  120OSM    C1F12709   1.007   6.239   9.566
  120OSM     OF12710   0.993   6.117   9.565
  120OSM    C2F12711   1.136   6.305   9.534
  120OSM    H2F12712   1.209   6.282   9.615
  120OSM    H2G12713   1.123   6.415   9.528
  120OSM    C3F12714   1.190   6.251   9.401
  120OSM    H3F12715   1.208   6.142   9.412
  120OSM    H3G12716   1.288   6.298   9.382
  120OSM    C4F12717   1.101   6.275   9.277
  120OSM    H4F12718   1.109   6.382   9.248
  120OSM    H4G12719   0.994   6.253   9.298
  120OSM    C5F12720   1.149   6.185   9.163
  120OSM    H5F12721   1.121   6.080   9.186
  120OSM    H5G12722   1.260   6.187   9.166
  120OSM    C6F12723   1.102   6.223   9.023
  120OSM    H6F12724   1.156   6.160   8.949
  120OSM    H6G12725   1.128   6.329   9.001
  120OSM    C7F12726   0.952   6.201   9.001
  120OSM    H7F12727   0.930   6.219   8.894
  120OSM    H7G12728   0.897   6.278   9.061
  120OSM    C8F12729   0.902   6.060   9.039
  120OSM    H8F12730   0.924   6.041   9.147
  120OSM    H8G12731   0.961   5.986   8.980
  120OSM    C9F12732   0.754   6.045   9.019
  120OSM    H9F12733   0.693   6.091   9.099
  120OSM   C10F12734   0.693   5.988   8.915
  120OSM   H10F12735   0.583   5.993   8.908
  120OSM   C11F12736   0.755   5.926   8.794
  120OSM   H11F12737   0.710   5.826   8.775
  120OSM   H11G12738   0.865   5.913   8.804
  120OSM   C12F12739   0.722   6.015   8.674
  120OSM   H12F12740   0.759   6.118   8.695
  120OSM   H12G12741   0.612   6.022   8.660
  120OSM   C13F12742   0.786   5.965   8.545
  120OSM   H13F12743   0.746   6.026   8.461
  120OSM   H13G12744   0.754   5.860   8.529
  120OSM   C14F12745   0.939   5.975   8.547
  120OSM   H14F12746   0.983   5.906   8.621
  120OSM   H14G12747   0.966   6.078   8.578
  120OSM   C15F12748   1.000   5.949   8.408
  120OSM   H15F12749   0.925   5.978   8.332
  120OSM   H15G12750   1.021   5.840   8.396
  120OSM   C16F12751   1.127   6.030   8.383
  120OSM   H16F12752   1.210   5.990   8.445
  120OSM   H16G12753   1.110   6.135   8.415
  120OSM   C17F12754   1.166   6.030   8.235
  120OSM   H17F12755   1.079   6.061   8.174
  120OSM   H17G12756   1.190   5.926   8.206
  120OSM   C18F12757   1.284   6.123   8.203
  120OSM   H18F12758   1.371   6.099   8.267
  120OSM   H18G12759   1.256   6.229   8.221
  120OSM   H18H12760   1.314   6.113   8.097
  121OSM      N12761   6.900   2.095  10.243
  121OSM    C1512762   6.808   2.197  10.180
  121OSM   H15A12763   6.828   2.202  10.074
  121OSM   H15B12764   6.822   2.295  10.223
  121OSM   H15C12765   6.705   2.168  10.192
  121OSM    C1412766   6.869   2.079  10.388
  121OSM   H14A12767   6.931   2.001  10.430
  121OSM   H14B12768   6.766   2.052  10.403
  121OSM   H14C12769   6.889   2.169  10.444
  121OSM    C1312770   6.877   1.965  10.172
  121OSM   H13A12771   6.773   1.935  10.173
  121OSM   H13B12772   6.940   1.887  10.212
  121OSM   H13C12773   6.908   1.976  10.069
  121OSM    C1212774   7.046   2.136  10.227
  121OSM   H12A12775   7.108   2.060  10.271
  121OSM   H12B12776   7.065   2.226  10.284
  121OSM    C1112777   7.099   2.156  10.083
  121OSM   H11A12778   7.203   2.194  10.085
  121OSM   H11B12779   7.038   2.231  10.030
  121OSM      P12780   7.194   1.916  10.034
  121OSM    O1312781   7.277   1.947  10.153
  121OSM    O1412782   7.119   1.787  10.036
  121OSM    O1112783   7.276   1.931   9.900
  121OSM    O1212784   7.091   2.033  10.013
  121OSM    C1S12785   7.204   1.942   9.775
  121OSM    H1S12786   7.107   1.889   9.778
  121OSM    H1T12787   7.263   1.893   9.695
  121OSM     NF12788   7.099   2.090   9.609
  121OSM    HNF12789   7.138   2.124   9.524
  121OSM    C2S12790   7.180   2.090   9.730
  121OSM    H2S12791   7.124   2.146   9.807
  121OSM    C3S12792   7.320   2.157   9.714
  121OSM    H3S12793   7.393   2.081   9.678
  121OSM     O312794   7.371   2.205   9.839
  121OSM    HO312795   7.330   2.146   9.903
  121OSM    C4S12796   7.316   2.271   9.617
  121OSM    H4S12797   7.270   2.365   9.652
  121OSM    C5S12798   7.367   2.261   9.493
  121OSM    H5S12799   7.411   2.164   9.464
  121OSM    C6S12800   7.369   2.364   9.385
  121OSM    H6S12801   7.473   2.396   9.364
  121OSM    H6T12802   7.314   2.455   9.418
  121OSM    C7S12803   7.307   2.312   9.253
  121OSM    H7S12804   7.382   2.254   9.196
  121OSM    H7T12805   7.280   2.401   9.191
  121OSM    C8S12806   7.182   2.225   9.272
  121OSM    H8S12807   7.123   2.266   9.357
  121OSM    H8T12808   7.213   2.122   9.299
  121OSM    C9S12809   7.087   2.219   9.152
  121OSM    H9S12810   7.031   2.315   9.148
  121OSM    H9T12811   7.013   2.139   9.172
  121OSM   C10S12812   7.150   2.195   9.014
  121OSM   H10S12813   7.231   2.119   9.020
  121OSM   H10T12814   7.196   2.289   8.976
  121OSM   C11S12815   7.041   2.148   8.916
  121OSM   H11S12816   6.959   2.222   8.920
  121OSM   H11T12817   6.999   2.051   8.951
  121OSM   C12S12818   7.082   2.132   8.768
  121OSM   H12S12819   7.102   2.024   8.750
  121OSM   H12T12820   7.175   2.189   8.746
  121OSM   C13S12821   6.969   2.181   8.675
  121OSM   H13S12822   6.975   2.292   8.670
  121OSM   H13T12823   6.872   2.156   8.722
  121OSM   C14S12824   6.969   2.127   8.531
  121OSM   H14S12825   7.062   2.163   8.481
  121OSM   H14T12826   6.883   2.173   8.477
  121OSM   C15S12827   6.957   1.975   8.514
  121OSM   H15S12828   6.859   1.939   8.554
  121OSM   H15T12829   7.037   1.926   8.574
  121OSM   C16S12830   6.973   1.931   8.368
  121OSM   H16S12831   7.033   1.837   8.364
  121OSM   H16T12832   7.029   2.009   8.312
  121OSM   C17S12833   6.840   1.905   8.296
  121OSM   H17S12834   6.775   1.993   8.313
  121OSM   H17T12835   6.790   1.817   8.341
  121OSM   C18S12836   6.857   1.884   8.145
  121OSM   H18S12837   6.926   1.799   8.125
  121OSM   H18T12838   6.899   1.975   8.098
  121OSM   H18U12839   6.759   1.862   8.097
  121OSM    C1F12840   6.970   2.055   9.616
  121OSM     OF12841   6.917   2.038   9.725
  121OSM    C2F12842   6.893   2.041   9.488
  121OSM    H2F12843   6.960   2.056   9.401
  121OSM    H2G12844   6.813   2.119   9.486
  121OSM    C3F12845   6.825   1.902   9.481
  121OSM    H3F12846   6.765   1.897   9.388
  121OSM    H3G12847   6.753   1.892   9.566
  121OSM    C4F12848   6.924   1.784   9.487
  121OSM    H4F12849   6.866   1.689   9.479
  121OSM    H4G12850   6.974   1.783   9.586
  121OSM    C5F12851   7.031   1.787   9.376
  121OSM    H5F12852   7.086   1.690   9.381
  121OSM    H5G12853   7.105   1.867   9.396
  121OSM    C6F12854   6.973   1.807   9.235
  121OSM    H6F12855   6.976   1.915   9.209
  121OSM    H6G12856   6.866   1.776   9.237
  121OSM    C7F12857   7.039   1.725   9.124
  121OSM    H7F12858   6.998   1.758   9.026
  121OSM    H7G12859   7.003   1.620   9.133
  121OSM    C8F12860   7.192   1.725   9.124
  121OSM    H8F12861   7.228   1.633   9.074
  121OSM    H8G12862   7.235   1.722   9.227
  121OSM    C9F12863   7.239   1.847   9.051
  121OSM    H9F12864   7.258   1.935   9.113
  121OSM   C10F12865   7.254   1.853   8.917
  121OSM   H10F12866   7.286   1.948   8.871
  121OSM   C11F12867   7.228   1.740   8.820
  121OSM   H11F12868   7.153   1.772   8.745
  121OSM   H11G12869   7.185   1.651   8.871
  121OSM   C12F12870   7.357   1.693   8.751
  121OSM   H12F12871   7.331   1.611   8.681
  121OSM   H12G12872   7.426   1.651   8.828
  121OSM   C13F12873   7.429   1.803   8.673
  121OSM   H13F12874   7.519   1.761   8.624
  121OSM   H13G12875   7.463   1.881   8.744
  121OSM   C14F12876   7.340   1.868   8.567
  121OSM   H14F12877   7.251   1.914   8.615
  121OSM   H14G12878   7.303   1.788   8.499
  121OSM   C15F12879   7.411   1.977   8.488
  121OSM   H15F12880   7.510   1.941   8.452
  121OSM   H15G12881   7.429   2.064   8.556
  121OSM   C16F12882   7.326   2.022   8.370
  121OSM   H16F12883   7.368   2.117   8.331
  121OSM   H16G12884   7.223   2.044   8.407
  121OSM   C17F12885   7.320   1.920   8.255
  121OSM   H17F12886   7.238   1.949   8.187
  121OSM   H17G12887   7.294   1.819   8.293
  121OSM   C18F12888   7.452   1.915   8.177
  121OSM   H18F12889   7.526   1.851   8.229
  121OSM   H18G12890   7.494   2.017   8.165
  121OSM   H18H12891   7.434   1.873   8.075
  122OSM      N12892   0.537   0.101  10.113
  122OSM    C1512893   0.500   0.181   9.992
  122OSM   H15A12894   0.394   0.169   9.977
  122OSM   H15B12895   0.551   0.148   9.902
  122OSM   H15C12896   0.511   0.287  10.009
  122OSM    C1412897   0.487  -0.039  10.090
  122OSM   H14A12898   0.379  -0.039  10.086
  122OSM   H14B12899   0.517  -0.106  10.170
  122OSM   H14C12900   0.523  -0.081   9.997
  122OSM    C1312901   0.684   0.095  10.138
  122OSM   H13A12902   0.739   0.077  10.047
  122OSM   H13B12903   0.704   0.014  10.206
  122OSM   H13C12904   0.720   0.184  10.188
  122OSM    C1212905   0.465   0.164  10.232
  122OSM   H12A12906   0.467   0.271  10.221
  122OSM   H12B12907   0.516   0.139  10.324
  122OSM    C1112908   0.315   0.130  10.249
  122OSM   H11A12909   0.280   0.184  10.340
  122OSM   H11B12910   0.300   0.022  10.269
  122OSM      P12911   0.102   0.237  10.144
  122OSM    O1312912   0.008   0.131  10.186
  122OSM    O1412913   0.110   0.352  10.236
  122OSM    O1112914   0.069   0.287   9.994
  122OSM    O1212915   0.244   0.169  10.132
  122OSM    C1S12916   0.178   0.293   9.901
  122OSM    H1S12917   0.229   0.195   9.900
  122OSM    H1T12918   0.253   0.368   9.935
  122OSM     NF12919   0.254   0.274   9.674
  122OSM    HNF12920   0.318   0.341   9.638
  122OSM    C2S12921   0.141   0.327   9.751
  122OSM    H2S12922   0.048   0.271   9.726
  122OSM    C3S12923   0.111   0.484   9.741
  122OSM    H3S12924   0.187   0.541   9.797
  122OSM     O312925  -0.012   0.507   9.809
  122OSM    HO312926  -0.021   0.432   9.869
  122OSM    C4S12927   0.087   0.553   9.603
  122OSM    H4S12928  -0.018   0.545   9.570
  122OSM    C5S12929   0.164   0.639   9.528
  122OSM    H5S12930   0.263   0.665   9.566
  122OSM    C6S12931   0.132   0.708   9.392
  122OSM    H6S12932   0.172   0.811   9.403
  122OSM    H6T12933   0.023   0.727   9.384
  122OSM    C7S12934   0.185   0.677   9.242
  122OSM    H7S12935   0.293   0.653   9.245
  122OSM    H7T12936   0.175   0.767   9.179
  122OSM    C8S12937   0.108   0.568   9.162
  122OSM    H8S12938   0.004   0.600   9.141
  122OSM    H8T12939   0.101   0.483   9.232
  122OSM    C9S12940   0.159   0.503   9.032
  122OSM    H9S12941   0.268   0.521   9.018
  122OSM    H9T12942   0.105   0.550   8.947
  122OSM   C10S12943   0.132   0.351   9.039
  122OSM   H10S12944   0.059   0.332   9.121
  122OSM   H10T12945   0.227   0.299   9.065
  122OSM   C11S12946   0.062   0.277   8.925
  122OSM   H11S12947  -0.043   0.254   8.952
  122OSM   H11T12948   0.113   0.179   8.915
  122OSM   C12S12949   0.062   0.351   8.793
  122OSM   H12S12950   0.158   0.403   8.778
  122OSM   H12T12951  -0.019   0.427   8.800
  122OSM   C13S12952   0.038   0.258   8.676
  122OSM   H13S12953   0.030   0.319   8.583
  122OSM   H13T12954  -0.057   0.202   8.687
  122OSM   C14S12955   0.155   0.159   8.661
  122OSM   H14S12956   0.143   0.077   8.735
  122OSM   H14T12957   0.252   0.209   8.680
  122OSM   C15S12958   0.155   0.099   8.522
  122OSM   H15S12959   0.049   0.074   8.499
  122OSM   H15T12960   0.215   0.005   8.521
  122OSM   C16S12961   0.211   0.195   8.416
  122OSM   H16S12962   0.317   0.165   8.400
  122OSM   H16T12963   0.212   0.299   8.455
  122OSM   C17S12964   0.132   0.193   8.285
  122OSM   H17S12965   0.104   0.087   8.264
  122OSM   H17T12966   0.194   0.221   8.197
  122OSM   C18S12967   0.013   0.287   8.286
  122OSM   H18S12968  -0.052   0.264   8.373
  122OSM   H18T12969  -0.046   0.280   8.192
  122OSM   H18U12970   0.048   0.392   8.296
  122OSM    C1F12971   0.271   0.140   9.657
  122OSM     OF12972   0.190   0.064   9.708
  122OSM    C2F12973   0.390   0.084   9.581
  122OSM    H2F12974   0.439   0.010   9.647
  122OSM    H2G12975   0.465   0.164   9.560
  122OSM    C3F12976   0.353   0.008   9.449
  122OSM    H3F12977   0.243   0.005   9.433
  122OSM    H3G12978   0.380  -0.099   9.464
  122OSM    C4F12979   0.420   0.061   9.320
  122OSM    H4F12980   0.527   0.030   9.325
  122OSM    H4G12981   0.420   0.172   9.316
  122OSM    C5F12982   0.356   0.014   9.189
  122OSM    H5F12983   0.264   0.073   9.167
  122OSM    H5G12984   0.327  -0.092   9.203
  122OSM    C6F12985   0.449   0.015   9.066
  122OSM    H6F12986   0.458  -0.091   9.032
  122OSM    H6G12987   0.550   0.050   9.096
  122OSM    C7F12988   0.413   0.098   8.943
  122OSM    H7F12989   0.421   0.206   8.968
  122OSM    H7G12990   0.308   0.079   8.911
  122OSM    C8F12991   0.512   0.065   8.828
  122OSM    H8F12992   0.597   0.010   8.872
  122OSM    H8G12993   0.554   0.161   8.792
  122OSM    C9F12994   0.455  -0.017   8.715
  122OSM    H9F12995   0.398  -0.106   8.745
  122OSM   C10F12996   0.479   0.002   8.585
  122OSM   H10F12997   0.438  -0.067   8.510
  122OSM   C11F12998   0.569   0.110   8.530
  122OSM   H11F12999   0.563   0.205   8.589
  122OSM   H11G13000   0.541   0.135   8.425
  122OSM   C12F13001   0.710   0.052   8.536
  122OSM   H12F13002   0.712  -0.030   8.461
  122OSM   H12G13003   0.734   0.012   8.637
  122OSM   C13F13004   0.823   0.146   8.496
  122OSM   H13F13005   0.919   0.091   8.496
  122OSM   H13G13006   0.830   0.229   8.569
  122OSM   C14F13007   0.799   0.205   8.357
  122OSM   H14F13008   0.887   0.269   8.336
  122OSM   H14G13009   0.707   0.268   8.360
  122OSM   C15F13010   0.783   0.109   8.240
  122OSM   H15F13011   0.683   0.061   8.246
  122OSM   H15G13012   0.860   0.028   8.245
  122OSM   C16F13013   0.796   0.186   8.108
  122OSM   H16F13014   0.901   0.176   8.074
  122OSM   H16G13015   0.773   0.293   8.123
  122OSM   C17F13016   0.704   0.129   8.002
  122OSM   H17F13017   0.597   0.149   8.023
  122OSM   H17G13018   0.718   0.020   8.015
  122OSM   C18F13019   0.734   0.170   7.858
  122OSM   H18F13020   0.843   0.165   7.836
  122OSM   H18G13021   0.697   0.274   7.843
  122OSM   H18H13022   0.680   0.104   7.786
  123OSM      N13023   3.482   4.737   5.898
  123OSM    C1513024   3.534   4.602   5.861
  123OSM   H15A13025   3.473   4.561   5.782
  123OSM   H15B13026   3.526   4.534   5.944
  123OSM   H15C13027   3.637   4.606   5.827
  123OSM    C1413028   3.564   4.786   6.014
  123OSM   H14A13029   3.557   4.717   6.097
  123OSM   H14B13030   3.530   4.883   6.045
  123OSM   H14C13031   3.668   4.793   5.986
  123OSM    C1313032   3.500   4.825   5.779
  123OSM   H13A13033   3.603   4.832   5.749
  123OSM   H13B13034   3.464   4.926   5.794
  123OSM   H13C13035   3.446   4.785   5.695
  123OSM    C1213036   3.335   4.727   5.936
  123OSM   H12A13037   3.302   4.819   5.980
  123OSM   H12B13038   3.324   4.650   6.011
  123OSM    C1113039   3.234   4.689   5.823
  123OSM   H11A13040   3.235   4.769   5.746
  123OSM   H11B13041   3.131   4.688   5.865
  123OSM      P13042   3.236   4.428   5.834
  123OSM    O1313043   3.092   4.397   5.820
  123OSM    O1413044   3.337   4.331   5.789
  123OSM    O1113045   3.267   4.466   5.985
  123OSM    O1213046   3.266   4.565   5.760
  123OSM    C1S13047   3.339   4.369   6.062
  123OSM    H1S13048   3.441   4.354   6.022
  123OSM    H1T13049   3.288   4.270   6.057
  123OSM     NF13050   3.221   4.434   6.276
  123OSM    HNF13051   3.223   4.504   6.347
  123OSM    C2S13052   3.350   4.404   6.214
  123OSM    H2S13053   3.395   4.315   6.262
  123OSM    C3S13054   3.451   4.517   6.244
  123OSM    H3S13055   3.410   4.614   6.206
  123OSM     O313056   3.578   4.500   6.181
  123OSM    HO313057   3.627   4.444   6.241
  123OSM    C4S13058   3.470   4.524   6.394
  123OSM    H4S13059   3.507   4.431   6.441
  123OSM    C5S13060   3.445   4.631   6.472
  123OSM    H5S13061   3.409   4.723   6.425
  123OSM    C6S13062   3.461   4.641   6.622
  123OSM    H6S13063   3.371   4.690   6.663
  123OSM    H6T13064   3.546   4.709   6.644
  123OSM    C7S13065   3.482   4.514   6.710
  123OSM    H7S13066   3.583   4.472   6.692
  123OSM    H7T13067   3.408   4.435   6.685
  123OSM    C8S13068   3.466   4.553   6.858
  123OSM    H8S13069   3.359   4.571   6.881
  123OSM    H8T13070   3.516   4.651   6.872
  123OSM    C9S13071   3.527   4.455   6.961
  123OSM    H9S13072   3.612   4.403   6.914
  123OSM    H9T13073   3.454   4.376   6.990
  123OSM   C10S13074   3.580   4.528   7.087
  123OSM   H10S13075   3.627   4.624   7.056
  123OSM   H10T13076   3.661   4.468   7.134
  123OSM   C11S13077   3.472   4.558   7.190
  123OSM   H11S13078   3.420   4.463   7.218
  123OSM   H11T13079   3.397   4.624   7.142
  123OSM   C12S13080   3.520   4.628   7.318
  123OSM   H12S13081   3.576   4.720   7.292
  123OSM   H12T13082   3.589   4.562   7.375
  123OSM   C13S13083   3.398   4.665   7.402
  123OSM   H13S13084   3.346   4.571   7.431
  123OSM   H13T13085   3.331   4.722   7.335
  123OSM   C14S13086   3.421   4.750   7.527
  123OSM   H14S13087   3.324   4.799   7.554
  123OSM   H14T13088   3.493   4.831   7.505
  123OSM   C15S13089   3.467   4.670   7.649
  123OSM   H15S13090   3.568   4.631   7.621
  123OSM   H15T13091   3.402   4.582   7.666
  123OSM   C16S13092   3.469   4.759   7.775
  123OSM   H16S13093   3.368   4.759   7.822
  123OSM   H16T13094   3.488   4.863   7.741
  123OSM   C17S13095   3.575   4.726   7.881
  123OSM   H17S13096   3.544   4.646   7.951
  123OSM   H17T13097   3.591   4.817   7.943
  123OSM   C18S13098   3.708   4.683   7.821
  123OSM   H18S13099   3.783   4.671   7.901
  123OSM   H18T13100   3.742   4.759   7.747
  123OSM   H18U13101   3.700   4.584   7.770
  123OSM    C1F13102   3.106   4.367   6.261
  123OSM     OF13103   3.074   4.305   6.161
  123OSM    C2F13104   3.012   4.377   6.375
  123OSM    H2F13105   2.919   4.320   6.350
  123OSM    H2G13106   2.984   4.483   6.389
  123OSM    C3F13107   3.073   4.318   6.504
  123OSM    H3F13108   3.174   4.360   6.526
  123OSM    H3G13109   3.083   4.208   6.492
  123OSM    C4F13110   2.981   4.347   6.622
  123OSM    H4F13111   2.999   4.274   6.704
  123OSM    H4G13112   2.878   4.328   6.585
  123OSM    C5F13113   2.992   4.491   6.673
  123OSM    H5F13114   2.895   4.525   6.715
  123OSM    H5G13115   3.016   4.560   6.589
  123OSM    C6F13116   3.098   4.507   6.783
  123OSM    H6F13117   3.111   4.616   6.801
  123OSM    H6G13118   3.195   4.466   6.747
  123OSM    C7F13119   3.058   4.437   6.914
  123OSM    H7F13120   3.063   4.327   6.900
  123OSM    H7G13121   2.952   4.462   6.938
  123OSM    C8F13122   3.147   4.474   7.034
  123OSM    H8F13123   3.251   4.442   7.012
  123OSM    H8G13124   3.116   4.412   7.121
  123OSM    C9F13125   3.141   4.622   7.064
  123OSM    H9F13126   3.217   4.683   7.013
  123OSM   C10F13127   3.052   4.683   7.146
  123OSM   H10F13128   3.059   4.792   7.161
  123OSM   C11F13129   2.943   4.613   7.222
  123OSM   H11F13130   2.955   4.503   7.209
  123OSM   H11G13131   2.843   4.639   7.181
  123OSM   C12F13132   2.942   4.634   7.374
  123OSM   H12F13133   2.873   4.560   7.419
  123OSM   H12G13134   2.904   4.736   7.399
  123OSM   C13F13135   3.082   4.616   7.435
  123OSM   H13F13136   3.137   4.711   7.417
  123OSM   H13G13137   3.135   4.535   7.381
  123OSM   C14F13138   3.085   4.586   7.585
  123OSM   H14F13139   3.009   4.647   7.637
  123OSM   H14G13140   3.184   4.615   7.626
  123OSM   C15F13141   3.066   4.437   7.613
  123OSM   H15F13142   3.159   4.391   7.653
  123OSM   H15G13143   3.044   4.385   7.517
  123OSM   C16F13144   2.948   4.409   7.706
  123OSM   H16F13145   2.912   4.307   7.682
  123OSM   H16G13146   2.866   4.482   7.686
  123OSM   C17F13147   2.981   4.407   7.855
  123OSM   H17F13148   2.890   4.417   7.917
  123OSM   H17G13149   3.045   4.495   7.878
  123OSM   C18F13150   3.045   4.275   7.894
  123OSM   H18F13151   3.129   4.253   7.825
  123OSM   H18G13152   2.972   4.192   7.886
  123OSM   H18H13153   3.084   4.277   7.998
  124OSM      N13154   5.166   2.960   5.957
  124OSM    C1513155   5.173   3.003   5.814
  124OSM   H15A13156   5.075   3.015   5.770
  124OSM   H15B13157   5.225   2.928   5.757
  124OSM   H15C13158   5.228   3.096   5.802
  124OSM    C1413159   5.306   2.945   6.008
  124OSM   H14A13160   5.311   2.911   6.110
  124OSM   H14B13161   5.364   3.035   5.997
  124OSM   H14C13162   5.355   2.867   5.951
  124OSM    C1313163   5.094   3.065   6.037
  124OSM   H13A13164   5.147   3.159   6.030
  124OSM   H13B13165   5.087   3.038   6.141
  124OSM   H13C13166   4.995   3.083   5.998
  124OSM    C1213167   5.095   2.826   5.964
  124OSM   H12A13168   4.989   2.842   5.952
  124OSM   H12B13169   5.111   2.785   6.063
  124OSM    C1113170   5.138   2.716   5.861
  124OSM   H11A13171   5.102   2.745   5.760
  124OSM   H11B13172   5.088   2.621   5.889
  124OSM      P13173   5.355   2.579   5.794
  124OSM    O1313174   5.291   2.536   5.668
  124OSM    O1413175   5.499   2.610   5.791
  124OSM    O1113176   5.332   2.464   5.898
  124OSM    O1213177   5.279   2.701   5.859
  124OSM    C1S13178   5.391   2.472   6.029
  124OSM    H1S13179   5.481   2.537   6.033
  124OSM    H1T13180   5.425   2.370   6.059
  124OSM     NF13181   5.358   2.548   6.259
  124OSM    HNF13182   5.378   2.467   6.314
  124OSM    C2S13183   5.289   2.522   6.134
  124OSM    H2S13184   5.245   2.617   6.097
  124OSM    C3S13185   5.176   2.417   6.148
  124OSM    H3S13186   5.217   2.319   6.182
  124OSM     O313187   5.106   2.393   6.026
  124OSM    HO313188   5.170   2.418   5.959
  124OSM    C4S13189   5.078   2.470   6.247
  124OSM    H4S13190   5.004   2.540   6.206
  124OSM    C5S13191   5.073   2.438   6.377
  124OSM    H5S13192   5.142   2.364   6.421
  124OSM    C6S13193   4.970   2.498   6.467
  124OSM    H6S13194   4.875   2.448   6.440
  124OSM    H6T13195   4.957   2.607   6.448
  124OSM    C7S13196   4.991   2.476   6.617
  124OSM    H7S13197   4.997   2.368   6.641
  124OSM    H7T13198   4.902   2.516   6.670
  124OSM    C8S13199   5.114   2.551   6.666
  124OSM    H8S13200   5.105   2.656   6.631
  124OSM    H8T13201   5.206   2.507   6.622
  124OSM    C9S13202   5.124   2.550   6.818
  124OSM    H9S13203   5.141   2.446   6.852
  124OSM    H9T13204   5.029   2.585   6.864
  124OSM   C10S13205   5.239   2.639   6.865
  124OSM   H10S13206   5.212   2.746   6.854
  124OSM   H10T13207   5.328   2.620   6.802
  124OSM   C11S13208   5.273   2.607   7.010
  124OSM   H11S13209   5.292   2.498   7.018
  124OSM   H11T13210   5.186   2.630   7.075
  124OSM   C12S13211   5.396   2.682   7.062
  124OSM   H12S13212   5.372   2.790   7.074
  124OSM   H12T13213   5.480   2.673   6.990
  124OSM   C13S13214   5.436   2.620   7.195
  124OSM   H13S13215   5.468   2.515   7.179
  124OSM   H13T13216   5.345   2.618   7.260
  124OSM   C14S13217   5.547   2.696   7.266
  124OSM   H14S13218   5.512   2.799   7.288
  124OSM   H14T13219   5.635   2.704   7.199
  124OSM   C15S13220   5.587   2.626   7.397
  124OSM   H15S13221   5.681   2.672   7.436
  124OSM   H15T13222   5.609   2.519   7.375
  124OSM   C16S13223   5.479   2.634   7.505
  124OSM   H16S13224   5.385   2.588   7.468
  124OSM   H16T13225   5.457   2.741   7.527
  124OSM   C17S13226   5.520   2.563   7.634
  124OSM   H17S13227   5.612   2.611   7.672
  124OSM   H17T13228   5.544   2.457   7.609
  124OSM   C18S13229   5.412   2.566   7.742
  124OSM   H18S13230   5.321   2.513   7.707
  124OSM   H18T13231   5.384   2.671   7.766
  124OSM   H18U13232   5.448   2.516   7.834
  124OSM    C1F13233   5.422   2.662   6.283
  124OSM     OF13234   5.427   2.749   6.197
  124OSM    C2F13235   5.489   2.676   6.416
  124OSM    H2F13236   5.585   2.731   6.402
  124OSM    H2G13237   5.512   2.576   6.457
  124OSM    C3F13238   5.400   2.754   6.516
  124OSM    H3F13239   5.454   2.761   6.613
  124OSM    H3G13240   5.306   2.698   6.534
  124OSM    C4F13241   5.365   2.897   6.469
  124OSM    H4F13242   5.301   2.893   6.379
  124OSM    H4G13243   5.460   2.946   6.440
  124OSM    C5F13244   5.296   2.983   6.576
  124OSM    H5F13245   5.305   3.090   6.545
  124OSM    H5G13246   5.349   2.972   6.674
  124OSM    C6F13247   5.148   2.953   6.599
  124OSM    H6F13248   5.140   2.851   6.642
  124OSM    H6G13249   5.093   2.956   6.503
  124OSM    C7F13250   5.084   3.053   6.697
  124OSM    H7F13251   5.095   3.156   6.656
  124OSM    H7G13252   5.139   3.050   6.794
  124OSM    C8F13253   4.934   3.027   6.723
  124OSM    H8F13254   4.880   3.034   6.627
  124OSM    H8G13255   4.896   3.109   6.787
  124OSM    C9F13256   4.908   2.893   6.788
  124OSM    H9F13257   4.887   2.811   6.717
  124OSM   C10F13258   4.910   2.866   6.920
  124OSM   H10F13259   4.889   2.763   6.953
  124OSM   C11F13260   4.939   2.963   7.031
  124OSM   H11F13261   4.857   2.960   7.105
  124OSM   H11G13262   4.947   3.068   6.996
  124OSM   C12F13263   5.071   2.928   7.104
  124OSM   H12F13264   5.156   2.942   7.034
  124OSM   H12G13265   5.069   2.822   7.135
  124OSM   C13F13266   5.093   3.014   7.229
  124OSM   H13F13267   5.007   2.999   7.297
  124OSM   H13G13268   5.094   3.122   7.200
  124OSM   C14F13269   5.224   2.980   7.302
  124OSM   H14F13270   5.308   3.001   7.233
  124OSM   H14G13271   5.226   2.871   7.325
  124OSM   C15F13272   5.245   3.061   7.432
  124OSM   H15F13273   5.244   3.169   7.406
  124OSM   H15G13274   5.346   3.037   7.472
  124OSM   C16F13275   5.141   3.035   7.542
  124OSM   H16F13276   5.039   3.057   7.503
  124OSM   H16G13277   5.160   3.106   7.626
  124OSM   C17F13278   5.144   2.892   7.598
  124OSM   H17F13279   5.244   2.873   7.643
  124OSM   H17G13280   5.130   2.819   7.515
  124OSM   C18F13281   5.035   2.867   7.703
  124OSM   H18F13282   5.043   2.763   7.744
  124OSM   H18G13283   4.934   2.879   7.658
  124OSM   H18H13284   5.045   2.938   7.788
  125OSM      N13285   5.261   4.390   5.729
  125OSM    C1513286   5.294   4.476   5.848
  125OSM   H15A13287   5.215   4.546   5.872
  125OSM   H15B13288   5.382   4.536   5.830
  125OSM   H15C13289   5.315   4.415   5.934
  125OSM    C1413290   5.137   4.310   5.758
  125OSM   H14A13291   5.159   4.245   5.841
  125OSM   H14B13292   5.110   4.248   5.675
  125OSM   H14C13293   5.053   4.373   5.783
  125OSM    C1313294   5.238   4.475   5.608
  125OSM   H13A13295   5.156   4.543   5.623
  125OSM   H13B13296   5.214   4.415   5.521
  125OSM   H13C13297   5.323   4.537   5.586
  125OSM    C1213298   5.378   4.295   5.706
  125OSM   H12A13299   5.467   4.340   5.749
  125OSM   H12B13300   5.395   4.284   5.600
  125OSM    C1113301   5.368   4.153   5.766
  125OSM   H11A13302   5.463   4.099   5.745
  125OSM   H11B13303   5.290   4.095   5.712
  125OSM      P13304   5.452   4.129   6.009
  125OSM    O1313305   5.479   3.984   6.007
  125OSM    O1413306   5.562   4.221   5.973
  125OSM    O1113307   5.388   4.170   6.147
  125OSM    O1213308   5.334   4.156   5.905
  125OSM    C1S13309   5.269   4.247   6.162
  125OSM    H1S13310   5.190   4.212   6.092
  125OSM    H1T13311   5.288   4.354   6.142
  125OSM     NF13312   5.290   4.304   6.404
  125OSM    HNF13313   5.345   4.249   6.467
  125OSM    C2S13314   5.209   4.233   6.306
  125OSM    H2S13315   5.108   4.278   6.307
  125OSM    C3S13316   5.195   4.081   6.336
  125OSM    H3S13317   5.286   4.024   6.306
  125OSM     O313318   5.084   4.022   6.266
  125OSM    HO313319   5.044   4.096   6.219
  125OSM    C4S13320   5.172   4.061   6.483
  125OSM    H4S13321   5.083   4.111   6.523
  125OSM    C5S13322   5.252   3.989   6.564
  125OSM    H5S13323   5.339   3.937   6.521
  125OSM    C6S13324   5.233   3.970   6.711
  125OSM    H6S13325   5.332   3.963   6.760
  125OSM    H6T13326   5.179   3.874   6.730
  125OSM    C7S13327   5.154   4.079   6.785
  125OSM    H7S13328   5.055   4.093   6.737
  125OSM    H7T13329   5.208   4.177   6.779
  125OSM    C8S13330   5.132   4.041   6.932
  125OSM    H8S13331   5.089   3.938   6.936
  125OSM    H8T13332   5.057   4.109   6.978
  125OSM    C9S13333   5.258   4.045   7.018
  125OSM    H9S13334   5.332   3.970   6.982
  125OSM    H9T13335   5.227   4.014   7.120
  125OSM   C10S13336   5.328   4.181   7.022
  125OSM   H10S13337   5.252   4.262   7.017
  125OSM   H10T13338   5.392   4.190   6.932
  125OSM   C11S13339   5.412   4.201   7.149
  125OSM   H11S13340   5.467   4.297   7.141
  125OSM   H11T13341   5.488   4.120   7.155
  125OSM   C12S13342   5.327   4.202   7.276
  125OSM   H12S13343   5.281   4.103   7.293
  125OSM   H12T13344   5.243   4.275   7.263
  125OSM   C13S13345   5.404   4.238   7.402
  125OSM   H13S13346   5.335   4.219   7.487
  125OSM   H13T13347   5.429   4.347   7.400
  125OSM   C14S13348   5.534   4.160   7.426
  125OSM   H14S13349   5.604   4.182   7.343
  125OSM   H14T13350   5.513   4.051   7.425
  125OSM   C15S13351   5.604   4.199   7.558
  125OSM   H15S13352   5.611   4.310   7.560
  125OSM   H15T13353   5.708   4.159   7.555
  125OSM   C16S13354   5.536   4.150   7.688
  125OSM   H16S13355   5.556   4.042   7.703
  125OSM   H16T13356   5.426   4.162   7.679
  125OSM   C17S13357   5.583   4.231   7.810
  125OSM   H17S13358   5.586   4.338   7.782
  125OSM   H17T13359   5.687   4.201   7.835
  125OSM   C18S13360   5.496   4.217   7.935
  125OSM   H18S13361   5.390   4.243   7.913
  125OSM   H18T13362   5.532   4.285   8.015
  125OSM   H18U13363   5.499   4.113   7.974
  125OSM    C1F13364   5.289   4.437   6.414
  125OSM     OF13365   5.240   4.506   6.325
  125OSM    C2F13366   5.349   4.497   6.538
  125OSM    H2F13367   5.310   4.601   6.549
  125OSM    H2G13368   5.459   4.504   6.524
  125OSM    C3F13369   5.318   4.417   6.668
  125OSM    H3F13370   5.362   4.315   6.658
  125OSM    H3G13371   5.209   4.406   6.680
  125OSM    C4F13372   5.377   4.480   6.796
  125OSM    H4F13373   5.473   4.530   6.771
  125OSM    H4G13374   5.398   4.401   6.870
  125OSM    C5F13375   5.282   4.581   6.862
  125OSM    H5F13376   5.189   4.530   6.895
  125OSM    H5G13377   5.252   4.654   6.785
  125OSM    C6F13378   5.343   4.659   6.981
  125OSM    H6F13379   5.278   4.748   6.990
  125OSM    H6G13380   5.445   4.695   6.953
  125OSM    C7F13381   5.348   4.585   7.116
  125OSM    H7F13382   5.425   4.505   7.108
  125OSM    H7G13383   5.251   4.533   7.132
  125OSM    C8F13384   5.381   4.670   7.244
  125OSM    H8F13385   5.489   4.696   7.236
  125OSM    H8G13386   5.370   4.606   7.334
  125OSM    C9F13387   5.298   4.796   7.257
  125OSM    H9F13388   5.271   4.837   7.159
  125OSM   C10F13389   5.258   4.873   7.361
  125OSM   H10F13390   5.195   4.959   7.332
  125OSM   C11F13391   5.280   4.868   7.510
  125OSM   H11F13392   5.269   4.970   7.553
  125OSM   H11G13393   5.384   4.835   7.530
  125OSM   C12F13394   5.187   4.774   7.585
  125OSM   H12F13395   5.247   4.681   7.579
  125OSM   H12G13396   5.092   4.757   7.530
  125OSM   C13F13397   5.158   4.802   7.734
  125OSM   H13F13398   5.097   4.895   7.742
  125OSM   H13G13399   5.254   4.820   7.787
  125OSM   C14F13400   5.083   4.683   7.802
  125OSM   H14F13401   5.130   4.589   7.767
  125OSM   H14G13402   4.978   4.678   7.768
  125OSM   C15F13403   5.090   4.667   7.954
  125OSM   H15F13404   4.990   4.683   7.999
  125OSM   H15G13405   5.157   4.746   7.994
  125OSM   C16F13406   5.144   4.530   8.003
  125OSM   H16F13407   5.128   4.529   8.113
  125OSM   H16G13408   5.253   4.526   7.981
  125OSM   C17F13409   5.085   4.396   7.956
  125OSM   H17F13410   5.151   4.315   7.994
  125OSM   H17G13411   5.090   4.390   7.845
  125OSM   C18F13412   4.944   4.366   8.003
  125OSM   H18F13413   4.942   4.351   8.113
  125OSM   H18G13414   4.903   4.276   7.954
  125OSM   H18H13415   4.879   4.453   7.979
  126OSM      N13416   2.188   3.034   5.929
  126OSM    C1513417   2.243   2.994   5.795
  126OSM   H15A13418   2.336   2.940   5.808
  126OSM   H15B13419   2.262   3.079   5.732
  126OSM   H15C13420   2.172   2.929   5.746
  126OSM    C1413421   2.170   2.908   6.007
  126OSM   H14A13422   2.093   2.848   5.961
  126OSM   H14B13423   2.140   2.929   6.109
  126OSM   H14C13424   2.262   2.851   6.009
  126OSM    C1313425   2.291   3.118   5.999
  126OSM   H13A13426   2.384   3.064   6.008
  126OSM   H13B13427   2.261   3.145   6.100
  126OSM   H13C13428   2.314   3.209   5.947
  126OSM    C1213429   2.055   3.107   5.911
  126OSM   H12A13430   2.074   3.209   5.882
  126OSM   H12B13431   2.006   3.112   6.007
  126OSM    C1113432   1.954   3.046   5.808
  126OSM   H11A13433   1.990   3.068   5.706
  126OSM   H11B13434   1.857   3.099   5.819
  126OSM      P13435   1.808   2.824   5.848
  126OSM    O1313436   1.722   2.830   5.727
  126OSM    O1413437   1.850   2.689   5.891
  126OSM    O1113438   1.733   2.898   5.966
  126OSM    O1213439   1.940   2.905   5.823
  126OSM    C1S13440   1.805   2.966   6.070
  126OSM    H1S13441   1.801   3.075   6.048
  126OSM    H1T13442   1.911   2.935   6.075
  126OSM     NF13443   1.837   3.004   6.310
  126OSM    HNF13444   1.853   2.949   6.391
  126OSM    C2S13445   1.749   2.942   6.213
  126OSM    H2S13446   1.650   2.991   6.222
  126OSM    C3S13447   1.733   2.791   6.239
  126OSM    H3S13448   1.828   2.741   6.211
  126OSM     O313449   1.633   2.736   6.155
  126OSM    HO313450   1.631   2.796   6.080
  126OSM    C4S13451   1.702   2.761   6.384
  126OSM    H4S13452   1.607   2.803   6.420
  126OSM    C5S13453   1.778   2.685   6.466
  126OSM    H5S13454   1.868   2.637   6.425
  126OSM    C6S13455   1.748   2.651   6.610
  126OSM    H6S13456   1.823   2.577   6.647
  126OSM    H6T13457   1.651   2.596   6.616
  126OSM    C7S13458   1.745   2.761   6.717
  126OSM    H7S13459   1.664   2.833   6.695
  126OSM    H7T13460   1.842   2.815   6.717
  126OSM    C8S13461   1.722   2.700   6.857
  126OSM    H8S13462   1.740   2.590   6.852
  126OSM    H8T13463   1.616   2.713   6.886
  126OSM    C9S13464   1.815   2.755   6.966
  126OSM    H9S13465   1.797   2.865   6.976
  126OSM    H9T13466   1.921   2.741   6.935
  126OSM   C10S13467   1.794   2.686   7.102
  126OSM   H10S13468   1.818   2.578   7.092
  126OSM   H10T13469   1.686   2.692   7.128
  126OSM   C11S13470   1.877   2.747   7.215
  126OSM   H11S13471   1.978   2.774   7.179
  126OSM   H11T13472   1.889   2.673   7.297
  126OSM   C12S13473   1.804   2.869   7.270
  126OSM   H12S13474   1.704   2.834   7.304
  126OSM   H12T13475   1.787   2.940   7.186
  126OSM   C13S13476   1.871   2.946   7.384
  126OSM   H13S13477   1.881   3.051   7.351
  126OSM   H13T13478   1.973   2.905   7.403
  126OSM   C14S13479   1.791   2.946   7.515
  126OSM   H14S13480   1.804   2.848   7.564
  126OSM   H14T13481   1.683   2.959   7.492
  126OSM   C15S13482   1.832   3.058   7.610
  126OSM   H15S13483   1.808   3.158   7.567
  126OSM   H15T13484   1.942   3.057   7.625
  126OSM   C16S13485   1.763   3.042   7.745
  126OSM   H16S13486   1.751   2.933   7.767
  126OSM   H16T13487   1.659   3.081   7.735
  126OSM   C17S13488   1.835   3.107   7.863
  126OSM   H17S13489   1.852   3.214   7.840
  126OSM   H17T13490   1.937   3.064   7.876
  126OSM   C18S13491   1.761   3.092   7.996
  126OSM   H18S13492   1.817   3.140   8.078
  126OSM   H18T13493   1.749   2.984   8.020
  126OSM   H18U13494   1.659   3.136   7.993
  126OSM    C1F13495   1.893   3.124   6.304
  126OSM     OF13496   1.855   3.213   6.230
  126OSM    C2F13497   2.012   3.139   6.393
  126OSM    H2F13498   1.979   3.190   6.486
  126OSM    H2G13499   2.087   3.205   6.343
  126OSM    C3F13500   2.076   3.001   6.425
  126OSM    H3F13501   2.101   2.947   6.331
  126OSM    H3G13502   2.005   2.938   6.483
  126OSM    C4F13503   2.202   3.010   6.511
  126OSM    H4F13504   2.285   3.057   6.455
  126OSM    H4G13505   2.234   2.908   6.539
  126OSM    C5F13506   2.172   3.091   6.637
  126OSM    H5F13507   2.062   3.091   6.655
  126OSM    H5G13508   2.204   3.196   6.622
  126OSM    C6F13509   2.233   3.033   6.763
  126OSM    H6F13510   2.344   3.029   6.753
  126OSM    H6G13511   2.196   2.930   6.780
  126OSM    C7F13512   2.195   3.123   6.880
  126OSM    H7F13513   2.086   3.143   6.880
  126OSM    H7G13514   2.246   3.219   6.861
  126OSM    C8F13515   2.234   3.062   7.014
  126OSM    H8F13516   2.329   3.007   7.000
  126OSM    H8G13517   2.156   2.991   7.050
  126OSM    C9F13518   2.264   3.174   7.107
  126OSM    H9F13519   2.334   3.243   7.058
  126OSM   C10F13520   2.230   3.193   7.235
  126OSM   H10F13521   2.267   3.283   7.287
  126OSM   C11F13522   2.150   3.099   7.319
  126OSM   H11F13523   2.108   3.016   7.258
  126OSM   H11G13524   2.065   3.152   7.366
  126OSM   C12F13525   2.240   3.037   7.428
  126OSM   H12F13526   2.340   3.011   7.389
  126OSM   H12G13527   2.193   2.941   7.458
  126OSM   C13F13528   2.255   3.128   7.550
  126OSM   H13F13529   2.159   3.177   7.575
  126OSM   H13G13530   2.328   3.208   7.524
  126OSM   C14F13531   2.306   3.052   7.674
  126OSM   H14F13532   2.365   3.125   7.733
  126OSM   H14G13533   2.374   2.970   7.644
  126OSM   C15F13534   2.194   3.000   7.766
  126OSM   H15F13535   2.120   3.081   7.783
  126OSM   H15G13536   2.239   2.973   7.863
  126OSM   C16F13537   2.125   2.875   7.709
  126OSM   H16F13538   2.208   2.805   7.685
  126OSM   H16G13539   2.074   2.899   7.613
  126OSM   C17F13540   2.023   2.805   7.800
  126OSM   H17F13541   1.975   2.720   7.746
  126OSM   H17G13542   1.938   2.874   7.821
  126OSM   C18F13543   2.078   2.756   7.932
  126OSM   H18F13544   2.167   2.691   7.920
  126OSM   H18G13545   1.999   2.700   7.987
  126OSM   H18H13546   2.110   2.844   7.993
  127OSM      N13547   3.969   1.701   5.700
  127OSM    C1513548   3.951   1.662   5.557
  127OSM   H15A13549   3.964   1.556   5.543
  127OSM   H15B13550   4.019   1.717   5.493
  127OSM   H15C13551   3.850   1.683   5.525
  127OSM    C1413552   3.940   1.847   5.712
  127OSM   H14A13553   3.838   1.870   5.685
  127OSM   H14B13554   4.009   1.906   5.653
  127OSM   H14C13555   3.953   1.876   5.816
  127OSM    C1313556   3.866   1.629   5.785
  127OSM   H13A13557   3.880   1.522   5.786
  127OSM   H13B13558   3.765   1.649   5.755
  127OSM   H13C13559   3.873   1.663   5.887
  127OSM    C1213560   4.110   1.669   5.747
  127OSM   H12A13561   4.180   1.730   5.692
  127OSM   H12B13562   4.132   1.566   5.724
  127OSM    C1113563   4.146   1.689   5.897
  127OSM   H11A13564   4.252   1.660   5.913
  127OSM   H11B13565   4.086   1.619   5.958
  127OSM      P13566   4.036   1.863   6.053
  127OSM    O1313567   4.018   2.010   6.057
  127OSM    O1413568   3.914   1.782   6.036
  127OSM    O1113569   4.115   1.810   6.179
  127OSM    O1213570   4.133   1.827   5.934
  127OSM    C1S13571   4.047   1.733   6.279
  127OSM    H1S13572   4.015   1.635   6.239
  127OSM    H1T13573   3.956   1.785   6.317
  127OSM     NF13574   4.067   1.637   6.503
  127OSM    HNF13575   3.972   1.664   6.520
  127OSM    C2S13576   4.140   1.710   6.401
  127OSM    H2S13577   4.226   1.650   6.363
  127OSM    C3S13578   4.198   1.847   6.448
  127OSM    H3S13579   4.114   1.919   6.460
  127OSM     O313580   4.289   1.903   6.355
  127OSM    HO313581   4.250   1.880   6.270
  127OSM    C4S13582   4.273   1.837   6.577
  127OSM    H4S13583   4.352   1.761   6.576
  127OSM    C5S13584   4.251   1.909   6.688
  127OSM    H5S13585   4.172   1.985   6.691
  127OSM    C6S13586   4.332   1.890   6.813
  127OSM    H6S13587   4.321   1.977   6.882
  127OSM    H6T13588   4.440   1.883   6.788
  127OSM    C7S13589   4.290   1.762   6.885
  127OSM    H7S13590   4.296   1.679   6.811
  127OSM    H7T13591   4.185   1.770   6.921
  127OSM    C8S13592   4.385   1.728   7.000
  127OSM    H8S13593   4.397   1.813   7.070
  127OSM    H8T13594   4.480   1.719   6.942
  127OSM    C9S13595   4.358   1.596   7.075
  127OSM    H9S13596   4.452   1.538   7.087
  127OSM    H9T13597   4.291   1.532   7.014
  127OSM   C10S13598   4.298   1.616   7.216
  127OSM   H10S13599   4.211   1.685   7.209
  127OSM   H10T13600   4.372   1.665   7.282
  127OSM   C11S13601   4.251   1.485   7.281
  127OSM   H11S13602   4.331   1.409   7.272
  127OSM   H11T13603   4.162   1.447   7.226
  127OSM   C12S13604   4.216   1.499   7.431
  127OSM   H12S13605   4.309   1.521   7.487
  127OSM   H12T13606   4.178   1.401   7.467
  127OSM   C13S13607   4.113   1.608   7.466
  127OSM   H13S13608   4.136   1.703   7.414
  127OSM   H13T13609   4.117   1.626   7.576
  127OSM   C14S13610   3.970   1.565   7.433
  127OSM   H14S13611   3.950   1.475   7.496
  127OSM   H14T13612   3.968   1.529   7.328
  127OSM   C15S13613   3.859   1.670   7.458
  127OSM   H15S13614   3.768   1.635   7.405
  127OSM   H15T13615   3.887   1.769   7.414
  127OSM   C16S13616   3.825   1.688   7.607
  127OSM   H16S13617   3.893   1.763   7.653
  127OSM   H16T13618   3.848   1.591   7.656
  127OSM   C17S13619   3.680   1.722   7.641
  127OSM   H17S13620   3.612   1.646   7.596
  127OSM   H17T13621   3.651   1.819   7.596
  127OSM   C18S13622   3.651   1.722   7.792
  127OSM   H18S13623   3.542   1.732   7.810
  127OSM   H18T13624   3.703   1.807   7.841
  127OSM   H18U13625   3.685   1.628   7.839
  127OSM    C1F13626   4.128   1.541   6.574
  127OSM     OF13627   4.246   1.516   6.551
  127OSM    C2F13628   4.049   1.470   6.680
  127OSM    H2F13629   3.996   1.384   6.635
  127OSM    H2G13630   3.974   1.540   6.722
  127OSM    C3F13631   4.144   1.420   6.792
  127OSM    H3F13632   4.208   1.505   6.824
  127OSM    H3G13633   4.212   1.343   6.750
  127OSM    C4F13634   4.079   1.364   6.920
  127OSM    H4F13635   4.159   1.348   6.995
  127OSM    H4G13636   4.036   1.264   6.896
  127OSM    C5F13637   3.968   1.450   6.985
  127OSM    H5F13638   3.944   1.405   7.084
  127OSM    H5G13639   3.878   1.439   6.921
  127OSM    C6F13640   4.000   1.599   7.005
  127OSM    H6F13641   4.006   1.651   6.907
  127OSM    H6G13642   4.101   1.605   7.052
  127OSM    C7F13643   3.904   1.677   7.097
  127OSM    H7F13644   3.872   1.611   7.181
  127OSM    H7G13645   3.810   1.704   7.045
  127OSM    C8F13646   3.955   1.811   7.153
  127OSM    H8F13647   4.040   1.792   7.222
  127OSM    H8G13648   3.874   1.852   7.217
  127OSM    C9F13649   3.988   1.912   7.047
  127OSM    H9F13650   3.917   1.916   6.963
  127OSM   C10F13651   4.095   1.993   7.046
  127OSM   H10F13652   4.113   2.060   6.960
  127OSM   C11F13653   4.203   1.996   7.151
  127OSM   H11F13654   4.291   2.053   7.116
  127OSM   H11G13655   4.237   1.891   7.167
  127OSM   C12F13656   4.159   2.048   7.288
  127OSM   H12F13657   4.054   2.019   7.310
  127OSM   H12G13658   4.164   2.159   7.291
  127OSM   C13F13659   4.247   1.987   7.398
  127OSM   H13F13660   4.351   2.025   7.384
  127OSM   H13G13661   4.251   1.877   7.388
  127OSM   C14F13662   4.198   2.024   7.538
  127OSM   H14F13663   4.138   2.117   7.530
  127OSM   H14G13664   4.286   2.043   7.602
  127OSM   C15F13665   4.112   1.918   7.606
  127OSM   H15F13666   4.171   1.824   7.619
  127OSM   H15G13667   4.025   1.897   7.540
  127OSM   C16F13668   4.063   1.967   7.742
  127OSM   H16F13669   3.974   1.908   7.774
  127OSM   H16G13670   4.031   2.073   7.731
  127OSM   C17F13671   4.168   1.959   7.853
  127OSM   H17F13672   4.259   2.014   7.822
  127OSM   H17G13673   4.198   1.853   7.867
  127OSM   C18F13674   4.115   2.017   7.984
  127OSM   H18F13675   4.189   2.001   8.065
  127OSM   H18G13676   4.020   1.967   8.014
  127OSM   H18H13677   4.096   2.125   7.972
  128OSM      N13678   4.597   5.668   5.745
  128OSM    C1513679   4.549   5.805   5.710
  128OSM   H15A13680   4.466   5.802   5.640
  128OSM   H15B13681   4.628   5.863   5.664
  128OSM   H15C13682   4.516   5.859   5.797
  128OSM    C1413683   4.648   5.597   5.623
  128OSM   H14A13684   4.571   5.586   5.548
  128OSM   H14B13685   4.680   5.499   5.652
  128OSM   H14C13686   4.733   5.648   5.579
  128OSM    C1313687   4.710   5.678   5.843
  128OSM   H13A13688   4.797   5.727   5.802
  128OSM   H13B13689   4.739   5.578   5.874
  128OSM   H13C13690   4.681   5.728   5.934
  128OSM    C1213691   4.485   5.585   5.808
  128OSM   H12A13692   4.392   5.604   5.755
  128OSM   H12B13693   4.472   5.617   5.910
  128OSM    C1113694   4.504   5.432   5.812
  128OSM   H11A13695   4.497   5.390   5.709
  128OSM   H11B13696   4.422   5.384   5.870
  128OSM      P13697   4.661   5.366   6.014
  128OSM    O1313698   4.663   5.219   6.023
  128OSM    O1413699   4.782   5.443   6.048
  128OSM    O1113700   4.536   5.426   6.093
  128OSM    O1213701   4.632   5.400   5.863
  128OSM    C1S13702   4.495   5.370   6.220
  128OSM    H1S13703   4.514   5.260   6.226
  128OSM    H1T13704   4.385   5.383   6.230
  128OSM     NF13705   4.505   5.376   6.466
  128OSM    HNF13706   4.406   5.372   6.474
  128OSM    C2S13707   4.562   5.436   6.345
  128OSM    H2S13708   4.670   5.414   6.338
  128OSM    C3S13709   4.545   5.591   6.344
  128OSM    H3S13710   4.436   5.614   6.346
  128OSM     O313711   4.596   5.656   6.228
  128OSM    HO313712   4.619   5.583   6.170
  128OSM    C4S13713   4.609   5.648   6.468
  128OSM    H4S13714   4.714   5.617   6.482
  128OSM    C5S13715   4.551   5.728   6.561
  128OSM    H5S13716   4.447   5.759   6.548
  128OSM    C6S13717   4.620   5.781   6.685
  128OSM    H6S13718   4.642   5.889   6.672
  128OSM    H6T13719   4.717   5.730   6.702
  128OSM    C7S13720   4.535   5.765   6.813
  128OSM    H7S13721   4.440   5.822   6.802
  128OSM    H7T13722   4.591   5.809   6.898
  128OSM    C8S13723   4.503   5.618   6.847
  128OSM    H8S13724   4.598   5.565   6.868
  128OSM    H8T13725   4.456   5.570   6.759
  128OSM    C9S13726   4.407   5.597   6.965
  128OSM    H9S13727   4.396   5.487   6.980
  128OSM    H9T13728   4.306   5.636   6.939
  128OSM   C10S13729   4.450   5.656   7.100
  128OSM   H10S13730   4.372   5.630   7.174
  128OSM   H10T13731   4.455   5.767   7.095
  128OSM   C11S13732   4.584   5.599   7.149
  128OSM   H11S13733   4.667   5.656   7.104
  128OSM   H11T13734   4.592   5.494   7.114
  128OSM   C12S13735   4.595   5.597   7.302
  128OSM   H12S13736   4.695   5.558   7.331
  128OSM   H12T13737   4.520   5.525   7.341
  128OSM   C13S13738   4.574   5.734   7.367
  128OSM   H13S13739   4.473   5.774   7.343
  128OSM   H13T13740   4.649   5.805   7.326
  128OSM   C14S13741   4.590   5.728   7.520
  128OSM   H14S13742   4.599   5.831   7.561
  128OSM   H14T13743   4.685   5.675   7.540
  128OSM   C15S13744   4.475   5.656   7.591
  128OSM   H15S13745   4.511   5.622   7.691
  128OSM   H15T13746   4.443   5.564   7.536
  128OSM   C16S13747   4.354   5.746   7.620
  128OSM   H16S13748   4.307   5.779   7.524
  128OSM   H16T13749   4.394   5.836   7.671
  128OSM   C17S13750   4.250   5.681   7.711
  128OSM   H17S13751   4.303   5.620   7.787
  128OSM   H17T13752   4.186   5.613   7.650
  128OSM   C18S13753   4.160   5.778   7.786
  128OSM   H18S13754   4.086   5.723   7.848
  128OSM   H18T13755   4.106   5.845   7.716
  128OSM   H18U13756   4.222   5.841   7.854
  128OSM    C1F13757   4.582   5.328   6.564
  128OSM     OF13758   4.703   5.324   6.553
  128OSM    C2F13759   4.512   5.289   6.692
  128OSM    H2F13760   4.402   5.290   6.675
  128OSM    H2G13761   4.534   5.366   6.768
  128OSM    C3F13762   4.556   5.153   6.749
  128OSM    H3F13763   4.586   5.084   6.666
  128OSM    H3G13764   4.471   5.104   6.801
  128OSM    C4F13765   4.672   5.167   6.849
  128OSM    H4F13766   4.749   5.237   6.811
  128OSM    H4G13767   4.720   5.067   6.859
  128OSM    C5F13768   4.625   5.207   6.990
  128OSM    H5F13769   4.532   5.150   7.013
  128OSM    H5G13770   4.600   5.315   6.991
  128OSM    C6F13771   4.730   5.175   7.097
  128OSM    H6F13772   4.827   5.219   7.066
  128OSM    H6G13773   4.744   5.065   7.099
  128OSM    C7F13774   4.697   5.225   7.239
  128OSM    H7F13775   4.692   5.336   7.235
  128OSM    H7G13776   4.779   5.198   7.309
  128OSM    C8F13777   4.563   5.174   7.295
  128OSM    H8F13778   4.489   5.188   7.213
  128OSM    H8G13779   4.529   5.242   7.376
  128OSM    C9F13780   4.561   5.031   7.341
  128OSM    H9F13781   4.582   4.958   7.261
  128OSM   C10F13782   4.538   4.983   7.464
  128OSM   H10F13783   4.543   4.875   7.481
  128OSM   C11F13784   4.507   5.063   7.589
  128OSM   H11F13785   4.492   4.990   7.671
  128OSM   H11G13786   4.410   5.114   7.574
  128OSM   C12F13787   4.615   5.165   7.632
  128OSM   H12F13788   4.617   5.251   7.562
  128OSM   H12G13789   4.715   5.117   7.623
  128OSM   C13F13790   4.606   5.220   7.776
  128OSM   H13F13791   4.547   5.314   7.775
  128OSM   H13G13792   4.709   5.246   7.809
  128OSM   C14F13793   4.548   5.127   7.881
  128OSM   H14F13794   4.606   5.032   7.879
  128OSM   H14G13795   4.442   5.101   7.857
  128OSM   C15F13796   4.554   5.183   8.023
  128OSM   H15F13797   4.461   5.238   8.046
  128OSM   H15G13798   4.635   5.259   8.031
  128OSM   C16F13799   4.577   5.067   8.122
  128OSM   H16F13800   4.659   5.001   8.085
  128OSM   H16G13801   4.483   5.007   8.119
  128OSM   C17F13802   4.607   5.104   8.267
  128OSM   H17F13803   4.715   5.131   8.276
  128OSM   H17G13804   4.592   5.014   8.330
  128OSM   C18F13805   4.523   5.219   8.321
  128OSM   H18F13806   4.553   5.314   8.271
  128OSM   H18G13807   4.539   5.228   8.430
  128OSM   H18H13808   4.415   5.201   8.303
  129OSM      N13809   2.496   1.826   5.798
  129OSM    C1513810   2.493   1.871   5.941
  129OSM   H15A13811   2.492   1.979   5.949
  129OSM   H15B13812   2.581   1.836   5.992
  129OSM   H15C13813   2.408   1.830   5.994
  129OSM    C1413814   2.378   1.882   5.725
  129OSM   H14A13815   2.285   1.846   5.767
  129OSM   H14B13816   2.384   1.854   5.621
  129OSM   H14C13817   2.377   1.990   5.731
  129OSM    C1313818   2.620   1.880   5.734
  129OSM   H13A13819   2.623   1.855   5.629
  129OSM   H13B13820   2.708   1.837   5.779
  129OSM   H13C13821   2.627   1.987   5.742
  129OSM    C1213822   2.494   1.674   5.792
  129OSM   H12A13823   2.514   1.643   5.690
  129OSM   H12B13824   2.395   1.638   5.816
  129OSM    C1113825   2.593   1.595   5.881
  129OSM   H11A13826   2.575   1.487   5.866
  129OSM   H11B13827   2.570   1.613   5.989
  129OSM      P13828   2.833   1.693   5.943
  129OSM    O1313829   2.922   1.587   5.994
  129OSM    O1413830   2.890   1.807   5.869
  129OSM    O1113831   2.744   1.752   6.062
  129OSM    O1213832   2.728   1.624   5.847
  129OSM    C1S13833   2.810   1.806   6.178
  129OSM    H1S13834   2.870   1.896   6.151
  129OSM    H1T13835   2.878   1.730   6.222
  129OSM     NF13836   2.774   1.905   6.405
  129OSM    HNF13837   2.780   1.850   6.488
  129OSM    C2S13838   2.708   1.847   6.290
  129OSM    H2S13839   2.639   1.922   6.247
  129OSM    C3S13840   2.624   1.722   6.329
  129OSM    H3S13841   2.692   1.639   6.359
  129OSM     O313842   2.544   1.677   6.222
  129OSM    HO313843   2.601   1.691   6.146
  129OSM    C4S13844   2.531   1.755   6.441
  129OSM    H4S13845   2.433   1.795   6.409
  129OSM    C5S13846   2.553   1.736   6.572
  129OSM    H5S13847   2.647   1.688   6.606
  129OSM    C6S13848   2.452   1.769   6.677
  129OSM    H6S13849   2.431   1.674   6.731
  129OSM    H6T13850   2.356   1.800   6.631
  129OSM    C7S13851   2.482   1.874   6.784
  129OSM    H7S13852   2.467   1.976   6.742
  129OSM    H7T13853   2.587   1.868   6.822
  129OSM    C8S13854   2.385   1.848   6.899
  129OSM    H8S13855   2.430   1.769   6.964
  129OSM    H8T13856   2.291   1.806   6.857
  129OSM    C9S13857   2.344   1.968   6.982
  129OSM    H9S13858   2.240   1.995   6.955
  129OSM    H9T13859   2.409   2.055   6.960
  129OSM   C10S13860   2.349   1.937   7.132
  129OSM   H10S13861   2.308   1.837   7.154
  129OSM   H10T13862   2.285   2.010   7.186
  129OSM   C11S13863   2.492   1.951   7.184
  129OSM   H11S13864   2.542   2.036   7.135
  129OSM   H11T13865   2.549   1.860   7.155
  129OSM   C12S13866   2.496   1.974   7.335
  129OSM   H12S13867   2.462   1.886   7.392
  129OSM   H12T13868   2.418   2.050   7.358
  129OSM   C13S13869   2.630   2.028   7.385
  129OSM   H13S13870   2.615   2.050   7.493
  129OSM   H13T13871   2.655   2.123   7.333
  129OSM   C14S13872   2.748   1.931   7.368
  129OSM   H14S13873   2.761   1.910   7.260
  129OSM   H14T13874   2.726   1.836   7.421
  129OSM   C15S13875   2.881   1.979   7.427
  129OSM   H15S13876   2.922   2.063   7.367
  129OSM   H15T13877   2.954   1.895   7.421
  129OSM   C16S13878   2.867   2.022   7.573
  129OSM   H16S13879   2.768   1.991   7.612
  129OSM   H16T13880   2.875   2.132   7.579
  129OSM   C17S13881   2.969   1.960   7.668
  129OSM   H17S13882   3.070   1.994   7.638
  129OSM   H17T13883   2.965   1.849   7.659
  129OSM   C18S13884   2.939   2.001   7.812
  129OSM   H18S13885   2.838   1.967   7.842
  129OSM   H18T13886   2.942   2.112   7.820
  129OSM   H18U13887   3.013   1.958   7.882
  129OSM    C1F13888   2.818   2.031   6.410
  129OSM     OF13889   2.808   2.104   6.312
  129OSM    C2F13890   2.871   2.079   6.543
  129OSM    H2F13891   2.890   2.188   6.535
  129OSM    H2G13892   2.968   2.028   6.564
  129OSM    C3F13893   2.771   2.050   6.659
  129OSM    H3F13894   2.759   1.941   6.675
  129OSM    H3G13895   2.672   2.091   6.629
  129OSM    C4F13896   2.807   2.116   6.793
  129OSM    H4F13897   2.715   2.127   6.855
  129OSM    H4G13898   2.845   2.219   6.773
  129OSM    C5F13899   2.911   2.042   6.879
  129OSM    H5F13900   2.947   2.113   6.957
  129OSM    H5G13901   2.999   2.017   6.815
  129OSM    C6F13902   2.861   1.916   6.951
  129OSM    H6F13903   2.823   1.842   6.877
  129OSM    H6G13904   2.777   1.942   7.019
  129OSM    C7F13905   2.977   1.854   7.032
  129OSM    H7F13906   3.016   1.933   7.099
  129OSM    H7G13907   3.057   1.828   6.960
  129OSM    C8F13908   2.949   1.728   7.117
  129OSM    H8F13909   2.888   1.757   7.205
  129OSM    H8G13910   3.046   1.696   7.161
  129OSM    C9F13911   2.891   1.608   7.046
  129OSM    H9F13912   2.958   1.558   6.974
  129OSM   C10F13913   2.766   1.563   7.060
  129OSM   H10F13914   2.735   1.470   7.009
  129OSM   C11F13915   2.661   1.625   7.147
  129OSM   H11F13916   2.567   1.632   7.089
  129OSM   H11G13917   2.690   1.730   7.170
  129OSM   C12F13918   2.632   1.559   7.283
  129OSM   H12F13919   2.723   1.559   7.346
  129OSM   H12G13920   2.603   1.453   7.264
  129OSM   C13F13921   2.520   1.638   7.353
  129OSM   H13F13922   2.451   1.680   7.277
  129OSM   H13G13923   2.570   1.723   7.403
  129OSM   C14F13924   2.434   1.570   7.460
  129OSM   H14F13925   2.365   1.497   7.412
  129OSM   H14G13926   2.367   1.647   7.504
  129OSM   C15F13927   2.513   1.503   7.573
  129OSM   H15F13928   2.573   1.420   7.531
  129OSM   H15G13929   2.441   1.458   7.645
  129OSM   C16F13930   2.606   1.600   7.649
  129OSM   H16F13931   2.692   1.624   7.583
  129OSM   H16G13932   2.648   1.547   7.738
  129OSM   C17F13933   2.542   1.733   7.694
  129OSM   H17F13934   2.517   1.792   7.603
  129OSM   H17G13935   2.619   1.792   7.749
  129OSM   C18F13936   2.416   1.722   7.781
  129OSM   H18F13937   2.442   1.688   7.883
  129OSM   H18G13938   2.344   1.650   7.737
  129OSM   H18H13939   2.366   1.820   7.789
  130OSM      N13940   5.253   5.260   5.669
  130OSM    C1513941   5.145   5.173   5.727
  130OSM   H15A13942   5.112   5.095   5.659
  130OSM   H15B13943   5.058   5.230   5.756
  130OSM   H15C13944   5.182   5.126   5.817
  130OSM    C1413945   5.369   5.172   5.630
  130OSM   H14A13946   5.338   5.095   5.561
  130OSM   H14B13947   5.407   5.123   5.719
  130OSM   H14C13948   5.450   5.229   5.587
  130OSM    C1313949   5.203   5.333   5.549
  130OSM   H13A13950   5.119   5.396   5.575
  130OSM   H13B13951   5.170   5.265   5.472
  130OSM   H13C13952   5.279   5.396   5.506
  130OSM    C1213953   5.295   5.357   5.778
  130OSM   H12A13954   5.206   5.394   5.827
  130OSM   H12B13955   5.344   5.443   5.736
  130OSM    C1113956   5.388   5.301   5.889
  130OSM   H11A13957   5.392   5.373   5.973
  130OSM   H11B13958   5.489   5.297   5.842
  130OSM      P13959   5.455   5.066   5.978
  130OSM    O1313960   5.389   4.941   6.020
  130OSM    O1413961   5.548   5.053   5.862
  130OSM    O1113962   5.530   5.137   6.098
  130OSM    O1213963   5.346   5.173   5.937
  130OSM    C1S13964   5.458   5.206   6.201
  130OSM    H1S13965   5.348   5.209   6.184
  130OSM    H1T13966   5.493   5.311   6.205
  130OSM     NF13967   5.424   5.240   6.442
  130OSM    HNF13968   5.486   5.279   6.510
  130OSM    C2S13969   5.481   5.147   6.345
  130OSM    H2S13970   5.428   5.050   6.353
  130OSM    C3S13971   5.634   5.121   6.366
  130OSM    H3S13972   5.690   5.209   6.329
  130OSM     O313973   5.684   5.008   6.294
  130OSM    HO313974   5.613   4.983   6.235
  130OSM    C4S13975   5.661   5.103   6.513
  130OSM    H4S13976   5.614   5.014   6.557
  130OSM    C5S13977   5.742   5.180   6.588
  130OSM    H5S13978   5.802   5.258   6.538
  130OSM    C6S13979   5.771   5.168   6.736
  130OSM    H6S13980   5.753   5.262   6.792
  130OSM    H6T13981   5.880   5.154   6.751
  130OSM    C7S13982   5.691   5.061   6.810
  130OSM    H7S13983   5.735   5.054   6.912
  130OSM    H7T13984   5.701   4.961   6.762
  130OSM    C8S13985   5.543   5.095   6.830
  130OSM    H8S13986   5.493   5.098   6.731
  130OSM    H8T13987   5.535   5.196   6.876
  130OSM    C9S13988   5.470   4.992   6.918
  130OSM    H9S13989   5.467   4.897   6.861
  130OSM    H9T13990   5.365   5.024   6.933
  130OSM   C10S13991   5.537   4.966   7.054
  130OSM   H10S13992   5.641   4.930   7.040
  130OSM   H10T13993   5.483   4.882   7.103
  130OSM   C11S13994   5.536   5.087   7.148
  130OSM   H11S13995   5.431   5.109   7.179
  130OSM   H11T13996   5.573   5.175   7.091
  130OSM   C12S13997   5.625   5.070   7.272
  130OSM   H12S13998   5.630   5.168   7.325
  130OSM   H12T13999   5.727   5.040   7.242
  130OSM   C13S14000   5.567   4.971   7.373
  130OSM   H13S14001   5.548   4.876   7.320
  130OSM   H13T14002   5.471   5.014   7.409
  130OSM   C14S14003   5.655   4.939   7.494
  130OSM   H14S14004   5.757   4.980   7.479
  130OSM   H14T14005   5.666   4.828   7.499
  130OSM   C15S14006   5.595   4.982   7.629
  130OSM   H15S14007   5.631   4.909   7.705
  130OSM   H15T14008   5.485   4.978   7.631
  130OSM   C16S14009   5.639   5.121   7.674
  130OSM   H16S14010   5.566   5.198   7.640
  130OSM   H16T14011   5.735   5.142   7.623
  130OSM   C17S14012   5.660   5.131   7.826
  130OSM   H17S14013   5.739   5.206   7.846
  130OSM   H17T14014   5.700   5.034   7.864
  130OSM   C18S14015   5.534   5.169   7.903
  130OSM   H18S14016   5.452   5.097   7.882
  130OSM   H18T14017   5.501   5.271   7.874
  130OSM   H18U14018   5.555   5.168   8.012
  130OSM    C1F14019   5.293   5.264   6.449
  130OSM     OF14020   5.214   5.190   6.393
  130OSM    C2F14021   5.249   5.389   6.519
  130OSM    H2F14022   5.172   5.439   6.456
  130OSM    H2G14023   5.337   5.456   6.527
  130OSM    C3F14024   5.192   5.368   6.661
  130OSM    H3F14025   5.105   5.299   6.657
  130OSM    H3G14026   5.154   5.466   6.697
  130OSM    C4F14027   5.296   5.314   6.759
  130OSM    H4F14028   5.388   5.377   6.756
  130OSM    H4G14029   5.322   5.212   6.726
  130OSM    C5F14030   5.247   5.307   6.905
  130OSM    H5F14031   5.324   5.255   6.966
  130OSM    H5G14032   5.154   5.247   6.908
  130OSM    C6F14033   5.225   5.445   6.966
  130OSM    H6F14034   5.143   5.497   6.912
  130OSM    H6G14035   5.319   5.503   6.950
  130OSM    C7F14036   5.191   5.444   7.115
  130OSM    H7F14037   5.160   5.546   7.145
  130OSM    H7G14038   5.282   5.418   7.174
  130OSM    C8F14039   5.080   5.343   7.146
  130OSM    H8F14040   5.122   5.241   7.136
  130OSM    H8G14041   5.002   5.354   7.068
  130OSM    C9F14042   5.018   5.361   7.281
  130OSM    H9F14043   4.922   5.416   7.281
  130OSM   C10F14044   5.068   5.317   7.397
  130OSM   H10F14045   5.005   5.327   7.486
  130OSM   C11F14046   5.195   5.241   7.421
  130OSM   H11F14047   5.269   5.255   7.339
  130OSM   H11G14048   5.172   5.133   7.425
  130OSM   C12F14049   5.260   5.276   7.556
  130OSM   H12F14050   5.304   5.378   7.553
  130OSM   H12G14051   5.345   5.206   7.571
  130OSM   C13F14052   5.165   5.262   7.677
  130OSM   H13F14053   5.212   5.193   7.749
  130OSM   H13G14054   5.070   5.213   7.646
  130OSM   C14F14055   5.134   5.393   7.752
  130OSM   H14F14056   5.228   5.418   7.805
  130OSM   H14G14057   5.061   5.376   7.835
  130OSM   C15F14058   5.091   5.519   7.673
  130OSM   H15F14059   5.158   5.533   7.586
  130OSM   H15G14060   5.111   5.604   7.741
  130OSM   C16F14061   4.945   5.536   7.626
  130OSM   H16F14062   4.939   5.514   7.517
  130OSM   H16G14063   4.920   5.644   7.632
  130OSM   C17F14064   4.835   5.455   7.696
  130OSM   H17F14065   4.876   5.368   7.751
  130OSM   H17G14066   4.770   5.413   7.616
  130OSM   C18F14067   4.745   5.538   7.788
  130OSM   H18F14068   4.646   5.490   7.802
  130OSM   H18G14069   4.729   5.640   7.747
  130OSM   H18H14070   4.790   5.549   7.889
  131OSM      N14071   3.359   1.127   5.765
  131OSM    C1514072   3.334   0.990   5.712
  131OSM   H15A14073   3.254   0.940   5.765
  131OSM   H15B14074   3.421   0.927   5.715
  131OSM   H15C14075   3.303   0.994   5.608
  131OSM    C1414076   3.400   1.126   5.908
  131OSM   H14A14077   3.491   1.069   5.924
  131OSM   H14B14078   3.321   1.091   5.973
  131OSM   H14C14079   3.419   1.228   5.938
  131OSM    C1314080   3.471   1.190   5.687
  131OSM   H13A14081   3.454   1.183   5.581
  131OSM   H13B14082   3.567   1.144   5.709
  131OSM   H13C14083   3.477   1.295   5.712
  131OSM    C1214084   3.234   1.213   5.749
  131OSM   H12A14085   3.148   1.158   5.785
  131OSM   H12B14086   3.215   1.229   5.644
  131OSM    C1114087   3.235   1.351   5.818
  131OSM   H11A14088   3.238   1.335   5.927
  131OSM   H11B14089   3.139   1.404   5.797
  131OSM      P14090   3.386   1.561   5.842
  131OSM    O1314091   3.531   1.579   5.813
  131OSM    O1414092   3.293   1.667   5.797
  131OSM    O1114093   3.362   1.519   5.995
  131OSM    O1214094   3.344   1.428   5.769
  131OSM    C1S14095   3.471   1.447   6.057
  131OSM    H1S14096   3.558   1.516   6.061
  131OSM    H1T14097   3.502   1.359   5.997
  131OSM     NF14098   3.558   1.318   6.246
  131OSM    HNF14099   3.537   1.230   6.288
  131OSM    C2S14100   3.447   1.400   6.204
  131OSM    H2S14101   3.448   1.491   6.268
  131OSM    C3S14102   3.315   1.324   6.237
  131OSM    H3S14103   3.322   1.220   6.197
  131OSM     O314104   3.198   1.381   6.179
  131OSM    HO314105   3.230   1.448   6.118
  131OSM    C4S14106   3.298   1.320   6.388
  131OSM    H4S14107   3.256   1.413   6.428
  131OSM    C5S14108   3.324   1.220   6.476
  131OSM    H5S14109   3.362   1.124   6.437
  131OSM    C6S14110   3.306   1.225   6.627
  131OSM    H6S14111   3.404   1.208   6.677
  131OSM    H6T14112   3.244   1.138   6.656
  131OSM    C7S14113   3.243   1.351   6.693
  131OSM    H7S14114   3.174   1.400   6.621
  131OSM    H7T14115   3.320   1.427   6.718
  131OSM    C8S14116   3.157   1.319   6.817
  131OSM    H8S14117   3.105   1.222   6.804
  131OSM    H8T14118   3.078   1.397   6.824
  131OSM    C9S14119   3.231   1.321   6.952
  131OSM    H9S14120   3.290   1.415   6.959
  131OSM    H9T14121   3.303   1.236   6.958
  131OSM   C10S14122   3.134   1.316   7.071
  131OSM   H10S14123   3.053   1.391   7.053
  131OSM   H10T14124   3.187   1.347   7.163
  131OSM   C11S14125   3.067   1.180   7.094
  131OSM   H11S14126   3.145   1.111   7.134
  131OSM   H11T14127   3.033   1.138   6.997
  131OSM   C12S14128   2.946   1.183   7.189
  131OSM   H12S14129   2.918   1.078   7.213
  131OSM   H12T14130   2.860   1.229   7.136
  131OSM   C13S14131   2.969   1.260   7.320
  131OSM   H13S14132   2.878   1.253   7.384
  131OSM   H13T14133   2.986   1.367   7.298
  131OSM   C14S14134   3.088   1.204   7.398
  131OSM   H14S14135   3.176   1.194   7.331
  131OSM   H14T14136   3.060   1.102   7.433
  131OSM   C15S14137   3.134   1.286   7.519
  131OSM   H15S14138   3.054   1.285   7.596
  131OSM   H15T14139   3.152   1.391   7.489
  131OSM   C16S14140   3.263   1.225   7.573
  131OSM   H16S14141   3.337   1.228   7.491
  131OSM   H16T14142   3.256   1.116   7.592
  131OSM   C17S14143   3.324   1.291   7.696
  131OSM   H17S14144   3.319   1.402   7.689
  131OSM   H17T14145   3.430   1.259   7.690
  131OSM   C18S14146   3.274   1.241   7.830
  131OSM   H18S14147   3.271   1.130   7.834
  131OSM   H18T14148   3.172   1.282   7.851
  131OSM   H18U14149   3.344   1.277   7.908
  131OSM    C1F14150   3.682   1.364   6.260
  131OSM     OF14151   3.735   1.446   6.187
  131OSM    C2F14152   3.753   1.309   6.376
  131OSM    H2F14153   3.848   1.365   6.392
  131OSM    H2G14154   3.773   1.202   6.353
  131OSM    C3F14155   3.669   1.319   6.503
  131OSM    H3F14156   3.734   1.289   6.587
  131OSM    H3G14157   3.583   1.248   6.503
  131OSM    C4F14158   3.623   1.461   6.533
  131OSM    H4F14159   3.526   1.486   6.484
  131OSM    H4G14160   3.699   1.533   6.496
  131OSM    C5F14161   3.612   1.476   6.683
  131OSM    H5F14162   3.705   1.434   6.727
  131OSM    H5G14163   3.528   1.415   6.723
  131OSM    C6F14164   3.603   1.620   6.728
  131OSM    H6F14165   3.496   1.652   6.734
  131OSM    H6G14166   3.654   1.686   6.656
  131OSM    C7F14167   3.674   1.632   6.862
  131OSM    H7F14168   3.674   1.738   6.897
  131OSM    H7G14169   3.781   1.609   6.840
  131OSM    C8F14170   3.627   1.534   6.971
  131OSM    H8F14171   3.715   1.504   7.031
  131OSM    H8G14172   3.588   1.439   6.929
  131OSM    C9F14173   3.527   1.592   7.066
  131OSM    H9F14174   3.490   1.694   7.046
  131OSM   C10F14175   3.485   1.528   7.175
  131OSM   H10F14176   3.412   1.575   7.242
  131OSM   C11F14177   3.532   1.391   7.213
  131OSM   H11F14178   3.643   1.381   7.210
  131OSM   H11G14179   3.490   1.316   7.143
  131OSM   C12F14180   3.481   1.361   7.353
  131OSM   H12F14181   3.491   1.251   7.369
  131OSM   H12G14182   3.373   1.384   7.358
  131OSM   C13F14183   3.554   1.433   7.468
  131OSM   H13F14184   3.484   1.441   7.554
  131OSM   H13G14185   3.576   1.536   7.434
  131OSM   C14F14186   3.682   1.363   7.517
  131OSM   H14F14187   3.767   1.419   7.472
  131OSM   H14G14188   3.689   1.263   7.469
  131OSM   C15F14189   3.700   1.354   7.671
  131OSM   H15F14190   3.605   1.321   7.719
  131OSM   H15G14191   3.717   1.456   7.711
  131OSM   C16F14192   3.807   1.259   7.730
  131OSM   H16F14193   3.768   1.155   7.731
  131OSM   H16G14194   3.822   1.286   7.836
  131OSM   C17F14195   3.943   1.257   7.660
  131OSM   H17F14196   3.933   1.270   7.550
  131OSM   H17G14197   3.989   1.157   7.676
  131OSM   C18F14198   4.037   1.360   7.720
  131OSM   H18F14199   4.139   1.354   7.675
  131OSM   H18G14200   4.045   1.343   7.829
  131OSM   H18H14201   3.999   1.463   7.704
  132OSM      N14202   4.778   1.239   5.931
  132OSM    C1514203   4.820   1.228   5.788
  132OSM   H15A14204   4.793   1.321   5.739
  132OSM   H15B14205   4.768   1.148   5.737
  132OSM   H15C14206   4.926   1.214   5.779
  132OSM    C1414207   4.812   1.116   6.009
  132OSM   H14A14208   4.787   1.130   6.113
  132OSM   H14B14209   4.919   1.098   6.007
  132OSM   H14C14210   4.761   1.028   5.971
  132OSM    C1314211   4.859   1.351   5.992
  132OSM   H13A14212   4.965   1.334   5.981
  132OSM   H13B14213   4.838   1.358   6.098
  132OSM   H13C14214   4.830   1.444   5.947
  132OSM    C1214215   4.631   1.274   5.943
  132OSM   H12A14216   4.616   1.324   6.038
  132OSM   H12B14217   4.570   1.185   5.949
  132OSM    C1114218   4.569   1.363   5.831
  132OSM   H11A14219   4.465   1.390   5.860
  132OSM   H11B14220   4.560   1.302   5.739
  132OSM      P14221   4.627   1.613   5.878
  132OSM    O1314222   4.737   1.702   5.836
  132OSM    O1414223   4.489   1.657   5.850
  132OSM    O1114224   4.649   1.573   6.030
  132OSM    O1214225   4.650   1.476   5.803
  132OSM    C1S14226   4.546   1.554   6.127
  132OSM    H1S14227   4.489   1.461   6.105
  132OSM    H1T14228   4.473   1.638   6.127
  132OSM     NF14229   4.521   1.472   6.361
  132OSM    HNF14230   4.462   1.524   6.423
  132OSM    C2S14231   4.609   1.542   6.269
  132OSM    H2S14232   4.703   1.483   6.260
  132OSM    C3S14233   4.648   1.685   6.317
  132OSM    H3S14234   4.558   1.749   6.318
  132OSM     O314235   4.742   1.744   6.227
  132OSM    HO314236   4.726   1.699   6.144
  132OSM    C4S14237   4.714   1.686   6.453
  132OSM    H4S14238   4.807   1.628   6.459
  132OSM    C5S14239   4.672   1.753   6.562
  132OSM    H5S14240   4.581   1.815   6.556
  132OSM    C6S14241   4.743   1.753   6.695
  132OSM    H6S14242   4.716   1.845   6.751
  132OSM    H6T14243   4.853   1.758   6.679
  132OSM    C7S14244   4.716   1.632   6.785
  132OSM    H7S14245   4.743   1.540   6.729
  132OSM    H7T14246   4.607   1.623   6.806
  132OSM    C8S14247   4.794   1.639   6.918
  132OSM    H8S14248   4.892   1.690   6.905
  132OSM    H8T14249   4.812   1.536   6.956
  132OSM    C9S14250   4.711   1.705   7.027
  132OSM    H9S14251   4.625   1.635   7.032
  132OSM    H9T14252   4.676   1.806   6.998
  132OSM   C10S14253   4.761   1.704   7.171
  132OSM   H10S14254   4.822   1.794   7.193
  132OSM   H10T14255   4.824   1.614   7.190
  132OSM   C11S14256   4.637   1.697   7.260
  132OSM   H11S14257   4.591   1.596   7.250
  132OSM   H11T14258   4.562   1.771   7.224
  132OSM   C12S14259   4.663   1.724   7.406
  132OSM   H12S14260   4.696   1.830   7.418
  132OSM   H12T14261   4.747   1.660   7.440
  132OSM   C13S14262   4.541   1.699   7.494
  132OSM   H13S14263   4.505   1.595   7.481
  132OSM   H13T14264   4.458   1.769   7.471
  132OSM   C14S14265   4.592   1.719   7.635
  132OSM   H14S14266   4.639   1.819   7.638
  132OSM   H14T14267   4.672   1.642   7.649
  132OSM   C15S14268   4.498   1.708   7.754
  132OSM   H15S14269   4.430   1.622   7.743
  132OSM   H15T14270   4.437   1.800   7.762
  132OSM   C16S14271   4.585   1.689   7.880
  132OSM   H16S14272   4.609   1.581   7.885
  132OSM   H16T14273   4.526   1.716   7.971
  132OSM   C17S14274   4.720   1.763   7.882
  132OSM   H17S14275   4.704   1.869   7.911
  132OSM   H17T14276   4.772   1.765   7.784
  132OSM   C18S14277   4.822   1.696   7.974
  132OSM   H18S14278   4.797   1.719   8.079
  132OSM   H18T14279   4.924   1.735   7.953
  132OSM   H18U14280   4.823   1.586   7.960
  132OSM    C1F14281   4.512   1.339   6.358
  132OSM     OF14282   4.561   1.276   6.265
  132OSM    C2F14283   4.441   1.274   6.472
  132OSM    H2F14284   4.344   1.233   6.436
  132OSM    H2G14285   4.420   1.350   6.550
  132OSM    C3F14286   4.524   1.162   6.538
  132OSM    H3F14287   4.534   1.075   6.469
  132OSM    H3G14288   4.468   1.127   6.628
  132OSM    C4F14289   4.664   1.209   6.582
  132OSM    H4F14290   4.656   1.310   6.629
  132OSM    H4G14291   4.726   1.219   6.491
  132OSM    C5F14292   4.733   1.112   6.679
  132OSM    H5F14293   4.842   1.133   6.679
  132OSM    H5G14294   4.718   1.010   6.638
  132OSM    C6F14295   4.682   1.117   6.824
  132OSM    H6F14296   4.734   1.038   6.881
  132OSM    H6G14297   4.573   1.094   6.829
  132OSM    C7F14298   4.710   1.253   6.890
  132OSM    H7F14299   4.634   1.326   6.855
  132OSM    H7G14300   4.809   1.286   6.853
  132OSM    C8F14301   4.713   1.251   7.044
  132OSM    H8F14302   4.623   1.197   7.080
  132OSM    H8G14303   4.705   1.356   7.080
  132OSM    C9F14304   4.838   1.186   7.096
  132OSM    H9F14305   4.871   1.098   7.038
  132OSM   C10F14306   4.915   1.224   7.200
  132OSM   H10F14307   5.005   1.165   7.222
  132OSM   C11F14308   4.894   1.342   7.290
  132OSM   H11F14309   4.904   1.434   7.228
  132OSM   H11G14310   4.975   1.348   7.365
  132OSM   C12F14311   4.759   1.350   7.366
  132OSM   H12F14312   4.679   1.295   7.313
  132OSM   H12G14313   4.728   1.457   7.370
  132OSM   C13F14314   4.769   1.301   7.511
  132OSM   H13F14315   4.854   1.351   7.562
  132OSM   H13G14316   4.789   1.192   7.509
  132OSM   C14F14317   4.642   1.323   7.593
  132OSM   H14F14318   4.557   1.275   7.540
  132OSM   H14G14319   4.619   1.431   7.603
  132OSM   C15F14320   4.656   1.260   7.733
  132OSM   H15F14321   4.671   1.339   7.811
  132OSM   H15G14322   4.747   1.197   7.732
  132OSM   C16F14323   4.539   1.168   7.769
  132OSM   H16F14324   4.569   1.102   7.852
  132OSM   H16G14325   4.517   1.104   7.681
  132OSM   C17F14326   4.412   1.241   7.809
  132OSM   H17F14327   4.398   1.332   7.747
  132OSM   H17G14328   4.422   1.273   7.914
  132OSM   C18F14329   4.290   1.151   7.796
  132OSM   H18F14330   4.203   1.198   7.846
  132OSM   H18G14331   4.308   1.053   7.845
  132OSM   H18H14332   4.265   1.134   7.689
  133OSM      N14333   5.129   1.800   5.821
  133OSM    C1514334   5.145   1.681   5.910
  133OSM   H15A14335   5.241   1.685   5.960
  133OSM   H15B14336   5.142   1.589   5.854
  133OSM   H15C14337   5.068   1.678   5.985
  133OSM    C1414338   5.238   1.799   5.718
  133OSM   H14A14339   5.241   1.707   5.661
  133OSM   H14B14340   5.332   1.814   5.768
  133OSM   H14C14341   5.227   1.883   5.651
  133OSM    C1314342   4.996   1.794   5.752
  133OSM   H13A14343   4.978   1.883   5.694
  133OSM   H13B14344   4.914   1.785   5.822
  133OSM   H13C14345   4.989   1.708   5.687
  133OSM    C1214346   5.139   1.929   5.902
  133OSM   H12A14347   5.057   1.932   5.973
  133OSM   H12B14348   5.125   2.013   5.835
  133OSM    C1114349   5.271   1.955   5.978
  133OSM   H11A14350   5.289   1.872   6.049
  133OSM   H11B14351   5.259   2.048   6.038
  133OSM      P14352   5.527   1.963   5.943
  133OSM    O1314353   5.548   1.825   5.992
  133OSM    O1414354   5.622   2.017   5.843
  133OSM    O1114355   5.516   2.062   6.065
  133OSM    O1214356   5.380   1.972   5.886
  133OSM    C1S14357   5.613   2.064   6.169
  133OSM    H1S14358   5.669   2.160   6.161
  133OSM    H1T14359   5.689   1.983   6.161
  133OSM     NF14360   5.504   1.921   6.335
  133OSM    HNF14361   5.413   1.895   6.302
  133OSM    C2S14362   5.546   2.057   6.310
  133OSM    H2S14363   5.621   2.086   6.387
  133OSM    C3S14364   5.430   2.161   6.317
  133OSM    H3S14365   5.358   2.142   6.234
  133OSM     O314366   5.478   2.294   6.301
  133OSM    HO314367   5.555   2.285   6.245
  133OSM    C4S14368   5.353   2.147   6.447
  133OSM    H4S14369   5.283   2.062   6.446
  133OSM    C5S14370   5.357   2.224   6.557
  133OSM    H5S14371   5.424   2.312   6.559
  133OSM    C6S14372   5.277   2.203   6.683
  133OSM    H6S14373   5.184   2.265   6.679
  133OSM    H6T14374   5.334   2.241   6.770
  133OSM    C7S14375   5.234   2.058   6.716
  133OSM    H7S14376   5.161   2.022   6.641
  133OSM    H7T14377   5.182   2.059   6.814
  133OSM    C8S14378   5.351   1.959   6.724
  133OSM    H8S14379   5.391   1.941   6.622
  133OSM    H8T14380   5.310   1.862   6.760
  133OSM    C9S14381   5.468   2.003   6.814
  133OSM    H9S14382   5.509   2.101   6.783
  133OSM    H9T14383   5.551   1.930   6.800
  133OSM   C10S14384   5.434   2.007   6.964
  133OSM   H10S14385   5.353   1.934   6.986
  133OSM   H10T14386   5.395   2.108   6.989
  133OSM   C11S14387   5.555   1.972   7.053
  133OSM   H11S14388   5.647   1.984   6.992
  133OSM   H11T14389   5.551   1.866   7.085
  133OSM   C12S14390   5.572   2.061   7.177
  133OSM   H12S14391   5.564   2.168   7.149
  133OSM   H12T14392   5.675   2.043   7.214
  133OSM   C13S14393   5.480   2.029   7.296
  133OSM   H13S14394   5.524   2.081   7.384
  133OSM   H13T14395   5.481   1.920   7.317
  133OSM   C14S14396   5.335   2.077   7.281
  133OSM   H14S14397   5.288   2.024   7.195
  133OSM   H14T14398   5.334   2.186   7.259
  133OSM   C15S14399   5.249   2.050   7.406
  133OSM   H15S14400   5.247   1.941   7.426
  133OSM   H15T14401   5.144   2.082   7.386
  133OSM   C16S14402   5.299   2.121   7.533
  133OSM   H16S14403   5.303   2.230   7.516
  133OSM   H16T14404   5.401   2.086   7.556
  133OSM   C17S14405   5.211   2.091   7.655
  133OSM   H17S14406   5.197   1.981   7.663
  133OSM   H17T14407   5.111   2.136   7.640
  133OSM   C18S14408   5.272   2.142   7.786
  133OSM   H18S14409   5.371   2.094   7.803
  133OSM   H18T14410   5.207   2.118   7.872
  133OSM   H18U14411   5.287   2.252   7.782
  133OSM    C1F14412   5.593   1.828   6.365
  133OSM     OF14413   5.713   1.855   6.372
  133OSM    C2F14414   5.540   1.691   6.391
  133OSM    H2F14415   5.550   1.630   6.298
  133OSM    H2G14416   5.432   1.698   6.416
  133OSM    C3F14417   5.614   1.622   6.508
  133OSM    H3F14418   5.711   1.583   6.470
  133OSM    H3G14419   5.552   1.535   6.539
  133OSM    C4F14420   5.641   1.711   6.630
  133OSM    H4F14421   5.549   1.771   6.648
  133OSM    H4G14422   5.721   1.784   6.605
  133OSM    C5F14423   5.685   1.639   6.758
  133OSM    H5F14424   5.718   1.716   6.831
  133OSM    H5G14425   5.772   1.573   6.738
  133OSM    C6F14426   5.575   1.558   6.829
  133OSM    H6F14427   5.613   1.520   6.926
  133OSM    H6G14428   5.548   1.469   6.767
  133OSM    C7F14429   5.447   1.638   6.851
  133OSM    H7F14430   5.374   1.607   6.773
  133OSM    H7G14431   5.470   1.746   6.835
  133OSM    C8F14432   5.387   1.632   6.992
  133OSM    H8F14433   5.446   1.694   7.062
  133OSM    H8G14434   5.398   1.528   7.030
  133OSM    C9F14435   5.243   1.676   6.982
  133OSM    H9F14436   5.198   1.664   6.882
  133OSM   C10F14437   5.163   1.723   7.079
  133OSM   H10F14438   5.059   1.749   7.055
  133OSM   C11F14439   5.200   1.743   7.223
  133OSM   H11F14440   5.149   1.835   7.260
  133OSM   H11G14441   5.309   1.758   7.237
  133OSM   C12F14442   5.155   1.625   7.311
  133OSM   H12F14443   5.222   1.538   7.291
  133OSM   H12G14444   5.051   1.595   7.286
  133OSM   C13F14445   5.161   1.662   7.459
  133OSM   H13F14446   5.089   1.743   7.482
  133OSM   H13G14447   5.263   1.702   7.478
  133OSM   C14F14448   5.136   1.543   7.554
  133OSM   H14F14449   5.150   1.449   7.496
  133OSM   H14G14450   5.033   1.544   7.593
  133OSM   C15F14451   5.239   1.543   7.667
  133OSM   H15F14452   5.337   1.552   7.615
  133OSM   H15G14453   5.241   1.447   7.723
  133OSM   C16F14454   5.231   1.660   7.765
  133OSM   H16F14455   5.155   1.638   7.843
  133OSM   H16G14456   5.199   1.751   7.711
  133OSM   C17F14457   5.369   1.686   7.827
  133OSM   H17F14458   5.442   1.697   7.744
  133OSM   H17G14459   5.399   1.598   7.886
  133OSM   C18F14460   5.375   1.812   7.913
  133OSM   H18F14461   5.383   1.785   8.020
  133OSM   H18G14462   5.285   1.875   7.898
  133OSM   H18H14463   5.464   1.872   7.886
  134OSM      N14464   6.029   4.697   5.692
  134OSM    C1514465   6.128   4.611   5.618
  134OSM   H15A14466   6.206   4.578   5.685
  134OSM   H15B14467   6.175   4.666   5.539
  134OSM   H15C14468   6.080   4.523   5.576
  134OSM    C1414469   6.106   4.807   5.758
  134OSM   H14A14470   6.150   4.877   5.688
  134OSM   H14B14471   6.183   4.766   5.821
  134OSM   H14C14472   6.041   4.859   5.828
  134OSM    C1314473   5.928   4.753   5.597
  134OSM   H13A14474   5.863   4.822   5.649
  134OSM   H13B14475   5.868   4.675   5.554
  134OSM   H13C14476   5.976   4.807   5.516
  134OSM    C1214477   5.961   4.614   5.800
  134OSM   H12A14478   6.038   4.566   5.859
  134OSM   H12B14479   5.901   4.535   5.758
  134OSM    C1114480   5.875   4.691   5.904
  134OSM   H11A14481   5.808   4.619   5.957
  134OSM   H11B14482   5.808   4.763   5.853
  134OSM      P14483   6.046   4.674   6.100
  134OSM    O1314484   6.137   4.589   6.020
  134OSM    O1414485   6.104   4.762   6.203
  134OSM    O1114486   5.937   4.580   6.167
  134OSM    O1214487   5.958   4.761   5.997
  134OSM    C1S14488   5.828   4.639   6.240
  134OSM    H1S14489   5.732   4.594   6.205
  134OSM    H1T14490   5.818   4.748   6.226
  134OSM     NF14491   5.947   4.700   6.441
  134OSM    HNF14492   6.029   4.700   6.385
  134OSM    C2S14493   5.838   4.617   6.395
  134OSM    H2S14494   5.740   4.651   6.434
  134OSM    C3S14495   5.857   4.469   6.439
  134OSM    H3S14496   5.964   4.441   6.432
  134OSM     O314497   5.787   4.377   6.356
  134OSM    HO314498   5.769   4.427   6.275
  134OSM    C4S14499   5.809   4.450   6.582
  134OSM    H4S14500   5.708   4.406   6.589
  134OSM    C5S14501   5.876   4.476   6.696
  134OSM    H5S14502   5.977   4.519   6.689
  134OSM    C6S14503   5.827   4.453   6.838
  134OSM    H6S14504   5.875   4.361   6.878
  134OSM    H6T14505   5.717   4.437   6.842
  134OSM    C7S14506   5.863   4.568   6.935
  134OSM    H7S14507   5.798   4.655   6.913
  134OSM    H7T14508   5.969   4.596   6.917
  134OSM    C8S14509   5.858   4.534   7.086
  134OSM    H8S14510   5.963   4.526   7.121
  134OSM    H8T14511   5.809   4.435   7.100
  134OSM    C9S14512   5.793   4.638   7.177
  134OSM    H9S14513   5.688   4.653   7.144
  134OSM    H9T14514   5.845   4.736   7.168
  134OSM   C10S14515   5.795   4.595   7.325
  134OSM   H10S14516   5.752   4.493   7.332
  134OSM   H10T14517   5.728   4.663   7.382
  134OSM   C11S14518   5.934   4.598   7.391
  134OSM   H11S14519   5.972   4.702   7.388
  134OSM   H11T14520   6.006   4.535   7.333
  134OSM   C12S14521   5.935   4.549   7.537
  134OSM   H12S14522   5.851   4.598   7.591
  134OSM   H12T14523   6.030   4.580   7.585
  134OSM   C13S14524   5.923   4.396   7.551
  134OSM   H13S14525   6.018   4.348   7.519
  134OSM   H13T14526   5.843   4.361   7.482
  134OSM   C14S14527   5.886   4.350   7.693
  134OSM   H14S14528   5.854   4.243   7.686
  134OSM   H14T14529   5.799   4.409   7.729
  134OSM   C15S14530   5.999   4.356   7.796
  134OSM   H15S14531   6.033   4.460   7.810
  134OSM   H15T14532   6.084   4.297   7.756
  134OSM   C16S14533   5.958   4.294   7.932
  134OSM   H16S14534   6.049   4.263   7.987
  134OSM   H16T14535   5.899   4.202   7.912
  134OSM   C17S14536   5.876   4.387   8.023
  134OSM   H17S14537   5.829   4.327   8.103
  134OSM   H17T14538   5.794   4.435   7.965
  134OSM   C18S14539   5.962   4.495   8.089
  134OSM   H18S14540   5.903   4.557   8.160
  134OSM   H18T14541   6.004   4.562   8.011
  134OSM   H18U14542   6.047   4.450   8.145
  134OSM    C1F14543   5.923   4.801   6.521
  134OSM     OF14544   5.809   4.824   6.559
  134OSM    C2F14545   6.039   4.886   6.560
  134OSM    H2F14546   6.046   4.972   6.490
  134OSM    H2G14547   6.134   4.828   6.554
  134OSM    C3F14548   6.018   4.937   6.704
  134OSM    H3F14549   5.912   4.969   6.711
  134OSM    H3G14550   6.080   5.027   6.723
  134OSM    C4F14551   6.034   4.834   6.815
  134OSM    H4F14552   6.141   4.809   6.833
  134OSM    H4G14553   5.986   4.741   6.777
  134OSM    C5F14554   5.962   4.872   6.947
  134OSM    H5F14555   5.990   4.797   7.025
  134OSM    H5G14556   5.853   4.863   6.930
  134OSM    C6F14557   5.988   5.012   7.004
  134OSM    H6F14558   5.892   5.065   7.023
  134OSM    H6G14559   6.044   5.073   6.930
  134OSM    C7F14560   6.060   5.013   7.139
  134OSM    H7F14561   6.149   4.948   7.133
  134OSM    H7G14562   5.993   4.973   7.218
  134OSM    C8F14563   6.097   5.158   7.171
  134OSM    H8F14564   6.005   5.215   7.193
  134OSM    H8G14565   6.139   5.202   7.077
  134OSM    C9F14566   6.200   5.179   7.278
  134OSM    H9F14567   6.303   5.196   7.243
  134OSM   C10F14568   6.176   5.176   7.409
  134OSM   H10F14569   6.260   5.191   7.478
  134OSM   C11F14570   6.044   5.150   7.476
  134OSM   H11F14571   5.957   5.152   7.407
  134OSM   H11G14572   6.028   5.231   7.550
  134OSM   C12F14573   6.050   5.013   7.547
  134OSM   H12F14574   6.155   4.993   7.577
  134OSM   H12G14575   6.021   4.933   7.476
  134OSM   C13F14576   5.967   5.005   7.675
  134OSM   H13F14577   5.874   4.947   7.657
  134OSM   H13G14578   5.937   5.107   7.708
  134OSM   C14F14579   6.045   4.940   7.789
  134OSM   H14F14580   5.983   4.940   7.881
  134OSM   H14G14581   6.135   5.001   7.811
  134OSM   C15F14582   6.089   4.797   7.757
  134OSM   H15F14583   6.157   4.795   7.668
  134OSM   H15G14584   5.998   4.739   7.731
  134OSM   C16F14585   6.159   4.730   7.875
  134OSM   H16F14586   6.170   4.621   7.857
  134OSM   H16G14587   6.092   4.744   7.962
  134OSM   C17F14588   6.297   4.788   7.910
  134OSM   H17F14589   6.316   4.768   8.017
  134OSM   H17G14590   6.296   4.898   7.897
  134OSM   C18F14591   6.412   4.727   7.829
  134OSM   H18F14592   6.507   4.780   7.851
  134OSM   H18G14593   6.391   4.736   7.720
  134OSM   H18H14594   6.424   4.620   7.854
  135OSM      N14595   5.853   5.421   5.910
  135OSM    C1514596   5.738   5.327   5.894
  135OSM   H15A14597   5.655   5.374   5.844
  135OSM   H15B14598   5.703   5.291   5.989
  135OSM   H15C14599   5.766   5.239   5.838
  135OSM    C1414600   5.803   5.543   5.980
  135OSM   H14A14601   5.775   5.521   6.082
  135OSM   H14B14602   5.718   5.586   5.928
  135OSM   H14C14603   5.882   5.617   5.979
  135OSM    C1314604   5.958   5.350   5.990
  135OSM   H13A14605   5.999   5.265   5.938
  135OSM   H13B14606   5.919   5.313   6.084
  135OSM   H13C14607   6.041   5.414   6.015
  135OSM    C1214608   5.910   5.462   5.775
  135OSM   H12A14609   5.834   5.514   5.719
  135OSM   H12B14610   5.935   5.373   5.719
  135OSM    C1114611   6.035   5.555   5.775
  135OSM   H11A14612   6.072   5.559   5.670
  135OSM   H11B14613   6.116   5.508   5.835
  135OSM      P14614   6.120   5.795   5.830
  135OSM    O1314615   6.225   5.759   5.733
  135OSM    O1414616   6.060   5.929   5.810
  135OSM    O1114617   6.176   5.782   5.977
  135OSM    O1214618   6.003   5.686   5.822
  135OSM    C1S14619   6.148   5.669   6.060
  135OSM    H1S14620   6.218   5.585   6.041
  135OSM    H1T14621   6.044   5.632   6.044
  135OSM     NF14622   6.045   5.632   6.281
  135OSM    HNF14623   5.992   5.686   6.345
  135OSM    C2S14624   6.153   5.703   6.212
  135OSM    H2S14625   6.249   5.668   6.254
  135OSM    C3S14626   6.144   5.858   6.233
  135OSM    H3S14627   6.065   5.900   6.167
  135OSM     O314628   6.265   5.928   6.205
  135OSM    HO314629   6.315   5.870   6.147
  135OSM    C4S14630   6.101   5.884   6.374
  135OSM    H4S14631   6.007   5.941   6.383
  135OSM    C5S14632   6.168   5.849   6.484
  135OSM    H5S14633   6.266   5.800   6.477
  135OSM    C6S14634   6.118   5.877   6.622
  135OSM    H6S14635   6.008   5.894   6.625
  135OSM    H6T14636   6.166   5.972   6.654
  135OSM    C7S14637   6.155   5.766   6.720
  135OSM    H7S14638   6.147   5.806   6.823
  135OSM    H7T14639   6.261   5.735   6.706
  135OSM    C8S14640   6.064   5.644   6.710
  135OSM    H8S14641   6.061   5.607   6.605
  135OSM    H8T14642   5.961   5.676   6.738
  135OSM    C9S14643   6.109   5.529   6.801
  135OSM    H9S14644   6.192   5.474   6.753
  135OSM    H9T14645   6.025   5.457   6.815
  135OSM   C10S14646   6.157   5.577   6.939
  135OSM   H10S14647   6.081   5.643   6.985
  135OSM   H10T14648   6.251   5.636   6.928
  135OSM   C11S14649   6.186   5.461   7.033
  135OSM   H11S14650   6.267   5.398   6.990
  135OSM   H11T14651   6.094   5.400   7.043
  135OSM   C12S14652   6.228   5.512   7.172
  135OSM   H12S14653   6.284   5.607   7.161
  135OSM   H12T14654   6.295   5.437   7.219
  135OSM   C13S14655   6.107   5.532   7.263
  135OSM   H13S14656   6.066   5.431   7.285
  135OSM   H13T14657   6.028   5.590   7.211
  135OSM   C14S14658   6.141   5.600   7.396
  135OSM   H14S14659   6.232   5.553   7.438
  135OSM   H14T14660   6.058   5.579   7.467
  135OSM   C15S14661   6.161   5.752   7.381
  135OSM   H15S14662   6.153   5.780   7.274
  135OSM   H15T14663   6.265   5.777   7.412
  135OSM   C16S14664   6.062   5.839   7.462
  135OSM   H16S14665   5.962   5.836   7.413
  135OSM   H16T14666   6.098   5.944   7.460
  135OSM   C17S14667   6.045   5.795   7.609
  135OSM   H17S14668   6.136   5.740   7.639
  135OSM   H17T14669   5.961   5.722   7.614
  135OSM   C18S14670   6.024   5.907   7.710
  135OSM   H18S14671   6.109   5.979   7.705
  135OSM   H18T14672   6.022   5.866   7.813
  135OSM   H18U14673   5.929   5.961   7.692
  135OSM    C1F14674   6.026   5.501   6.276
  135OSM     OF14675   6.111   5.425   6.232
  135OSM    C2F14676   5.891   5.453   6.317
  135OSM    H2F14677   5.888   5.342   6.316
  135OSM    H2G14678   5.818   5.491   6.243
  135OSM    C3F14679   5.847   5.508   6.454
  135OSM    H3F14680   5.873   5.615   6.469
  135OSM    H3G14681   5.899   5.450   6.533
  135OSM    C4F14682   5.695   5.498   6.469
  135OSM    H4F14683   5.661   5.392   6.462
  135OSM    H4G14684   5.646   5.552   6.385
  135OSM    C5F14685   5.645   5.559   6.599
  135OSM    H5F14686   5.537   5.535   6.609
  135OSM    H5G14687   5.659   5.669   6.592
  135OSM    C6F14688   5.709   5.511   6.729
  135OSM    H6F14689   5.818   5.490   6.719
  135OSM    H6G14690   5.655   5.418   6.757
  135OSM    C7F14691   5.687   5.610   6.843
  135OSM    H7F14692   5.581   5.593   6.873
  135OSM    H7G14693   5.697   5.715   6.807
  135OSM    C8F14694   5.780   5.591   6.962
  135OSM    H8F14695   5.876   5.643   6.943
  135OSM    H8G14696   5.803   5.483   6.973
  135OSM    C9F14697   5.712   5.649   7.084
  135OSM    H9F14698   5.708   5.759   7.090
  135OSM   C10F14699   5.655   5.575   7.179
  135OSM   H10F14700   5.611   5.624   7.268
  135OSM   C11F14701   5.652   5.425   7.180
  135OSM   H11F14702   5.641   5.383   7.077
  135OSM   H11G14703   5.566   5.386   7.239
  135OSM   C12F14704   5.785   5.379   7.240
  135OSM   H12F14705   5.869   5.410   7.174
  135OSM   H12G14706   5.789   5.268   7.244
  135OSM   C13F14707   5.810   5.434   7.381
  135OSM   H13F14708   5.834   5.543   7.376
  135OSM   H13G14709   5.900   5.382   7.420
  135OSM   C14F14710   5.693   5.415   7.478
  135OSM   H14F14711   5.668   5.307   7.480
  135OSM   H14G14712   5.602   5.469   7.442
  135OSM   C15F14713   5.725   5.463   7.619
  135OSM   H15F14714   5.643   5.430   7.686
  135OSM   H15G14715   5.729   5.574   7.622
  135OSM   C16F14716   5.857   5.406   7.671
  135OSM   H16F14717   5.944   5.450   7.618
  135OSM   H16G14718   5.858   5.297   7.652
  135OSM   C17F14719   5.873   5.429   7.820
  135OSM   H17F14720   5.939   5.352   7.866
  135OSM   H17G14721   5.772   5.418   7.866
  135OSM   C18F14722   5.929   5.567   7.846
  135OSM   H18F14723   5.925   5.591   7.955
  135OSM   H18G14724   5.872   5.644   7.789
  135OSM   H18H14725   6.034   5.577   7.811
  136OSM      N14726   4.067   6.638   5.929
  136OSM    C1514727   4.120   6.599   6.065
  136OSM   H15A14728   4.131   6.492   6.073
  136OSM   H15B14729   4.051   6.631   6.141
  136OSM   H15C14730   4.216   6.644   6.086
  136OSM    C1414731   4.148   6.576   5.820
  136OSM   H14A14732   4.250   6.612   5.818
  136OSM   H14B14733   4.103   6.599   5.724
  136OSM   H14C14734   4.148   6.468   5.828
  136OSM    C1314735   3.928   6.587   5.919
  136OSM   H13A14736   3.924   6.479   5.913
  136OSM   H13B14737   3.880   6.627   5.831
  136OSM   H13C14738   3.868   6.618   6.003
  136OSM    C1214739   4.059   6.789   5.915
  136OSM   H12A14740   4.153   6.836   5.941
  136OSM   H12B14741   3.991   6.827   5.991
  136OSM    C1114742   4.007   6.848   5.782
  136OSM   H11A14743   4.032   6.781   5.697
  136OSM   H11B14744   4.059   6.944   5.761
  136OSM      P14745   3.807   6.995   5.855
  136OSM    O1314746   3.855   7.113   5.779
  136OSM    O1414747   3.661   6.978   5.874
  136OSM    O1114748   3.878   6.994   5.997
  136OSM    O1214749   3.866   6.863   5.790
  136OSM    C1S14750   3.815   7.050   6.113
  136OSM    H1S14751   3.706   7.029   6.114
  136OSM    H1T14752   3.827   7.160   6.114
  136OSM     NF14753   3.989   7.057   6.295
  136OSM    HNF14754   4.072   7.002   6.295
  136OSM    C2S14755   3.872   6.988   6.245
  136OSM    H2S14756   3.792   6.999   6.322
  136OSM    C3S14757   3.905   6.838   6.228
  136OSM    H3S14758   4.000   6.829   6.171
  136OSM     O314759   3.809   6.766   6.151
  136OSM    HO314760   3.764   6.833   6.099
  136OSM    C4S14761   3.922   6.771   6.362
  136OSM    H4S14762   3.831   6.768   6.423
  136OSM    C5S14763   4.035   6.713   6.407
  136OSM    H5S14764   4.125   6.713   6.344
  136OSM    C6S14765   4.055   6.645   6.541
  136OSM    H6S14766   4.146   6.687   6.589
  136OSM    H6T14767   4.077   6.537   6.524
  136OSM    C7S14768   3.939   6.652   6.643
  136OSM    H7S14769   3.848   6.607   6.598
  136OSM    H7T14770   3.917   6.759   6.665
  136OSM    C8S14771   3.968   6.579   6.775
  136OSM    H8S14772   3.999   6.475   6.751
  136OSM    H8T14773   3.876   6.575   6.837
  136OSM    C9S14774   4.078   6.642   6.861
  136OSM    H9S14775   4.164   6.672   6.797
  136OSM    H9T14776   4.115   6.566   6.933
  136OSM   C10S14777   4.032   6.762   6.944
  136OSM   H10S14778   3.973   6.725   7.030
  136OSM   H10T14779   3.966   6.828   6.884
  136OSM   C11S14780   4.154   6.842   6.994
  136OSM   H11S14781   4.178   6.925   6.924
  136OSM   H11T14782   4.241   6.773   6.993
  136OSM   C12S14783   4.139   6.893   7.137
  136OSM   H12S14784   4.093   6.812   7.197
  136OSM   H12T14785   4.071   6.980   7.141
  136OSM   C13S14786   4.276   6.929   7.197
  136OSM   H13S14787   4.313   7.022   7.150
  136OSM   H13T14788   4.349   6.848   7.173
  136OSM   C14S14789   4.273   6.945   7.349
  136OSM   H14S14790   4.198   7.022   7.376
  136OSM   H14T14791   4.373   6.983   7.380
  136OSM   C15S14792   4.243   6.815   7.425
  136OSM   H15S14793   4.311   6.733   7.391
  136OSM   H15T14794   4.139   6.784   7.400
  136OSM   C16S14795   4.252   6.830   7.577
  136OSM   H16S14796   4.173   6.765   7.621
  136OSM   H16T14797   4.227   6.934   7.606
  136OSM   C17S14798   4.386   6.788   7.640
  136OSM   H17S14799   4.395   6.677   7.633
  136OSM   H17T14800   4.383   6.813   7.749
  136OSM   C18S14801   4.511   6.851   7.579
  136OSM   H18S14802   4.602   6.819   7.635
  136OSM   H18T14803   4.506   6.962   7.582
  136OSM   H18U14804   4.524   6.819   7.473
  136OSM    C1F14805   3.993   7.181   6.340
  136OSM     OF14806   3.909   7.265   6.314
  136OSM    C2F14807   4.117   7.215   6.414
  136OSM    H2F14808   4.178   7.285   6.354
  136OSM    H2G14809   4.174   7.121   6.429
  136OSM    C3F14810   4.094   7.276   6.554
  136OSM    H3F14811   4.019   7.358   6.552
  136OSM    H3G14812   4.190   7.320   6.588
  136OSM    C4F14813   4.056   7.170   6.656
  136OSM    H4F14814   4.066   7.213   6.758
  136OSM    H4G14815   4.124   7.082   6.651
  136OSM    C5F14816   3.912   7.123   6.639
  136OSM    H5F14817   3.898   7.061   6.548
  136OSM    H5G14818   3.846   7.212   6.630
  136OSM    C6F14819   3.869   7.039   6.758
  136OSM    H6F14820   3.953   7.030   6.830
  136OSM    H6G14821   3.839   6.937   6.725
  136OSM    C7F14822   3.753   7.106   6.828
  136OSM    H7F14823   3.662   7.103   6.763
  136OSM    H7G14824   3.782   7.212   6.843
  136OSM    C8F14825   3.726   7.044   6.964
  136OSM    H8F14826   3.650   7.107   7.015
  136OSM    H8G14827   3.819   7.050   7.025
  136OSM    C9F14828   3.678   6.901   6.953
  136OSM    H9F14829   3.673   6.857   6.852
  136OSM   C10F14830   3.636   6.832   7.059
  136OSM   H10F14831   3.596   6.730   7.045
  136OSM   C11F14832   3.633   6.891   7.197
  136OSM   H11F14833   3.555   6.841   7.260
  136OSM   H11G14834   3.604   6.998   7.193
  136OSM   C12F14835   3.769   6.886   7.269
  136OSM   H12F14836   3.850   6.910   7.197
  136OSM   H12G14837   3.788   6.783   7.307
  136OSM   C13F14838   3.778   6.987   7.384
  136OSM   H13F14839   3.779   7.090   7.342
  136OSM   H13G14840   3.876   6.971   7.434
  136OSM   C14F14841   3.663   6.978   7.485
  136OSM   H14F14842   3.658   6.874   7.524
  136OSM   H14G14843   3.567   7.000   7.435
  136OSM   C15F14844   3.679   7.074   7.604
  136OSM   H15F14845   3.593   7.060   7.673
  136OSM   H15G14846   3.676   7.179   7.568
  136OSM   C16F14847   3.810   7.051   7.681
  136OSM   H16F14848   3.896   7.085   7.619
  136OSM   H16G14849   3.822   6.943   7.699
  136OSM   C17F14850   3.816   7.124   7.816
  136OSM   H17F14851   3.729   7.093   7.877
  136OSM   H17G14852   3.808   7.233   7.798
  136OSM   C18F14853   3.945   7.093   7.892
  136OSM   H18F14854   3.949   7.150   7.987
  136OSM   H18G14855   4.034   7.120   7.831
  136OSM   H18H14856   3.951   6.985   7.916
  137OSM      N14857   0.845   4.512   5.788
  137OSM    C1514858   0.805   4.603   5.901
  137OSM   H15A14859   0.699   4.596   5.919
  137OSM   H15B14860   0.830   4.707   5.881
  137OSM   H15C14861   0.853   4.577   5.994
  137OSM    C1414862   0.780   4.560   5.662
  137OSM   H14A14863   0.813   4.660   5.637
  137OSM   H14B14864   0.673   4.562   5.678
  137OSM   H14C14865   0.799   4.493   5.580
  137OSM    C1314866   0.994   4.517   5.775
  137OSM   H13A14867   1.026   4.616   5.743
  137OSM   H13B14868   1.030   4.446   5.702
  137OSM   H13C14869   1.040   4.500   5.871
  137OSM    C1214870   0.796   4.371   5.820
  137OSM   H12A14871   0.825   4.348   5.922
  137OSM   H12B14872   0.843   4.300   5.755
  137OSM    C1114873   0.643   4.345   5.813
  137OSM   H11A14874   0.627   4.236   5.829
  137OSM   H11B14875   0.604   4.366   5.711
  137OSM      P14876   0.474   4.361   6.013
  137OSM    O1314877   0.432   4.460   6.113
  137OSM    O1414878   0.371   4.283   5.940
  137OSM    O1114879   0.569   4.256   6.086
  137OSM    O1214880   0.572   4.426   5.907
  137OSM    C1S14881   0.695   4.299   6.141
  137OSM    H1S14882   0.735   4.387   6.088
  137OSM    H1T14883   0.768   4.216   6.128
  137OSM     NF14884   0.830   4.358   6.338
  137OSM    HNF14885   0.861   4.302   6.414
  137OSM    C2S14886   0.694   4.334   6.293
  137OSM    H2S14887   0.636   4.428   6.308
  137OSM    C3S14888   0.626   4.221   6.377
  137OSM    H3S14889   0.665   4.123   6.342
  137OSM     O314890   0.484   4.215   6.364
  137OSM    HO314891   0.463   4.277   6.294
  137OSM    C4S14892   0.657   4.237   6.524
  137OSM    H4S14893   0.602   4.317   6.576
  137OSM    C5S14894   0.747   4.161   6.592
  137OSM    H5S14895   0.798   4.081   6.537
  137OSM    C6S14896   0.787   4.169   6.737
  137OSM    H6S14897   0.885   4.221   6.745
  137OSM    H6T14898   0.807   4.066   6.774
  137OSM    C7S14899   0.693   4.233   6.841
  137OSM    H7S14900   0.597   4.177   6.842
  137OSM    H7T14901   0.671   4.339   6.816
  137OSM    C8S14902   0.756   4.226   6.982
  137OSM    H8S14903   0.838   4.300   6.991
  137OSM    H8T14904   0.806   4.127   6.993
  137OSM    C9S14905   0.656   4.241   7.098
  137OSM    H9S14906   0.561   4.189   7.073
  137OSM    H9T14907   0.632   4.348   7.114
  137OSM   C10S14908   0.711   4.180   7.228
  137OSM   H10S14909   0.819   4.205   7.236
  137OSM   H10T14910   0.702   4.070   7.222
  137OSM   C11S14911   0.641   4.230   7.356
  137OSM   H11S14912   0.531   4.221   7.345
  137OSM   H11T14913   0.665   4.338   7.368
  137OSM   C12S14914   0.688   4.153   7.480
  137OSM   H12S14915   0.798   4.140   7.471
  137OSM   H12T14916   0.643   4.051   7.480
  137OSM   C13S14917   0.659   4.224   7.613
  137OSM   H13S14918   0.696   4.328   7.605
  137OSM   H13T14919   0.717   4.174   7.693
  137OSM   C14S14920   0.511   4.223   7.653
  137OSM   H14S14921   0.478   4.117   7.660
  137OSM   H14T14922   0.450   4.270   7.572
  137OSM   C15S14923   0.483   4.292   7.787
  137OSM   H15S14924   0.548   4.246   7.864
  137OSM   H15T14925   0.378   4.272   7.817
  137OSM   C16S14926   0.507   4.444   7.786
  137OSM   H16S14927   0.611   4.463   7.753
  137OSM   H16T14928   0.498   4.482   7.890
  137OSM   C17S14929   0.413   4.526   7.696
  137OSM   H17S14930   0.423   4.490   7.591
  137OSM   H17T14931   0.448   4.632   7.697
  137OSM   C18S14932   0.266   4.523   7.738
  137OSM   H18S14933   0.254   4.561   7.842
  137OSM   H18T14934   0.226   4.419   7.733
  137OSM   H18U14935   0.206   4.587   7.670
  137OSM    C1F14936   0.915   4.453   6.297
  137OSM     OF14937   0.896   4.519   6.195
  137OSM    C2F14938   1.041   4.464   6.379
  137OSM    H2F14939   1.117   4.519   6.320
  137OSM    H2G14940   1.080   4.361   6.397
  137OSM    C3F14941   1.025   4.535   6.517
  137OSM    H3F14942   1.023   4.644   6.496
  137OSM    H3G14943   1.118   4.517   6.574
  137OSM    C4F14944   0.904   4.496   6.606
  137OSM    H4F14945   0.894   4.385   6.597
  137OSM    H4G14946   0.811   4.541   6.566
  137OSM    C5F14947   0.919   4.527   6.757
  137OSM    H5F14948   1.021   4.564   6.777
  137OSM    H5G14949   0.908   4.432   6.814
  137OSM    C6F14950   0.817   4.625   6.817
  137OSM    H6F14951   0.716   4.580   6.815
  137OSM    H6G14952   0.812   4.715   6.752
  137OSM    C7F14953   0.853   4.670   6.960
  137OSM    H7F14954   0.787   4.756   6.983
  137OSM    H7G14955   0.958   4.706   6.964
  137OSM    C8F14956   0.832   4.559   7.065
  137OSM    H8F14957   0.926   4.500   7.076
  137OSM    H8G14958   0.756   4.492   7.021
  137OSM    C9F14959   0.777   4.607   7.197
  137OSM    H9F14960   0.684   4.665   7.186
  137OSM   C10F14961   0.825   4.588   7.322
  137OSM   H10F14962   0.766   4.626   7.406
  137OSM   C11F14963   0.948   4.513   7.364
  137OSM   H11F14964   1.007   4.481   7.276
  137OSM   H11G14965   0.918   4.420   7.418
  137OSM   C12F14966   1.043   4.593   7.457
  137OSM   H12F14967   1.086   4.678   7.400
  137OSM   H12G14968   1.128   4.528   7.486
  137OSM   C13F14969   0.982   4.648   7.587
  137OSM   H13F14970   0.921   4.737   7.561
  137OSM   H13G14971   1.066   4.683   7.651
  137OSM   C14F14972   0.895   4.549   7.666
  137OSM   H14F14973   0.949   4.452   7.675
  137OSM   H14G14974   0.802   4.530   7.608
  137OSM   C15F14975   0.854   4.596   7.807
  137OSM   H15F14976   0.786   4.520   7.851
  137OSM   H15G14977   0.796   4.690   7.801
  137OSM   C16F14978   0.970   4.618   7.905
  137OSM   H16F14979   0.928   4.653   8.002
  137OSM   H16G14980   1.037   4.699   7.868
  137OSM   C17F14981   1.054   4.492   7.931
  137OSM   H17F14982   1.135   4.517   8.003
  137OSM   H17G14983   1.104   4.464   7.836
  137OSM   C18F14984   0.975   4.371   7.984
  137OSM   H18F14985   0.974   4.290   7.908
  137OSM   H18G14986   0.869   4.398   8.005
  137OSM   H18H14987   1.021   4.333   8.077
  138OSM      N14988   1.272   5.886   5.802
  138OSM    C1514989   1.376   5.928   5.902
  138OSM   H15A14990   1.331   5.959   5.995
  138OSM   H15B14991   1.436   6.009   5.864
  138OSM   H15C14992   1.442   5.845   5.923
  138OSM    C1414993   1.178   6.001   5.778
  138OSM   H14A14994   1.102   5.974   5.707
  138OSM   H14B14995   1.232   6.087   5.741
  138OSM   H14C14996   1.127   6.029   5.869
  138OSM    C1314997   1.342   5.849   5.675
  138OSM   H13A14998   1.272   5.825   5.597
  138OSM   H13B14999   1.401   5.761   5.693
  138OSM   H13C15000   1.409   5.927   5.642
  138OSM    C1215001   1.194   5.766   5.855
  138OSM   H12A15002   1.091   5.775   5.826
  138OSM   H12B15003   1.197   5.769   5.963
  138OSM    C1115004   1.241   5.623   5.814
  138OSM   H11A15005   1.210   5.604   5.709
  138OSM   H11B15006   1.188   5.547   5.876
  138OSM      P15007   1.456   5.584   5.960
  138OSM    O1315008   1.465   5.439   5.982
  138OSM    O1415009   1.583   5.660   5.952
  138OSM    O1115010   1.356   5.656   6.062
  138OSM    O1215011   1.383   5.605   5.822
  138OSM    C1S15012   1.321   5.594   6.187
  138OSM    H1S15013   1.388   5.509   6.212
  138OSM    H1T15014   1.218   5.553   6.182
  138OSM     NF15015   1.362   5.621   6.425
  138OSM    HNF15016   1.287   5.580   6.476
  138OSM    C2S15017   1.332   5.695   6.305
  138OSM    H2S15018   1.416   5.764   6.283
  138OSM    C3S15019   1.204   5.781   6.320
  138OSM    H3S15020   1.113   5.717   6.323
  138OSM     O315021   1.190   5.871   6.210
  138OSM    HO315022   1.254   5.837   6.146
  138OSM    C4S15023   1.218   5.859   6.449
  138OSM    H4S15024   1.297   5.935   6.448
  138OSM    C5S15025   1.146   5.840   6.562
  138OSM    H5S15026   1.067   5.764   6.564
  138OSM    C6S15027   1.166   5.917   6.691
  138OSM    H6S15028   1.121   6.018   6.685
  138OSM    H6T15029   1.274   5.930   6.712
  138OSM    C7S15030   1.102   5.841   6.810
  138OSM    H7S15031   1.135   5.735   6.811
  138OSM    H7T15032   0.992   5.843   6.796
  138OSM    C8S15033   1.129   5.901   6.950
  138OSM    H8S15034   1.056   5.860   7.022
  138OSM    H8T15035   1.114   6.011   6.945
  138OSM    C9S15036   1.270   5.873   7.005
  138OSM    H9S15037   1.290   5.944   7.089
  138OSM    H9T15038   1.343   5.897   6.924
  138OSM   C10S15039   1.294   5.729   7.054
  138OSM   H10S15040   1.403   5.710   7.048
  138OSM   H10T15041   1.245   5.658   6.984
  138OSM   C11S15042   1.248   5.699   7.197
  138OSM   H11S15043   1.260   5.590   7.216
  138OSM   H11T15044   1.139   5.721   7.205
  138OSM   C12S15045   1.323   5.774   7.310
  138OSM   H12S15046   1.314   5.884   7.294
  138OSM   H12T15047   1.431   5.748   7.307
  138OSM   C13S15048   1.265   5.740   7.448
  138OSM   H13S15049   1.279   5.632   7.468
  138OSM   H13T15050   1.156   5.758   7.444
  138OSM   C14S15051   1.321   5.823   7.565
  138OSM   H14S15052   1.249   5.815   7.649
  138OSM   H14T15053   1.327   5.930   7.536
  138OSM   C15S15054   1.457   5.776   7.619
  138OSM   H15S15055   1.534   5.785   7.539
  138OSM   H15T15056   1.451   5.668   7.643
  138OSM   C16S15057   1.499   5.848   7.749
  138OSM   H16S15058   1.410   5.860   7.813
  138OSM   H16T15059   1.535   5.950   7.725
  138OSM   C17S15060   1.605   5.773   7.832
  138OSM   H17S15061   1.554   5.689   7.885
  138OSM   H17T15062   1.643   5.842   7.911
  138OSM   C18S15063   1.724   5.715   7.755
  138OSM   H18S15064   1.780   5.795   7.703
  138OSM   H18T15065   1.691   5.641   7.679
  138OSM   H18U15066   1.793   5.663   7.825
  138OSM    C1F15067   1.489   5.595   6.456
  138OSM     OF15068   1.580   5.631   6.382
  138OSM    C2F15069   1.512   5.525   6.584
  138OSM    H2F15070   1.501   5.416   6.565
  138OSM    H2G15071   1.438   5.558   6.659
  138OSM    C3F15072   1.654   5.553   6.635
  138OSM    H3F15073   1.675   5.662   6.640
  138OSM    H3G15074   1.722   5.511   6.558
  138OSM    C4F15075   1.684   5.488   6.770
  138OSM    H4F15076   1.794   5.480   6.781
  138OSM    H4G15077   1.643   5.385   6.772
  138OSM    C5F15078   1.632   5.571   6.889
  138OSM    H5F15079   1.540   5.626   6.860
  138OSM    H5G15080   1.710   5.646   6.913
  138OSM    C6F15081   1.601   5.487   7.014
  138OSM    H6F15082   1.672   5.402   7.022
  138OSM    H6G15083   1.500   5.443   7.003
  138OSM    C7F15084   1.604   5.569   7.144
  138OSM    H7F15085   1.503   5.566   7.191
  138OSM    H7G15086   1.625   5.675   7.118
  138OSM    C8F15087   1.709   5.526   7.247
  138OSM    H8F15088   1.704   5.597   7.332
  138OSM    H8G15089   1.810   5.537   7.203
  138OSM    C9F15090   1.688   5.386   7.296
  138OSM    H9F15091   1.752   5.310   7.248
  138OSM   C10F15092   1.598   5.343   7.385
  138OSM   H10F15093   1.602   5.238   7.418
  138OSM   C11F15094   1.494   5.424   7.459
  138OSM   H11F15095   1.393   5.392   7.424
  138OSM   H11G15096   1.502   5.533   7.438
  138OSM   C12F15097   1.502   5.400   7.610
  138OSM   H12F15098   1.581   5.466   7.652
  138OSM   H12G15099   1.532   5.296   7.634
  138OSM   C13F15100   1.369   5.426   7.682
  138OSM   H13F15101   1.299   5.342   7.664
  138OSM   H13G15102   1.320   5.515   7.635
  138OSM   C14F15103   1.385   5.454   7.832
  138OSM   H14F15104   1.490   5.485   7.851
  138OSM   H14G15105   1.366   5.361   7.890
  138OSM   C15F15106   1.293   5.566   7.882
  138OSM   H15F15107   1.314   5.659   7.825
  138OSM   H15G15108   1.316   5.585   7.989
  138OSM   C16F15109   1.144   5.533   7.867
  138OSM   H16F15110   1.125   5.451   7.940
  138OSM   H16G15111   1.123   5.493   7.766
  138OSM   C17F15112   1.050   5.651   7.894
  138OSM   H17F15113   0.946   5.612   7.891
  138OSM   H17G15114   1.060   5.724   7.810
  138OSM   C18F15115   1.074   5.723   8.026
  138OSM   H18F15116   1.082   5.650   8.110
  138OSM   H18G15117   0.992   5.794   8.048
  138OSM   H18H15118   1.169   5.781   8.021
  139OSM      N15119   5.316   6.566   5.825
  139OSM    C1515120   5.288   6.548   5.971
  139OSM   H15A15121   5.313   6.638   6.025
  139OSM   H15B15122   5.349   6.470   6.014
  139OSM   H15C15123   5.185   6.525   5.990
  139OSM    C1415124   5.462   6.599   5.809
  139OSM   H14A15125   5.524   6.529   5.862
  139OSM   H14B15126   5.480   6.698   5.847
  139OSM   H14C15127   5.490   6.597   5.705
  139OSM    C1315128   5.289   6.440   5.749
  139OSM   H13A15129   5.184   6.412   5.755
  139OSM   H13B15130   5.349   6.359   5.787
  139OSM   H13C15131   5.316   6.451   5.645
  139OSM    C1215132   5.233   6.681   5.769
  139OSM   H12A15133   5.130   6.651   5.762
  139OSM   H12B15134   5.266   6.700   5.668
  139OSM    C1115135   5.237   6.817   5.845
  139OSM   H11A15136   5.198   6.802   5.947
  139OSM   H11B15137   5.168   6.887   5.793
  139OSM      P15138   5.407   6.984   5.952
  139OSM    O1315139   5.548   7.021   5.929
  139OSM    O1415140   5.308   7.092   5.938
  139OSM    O1115141   5.387   6.908   6.091
  139OSM    O1215142   5.369   6.872   5.845
  139OSM    C1S15143   5.405   6.985   6.211
  139OSM    H1S15144   5.356   7.084   6.203
  139OSM    H1T15145   5.513   7.001   6.231
  139OSM     NF15146   5.355   7.002   6.455
  139OSM    HNF15147   5.408   6.967   6.532
  139OSM    C2S15148   5.343   6.916   6.338
  139OSM    H2S15149   5.235   6.899   6.319
  139OSM    C3S15150   5.411   6.777   6.361
  139OSM    H3S15151   5.520   6.793   6.364
  139OSM     O315152   5.385   6.689   6.251
  139OSM    HO315153   5.376   6.751   6.179
  139OSM    C4S15154   5.366   6.717   6.493
  139OSM    H4S15155   5.258   6.699   6.502
  139OSM    C5S15156   5.447   6.681   6.595
  139OSM    H5S15157   5.556   6.686   6.579
  139OSM    C6S15158   5.409   6.620   6.728
  139OSM    H6S15159   5.488   6.549   6.759
  139OSM    H6T15160   5.317   6.560   6.715
  139OSM    C7S15161   5.383   6.715   6.848
  139OSM    H7S15162   5.362   6.650   6.936
  139OSM    H7T15163   5.293   6.777   6.828
  139OSM    C8S15164   5.499   6.807   6.893
  139OSM    H8S15165   5.522   6.877   6.810
  139OSM    H8T15166   5.590   6.746   6.912
  139OSM    C9S15167   5.467   6.890   7.020
  139OSM    H9S15168   5.371   6.944   7.006
  139OSM    H9T15169   5.547   6.967   7.028
  139OSM   C10S15170   5.464   6.813   7.154
  139OSM   H10S15171   5.546   6.738   7.154
  139OSM   H10T15172   5.368   6.757   7.164
  139OSM   C11S15173   5.483   6.906   7.275
  139OSM   H11S15174   5.401   6.980   7.280
  139OSM   H11T15175   5.577   6.963   7.258
  139OSM   C12S15176   5.497   6.838   7.413
  139OSM   H12S15177   5.535   6.915   7.484
  139OSM   H12T15178   5.573   6.758   7.408
  139OSM   C13S15179   5.368   6.780   7.474
  139OSM   H13S15180   5.330   6.699   7.409
  139OSM   H13T15181   5.290   6.859   7.481
  139OSM   C14S15182   5.394   6.725   7.615
  139OSM   H14S15183   5.455   6.799   7.671
  139OSM   H14T15184   5.455   6.633   7.602
  139OSM   C15S15185   5.271   6.692   7.702
  139OSM   H15S15186   5.187   6.759   7.672
  139OSM   H15T15187   5.295   6.715   7.807
  139OSM   C16S15188   5.227   6.544   7.697
  139OSM   H16S15189   5.304   6.485   7.751
  139OSM   H16T15190   5.230   6.510   7.591
  139OSM   C17S15191   5.087   6.511   7.754
  139OSM   H17S15192   5.079   6.401   7.766
  139OSM   H17T15193   5.011   6.539   7.678
  139OSM   C18S15194   5.041   6.580   7.883
  139OSM   H18S15195   5.106   6.665   7.911
  139OSM   H18T15196   5.037   6.508   7.968
  139OSM   H18U15197   4.936   6.616   7.871
  139OSM    C1F15198   5.297   7.121   6.466
  139OSM     OF15199   5.217   7.162   6.382
  139OSM    C2F15200   5.333   7.204   6.585
  139OSM    H2F15201   5.241   7.256   6.620
  139OSM    H2G15202   5.405   7.282   6.550
  139OSM    C3F15203   5.398   7.126   6.701
  139OSM    H3F15204   5.483   7.065   6.664
  139OSM    H3G15205   5.324   7.059   6.750
  139OSM    C4F15206   5.461   7.220   6.806
  139OSM    H4F15207   5.532   7.287   6.752
  139OSM    H4G15208   5.521   7.161   6.878
  139OSM    C5F15209   5.362   7.309   6.883
  139OSM    H5F15210   5.279   7.346   6.819
  139OSM    H5G15211   5.421   7.398   6.915
  139OSM    C6F15212   5.308   7.247   7.012
  139OSM    H6F15213   5.387   7.182   7.056
  139OSM    H6G15214   5.220   7.184   6.990
  139OSM    C7F15215   5.273   7.356   7.115
  139OSM    H7F15216   5.228   7.443   7.062
  139OSM    H7G15217   5.368   7.390   7.161
  139OSM    C8F15218   5.176   7.313   7.226
  139OSM    H8F15219   5.072   7.316   7.185
  139OSM    H8G15220   5.179   7.391   7.306
  139OSM    C9F15221   5.206   7.177   7.282
  139OSM    H9F15222   5.259   7.108   7.216
  139OSM   C10F15223   5.166   7.132   7.402
  139OSM   H10F15224   5.193   7.030   7.433
  139OSM   C11F15225   5.085   7.210   7.501
  139OSM   H11F15226   5.014   7.140   7.549
  139OSM   H11G15227   5.023   7.288   7.450
  139OSM   C12F15228   5.166   7.280   7.611
  139OSM   H12F15229   5.098   7.349   7.665
  139OSM   H12G15230   5.247   7.341   7.567
  139OSM   C13F15231   5.223   7.179   7.711
  139OSM   H13F15232   5.334   7.178   7.703
  139OSM   H13G15233   5.187   7.077   7.686
  139OSM   C14F15234   5.180   7.210   7.855
  139OSM   H14F15235   5.071   7.227   7.857
  139OSM   H14G15236   5.229   7.304   7.889
  139OSM   C15F15237   5.213   7.095   7.951
  139OSM   H15F15238   5.164   7.002   7.914
  139OSM   H15G15239   5.170   7.118   8.051
  139OSM   C16F15240   5.363   7.070   7.966
  139OSM   H16F15241   5.413   7.060   7.867
  139OSM   H16G15242   5.377   6.974   8.019
  139OSM   C17F15243   5.432   7.181   8.048
  139OSM   H17F15244   5.356   7.256   8.079
  139OSM   H17G15245   5.506   7.233   7.984
  139OSM   C18F15246   5.499   7.124   8.171
  139OSM   H18F15247   5.590   7.067   8.141
  139OSM   H18G15248   5.431   7.055   8.224
  139OSM   H18H15249   5.529   7.203   8.244
  140OSM      N15250   0.784   1.552   5.723
  140OSM    C1515251   0.802   1.676   5.641
  140OSM   H15A15252   0.888   1.730   5.675
  140OSM   H15B15253   0.716   1.741   5.649
  140OSM   H15C15254   0.820   1.652   5.537
  140OSM    C1415255   0.902   1.462   5.702
  140OSM   H14A15256   0.906   1.425   5.601
  140OSM   H14B15257   0.896   1.378   5.769
  140OSM   H14C15258   0.994   1.514   5.723
  140OSM    C1315259   0.787   1.591   5.868
  140OSM   H13A15260   0.880   1.641   5.891
  140OSM   H13B15261   0.782   1.501   5.928
  140OSM   H13C15262   0.704   1.654   5.894
  140OSM    C1215263   0.653   1.484   5.689
  140OSM   H12A15264   0.641   1.480   5.581
  140OSM   H12B15265   0.571   1.544   5.725
  140OSM    C1115266   0.631   1.341   5.744
  140OSM   H11A15267   0.711   1.275   5.705
  140OSM   H11B15268   0.534   1.301   5.707
  140OSM      P15269   0.696   1.230   5.968
  140OSM    O1315270   0.626   1.105   5.933
  140OSM    O1415271   0.842   1.244   5.946
  140OSM    O1115272   0.654   1.279   6.112
  140OSM    O1215273   0.626   1.346   5.886
  140OSM    C1S15274   0.682   1.416   6.145
  140OSM    H1S15275   0.605   1.482   6.101
  140OSM    H1T15276   0.782   1.449   6.110
  140OSM     NF15277   0.805   1.399   6.357
  140OSM    HNF15278   0.808   1.310   6.402
  140OSM    C2S15279   0.679   1.436   6.298
  140OSM    H2S15280   0.663   1.544   6.316
  140OSM    C3S15281   0.561   1.358   6.359
  140OSM    H3S15282   0.578   1.249   6.345
  140OSM     O315283   0.436   1.378   6.294
  140OSM    HO315284   0.459   1.377   6.201
  140OSM    C4S15285   0.554   1.389   6.506
  140OSM    H4S15286   0.576   1.492   6.537
  140OSM    C5S15287   0.529   1.293   6.597
  140OSM    H5S15288   0.514   1.192   6.556
  140OSM    C6S15289   0.520   1.298   6.746
  140OSM    H6S15290   0.560   1.202   6.783
  140OSM    H6T15291   0.413   1.302   6.777
  140OSM    C7S15292   0.595   1.406   6.825
  140OSM    H7S15293   0.556   1.507   6.801
  140OSM    H7T15294   0.703   1.404   6.799
  140OSM    C8S15295   0.577   1.377   6.975
  140OSM    H8S15296   0.629   1.281   6.997
  140OSM    H8T15297   0.469   1.363   6.997
  140OSM    C9S15298   0.633   1.483   7.068
  140OSM    H9S15299   0.597   1.466   7.172
  140OSM    H9T15300   0.597   1.583   7.035
  140OSM   C10S15301   0.784   1.485   7.072
  140OSM   H10S15302   0.823   1.467   6.969
  140OSM   H10T15303   0.823   1.405   7.138
  140OSM   C11S15304   0.837   1.620   7.118
  140OSM   H11S15305   0.794   1.696   7.050
  140OSM   H11T15306   0.948   1.619   7.108
  140OSM   C12S15307   0.797   1.664   7.258
  140OSM   H12S15308   0.687   1.668   7.267
  140OSM   H12T15309   0.836   1.767   7.268
  140OSM   C13S15310   0.854   1.577   7.370
  140OSM   H13S15311   0.811   1.475   7.356
  140OSM   H13T15312   0.817   1.615   7.468
  140OSM   C14S15313   1.008   1.570   7.371
  140OSM   H14S15314   1.049   1.673   7.363
  140OSM   H14T15315   1.040   1.514   7.281
  140OSM   C15S15316   1.071   1.502   7.494
  140OSM   H15S15317   1.084   1.574   7.577
  140OSM   H15T15318   1.174   1.470   7.468
  140OSM   C16S15319   0.994   1.384   7.550
  140OSM   H16S15320   1.050   1.292   7.523
  140OSM   H16T15321   0.892   1.375   7.508
  140OSM   C17S15322   0.972   1.387   7.701
  140OSM   H17S15323   0.881   1.444   7.727
  140OSM   H17T15324   1.057   1.434   7.755
  140OSM   C18S15325   0.960   1.244   7.746
  140OSM   H18S15326   0.963   1.234   7.856
  140OSM   H18T15327   1.043   1.183   7.704
  140OSM   H18U15328   0.866   1.201   7.706
  140OSM    C1F15329   0.920   1.463   6.348
  140OSM     OF15330   0.941   1.552   6.266
  140OSM    C2F15331   1.022   1.413   6.444
  140OSM    H2F15332   1.117   1.469   6.431
  140OSM    H2G15333   1.042   1.306   6.422
  140OSM    C3F15334   0.975   1.428   6.590
  140OSM    H3F15335   0.874   1.384   6.605
  140OSM    H3G15336   0.965   1.535   6.616
  140OSM    C4F15337   1.072   1.359   6.686
  140OSM    H4F15338   1.173   1.405   6.674
  140OSM    H4G15339   1.083   1.252   6.659
  140OSM    C5F15340   1.029   1.368   6.832
  140OSM    H5F15341   0.931   1.317   6.845
  140OSM    H5G15342   1.016   1.475   6.860
  140OSM    C6F15343   1.133   1.305   6.925
  140OSM    H6F15344   1.228   1.358   6.907
  140OSM    H6G15345   1.149   1.198   6.898
  140OSM    C7F15346   1.098   1.316   7.074
  140OSM    H7F15347   1.055   1.416   7.095
  140OSM    H7G15348   1.191   1.305   7.133
  140OSM    C8F15349   1.000   1.206   7.118
  140OSM    H8F15350   1.049   1.111   7.087
  140OSM    H8G15351   0.906   1.214   7.060
  140OSM    C9F15352   0.975   1.203   7.267
  140OSM    H9F15353   1.066   1.210   7.328
  140OSM   C10F15354   0.856   1.188   7.331
  140OSM   H10F15355   0.857   1.180   7.440
  140OSM   C11F15356   0.720   1.172   7.269
  140OSM   H11F15357   0.697   1.063   7.261
  140OSM   H11G15358   0.719   1.212   7.166
  140OSM   C12F15359   0.603   1.235   7.348
  140OSM   H12F15360   0.512   1.225   7.286
  140OSM   H12G15361   0.621   1.344   7.362
  140OSM   C13F15362   0.577   1.168   7.484
  140OSM   H13F15363   0.653   1.204   7.557
  140OSM   H13G15364   0.593   1.058   7.472
  140OSM   C14F15365   0.435   1.189   7.540
  140OSM   H14F15366   0.433   1.152   7.645
  140OSM   H14G15367   0.366   1.125   7.481
  140OSM   C15F15368   0.384   1.333   7.535
  140OSM   H15F15369   0.282   1.338   7.579
  140OSM   H15G15370   0.374   1.361   7.427
  140OSM   C16F15371   0.474   1.437   7.603
  140OSM   H16F15372   0.452   1.537   7.560
  140OSM   H16G15373   0.581   1.416   7.580
  140OSM   C17F15374   0.455   1.447   7.754
  140OSM   H17F15375   0.464   1.345   7.799
  140OSM   H17G15376   0.353   1.482   7.777
  140OSM   C18F15377   0.557   1.541   7.819
  140OSM   H18F15378   0.660   1.502   7.804
  140OSM   H18G15379   0.538   1.551   7.927
  140OSM   H18H15380   0.552   1.642   7.772
  141OSM      N15381   7.278   4.964   5.761
  141OSM    C1515382   7.230   5.067   5.664
  141OSM   H15A15383   7.297   5.153   5.666
  141OSM   H15B15384   7.133   5.105   5.691
  141OSM   H15C15385   7.228   5.030   5.563
  141OSM    C1415386   7.417   4.923   5.724
  141OSM   H14A15387   7.484   5.008   5.727
  141OSM   H14B15388   7.422   4.874   5.628
  141OSM   H14C15389   7.454   4.854   5.799
  141OSM    C1315390   7.286   5.024   5.898
  141OSM   H13A15391   7.350   5.112   5.900
  141OSM   H13B15392   7.329   4.951   5.966
  141OSM   H13C15393   7.190   5.054   5.937
  141OSM    C1215394   7.185   4.843   5.764
  141OSM   H12A15395   7.160   4.816   5.662
  141OSM   H12B15396   7.093   4.870   5.813
  141OSM    C1115397   7.236   4.714   5.833
  141OSM   H11A15398   7.321   4.676   5.773
  141OSM   H11B15399   7.158   4.635   5.825
  141OSM      P15400   7.409   4.680   6.021
  141OSM    O1315401   7.413   4.539   5.975
  141OSM    O1415402   7.507   4.773   5.962
  141OSM    O1115403   7.409   4.689   6.179
  141OSM    O1215404   7.266   4.735   5.973
  141OSM    C1S15405   7.322   4.770   6.257
  141OSM    H1S15406   7.219   4.770   6.213
  141OSM    H1T15407   7.358   4.876   6.259
  141OSM     NF15408   7.192   4.762   6.469
  141OSM    HNF15409   7.206   4.823   6.547
  141OSM    C2S15410   7.313   4.717   6.403
  141OSM    H2S15411   7.309   4.606   6.398
  141OSM    C3S15412   7.438   4.757   6.487
  141OSM    H3S15413   7.446   4.868   6.486
  141OSM     O315414   7.561   4.707   6.437
  141OSM    HO315415   7.545   4.682   6.346
  141OSM    C4S15416   7.422   4.710   6.631
  141OSM    H4S15417   7.427   4.601   6.644
  141OSM    C5S15418   7.408   4.791   6.738
  141OSM    H5S15419   7.416   4.899   6.721
  141OSM    C6S15420   7.393   4.754   6.884
  141OSM    H6S15421   7.414   4.647   6.903
  141OSM    H6T15422   7.290   4.775   6.920
  141OSM    C7S15423   7.492   4.842   6.963
  141OSM    H7S15424   7.467   4.948   6.940
  141OSM    H7T15425   7.594   4.821   6.924
  141OSM    C8S15426   7.498   4.832   7.116
  141OSM    H8S15427   7.594   4.783   7.144
  141OSM    H8T15428   7.416   4.766   7.153
  141OSM    C9S15429   7.492   4.970   7.186
  141OSM    H9S15430   7.391   5.014   7.172
  141OSM    H9T15431   7.562   5.040   7.137
  141OSM   C10S15432   7.522   4.965   7.336
  141OSM   H10S15433   7.627   4.935   7.353
  141OSM   H10T15434   7.458   4.885   7.380
  141OSM   C11S15435   7.493   5.096   7.411
  141OSM   H11S15436   7.417   5.156   7.356
  141OSM   H11T15437   7.586   5.158   7.414
  141OSM   C12S15438   7.442   5.075   7.555
  141OSM   H12S15439   7.341   5.030   7.552
  141OSM   H12T15440   7.432   5.174   7.605
  141OSM   C13S15441   7.535   4.984   7.638
  141OSM   H13S15442   7.639   5.022   7.630
  141OSM   H13T15443   7.533   4.882   7.593
  141OSM   C14S15444   7.498   4.970   7.786
  141OSM   H14S15445   7.554   4.884   7.828
  141OSM   H14T15446   7.390   4.946   7.796
  141OSM   C15S15447   7.533   5.095   7.868
  141OSM   H15S15448   7.479   5.183   7.827
  141OSM   H15T15449   7.641   5.117   7.855
  141OSM   C16S15450   7.503   5.081   8.019
  141OSM   H16S15451   7.568   5.003   8.064
  141OSM   H16T15452   7.402   5.038   8.032
  141OSM   C17S15453   7.510   5.215   8.096
  141OSM   H17S15454   7.501   5.299   8.023
  141OSM   H17T15455   7.610   5.225   8.143
  141OSM   C18S15456   7.400   5.233   8.202
  141OSM   H18S15457   7.365   5.134   8.238
  141OSM   H18T15458   7.313   5.287   8.160
  141OSM   H18U15459   7.438   5.291   8.289
  141OSM    C1F15460   7.068   4.727   6.438
  141OSM     OF15461   7.039   4.667   6.336
  141OSM    C2F15462   6.965   4.773   6.535
  141OSM    H2F15463   6.866   4.731   6.506
  141OSM    H2G15464   6.960   4.883   6.527
  141OSM    C3F15465   6.995   4.739   6.684
  141OSM    H3F15466   7.097   4.771   6.715
  141OSM    H3G15467   6.989   4.629   6.701
  141OSM    C4F15468   6.893   4.812   6.772
  141OSM    H4F15469   6.795   4.804   6.720
  141OSM    H4G15470   6.922   4.919   6.777
  141OSM    C5F15471   6.870   4.760   6.915
  141OSM    H5F15472   6.816   4.663   6.909
  141OSM    H5G15473   6.802   4.831   6.966
  141OSM    C6F15474   6.997   4.743   7.000
  141OSM    H6F15475   7.062   4.833   6.991
  141OSM    H6G15476   7.055   4.657   6.961
  141OSM    C7F15477   6.960   4.720   7.148
  141OSM    H7F15478   6.867   4.659   7.151
  141OSM    H7G15479   6.935   4.816   7.198
  141OSM    C8F15480   7.066   4.641   7.228
  141OSM    H8F15481   7.110   4.563   7.163
  141OSM    H8G15482   7.013   4.588   7.310
  141OSM    C9F15483   7.174   4.730   7.283
  141OSM    H9F15484   7.224   4.794   7.209
  141OSM   C10F15485   7.208   4.740   7.413
  141OSM   H10F15486   7.284   4.814   7.443
  141OSM   C11F15487   7.144   4.666   7.526
  141OSM   H11F15488   7.157   4.556   7.513
  141OSM   H11G15489   7.035   4.686   7.529
  141OSM   C12F15490   7.205   4.707   7.661
  141OSM   H12F15491   7.201   4.817   7.674
  141OSM   H12G15492   7.312   4.677   7.665
  141OSM   C13F15493   7.131   4.641   7.778
  141OSM   H13F15494   7.132   4.531   7.764
  141OSM   H13G15495   7.025   4.675   7.775
  141OSM   C14F15496   7.191   4.674   7.915
  141OSM   H14F15497   7.204   4.783   7.924
  141OSM   H14G15498   7.291   4.626   7.924
  141OSM   C15F15499   7.099   4.625   8.029
  141OSM   H15F15500   7.083   4.516   8.018
  141OSM   H15G15501   7.000   4.675   8.017
  141OSM   C16F15502   7.153   4.655   8.169
  141OSM   H16F15503   7.196   4.757   8.170
  141OSM   H16G15504   7.236   4.584   8.192
  141OSM   C17F15505   7.045   4.645   8.278
  141OSM   H17F15506   6.968   4.722   8.258
  141OSM   H17G15507   7.092   4.671   8.376
  141OSM   C18F15508   6.977   4.508   8.289
  141OSM   H18F15509   7.051   4.429   8.311
  141OSM   H18G15510   6.925   4.483   8.194
  141OSM   H18H15511   6.901   4.510   8.371
  142OSM      N15512   7.294   5.766   5.798
  142OSM    C1515513   7.290   5.643   5.713
  142OSM   H15A15514   7.387   5.617   5.674
  142OSM   H15B15515   7.221   5.654   5.630
  142OSM   H15C15516   7.255   5.560   5.773
  142OSM    C1415517   7.397   5.741   5.905
  142OSM   H14A15518   7.494   5.722   5.862
  142OSM   H14B15519   7.369   5.653   5.961
  142OSM   H14C15520   7.404   5.823   5.975
  142OSM    C1315521   7.335   5.881   5.711
  142OSM   H13A15522   7.263   5.898   5.632
  142OSM   H13B15523   7.431   5.861   5.666
  142OSM   H13C15524   7.343   5.972   5.769
  142OSM    C1215525   7.158   5.792   5.862
  142OSM   H12A15526   7.082   5.794   5.785
  142OSM   H12B15527   7.158   5.889   5.910
  142OSM    C1115528   7.108   5.690   5.968
  142OSM   H11A15529   7.007   5.720   6.002
  142OSM   H11B15530   7.174   5.696   6.058
  142OSM      P15531   7.170   5.436   5.978
  142OSM    O1315532   7.178   5.332   5.873
  142OSM    O1415533   7.294   5.482   6.042
  142OSM    O1115534   7.057   5.402   6.081
  142OSM    O1215535   7.102   5.561   5.910
  142OSM    C1S15536   7.079   5.323   6.197
  142OSM    H1S15537   7.175   5.267   6.193
  142OSM    H1T15538   6.997   5.247   6.204
  142OSM     NF15539   7.091   5.316   6.438
  142OSM    HNF15540   7.012   5.293   6.495
  142OSM    C2S15541   7.075   5.407   6.328
  142OSM    H2S15542   7.161   5.478   6.327
  142OSM    C3S15543   6.944   5.490   6.336
  142OSM    H3S15544   6.858   5.422   6.319
  142OSM     O315545   6.935   5.592   6.237
  142OSM    HO315546   6.986   5.556   6.165
  142OSM    C4S15547   6.934   5.552   6.472
  142OSM    H4S15548   7.009   5.629   6.494
  142OSM    C5S15549   6.843   5.517   6.565
  142OSM    H5S15550   6.770   5.439   6.540
  142OSM    C6S15551   6.831   5.574   6.703
  142OSM    H6S15552   6.799   5.492   6.772
  142OSM    H6T15553   6.748   5.648   6.705
  142OSM    C7S15554   6.956   5.640   6.765
  142OSM    H7S15555   6.921   5.687   6.860
  142OSM    H7T15556   6.991   5.722   6.698
  142OSM    C8S15557   7.078   5.552   6.796
  142OSM    H8S15558   7.112   5.502   6.703
  142OSM    H8T15559   7.052   5.472   6.869
  142OSM    C9S15560   7.194   5.635   6.853
  142OSM    H9S15561   7.214   5.717   6.781
  142OSM    H9T15562   7.286   5.573   6.859
  142OSM   C10S15563   7.167   5.698   6.991
  142OSM   H10S15564   7.059   5.724   7.003
  142OSM   H10T15565   7.223   5.793   6.999
  142OSM   C11S15566   7.210   5.612   7.110
  142OSM   H11S15567   7.321   5.608   7.113
  142OSM   H11T15568   7.173   5.508   7.097
  142OSM   C12S15569   7.156   5.671   7.241
  142OSM   H12S15570   7.045   5.673   7.236
  142OSM   H12T15571   7.191   5.776   7.251
  142OSM   C13S15572   7.200   5.592   7.364
  142OSM   H13S15573   7.308   5.609   7.381
  142OSM   H13T15574   7.185   5.483   7.347
  142OSM   C14S15575   7.119   5.634   7.487
  142OSM   H14S15576   7.015   5.595   7.476
  142OSM   H14T15577   7.113   5.744   7.493
  142OSM   C15S15578   7.177   5.580   7.618
  142OSM   H15S15579   7.203   5.472   7.607
  142OSM   H15T15580   7.099   5.590   7.696
  142OSM   C16S15581   7.300   5.659   7.665
  142OSM   H16S15582   7.267   5.763   7.689
  142OSM   H16T15583   7.375   5.666   7.583
  142OSM   C17S15584   7.366   5.598   7.788
  142OSM   H17S15585   7.409   5.500   7.761
  142OSM   H17T15586   7.290   5.581   7.867
  142OSM   C18S15587   7.474   5.689   7.844
  142OSM   H18S15588   7.523   5.643   7.932
  142OSM   H18T15589   7.431   5.787   7.875
  142OSM   H18U15590   7.552   5.710   7.767
  142OSM    C1F15591   7.204   5.249   6.454
  142OSM     OF15592   7.311   5.298   6.422
  142OSM    C2F15593   7.191   5.110   6.503
  142OSM    H2F15594   7.243   5.043   6.431
  142OSM    H2G15595   7.083   5.081   6.504
  142OSM    C3F15596   7.251   5.092   6.642
  142OSM    H3F15597   7.361   5.108   6.640
  142OSM    H3G15598   7.232   4.986   6.668
  142OSM    C4F15599   7.189   5.177   6.754
  142OSM    H4F15600   7.084   5.204   6.730
  142OSM    H4G15601   7.246   5.272   6.766
  142OSM    C5F15602   7.191   5.094   6.882
  142OSM    H5F15603   7.292   5.048   6.891
  142OSM    H5G15604   7.119   5.011   6.869
  142OSM    C6F15605   7.163   5.165   7.013
  142OSM    H6F15606   7.075   5.232   7.006
  142OSM    H6G15607   7.250   5.227   7.041
  142OSM    C7F15608   7.139   5.056   7.119
  142OSM    H7F15609   7.212   4.975   7.100
  142OSM    H7G15610   7.040   5.009   7.100
  142OSM    C8F15611   7.154   5.105   7.263
  142OSM    H8F15612   7.233   5.181   7.270
  142OSM    H8G15613   7.179   5.020   7.331
  142OSM    C9F15614   7.020   5.163   7.292
  142OSM    H9F15615   7.003   5.259   7.241
  142OSM   C10F15616   6.927   5.115   7.374
  142OSM   H10F15617   6.830   5.168   7.381
  142OSM   C11F15618   6.935   4.993   7.460
  142OSM   H11F15619   7.004   4.916   7.419
  142OSM   H11G15620   6.836   4.945   7.475
  142OSM   C12F15621   6.988   5.046   7.594
  142OSM   H12F15622   7.091   5.085   7.578
  142OSM   H12G15623   6.996   4.963   7.667
  142OSM   C13F15624   6.901   5.159   7.653
  142OSM   H13F15625   6.832   5.105   7.722
  142OSM   H13G15626   6.840   5.215   7.579
  142OSM   C14F15627   6.983   5.262   7.730
  142OSM   H14F15628   7.079   5.282   7.678
  142OSM   H14G15629   6.996   5.202   7.822
  142OSM   C15F15630   6.924   5.392   7.785
  142OSM   H15F15631   6.825   5.364   7.827
  142OSM   H15G15632   6.910   5.470   7.707
  142OSM   C16F15633   7.006   5.443   7.906
  142OSM   H16F15634   7.106   5.478   7.874
  142OSM   H16G15635   7.024   5.354   7.971
  142OSM   C17F15636   6.940   5.545   8.001
  142OSM   H17F15637   6.832   5.553   7.978
  142OSM   H17G15638   6.986   5.645   7.984
  142OSM   C18F15639   6.959   5.504   8.148
  142OSM   H18F15640   7.066   5.483   8.168
  142OSM   H18G15641   6.902   5.411   8.171
  142OSM   H18H15642   6.924   5.584   8.217
  143OSM      N15643   0.583   6.814   5.715
  143OSM    C1515644   0.693   6.716   5.740
  143OSM   H15A15645   0.750   6.696   5.650
  143OSM   H15B15646   0.655   6.622   5.777
  143OSM   H15C15647   0.761   6.756   5.813
  143OSM    C1415648   0.647   6.946   5.682
  143OSM   H14A15649   0.703   6.978   5.769
  143OSM   H14B15650   0.575   7.023   5.663
  143OSM   H14C15651   0.715   6.938   5.598
  143OSM    C1315652   0.501   6.771   5.598
  143OSM   H13A15653   0.453   6.676   5.617
  143OSM   H13B15654   0.564   6.760   5.511
  143OSM   H13C15655   0.425   6.845   5.576
  143OSM    C1215656   0.496   6.832   5.839
  143OSM   H12A15657   0.432   6.746   5.850
  143OSM   H12B15658   0.431   6.917   5.822
  143OSM    C1115659   0.568   6.856   5.974
  143OSM   H11A15660   0.624   6.764   6.002
  143OSM   H11B15661   0.491   6.869   6.053
  143OSM      P15662   0.801   6.968   6.017
  143OSM    O1315663   0.874   6.882   5.920
  143OSM    O1415664   0.854   7.105   6.032
  143OSM    O1115665   0.789   6.894   6.158
  143OSM    O1215666   0.650   6.973   5.970
  143OSM    C1S15667   0.709   6.954   6.262
  143OSM    H1S15668   0.603   6.963   6.232
  143OSM    H1T15669   0.747   7.055   6.287
  143OSM     NF15670   0.639   6.933   6.500
  143OSM    HNF15671   0.693   6.972   6.574
  143OSM    C2S15672   0.713   6.869   6.393
  143OSM    H2S15673   0.666   6.771   6.372
  143OSM    C3S15674   0.861   6.844   6.434
  143OSM    H3S15675   0.916   6.940   6.434
  143OSM     O315676   0.928   6.756   6.345
  143OSM    HO315677   0.885   6.773   6.261
  143OSM    C4S15678   0.866   6.783   6.571
  143OSM    H4S15679   0.857   6.674   6.574
  143OSM    C5S15680   0.884   6.852   6.686
  143OSM    H5S15681   0.900   6.961   6.683
  143OSM    C6S15682   0.892   6.789   6.822
  143OSM    H6S15683   0.993   6.813   6.862
  143OSM    H6T15684   0.884   6.679   6.817
  143OSM    C7S15685   0.798   6.838   6.933
  143OSM    H7S15686   0.694   6.803   6.914
  143OSM    H7T15687   0.799   6.949   6.939
  143OSM    C8S15688   0.850   6.781   7.066
  143OSM    H8S15689   0.956   6.811   7.077
  143OSM    H8T15690   0.846   6.670   7.063
  143OSM    C9S15691   0.780   6.831   7.192
  143OSM    H9S15692   0.786   6.941   7.199
  143OSM    H9T15693   0.837   6.787   7.276
  143OSM   C10S15694   0.634   6.785   7.202
  143OSM   H10S15695   0.629   6.675   7.188
  143OSM   H10T15696   0.575   6.831   7.120
  143OSM   C11S15697   0.571   6.821   7.337
  143OSM   H11S15698   0.468   6.780   7.336
  143OSM   H11T15699   0.564   6.931   7.348
  143OSM   C12S15700   0.646   6.762   7.458
  143OSM   H12S15701   0.697   6.668   7.426
  143OSM   H12T15702   0.571   6.733   7.534
  143OSM   C13S15703   0.745   6.859   7.525
  143OSM   H13S15704   0.693   6.955   7.545
  143OSM   H13T15705   0.830   6.882   7.458
  143OSM   C14S15706   0.800   6.805   7.657
  143OSM   H14S15707   0.713   6.784   7.724
  143OSM   H14T15708   0.861   6.883   7.706
  143OSM   C15S15709   0.885   6.678   7.644
  143OSM   H15S15710   0.983   6.702   7.598
  143OSM   H15T15711   0.833   6.605   7.577
  143OSM   C16S15712   0.904   6.609   7.779
  143OSM   H16S15713   0.951   6.509   7.763
  143OSM   H16T15714   0.803   6.590   7.822
  143OSM   C17S15715   0.989   6.689   7.880
  143OSM   H17S15716   0.943   6.789   7.893
  143OSM   H17T15717   1.090   6.705   7.836
  143OSM   C18S15718   1.002   6.621   8.017
  143OSM   H18S15719   1.052   6.522   8.009
  143OSM   H18T15720   0.902   6.603   8.061
  143OSM   H18U15721   1.060   6.685   8.087
  143OSM    C1F15722   0.507   6.932   6.513
  143OSM     OF15723   0.433   6.898   6.422
  143OSM    C2F15724   0.457   6.966   6.650
  143OSM    H2F15725   0.496   6.889   6.721
  143OSM    H2G15726   0.346   6.961   6.651
  143OSM    C3F15727   0.506   7.106   6.696
  143OSM    H3F15728   0.464   7.181   6.626
  143OSM    H3G15729   0.617   7.115   6.694
  143OSM    C4F15730   0.457   7.141   6.837
  143OSM    H4F15731   0.351   7.109   6.843
  143OSM    H4G15732   0.461   7.251   6.852
  143OSM    C5F15733   0.531   7.074   6.953
  143OSM    H5F15734   0.636   7.111   6.955
  143OSM    H5G15735   0.533   6.964   6.939
  143OSM    C6F15736   0.464   7.107   7.087
  143OSM    H6F15737   0.449   7.217   7.091
  143OSM    H6G15738   0.532   7.080   7.171
  143OSM    C7F15739   0.329   7.036   7.108
  143OSM    H7F15740   0.348   6.934   7.147
  143OSM    H7G15741   0.273   7.025   7.013
  143OSM    C8F15742   0.242   7.117   7.205
  143OSM    H8F15743   0.214   7.213   7.157
  143OSM    H8G15744   0.305   7.144   7.292
  143OSM    C9F15745   0.114   7.052   7.248
  143OSM    H9F15746   0.023   7.076   7.190
  143OSM   C10F15747   0.107   6.970   7.352
  143OSM   H10F15748   0.010   6.925   7.378
  143OSM   C11F15749   0.227   6.932   7.435
  143OSM   H11F15750   0.315   6.920   7.368
  143OSM   H11G15751   0.213   6.833   7.482
  143OSM   C12F15752   0.273   7.032   7.544
  143OSM   H12F15753   0.198   7.039   7.625
  143OSM   H12G15754   0.284   7.135   7.503
  143OSM   C13F15755   0.409   6.986   7.599
  143OSM   H13F15756   0.491   7.040   7.547
  143OSM   H13G15757   0.419   6.878   7.572
  143OSM   C14F15758   0.428   6.993   7.750
  143OSM   H14F15759   0.516   6.930   7.774
  143OSM   H14G15760   0.342   6.948   7.804
  143OSM   C15F15761   0.457   7.133   7.802
  143OSM   H15F15762   0.367   7.173   7.852
  143OSM   H15G15763   0.483   7.201   7.719
  143OSM   C16F15764   0.573   7.132   7.903
  143OSM   H16F15765   0.558   7.052   7.978
  143OSM   H16G15766   0.563   7.228   7.958
  143OSM   C17F15767   0.710   7.115   7.834
  143OSM   H17F15768   0.718   7.185   7.748
  143OSM   H17G15769   0.712   7.012   7.792
  143OSM   C18F15770   0.834   7.131   7.922
  143OSM   H18F15771   0.808   7.117   8.029
  143OSM   H18G15772   0.878   7.233   7.912
  143OSM   H18H15773   0.913   7.058   7.895
  144OSM      N15774   6.422   0.327   5.883
  144OSM    C1515775   6.374   0.357   6.022
  144OSM   H15A15776   6.327   0.270   6.067
  144OSM   H15B15777   6.300   0.436   6.023
  144OSM   H15C15778   6.455   0.388   6.085
  144OSM    C1415779   6.525   0.218   5.890
  144OSM   H14A15780   6.492   0.131   5.945
  144OSM   H14B15781   6.615   0.255   5.936
  144OSM   H14C15782   6.554   0.184   5.791
  144OSM    C1315783   6.308   0.279   5.799
  144OSM   H13A15784   6.341   0.254   5.699
  144OSM   H13B15785   6.230   0.353   5.791
  144OSM   H13C15786   6.264   0.189   5.840
  144OSM    C1215787   6.486   0.452   5.824
  144OSM   H12A15788   6.414   0.533   5.827
  144OSM   H12B15789   6.510   0.433   5.721
  144OSM    C1115790   6.616   0.502   5.890
  144OSM   H11A15791   6.606   0.502   6.001
  144OSM   H11B15792   6.632   0.607   5.859
  144OSM      P15793   6.872   0.471   5.839
  144OSM    O1315794   6.948   0.372   5.758
  144OSM    O1415795   6.866   0.607   5.783
  144OSM    O1115796   6.925   0.474   5.989
  144OSM    O1215797   6.724   0.417   5.851
  144OSM    C1S15798   6.870   0.393   6.094
  144OSM    H1S15799   6.921   0.294   6.096
  144OSM    H1T15800   6.762   0.373   6.080
  144OSM     NF15801   6.816   0.587   6.241
  144OSM    HNF15802   6.874   0.664   6.216
  144OSM    C2S15803   6.881   0.458   6.237
  144OSM    H2S15804   6.827   0.388   6.304
  144OSM    C3S15805   7.026   0.471   6.289
  144OSM    H3S15806   7.075   0.557   6.237
  144OSM     O315807   7.105   0.357   6.261
  144OSM    HO315808   7.089   0.341   6.168
  144OSM    C4S15809   7.023   0.504   6.437
  144OSM    H4S15810   7.090   0.587   6.463
  144OSM    C5S15811   6.951   0.446   6.537
  144OSM    H5S15812   6.884   0.362   6.516
  144OSM    C6S15813   6.958   0.488   6.682
  144OSM    H6S15814   7.037   0.566   6.694
  144OSM    H6T15815   6.992   0.403   6.745
  144OSM    C7S15816   6.829   0.544   6.745
  144OSM    H7S15817   6.788   0.624   6.681
  144OSM    H7T15818   6.856   0.591   6.842
  144OSM    C8S15819   6.720   0.440   6.778
  144OSM    H8S15820   6.680   0.399   6.683
  144OSM    H8T15821   6.637   0.492   6.830
  144OSM    C9S15822   6.769   0.322   6.866
  144OSM    H9S15823   6.845   0.265   6.809
  144OSM    H9T15824   6.685   0.252   6.884
  144OSM   C10S15825   6.830   0.361   7.002
  144OSM   H10S15826   6.908   0.439   6.989
  144OSM   H10T15827   6.882   0.272   7.042
  144OSM   C11S15828   6.726   0.410   7.106
  144OSM   H11S15829   6.624   0.400   7.063
  144OSM   H11T15830   6.743   0.518   7.125
  144OSM   C12S15831   6.731   0.335   7.240
  144OSM   H12S15832   6.649   0.375   7.304
  144OSM   H12T15833   6.827   0.357   7.292
  144OSM   C13S15834   6.714   0.182   7.228
  144OSM   H13S15835   6.809   0.130   7.253
  144OSM   H13T15836   6.692   0.159   7.121
  144OSM   C14S15837   6.597   0.126   7.310
  144OSM   H14S15838   6.561   0.032   7.263
  144OSM   H14T15839   6.514   0.199   7.306
  144OSM   C15S15840   6.626   0.096   7.457
  144OSM   H15S15841   6.683   0.180   7.504
  144OSM   H15T15842   6.689   0.005   7.464
  144OSM   C16S15843   6.494   0.075   7.532
  144OSM   H16S15844   6.511   0.019   7.627
  144OSM   H16T15845   6.427   0.012   7.469
  144OSM   C17S15846   6.425   0.208   7.565
  144OSM   H17S15847   6.317   0.201   7.537
  144OSM   H17T15848   6.468   0.289   7.504
  144OSM   C18S15849   6.435   0.244   7.713
  144OSM   H18S15850   6.384   0.341   7.734
  144OSM   H18T15851   6.542   0.254   7.743
  144OSM   H18U15852   6.390   0.165   7.777
  144OSM    C1F15853   6.685   0.599   6.248
  144OSM     OF15854   6.611   0.501   6.248
  144OSM    C2F15855   6.633   0.739   6.253
  144OSM    H2F15856   6.582   0.756   6.156
  144OSM    H2G15857   6.717   0.811   6.262
  144OSM    C3F15858   6.533   0.756   6.368
  144OSM    H3F15859   6.463   0.670   6.362
  144OSM    H3G15860   6.469   0.845   6.351
  144OSM    C4F15861   6.592   0.759   6.511
  144OSM    H4F15862   6.702   0.742   6.507
  144OSM    H4G15863   6.550   0.675   6.570
  144OSM    C5F15864   6.562   0.891   6.583
  144OSM    H5F15865   6.456   0.921   6.569
  144OSM    H5G15866   6.628   0.965   6.533
  144OSM    C6F15867   6.596   0.892   6.733
  144OSM    H6F15868   6.616   0.998   6.762
  144OSM    H6G15869   6.691   0.837   6.748
  144OSM    C7F15870   6.487   0.838   6.826
  144OSM    H7F15871   6.480   0.728   6.816
  144OSM    H7G15872   6.389   0.880   6.794
  144OSM    C8F15873   6.509   0.879   6.973
  144OSM    H8F15874   6.419   0.852   7.032
  144OSM    H8G15875   6.520   0.989   6.979
  144OSM    C9F15876   6.632   0.812   7.029
  144OSM    H9F15877   6.712   0.794   6.955
  144OSM   C10F15878   6.656   0.774   7.156
  144OSM   H10F15879   6.752   0.726   7.179
  144OSM   C11F15880   6.565   0.788   7.275
  144OSM   H11F15881   6.464   0.823   7.245
  144OSM   H11G15882   6.607   0.865   7.343
  144OSM   C12F15883   6.551   0.661   7.360
  144OSM   H12F15884   6.538   0.571   7.295
  144OSM   H12G15885   6.457   0.673   7.419
  144OSM   C13F15886   6.660   0.638   7.465
  144OSM   H13F15887   6.667   0.729   7.527
  144OSM   H13G15888   6.758   0.619   7.418
  144OSM   C14F15889   6.621   0.520   7.556
  144OSM   H14F15890   6.667   0.426   7.520
  144OSM   H14G15891   6.511   0.507   7.550
  144OSM   C15F15892   6.654   0.542   7.704
  144OSM   H15F15893   6.597   0.466   7.761
  144OSM   H15G15894   6.617   0.641   7.737
  144OSM   C16F15895   6.802   0.523   7.739
  144OSM   H16F15896   6.853   0.475   7.653
  144OSM   H16G15897   6.811   0.454   7.826
  144OSM   C17F15898   6.872   0.655   7.774
  144OSM   H17F15899   6.851   0.728   7.693
  144OSM   H17G15900   6.982   0.637   7.775
  144OSM   C18F15901   6.830   0.715   7.909
  144OSM   H18F15902   6.873   0.817   7.920
  144OSM   H18G15903   6.866   0.652   7.992
  144OSM   H18H15904   6.720   0.723   7.916
  145SAPE     N15905   2.612   3.233   9.979
  145SAPE   HN115906   2.695   3.185  10.018
  145SAPE   HN215907   2.643   3.309   9.915
  145SAPE   HN315908   2.562   3.276  10.060
  145SAPE   C1215909   2.521   3.130   9.917
  145SAPE  H12A15910   2.583   3.066   9.851
  145SAPE  H12B15911   2.446   3.183   9.855
  145SAPE   C1115912   2.450   3.045  10.026
  145SAPE  H11A15913   2.399   2.957   9.981
  145SAPE  H11B15914   2.369   3.108  10.068
  145SAPE     P15915   2.636   2.884  10.126
  145SAPE   O1315916   2.749   2.917  10.216
  145SAPE   O1415917   2.568   2.755  10.152
  145SAPE   O1215918   2.535   3.005  10.133
  145SAPE   O1115919   2.689   2.891   9.978
  145SAPE    C115920   2.713   2.772   9.902
  145SAPE    HA15921   2.821   2.767   9.877
  145SAPE    HB15922   2.691   2.678   9.957
  145SAPE    C215923   2.634   2.766   9.768
  145SAPE    HS15924   2.669   2.677   9.713
  145SAPE   O2115925   2.657   2.887   9.692
  145SAPE   C2115926   2.774   2.892   9.630
  145SAPE   O2215927   2.866   2.813   9.645
  145SAPE   C2215928   2.778   3.008   9.532
  145SAPE   H2R15929   2.728   3.096   9.580
  145SAPE   H2S15930   2.884   3.034   9.513
  145SAPE    C315931   2.481   2.738   9.792
  145SAPE    HX15932   2.469   2.697   9.895
  145SAPE    HY15933   2.450   2.657   9.724
  145SAPE   O3115934   2.396   2.854   9.779
  145SAPE   C3115935   2.362   2.882   9.654
  145SAPE   O3215936   2.406   2.828   9.554
  145SAPE   C3215937   2.256   2.993   9.658
  145SAPE   H2X15938   2.282   3.061   9.742
  145SAPE   H2Y15939   2.158   2.946   9.681
  145SAPE   C2315940   2.706   2.973   9.400
  145SAPE   H3R15941   2.697   3.064   9.337
  145SAPE   H3S15942   2.602   2.941   9.424
  145SAPE   C2415943   2.773   2.860   9.318
  145SAPE   H4R15944   2.697   2.826   9.245
  145SAPE   H4S15945   2.793   2.773   9.385
  145SAPE   C2515946   2.901   2.899   9.250
  145SAPE   H5R15947   2.979   2.942   9.315
  145SAPE   C2615948   2.929   2.886   9.118
  145SAPE   H6R15949   3.025   2.922   9.081
  145SAPE   C2715950   2.842   2.833   9.007
  145SAPE   H7R15951   2.738   2.818   9.042
  145SAPE   H7S15952   2.871   2.730   8.977
  145SAPE   C2815953   2.847   2.925   8.887
  145SAPE   H8R15954   2.912   2.897   8.804
  145SAPE   C2915955   2.782   3.042   8.883
  145SAPE   H9R15956   2.788   3.108   8.795
  145SAPE  C21015957   2.699   3.090   8.999
  145SAPE  H10R15958   2.760   3.165   9.053
  145SAPE  H10S15959   2.686   3.011   9.076
  145SAPE  C21115960   2.561   3.145   8.976
  145SAPE  H11R15961   2.527   3.208   9.060
  145SAPE  C21215962   2.474   3.127   8.876
  145SAPE  H12R15963   2.374   3.169   8.895
  145SAPE  C21315964   2.479   3.045   8.750
  145SAPE  H13R15965   2.550   2.961   8.761
  145SAPE  H13S15966   2.518   3.108   8.666
  145SAPE  C21415967   2.339   2.997   8.718
  145SAPE  H14R15968   2.262   3.020   8.793
  145SAPE  C21515969   2.299   2.929   8.610
  145SAPE  H15R15970   2.193   2.900   8.602
  145SAPE  C21615971   2.385   2.883   8.496
  145SAPE  H16R15972   2.396   2.773   8.502
  145SAPE  H16S15973   2.488   2.927   8.500
  145SAPE  C21715974   2.320   2.919   8.363
  145SAPE  H17R15975   2.320   3.029   8.351
  145SAPE  H17S15976   2.215   2.884   8.364
  145SAPE  C21815977   2.388   2.855   8.240
  145SAPE  H18R15978   2.496   2.879   8.240
  145SAPE  H18S15979   2.343   2.899   8.149
  145SAPE  C21915980   2.368   2.703   8.233
  145SAPE  H19R15981   2.259   2.680   8.239
  145SAPE  H19S15982   2.416   2.654   8.320
  145SAPE  C22015983   2.425   2.642   8.104
  145SAPE  H20R15984   2.370   2.680   8.015
  145SAPE  H20S15985   2.417   2.531   8.107
  145SAPE  H20T15986   2.532   2.669   8.093
  145SAPE   C3315987   2.248   3.074   9.527
  145SAPE   H3X15988   2.349   3.106   9.497
  145SAPE   H3Y15989   2.187   3.166   9.546
  145SAPE   C3415990   2.180   2.995   9.414
  145SAPE   H4X15991   2.075   2.973   9.442
  145SAPE   H4Y15992   2.233   2.897   9.405
  145SAPE   C3515993   2.184   3.062   9.276
  145SAPE   H5X15994   2.132   3.159   9.284
  145SAPE   H5Y15995   2.127   3.000   9.203
  145SAPE   C3615996   2.326   3.084   9.220
  145SAPE   H6X15997   2.382   3.149   9.290
  145SAPE   H6Y15998   2.316   3.139   9.124
  145SAPE   C3715999   2.412   2.958   9.197
  145SAPE   H7X16000   2.414   2.894   9.288
  145SAPE   H7Y16001   2.517   2.992   9.185
  145SAPE   C3816002   2.374   2.876   9.072
  145SAPE   H8X16003   2.327   2.942   8.996
  145SAPE   H8Y16004   2.294   2.806   9.106
  145SAPE   C3916005   2.487   2.794   9.007
  145SAPE   H9X16006   2.541   2.742   9.088
  145SAPE   H9Y16007   2.557   2.865   8.958
  145SAPE  C31016008   2.445   2.692   8.899
  145SAPE  H10X16009   2.377   2.740   8.826
  145SAPE  H10Y16010   2.387   2.612   8.951
  145SAPE  C31116011   2.560   2.623   8.823
  145SAPE  H11X16012   2.523   2.523   8.791
  145SAPE  H11Y16013   2.647   2.607   8.891
  145SAPE  C31216014   2.609   2.695   8.695
  145SAPE  H12X16015   2.705   2.747   8.716
  145SAPE  H12Y16016   2.535   2.774   8.670
  145SAPE  C31316017   2.625   2.604   8.572
  145SAPE  H13X16018   2.528   2.556   8.548
  145SAPE  H13Y16019   2.698   2.523   8.597
  145SAPE  C31416020   2.676   2.679   8.447
  145SAPE  H14X16021   2.763   2.740   8.477
  145SAPE  H14Y16022   2.599   2.750   8.409
  145SAPE  C31516023   2.719   2.587   8.331
  145SAPE  H15X16024   2.631   2.534   8.287
  145SAPE  H15Y16025   2.787   2.511   8.375
  145SAPE  C31616026   2.796   2.662   8.221
  145SAPE  H16X16027   2.869   2.724   8.278
  145SAPE  H16Y16028   2.729   2.734   8.169
  145SAPE  C31716029   2.874   2.579   8.118
  145SAPE  H17X16030   2.824   2.588   8.019
  145SAPE  H17Y16031   2.868   2.471   8.145
  145SAPE  C31816032   3.023   2.614   8.101
  145SAPE  H18X16033   3.068   2.560   8.015
  145SAPE  H18Y16034   3.081   2.590   8.192
  145SAPE  H18Z16035   3.039   2.723   8.085
  146SAPE     N16036   2.383   2.154  10.063
  146SAPE   HN116037   2.398   2.169  10.165
  146SAPE   HN216038   2.344   2.058  10.049
  146SAPE   HN316039   2.473   2.162  10.012
  146SAPE   C1216040   2.285   2.256  10.011
  146SAPE  H12A16041   2.267   2.233   9.904
  146SAPE  H12B16042   2.333   2.356  10.018
  146SAPE   C1116043   2.154   2.249  10.091
  146SAPE  H11A16044   2.169   2.284  10.195
  146SAPE  H11B16045   2.124   2.142  10.095
  146SAPE     P16046   2.042   2.477  10.025
  146SAPE   O1316047   1.996   2.524  10.159
  146SAPE   O1416048   2.172   2.527   9.976
  146SAPE   O1216049   2.048   2.319  10.028
  146SAPE   O1116050   1.927   2.505   9.923
  146SAPE    C116051   1.800   2.438   9.935
  146SAPE    HA16052   1.790   2.384  10.031
  146SAPE    HB16053   1.720   2.515   9.932
  146SAPE    C216054   1.771   2.335   9.821
  146SAPE    HS16055   1.703   2.258   9.863
  146SAPE   O2116056   1.893   2.276   9.775
  146SAPE   C2116057   1.872   2.172   9.697
  146SAPE   O2216058   1.768   2.108   9.689
  146SAPE   C2216059   1.991   2.153   9.603
  146SAPE   H2R16060   1.970   2.058   9.550
  146SAPE   H2S16061   1.986   2.236   9.530
  146SAPE    C316062   1.697   2.405   9.703
  146SAPE    HX16063   1.594   2.428   9.738
  146SAPE    HY16064   1.682   2.335   9.617
  146SAPE   O3116065   1.763   2.528   9.668
  146SAPE   C3116066   1.834   2.526   9.558
  146SAPE   O3216067   1.833   2.436   9.474
  146SAPE   C3216068   1.915   2.655   9.547
  146SAPE   H2X16069   1.853   2.740   9.582
  146SAPE   H2Y16070   1.938   2.671   9.440
  146SAPE   C2316071   2.132   2.151   9.669
  146SAPE   H3R16072   2.142   2.056   9.726
  146SAPE   H3S16073   2.138   2.235   9.742
  146SAPE   C2416074   2.250   2.165   9.570
  146SAPE   H4R16075   2.342   2.119   9.612
  146SAPE   H4S16076   2.280   2.271   9.559
  146SAPE   C2516077   2.209   2.102   9.438
  146SAPE   H5R16078   2.140   2.018   9.453
  146SAPE   C2616079   2.245   2.125   9.311
  146SAPE   H6R16080   2.193   2.067   9.234
  146SAPE   C2716081   2.344   2.222   9.256
  146SAPE   H7R16082   2.428   2.241   9.326
  146SAPE   H7S16083   2.292   2.319   9.240
  146SAPE   C2816084   2.394   2.170   9.123
  146SAPE   H8R16085   2.477   2.098   9.127
  146SAPE   C2916086   2.348   2.208   9.002
  146SAPE   H9R16087   2.390   2.163   8.911
  146SAPE  C21016088   2.238   2.310   8.979
  146SAPE  H10R16089   2.240   2.340   8.873
  146SAPE  H10S16090   2.264   2.402   9.035
  146SAPE  C21116091   2.099   2.267   9.020
  146SAPE  H11R16092   2.075   2.278   9.127
  146SAPE  C21216093   2.007   2.216   8.936
  146SAPE  H12R16094   1.907   2.190   8.974
  146SAPE  C21316095   2.034   2.196   8.789
  146SAPE  H13R16096   2.138   2.159   8.776
  146SAPE  H13S16097   2.032   2.296   8.741
  146SAPE  C21416098   1.938   2.108   8.714
  146SAPE  H14R16099   1.834   2.108   8.749
  146SAPE  C21516100   1.971   2.032   8.607
  146SAPE  H15R16101   1.894   1.971   8.558
  146SAPE  C21616102   2.109   2.023   8.546
  146SAPE  H16R16103   2.117   1.933   8.481
  146SAPE  H16S16104   2.187   2.013   8.625
  146SAPE  C21716105   2.138   2.148   8.463
  146SAPE  H17R16106   2.130   2.236   8.530
  146SAPE  H17S16107   2.063   2.156   8.382
  146SAPE  C21816108   2.278   2.155   8.401
  146SAPE  H18R16109   2.292   2.067   8.335
  146SAPE  H18S16110   2.353   2.149   8.484
  146SAPE  C21916111   2.301   2.285   8.322
  146SAPE  H19R16112   2.409   2.310   8.325
  146SAPE  H19S16113   2.247   2.368   8.373
  146SAPE  C22016114   2.257   2.277   8.175
  146SAPE  H20R16115   2.154   2.235   8.167
  146SAPE  H20S16116   2.325   2.211   8.118
  146SAPE  H20T16117   2.257   2.377   8.129
  146SAPE   C3316118   2.045   2.647   9.630
  146SAPE   H3X16119   2.022   2.660   9.738
  146SAPE   H3Y16120   2.113   2.730   9.600
  146SAPE   C3416121   2.120   2.514   9.613
  146SAPE   H4X16122   2.059   2.434   9.662
  146SAPE   H4Y16123   2.216   2.517   9.668
  146SAPE   C3516124   2.143   2.477   9.466
  146SAPE   H5X16125   2.054   2.498   9.404
  146SAPE   H5Y16126   2.154   2.368   9.452
  146SAPE   C3616127   2.263   2.548   9.408
  146SAPE   H6X16128   2.326   2.475   9.353
  146SAPE   H6Y16129   2.326   2.592   9.488
  146SAPE   C3716130   2.217   2.657   9.312
  146SAPE   H7X16131   2.306   2.720   9.289
  146SAPE   H7Y16132   2.143   2.719   9.366
  146SAPE   C3816133   2.153   2.607   9.182
  146SAPE   H8X16134   2.098   2.511   9.197
  146SAPE   H8Y16135   2.236   2.587   9.111
  146SAPE   C3916136   2.056   2.711   9.122
  146SAPE   H9X16137   2.069   2.805   9.178
  146SAPE   H9Y16138   1.951   2.679   9.136
  146SAPE  C31016139   2.086   2.741   8.974
  146SAPE  H10X16140   2.192   2.718   8.951
  146SAPE  H10Y16141   2.072   2.849   8.953
  146SAPE  C31116142   2.001   2.658   8.879
  146SAPE  H11X16143   1.913   2.717   8.845
  146SAPE  H11Y16144   1.961   2.569   8.933
  146SAPE  C31216145   2.077   2.610   8.756
  146SAPE  H12X16146   2.152   2.533   8.786
  146SAPE  H12Y16147   2.131   2.694   8.708
  146SAPE  C31316148   1.974   2.552   8.661
  146SAPE  H13X16149   1.901   2.632   8.637
  146SAPE  H13Y16150   1.917   2.474   8.716
  146SAPE  C31416151   2.029   2.492   8.532
  146SAPE  H14X16152   2.123   2.437   8.553
  146SAPE  H14Y16153   2.054   2.574   8.462
  146SAPE  C31516154   1.923   2.399   8.472
  146SAPE  H15X16155   1.823   2.434   8.506
  146SAPE  H15Y16156   1.931   2.297   8.515
  146SAPE  C31616157   1.921   2.394   8.319
  146SAPE  H16X16158   2.015   2.344   8.285
  146SAPE  H16Y16159   1.922   2.497   8.277
  146SAPE  C31716160   1.800   2.317   8.265
  146SAPE  H17X16161   1.726   2.390   8.225
  146SAPE  H17Y16162   1.750   2.264   8.350
  146SAPE  C31816163   1.833   2.215   8.157
  146SAPE  H18X16164   1.900   2.136   8.197
  146SAPE  H18Y16165   1.884   2.264   8.071
  146SAPE  H18Z16166   1.740   2.166   8.119
  147SAPE     N16167   4.502   5.826  10.352
  147SAPE   HN116168   4.485   5.733  10.309
  147SAPE   HN216169   4.567   5.813  10.433
  147SAPE   HN316170   4.412   5.864  10.388
  147SAPE   C1216171   4.567   5.921  10.255
  147SAPE  H12A16172   4.654   5.869  10.209
  147SAPE  H12B16173   4.604   6.009  10.313
  147SAPE   C1116174   4.467   5.967  10.149
  147SAPE  H11A16175   4.378   6.012  10.199
  147SAPE  H11B16176   4.431   5.878  10.092
  147SAPE     P16177   4.621   6.030   9.944
  147SAPE   O1316178   4.620   6.143   9.850
  147SAPE   O1416179   4.752   5.985   9.998
  147SAPE   O1216180   4.525   6.066  10.066
  147SAPE   O1116181   4.543   5.907   9.881
  147SAPE    C116182   4.413   5.924   9.822
  147SAPE    HA16183   4.336   5.932   9.902
  147SAPE    HB16184   4.407   6.015   9.759
  147SAPE    C216185   4.377   5.802   9.733
  147SAPE    HS16186   4.405   5.709   9.787
  147SAPE   O2116187   4.446   5.816   9.608
  147SAPE   C2116188   4.569   5.766   9.609
  147SAPE   O2216189   4.613   5.688   9.691
  147SAPE   C2216190   4.647   5.822   9.491
  147SAPE   H2R16191   4.603   5.780   9.397
  147SAPE   H2S16192   4.635   5.933   9.490
  147SAPE    C316193   4.224   5.790   9.708
  147SAPE    HX16194   4.175   5.778   9.807
  147SAPE    HY16195   4.205   5.696   9.653
  147SAPE   O3116196   4.169   5.907   9.642
  147SAPE   C3116197   4.177   5.901   9.509
  147SAPE   O3216198   4.199   5.802   9.443
  147SAPE   C3216199   4.154   6.037   9.447
  147SAPE   H2X16200   4.110   6.107   9.521
  147SAPE   H2Y16201   4.083   6.023   9.362
  147SAPE   C2316202   4.795   5.782   9.502
  147SAPE   H3R16203   4.799   5.672   9.515
  147SAPE   H3S16204   4.840   5.828   9.593
  147SAPE   C2416205   4.880   5.813   9.378
  147SAPE   H4R16206   4.840   5.755   9.293
  147SAPE   H4S16207   4.983   5.774   9.396
  147SAPE   C2516208   4.886   5.961   9.351
  147SAPE   H5R16209   4.936   6.021   9.429
  147SAPE   C2616210   4.839   6.022   9.241
  147SAPE   H6R16211   4.851   6.131   9.232
  147SAPE   C2716212   4.771   5.954   9.125
  147SAPE   H7R16213   4.695   6.023   9.082
  147SAPE   H7S16214   4.713   5.866   9.159
  147SAPE   C2816215   4.873   5.909   9.023
  147SAPE   H8R16216   4.937   5.827   9.056
  147SAPE   C2916217   4.890   5.959   8.898
  147SAPE   H9R16218   4.965   5.911   8.833
  147SAPE  C21016219   4.811   6.070   8.834
  147SAPE  H10R16220   4.870   6.164   8.845
  147SAPE  H10S16221   4.716   6.089   8.888
  147SAPE  C21116222   4.779   6.050   8.687
  147SAPE  H11R16223   4.809   6.134   8.623
  147SAPE  C21216224   4.720   5.943   8.630
  147SAPE  H12R16225   4.704   5.944   8.521
  147SAPE  C21316226   4.672   5.818   8.700
  147SAPE  H13R16227   4.674   5.830   8.811
  147SAPE  H13S16228   4.744   5.736   8.680
  147SAPE  C21416229   4.534   5.769   8.664
  147SAPE  H14R16230   4.461   5.773   8.746
  147SAPE  C21516231   4.494   5.721   8.544
  147SAPE  H15R16232   4.389   5.691   8.533
  147SAPE  C21616233   4.578   5.706   8.420
  147SAPE  H16R16234   4.681   5.674   8.445
  147SAPE  H16S16235   4.585   5.804   8.369
  147SAPE  C21716236   4.516   5.603   8.323
  147SAPE  H17R16237   4.406   5.614   8.320
  147SAPE  H17S16238   4.538   5.501   8.363
  147SAPE  C21816239   4.567   5.613   8.179
  147SAPE  H18R16240   4.530   5.525   8.122
  147SAPE  H18S16241   4.678   5.610   8.176
  147SAPE  C21916242   4.516   5.739   8.108
  147SAPE  H19R16243   4.560   5.829   8.157
  147SAPE  H19S16244   4.406   5.743   8.122
  147SAPE  C22016245   4.546   5.744   7.959
  147SAPE  H20R16246   4.655   5.760   7.942
  147SAPE  H20S16247   4.491   5.826   7.909
  147SAPE  H20T16248   4.515   5.648   7.911
  147SAPE   C3316249   4.288   6.092   9.393
  147SAPE   H3X16250   4.365   6.013   9.388
  147SAPE   H3Y16251   4.326   6.170   9.462
  147SAPE   C3416252   4.276   6.151   9.252
  147SAPE   H4X16253   4.211   6.240   9.255
  147SAPE   H4Y16254   4.231   6.077   9.182
  147SAPE   C3516255   4.415   6.189   9.201
  147SAPE   H5X16256   4.476   6.099   9.180
  147SAPE   H5Y16257   4.466   6.245   9.284
  147SAPE   C3616258   4.412   6.282   9.080
  147SAPE   H6X16259   4.508   6.338   9.082
  147SAPE   H6Y16260   4.329   6.355   9.091
  147SAPE   C3716261   4.403   6.212   8.944
  147SAPE   H7X16262   4.309   6.154   8.936
  147SAPE   H7Y16263   4.488   6.141   8.935
  147SAPE   C3816264   4.411   6.315   8.830
  147SAPE   H8X16265   4.491   6.389   8.853
  147SAPE   H8Y16266   4.316   6.373   8.825
  147SAPE   C3916267   4.445   6.254   8.694
  147SAPE   H9X16268   4.527   6.179   8.703
  147SAPE   H9Y16269   4.481   6.336   8.627
  147SAPE  C31016270   4.321   6.192   8.632
  147SAPE  H10X16271   4.242   6.271   8.639
  147SAPE  H10Y16272   4.287   6.105   8.692
  147SAPE  C31116273   4.336   6.156   8.484
  147SAPE  H11X16274   4.409   6.223   8.434
  147SAPE  H11Y16275   4.237   6.175   8.438
  147SAPE  C31216276   4.372   6.009   8.460
  147SAPE  H12X16277   4.332   5.949   8.545
  147SAPE  H12Y16278   4.483   5.998   8.461
  147SAPE  C31316279   4.313   5.949   8.331
  147SAPE  H13X16280   4.203   5.942   8.345
  147SAPE  H13Y16281   4.349   5.845   8.318
  147SAPE  C31416282   4.344   6.030   8.204
  147SAPE  H14X16283   4.449   6.013   8.174
  147SAPE  H14Y16284   4.335   6.139   8.227
  147SAPE  C31516285   4.248   5.996   8.090
  147SAPE  H15X16286   4.144   5.996   8.128
  147SAPE  H15Y16287   4.269   5.893   8.055
  147SAPE  C31616288   4.254   6.093   7.970
  147SAPE  H16X16289   4.221   6.194   8.002
  147SAPE  H16Y16290   4.182   6.058   7.894
  147SAPE  C31716291   4.393   6.107   7.907
  147SAPE  H17X16292   4.457   6.024   7.943
  147SAPE  H17Y16293   4.439   6.201   7.944
  147SAPE  C31816294   4.390   6.106   7.754
  147SAPE  H18X16295   4.492   6.089   7.714
  147SAPE  H18Y16296   4.351   6.202   7.715
  147SAPE  H18Z16297   4.323   6.025   7.718
  148SAPE     N16298   3.306   0.938  10.203
  148SAPE   HN116299   3.325   1.036  10.230
  148SAPE   HN216300   3.225   0.908  10.261
  148SAPE   HN316301   3.392   0.886  10.227
  148SAPE   C1216302   3.278   0.940  10.054
  148SAPE  H12A16303   3.227   0.846  10.025
  148SAPE  H12B16304   3.376   0.947  10.003
  148SAPE   C1116305   3.195   1.064  10.021
  148SAPE  H11A16306   3.092   1.051  10.060
  148SAPE  H11B16307   3.187   1.075   9.911
  148SAPE     P16308   3.331   1.288  10.004
  148SAPE   O1316309   3.383   1.383  10.104
  148SAPE   O1416310   3.426   1.219   9.914
  148SAPE   O1216311   3.254   1.176  10.085
  148SAPE   O1116312   3.213   1.353   9.919
  148SAPE    C116313   3.101   1.402   9.996
  148SAPE    HA16314   3.067   1.328  10.072
  148SAPE    HB16315   3.129   1.495  10.050
  148SAPE    C216316   2.974   1.431   9.911
  148SAPE    HS16317   2.885   1.403   9.972
  148SAPE   O2116318   2.975   1.359   9.786
  148SAPE   C2116319   2.961   1.229   9.798
  148SAPE   O2216320   2.938   1.166   9.899
  148SAPE   C2216321   2.974   1.165   9.659
  148SAPE   H2R16322   2.960   1.243   9.582
  148SAPE   H2S16323   3.076   1.123   9.650
  148SAPE    C316324   2.961   1.583   9.881
  148SAPE    HX16325   2.964   1.633   9.981
  148SAPE    HY16326   2.862   1.605   9.836
  148SAPE   O3116327   3.070   1.632   9.802
  148SAPE   C3116328   3.057   1.605   9.673
  148SAPE   O3216329   2.952   1.607   9.610
  148SAPE   C3216330   3.193   1.571   9.615
  148SAPE   H2X16331   3.258   1.534   9.698
  148SAPE   H2Y16332   3.237   1.664   9.575
  148SAPE   C2316333   2.868   1.054   9.642
  148SAPE   H3R16334   2.767   1.099   9.654
  148SAPE   H3S16335   2.879   0.979   9.723
  148SAPE   C2416336   2.874   0.980   9.507
  148SAPE   H4R16337   2.795   0.902   9.509
  148SAPE   H4S16338   2.972   0.930   9.495
  148SAPE   C2516339   2.847   1.075   9.393
  148SAPE   H5R16340   2.793   1.166   9.423
  148SAPE   C2616341   2.876   1.056   9.263
  148SAPE   H6R16342   2.850   1.136   9.192
  148SAPE   C2716343   2.941   0.934   9.204
  148SAPE   H7R16344   2.918   0.843   9.263
  148SAPE   H7S16345   3.051   0.946   9.209
  148SAPE   C2816346   2.895   0.917   9.061
  148SAPE   H8R16347   2.797   0.869   9.048
  148SAPE   C2916348   2.964   0.956   8.951
  148SAPE   H9R16349   2.919   0.940   8.852
  148SAPE  C21016350   3.099   1.024   8.949
  148SAPE  H10R16351   3.125   1.041   8.842
  148SAPE  H10S16352   3.175   0.952   8.985
  148SAPE  C21116353   3.116   1.153   9.026
  148SAPE  H11R16354   3.147   1.141   9.131
  148SAPE  C21216355   3.097   1.278   8.978
  148SAPE  H12R16356   3.114   1.364   9.044
  148SAPE  C21316357   3.053   1.311   8.838
  148SAPE  H13R16358   3.100   1.244   8.762
  148SAPE  H13S16359   3.080   1.415   8.811
  148SAPE  C21416360   2.905   1.292   8.835
  148SAPE  H14R16361   2.854   1.325   8.926
  148SAPE  C21516362   2.832   1.233   8.740
  148SAPE  H15R16363   2.724   1.230   8.756
  148SAPE  C21616364   2.876   1.171   8.610
  148SAPE  H16R16365   2.839   1.067   8.606
  148SAPE  H16S16366   2.986   1.168   8.598
  148SAPE  C21716367   2.814   1.250   8.494
  148SAPE  H17R16368   2.861   1.350   8.486
  148SAPE  H17S16369   2.705   1.264   8.511
  148SAPE  C21816370   2.824   1.174   8.363
  148SAPE  H18R16371   2.776   1.076   8.382
  148SAPE  H18S16372   2.930   1.157   8.336
  148SAPE  C21916373   2.750   1.241   8.246
  148SAPE  H19R16374   2.643   1.247   8.273
  148SAPE  H19S16375   2.756   1.174   8.157
  148SAPE  C22016376   2.802   1.380   8.209
  148SAPE  H20R16377   2.789   1.451   8.294
  148SAPE  H20S16378   2.746   1.420   8.122
  148SAPE  H20T16379   2.909   1.378   8.183
  148SAPE   C3316380   3.185   1.462   9.506
  148SAPE   H3X16381   3.107   1.487   9.430
  148SAPE   H3Y16382   3.155   1.366   9.554
  148SAPE   C3416383   3.319   1.442   9.435
  148SAPE   H4X16384   3.315   1.347   9.378
  148SAPE   H4Y16385   3.399   1.431   9.512
  148SAPE   C3516386   3.353   1.558   9.341
  148SAPE   H5X16387   3.346   1.654   9.397
  148SAPE   H5Y16388   3.278   1.564   9.259
  148SAPE   C3616389   3.494   1.549   9.282
  148SAPE   H6X16390   3.559   1.491   9.351
  148SAPE   H6Y16391   3.535   1.651   9.273
  148SAPE   C3716392   3.498   1.488   9.142
  148SAPE   H7X16393   3.601   1.496   9.102
  148SAPE   H7Y16394   3.432   1.547   9.075
  148SAPE   C3816395   3.456   1.341   9.135
  148SAPE   H8X16396   3.352   1.329   9.172
  148SAPE   H8Y16397   3.523   1.279   9.199
  148SAPE   C3916398   3.461   1.292   8.991
  148SAPE   H9X16399   3.555   1.328   8.945
  148SAPE   H9Y16400   3.378   1.344   8.938
  148SAPE  C31016401   3.450   1.140   8.978
  148SAPE  H10X16402   3.366   1.105   9.042
  148SAPE  H10Y16403   3.540   1.092   9.021
  148SAPE  C31116404   3.428   1.086   8.836
  148SAPE  H11X16405   3.352   1.005   8.841
  148SAPE  H11Y16406   3.521   1.038   8.798
  148SAPE  C31216407   3.381   1.190   8.734
  148SAPE  H12X16408   3.460   1.264   8.711
  148SAPE  H12Y16409   3.297   1.247   8.778
  148SAPE  C31316410   3.331   1.130   8.602
  148SAPE  H13X16411   3.249   1.057   8.623
  148SAPE  H13Y16412   3.413   1.076   8.551
  148SAPE  C31416413   3.278   1.241   8.512
  148SAPE  H14X16414   3.360   1.313   8.491
  148SAPE  H14Y16415   3.197   1.297   8.563
  148SAPE  C31516416   3.224   1.188   8.379
  148SAPE  H15X16417   3.136   1.124   8.399
  148SAPE  H15Y16418   3.301   1.122   8.333
  148SAPE  C31616419   3.189   1.302   8.284
  148SAPE  H16X16420   3.206   1.400   8.332
  148SAPE  H16Y16421   3.080   1.295   8.260
  148SAPE  C31716422   3.268   1.295   8.153
  148SAPE  H17X16423   3.225   1.368   8.082
  148SAPE  H17Y16424   3.252   1.193   8.111
  148SAPE  C31816425   3.418   1.320   8.169
  148SAPE  H18X16426   3.475   1.270   8.087
  148SAPE  H18Y16427   3.456   1.282   8.266
  148SAPE  H18Z16428   3.440   1.429   8.164
  149SAPE     N16429   0.864   3.838   9.864
  149SAPE   HN116430   0.850   3.814   9.964
  149SAPE   HN216431   0.822   3.932   9.847
  149SAPE   HN316432   0.819   3.763   9.809
  149SAPE   C1216433   1.013   3.838   9.841
  149SAPE  H12A16434   1.058   3.916   9.906
  149SAPE  H12B16435   1.033   3.862   9.734
  149SAPE   C1116436   1.067   3.700   9.879
  149SAPE  H11A16437   1.179   3.704   9.879
  149SAPE  H11B16438   1.036   3.626   9.802
  149SAPE     P16439   1.101   3.634  10.131
  149SAPE   O1316440   1.191   3.749  10.146
  149SAPE   O1416441   1.004   3.614  10.241
  149SAPE   O1216442   1.013   3.659  10.003
  149SAPE   O1116443   1.184   3.503  10.100
  149SAPE    C116444   1.141   3.398  10.012
  149SAPE    HA16445   1.137   3.303  10.071
  149SAPE    HB16446   1.040   3.414   9.969
  149SAPE    C216447   1.240   3.371   9.893
  149SAPE    HS16448   1.343   3.370   9.936
  149SAPE   O2116449   1.228   3.479   9.799
  149SAPE   C2116450   1.264   3.467   9.672
  149SAPE   O2216451   1.320   3.373   9.620
  149SAPE   C2216452   1.214   3.590   9.594
  149SAPE   H2R16453   1.107   3.575   9.571
  149SAPE   H2S16454   1.227   3.679   9.659
  149SAPE    C316455   1.215   3.229   9.834
  149SAPE    HX16456   1.206   3.157   9.919
  149SAPE    HY16457   1.304   3.198   9.775
  149SAPE   O3116458   1.093   3.229   9.759
  149SAPE   C3116459   1.083   3.135   9.668
  149SAPE   O3216460   1.161   3.044   9.647
  149SAPE   C3216461   0.950   3.155   9.597
  149SAPE   H2X16462   0.884   3.221   9.656
  149SAPE   H2Y16463   0.905   3.053   9.593
  149SAPE   C2316464   1.296   3.611   9.466
  149SAPE   H3R16465   1.294   3.520   9.402
  149SAPE   H3S16466   1.401   3.627   9.501
  149SAPE   C2416467   1.261   3.735   9.381
  149SAPE   H4R16468   1.251   3.822   9.449
  149SAPE   H4S16469   1.162   3.720   9.332
  149SAPE   C2516470   1.374   3.759   9.284
  149SAPE   H5R16471   1.457   3.816   9.329
  149SAPE   C2616472   1.390   3.720   9.156
  149SAPE   H6R16473   1.483   3.750   9.106
  149SAPE   C2716474   1.301   3.639   9.064
  149SAPE   H7R16475   1.336   3.533   9.067
  149SAPE   H7S16476   1.324   3.672   8.960
  149SAPE   C2816477   1.152   3.639   9.085
  149SAPE   H8R16478   1.125   3.583   9.176
  149SAPE   C2916479   1.049   3.691   9.014
  149SAPE   H9R16480   0.948   3.673   9.055
  149SAPE  C21016481   1.042   3.769   8.884
  149SAPE  H10R16482   1.064   3.876   8.906
  149SAPE  H10S16483   0.936   3.767   8.852
  149SAPE  C21116484   1.127   3.724   8.768
  149SAPE  H11R16485   1.212   3.661   8.797
  149SAPE  C21216486   1.115   3.753   8.636
  149SAPE  H12R16487   1.191   3.711   8.569
  149SAPE  C21316488   1.014   3.839   8.563
  149SAPE  H13R16489   1.016   3.808   8.457
  149SAPE  H13S16490   1.051   3.944   8.561
  149SAPE  C21416491   0.870   3.839   8.607
  149SAPE  H14R16492   0.834   3.934   8.649
  149SAPE  C21516493   0.785   3.734   8.600
  149SAPE  H15R16494   0.681   3.748   8.633
  149SAPE  C21616495   0.818   3.597   8.546
  149SAPE  H16R16496   0.789   3.521   8.622
  149SAPE  H16S16497   0.927   3.583   8.529
  149SAPE  C21716498   0.744   3.566   8.414
  149SAPE  H17R16499   0.635   3.579   8.430
  149SAPE  H17S16500   0.761   3.459   8.388
  149SAPE  C21816501   0.788   3.653   8.295
  149SAPE  H18R16502   0.790   3.760   8.325
  149SAPE  H18S16503   0.711   3.644   8.215
  149SAPE  C21916504   0.924   3.613   8.236
  149SAPE  H19R16505   0.917   3.509   8.199
  149SAPE  H19S16506   1.001   3.616   8.315
  149SAPE  C22016507   0.968   3.704   8.120
  149SAPE  H20R16508   0.890   3.706   8.040
  149SAPE  H20S16509   1.063   3.668   8.076
  149SAPE  H20T16510   0.983   3.808   8.156
  149SAPE   C3316511   0.962   3.203   9.451
  149SAPE   H3X16512   0.860   3.193   9.410
  149SAPE   H3Y16513   1.030   3.138   9.393
  149SAPE   C3416514   0.993   3.351   9.429
  149SAPE   H4X16515   1.103   3.368   9.435
  149SAPE   H4Y16516   0.945   3.411   9.509
  149SAPE   C3516517   0.939   3.397   9.292
  149SAPE   H5X16518   0.952   3.507   9.282
  149SAPE   H5Y16519   0.830   3.376   9.288
  149SAPE   C3616520   1.008   3.326   9.175
  149SAPE   H6X16521   1.013   3.217   9.192
  149SAPE   H6Y16522   1.112   3.364   9.172
  149SAPE   C3716523   0.944   3.347   9.037
  149SAPE   H7X16524   0.915   3.454   9.025
  149SAPE   H7Y16525   0.852   3.286   9.027
  149SAPE   C3816526   1.045   3.310   8.927
  149SAPE   H8X16527   1.070   3.202   8.934
  149SAPE   H8Y16528   1.137   3.368   8.948
  149SAPE   C3916529   0.998   3.342   8.785
  149SAPE   H9X16530   0.972   3.449   8.778
  149SAPE   H9Y16531   0.906   3.283   8.763
  149SAPE  C31016532   1.104   3.310   8.677
  149SAPE  H10X16533   1.058   3.333   8.579
  149SAPE  H10Y16534   1.130   3.202   8.680
  149SAPE  C31116535   1.232   3.395   8.692
  149SAPE  H11X16536   1.274   3.385   8.795
  149SAPE  H11Y16537   1.201   3.501   8.677
  149SAPE  C31216538   1.347   3.370   8.593
  149SAPE  H12X16539   1.377   3.263   8.596
  149SAPE  H12Y16540   1.433   3.430   8.627
  149SAPE  C31316541   1.314   3.412   8.450
  149SAPE  H13X16542   1.408   3.444   8.398
  149SAPE  H13Y16543   1.245   3.499   8.450
  149SAPE  C31416544   1.254   3.297   8.370
  149SAPE  H14X16545   1.164   3.257   8.423
  149SAPE  H14Y16546   1.327   3.214   8.364
  149SAPE  C31516547   1.211   3.340   8.230
  149SAPE  H15X16548   1.303   3.352   8.169
  149SAPE  H15Y16549   1.159   3.438   8.233
  149SAPE  C31616550   1.118   3.236   8.168
  149SAPE  H16X16551   1.013   3.271   8.169
  149SAPE  H16Y16552   1.123   3.142   8.227
  149SAPE  C31716553   1.163   3.203   8.027
  149SAPE  H17X16554   1.270   3.173   8.036
  149SAPE  H17Y16555   1.156   3.294   7.962
  149SAPE  C31816556   1.090   3.087   7.963
  149SAPE  H18X16557   1.106   2.996   8.026
  149SAPE  H18Y16558   1.127   3.064   7.861
  149SAPE  H18Z16559   0.981   3.109   7.956
  150SAPE     N16560   1.712   1.376  10.143
  150SAPE   HN116561   1.635   1.320  10.102
  150SAPE   HN216562   1.800   1.329  10.115
  150SAPE   HN316563   1.700   1.372  10.246
  150SAPE   C1216564   1.712   1.518  10.093
  150SAPE  H12A16565   1.647   1.578  10.161
  150SAPE  H12B16566   1.668   1.519   9.991
  150SAPE   C1116567   1.854   1.575  10.091
  150SAPE  H11A16568   1.911   1.522  10.012
  150SAPE  H11B16569   1.904   1.556  10.188
  150SAPE     P16570   1.972   1.789  10.003
  150SAPE   O1316571   1.936   1.929   9.970
  150SAPE   O1416572   2.087   1.775  10.095
  150SAPE   O1216573   1.848   1.716  10.068
  150SAPE   O1116574   1.992   1.705   9.870
  150SAPE    C116575   1.888   1.725   9.772
  150SAPE    HA16576   1.787   1.722   9.817
  150SAPE    HB16577   1.900   1.824   9.723
  150SAPE    C216578   1.887   1.617   9.660
  150SAPE    HS16579   1.875   1.518   9.709
  150SAPE   O2116580   2.009   1.625   9.584
  150SAPE   C2116581   2.041   1.512   9.522
  150SAPE   O2216582   1.983   1.406   9.531
  150SAPE   C2216583   2.168   1.533   9.439
  150SAPE   H2R16584   2.196   1.640   9.440
  150SAPE   H2S16585   2.249   1.473   9.486
  150SAPE    C316586   1.762   1.645   9.572
  150SAPE    HX16587   1.751   1.756   9.569
  150SAPE    HY16588   1.672   1.606   9.622
  150SAPE   O3116589   1.777   1.602   9.436
  150SAPE   C3116590   1.708   1.496   9.399
  150SAPE   O3216591   1.650   1.417   9.472
  150SAPE   C3216592   1.686   1.512   9.250
  150SAPE   H2X16593   1.720   1.613   9.219
  150SAPE   H2Y16594   1.576   1.514   9.236
  150SAPE   C2316595   2.146   1.488   9.294
  150SAPE   H3R16596   2.064   1.549   9.250
  150SAPE   H3S16597   2.112   1.382   9.294
  150SAPE   C2416598   2.270   1.496   9.203
  150SAPE   H4R16599   2.241   1.459   9.102
  150SAPE   H4S16600   2.344   1.423   9.243
  150SAPE   C2516601   2.337   1.630   9.190
  150SAPE   H5R16602   2.443   1.630   9.217
  150SAPE   C2616603   2.284   1.749   9.155
  150SAPE   H6R16604   2.351   1.836   9.147
  150SAPE   C2716605   2.142   1.778   9.119
  150SAPE   H7R16606   2.090   1.684   9.088
  150SAPE   H7S16607   2.140   1.845   9.031
  150SAPE   C2816608   2.067   1.840   9.234
  150SAPE   H8R16609   2.126   1.867   9.323
  150SAPE   C2916610   1.934   1.856   9.237
  150SAPE   H9R16611   1.886   1.901   9.325
  150SAPE  C21016612   1.843   1.812   9.126
  150SAPE  H10R16613   1.738   1.825   9.160
  150SAPE  H10S16614   1.859   1.703   9.115
  150SAPE  C21116615   1.858   1.876   8.991
  150SAPE  H11R16616   1.859   1.986   8.990
  150SAPE  C21216617   1.871   1.809   8.876
  150SAPE  H12R16618   1.883   1.864   8.782
  150SAPE  C21316619   1.874   1.660   8.858
  150SAPE  H13R16620   1.831   1.643   8.757
  150SAPE  H13S16621   1.804   1.610   8.929
  150SAPE  C21416622   2.008   1.591   8.863
  150SAPE  H14R16623   2.027   1.527   8.950
  150SAPE  C21516624   2.102   1.603   8.768
  150SAPE  H15R16625   2.198   1.551   8.779
  150SAPE  C21616626   2.083   1.687   8.645
  150SAPE  H16R16627   2.107   1.792   8.672
  150SAPE  H16S16628   1.979   1.685   8.606
  150SAPE  C21716629   2.176   1.645   8.530
  150SAPE  H17R16630   2.279   1.649   8.572
  150SAPE  H17S16631   2.174   1.721   8.449
  150SAPE  C21816632   2.148   1.504   8.477
  150SAPE  H18R16633   2.100   1.444   8.557
  150SAPE  H18S16634   2.243   1.451   8.458
  150SAPE  C21916635   2.063   1.496   8.349
  150SAPE  H19R16636   1.956   1.494   8.379
  150SAPE  H19S16637   2.088   1.398   8.301
  150SAPE  C22016638   2.082   1.602   8.240
  150SAPE  H20R16639   2.189   1.607   8.209
  150SAPE  H20S16640   2.049   1.702   8.276
  150SAPE  H20T16641   2.021   1.576   8.151
  150SAPE   C3316642   1.741   1.404   9.154
  150SAPE   H3X16643   1.730   1.451   9.054
  150SAPE   H3Y16644   1.672   1.319   9.169
  150SAPE   C3416645   1.881   1.344   9.157
  150SAPE   H4X16646   1.903   1.315   9.262
  150SAPE   H4Y16647   1.951   1.425   9.128
  150SAPE   C3516648   1.916   1.221   9.064
  150SAPE   H5X16649   1.975   1.161   9.136
  150SAPE   H5Y16650   1.987   1.252   8.984
  150SAPE   C3616651   1.815   1.114   9.004
  150SAPE   H6X16652   1.720   1.128   9.061
  150SAPE   H6Y16653   1.846   1.012   9.034
  150SAPE   C3716654   1.801   1.108   8.846
  150SAPE   H7X16655   1.892   1.055   8.812
  150SAPE   H7Y16656   1.822   1.213   8.816
  150SAPE   C3816657   1.680   1.045   8.760
  150SAPE   H8X16658   1.590   1.010   8.814
  150SAPE   H8Y16659   1.728   0.948   8.734
  150SAPE   C3916660   1.629   1.086   8.612
  150SAPE   H9X16661   1.585   0.985   8.597
  150SAPE   H9Y16662   1.711   1.092   8.537
  150SAPE  C31016663   1.502   1.166   8.553
  150SAPE  H10X16664   1.424   1.166   8.632
  150SAPE  H10Y16665   1.459   1.104   8.472
  150SAPE  C31116666   1.506   1.310   8.487
  150SAPE  H11X16667   1.547   1.391   8.550
  150SAPE  H11Y16668   1.398   1.338   8.485
  150SAPE  C31216669   1.548   1.329   8.337
  150SAPE  H12X16670   1.458   1.368   8.285
  150SAPE  H12Y16671   1.570   1.229   8.293
  150SAPE  C31316672   1.660   1.429   8.292
  150SAPE  H13X16673   1.652   1.439   8.182
  150SAPE  H13Y16674   1.761   1.386   8.308
  150SAPE  C31416675   1.667   1.571   8.353
  150SAPE  H14X16676   1.756   1.621   8.309
  150SAPE  H14Y16677   1.685   1.567   8.462
  150SAPE  C31516678   1.547   1.662   8.327
  150SAPE  H15X16679   1.571   1.764   8.365
  150SAPE  H15Y16680   1.460   1.624   8.386
  150SAPE  C31616681   1.506   1.671   8.179
  150SAPE  H16X16682   1.416   1.737   8.171
  150SAPE  H16Y16683   1.471   1.570   8.148
  150SAPE  C31716684   1.615   1.719   8.081
  150SAPE  H17X16685   1.568   1.726   7.980
  150SAPE  H17Y16686   1.694   1.641   8.075
  150SAPE  C31816687   1.682   1.854   8.110
  150SAPE  H18X16688   1.607   1.936   8.104
  150SAPE  H18Y16689   1.760   1.875   8.033
  150SAPE  H18Z16690   1.729   1.854   8.210
  151SAPE     N16691   5.612   5.515  10.093
  151SAPE   HN116692   5.635   5.517  10.194
  151SAPE   HN216693   5.509   5.527  10.082
  151SAPE   HN316694   5.639   5.421  10.056
  151SAPE   C1216695   5.697   5.617  10.022
  151SAPE  H12A16696   5.675   5.717  10.064
  151SAPE  H12B16697   5.671   5.614   9.914
  151SAPE   C1116698   5.846   5.581  10.041
  151SAPE  H11A16699   5.874   5.597  10.147
  151SAPE  H11B16700   5.908   5.652   9.983
  151SAPE     P16701   5.981   5.356  10.067
  151SAPE   O1316702   5.931   5.335  10.206
  151SAPE   O1416703   6.002   5.234   9.987
  151SAPE   O1216704   5.871   5.447   9.998
  151SAPE   O1116705   6.110   5.448  10.070
  151SAPE    C116706   6.218   5.439   9.975
  151SAPE    HA16707   6.313   5.457  10.030
  151SAPE    HB16708   6.227   5.339   9.928
  151SAPE    C216709   6.207   5.547   9.864
  151SAPE    HS16710   6.164   5.636   9.915
  151SAPE   O2116711   6.118   5.494   9.762
  151SAPE   C2116712   6.009   5.567   9.738
  151SAPE   O2216713   5.998   5.686   9.761
  151SAPE   C2216714   5.891   5.479   9.692
  151SAPE   H2R16715   5.887   5.389   9.758
  151SAPE   H2S16716   5.799   5.539   9.711
  151SAPE    C316717   6.348   5.598   9.809
  151SAPE    HX16718   6.408   5.617   9.901
  151SAPE    HY16719   6.330   5.701   9.769
  151SAPE   O3116720   6.428   5.513   9.719
  151SAPE   C3116721   6.398   5.541   9.590
  151SAPE   O3216722   6.303   5.611   9.563
  151SAPE   C3216723   6.495   5.468   9.486
  151SAPE   H2X16724   6.434   5.385   9.445
  151SAPE   H2Y16725   6.580   5.426   9.544
  151SAPE   C2316726   5.896   5.436   9.544
  151SAPE   H3R16727   5.970   5.354   9.538
  151SAPE   H3S16728   5.929   5.522   9.482
  151SAPE   C2416729   5.762   5.388   9.484
  151SAPE   H4R16730   5.699   5.476   9.460
  151SAPE   H4S16731   5.708   5.333   9.564
  151SAPE   C2516732   5.775   5.298   9.363
  151SAPE   H5R16733   5.745   5.194   9.384
  151SAPE   C2616734   5.815   5.326   9.236
  151SAPE   H6R16735   5.815   5.243   9.164
  151SAPE   C2716736   5.862   5.457   9.176
  151SAPE   H7R16737   5.948   5.433   9.110
  151SAPE   H7S16738   5.901   5.523   9.256
  151SAPE   C2816739   5.763   5.541   9.100
  151SAPE   H8R16740   5.712   5.616   9.163
  151SAPE   C2916741   5.729   5.539   8.971
  151SAPE   H9R16742   5.649   5.607   8.939
  151SAPE  C21016743   5.781   5.450   8.861
  151SAPE  H10R16744   5.708   5.368   8.843
  151SAPE  H10S16745   5.875   5.400   8.893
  151SAPE  C21116746   5.803   5.534   8.738
  151SAPE  H11R16747   5.834   5.637   8.758
  151SAPE  C21216748   5.782   5.499   8.609
  151SAPE  H12R16749   5.799   5.574   8.530
  151SAPE  C21316750   5.731   5.366   8.563
  151SAPE  H13R16751   5.621   5.379   8.572
  151SAPE  H13S16752   5.761   5.289   8.637
  151SAPE  C21416753   5.748   5.312   8.423
  151SAPE  H14R16754   5.654   5.269   8.383
  151SAPE  C21516755   5.856   5.305   8.344
  151SAPE  H15R16756   5.844   5.262   8.243
  151SAPE  C21616757   5.994   5.353   8.376
  151SAPE  H16R16758   5.995   5.389   8.481
  151SAPE  H16S16759   6.019   5.438   8.309
  151SAPE  C21716760   6.098   5.240   8.360
  151SAPE  H17R16761   6.083   5.197   8.258
  151SAPE  H17S16762   6.077   5.162   8.436
  151SAPE  C21816763   6.248   5.273   8.366
  151SAPE  H18R16764   6.303   5.183   8.332
  151SAPE  H18S16765   6.282   5.294   8.469
  151SAPE  C21916766   6.284   5.388   8.273
  151SAPE  H19R16767   6.225   5.477   8.305
  151SAPE  H19S16768   6.253   5.360   8.170
  151SAPE  C22016769   6.431   5.427   8.275
  151SAPE  H20R16770   6.452   5.504   8.198
  151SAPE  H20S16771   6.493   5.337   8.254
  151SAPE  H20T16772   6.458   5.469   8.374
  151SAPE   C3316773   6.545   5.529   9.349
  151SAPE   H3X16774   6.644   5.577   9.366
  151SAPE   H3Y16775   6.476   5.614   9.331
  151SAPE   C3416776   6.563   5.446   9.214
  151SAPE   H4X16777   6.664   5.404   9.226
  151SAPE   H4Y16778   6.568   5.519   9.130
  151SAPE   C3516779   6.484   5.319   9.159
  151SAPE   H5X16780   6.477   5.247   9.243
  151SAPE   H5Y16781   6.553   5.272   9.086
  151SAPE   C3616782   6.346   5.316   9.084
  151SAPE   H6X16783   6.266   5.383   9.122
  151SAPE   H6Y16784   6.305   5.216   9.111
  151SAPE   C3716785   6.335   5.326   8.931
  151SAPE   H7X16786   6.410   5.259   8.883
  151SAPE   H7Y16787   6.357   5.429   8.897
  151SAPE   C3816788   6.192   5.287   8.882
  151SAPE   H8X16789   6.126   5.270   8.970
  151SAPE   H8Y16790   6.198   5.191   8.826
  151SAPE   C3916791   6.120   5.388   8.791
  151SAPE   H9X16792   6.087   5.476   8.852
  151SAPE   H9Y16793   6.029   5.341   8.750
  151SAPE  C31016794   6.205   5.437   8.674
  151SAPE  H10X16795   6.157   5.407   8.578
  151SAPE  H10Y16796   6.304   5.386   8.676
  151SAPE  C31116797   6.226   5.587   8.670
  151SAPE  H11X16798   6.308   5.605   8.597
  151SAPE  H11Y16799   6.260   5.617   8.772
  151SAPE  C31216800   6.108   5.675   8.628
  151SAPE  H12X16801   6.132   5.781   8.651
  151SAPE  H12Y16802   6.019   5.652   8.691
  151SAPE  C31316803   6.076   5.671   8.479
  151SAPE  H13X16804   5.994   5.597   8.462
  151SAPE  H13Y16805   6.166   5.636   8.424
  151SAPE  C31416806   6.031   5.805   8.420
  151SAPE  H14X16807   6.114   5.878   8.421
  151SAPE  H14Y16808   5.951   5.845   8.486
  151SAPE  C31516809   5.975   5.789   8.278
  151SAPE  H15X16810   5.884   5.852   8.268
  151SAPE  H15Y16811   5.946   5.684   8.261
  151SAPE  C31616812   6.070   5.837   8.168
  151SAPE  H16X16813   6.100   5.942   8.189
  151SAPE  H16Y16814   6.017   5.837   8.071
  151SAPE  C31716815   6.193   5.750   8.157
  151SAPE  H17X16816   6.244   5.737   8.255
  151SAPE  H17Y16817   6.263   5.805   8.091
  151SAPE  C31816818   6.167   5.617   8.090
  151SAPE  H18X16819   6.093   5.556   8.145
  151SAPE  H18Y16820   6.261   5.560   8.076
  151SAPE  H18Z16821   6.126   5.638   7.989
  152SAPE     N16822   0.665   5.169  10.226
  152SAPE   HN116823   0.740   5.128  10.285
  152SAPE   HN216824   0.599   5.093  10.201
  152SAPE   HN316825   0.702   5.197  10.133
  152SAPE   C1216826   0.590   5.286  10.283
  152SAPE  H12A16827   0.664   5.361  10.317
  152SAPE  H12B16828   0.531   5.250  10.370
  152SAPE   C1116829   0.498   5.348  10.176
  152SAPE  H11A16830   0.435   5.425  10.225
  152SAPE  H11B16831   0.428   5.271  10.136
  152SAPE     P16832   0.603   5.343   9.933
  152SAPE   O1316833   0.689   5.433   9.855
  152SAPE   O1416834   0.653   5.206   9.964
  152SAPE   O1216835   0.575   5.411  10.074
  152SAPE   O1116836   0.457   5.333   9.873
  152SAPE    C116837   0.403   5.440   9.795
  152SAPE    HA16838   0.298   5.458   9.827
  152SAPE    HB16839   0.458   5.535   9.808
  152SAPE    C216840   0.400   5.408   9.642
  152SAPE    HS16841   0.325   5.327   9.628
  152SAPE   O2116842   0.530   5.366   9.599
  152SAPE   C2116843   0.539   5.297   9.487
  152SAPE   O2216844   0.448   5.258   9.416
  152SAPE   C2216845   0.688   5.269   9.465
  152SAPE   H2R16846   0.736   5.366   9.439
  152SAPE   H2S16847   0.725   5.235   9.564
  152SAPE    C316848   0.356   5.534   9.565
  152SAPE    HX16849   0.445   5.601   9.564
  152SAPE    HY16850   0.275   5.585   9.621
  152SAPE   O3116851   0.322   5.506   9.430
  152SAPE   C3116852   0.196   5.518   9.394
  152SAPE   O3216853   0.102   5.549   9.465
  152SAPE   C3216854   0.185   5.480   9.248
  152SAPE   H2X16855   0.078   5.454   9.228
  152SAPE   H2Y16856   0.250   5.391   9.232
  152SAPE   C2316857   0.725   5.162   9.360
  152SAPE   H3R16858   0.661   5.072   9.371
  152SAPE   H3S16859   0.829   5.130   9.383
  152SAPE   C2416860   0.723   5.214   9.215
  152SAPE   H4R16861   0.767   5.316   9.213
  152SAPE   H4S16862   0.617   5.226   9.184
  152SAPE   C2516863   0.799   5.124   9.121
  152SAPE   H5R16864   0.901   5.156   9.097
  152SAPE   C2616865   0.750   5.013   9.063
  152SAPE   H6R16866   0.813   4.957   8.992
  152SAPE   C2716867   0.611   4.958   9.081
  152SAPE   H7R16868   0.585   4.954   9.189
  152SAPE   H7S16869   0.604   4.853   9.045
  152SAPE   C2816870   0.506   5.039   9.010
  152SAPE   H8R16871   0.442   5.097   9.078
  152SAPE   C2916872   0.487   5.049   8.877
  152SAPE   H9R16873   0.407   5.114   8.839
  152SAPE  C21016874   0.566   4.980   8.770
  152SAPE  H10R16875   0.495   4.935   8.697
  152SAPE  H10S16876   0.626   4.896   8.811
  152SAPE  C21116877   0.659   5.074   8.698
  152SAPE  H11R16878   0.766   5.058   8.718
  152SAPE  C21216879   0.624   5.174   8.616
  152SAPE  H12R16880   0.705   5.229   8.566
  152SAPE  C21316881   0.485   5.218   8.574
  152SAPE  H13R16882   0.451   5.294   8.648
  152SAPE  H13S16883   0.413   5.134   8.585
  152SAPE  C21416884   0.471   5.280   8.436
  152SAPE  H14R16885   0.397   5.361   8.432
  152SAPE  C21516886   0.538   5.249   8.322
  152SAPE  H15R16887   0.514   5.305   8.231
  152SAPE  C21616888   0.644   5.143   8.305
  152SAPE  H16R16889   0.630   5.060   8.378
  152SAPE  H16S16890   0.743   5.187   8.324
  152SAPE  C21716891   0.649   5.076   8.165
  152SAPE  H17R16892   0.738   5.011   8.159
  152SAPE  H17S16893   0.658   5.155   8.087
  152SAPE  C21816894   0.524   4.992   8.137
  152SAPE  H18R16895   0.441   5.066   8.135
  152SAPE  H18S16896   0.505   4.921   8.220
  152SAPE  C21916897   0.526   4.917   8.004
  152SAPE  H19R16898   0.602   4.964   7.938
  152SAPE  H19S16899   0.427   4.931   7.953
  152SAPE  C22016900   0.549   4.766   8.015
  152SAPE  H20R16901   0.533   4.718   7.916
  152SAPE  H20S16902   0.478   4.721   8.087
  152SAPE  H20T16903   0.653   4.745   8.048
  152SAPE   C3316904   0.228   5.589   9.151
  152SAPE   H3X16905   0.169   5.681   9.169
  152SAPE   H3Y16906   0.206   5.554   9.048
  152SAPE   C3416907   0.378   5.622   9.159
  152SAPE   H4X16908   0.410   5.649   9.262
  152SAPE   H4Y16909   0.390   5.714   9.098
  152SAPE   C3516910   0.474   5.518   9.098
  152SAPE   H5X16911   0.421   5.460   9.020
  152SAPE   H5Y16912   0.507   5.447   9.177
  152SAPE   C3616913   0.593   5.589   9.034
  152SAPE   H6X16914   0.645   5.652   9.109
  152SAPE   H6Y16915   0.554   5.659   8.956
  152SAPE   C3716916   0.696   5.499   8.964
  152SAPE   H7X16917   0.644   5.420   8.905
  152SAPE   H7Y16918   0.759   5.449   9.040
  152SAPE   C3816919   0.783   5.584   8.871
  152SAPE   H8X16920   0.820   5.671   8.930
  152SAPE   H8Y16921   0.717   5.625   8.791
  152SAPE   C3916922   0.902   5.513   8.806
  152SAPE   H9X16923   0.958   5.457   8.884
  152SAPE   H9Y16924   0.971   5.589   8.764
  152SAPE  C31016925   0.863   5.417   8.693
  152SAPE  H10X16926   0.801   5.337   8.738
  152SAPE  H10Y16927   0.956   5.369   8.653
  152SAPE  C31116928   0.788   5.482   8.575
  152SAPE  H11X16929   0.690   5.522   8.609
  152SAPE  H11Y16930   0.766   5.401   8.502
  152SAPE  C31216931   0.867   5.590   8.502
  152SAPE  H12X16932   0.967   5.549   8.476
  152SAPE  H12Y16933   0.884   5.676   8.570
  152SAPE  C31316934   0.799   5.641   8.373
  152SAPE  H13X16935   0.875   5.698   8.315
  152SAPE  H13Y16936   0.717   5.710   8.398
  152SAPE  C31416937   0.739   5.533   8.281
  152SAPE  H14X16938   0.632   5.522   8.309
  152SAPE  H14Y16939   0.785   5.434   8.297
  152SAPE  C31516940   0.752   5.570   8.133
  152SAPE  H15X16941   0.855   5.550   8.098
  152SAPE  H15Y16942   0.737   5.680   8.125
  152SAPE  C31616943   0.651   5.498   8.044
  152SAPE  H16X16944   0.556   5.485   8.102
  152SAPE  H16Y16945   0.686   5.395   8.023
  152SAPE  C31716946   0.620   5.577   7.916
  152SAPE  H17X16947   0.704   5.566   7.844
  152SAPE  H17Y16948   0.617   5.684   7.945
  152SAPE  C31816949   0.487   5.545   7.848
  152SAPE  H18X16950   0.405   5.532   7.922
  152SAPE  H18Y16951   0.492   5.451   7.789
  152SAPE  H18Z16952   0.459   5.626   7.778
  153SAPE     N16953   6.981   1.488   9.960
  153SAPE   HN116954   7.008   1.560  10.030
  153SAPE   HN216955   7.030   1.508   9.870
  153SAPE   HN316956   6.879   1.492   9.943
  153SAPE   C1216957   7.007   1.346  10.007
  153SAPE  H12A16958   7.116   1.335  10.027
  153SAPE  H12B16959   6.979   1.278   9.924
  153SAPE   C1116960   6.926   1.309  10.134
  153SAPE  H11A16961   6.980   1.349  10.222
  153SAPE  H11B16962   6.926   1.198  10.146
  153SAPE     P16963   6.689   1.329  10.021
  153SAPE   O1316964   6.552   1.317  10.074
  153SAPE   O1416965   6.719   1.433   9.920
  153SAPE   O1216966   6.792   1.360  10.138
  153SAPE   O1116967   6.741   1.190   9.969
  153SAPE    C116968   6.699   1.132   9.846
  153SAPE    HA16969   6.626   1.051   9.868
  153SAPE    HB16970   6.649   1.204   9.777
  153SAPE    C216971   6.818   1.067   9.771
  153SAPE    HS16972   6.891   1.032   9.848
  153SAPE   O2116973   6.877   1.165   9.685
  153SAPE   C2116974   6.988   1.125   9.625
  153SAPE   O2216975   7.071   1.049   9.673
  153SAPE   C2216976   6.997   1.186   9.486
  153SAPE   H2R16977   7.091   1.245   9.481
  153SAPE   H2S16978   7.006   1.102   9.414
  153SAPE    C316979   6.773   0.943   9.689
  153SAPE    HX16980   6.732   0.868   9.761
  153SAPE    HY16981   6.863   0.897   9.643
  153SAPE   O3116982   6.670   0.976   9.593
  153SAPE   C3116983   6.701   0.964   9.465
  153SAPE   O3216984   6.808   0.926   9.420
  153SAPE   C3216985   6.584   1.013   9.380
  153SAPE   H2X16986   6.577   1.123   9.396
  153SAPE   H2Y16987   6.490   0.968   9.418
  153SAPE   C2316988   6.873   1.272   9.447
  153SAPE   H3R16989   6.860   1.356   9.519
  153SAPE   H3S16990   6.781   1.211   9.453
  153SAPE   C2416991   6.882   1.327   9.304
  153SAPE   H4R16992   6.787   1.378   9.277
  153SAPE   H4S16993   6.894   1.243   9.233
  153SAPE   C2516994   6.996   1.425   9.302
  153SAPE   H5R16995   6.975   1.518   9.358
  153SAPE   C2616996   7.115   1.410   9.242
  153SAPE   H6R16997   7.190   1.490   9.254
  153SAPE   C2716998   7.161   1.292   9.163
  153SAPE   H7R16999   7.082   1.214   9.157
  153SAPE   H7S17000   7.242   1.242   9.222
  153SAPE   C2817001   7.213   1.330   9.027
  153SAPE   H8R17002   7.296   1.403   9.026
  153SAPE   C2917003   7.168   1.282   8.910
  153SAPE   H9R17004   7.212   1.316   8.815
  153SAPE  C21017005   7.055   1.183   8.899
  153SAPE  H10R17006   6.962   1.241   8.914
  153SAPE  H10S17007   7.059   1.111   8.984
  153SAPE  C21117008   7.043   1.101   8.773
  153SAPE  H11R17009   7.135   1.083   8.715
  153SAPE  C21217010   6.925   1.050   8.734
  153SAPE  H12R17011   6.917   0.992   8.640
  153SAPE  C21317012   6.800   1.071   8.814
  153SAPE  H13R17013   6.770   1.177   8.800
  153SAPE  H13S17014   6.823   1.063   8.923
  153SAPE  C21417015   6.683   0.982   8.789
  153SAPE  H14R17016   6.683   0.888   8.847
  153SAPE  C21517017   6.579   1.007   8.707
  153SAPE  H15R17018   6.497   0.935   8.701
  153SAPE  C21617019   6.558   1.129   8.622
  153SAPE  H16R17020   6.637   1.206   8.633
  153SAPE  H16S17021   6.460   1.174   8.650
  153SAPE  C21717022   6.544   1.090   8.475
  153SAPE  H17R17023   6.502   1.177   8.419
  153SAPE  H17S17024   6.470   1.008   8.465
  153SAPE  C21817025   6.676   1.048   8.410
  153SAPE  H18R17026   6.732   0.981   8.480
  153SAPE  H18S17027   6.738   1.138   8.391
  153SAPE  C21917028   6.649   0.971   8.281
  153SAPE  H19R17029   6.587   0.883   8.309
  153SAPE  H19S17030   6.743   0.930   8.239
  153SAPE  C22017031   6.572   1.051   8.177
  153SAPE  H20R17032   6.625   1.145   8.149
  153SAPE  H20S17033   6.471   1.077   8.216
  153SAPE  H20T17034   6.558   0.988   8.087
  153SAPE   C3317035   6.603   0.982   9.230
  153SAPE   H3X17036   6.599   0.872   9.214
  153SAPE   H3Y17037   6.703   1.017   9.194
  153SAPE   C3417038   6.495   1.048   9.144
  153SAPE   H4X17039   6.396   1.025   9.189
  153SAPE   H4Y17040   6.495   1.004   9.042
  153SAPE   C3517041   6.512   1.200   9.133
  153SAPE   H5X17042   6.551   1.243   9.228
  153SAPE   H5Y17043   6.411   1.245   9.118
  153SAPE   C3617044   6.603   1.243   9.018
  153SAPE   H6X17045   6.576   1.186   8.926
  153SAPE   H6Y17046   6.709   1.222   9.043
  153SAPE   C3717047   6.584   1.392   8.987
  153SAPE   H7X17048   6.604   1.445   9.083
  153SAPE   H7Y17049   6.478   1.409   8.959
  153SAPE   C3817050   6.674   1.451   8.878
  153SAPE   H8X17051   6.625   1.540   8.834
  153SAPE   H8Y17052   6.686   1.376   8.797
  153SAPE   C3917053   6.809   1.496   8.936
  153SAPE   H9X17054   6.859   1.407   8.980
  153SAPE   H9Y17055   6.791   1.567   9.020
  153SAPE  C31017056   6.903   1.564   8.836
  153SAPE  H10X17057   7.004   1.561   8.883
  153SAPE  H10Y17058   6.875   1.670   8.820
  153SAPE  C31117059   6.909   1.490   8.702
  153SAPE  H11X17060   6.831   1.528   8.633
  153SAPE  H11Y17061   6.885   1.384   8.724
  153SAPE  C31217062   7.047   1.489   8.633
  153SAPE  H12X17063   7.126   1.475   8.710
  153SAPE  H12Y17064   7.066   1.584   8.580
  153SAPE  C31317065   7.049   1.370   8.537
  153SAPE  H13X17066   6.985   1.396   8.451
  153SAPE  H13Y17067   7.000   1.284   8.587
  153SAPE  C31417068   7.186   1.319   8.489
  153SAPE  H14X17069   7.257   1.316   8.574
  153SAPE  H14Y17070   7.225   1.392   8.415
  153SAPE  C31517071   7.176   1.178   8.427
  153SAPE  H15X17072   7.166   1.102   8.507
  153SAPE  H15Y17073   7.270   1.156   8.371
  153SAPE  C31617074   7.056   1.164   8.333
  153SAPE  H16X17075   7.068   1.243   8.256
  153SAPE  H16Y17076   6.960   1.183   8.386
  153SAPE  C31717077   7.039   1.030   8.260
  153SAPE  H17X17078   6.998   0.955   8.331
  153SAPE  H17Y17079   7.138   0.993   8.225
  153SAPE  C31817080   6.945   1.044   8.139
  153SAPE  H18X17081   6.919   0.945   8.096
  153SAPE  H18Y17082   6.990   1.106   8.059
  153SAPE  H18Z17083   6.853   1.097   8.169
  154SAPE     N17084   0.790   0.405  10.090
  154SAPE   HN117085   0.740   0.429  10.001
  154SAPE   HN217086   0.873   0.346  10.071
  154SAPE   HN317087   0.726   0.357  10.156
  154SAPE   C1217088   0.835   0.530  10.157
  154SAPE  H12A17089   0.883   0.503  10.254
  154SAPE  H12B17090   0.746   0.593  10.175
  154SAPE   C1117091   0.935   0.602  10.069
  154SAPE  H11A17092   0.882   0.627   9.975
  154SAPE  H11B17093   1.021   0.536  10.044
  154SAPE     P17094   0.960   0.860  10.080
  154SAPE   O1317095   0.817   0.894  10.099
  154SAPE   O1417096   1.061   0.949  10.142
  154SAPE   O1217097   0.983   0.716  10.139
  154SAPE   O1117098   0.990   0.837   9.928
  154SAPE    C117099   1.113   0.781   9.882
  154SAPE    HA17100   1.187   0.863   9.869
  154SAPE    HB17101   1.157   0.707   9.952
  154SAPE    C217102   1.095   0.713   9.744
  154SAPE    HS17103   1.194   0.669   9.717
  154SAPE   O2117104   1.048   0.814   9.655
  154SAPE   C2117105   1.129   0.843   9.557
  154SAPE   O2217106   1.239   0.793   9.538
  154SAPE   C2217107   1.065   0.950   9.471
  154SAPE   H2R17108   0.956   0.956   9.492
  154SAPE   H2S17109   1.113   1.046   9.501
  154SAPE    C317110   0.993   0.597   9.739
  154SAPE    HX17111   0.894   0.642   9.763
  154SAPE    HY17112   1.017   0.521   9.817
  154SAPE   O3117113   0.985   0.539   9.607
  154SAPE   C3117114   1.082   0.453   9.580
  154SAPE   O3217115   1.157   0.403   9.662
  154SAPE   C3217116   1.088   0.427   9.430
  154SAPE   H2X17117   0.985   0.415   9.390
  154SAPE   H2Y17118   1.142   0.331   9.417
  154SAPE   C2317119   1.092   0.924   9.322
  154SAPE   H3R17120   1.157   0.835   9.309
  154SAPE   H3S17121   1.147   1.012   9.282
  154SAPE   C2417122   0.967   0.907   9.236
  154SAPE   H4R17123   1.003   0.895   9.132
  154SAPE   H4S17124   0.911   1.003   9.237
  154SAPE   C2517125   0.872   0.797   9.274
  154SAPE   H5R17126   0.887   0.747   9.371
  154SAPE   C2617127   0.771   0.762   9.193
  154SAPE   H6R17128   0.704   0.679   9.221
  154SAPE   C2717129   0.744   0.828   9.060
  154SAPE   H7R17130   0.765   0.937   9.064
  154SAPE   H7S17131   0.636   0.821   9.035
  154SAPE   C2817132   0.833   0.766   8.954
  154SAPE   H8R17133   0.940   0.786   8.965
  154SAPE   C2917134   0.793   0.690   8.852
  154SAPE   H9R17135   0.869   0.652   8.781
  154SAPE  C21017136   0.651   0.652   8.820
  154SAPE  H10R17137   0.579   0.677   8.901
  154SAPE  H10S17138   0.645   0.541   8.808
  154SAPE  C21117139   0.614   0.725   8.695
  154SAPE  H11R17140   0.580   0.829   8.708
  154SAPE  C21217141   0.631   0.676   8.572
  154SAPE  H12R17142   0.603   0.737   8.485
  154SAPE  C21317143   0.690   0.540   8.547
  154SAPE  H13R17144   0.622   0.461   8.585
  154SAPE  H13S17145   0.787   0.527   8.601
  154SAPE  C21417146   0.707   0.521   8.400
  154SAPE  H14R17147   0.612   0.505   8.348
  154SAPE  C21517148   0.821   0.517   8.329
  154SAPE  H15R17149   0.815   0.500   8.220
  154SAPE  C21617150   0.960   0.530   8.381
  154SAPE  H16R17151   0.989   0.443   8.445
  154SAPE  H16S17152   0.968   0.621   8.444
  154SAPE  C21717153   1.057   0.541   8.262
  154SAPE  H17R17154   1.151   0.583   8.305
  154SAPE  H17S17155   1.020   0.617   8.190
  154SAPE  C21817156   1.087   0.410   8.187
  154SAPE  H18R17157   1.046   0.323   8.243
  154SAPE  H18S17158   1.196   0.389   8.183
  154SAPE  C21917159   1.036   0.407   8.042
  154SAPE  H19R17160   0.928   0.432   8.042
  154SAPE  H19S17161   1.047   0.304   8.003
  154SAPE  C22017162   1.110   0.501   7.947
  154SAPE  H20R17163   1.115   0.604   7.987
  154SAPE  H20S17164   1.061   0.503   7.848
  154SAPE  H20T17165   1.214   0.464   7.933
  154SAPE   C3317166   1.162   0.541   9.357
  154SAPE   H3X17167   1.252   0.571   9.416
  154SAPE   H3Y17168   1.096   0.630   9.348
  154SAPE   C3417169   1.212   0.498   9.219
  154SAPE   H4X17170   1.127   0.470   9.153
  154SAPE   H4Y17171   1.272   0.406   9.237
  154SAPE   C3517172   1.303   0.600   9.150
  154SAPE   H5X17173   1.361   0.551   9.068
  154SAPE   H5Y17174   1.377   0.638   9.223
  154SAPE   C3617175   1.224   0.715   9.090
  154SAPE   H6X17176   1.261   0.809   9.135
  154SAPE   H6Y17177   1.116   0.704   9.116
  154SAPE   C3717178   1.235   0.731   8.938
  154SAPE   H7X17179   1.342   0.738   8.909
  154SAPE   H7Y17180   1.188   0.829   8.917
  154SAPE   C3817181   1.164   0.622   8.857
  154SAPE   H8X17182   1.061   0.611   8.896
  154SAPE   H8Y17183   1.214   0.524   8.875
  154SAPE   C3917184   1.158   0.649   8.705
  154SAPE   H9X17185   1.064   0.607   8.663
  154SAPE   H9Y17186   1.241   0.594   8.655
  154SAPE  C31017187   1.169   0.797   8.669
  154SAPE  H10X17188   1.258   0.842   8.718
  154SAPE  H10Y17189   1.079   0.849   8.708
  154SAPE  C31117190   1.188   0.829   8.521
  154SAPE  H11X17191   1.115   0.775   8.457
  154SAPE  H11Y17192   1.289   0.795   8.489
  154SAPE  C31217193   1.175   0.981   8.502
  154SAPE  H12X17194   1.257   1.018   8.436
  154SAPE  H12Y17195   1.188   1.031   8.600
  154SAPE  C31317196   1.042   1.024   8.441
  154SAPE  H13X17197   1.046   1.007   8.331
  154SAPE  H13Y17198   1.032   1.134   8.459
  154SAPE  C31417199   0.916   0.959   8.498
  154SAPE  H14X17200   0.909   0.981   8.607
  154SAPE  H14Y17201   0.920   0.849   8.487
  154SAPE  C31517202   0.788   1.011   8.430
  154SAPE  H15X17203   0.774   1.118   8.452
  154SAPE  H15Y17204   0.705   0.952   8.474
  154SAPE  C31617205   0.782   0.988   8.278
  154SAPE  H16X17206   0.860   1.048   8.227
  154SAPE  H16Y17207   0.684   1.023   8.239
  154SAPE  C31717208   0.799   0.840   8.245
  154SAPE  H17X17209   0.727   0.783   8.308
  154SAPE  H17Y17210   0.901   0.807   8.273
  154SAPE  C31817211   0.773   0.803   8.100
  154SAPE  H18X17212   0.802   0.697   8.082
  154SAPE  H18Y17213   0.829   0.867   8.029
  154SAPE  H18Z17214   0.666   0.818   8.076
  155SAPE     N17215   1.420   0.074  10.270
  155SAPE   HN117216   1.370   0.065  10.179
  155SAPE   HN217217   1.404  -0.011  10.328
  155SAPE   HN317218   1.382   0.158  10.318
  155SAPE   C1217219   1.564   0.095  10.231
  155SAPE  H12A17220   1.600   0.001  10.184
  155SAPE  H12B17221   1.623   0.114  10.323
  155SAPE   C1117222   1.582   0.212  10.130
  155SAPE  H11A17223   1.632   0.174  10.038
  155SAPE  H11B17224   1.652   0.286  10.175
  155SAPE     P17225   1.370   0.228   9.979
  155SAPE   O1317226   1.365   0.081   9.999
  155SAPE   O1417227   1.243   0.303   9.989
  155SAPE   O1217228   1.459   0.279  10.101
  155SAPE   O1117229   1.461   0.272   9.858
  155SAPE    C117230   1.482   0.413   9.839
  155SAPE    HA17231   1.386   0.460   9.809
  155SAPE    HB17232   1.517   0.463   9.932
  155SAPE    C217233   1.583   0.448   9.726
  155SAPE    HS17234   1.574   0.557   9.710
  155SAPE   O2117235   1.551   0.372   9.609
  155SAPE   C2117236   1.526   0.437   9.499
  155SAPE   O2217237   1.516   0.558   9.486
  155SAPE   C2217238   1.510   0.334   9.388
  155SAPE   H2R17239   1.462   0.387   9.302
  155SAPE   H2S17240   1.611   0.302   9.355
  155SAPE    C317241   1.733   0.420   9.764
  155SAPE    HX17242   1.748   0.458   9.867
  155SAPE    HY17243   1.797   0.483   9.699
  155SAPE   O3117244   1.768   0.279   9.758
  155SAPE   C3117245   1.801   0.240   9.633
  155SAPE   O3217246   1.834   0.314   9.543
  155SAPE   C3217247   1.788   0.088   9.623
  155SAPE   H2X17248   1.690   0.060   9.667
  155SAPE   H2Y17249   1.869   0.040   9.682
  155SAPE   C2317250   1.427   0.212   9.436
  155SAPE   H3R17251   1.352   0.246   9.511
  155SAPE   H3S17252   1.494   0.142   9.490
  155SAPE   C2417253   1.348   0.139   9.327
  155SAPE   H4R17254   1.266   0.206   9.292
  155SAPE   H4S17255   1.297   0.052   9.372
  155SAPE   C2517256   1.431   0.089   9.212
  155SAPE   H5R17257   1.497   0.004   9.236
  155SAPE   C2617258   1.432   0.140   9.088
  155SAPE   H6R17259   1.493   0.089   9.012
  155SAPE   C2717260   1.353   0.257   9.038
  155SAPE   H7R17261   1.410   0.348   9.065
  155SAPE   H7S17262   1.255   0.264   9.092
  155SAPE   C2817263   1.320   0.261   8.892
  155SAPE   H8R17264   1.230   0.203   8.864
  155SAPE   C2917265   1.387   0.322   8.793
  155SAPE   H9R17266   1.348   0.314   8.691
  155SAPE  C21017267   1.514   0.404   8.801
  155SAPE  H10R17268   1.598   0.348   8.756
  155SAPE  H10S17269   1.544   0.424   8.906
  155SAPE  C21117270   1.495   0.534   8.727
  155SAPE  H11R17271   1.484   0.621   8.793
  155SAPE  C21217272   1.490   0.554   8.594
  155SAPE  H12R17273   1.470   0.657   8.561
  155SAPE  C21317274   1.502   0.454   8.480
  155SAPE  H13R17275   1.490   0.351   8.519
  155SAPE  H13S17276   1.603   0.458   8.435
  155SAPE  C21417277   1.397   0.485   8.376
  155SAPE  H14R17278   1.296   0.468   8.414
  155SAPE  C21517279   1.409   0.527   8.248
  155SAPE  H15R17280   1.315   0.548   8.195
  155SAPE  C21617281   1.525   0.559   8.157
  155SAPE  H16R17282   1.604   0.481   8.160
  155SAPE  H16S17283   1.572   0.656   8.180
  155SAPE  C21717284   1.466   0.578   8.015
  155SAPE  H17R17285   1.386   0.655   8.019
  155SAPE  H17S17286   1.420   0.482   7.982
  155SAPE  C21817287   1.564   0.624   7.907
  155SAPE  H18R17288   1.628   0.539   7.877
  155SAPE  H18S17289   1.631   0.703   7.948
  155SAPE  C21917290   1.494   0.681   7.783
  155SAPE  H19R17291   1.566   0.684   7.699
  155SAPE  H19S17292   1.463   0.786   7.805
  155SAPE  C22017293   1.367   0.608   7.740
  155SAPE  H20R17294   1.347   0.622   7.631
  155SAPE  H20S17295   1.278   0.644   7.795
  155SAPE  H20T17296   1.374   0.499   7.762
  155SAPE   C3317297   1.792   0.036   9.476
  155SAPE   H3X17298   1.718   0.091   9.415
  155SAPE   H3Y17299   1.761  -0.071   9.476
  155SAPE   C3417300   1.931   0.044   9.412
  155SAPE   H4X17301   2.006  -0.004   9.478
  155SAPE   H4Y17302   1.960   0.151   9.401
  155SAPE   C3517303   1.942  -0.020   9.272
  155SAPE   H5X17304   1.939  -0.131   9.282
  155SAPE   H5Y17305   2.042   0.008   9.232
  155SAPE   C3617306   1.834   0.025   9.173
  155SAPE   H6X17307   1.829   0.136   9.174
  155SAPE   H6Y17308   1.737  -0.013   9.210
  155SAPE   C3717309   1.852  -0.021   9.027
  155SAPE   H7X17310   1.867  -0.131   9.023
  155SAPE   H7Y17311   1.941   0.028   8.982
  155SAPE   C3817312   1.723   0.016   8.952
  155SAPE   H8X17313   1.702   0.123   8.975
  155SAPE   H8Y17314   1.644  -0.046   8.999
  155SAPE   C3917315   1.710  -0.000   8.800
  155SAPE   H9X17316   1.744  -0.101   8.767
  155SAPE   H9Y17317   1.768   0.077   8.745
  155SAPE  C31017318   1.562   0.024   8.765
  155SAPE  H10X17319   1.531   0.113   8.824
  155SAPE  H10Y17320   1.501  -0.062   8.802
  155SAPE  C31117321   1.526   0.059   8.620
  155SAPE  H11X17322   1.585  -0.003   8.549
  155SAPE  H11Y17323   1.556   0.165   8.602
  155SAPE  C31217324   1.375   0.040   8.595
  155SAPE  H12X17325   1.319   0.061   8.689
  155SAPE  H12Y17326   1.358  -0.068   8.572
  155SAPE  C31317327   1.312   0.123   8.483
  155SAPE  H13X17328   1.292   0.226   8.518
  155SAPE  H13Y17329   1.213   0.079   8.456
  155SAPE  C31417330   1.398   0.133   8.357
  155SAPE  H14X17331   1.492   0.186   8.382
  155SAPE  H14Y17332   1.346   0.194   8.281
  155SAPE  C31517333   1.435  -0.003   8.296
  155SAPE  H15X17334   1.344  -0.047   8.250
  155SAPE  H15Y17335   1.473  -0.072   8.374
  155SAPE  C31617336   1.543   0.018   8.191
  155SAPE  H16X17337   1.628   0.072   8.237
  155SAPE  H16Y17338   1.495   0.085   8.116
  155SAPE  C31717339   1.594  -0.107   8.120
  155SAPE  H17X17340   1.644  -0.173   8.195
  155SAPE  H17Y17341   1.672  -0.076   8.048
  155SAPE  C31817342   1.485  -0.184   8.046
  155SAPE  H18X17343   1.429  -0.117   7.977
  155SAPE  H18Y17344   1.412  -0.228   8.118
  155SAPE  H18Z17345   1.529  -0.267   7.986
  156SAPE     N17346   0.177   5.707  10.216
  156SAPE   HN117347   0.250   5.640  10.184
  156SAPE   HN217348   0.187   5.799  10.169
  156SAPE   HN317349   0.181   5.728  10.318
  156SAPE   C1217350   0.038   5.668  10.173
  156SAPE  H12A17351  -0.031   5.697  10.255
  156SAPE  H12B17352   0.033   5.559  10.154
  156SAPE   C1117353   0.006   5.749  10.048
  156SAPE  H11A17354  -0.103   5.746  10.029
  156SAPE  H11B17355   0.057   5.703   9.961
  156SAPE     P17356   0.079   5.980   9.952
  156SAPE   O1317357  -0.044   5.985   9.870
  156SAPE   O1417358   0.129   6.103  10.015
  156SAPE   O1217359   0.048   5.883  10.071
  156SAPE   O1117360   0.195   5.899   9.882
  156SAPE    C117361   0.330   5.947   9.874
  156SAPE    HA17362   0.344   6.045   9.925
  156SAPE    HB17363   0.399   5.875   9.922
  156SAPE    C217364   0.379   5.969   9.726
  156SAPE    HS17365   0.454   6.050   9.725
  156SAPE   O2117366   0.270   6.000   9.639
  156SAPE   C2117367   0.212   6.116   9.662
  156SAPE   O2217368   0.247   6.199   9.745
  156SAPE   C2217369   0.095   6.126   9.565
  156SAPE   H2R17370   0.014   6.059   9.602
  156SAPE   H2S17371   0.059   6.231   9.572
  156SAPE    C317372   0.447   5.842   9.668
  156SAPE    HX17373   0.381   5.759   9.701
  156SAPE    HY17374   0.546   5.826   9.716
  156SAPE   O3117375   0.457   5.838   9.523
  156SAPE   C3117376   0.541   5.927   9.471
  156SAPE   O3217377   0.608   6.005   9.537
  156SAPE   C3217378   0.544   5.917   9.318
  156SAPE   H2X17379   0.562   5.811   9.291
  156SAPE   H2Y17380   0.632   5.976   9.284
  156SAPE   C2317381   0.139   6.084   9.422
  156SAPE   H3R17382   0.123   5.975   9.409
  156SAPE   H3S17383   0.248   6.102   9.415
  156SAPE   C2417384   0.079   6.162   9.304
  156SAPE   H4R17385   0.123   6.118   9.212
  156SAPE   H4S17386   0.118   6.266   9.308
  156SAPE   C2517387  -0.071   6.162   9.300
  156SAPE   H5R17388  -0.120   6.192   9.394
  156SAPE   C2617389  -0.147   6.136   9.192
  156SAPE   H6R17390  -0.257   6.146   9.201
  156SAPE   C2717391  -0.100   6.102   9.053
  156SAPE   H7R17392   0.008   6.125   9.040
  156SAPE   H7S17393  -0.153   6.172   8.986
  156SAPE   C2817394  -0.123   5.957   9.015
  156SAPE   H8R17395  -0.100   5.886   9.096
  156SAPE   C2917396  -0.161   5.905   8.896
  156SAPE   H9R17397  -0.170   5.796   8.891
  156SAPE  C21017398  -0.194   5.971   8.763
  156SAPE  H10R17399  -0.305   5.976   8.753
  156SAPE  H10S17400  -0.162   5.902   8.682
  156SAPE  C21117401  -0.137   6.108   8.736
  156SAPE  H11R17402  -0.182   6.188   8.797
  156SAPE  C21217403  -0.050   6.147   8.642
  156SAPE  H12R17404  -0.018   6.253   8.642
  156SAPE  C21317405   0.018   6.068   8.536
  156SAPE  H13R17406   0.020   6.133   8.446
  156SAPE  H13S17407  -0.040   5.978   8.507
  156SAPE  C21417408   0.157   6.029   8.580
  156SAPE  H14R17409   0.159   5.934   8.636
  156SAPE  C21517410   0.273   6.093   8.561
  156SAPE  H15R17411   0.365   6.047   8.601
  156SAPE  C21617412   0.293   6.222   8.488
  156SAPE  H16R17413   0.356   6.289   8.550
  156SAPE  H16S17414   0.196   6.275   8.472
  156SAPE  C21717415   0.363   6.201   8.353
  156SAPE  H17R17416   0.469   6.174   8.374
  156SAPE  H17S17417   0.366   6.297   8.297
  156SAPE  C21817418   0.305   6.088   8.264
  156SAPE  H18R17419   0.307   5.994   8.322
  156SAPE  H18S17420   0.375   6.078   8.178
  156SAPE  C21917421   0.163   6.104   8.207
  156SAPE  H19R17422   0.166   6.158   8.111
  156SAPE  H19S17423   0.103   6.165   8.278
  156SAPE  C22017424   0.086   5.973   8.191
  156SAPE  H20R17425   0.093   5.912   8.283
  156SAPE  H20S17426   0.125   5.916   8.104
  156SAPE  H20T17427  -0.022   5.990   8.172
  156SAPE   C3317428   0.415   5.969   9.251
  156SAPE   H3X17429   0.398   6.074   9.282
  156SAPE   H3Y17430   0.330   5.907   9.285
  156SAPE   C3417431   0.417   5.969   9.096
  156SAPE   H4X17432   0.481   5.885   9.062
  156SAPE   H4Y17433   0.465   6.063   9.062
  156SAPE   C3517434   0.278   5.959   9.031
  156SAPE   H5X17435   0.233   6.060   9.035
  156SAPE   H5Y17436   0.213   5.892   9.091
  156SAPE   C3617437   0.274   5.912   8.883
  156SAPE   H6X17438   0.362   5.951   8.827
  156SAPE   H6Y17439   0.183   5.958   8.840
  156SAPE   C3717440   0.261   5.759   8.864
  156SAPE   H7X17441   0.182   5.725   8.935
  156SAPE   H7Y17442   0.357   5.711   8.891
  156SAPE   C3817443   0.220   5.706   8.725
  156SAPE   H8X17444   0.253   5.601   8.715
  156SAPE   H8Y17445   0.272   5.764   8.646
  156SAPE   C3917446   0.067   5.709   8.705
  156SAPE   H9X17447   0.033   5.810   8.737
  156SAPE   H9Y17448   0.018   5.636   8.773
  156SAPE  C31017449   0.020   5.687   8.561
  156SAPE  H10X17450   0.093   5.734   8.491
  156SAPE  H10Y17451  -0.077   5.740   8.546
  156SAPE  C31117452  -0.004   5.540   8.525
  156SAPE  H11X17453  -0.080   5.498   8.594
  156SAPE  H11Y17454   0.090   5.483   8.540
  156SAPE  C31217455  -0.057   5.517   8.382
  156SAPE  H12X17456  -0.161   5.554   8.378
  156SAPE  H12Y17457  -0.060   5.407   8.362
  156SAPE  C31317458   0.022   5.588   8.271
  156SAPE  H13X17459   0.005   5.697   8.284
  156SAPE  H13Y17460  -0.019   5.561   8.172
  156SAPE  C31417461   0.174   5.562   8.271
  156SAPE  H14X17462   0.198   5.485   8.195
  156SAPE  H14Y17463   0.211   5.526   8.369
  156SAPE  C31517464   0.248   5.691   8.236
  156SAPE  H15X17465   0.240   5.764   8.319
  156SAPE  H15Y17466   0.194   5.731   8.147
  156SAPE  C31617467   0.394   5.672   8.197
  156SAPE  H16X17468   0.396   5.600   8.114
  156SAPE  H16Y17469   0.450   5.630   8.284
  156SAPE  C31717470   0.460   5.802   8.152
  156SAPE  H17X17471   0.570   5.788   8.138
  156SAPE  H17Y17472   0.451   5.876   8.235
  156SAPE  C31817473   0.403   5.860   8.023
  156SAPE  H18X17474   0.425   5.969   8.018
  156SAPE  H18Y17475   0.293   5.851   8.017
  156SAPE  H18Z17476   0.446   5.812   7.932
  157SAPE     N17477   6.773   6.102  10.049
  157SAPE   HN117478   6.863   6.051  10.061
  157SAPE   HN217479   6.772   6.181  10.116
  157SAPE   HN317480   6.688   6.044  10.062
  157SAPE   C1217481   6.773   6.173   9.916
  157SAPE  H12A17482   6.668   6.205   9.895
  157SAPE  H12B17483   6.809   6.104   9.838
  157SAPE   C1117484   6.862   6.296   9.929
  157SAPE  H11A17485   6.847   6.365   9.843
  157SAPE  H11B17486   6.969   6.264   9.928
  157SAPE     P17487   6.915   6.484  10.100
  157SAPE   O1317488   6.882   6.497  10.244
  157SAPE   O1417489   7.056   6.455  10.066
  157SAPE   O1217490   6.829   6.361  10.052
  157SAPE   O1117491   6.852   6.602  10.015
  157SAPE    C117492   6.711   6.627  10.019
  157SAPE    HA17493   6.653   6.538  10.052
  157SAPE    HB17494   6.690   6.709  10.092
  157SAPE    C217495   6.649   6.668   9.881
  157SAPE    HS17496   6.539   6.670   9.894
  157SAPE   O2117497   6.693   6.577   9.778
  157SAPE   C2117498   6.605   6.486   9.744
  157SAPE   O2217499   6.502   6.460   9.804
  157SAPE   C2217500   6.653   6.411   9.620
  157SAPE   H2R17501   6.748   6.360   9.644
  157SAPE   H2S17502   6.571   6.338   9.600
  157SAPE    C317503   6.686   6.811   9.835
  157SAPE    HX17504   6.794   6.815   9.811
  157SAPE    HY17505   6.670   6.880   9.920
  157SAPE   O3117506   6.599   6.851   9.725
  157SAPE   C3117507   6.648   6.823   9.604
  157SAPE   O3217508   6.759   6.781   9.581
  157SAPE   C3217509   6.540   6.843   9.496
  157SAPE   H2X17510   6.509   6.950   9.500
  157SAPE   H2Y17511   6.455   6.778   9.524
  157SAPE   C2317512   6.662   6.495   9.492
  157SAPE   H3R17513   6.737   6.575   9.511
  157SAPE   H3S17514   6.564   6.544   9.472
  157SAPE   C2417515   6.711   6.423   9.365
  157SAPE   H4R17516   6.711   6.496   9.281
  157SAPE   H4S17517   6.642   6.343   9.329
  157SAPE   C2517518   6.848   6.369   9.395
  157SAPE   H5R17519   6.856   6.267   9.433
  157SAPE   C2617520   6.956   6.446   9.379
  157SAPE   H6R17521   7.056   6.407   9.405
  157SAPE   C2717522   6.952   6.588   9.328
  157SAPE   H7R17523   7.018   6.653   9.388
  157SAPE   H7S17524   6.853   6.637   9.332
  157SAPE   C2817525   7.002   6.576   9.187
  157SAPE   H8R17526   7.088   6.507   9.178
  157SAPE   C2917527   6.952   6.622   9.072
  157SAPE   H9R17528   7.014   6.610   8.982
  157SAPE  C21017529   6.826   6.701   9.056
  157SAPE  H10R17530   6.813   6.769   9.143
  157SAPE  H10S17531   6.745   6.625   9.063
  157SAPE  C21117532   6.809   6.778   8.928
  157SAPE  H11R17533   6.788   6.885   8.941
  157SAPE  C21217534   6.817   6.730   8.802
  157SAPE  H12R17535   6.803   6.798   8.717
  157SAPE  C21317536   6.845   6.587   8.765
  157SAPE  H13R17537   6.946   6.557   8.801
  157SAPE  H13S17538   6.854   6.582   8.654
  157SAPE  C21417539   6.740   6.489   8.812
  157SAPE  H14R17540   6.646   6.533   8.850
  157SAPE  C21517541   6.755   6.356   8.815
  157SAPE  H15R17542   6.672   6.292   8.849
  157SAPE  C21617543   6.880   6.286   8.769
  157SAPE  H16R17544   6.878   6.180   8.800
  157SAPE  H16S17545   6.969   6.333   8.816
  157SAPE  C21717546   6.897   6.292   8.616
  157SAPE  H17R17547   6.993   6.244   8.587
  157SAPE  H17S17548   6.902   6.397   8.579
  157SAPE  C21817549   6.785   6.220   8.543
  157SAPE  H18R17550   6.686   6.259   8.575
  157SAPE  H18S17551   6.790   6.113   8.573
  157SAPE  C21917552   6.794   6.233   8.391
  157SAPE  H19R17553   6.781   6.341   8.366
  157SAPE  H19S17554   6.709   6.176   8.347
  157SAPE  C22017555   6.923   6.187   8.326
  157SAPE  H20R17556   6.953   6.085   8.358
  157SAPE  H20S17557   7.007   6.257   8.347
  157SAPE  H20T17558   6.905   6.185   8.216
  157SAPE   C3317559   6.585   6.808   9.352
  157SAPE   H3X17560   6.628   6.705   9.346
  157SAPE   H3Y17561   6.666   6.877   9.321
  157SAPE   C3417562   6.473   6.819   9.246
  157SAPE   H4X17563   6.430   6.921   9.252
  157SAPE   H4Y17564   6.393   6.745   9.268
  157SAPE   C3517565   6.526   6.797   9.104
  157SAPE   H5X17566   6.567   6.694   9.099
  157SAPE   H5Y17567   6.608   6.871   9.088
  157SAPE   C3617568   6.425   6.812   8.989
  157SAPE   H6X17569   6.333   6.853   9.036
  157SAPE   H6Y17570   6.400   6.711   8.949
  157SAPE   C3717571   6.471   6.905   8.877
  157SAPE   H7X17572   6.571   6.872   8.842
  157SAPE   H7Y17573   6.482   7.007   8.921
  157SAPE   C3817574   6.381   6.917   8.752
  157SAPE   H8X17575   6.435   6.977   8.676
  157SAPE   H8Y17576   6.289   6.974   8.777
  157SAPE   C3917577   6.339   6.783   8.688
  157SAPE   H9X17578   6.278   6.804   8.598
  157SAPE   H9Y17579   6.274   6.728   8.760
  157SAPE  C31017580   6.456   6.692   8.649
  157SAPE  H10X17581   6.413   6.599   8.607
  157SAPE  H10Y17582   6.514   6.664   8.739
  157SAPE  C31117583   6.551   6.753   8.546
  157SAPE  H11X17584   6.614   6.829   8.596
  157SAPE  H11Y17585   6.492   6.805   8.467
  157SAPE  C31217586   6.639   6.646   8.480
  157SAPE  H12X17587   6.577   6.589   8.407
  157SAPE  H12Y17588   6.670   6.573   8.557
  157SAPE  C31317589   6.763   6.703   8.411
  157SAPE  H13X17590   6.819   6.620   8.362
  157SAPE  H13Y17591   6.829   6.744   8.490
  157SAPE  C31417592   6.733   6.814   8.308
  157SAPE  H14X17593   6.827   6.842   8.257
  157SAPE  H14Y17594   6.698   6.904   8.364
  157SAPE  C31517595   6.630   6.779   8.202
  157SAPE  H15X17596   6.611   6.867   8.137
  157SAPE  H15Y17597   6.533   6.754   8.252
  157SAPE  C31617598   6.675   6.662   8.115
  157SAPE  H16X17599   6.584   6.621   8.066
  157SAPE  H16Y17600   6.716   6.580   8.179
  157SAPE  C31717601   6.781   6.700   8.011
  157SAPE  H17X17602   6.818   6.608   7.961
  157SAPE  H17Y17603   6.866   6.743   8.069
  157SAPE  C31817604   6.740   6.802   7.904
  157SAPE  H18X17605   6.654   6.766   7.843
  157SAPE  H18Y17606   6.825   6.821   7.835
  157SAPE  H18Z17607   6.711   6.899   7.950
  158SAPE     N17608   0.479   6.377   9.949
  158SAPE   HN117609   0.507   6.473   9.921
  158SAPE   HN217610   0.547   6.350  10.022
  158SAPE   HN317611   0.487   6.318   9.863
  158SAPE   C1217612   0.337   6.387  10.000
  158SAPE  H12A17613   0.308   6.290  10.045
  158SAPE  H12B17614   0.273   6.406   9.912
  158SAPE   C1117615   0.324   6.503  10.103
  158SAPE  H11A17616   0.314   6.460  10.204
  158SAPE  H11B17617   0.229   6.556  10.081
  158SAPE     P17618   0.427   6.747  10.108
  158SAPE   O1317619   0.324   6.778  10.210
  158SAPE   O1417620   0.562   6.801  10.134
  158SAPE   O1217621   0.438   6.590  10.100
  158SAPE   O1117622   0.377   6.787   9.963
  158SAPE    C117623   0.382   6.692   9.856
  158SAPE    HA17624   0.479   6.639   9.853
  158SAPE    HB17625   0.298   6.620   9.865
  158SAPE    C217626   0.365   6.756   9.716
  158SAPE    HS17627   0.444   6.832   9.704
  158SAPE   O2117628   0.233   6.810   9.708
  158SAPE   C2117629   0.226   6.940   9.690
  158SAPE   O2217630   0.316   7.021   9.710
  158SAPE   C2217631   0.092   6.970   9.626
  158SAPE   H2R17632   0.039   6.876   9.597
  158SAPE   H2S17633   0.031   7.023   9.702
  158SAPE    C317634   0.384   6.650   9.602
  158SAPE    HX17635   0.435   6.561   9.645
  158SAPE    HY17636   0.450   6.692   9.525
  158SAPE   O3117637   0.258   6.618   9.541
  158SAPE   C3117638   0.224   6.493   9.523
  158SAPE   O3217639   0.297   6.396   9.526
  158SAPE   C3217640   0.075   6.488   9.496
  158SAPE   H2X17641   0.021   6.506   9.591
  158SAPE   H2Y17642   0.048   6.387   9.457
  158SAPE   C2317643   0.112   7.059   9.501
  158SAPE   H3R17644   0.158   7.153   9.537
  158SAPE   H3S17645   0.013   7.086   9.459
  158SAPE   C2417646   0.202   6.996   9.392
  158SAPE   H4R17647   0.275   6.925   9.437
  158SAPE   H4S17648   0.263   7.077   9.347
  158SAPE   C2517649   0.125   6.927   9.283
  158SAPE   H5R17650   0.109   6.819   9.297
  158SAPE   C2617651   0.069   6.984   9.176
  158SAPE   H6R17652   0.012   6.920   9.107
  158SAPE   C2717653   0.071   7.131   9.144
  158SAPE   H7R17654   0.120   7.188   9.226
  158SAPE   H7S17655  -0.034   7.166   9.152
  158SAPE   C2817656   0.126   7.183   9.013
  158SAPE   H8R17657   0.099   7.289   9.000
  158SAPE   C2917658   0.196   7.128   8.911
  158SAPE   H9R17659   0.215   7.196   8.826
  158SAPE  C21017660   0.252   6.990   8.882
  158SAPE  H10R17661   0.319   7.001   8.794
  158SAPE  H10S17662   0.170   6.926   8.843
  158SAPE  C21117663   0.330   6.913   8.985
  158SAPE  H11R17664   0.347   6.963   9.082
  158SAPE  C21217665   0.374   6.787   8.965
  158SAPE  H12R17666   0.429   6.736   9.045
  158SAPE  C21317667   0.350   6.706   8.839
  158SAPE  H13R17668   0.260   6.742   8.784
  158SAPE  H13S17669   0.328   6.601   8.867
  158SAPE  C21417670   0.466   6.706   8.744
  158SAPE  H14R17671   0.563   6.733   8.789
  158SAPE  C21517672   0.466   6.664   8.616
  158SAPE  H15R17673   0.561   6.665   8.561
  158SAPE  C21617674   0.350   6.608   8.539
  158SAPE  H16R17675   0.252   6.648   8.573
  158SAPE  H16S17676   0.347   6.498   8.554
  158SAPE  C21717677   0.368   6.634   8.388
  158SAPE  H17R17678   0.309   6.559   8.331
  158SAPE  H17S17679   0.473   6.617   8.358
  158SAPE  C21817680   0.321   6.774   8.345
  158SAPE  H18R17681   0.377   6.850   8.403
  158SAPE  H18S17682   0.213   6.785   8.371
  158SAPE  C21917683   0.342   6.797   8.195
  158SAPE  H19R17684   0.269   6.736   8.138
  158SAPE  H19S17685   0.443   6.757   8.170
  158SAPE  C22017686   0.334   6.942   8.148
  158SAPE  H20R17687   0.230   6.979   8.149
  158SAPE  H20S17688   0.371   6.950   8.043
  158SAPE  H20T17689   0.397   7.008   8.212
  158SAPE   C3317690   0.035   6.589   9.390
  158SAPE   H3X17691   0.045   6.692   9.430
  158SAPE   H3Y17692  -0.074   6.574   9.371
  158SAPE   C3417693   0.111   6.570   9.257
  158SAPE   H4X17694   0.156   6.469   9.249
  158SAPE   H4Y17695   0.194   6.643   9.249
  158SAPE   C3517696   0.011   6.587   9.143
  158SAPE   H5X17697  -0.062   6.664   9.176
  158SAPE   H5Y17698  -0.038   6.489   9.130
  158SAPE   C3617699   0.061   6.636   9.008
  158SAPE   H6X17700   0.167   6.666   9.019
  158SAPE   H6Y17701   0.004   6.727   8.982
  158SAPE   C3717702   0.041   6.534   8.895
  158SAPE   H7X17703  -0.035   6.459   8.924
  158SAPE   H7Y17704   0.136   6.480   8.877
  158SAPE   C3817705  -0.009   6.603   8.768
  158SAPE   H8X17706   0.064   6.680   8.735
  158SAPE   H8Y17707  -0.105   6.654   8.791
  158SAPE   C3917708  -0.033   6.503   8.656
  158SAPE   H9X17709  -0.104   6.426   8.691
  158SAPE   H9Y17710   0.064   6.455   8.630
  158SAPE  C31017711  -0.093   6.571   8.533
  158SAPE  H10X17712  -0.042   6.669   8.519
  158SAPE  H10Y17713  -0.200   6.591   8.557
  158SAPE  C31117714  -0.081   6.490   8.404
  158SAPE  H11X17715  -0.157   6.524   8.331
  158SAPE  H11Y17716  -0.100   6.383   8.425
  158SAPE  C31217717   0.058   6.509   8.342
  158SAPE  H12X17718   0.132   6.485   8.421
  158SAPE  H12Y17719   0.075   6.615   8.314
  158SAPE  C31317720   0.087   6.418   8.222
  158SAPE  H13X17721  -0.005   6.361   8.196
  158SAPE  H13Y17722   0.164   6.348   8.259
  158SAPE  C31417723   0.146   6.481   8.095
  158SAPE  H14X17724   0.131   6.591   8.093
  158SAPE  H14Y17725   0.088   6.439   8.010
  158SAPE  C31517726   0.290   6.439   8.065
  158SAPE  H15X17727   0.298   6.330   8.082
  158SAPE  H15Y17728   0.362   6.489   8.134
  158SAPE  C31617729   0.330   6.464   7.919
  158SAPE  H16X17730   0.247   6.435   7.851
  158SAPE  H16Y17731   0.417   6.399   7.896
  158SAPE  C31717732   0.372   6.609   7.893
  158SAPE  H17X17733   0.452   6.634   7.966
  158SAPE  H17Y17734   0.286   6.677   7.912
  158SAPE  C31817735   0.424   6.630   7.751
  158SAPE  H18X17736   0.341   6.619   7.678
  158SAPE  H18Y17737   0.503   6.556   7.727
  158SAPE  H18Z17738   0.468   6.731   7.740
  159SAPE     N17739   3.577   2.853   5.815
  159SAPE   HN117740   3.521   2.803   5.886
  159SAPE   HN217741   3.529   2.850   5.723
  159SAPE   HN317742   3.668   2.803   5.811
  159SAPE   C1217743   3.607   2.991   5.866
  159SAPE  H12A17744   3.627   3.057   5.779
  159SAPE  H12B17745   3.699   2.985   5.929
  159SAPE   C1117746   3.489   3.038   5.950
  159SAPE  H11A17747   3.508   3.141   5.988
  159SAPE  H11B17748   3.485   2.972   6.039
  159SAPE     P17749   3.234   3.001   5.947
  159SAPE   O1317750   3.248   3.044   6.087
  159SAPE   O1417751   3.120   3.052   5.868
  159SAPE   O1217752   3.369   3.037   5.870
  159SAPE   O1117753   3.236   2.844   5.942
  159SAPE    C117754   3.175   2.768   5.838
  159SAPE    HA17755   3.081   2.816   5.802
  159SAPE    HB17756   3.245   2.758   5.753
  159SAPE    C217757   3.139   2.625   5.889
  159SAPE    HS17758   3.084   2.571   5.809
  159SAPE   O2117759   3.059   2.629   6.007
  159SAPE   C2117760   2.945   2.690   6.010
  159SAPE   O2217761   2.877   2.724   5.913
  159SAPE   C2217762   2.905   2.705   6.157
  159SAPE   H2R17763   2.808   2.759   6.162
  159SAPE   H2S17764   2.895   2.602   6.198
  159SAPE    C317765   3.266   2.541   5.923
  159SAPE    HX17766   3.317   2.517   5.828
  159SAPE    HY17767   3.234   2.444   5.967
  159SAPE   O3117768   3.360   2.612   6.009
  159SAPE   C3117769   3.326   2.608   6.139
  159SAPE   O3217770   3.237   2.541   6.187
  159SAPE   C3217771   3.417   2.699   6.221
  159SAPE   H2X17772   3.388   2.804   6.198
  159SAPE   H2Y17773   3.522   2.682   6.190
  159SAPE   C2317774   3.013   2.777   6.240
  159SAPE   H3R17775   3.034   2.875   6.193
  159SAPE   H3S17776   3.109   2.721   6.234
  159SAPE   C2417777   2.980   2.789   6.390
  159SAPE   H4R17778   2.971   2.686   6.432
  159SAPE   H4S17779   2.881   2.838   6.404
  159SAPE   C2517780   3.088   2.868   6.458
  159SAPE   H5R17781   3.150   2.928   6.390
  159SAPE   C2617782   3.115   2.877   6.590
  159SAPE   H6R17783   3.196   2.944   6.621
  159SAPE   C2717784   3.044   2.808   6.703
  159SAPE   H7R17785   2.940   2.846   6.709
  159SAPE   H7S17786   3.093   2.839   6.799
  159SAPE   C2817787   3.042   2.657   6.695
  159SAPE   H8R17788   3.079   2.612   6.602
  159SAPE   C2917789   3.001   2.577   6.794
  159SAPE   H9R17790   3.000   2.468   6.778
  159SAPE  C21017791   2.952   2.624   6.928
  159SAPE  H10R17792   2.867   2.558   6.958
  159SAPE  H10S17793   2.908   2.726   6.922
  159SAPE  C21117794   3.059   2.623   7.033
  159SAPE  H11R17795   3.136   2.700   7.020
  159SAPE  C21217796   3.070   2.538   7.137
  159SAPE  H12R17797   3.152   2.553   7.209
  159SAPE  C21317798   2.977   2.424   7.173
  159SAPE  H13R17799   3.038   2.331   7.173
  159SAPE  H13S17800   2.901   2.407   7.094
  159SAPE  C21417801   2.905   2.429   7.307
  159SAPE  H14R17802   2.888   2.329   7.350
  159SAPE  C21517803   2.861   2.535   7.377
  159SAPE  H15R17804   2.812   2.516   7.474
  159SAPE  C21617805   2.870   2.682   7.343
  159SAPE  H16R17806   2.767   2.723   7.332
  159SAPE  H16S17807   2.921   2.705   7.247
  159SAPE  C21717808   2.940   2.759   7.456
  159SAPE  H17R17809   2.875   2.748   7.545
  159SAPE  H17S17810   2.942   2.868   7.431
  159SAPE  C21817811   3.082   2.713   7.493
  159SAPE  H18R17812   3.154   2.748   7.416
  159SAPE  H18S17813   3.087   2.602   7.497
  159SAPE  C21917814   3.122   2.766   7.631
  159SAPE  H19R17815   3.046   2.731   7.704
  159SAPE  H19S17816   3.118   2.877   7.628
  159SAPE  C22017817   3.257   2.722   7.685
  159SAPE  H20R17818   3.334   2.724   7.604
  159SAPE  H20S17819   3.251   2.620   7.727
  159SAPE  H20T17820   3.289   2.789   7.768
  159SAPE   C3317821   3.399   2.670   6.372
  159SAPE   H3X17822   3.410   2.561   6.389
  159SAPE   H3Y17823   3.295   2.697   6.403
  159SAPE   C3417824   3.498   2.742   6.464
  159SAPE   H4X17825   3.602   2.711   6.438
  159SAPE   H4Y17826   3.476   2.709   6.567
  159SAPE   C3517827   3.490   2.895   6.468
  159SAPE   H5X17828   3.385   2.924   6.489
  159SAPE   H5Y17829   3.518   2.938   6.369
  159SAPE   C3617830   3.581   2.950   6.579
  159SAPE   H6X17831   3.686   2.926   6.551
  159SAPE   H6Y17832   3.560   2.897   6.674
  159SAPE   C3717833   3.570   3.102   6.601
  159SAPE   H7X17834   3.586   3.153   6.504
  159SAPE   H7Y17835   3.651   3.134   6.670
  159SAPE   C3817836   3.435   3.148   6.660
  159SAPE   H8X17837   3.352   3.119   6.592
  159SAPE   H8Y17838   3.436   3.259   6.664
  159SAPE   C3917839   3.406   3.095   6.802
  159SAPE   H9X17840   3.494   3.116   6.866
  159SAPE   H9Y17841   3.392   2.985   6.797
  159SAPE  C31017842   3.281   3.159   6.864
  159SAPE  H10X17843   3.196   3.143   6.794
  159SAPE  H10Y17844   3.296   3.269   6.873
  159SAPE  C31117845   3.242   3.101   7.002
  159SAPE  H11X17846   3.235   2.991   6.993
  159SAPE  H11Y17847   3.142   3.139   7.029
  159SAPE  C31217848   3.341   3.138   7.114
  159SAPE  H12X17849   3.343   3.248   7.126
  159SAPE  H12Y17850   3.443   3.106   7.084
  159SAPE  C31317851   3.307   3.072   7.249
  159SAPE  H13X17852   3.303   2.962   7.233
  159SAPE  H13Y17853   3.206   3.105   7.283
  159SAPE  C31417854   3.412   3.103   7.356
  159SAPE  H14X17855   3.403   3.208   7.389
  159SAPE  H14Y17856   3.512   3.090   7.310
  159SAPE  C31517857   3.405   3.009   7.478
  159SAPE  H15X17858   3.400   2.905   7.441
  159SAPE  H15Y17859   3.313   3.028   7.537
  159SAPE  C31617860   3.529   3.022   7.568
  159SAPE  H16X17861   3.525   3.117   7.625
  159SAPE  H16Y17862   3.619   3.024   7.503
  159SAPE  C31717863   3.545   2.904   7.665
  159SAPE  H17X17864   3.531   2.810   7.608
  159SAPE  H17Y17865   3.465   2.910   7.742
  159SAPE  C31817866   3.681   2.896   7.735
  159SAPE  H18X17867   3.683   2.808   7.803
  159SAPE  H18Y17868   3.700   2.987   7.796
  159SAPE  H18Z17869   3.762   2.885   7.660
  160SAPE     N17870   2.845   4.391   6.032
  160SAPE   HN117871   2.840   4.493   6.014
  160SAPE   HN217872   2.936   4.363   6.074
  160SAPE   HN317873   2.837   4.342   5.941
  160SAPE   C1217874   2.726   4.344   6.112
  160SAPE  H12A17875   2.706   4.417   6.193
  160SAPE  H12B17876   2.755   4.247   6.157
  160SAPE   C1117877   2.605   4.329   6.018
  160SAPE  H11A17878   2.562   4.430   6.001
  160SAPE  H11B17879   2.524   4.270   6.066
  160SAPE     P17880   2.658   4.116   5.872
  160SAPE   O1317881   2.524   4.057   5.884
  160SAPE   O1417882   2.732   4.100   5.745
  160SAPE   O1217883   2.642   4.273   5.892
  160SAPE   O1117884   2.751   4.080   5.994
  160SAPE    C117885   2.807   3.950   6.018
  160SAPE    HA17886   2.827   3.894   5.924
  160SAPE    HB17887   2.905   3.965   6.069
  160SAPE    C217888   2.722   3.860   6.114
  160SAPE    HS17889   2.662   3.791   6.050
  160SAPE   O2117890   2.640   3.945   6.193
  160SAPE   C2117891   2.519   3.906   6.219
  160SAPE   O2217892   2.460   3.810   6.173
  160SAPE   C2217893   2.459   4.005   6.319
  160SAPE   H2R17894   2.358   4.031   6.279
  160SAPE   H2S17895   2.450   3.952   6.416
  160SAPE    C317896   2.808   3.773   6.211
  160SAPE    HX17897   2.883   3.718   6.151
  160SAPE    HY17898   2.743   3.696   6.258
  160SAPE   O3117899   2.876   3.857   6.309
  160SAPE   C3117900   2.810   3.877   6.423
  160SAPE   O3217901   2.714   3.813   6.462
  160SAPE   C3217902   2.862   4.004   6.491
  160SAPE   H2X17903   2.834   4.088   6.424
  160SAPE   H2Y17904   2.973   4.000   6.495
  160SAPE   C2317905   2.537   4.137   6.337
  160SAPE   H3R17906   2.578   4.166   6.238
  160SAPE   H3S17907   2.623   4.120   6.406
  160SAPE   C2417908   2.448   4.252   6.386
  160SAPE   H4R17909   2.362   4.263   6.316
  160SAPE   H4S17910   2.507   4.346   6.383
  160SAPE   C2517911   2.399   4.219   6.523
  160SAPE   H5R17912   2.344   4.124   6.532
  160SAPE   C2617913   2.414   4.292   6.634
  160SAPE   H6R17914   2.376   4.252   6.729
  160SAPE   C2717915   2.485   4.424   6.643
  160SAPE   H7R17916   2.437   4.490   6.718
  160SAPE   H7S17917   2.480   4.481   6.547
  160SAPE   C2817918   2.628   4.395   6.678
  160SAPE   H8R17919   2.690   4.367   6.591
  160SAPE   C2917920   2.679   4.387   6.802
  160SAPE   H9R17921   2.783   4.355   6.816
  160SAPE  C21017922   2.602   4.407   6.930
  160SAPE  H10R17923   2.509   4.466   6.914
  160SAPE  H10S17924   2.663   4.468   7.000
  160SAPE  C21117925   2.566   4.272   6.987
  160SAPE  H11R17926   2.535   4.195   6.915
  160SAPE  C21217927   2.567   4.243   7.117
  160SAPE  H12R17928   2.550   4.139   7.149
  160SAPE  C21317929   2.604   4.338   7.227
  160SAPE  H13R17930   2.552   4.310   7.320
  160SAPE  H13S17931   2.570   4.442   7.205
  160SAPE  C21417932   2.754   4.336   7.240
  160SAPE  H14R17933   2.806   4.387   7.158
  160SAPE  C21517934   2.826   4.268   7.330
  160SAPE  H15R17935   2.936   4.273   7.326
  160SAPE  C21617936   2.768   4.180   7.436
  160SAPE  H16R17937   2.852   4.122   7.481
  160SAPE  H16S17938   2.698   4.106   7.391
  160SAPE  C21717939   2.692   4.249   7.549
  160SAPE  H17R17940   2.589   4.272   7.517
  160SAPE  H17S17941   2.739   4.347   7.573
  160SAPE  C21817942   2.691   4.159   7.673
  160SAPE  H18R17943   2.790   4.110   7.683
  160SAPE  H18S17944   2.616   4.078   7.659
  160SAPE  C21917945   2.666   4.232   7.804
  160SAPE  H19R17946   2.566   4.280   7.806
  160SAPE  H19S17947   2.738   4.315   7.817
  160SAPE  C22017948   2.675   4.138   7.922
  160SAPE  H20R17949   2.606   4.052   7.909
  160SAPE  H20S17950   2.647   4.195   8.013
  160SAPE  H20T17951   2.779   4.099   7.935
  160SAPE   C3317952   2.806   4.028   6.634
  160SAPE   H3X17953   2.705   3.982   6.646
  160SAPE   H3Y17954   2.792   4.137   6.649
  160SAPE   C3417955   2.901   3.977   6.742
  160SAPE   H4X17956   3.002   4.020   6.727
  160SAPE   H4Y17957   2.911   3.867   6.729
  160SAPE   C3517958   2.854   4.006   6.885
  160SAPE   H5X17959   2.746   3.984   6.893
  160SAPE   H5Y17960   2.869   4.114   6.908
  160SAPE   C3617961   2.930   3.920   6.987
  160SAPE   H6X17962   3.039   3.931   6.975
  160SAPE   H6Y17963   2.905   3.814   6.964
  160SAPE   C3717964   2.891   3.950   7.132
  160SAPE   H7X17965   2.784   3.976   7.135
  160SAPE   H7Y17966   2.947   4.039   7.167
  160SAPE   C3817967   2.916   3.832   7.228
  160SAPE   H8X17968   3.022   3.798   7.221
  160SAPE   H8Y17969   2.853   3.746   7.197
  160SAPE   C3917970   2.882   3.873   7.371
  160SAPE   H9X17971   2.786   3.928   7.365
  160SAPE   H9Y17972   2.960   3.942   7.410
  160SAPE  C31017973   2.857   3.760   7.472
  160SAPE  H10X17974   2.945   3.694   7.482
  160SAPE  H10Y17975   2.773   3.698   7.433
  160SAPE  C31117976   2.815   3.818   7.608
  160SAPE  H11X17977   2.750   3.747   7.662
  160SAPE  H11Y17978   2.751   3.908   7.592
  160SAPE  C31217979   2.933   3.852   7.699
  160SAPE  H12X17980   2.975   3.951   7.668
  160SAPE  H12Y17981   3.013   3.776   7.688
  160SAPE  C31317982   2.891   3.857   7.847
  160SAPE  H13X17983   2.785   3.892   7.852
  160SAPE  H13Y17984   2.953   3.931   7.902
  160SAPE  C31417985   2.904   3.721   7.917
  160SAPE  H14X17986   3.010   3.690   7.912
  160SAPE  H14Y17987   2.844   3.645   7.863
  160SAPE  C31517988   2.861   3.725   8.064
  160SAPE  H15X17989   2.874   3.829   8.102
  160SAPE  H15Y17990   2.929   3.661   8.123
  160SAPE  C31617991   2.717   3.676   8.091
  160SAPE  H16X17992   2.690   3.693   8.197
  160SAPE  H16Y17993   2.710   3.566   8.076
  160SAPE  C31717994   2.608   3.734   8.002
  160SAPE  H17X17995   2.623   3.700   7.897
  160SAPE  H17Y17996   2.617   3.845   8.000
  160SAPE  C31817997   2.471   3.691   8.053
  160SAPE  H18X17998   2.389   3.727   7.988
  160SAPE  H18Y17999   2.453   3.730   8.156
  160SAPE  H18Z18000   2.465   3.580   8.059
  161SAPE     N18001   3.236   2.076   5.735
  161SAPE   HN118002   3.315   2.142   5.728
  161SAPE   HN218003   3.240   2.012   5.652
  161SAPE   HN318004   3.147   2.130   5.729
  161SAPE   C1218005   3.240   2.004   5.867
  161SAPE  H12A18006   3.329   1.937   5.867
  161SAPE  H12B18007   3.149   1.942   5.875
  161SAPE   C1118008   3.248   2.107   5.982
  161SAPE  H11A18009   3.248   2.048   6.076
  161SAPE  H11B18010   3.156   2.169   5.982
  161SAPE     P18011   3.424   2.253   6.106
  161SAPE   O1318012   3.522   2.360   6.071
  161SAPE   O1418013   3.315   2.281   6.199
  161SAPE   O1218014   3.364   2.193   5.970
  161SAPE   O1118015   3.505   2.134   6.163
  161SAPE    C118016   3.618   2.087   6.091
  161SAPE    HA18017   3.587   2.046   5.993
  161SAPE    HB18018   3.693   2.168   6.073
  161SAPE    C218019   3.687   1.974   6.172
  161SAPE    HS18020   3.743   1.911   6.099
  161SAPE   O2118021   3.593   1.892   6.243
  161SAPE   C2118022   3.499   1.837   6.169
  161SAPE   O2218023   3.485   1.845   6.049
  161SAPE   C2218024   3.418   1.743   6.257
  161SAPE   H2R18025   3.381   1.666   6.186
  161SAPE   H2S18026   3.486   1.696   6.331
  161SAPE    C318027   3.788   2.035   6.273
  161SAPE    HX18028   3.855   2.102   6.215
  161SAPE    HY18029   3.852   1.954   6.314
  161SAPE   O3118030   3.724   2.114   6.375
  161SAPE   C3118031   3.707   2.054   6.492
  161SAPE   O3218032   3.745   1.943   6.524
  161SAPE   C3218033   3.646   2.155   6.589
  161SAPE   H2X18034   3.673   2.121   6.692
  161SAPE   H2Y18035   3.535   2.151   6.579
  161SAPE   C2318036   3.292   1.799   6.327
  161SAPE   H3R18037   3.223   1.839   6.251
  161SAPE   H3S18038   3.320   1.881   6.397
  161SAPE   C2418039   3.226   1.682   6.404
  161SAPE   H4R18040   3.287   1.661   6.494
  161SAPE   H4S18041   3.237   1.594   6.337
  161SAPE   C2518042   3.080   1.692   6.436
  161SAPE   H5R18043   3.013   1.662   6.354
  161SAPE   C2618044   3.027   1.730   6.554
  161SAPE   H6R18045   2.918   1.729   6.565
  161SAPE   C2718046   3.104   1.771   6.676
  161SAPE   H7R18047   3.160   1.684   6.717
  161SAPE   H7S18048   3.030   1.798   6.754
  161SAPE   C2818049   3.196   1.889   6.654
  161SAPE   H8R18050   3.177   1.948   6.563
  161SAPE   C2918051   3.298   1.926   6.733
  161SAPE   H9R18052   3.359   2.013   6.706
  161SAPE  C21018053   3.337   1.854   6.859
  161SAPE  H10R18054   3.347   1.745   6.841
  161SAPE  H10S18055   3.253   1.863   6.931
  161SAPE  C21118056   3.464   1.906   6.920
  161SAPE  H11R18057   3.553   1.897   6.856
  161SAPE  C21218058   3.476   1.963   7.041
  161SAPE  H12R18059   3.575   1.998   7.074
  161SAPE  C21318060   3.364   1.988   7.140
  161SAPE  H13R18061   3.288   2.053   7.091
  161SAPE  H13S18062   3.405   2.050   7.222
  161SAPE  C21418063   3.291   1.870   7.199
  161SAPE  H14R18064   3.212   1.828   7.135
  161SAPE  C21518065   3.312   1.812   7.318
  161SAPE  H15R18066   3.247   1.729   7.349
  161SAPE  C21618067   3.416   1.853   7.419
  161SAPE  H16R18068   3.474   1.942   7.384
  161SAPE  H16S18069   3.489   1.771   7.432
  161SAPE  C21718070   3.356   1.889   7.556
  161SAPE  H17R18071   3.281   1.969   7.545
  161SAPE  H17S18072   3.438   1.929   7.619
  161SAPE  C21818073   3.294   1.767   7.627
  161SAPE  H18R18074   3.367   1.683   7.624
  161SAPE  H18S18075   3.202   1.735   7.575
  161SAPE  C21918076   3.262   1.799   7.773
  161SAPE  H19R18077   3.186   1.879   7.778
  161SAPE  H19S18078   3.354   1.842   7.818
  161SAPE  C22018079   3.218   1.679   7.857
  161SAPE  H20R18080   3.303   1.608   7.871
  161SAPE  H20S18081   3.134   1.626   7.808
  161SAPE  H20T18082   3.185   1.713   7.958
  161SAPE   C3318083   3.699   2.298   6.563
  161SAPE   H3X18084   3.642   2.342   6.479
  161SAPE   H3Y18085   3.805   2.292   6.530
  161SAPE   C3418086   3.700   2.391   6.686
  161SAPE   H4X18087   3.801   2.434   6.695
  161SAPE   H4Y18088   3.682   2.333   6.779
  161SAPE   C3518089   3.601   2.507   6.674
  161SAPE   H5X18090   3.568   2.513   6.568
  161SAPE   H5Y18091   3.653   2.602   6.699
  161SAPE   C3618092   3.477   2.494   6.762
  161SAPE   H6X18093   3.404   2.574   6.737
  161SAPE   H6Y18094   3.509   2.511   6.868
  161SAPE   C3718095   3.408   2.358   6.748
  161SAPE   H7X18096   3.479   2.276   6.776
  161SAPE   H7Y18097   3.380   2.343   6.642
  161SAPE   C3818098   3.284   2.341   6.836
  161SAPE   H8X18099   3.249   2.236   6.829
  161SAPE   H8Y18100   3.204   2.406   6.794
  161SAPE   C3918101   3.304   2.379   6.983
  161SAPE   H9X18102   3.215   2.341   7.037
  161SAPE   H9Y18103   3.308   2.489   6.993
  161SAPE  C31018104   3.428   2.320   7.052
  161SAPE  H10X18105   3.519   2.378   7.026
  161SAPE  H10Y18106   3.443   2.218   7.012
  161SAPE  C31118107   3.413   2.313   7.205
  161SAPE  H11X18108   3.495   2.253   7.248
  161SAPE  H11Y18109   3.318   2.259   7.226
  161SAPE  C31218110   3.408   2.449   7.275
  161SAPE  H12X18111   3.360   2.524   7.208
  161SAPE  H12Y18112   3.511   2.484   7.296
  161SAPE  C31318113   3.327   2.443   7.406
  161SAPE  H13X18114   3.223   2.411   7.384
  161SAPE  H13Y18115   3.322   2.545   7.449
  161SAPE  C31418116   3.387   2.348   7.510
  161SAPE  H14X18117   3.492   2.380   7.527
  161SAPE  H14Y18118   3.391   2.244   7.470
  161SAPE  C31518119   3.311   2.347   7.643
  161SAPE  H15X18120   3.242   2.260   7.649
  161SAPE  H15Y18121   3.247   2.438   7.647
  161SAPE  C31618122   3.407   2.348   7.763
  161SAPE  H16X18123   3.487   2.422   7.741
  161SAPE  H16Y18124   3.454   2.247   7.770
  161SAPE  C31718125   3.348   2.386   7.898
  161SAPE  H17X18126   3.267   2.315   7.926
  161SAPE  H17Y18127   3.303   2.488   7.891
  161SAPE  C31818128   3.455   2.388   8.008
  161SAPE  H18X18129   3.419   2.440   8.099
  161SAPE  H18Y18130   3.546   2.442   7.973
  161SAPE  H18Z18131   3.484   2.285   8.035
  162SAPE     N18132   3.286   5.521   6.203
  162SAPE   HN118133   3.265   5.623   6.210
  162SAPE   HN218134   3.315   5.481   6.295
  162SAPE   HN318135   3.362   5.509   6.133
  162SAPE   C1218136   3.170   5.447   6.142
  162SAPE  H12A18137   3.076   5.478   6.192
  162SAPE  H12B18138   3.187   5.339   6.158
  162SAPE   C1118139   3.166   5.478   5.991
  162SAPE  H11A18140   3.114   5.575   5.976
  162SAPE  H11B18141   3.105   5.402   5.938
  162SAPE     P18142   3.378   5.363   5.886
  162SAPE   O1318143   3.321   5.314   5.759
  162SAPE   O1418144   3.521   5.398   5.887
  162SAPE   O1218145   3.298   5.489   5.937
  162SAPE   O1118146   3.350   5.259   6.002
  162SAPE    C118147   3.460   5.212   6.081
  162SAPE    HA18148   3.543   5.176   6.017
  162SAPE    HB18149   3.500   5.294   6.145
  162SAPE    C218150   3.421   5.093   6.174
  162SAPE    HS18151   3.390   5.011   6.107
  162SAPE   O2118152   3.312   5.131   6.262
  162SAPE   C2118153   3.251   5.025   6.316
  162SAPE   O2218154   3.274   4.909   6.287
  162SAPE   C2218155   3.149   5.070   6.421
  162SAPE   H2R18156   3.100   5.164   6.386
  162SAPE   H2S18157   3.072   4.990   6.428
  162SAPE    C318158   3.546   5.049   6.256
  162SAPE    HX18159   3.627   5.023   6.185
  162SAPE    HY18160   3.525   4.958   6.317
  162SAPE   O3118161   3.590   5.162   6.335
  162SAPE   C3118162   3.545   5.165   6.459
  162SAPE   O3218163   3.512   5.069   6.525
  162SAPE   C3218164   3.515   5.312   6.491
  162SAPE   H2X18165   3.413   5.335   6.452
  162SAPE   H2Y18166   3.587   5.374   6.435
  162SAPE   C2318167   3.213   5.092   6.560
  162SAPE   H3R18168   3.287   5.174   6.552
  162SAPE   H3S18169   3.268   4.999   6.588
  162SAPE   C2418170   3.116   5.128   6.674
  162SAPE   H4R18171   3.042   5.046   6.686
  162SAPE   H4S18172   3.060   5.220   6.647
  162SAPE   C2518173   3.196   5.146   6.801
  162SAPE   H5R18174   3.287   5.084   6.808
  162SAPE   C2618175   3.169   5.229   6.903
  162SAPE   H6R18176   3.238   5.231   6.989
  162SAPE   C2718177   3.052   5.323   6.916
  162SAPE   H7R18178   3.011   5.313   7.019
  162SAPE   H7S18179   2.969   5.291   6.850
  162SAPE   C2818180   3.085   5.467   6.884
  162SAPE   H8R18181   3.098   5.489   6.777
  162SAPE   C2918182   3.096   5.567   6.973
  162SAPE   H9R18183   3.120   5.668   6.937
  162SAPE  C21018184   3.079   5.552   7.123
  162SAPE  H10R18185   3.158   5.485   7.162
  162SAPE  H10S18186   2.983   5.500   7.144
  162SAPE  C21118187   3.077   5.683   7.197
  162SAPE  H11R18188   3.032   5.767   7.143
  162SAPE  C21218189   3.124   5.706   7.321
  162SAPE  H12R18190   3.113   5.807   7.362
  162SAPE  C21318191   3.189   5.606   7.415
  162SAPE  H13R18192   3.233   5.521   7.360
  162SAPE  H13S18193   3.109   5.563   7.479
  162SAPE  C21418194   3.293   5.671   7.504
  162SAPE  H14R18195   3.288   5.780   7.512
  162SAPE  C21518196   3.388   5.608   7.576
  162SAPE  H15R18197   3.457   5.669   7.636
  162SAPE  C21618198   3.414   5.459   7.585
  162SAPE  H16R18199   3.354   5.402   7.511
  162SAPE  H16S18200   3.386   5.422   7.686
  162SAPE  C21718201   3.564   5.430   7.562
  162SAPE  H17R18202   3.626   5.487   7.634
  162SAPE  H17S18203   3.591   5.465   7.460
  162SAPE  C21818204   3.602   5.281   7.572
  162SAPE  H18R18205   3.701   5.267   7.525
  162SAPE  H18S18206   3.529   5.220   7.516
  162SAPE  C21918207   3.612   5.230   7.717
  162SAPE  H19R18208   3.512   5.237   7.765
  162SAPE  H19S18209   3.681   5.296   7.774
  162SAPE  C22018210   3.662   5.086   7.724
  162SAPE  H20R18211   3.657   5.047   7.829
  162SAPE  H20S18212   3.767   5.079   7.689
  162SAPE  H20T18213   3.600   5.020   7.660
  162SAPE   C3318214   3.520   5.347   6.642
  162SAPE   H3X18215   3.584   5.273   6.695
  162SAPE   H3Y18216   3.420   5.339   6.688
  162SAPE   C3418217   3.581   5.487   6.666
  162SAPE   H4X18218   3.638   5.520   6.577
  162SAPE   H4Y18219   3.655   5.479   6.749
  162SAPE   C3518220   3.479   5.594   6.706
  162SAPE   H5X18221   3.393   5.592   6.635
  162SAPE   H5Y18222   3.527   5.694   6.699
  162SAPE   C3618223   3.428   5.576   6.850
  162SAPE   H6X18224   3.380   5.476   6.860
  162SAPE   H6Y18225   3.349   5.652   6.869
  162SAPE   C3718226   3.536   5.592   6.958
  162SAPE   H7X18227   3.582   5.693   6.947
  162SAPE   H7Y18228   3.617   5.517   6.946
  162SAPE   C3818229   3.481   5.580   7.101
  162SAPE   H8X18230   3.394   5.648   7.112
  162SAPE   H8Y18231   3.559   5.613   7.174
  162SAPE   C3918232   3.438   5.437   7.137
  162SAPE   H9X18233   3.375   5.395   7.056
  162SAPE   H9Y18234   3.374   5.443   7.229
  162SAPE  C31018235   3.554   5.341   7.168
  162SAPE  H10X18236   3.603   5.375   7.261
  162SAPE  H10Y18237   3.629   5.346   7.086
  162SAPE  C31118238   3.510   5.194   7.185
  162SAPE  H11X18239   3.590   5.140   7.241
  162SAPE  H11Y18240   3.501   5.147   7.085
  162SAPE  C31218241   3.376   5.178   7.258
  162SAPE  H12X18242   3.295   5.220   7.195
  162SAPE  H12Y18243   3.378   5.237   7.353
  162SAPE  C31318244   3.341   5.032   7.290
  162SAPE  H13X18245   3.401   5.000   7.378
  162SAPE  H13Y18246   3.370   4.968   7.205
  162SAPE  C31418247   3.191   5.012   7.318
  162SAPE  H14X18248   3.175   4.907   7.349
  162SAPE  H14Y18249   3.136   5.027   7.223
  162SAPE  C31518250   3.131   5.105   7.424
  162SAPE  H15X18251   3.023   5.080   7.435
  162SAPE  H15Y18252   3.136   5.210   7.388
  162SAPE  C31618253   3.198   5.096   7.562
  162SAPE  H16X18254   3.304   5.125   7.553
  162SAPE  H16Y18255   3.194   4.990   7.597
  162SAPE  C31718256   3.130   5.186   7.665
  162SAPE  H17X18257   3.025   5.151   7.680
  162SAPE  H17Y18258   3.125   5.290   7.625
  162SAPE  C31818259   3.202   5.188   7.800
  162SAPE  H18X18260   3.219   5.085   7.838
  162SAPE  H18Y18261   3.142   5.243   7.876
  162SAPE  H18Z18262   3.301   5.238   7.791
  163SAPE     N18263   1.302   4.277   5.907
  163SAPE   HN118264   1.313   4.377   5.879
  163SAPE   HN218265   1.239   4.269   5.989
  163SAPE   HN318266   1.392   4.239   5.943
  163SAPE   C1218267   1.257   4.182   5.799
  163SAPE  H12A18268   1.308   4.208   5.704
  163SAPE  H12B18269   1.147   4.195   5.787
  163SAPE   C1118270   1.288   4.036   5.838
  163SAPE  H11A18271   1.395   4.014   5.820
  163SAPE  H11B18272   1.231   3.967   5.772
  163SAPE     P18273   1.360   3.994   6.088
  163SAPE   O1318274   1.295   4.027   6.217
  163SAPE   O1418275   1.428   3.865   6.067
  163SAPE   O1218276   1.250   4.011   5.974
  163SAPE   O1118277   1.454   4.115   6.044
  163SAPE    C118278   1.596   4.101   6.035
  163SAPE    HA18279   1.627   4.001   5.998
  163SAPE    HB18280   1.633   4.176   5.961
  163SAPE    C218281   1.668   4.130   6.169
  163SAPE    HS18282   1.776   4.142   6.145
  163SAPE   O2118283   1.653   4.014   6.251
  163SAPE   C2118284   1.680   4.020   6.380
  163SAPE   O2218285   1.736   4.112   6.438
  163SAPE   C2218286   1.636   3.891   6.448
  163SAPE   H2R18287   1.591   3.824   6.371
  163SAPE   H2S18288   1.725   3.843   6.493
  163SAPE    C318289   1.620   4.265   6.232
  163SAPE    HX18290   1.606   4.342   6.153
  163SAPE    HY18291   1.704   4.297   6.297
  163SAPE   O3118292   1.498   4.250   6.307
  163SAPE   C3118293   1.496   4.319   6.420
  163SAPE   O3218294   1.554   4.424   6.441
  163SAPE   C3218295   1.428   4.233   6.525
  163SAPE   H2X18296   1.510   4.185   6.584
  163SAPE   H2Y18297   1.368   4.155   6.475
  163SAPE   C2318298   1.531   3.918   6.557
  163SAPE   H3R18299   1.440   3.955   6.505
  163SAPE   H3S18300   1.568   3.996   6.627
  163SAPE   C2418301   1.494   3.796   6.643
  163SAPE   H4R18302   1.576   3.778   6.717
  163SAPE   H4S18303   1.487   3.705   6.580
  163SAPE   C2518304   1.361   3.824   6.709
  163SAPE   H5R18305   1.275   3.818   6.641
  163SAPE   C2618306   1.341   3.856   6.838
  163SAPE   H6R18307   1.238   3.872   6.873
  163SAPE   C2718308   1.449   3.869   6.942
  163SAPE   H7R18309   1.512   3.779   6.935
  163SAPE   H7S18310   1.401   3.864   7.042
  163SAPE   C2818311   1.539   3.990   6.937
  163SAPE   H8R18312   1.515   4.068   6.862
  163SAPE   C2918313   1.648   4.003   7.014
  163SAPE   H9R18314   1.712   4.092   7.005
  163SAPE  C21018315   1.691   3.899   7.114
  163SAPE  H10R18316   1.757   3.831   7.056
  163SAPE  H10S18317   1.604   3.836   7.145
  163SAPE  C21118318   1.767   3.932   7.239
  163SAPE  H11R18319   1.837   3.853   7.270
  163SAPE  C21218320   1.751   4.036   7.322
  163SAPE  H12R18321   1.810   4.036   7.415
  163SAPE  C21318322   1.650   4.148   7.310
  163SAPE  H13R18323   1.566   4.119   7.243
  163SAPE  H13S18324   1.700   4.234   7.261
  163SAPE  C21418325   1.594   4.192   7.443
  163SAPE  H14R18326   1.606   4.299   7.463
  163SAPE  C21518327   1.533   4.115   7.536
  163SAPE  H15R18328   1.501   4.164   7.629
  163SAPE  C21618329   1.504   3.967   7.531
  163SAPE  H16R18330   1.557   3.917   7.448
  163SAPE  H16S18331   1.396   3.948   7.513
  163SAPE  C21718332   1.544   3.898   7.663
  163SAPE  H17R18333   1.642   3.936   7.698
  163SAPE  H17S18334   1.562   3.790   7.642
  163SAPE  C21818335   1.436   3.910   7.774
  163SAPE  H18R18336   1.335   3.904   7.728
  163SAPE  H18S18337   1.448   4.012   7.816
  163SAPE  C21918338   1.444   3.806   7.888
  163SAPE  H19R18339   1.545   3.759   7.885
  163SAPE  H19S18340   1.370   3.726   7.871
  163SAPE  C22018341   1.418   3.856   8.031
  163SAPE  H20R18342   1.449   3.778   8.104
  163SAPE  H20S18343   1.310   3.877   8.046
  163SAPE  H20T18344   1.476   3.949   8.051
  163SAPE   C3318345   1.341   4.311   6.623
  163SAPE   H3X18346   1.273   4.379   6.567
  163SAPE   H3Y18347   1.405   4.372   6.689
  163SAPE   C3418348   1.256   4.213   6.706
  163SAPE   H4X18349   1.323   4.150   6.768
  163SAPE   H4Y18350   1.202   4.144   6.637
  163SAPE   C3518351   1.153   4.285   6.793
  163SAPE   H5X18352   1.096   4.211   6.853
  163SAPE   H5Y18353   1.083   4.334   6.722
  163SAPE   C3618354   1.215   4.390   6.885
  163SAPE   H6X18355   1.134   4.450   6.931
  163SAPE   H6Y18356   1.278   4.462   6.828
  163SAPE   C3718357   1.296   4.325   6.998
  163SAPE   H7X18358   1.395   4.374   7.010
  163SAPE   H7Y18359   1.315   4.218   6.974
  163SAPE   C3818360   1.217   4.334   7.127
  163SAPE   H8X18361   1.112   4.302   7.105
  163SAPE   H8Y18362   1.212   4.440   7.161
  163SAPE   C3918363   1.269   4.246   7.240
  163SAPE   H9X18364   1.366   4.285   7.277
  163SAPE   H9Y18365   1.284   4.142   7.203
  163SAPE  C31018366   1.163   4.247   7.349
  163SAPE  H10X18367   1.066   4.210   7.308
  163SAPE  H10Y18368   1.149   4.353   7.379
  163SAPE  C31118369   1.198   4.170   7.475
  163SAPE  H11X18370   1.287   4.219   7.519
  163SAPE  H11Y18371   1.223   4.064   7.450
  163SAPE  C31218372   1.080   4.174   7.574
  163SAPE  H12X18373   0.995   4.118   7.530
  163SAPE  H12Y18374   1.049   4.280   7.586
  163SAPE  C31318375   1.113   4.117   7.712
  163SAPE  H13X18376   1.140   4.010   7.703
  163SAPE  H13Y18377   1.023   4.125   7.776
  163SAPE  C31418378   1.229   4.195   7.776
  163SAPE  H14X18379   1.212   4.303   7.760
  163SAPE  H14Y18380   1.322   4.168   7.723
  163SAPE  C31518381   1.249   4.169   7.925
  163SAPE  H15X18382   1.288   4.065   7.939
  163SAPE  H15Y18383   1.152   4.172   7.977
  163SAPE  C31618384   1.344   4.270   7.990
  163SAPE  H16X18385   1.352   4.241   8.097
  163SAPE  H16Y18386   1.299   4.372   7.985
  163SAPE  C31718387   1.488   4.277   7.934
  163SAPE  H17X18388   1.519   4.173   7.912
  163SAPE  H17Y18389   1.553   4.314   8.017
  163SAPE  C31818390   1.517   4.365   7.812
  163SAPE  H18X18391   1.447   4.344   7.729
  163SAPE  H18Y18392   1.621   4.346   7.777
  163SAPE  H18Z18393   1.509   4.473   7.838
  164SAPE     N18394   5.307   0.792   6.044
  164SAPE   HN118395   5.342   0.853   6.120
  164SAPE   HN218396   5.205   0.775   6.058
  164SAPE   HN318397   5.357   0.701   6.041
  164SAPE   C1218398   5.328   0.861   5.912
  164SAPE  H12A18399   5.328   0.784   5.832
  164SAPE  H12B18400   5.429   0.909   5.915
  164SAPE   C1118401   5.218   0.965   5.886
  164SAPE  H11A18402   5.121   0.912   5.873
  164SAPE  H11B18403   5.238   1.016   5.790
  164SAPE     P18404   5.293   1.189   5.994
  164SAPE   O1318405   5.433   1.149   5.967
  164SAPE   O1418406   5.231   1.285   5.899
  164SAPE   O1218407   5.206   1.056   5.996
  164SAPE   O1118408   5.280   1.240   6.142
  164SAPE    C118409   5.331   1.163   6.251
  164SAPE    HA18410   5.395   1.078   6.220
  164SAPE    HB18411   5.395   1.231   6.312
  164SAPE    C218412   5.218   1.112   6.343
  164SAPE    HS18413   5.148   1.051   6.281
  164SAPE   O2118414   5.157   1.226   6.400
  164SAPE   C2118415   5.047   1.270   6.345
  164SAPE   O2218416   4.984   1.221   6.253
  164SAPE   C2218417   5.006   1.393   6.425
  164SAPE   H2R18418   5.080   1.473   6.404
  164SAPE   H2S18419   4.906   1.426   6.390
  164SAPE    C318420   5.269   1.023   6.461
  164SAPE    HX18421   5.340   1.086   6.519
  164SAPE    HY18422   5.327   0.937   6.422
  164SAPE   O3118423   5.164   0.980   6.551
  164SAPE   C3118424   5.088   0.883   6.504
  164SAPE   O3218425   5.098   0.834   6.392
  164SAPE   C3218426   4.985   0.838   6.608
  164SAPE   H2X18427   4.942   0.743   6.568
  164SAPE   H2Y18428   4.904   0.914   6.610
  164SAPE   C2318429   5.002   1.360   6.576
  164SAPE   H3R18430   5.053   1.265   6.601
  164SAPE   H3S18431   4.895   1.346   6.601
  164SAPE   C2418432   5.069   1.467   6.664
  164SAPE   H4R18433   5.037   1.569   6.631
  164SAPE   H4S18434   5.179   1.461   6.658
  164SAPE   C2518435   5.014   1.437   6.800
  164SAPE   H5R18436   4.905   1.450   6.802
  164SAPE   C2618437   5.072   1.391   6.911
  164SAPE   H6R18438   5.009   1.381   7.001
  164SAPE   C2718439   5.216   1.359   6.932
  164SAPE   H7R18440   5.241   1.415   7.024
  164SAPE   H7S18441   5.279   1.401   6.851
  164SAPE   C2818442   5.253   1.215   6.953
  164SAPE   H8R18443   5.251   1.151   6.864
  164SAPE   C2918444   5.288   1.163   7.072
  164SAPE   H9R18445   5.318   1.057   7.078
  164SAPE  C21018446   5.295   1.236   7.204
  164SAPE  H10R18447   5.251   1.169   7.282
  164SAPE  H10S18448   5.232   1.327   7.207
  164SAPE  C21118449   5.438   1.270   7.234
  164SAPE  H11R18450   5.480   1.353   7.177
  164SAPE  C21218451   5.513   1.207   7.325
  164SAPE  H12R18452   5.617   1.240   7.342
  164SAPE  C21318453   5.469   1.093   7.413
  164SAPE  H13R18454   5.384   1.037   7.368
  164SAPE  H13S18455   5.432   1.137   7.508
  164SAPE  C21418456   5.579   0.996   7.444
  164SAPE  H14R18457   5.678   1.015   7.400
  164SAPE  C21518458   5.564   0.893   7.528
  164SAPE  H15R18459   5.648   0.825   7.548
  164SAPE  C21618460   5.436   0.860   7.600
  164SAPE  H16R18461   5.431   0.752   7.623
  164SAPE  H16S18462   5.348   0.880   7.535
  164SAPE  C21718463   5.426   0.932   7.735
  164SAPE  H17R18464   5.334   0.894   7.785
  164SAPE  H17S18465   5.415   1.042   7.721
  164SAPE  C21818466   5.546   0.904   7.824
  164SAPE  H18R18467   5.609   0.995   7.832
  164SAPE  H18S18468   5.610   0.826   7.777
  164SAPE  C21918469   5.509   0.853   7.962
  164SAPE  H19R18470   5.426   0.779   7.956
  164SAPE  H19S18471   5.471   0.938   8.023
  164SAPE  C22018472   5.630   0.789   8.027
  164SAPE  H20R18473   5.624   0.799   8.137
  164SAPE  H20S18474   5.723   0.842   7.997
  164SAPE  H20T18475   5.640   0.682   7.999
  164SAPE   C3318476   5.035   0.811   6.752
  164SAPE   H3X18477   5.135   0.762   6.753
  164SAPE   H3Y18478   4.964   0.740   6.800
  164SAPE   C3418479   5.041   0.934   6.842
  164SAPE   H4X18480   4.939   0.974   6.857
  164SAPE   H4Y18481   5.100   1.013   6.791
  164SAPE   C3518482   5.105   0.910   6.981
  164SAPE   H5X18483   5.077   0.994   7.048
  164SAPE   H5Y18484   5.216   0.914   6.968
  164SAPE   C3618485   5.074   0.777   7.051
  164SAPE   H6X18486   5.140   0.762   7.138
  164SAPE   H6Y18487   5.093   0.692   6.982
  164SAPE   C3718488   4.932   0.770   7.103
  164SAPE   H7X18489   4.909   0.664   7.129
  164SAPE   H7Y18490   4.866   0.800   7.019
  164SAPE   C3818491   4.899   0.857   7.226
  164SAPE   H8X18492   4.819   0.806   7.284
  164SAPE   H8Y18493   4.853   0.951   7.190
  164SAPE   C3918494   5.015   0.893   7.321
  164SAPE   H9X18495   5.090   0.954   7.266
  164SAPE   H9Y18496   5.065   0.802   7.359
  164SAPE  C31018497   4.962   0.975   7.440
  164SAPE  H10X18498   4.937   0.906   7.523
  164SAPE  H10Y18499   4.869   1.027   7.407
  164SAPE  C31118500   5.055   1.083   7.496
  164SAPE  H11X18501   4.995   1.163   7.543
  164SAPE  H11Y18502   5.112   1.130   7.414
  164SAPE  C31218503   5.147   1.027   7.603
  164SAPE  H12X18504   5.249   1.067   7.585
  164SAPE  H12Y18505   5.150   0.916   7.595
  164SAPE  C31318506   5.105   1.066   7.745
  164SAPE  H13X18507   5.148   0.995   7.818
  164SAPE  H13Y18508   4.994   1.057   7.752
  164SAPE  C31418509   5.147   1.208   7.783
  164SAPE  H14X18510   5.100   1.281   7.714
  164SAPE  H14Y18511   5.258   1.215   7.771
  164SAPE  C31518512   5.111   1.241   7.928
  164SAPE  H15X18513   5.168   1.329   7.964
  164SAPE  H15Y18514   5.142   1.153   7.987
  164SAPE  C31618515   4.961   1.263   7.950
  164SAPE  H16X18516   4.905   1.207   7.873
  164SAPE  H16Y18517   4.936   1.371   7.937
  164SAPE  C31718518   4.912   1.213   8.087
  164SAPE  H17X18519   4.952   1.111   8.103
  164SAPE  H17Y18520   4.801   1.205   8.085
  164SAPE  C31818521   4.953   1.304   8.202
  164SAPE  H18X18522   4.935   1.254   8.300
  164SAPE  H18Y18523   4.896   1.399   8.200
  164SAPE  H18Z18524   5.061   1.327   8.194
  165SAPE     N18525   6.825   2.554   6.150
  165SAPE   HN118526   6.915   2.502   6.162
  165SAPE   HN218527   6.751   2.521   6.215
  165SAPE   HN318528   6.793   2.544   6.052
  165SAPE   C1218529   6.848   2.701   6.169
  165SAPE  H12A18530   6.944   2.724   6.118
  165SAPE  H12B18531   6.859   2.721   6.278
  165SAPE   C1118532   6.732   2.782   6.109
  165SAPE  H11A18533   6.765   2.888   6.103
  165SAPE  H11B18534   6.645   2.779   6.179
  165SAPE     P18535   6.634   2.828   5.869
  165SAPE   O1318536   6.750   2.889   5.800
  165SAPE   O1418537   6.535   2.758   5.785
  165SAPE   O1218538   6.691   2.730   5.982
  165SAPE   O1118539   6.564   2.942   5.955
  165SAPE    C118540   6.439   2.915   6.020
  165SAPE    HA18541   6.355   2.931   5.949
  165SAPE    HB18542   6.432   2.810   6.057
  165SAPE    C218543   6.417   3.007   6.144
  165SAPE    HS18544   6.427   3.112   6.107
  165SAPE   O2118545   6.520   2.979   6.241
  165SAPE   C2118546   6.527   3.068   6.339
  165SAPE   O2218547   6.469   3.174   6.343
  165SAPE   C2218548   6.632   3.019   6.440
  165SAPE   H2R18549   6.657   2.914   6.415
  165SAPE   H2S18550   6.723   3.082   6.429
  165SAPE    C318551   6.274   2.991   6.204
  165SAPE    HX18552   6.203   3.026   6.126
  165SAPE    HY18553   6.259   3.060   6.290
  165SAPE   O3118554   6.243   2.854   6.236
  165SAPE   C3118555   6.263   2.817   6.362
  165SAPE   O3218556   6.307   2.887   6.451
  165SAPE   C3218557   6.222   2.671   6.379
  165SAPE   H2X18558   6.114   2.665   6.354
  165SAPE   H2Y18559   6.235   2.644   6.486
  165SAPE   C2318560   6.583   3.025   6.587
  165SAPE   H3R18561   6.473   3.017   6.591
  165SAPE   H3S18562   6.612   3.122   6.632
  165SAPE   C2418563   6.641   2.907   6.668
  165SAPE   H4R18564   6.748   2.894   6.643
  165SAPE   H4S18565   6.589   2.815   6.635
  165SAPE   C2518566   6.628   2.926   6.817
  165SAPE   H5R18567   6.714   2.973   6.866
  165SAPE   C2618568   6.521   2.893   6.892
  165SAPE   H6R18569   6.526   2.913   7.000
  165SAPE   C2718570   6.393   2.830   6.842
  165SAPE   H7R18571   6.395   2.720   6.859
  165SAPE   H7S18572   6.380   2.844   6.733
  165SAPE   C2818573   6.274   2.889   6.915
  165SAPE   H8R18574   6.230   2.826   6.993
  165SAPE   C2918575   6.223   3.011   6.894
  165SAPE   H9R18576   6.145   3.048   6.962
  165SAPE  C21018577   6.272   3.116   6.795
  165SAPE  H10R18578   6.215   3.104   6.701
  165SAPE  H10S18579   6.378   3.097   6.768
  165SAPE  C21118580   6.260   3.259   6.843
  165SAPE  H11R18581   6.206   3.327   6.776
  165SAPE  C21218582   6.308   3.306   6.960
  165SAPE  H12R18583   6.292   3.412   6.985
  165SAPE  C21318584   6.381   3.223   7.062
  165SAPE  H13R18585   6.406   3.123   7.022
  165SAPE  H13S18586   6.315   3.206   7.149
  165SAPE  C21418587   6.512   3.279   7.106
  165SAPE  H14R18588   6.539   3.377   7.064
  165SAPE  C21518589   6.589   3.226   7.201
  165SAPE  H15R18590   6.681   3.279   7.232
  165SAPE  C21618591   6.555   3.102   7.280
  165SAPE  H16R18592   6.646   3.045   7.309
  165SAPE  H16S18593   6.487   3.034   7.225
  165SAPE  C21718594   6.484   3.157   7.404
  165SAPE  H17R18595   6.395   3.216   7.373
  165SAPE  H17S18596   6.553   3.226   7.459
  165SAPE  C21818597   6.435   3.051   7.502
  165SAPE  H18R18598   6.521   2.998   7.547
  165SAPE  H18S18599   6.372   2.977   7.448
  165SAPE  C21918600   6.351   3.118   7.613
  165SAPE  H19R18601   6.302   3.040   7.674
  165SAPE  H19S18602   6.269   3.176   7.565
  165SAPE  C22018603   6.433   3.211   7.703
  165SAPE  H20R18604   6.460   3.305   7.649
  165SAPE  H20S18605   6.527   3.162   7.735
  165SAPE  H20T18606   6.375   3.239   7.794
  165SAPE   C3318607   6.302   2.577   6.287
  165SAPE   H3X18608   6.289   2.608   6.181
  165SAPE   H3Y18609   6.261   2.474   6.295
  165SAPE   C3418610   6.452   2.569   6.320
  165SAPE   H4X18611   6.496   2.671   6.321
  165SAPE   H4Y18612   6.501   2.512   6.238
  165SAPE   C3518613   6.482   2.498   6.453
  165SAPE   H5X18614   6.425   2.402   6.456
  165SAPE   H5Y18615   6.446   2.561   6.537
  165SAPE   C3618616   6.631   2.468   6.470
  165SAPE   H6X18617   6.687   2.564   6.475
  165SAPE   H6Y18618   6.666   2.411   6.380
  165SAPE   C3718619   6.665   2.384   6.594
  165SAPE   H7X18620   6.772   2.356   6.588
  165SAPE   H7Y18621   6.606   2.290   6.594
  165SAPE   C3818622   6.642   2.458   6.727
  165SAPE   H8X18623   6.535   2.455   6.753
  165SAPE   H8Y18624   6.671   2.564   6.715
  165SAPE   C3918625   6.726   2.397   6.841
  165SAPE   H9X18626   6.833   2.418   6.822
  165SAPE   H9Y18627   6.713   2.286   6.842
  165SAPE  C31018628   6.691   2.451   6.980
  165SAPE  H10X18629   6.758   2.405   7.055
  165SAPE  H10Y18630   6.587   2.420   7.005
  165SAPE  C31118631   6.703   2.604   6.991
  165SAPE  H11X18632   6.631   2.651   6.921
  165SAPE  H11Y18633   6.805   2.634   6.960
  165SAPE  C31218634   6.677   2.657   7.133
  165SAPE  H12X18635   6.701   2.765   7.137
  165SAPE  H12Y18636   6.746   2.605   7.202
  165SAPE  C31318637   6.531   2.638   7.179
  165SAPE  H13X18638   6.501   2.532   7.167
  165SAPE  H13Y18639   6.464   2.699   7.115
  165SAPE  C31418640   6.508   2.675   7.327
  165SAPE  H14X18641   6.400   2.663   7.348
  165SAPE  H14Y18642   6.533   2.782   7.343
  165SAPE  C31518643   6.590   2.588   7.423
  165SAPE  H15X18644   6.697   2.615   7.414
  165SAPE  H15Y18645   6.579   2.481   7.395
  165SAPE  C31618646   6.548   2.605   7.570
  165SAPE  H16X18647   6.540   2.713   7.594
  165SAPE  H16Y18648   6.627   2.562   7.635
  165SAPE  C31718649   6.416   2.534   7.603
  165SAPE  H17X18650   6.429   2.425   7.585
  165SAPE  H17Y18651   6.336   2.570   7.535
  165SAPE  C31818652   6.373   2.556   7.748
  165SAPE  H18X18653   6.278   2.504   7.770
  165SAPE  H18Y18654   6.357   2.665   7.766
  165SAPE  H18Z18655   6.451   2.519   7.817
  166SAPE     N18656   4.056   0.127   6.166
  166SAPE   HN118657   4.131   0.179   6.216
  166SAPE   HN218658   3.987   0.194   6.125
  166SAPE   HN318659   4.001   0.067   6.230
  166SAPE   C1218660   4.099   0.052   6.042
  166SAPE  H12A18661   4.041  -0.044   6.041
  166SAPE  H12B18662   4.207   0.030   6.047
  166SAPE   C1118663   4.058   0.137   5.922
  166SAPE  H11A18664   4.056   0.074   5.830
  166SAPE  H11B18665   4.131   0.219   5.907
  166SAPE     P18666   3.857   0.301   5.867
  166SAPE   O1318667   3.897   0.288   5.726
  166SAPE   O1418668   3.714   0.291   5.898
  166SAPE   O1218669   3.928   0.189   5.949
  166SAPE   O1118670   3.923   0.433   5.930
  166SAPE    C118671   3.955   0.433   6.071
  166SAPE    HA18672   3.905   0.350   6.126
  166SAPE    HB18673   4.064   0.426   6.086
  166SAPE    C218674   3.904   0.559   6.144
  166SAPE    HS18675   3.964   0.646   6.109
  166SAPE   O2118676   3.926   0.535   6.285
  166SAPE   C2118677   3.913   0.645   6.358
  166SAPE   O2218678   3.892   0.756   6.313
  166SAPE   C2218679   3.941   0.616   6.506
  166SAPE   H2R18680   4.046   0.579   6.513
  166SAPE   H2S18681   3.933   0.714   6.557
  166SAPE    C318682   3.754   0.587   6.110
  166SAPE    HX18683   3.751   0.613   6.002
  166SAPE    HY18684   3.716   0.676   6.164
  166SAPE   O3118685   3.671   0.470   6.128
  166SAPE   C3118686   3.622   0.455   6.250
  166SAPE   O3218687   3.648   0.525   6.346
  166SAPE   C3218688   3.527   0.336   6.254
  166SAPE   H2X18689   3.493   0.315   6.150
  166SAPE   H2Y18690   3.439   0.364   6.316
  166SAPE   C2318691   3.851   0.512   6.576
  166SAPE   H3R18692   3.849   0.419   6.516
  166SAPE   H3S18693   3.747   0.551   6.582
  166SAPE   C2418694   3.897   0.476   6.719
  166SAPE   H4R18695   3.987   0.410   6.710
  166SAPE   H4S18696   3.818   0.416   6.768
  166SAPE   C2518697   3.933   0.597   6.801
  166SAPE   H5R18698   4.000   0.668   6.750
  166SAPE   C2618699   3.892   0.634   6.923
  166SAPE   H6R18700   3.932   0.728   6.964
  166SAPE   C2718701   3.795   0.565   7.014
  166SAPE   H7R18702   3.842   0.546   7.113
  166SAPE   H7S18703   3.765   0.466   6.972
  166SAPE   C2818704   3.675   0.654   7.023
  166SAPE   H8R18705   3.647   0.704   6.929
  166SAPE   C2918706   3.606   0.688   7.133
  166SAPE   H9R18707   3.516   0.751   7.120
  166SAPE  C21018708   3.635   0.645   7.273
  166SAPE  H10R18709   3.594   0.722   7.343
  166SAPE  H10S18710   3.745   0.646   7.289
  166SAPE  C21118711   3.583   0.508   7.305
  166SAPE  H11R18712   3.584   0.437   7.222
  166SAPE  C21218713   3.547   0.467   7.428
  166SAPE  H12R18714   3.514   0.363   7.443
  166SAPE  C21318715   3.554   0.550   7.553
  166SAPE  H13R18716   3.499   0.499   7.635
  166SAPE  H13S18717   3.502   0.647   7.539
  166SAPE  C21418718   3.699   0.574   7.588
  166SAPE  H14R18719   3.746   0.658   7.535
  166SAPE  C21518720   3.772   0.500   7.672
  166SAPE  H15R18721   3.876   0.528   7.692
  166SAPE  C21618722   3.720   0.380   7.747
  166SAPE  H16R18723   3.790   0.294   7.738
  166SAPE  H16S18724   3.621   0.346   7.710
  166SAPE  C21718725   3.707   0.424   7.893
  166SAPE  H17R18726   3.648   0.518   7.900
  166SAPE  H17S18727   3.809   0.445   7.932
  166SAPE  C21818728   3.636   0.320   7.980
  166SAPE  H18R18729   3.683   0.221   7.965
  166SAPE  H18S18730   3.530   0.313   7.948
  166SAPE  C21918731   3.643   0.359   8.127
  166SAPE  H19R18732   3.577   0.290   8.184
  166SAPE  H19S18733   3.600   0.461   8.140
  166SAPE  C22018734   3.785   0.355   8.185
  166SAPE  H20R18735   3.784   0.370   8.295
  166SAPE  H20S18736   3.850   0.434   8.140
  166SAPE  H20T18737   3.832   0.257   8.163
  166SAPE   C3318738   3.596   0.210   6.311
  166SAPE   H3X18739   3.688   0.189   6.253
  166SAPE   H3Y18740   3.528   0.123   6.296
  166SAPE   C3418741   3.632   0.216   6.461
  166SAPE   H4X18742   3.680   0.313   6.486
  166SAPE   H4Y18743   3.704   0.135   6.482
  166SAPE   C3518744   3.513   0.197   6.556
  166SAPE   H5X18745   3.436   0.136   6.503
  166SAPE   H5Y18746   3.464   0.294   6.580
  166SAPE   C3618747   3.549   0.123   6.686
  166SAPE   H6X18748   3.586   0.021   6.660
  166SAPE   H6Y18749   3.454   0.112   6.743
  166SAPE   C3718750   3.655   0.183   6.779
  166SAPE   H7X18751   3.645   0.293   6.782
  166SAPE   H7Y18752   3.757   0.158   6.741
  166SAPE   C3818753   3.635   0.125   6.920
  166SAPE   H8X18754   3.630   0.014   6.915
  166SAPE   H8Y18755   3.533   0.153   6.955
  166SAPE   C3918756   3.739   0.166   7.025
  166SAPE   H9X18757   3.733   0.276   7.043
  166SAPE   H9Y18758   3.841   0.142   6.988
  166SAPE  C31018759   3.716   0.094   7.159
  166SAPE  H10X18760   3.702  -0.015   7.139
  166SAPE  H10Y18761   3.622   0.130   7.205
  166SAPE  C31118762   3.831   0.108   7.260
  166SAPE  H11X18763   3.923   0.065   7.216
  166SAPE  H11Y18764   3.806   0.048   7.350
  166SAPE  C31218765   3.860   0.252   7.305
  166SAPE  H12X18766   3.769   0.297   7.349
  166SAPE  H12Y18767   3.890   0.313   7.217
  166SAPE  C31318768   3.973   0.255   7.409
  166SAPE  H13X18769   4.055   0.190   7.373
  166SAPE  H13Y18770   3.935   0.212   7.504
  166SAPE  C31418771   4.029   0.395   7.434
  166SAPE  H14X18772   3.947   0.463   7.464
  166SAPE  H14Y18773   4.071   0.434   7.339
  166SAPE  C31518774   4.138   0.395   7.541
  166SAPE  H15X18775   4.220   0.325   7.512
  166SAPE  H15Y18776   4.095   0.358   7.637
  166SAPE  C31618777   4.196   0.534   7.561
  166SAPE  H16X18778   4.113   0.604   7.586
  166SAPE  H16Y18779   4.240   0.568   7.465
  166SAPE  C31718780   4.303   0.543   7.670
  166SAPE  H17X18781   4.384   0.471   7.647
  166SAPE  H17Y18782   4.259   0.516   7.769
  166SAPE  C31818783   4.361   0.684   7.676
  166SAPE  H18X18784   4.287   0.759   7.710
  166SAPE  H18Y18785   4.389   0.713   7.572
  166SAPE  H18Z18786   4.449   0.689   7.742
  167SAPE     N18787   5.916   6.207   5.777
  167SAPE   HN118788   5.962   6.121   5.738
  167SAPE   HN218789   5.828   6.227   5.725
  167SAPE   HN318790   5.982   6.286   5.764
  167SAPE   C1218791   5.898   6.197   5.925
  167SAPE  H12A18792   5.882   6.090   5.953
  167SAPE  H12B18793   5.809   6.258   5.953
  167SAPE   C1118794   6.023   6.256   5.992
  167SAPE  H11A18795   6.108   6.184   5.983
  167SAPE  H11B18796   6.001   6.267   6.101
  167SAPE     P18797   6.126   6.494   6.013
  167SAPE   O1318798   6.255   6.445   6.065
  167SAPE   O1418799   6.135   6.619   5.933
  167SAPE   O1218800   6.058   6.379   5.927
  167SAPE   O1118801   6.022   6.510   6.132
  167SAPE    C118802   6.061   6.596   6.240
  167SAPE    HA18803   6.161   6.569   6.279
  167SAPE    HB18804   6.066   6.701   6.205
  167SAPE    C218805   5.962   6.596   6.361
  167SAPE    HS18806   6.002   6.669   6.435
  167SAPE   O2118807   5.946   6.465   6.420
  167SAPE   C2118808   6.047   6.430   6.499
  167SAPE   O2218809   6.154   6.487   6.507
  167SAPE   C2218810   6.003   6.315   6.592
  167SAPE   H2R18811   5.928   6.358   6.662
  167SAPE   H2S18812   5.954   6.235   6.532
  167SAPE    C318813   5.821   6.647   6.321
  167SAPE    HX18814   5.761   6.560   6.285
  167SAPE    HY18815   5.830   6.717   6.235
  167SAPE   O3118816   5.759   6.704   6.438
  167SAPE   C3118817   5.772   6.836   6.448
  167SAPE   O3218818   5.798   6.913   6.357
  167SAPE   C3218819   5.747   6.880   6.592
  167SAPE   H2X18820   5.640   6.862   6.618
  167SAPE   H2Y18821   5.761   6.991   6.592
  167SAPE   C2318822   6.122   6.258   6.673
  167SAPE   H3R18823   6.196   6.339   6.689
  167SAPE   H3S18824   6.174   6.180   6.614
  167SAPE   C2418825   6.090   6.211   6.817
  167SAPE   H4R18826   6.019   6.285   6.860
  167SAPE   H4S18827   6.184   6.223   6.874
  167SAPE   C2518828   6.036   6.075   6.849
  167SAPE   H5R18829   6.115   5.999   6.856
  167SAPE   C2618830   5.911   6.039   6.885
  167SAPE   H6R18831   5.892   5.933   6.906
  167SAPE   C2718832   5.791   6.129   6.902
  167SAPE   H7R18833   5.709   6.091   6.836
  167SAPE   H7S18834   5.811   6.233   6.869
  167SAPE   C2818835   5.745   6.125   7.046
  167SAPE   H8R18836   5.760   6.028   7.097
  167SAPE   C2918837   5.690   6.224   7.118
  167SAPE   H9R18838   5.664   6.200   7.223
  167SAPE  C21018839   5.657   6.366   7.077
  167SAPE  H10R18840   5.626   6.370   6.971
  167SAPE  H10S18841   5.749   6.428   7.085
  167SAPE  C21118842   5.550   6.428   7.165
  167SAPE  H11R18843   5.454   6.447   7.116
  167SAPE  C21218844   5.563   6.459   7.296
  167SAPE  H12R18845   5.477   6.503   7.349
  167SAPE  C21318846   5.687   6.441   7.380
  167SAPE  H13R18847   5.691   6.529   7.447
  167SAPE  H13S18848   5.776   6.451   7.314
  167SAPE  C21418849   5.713   6.320   7.465
  167SAPE  H14R18850   5.779   6.245   7.421
  167SAPE  C21518851   5.666   6.302   7.589
  167SAPE  H15R18852   5.701   6.214   7.645
  167SAPE  C21618853   5.578   6.397   7.666
  167SAPE  H16R18854   5.538   6.343   7.754
  167SAPE  H16S18855   5.490   6.425   7.604
  167SAPE  C21718856   5.642   6.523   7.726
  167SAPE  H17R18857   5.570   6.571   7.796
  167SAPE  H17S18858   5.661   6.596   7.645
  167SAPE  C21818859   5.772   6.495   7.799
  167SAPE  H18R18860   5.826   6.592   7.810
  167SAPE  H18S18861   5.836   6.428   7.737
  167SAPE  C21918862   5.756   6.433   7.937
  167SAPE  H19R18863   5.852   6.385   7.968
  167SAPE  H19S18864   5.682   6.351   7.935
  167SAPE  C22018865   5.719   6.538   8.041
  167SAPE  H20R18866   5.608   6.541   8.056
  167SAPE  H20S18867   5.751   6.640   8.010
  167SAPE  H20T18868   5.768   6.515   8.138
  167SAPE   C3318869   5.842   6.820   6.698
  167SAPE   H3X18870   5.808   6.866   6.793
  167SAPE   H3Y18871   5.946   6.854   6.680
  167SAPE   C3418872   5.844   6.667   6.720
  167SAPE   H4X18873   5.921   6.622   6.653
  167SAPE   H4Y18874   5.746   6.621   6.696
  167SAPE   C3518875   5.879   6.637   6.867
  167SAPE   H5X18876   5.783   6.644   6.924
  167SAPE   H5Y18877   5.946   6.720   6.898
  167SAPE   C3618878   5.952   6.508   6.908
  167SAPE   H6X18879   6.033   6.490   6.833
  167SAPE   H6Y18880   5.878   6.425   6.905
  167SAPE   C3718881   6.020   6.516   7.048
  167SAPE   H7X18882   5.948   6.558   7.122
  167SAPE   H7Y18883   6.104   6.587   7.034
  167SAPE   C3818884   6.089   6.395   7.116
  167SAPE   H8X18885   6.189   6.428   7.150
  167SAPE   H8Y18886   6.105   6.311   7.045
  167SAPE   C3918887   6.016   6.343   7.240
  167SAPE   H9X18888   5.911   6.320   7.209
  167SAPE   H9Y18889   6.011   6.421   7.318
  167SAPE  C31018890   6.075   6.213   7.298
  167SAPE  H10X18891   6.092   6.141   7.215
  167SAPE  H10Y18892   5.999   6.167   7.366
  167SAPE  C31118893   6.206   6.230   7.377
  167SAPE  H11X18894   6.284   6.271   7.309
  167SAPE  H11Y18895   6.240   6.130   7.410
  167SAPE  C31218896   6.197   6.320   7.501
  167SAPE  H12X18897   6.186   6.426   7.470
  167SAPE  H12Y18898   6.294   6.310   7.555
  167SAPE  C31318899   6.084   6.287   7.600
  167SAPE  H13X18900   6.080   6.177   7.612
  167SAPE  H13Y18901   5.987   6.320   7.557
  167SAPE  C31418902   6.103   6.350   7.739
  167SAPE  H14X18903   6.201   6.317   7.780
  167SAPE  H14Y18904   6.024   6.310   7.806
  167SAPE  C31518905   6.094   6.504   7.742
  167SAPE  H15X18906   6.006   6.536   7.682
  167SAPE  H15Y18907   6.181   6.551   7.691
  167SAPE  C31618908   6.082   6.561   7.884
  167SAPE  H16X18909   5.993   6.520   7.936
  167SAPE  H16Y18910   6.066   6.671   7.880
  167SAPE  C31718911   6.200   6.531   7.976
  167SAPE  H17X18912   6.269   6.460   7.925
  167SAPE  H17Y18913   6.164   6.481   8.068
  167SAPE  C31818914   6.275   6.658   8.014
  167SAPE  H18X18915   6.372   6.638   8.064
  167SAPE  H18Y18916   6.212   6.718   8.083
  167SAPE  H18Z18917   6.298   6.715   7.922
  168SAPE     N18918   5.875   0.940   5.837
  168SAPE   HN118919   5.849   0.900   5.930
  168SAPE   HN218920   5.898   1.041   5.845
  168SAPE   HN318921   5.797   0.927   5.770
  168SAPE   C1218922   5.997   0.864   5.795
  168SAPE  H12A18923   6.080   0.901   5.858
  168SAPE  H12B18924   6.019   0.887   5.688
  168SAPE   C1118925   5.977   0.713   5.819
  168SAPE  H11A18926   6.070   0.659   5.791
  168SAPE  H11B18927   5.897   0.675   5.752
  168SAPE     P18928   6.048   0.664   6.067
  168SAPE   O1318929   6.176   0.722   6.018
  168SAPE   O1418930   5.991   0.717   6.192
  168SAPE   O1218931   5.938   0.690   5.955
  168SAPE   O1118932   6.057   0.505   6.069
  168SAPE    C118933   5.937   0.425   6.077
  168SAPE    HA18934   5.846   0.487   6.091
  168SAPE    HB18935   5.925   0.369   5.982
  168SAPE    C218936   5.934   0.319   6.192
  168SAPE    HS18937   5.837   0.267   6.181
  168SAPE   O2118938   5.940   0.388   6.318
  168SAPE   C2118939   5.890   0.319   6.419
  168SAPE   O2218940   5.829   0.214   6.410
  168SAPE   C2218941   5.911   0.400   6.547
  168SAPE   H2R18942   6.019   0.428   6.549
  168SAPE   H2S18943   5.852   0.493   6.536
  168SAPE    C318944   6.044   0.207   6.182
  168SAPE    HX18945   6.048   0.174   6.076
  168SAPE    HY18946   6.011   0.120   6.241
  168SAPE   O3118947   6.176   0.253   6.219
  168SAPE   C3118948   6.205   0.242   6.348
  168SAPE   O3218949   6.142   0.180   6.431
  168SAPE   C3218950   6.323   0.330   6.379
  168SAPE   H2X18951   6.408   0.303   6.313
  168SAPE   H2Y18952   6.353   0.312   6.485
  168SAPE   C2318953   5.872   0.329   6.678
  168SAPE   H3R18954   5.802   0.244   6.659
  168SAPE   H3S18955   5.818   0.401   6.743
  168SAPE   C2418956   5.993   0.276   6.756
  168SAPE   H4R18957   6.050   0.209   6.689
  168SAPE   H4S18958   5.958   0.218   6.844
  168SAPE   C2518959   6.079   0.390   6.802
  168SAPE   H5R18960   6.027   0.486   6.812
  168SAPE   C2618961   6.211   0.383   6.825
  168SAPE   H6R18962   6.264   0.475   6.854
  168SAPE   C2718963   6.294   0.259   6.813
  168SAPE   H7R18964   6.346   0.255   6.714
  168SAPE   H7S18965   6.232   0.167   6.818
  168SAPE   C2818966   6.395   0.260   6.924
  168SAPE   H8R18967   6.489   0.312   6.901
  168SAPE   C2918968   6.376   0.212   7.048
  168SAPE   H9R18969   6.459   0.225   7.119
  168SAPE  C21018970   6.251   0.145   7.101
  168SAPE  H10R18971   6.272   0.036   7.114
  168SAPE  H10S18972   6.166   0.152   7.030
  168SAPE  C21118973   6.214   0.202   7.235
  168SAPE  H11R18974   6.288   0.182   7.314
  168SAPE  C21218975   6.103   0.271   7.270
  168SAPE  H12R18976   6.096   0.302   7.375
  168SAPE  C21318977   5.984   0.312   7.185
  168SAPE  H13R18978   5.929   0.222   7.152
  168SAPE  H13S18979   6.021   0.359   7.091
  168SAPE  C21418980   5.893   0.408   7.260
  168SAPE  H14R18981   5.916   0.514   7.240
  168SAPE  C21518982   5.785   0.381   7.337
  168SAPE  H15R18983   5.733   0.464   7.387
  168SAPE  C21618984   5.733   0.243   7.363
  168SAPE  H16R18985   5.816   0.179   7.400
  168SAPE  H16S18986   5.707   0.210   7.260
  168SAPE  C21718987   5.607   0.200   7.443
  168SAPE  H17R18988   5.544   0.137   7.378
  168SAPE  H17S18989   5.544   0.288   7.469
  168SAPE  C21818990   5.630   0.120   7.572
  168SAPE  H18R18991   5.666   0.018   7.549
  168SAPE  H18S18992   5.531   0.109   7.622
  168SAPE  C21918993   5.726   0.187   7.669
  168SAPE  H19R18994   5.717   0.297   7.664
  168SAPE  H19S18995   5.830   0.165   7.636
  168SAPE  C22018996   5.703   0.140   7.812
  168SAPE  H20R18997   5.765   0.199   7.883
  168SAPE  H20S18998   5.729   0.033   7.823
  168SAPE  H20T18999   5.596   0.152   7.840
  168SAPE   C3319000   6.281   0.476   6.358
  168SAPE   H3X19001   6.180   0.486   6.312
  168SAPE   H3Y19002   6.351   0.523   6.285
  168SAPE   C3419003   6.279   0.554   6.489
  168SAPE   H4X19004   6.382   0.555   6.531
  168SAPE   H4Y19005   6.216   0.501   6.563
  168SAPE   C3519006   6.227   0.697   6.469
  168SAPE   H5X19007   6.222   0.719   6.360
  168SAPE   H5Y19008   6.299   0.769   6.514
  168SAPE   C3619009   6.089   0.720   6.531
  168SAPE   H6X19010   6.021   0.638   6.500
  168SAPE   H6Y19011   6.046   0.813   6.489
  168SAPE   C3719012   6.100   0.731   6.683
  168SAPE   H7X19013   6.173   0.811   6.707
  168SAPE   H7Y19014   6.145   0.637   6.723
  168SAPE   C3819015   5.968   0.759   6.755
  168SAPE   H8X19016   5.892   0.685   6.721
  168SAPE   H8Y19017   5.930   0.859   6.726
  168SAPE   C3919018   5.979   0.751   6.909
  168SAPE   H9X19019   5.984   0.643   6.935
  168SAPE   H9Y19020   5.886   0.790   6.955
  168SAPE  C31019021   6.101   0.823   6.969
  168SAPE  H10X19022   6.086   0.932   6.963
  168SAPE  H10Y19023   6.193   0.798   6.913
  168SAPE  C31119024   6.130   0.780   7.114
  168SAPE  H11X19025   6.043   0.801   7.179
  168SAPE  H11Y19026   6.216   0.840   7.152
  168SAPE  C31219027   6.168   0.632   7.123
  168SAPE  H12X19028   6.239   0.608   7.041
  168SAPE  H12Y19029   6.078   0.568   7.108
  168SAPE  C31319030   6.236   0.593   7.255
  168SAPE  H13X19031   6.330   0.652   7.257
  168SAPE  H13Y19032   6.264   0.485   7.250
  168SAPE  C31419033   6.155   0.622   7.381
  168SAPE  H14X19034   6.048   0.602   7.358
  168SAPE  H14Y19035   6.162   0.730   7.406
  168SAPE  C31519036   6.192   0.537   7.505
  168SAPE  H15X19037   6.256   0.599   7.572
  168SAPE  H15Y19038   6.252   0.449   7.475
  168SAPE  C31619039   6.068   0.489   7.582
  168SAPE  H16X19040   6.024   0.399   7.534
  168SAPE  H16Y19041   5.989   0.567   7.573
  168SAPE  C31719042   6.090   0.462   7.731
  168SAPE  H17X19043   6.156   0.540   7.775
  168SAPE  H17Y19044   6.143   0.365   7.742
  168SAPE  C31819045   5.957   0.461   7.809
  168SAPE  H18X19046   5.968   0.407   7.905
  168SAPE  H18Y19047   5.878   0.410   7.749
  168SAPE  H18Z19048   5.923   0.564   7.831
  169SAPE     N19049   0.050   2.480   5.757
  169SAPE   HN119050   0.108   2.426   5.824
  169SAPE   HN219051   0.067   2.441   5.662
  169SAPE   HN319052   0.085   2.578   5.760
  169SAPE   C1219053  -0.095   2.473   5.794
  169SAPE  H12A19054  -0.116   2.369   5.829
  169SAPE  H12B19055  -0.154   2.493   5.702
  169SAPE   C1119056  -0.129   2.577   5.902
  169SAPE  H11A19057  -0.236   2.572   5.931
  169SAPE  H11B19058  -0.114   2.678   5.859
  169SAPE     P19059  -0.064   2.450   6.121
  169SAPE   O1319060  -0.210   2.449   6.156
  169SAPE   O1419061  -0.011   2.328   6.055
  169SAPE   O1219062  -0.044   2.566   6.015
  169SAPE   O1119063   0.030   2.493   6.241
  169SAPE    C119064   0.151   2.571   6.223
  169SAPE    HA19065   0.240   2.507   6.241
  169SAPE    HB19066   0.163   2.610   6.119
  169SAPE    C219067   0.166   2.697   6.317
  169SAPE    HS19068   0.246   2.760   6.274
  169SAPE   O2119069   0.202   2.654   6.449
  169SAPE   C2119070   0.303   2.718   6.513
  169SAPE   O2219071   0.365   2.814   6.473
  169SAPE   C2219072   0.310   2.650   6.651
  169SAPE   H2R19073   0.216   2.689   6.696
  169SAPE   H2S19074   0.297   2.542   6.629
  169SAPE    C319075   0.035   2.783   6.323
  169SAPE    HX19076   0.031   2.837   6.225
  169SAPE    HY19077   0.048   2.860   6.402
  169SAPE   O3119078  -0.086   2.706   6.338
  169SAPE   C3119079  -0.133   2.685   6.460
  169SAPE   O3219080  -0.112   2.755   6.557
  169SAPE   C3219081  -0.239   2.573   6.457
  169SAPE   H2X19082  -0.277   2.566   6.353
  169SAPE   H2Y19083  -0.322   2.604   6.524
  169SAPE   C2319084   0.427   2.649   6.755
  169SAPE   H3R19085   0.427   2.740   6.818
  169SAPE   H3S19086   0.521   2.646   6.695
  169SAPE   C2419087   0.424   2.516   6.839
  169SAPE   H4R19088   0.470   2.438   6.773
  169SAPE   H4S19089   0.315   2.496   6.842
  169SAPE   C2519090   0.469   2.489   6.981
  169SAPE   H5R19091   0.555   2.549   7.014
  169SAPE   C2619092   0.418   2.407   7.075
  169SAPE   H6R19093   0.475   2.403   7.169
  169SAPE   C2719094   0.299   2.313   7.076
  169SAPE   H7R19095   0.254   2.302   6.975
  169SAPE   H7S19096   0.219   2.358   7.138
  169SAPE   C2819097   0.335   2.177   7.130
  169SAPE   H8R19098   0.424   2.132   7.083
  169SAPE   C2919099   0.271   2.105   7.225
  169SAPE   H9R19100   0.317   2.010   7.254
  169SAPE  C21019101   0.147   2.142   7.301
  169SAPE  H10R19102   0.077   2.199   7.235
  169SAPE  H10S19103   0.175   2.210   7.384
  169SAPE  C21119104   0.076   2.018   7.352
  169SAPE  H11R19105   0.081   1.930   7.287
  169SAPE  C21219106   0.009   2.007   7.468
  169SAPE  H12R19107  -0.036   1.910   7.495
  169SAPE  C21319108  -0.012   2.116   7.569
  169SAPE  H13R19109  -0.121   2.124   7.587
  169SAPE  H13S19110   0.018   2.214   7.526
  169SAPE  C21419111   0.065   2.100   7.698
  169SAPE  H14R19112   0.167   2.060   7.689
  169SAPE  C21519113   0.019   2.134   7.820
  169SAPE  H15R19114   0.085   2.121   7.907
  169SAPE  C21619115  -0.117   2.194   7.850
  169SAPE  H16R19116  -0.193   2.161   7.777
  169SAPE  H16S19117  -0.112   2.304   7.845
  169SAPE  C21719118  -0.169   2.154   7.989
  169SAPE  H17R19119  -0.181   2.044   7.994
  169SAPE  H17S19120  -0.271   2.196   8.002
  169SAPE  C21819121  -0.082   2.200   8.107
  169SAPE  H18R19122   0.009   2.136   8.109
  169SAPE  H18S19123  -0.138   2.182   8.201
  169SAPE  C21919124  -0.029   2.343   8.106
  169SAPE  H19R19125  -0.110   2.415   8.085
  169SAPE  H19S19126   0.045   2.353   8.024
  169SAPE  C22019127   0.038   2.375   8.240
  169SAPE  H20R19128   0.083   2.477   8.240
  169SAPE  H20S19129   0.121   2.304   8.260
  169SAPE  H20T19130  -0.035   2.370   8.323
  169SAPE   C3319131  -0.187   2.433   6.500
  169SAPE   H3X19132  -0.078   2.425   6.480
  169SAPE   H3Y19133  -0.234   2.356   6.436
  169SAPE   C3419134  -0.223   2.400   6.646
  169SAPE   H4X19135  -0.333   2.414   6.660
  169SAPE   H4Y19136  -0.175   2.474   6.714
  169SAPE   C3519137  -0.188   2.257   6.690
  169SAPE   H5X19138  -0.111   2.213   6.622
  169SAPE   H5Y19139  -0.282   2.200   6.679
  169SAPE   C3619140  -0.141   2.234   6.835
  169SAPE   H6X19141  -0.034   2.259   6.850
  169SAPE   H6Y19142  -0.145   2.126   6.858
  169SAPE   C3719143  -0.219   2.309   6.943
  169SAPE   H7X19144  -0.324   2.272   6.945
  169SAPE   H7Y19145  -0.221   2.418   6.922
  169SAPE   C3819146  -0.154   2.288   7.081
  169SAPE   H8X19147  -0.061   2.349   7.085
  169SAPE   H8Y19148  -0.124   2.182   7.094
  169SAPE   C3919149  -0.248   2.328   7.194
  169SAPE   H9X19150  -0.327   2.250   7.204
  169SAPE   H9Y19151  -0.298   2.424   7.167
  169SAPE  C31019152  -0.176   2.346   7.327
  169SAPE  H10X19153  -0.099   2.425   7.315
  169SAPE  H10Y19154  -0.123   2.252   7.354
  169SAPE  C31119155  -0.274   2.384   7.439
  169SAPE  H11X19156  -0.342   2.298   7.457
  169SAPE  H11Y19157  -0.336   2.470   7.406
  169SAPE  C31219158  -0.205   2.422   7.571
  169SAPE  H12X19159  -0.139   2.339   7.604
  169SAPE  H12Y19160  -0.281   2.434   7.651
  169SAPE  C31319161  -0.122   2.550   7.560
  169SAPE  H13X19162  -0.169   2.629   7.623
  169SAPE  H13Y19163  -0.124   2.587   7.455
  169SAPE  C31419164   0.024   2.530   7.602
  169SAPE  H14X19165   0.086   2.604   7.547
  169SAPE  H14Y19166   0.062   2.430   7.571
  169SAPE  C31519167   0.048   2.555   7.751
  169SAPE  H15X19168  -0.000   2.477   7.813
  169SAPE  H15Y19169   0.003   2.653   7.777
  169SAPE  C31619170   0.198   2.562   7.783
  169SAPE  H16X19171   0.252   2.603   7.695
  169SAPE  H16Y19172   0.236   2.460   7.803
  169SAPE  C31719173   0.229   2.654   7.901
  169SAPE  H17X19174   0.196   2.757   7.877
  169SAPE  H17Y19175   0.339   2.656   7.917
  169SAPE  C31819176   0.166   2.610   8.032
  169SAPE  H18X19177   0.056   2.599   8.021
  169SAPE  H18Y19178   0.186   2.686   8.111
  169SAPE  H18Z19179   0.209   2.513   8.064
  170SAPE     N19180   6.340   6.797   6.035
  170SAPE   HN119181   6.370   6.816   5.938
  170SAPE   HN219182   6.270   6.720   6.036
  170SAPE   HN319183   6.297   6.885   6.070
  170SAPE   C1219184   6.467   6.770   6.110
  170SAPE  H12A19185   6.497   6.665   6.088
  170SAPE  H12B19186   6.449   6.783   6.219
  170SAPE   C1119187   6.576   6.866   6.059
  170SAPE  H11A19188   6.672   6.838   6.106
  170SAPE  H11B19189   6.552   6.970   6.091
  170SAPE     P19190   6.713   6.907   5.840
  170SAPE   O1319191   6.690   6.899   5.694
  170SAPE   O1419192   6.752   7.039   5.893
  170SAPE   O1219193   6.581   6.859   5.915
  170SAPE   O1119194   6.819   6.796   5.880
  170SAPE    C119195   6.789   6.657   5.866
  170SAPE    HA19196   6.680   6.636   5.858
  170SAPE    HB19197   6.836   6.620   5.773
  170SAPE    C219198   6.842   6.572   5.984
  170SAPE    HS19199   6.841   6.467   5.948
  170SAPE   O2119200   6.750   6.587   6.094
  170SAPE   C2119201   6.739   6.484   6.175
  170SAPE   O2219202   6.784   6.372   6.155
  170SAPE   C2219203   6.657   6.528   6.297
  170SAPE   H2R19204   6.704   6.622   6.334
  170SAPE   H2S19205   6.554   6.551   6.264
  170SAPE    C319206   6.990   6.604   6.025
  170SAPE    HX19207   7.052   6.584   5.935
  170SAPE    HY19208   7.023   6.530   6.101
  170SAPE   O3119209   7.017   6.740   6.067
  170SAPE   C3119210   6.990   6.765   6.196
  170SAPE   O3219211   6.942   6.684   6.273
  170SAPE   C3219212   7.037   6.906   6.234
  170SAPE   H2X19213   7.089   6.951   6.147
  170SAPE   H2Y19214   7.111   6.895   6.316
  170SAPE   C2319215   6.650   6.428   6.414
  170SAPE   H3R19216   6.748   6.382   6.435
  170SAPE   H3S19217   6.578   6.347   6.386
  170SAPE   C2419218   6.600   6.502   6.539
  170SAPE   H4R19219   6.522   6.574   6.506
  170SAPE   H4S19220   6.685   6.562   6.579
  170SAPE   C2519221   6.541   6.411   6.644
  170SAPE   H5R19222   6.472   6.335   6.606
  170SAPE   C2619223   6.566   6.417   6.776
  170SAPE   H6R19224   6.517   6.344   6.842
  170SAPE   C2719225   6.658   6.516   6.843
  170SAPE   H7R19226   6.651   6.615   6.793
  170SAPE   H7S19227   6.763   6.483   6.830
  170SAPE   C2819228   6.623   6.534   6.988
  170SAPE   H8R19229   6.518   6.560   7.008
  170SAPE   C2919230   6.705   6.516   7.093
  170SAPE   H9R19231   6.660   6.525   7.194
  170SAPE  C21019232   6.849   6.473   7.094
  170SAPE  H10R19233   6.862   6.392   7.020
  170SAPE  H10S19234   6.859   6.422   7.192
  170SAPE  C21119235   6.965   6.570   7.076
  170SAPE  H11R19236   6.965   6.611   6.974
  170SAPE  C21219237   7.063   6.614   7.161
  170SAPE  H12R19238   7.130   6.691   7.119
  170SAPE  C21319239   7.093   6.585   7.307
  170SAPE  H13R19240   7.021   6.510   7.347
  170SAPE  H13S19241   7.052   6.679   7.351
  170SAPE  C21419242   7.224   6.565   7.383
  170SAPE  H14R19243   7.310   6.605   7.328
  170SAPE  C21519244   7.250   6.506   7.505
  170SAPE  H15R19245   7.355   6.503   7.538
  170SAPE  C21619246   7.160   6.437   7.608
  170SAPE  H16R19247   7.205   6.339   7.632
  170SAPE  H16S19248   7.068   6.410   7.552
  170SAPE  C21719249   7.101   6.489   7.746
  170SAPE  H17R19250   7.025   6.415   7.779
  170SAPE  H17S19251   7.045   6.584   7.737
  170SAPE  C21819252   7.197   6.509   7.863
  170SAPE  H18R19253   7.286   6.568   7.833
  170SAPE  H18S19254   7.236   6.408   7.889
  170SAPE  C21919255   7.133   6.571   7.989
  170SAPE  H19R19256   7.199   6.554   8.076
  170SAPE  H19S19257   7.037   6.519   8.012
  170SAPE  C22019258   7.107   6.721   7.980
  170SAPE  H20R19259   7.029   6.742   7.904
  170SAPE  H20S19260   7.200   6.777   7.955
  170SAPE  H20T19261   7.069   6.761   8.076
  170SAPE   C3319262   6.921   6.999   6.279
  170SAPE   H3X19263   6.850   7.012   6.195
  170SAPE   H3Y19264   6.964   7.098   6.302
  170SAPE   C3419265   6.844   6.951   6.403
  170SAPE   H4X19266   6.795   6.854   6.383
  170SAPE   H4Y19267   6.762   7.024   6.423
  170SAPE   C3519268   6.928   6.939   6.531
  170SAPE   H5X19269   6.980   7.035   6.549
  170SAPE   H5Y19270   7.006   6.860   6.519
  170SAPE   C3619271   6.842   6.905   6.655
  170SAPE   H6X19272   6.803   6.802   6.648
  170SAPE   H6Y19273   6.755   6.974   6.655
  170SAPE   C3719274   6.918   6.924   6.788
  170SAPE   H7X19275   7.002   6.994   6.769
  170SAPE   H7Y19276   6.963   6.827   6.820
  170SAPE   C3819277   6.832   6.985   6.900
  170SAPE   H8X19278   6.770   7.068   6.859
  170SAPE   H8Y19279   6.901   7.030   6.975
  170SAPE   C3919280   6.743   6.886   6.974
  170SAPE   H9X19281   6.807   6.806   7.017
  170SAPE   H9Y19282   6.673   6.837   6.903
  170SAPE  C31019283   6.664   6.952   7.088
  170SAPE  H10X19284   6.575   7.004   7.045
  170SAPE  H10Y19285   6.728   7.029   7.137
  170SAPE  C31119286   6.620   6.852   7.196
  170SAPE  H11X19287   6.710   6.804   7.239
  170SAPE  H11Y19288   6.562   6.772   7.145
  170SAPE  C31219289   6.535   6.913   7.309
  170SAPE  H12X19290   6.469   6.993   7.267
  170SAPE  H12Y19291   6.603   6.961   7.382
  170SAPE  C31319292   6.445   6.810   7.381
  170SAPE  H13X19293   6.361   6.779   7.315
  170SAPE  H13Y19294   6.400   6.856   7.471
  170SAPE  C31419295   6.523   6.685   7.419
  170SAPE  H14X19296   6.601   6.714   7.492
  170SAPE  H14Y19297   6.575   6.646   7.329
  170SAPE  C31519298   6.438   6.568   7.470
  170SAPE  H15X19299   6.484   6.472   7.437
  170SAPE  H15Y19300   6.337   6.574   7.425
  170SAPE  C31619301   6.429   6.563   7.623
  170SAPE  H16X19302   6.361   6.480   7.652
  170SAPE  H16Y19303   6.386   6.658   7.661
  170SAPE  C31719304   6.560   6.534   7.693
  170SAPE  H17X19305   6.634   6.615   7.673
  170SAPE  H17Y19306   6.603   6.438   7.656
  170SAPE  C31819307   6.539   6.524   7.842
  170SAPE  H18X19308   6.634   6.498   7.894
  170SAPE  H18Y19309   6.463   6.446   7.867
  170SAPE  H18Z19310   6.502   6.622   7.880
  171SAPE     N19311   0.128   0.971   5.861
  171SAPE   HN119312   0.069   0.886   5.857
  171SAPE   HN219313   0.091   1.029   5.939
  171SAPE   HN319314   0.126   1.019   5.769
  171SAPE   C1219315   0.262   0.914   5.899
  171SAPE  H12A19316   0.342   0.989   5.884
  171SAPE  H12B19317   0.279   0.828   5.831
  171SAPE   C1119318   0.257   0.862   6.045
  171SAPE  H11A19319   0.294   0.943   6.111
  171SAPE  H11B19320   0.328   0.777   6.057
  171SAPE     P19321   0.056   0.695   6.032
  171SAPE   O1319322  -0.074   0.680   6.100
  171SAPE   O1419323   0.053   0.711   5.884
  171SAPE   O1219324   0.125   0.827   6.087
  171SAPE   O1119325   0.160   0.584   6.074
  171SAPE    C119326   0.142   0.498   6.188
  171SAPE    HA19327   0.064   0.422   6.166
  171SAPE    HB19328   0.237   0.444   6.205
  171SAPE    C219329   0.106   0.568   6.322
  171SAPE    HS19330   0.002   0.606   6.311
  171SAPE   O2119331   0.198   0.676   6.349
  171SAPE   C2119332   0.153   0.761   6.439
  171SAPE   O2219333   0.039   0.769   6.480
  171SAPE   C2219334   0.270   0.844   6.490
  171SAPE   H2R19335   0.352   0.773   6.516
  171SAPE   H2S19336   0.306   0.909   6.407
  171SAPE    C319337   0.106   0.468   6.442
  171SAPE    HX19338   0.048   0.379   6.410
  171SAPE    HY19339   0.049   0.514   6.525
  171SAPE   O3119340   0.241   0.429   6.476
  171SAPE   C3119341   0.285   0.468   6.596
  171SAPE   O3219342   0.217   0.522   6.681
  171SAPE   C3219343   0.436   0.442   6.605
  171SAPE   H2X19344   0.486   0.535   6.570
  171SAPE   H2Y19345   0.462   0.360   6.534
  171SAPE   C2319346   0.231   0.927   6.613
  171SAPE   H3R19347   0.182   0.863   6.691
  171SAPE   H3S19348   0.157   1.004   6.582
  171SAPE   C2419349   0.353   0.997   6.673
  171SAPE   H4R19350   0.319   1.082   6.736
  171SAPE   H4S19351   0.408   1.039   6.586
  171SAPE   C2519352   0.445   0.903   6.748
  171SAPE   H5R19353   0.479   0.817   6.689
  171SAPE   C2619354   0.491   0.916   6.874
  171SAPE   H6R19355   0.556   0.837   6.913
  171SAPE   C2719356   0.462   1.028   6.971
  171SAPE   H7R19357   0.379   1.093   6.937
  171SAPE   H7S19358   0.552   1.093   6.974
  171SAPE   C2819359   0.436   0.983   7.112
  171SAPE   H8R19360   0.512   1.012   7.186
  171SAPE   C2919361   0.329   0.913   7.155
  171SAPE   H9R19362   0.321   0.891   7.263
  171SAPE  C21019363   0.213   0.866   7.072
  171SAPE  H10R19364   0.149   0.797   7.132
  171SAPE  H10S19365   0.249   0.804   6.986
  171SAPE  C21119366   0.131   0.981   7.020
  171SAPE  H11R19367   0.158   1.013   6.918
  171SAPE  C21219368   0.033   1.046   7.085
  171SAPE  H12R19369  -0.018   1.128   7.034
  171SAPE  C21319370  -0.018   1.015   7.224
  171SAPE  H13R19371  -0.045   0.907   7.227
  171SAPE  H13S19372  -0.115   1.069   7.232
  171SAPE  C21419373   0.059   1.050   7.349
  171SAPE  H14R19374   0.066   1.159   7.368
  171SAPE  C21519375   0.117   0.966   7.438
  171SAPE  H15R19376   0.168   1.011   7.524
  171SAPE  C21619377   0.123   0.815   7.435
  171SAPE  H16R19378   0.231   0.791   7.424
  171SAPE  H16S19379   0.073   0.773   7.345
  171SAPE  C21719380   0.079   0.731   7.558
  171SAPE  H17R19381   0.127   0.631   7.550
  171SAPE  H17S19382  -0.031   0.714   7.556
  171SAPE  C21819383   0.119   0.795   7.691
  171SAPE  H18R19384   0.066   0.892   7.704
  171SAPE  H18S19385   0.227   0.817   7.682
  171SAPE  C21919386   0.098   0.711   7.819
  171SAPE  H19R19387   0.135   0.772   7.904
  171SAPE  H19S19388   0.162   0.620   7.812
  171SAPE  C22019389  -0.045   0.670   7.855
  171SAPE  H20R19390  -0.044   0.594   7.935
  171SAPE  H20S19391  -0.098   0.629   7.767
  171SAPE  H20T19392  -0.101   0.757   7.896
  171SAPE   C3319393   0.493   0.405   6.745
  171SAPE   H3X19394   0.602   0.386   6.735
  171SAPE   H3Y19395   0.448   0.309   6.780
  171SAPE   C3419396   0.473   0.514   6.850
  171SAPE   H4X19397   0.365   0.537   6.859
  171SAPE   H4Y19398   0.523   0.608   6.819
  171SAPE   C3519399   0.519   0.475   6.991
  171SAPE   H5X19400   0.629   0.482   7.000
  171SAPE   H5Y19401   0.490   0.370   7.013
  171SAPE   C3619402   0.451   0.567   7.093
  171SAPE   H6X19403   0.341   0.560   7.081
  171SAPE   H6Y19404   0.481   0.672   7.073
  171SAPE   C3719405   0.485   0.532   7.238
  171SAPE   H7X19406   0.595   0.534   7.252
  171SAPE   H7Y19407   0.449   0.429   7.261
  171SAPE   C3819408   0.417   0.632   7.331
  171SAPE   H8X19409   0.311   0.640   7.300
  171SAPE   H8Y19410   0.465   0.732   7.320
  171SAPE   C3919411   0.422   0.590   7.478
  171SAPE   H9X19412   0.380   0.488   7.486
  171SAPE   H9Y19413   0.360   0.658   7.540
  171SAPE  C31019414   0.563   0.590   7.535
  171SAPE  H10X19415   0.591   0.695   7.559
  171SAPE  H10Y19416   0.637   0.549   7.463
  171SAPE  C31119417   0.565   0.506   7.661
  171SAPE  H11X19418   0.548   0.399   7.636
  171SAPE  H11Y19419   0.478   0.543   7.719
  171SAPE  C31219420   0.694   0.517   7.742
  171SAPE  H12X19421   0.759   0.593   7.695
  171SAPE  H12Y19422   0.752   0.423   7.734
  171SAPE  C31319423   0.672   0.560   7.888
  171SAPE  H13X19424   0.667   0.671   7.890
  171SAPE  H13Y19425   0.761   0.529   7.947
  171SAPE  C31419426   0.545   0.509   7.956
  171SAPE  H14X19427   0.533   0.400   7.937
  171SAPE  H14Y19428   0.456   0.561   7.916
  171SAPE  C31519429   0.550   0.537   8.106
  171SAPE  H15X19430   0.587   0.640   8.122
  171SAPE  H15Y19431   0.624   0.467   8.150
  171SAPE  C31619432   0.415   0.534   8.178
  171SAPE  H16X19433   0.334   0.559   8.107
  171SAPE  H16Y19434   0.416   0.611   8.258
  171SAPE  C31719435   0.387   0.402   8.249
  171SAPE  H17X19436   0.276   0.400   8.262
  171SAPE  H17Y19437   0.430   0.402   8.351
  171SAPE  C31819438   0.438   0.279   8.174
  171SAPE  H18X19439   0.404   0.184   8.219
  171SAPE  H18Y19440   0.549   0.278   8.177
  171SAPE  H18Z19441   0.403   0.281   8.069
  172SAPE     N19442   0.147   6.290   5.790
  172SAPE   HN119443   0.199   6.310   5.702
  172SAPE   HN219444   0.178   6.356   5.864
  172SAPE   HN319445   0.169   6.195   5.826
  172SAPE   C1219446  -0.001   6.313   5.774
  172SAPE  H12A19447  -0.044   6.226   5.719
  172SAPE  H12B19448  -0.015   6.406   5.713
  172SAPE   C1119449  -0.072   6.329   5.909
  172SAPE  H11A19450  -0.052   6.242   5.976
  172SAPE  H11B19451  -0.182   6.328   5.891
  172SAPE     P19452   0.077   6.472   6.074
  172SAPE   O1319453   0.200   6.439   5.997
  172SAPE   O1419454   0.069   6.608   6.129
  172SAPE   O1219455  -0.040   6.453   5.970
  172SAPE   O1119456   0.048   6.359   6.180
  172SAPE    C119457  -0.079   6.346   6.245
  172SAPE    HA19458  -0.161   6.326   6.173
  172SAPE    HB19459  -0.074   6.258   6.313
  172SAPE    C219460  -0.119   6.468   6.334
  172SAPE    HS19461  -0.133   6.553   6.264
  172SAPE   O2119462  -0.013   6.493   6.427
  172SAPE   C2119463  -0.006   6.620   6.465
  172SAPE   O2219464  -0.084   6.708   6.433
  172SAPE   C2219465   0.114   6.641   6.556
  172SAPE   H2R19466   0.183   6.554   6.548
  172SAPE   H2S19467   0.167   6.731   6.518
  172SAPE    C319468  -0.255   6.444   6.406
  172SAPE    HX19469  -0.333   6.429   6.328
  172SAPE    HY19470  -0.283   6.536   6.461
  172SAPE   O3119471  -0.248   6.326   6.488
  172SAPE   C3119472  -0.258   6.345   6.618
  172SAPE   O3219473  -0.300   6.444   6.674
  172SAPE   C3219474  -0.199   6.223   6.688
  172SAPE   H2X19475  -0.089   6.238   6.692
  172SAPE   H2Y19476  -0.220   6.133   6.626
  172SAPE   C2319477   0.068   6.663   6.701
  172SAPE   H3R19478  -0.020   6.730   6.704
  172SAPE   H3S19479   0.150   6.714   6.756
  172SAPE   C2419480   0.037   6.529   6.769
  172SAPE   H4R19481   0.128   6.465   6.770
  172SAPE   H4S19482  -0.040   6.475   6.710
  172SAPE   C2519483  -0.014   6.550   6.909
  172SAPE   H5R19484  -0.124   6.544   6.919
  172SAPE   C2619485   0.063   6.574   7.016
  172SAPE   H6R19486   0.015   6.584   7.115
  172SAPE   C2719487   0.213   6.584   7.018
  172SAPE   H7R19488   0.243   6.665   7.087
  172SAPE   H7S19489   0.253   6.614   6.919
  172SAPE   C2819490   0.274   6.452   7.058
  172SAPE   H8R19491   0.302   6.386   6.974
  172SAPE   C2919492   0.289   6.408   7.184
  172SAPE   H9R19493   0.333   6.308   7.200
  172SAPE  C21019494   0.248   6.481   7.309
  172SAPE  H10R19495   0.160   6.427   7.351
  172SAPE  H10S19496   0.214   6.584   7.289
  172SAPE  C21119497   0.359   6.484   7.411
  172SAPE  H11R19498   0.423   6.574   7.407
  172SAPE  C21219499   0.384   6.390   7.503
  172SAPE  H12R19500   0.471   6.404   7.569
  172SAPE  C21319501   0.306   6.262   7.523
  172SAPE  H13R19502   0.345   6.186   7.452
  172SAPE  H13S19503   0.199   6.276   7.497
  172SAPE  C21419504   0.320   6.207   7.663
  172SAPE  H14R19505   0.402   6.251   7.722
  172SAPE  C21519506   0.242   6.114   7.721
  172SAPE  H15R19507   0.261   6.088   7.826
  172SAPE  C21619508   0.124   6.045   7.659
  172SAPE  H16R19509   0.128   5.935   7.675
  172SAPE  H16S19510   0.119   6.063   7.550
  172SAPE  C21719511  -0.003   6.104   7.722
  172SAPE  H17R19512  -0.090   6.087   7.655
  172SAPE  H17S19513   0.012   6.213   7.730
  172SAPE  C21819514  -0.040   6.054   7.863
  172SAPE  H18R19515   0.052   6.028   7.920
  172SAPE  H18S19516  -0.103   5.963   7.855
  172SAPE  C21919517  -0.114   6.167   7.936
  172SAPE  H19R19518  -0.170   6.223   7.858
  172SAPE  H19S19519  -0.037   6.234   7.980
  172SAPE  C22019520  -0.215   6.130   8.043
  172SAPE  H20R19521  -0.286   6.215   8.052
  172SAPE  H20S19522  -0.167   6.118   8.143
  172SAPE  H20T19523  -0.272   6.039   8.017
  172SAPE   C3319524  -0.256   6.205   6.829
  172SAPE   H3X19525  -0.367   6.204   6.823
  172SAPE   H3Y19526  -0.229   6.290   6.895
  172SAPE   C3419527  -0.207   6.073   6.891
  172SAPE   H4X19528  -0.204   5.996   6.812
  172SAPE   H4Y19529  -0.281   6.038   6.967
  172SAPE   C3519530  -0.068   6.086   6.956
  172SAPE   H5X19531   0.001   6.136   6.884
  172SAPE   H5Y19532  -0.027   5.985   6.974
  172SAPE   C3619533  -0.066   6.162   7.090
  172SAPE   H6X19534  -0.078   6.271   7.070
  172SAPE   H6Y19535   0.035   6.149   7.135
  172SAPE   C3719536  -0.173   6.118   7.192
  172SAPE   H7X19537  -0.177   6.007   7.197
  172SAPE   H7Y19538  -0.272   6.154   7.154
  172SAPE   C3819539  -0.150   6.175   7.334
  172SAPE   H8X19540  -0.113   6.279   7.323
  172SAPE   H8Y19541  -0.068   6.116   7.382
  172SAPE   C3919542  -0.275   6.177   7.425
  172SAPE   H9X19543  -0.243   6.204   7.528
  172SAPE   H9Y19544  -0.319   6.075   7.430
  172SAPE  C31019545  -0.380   6.279   7.375
  172SAPE  H10X19546  -0.450   6.227   7.306
  172SAPE  H10Y19547  -0.318   6.339   7.305
  172SAPE  C31119548  -0.465   6.364   7.476
  172SAPE  H11X19549  -0.426   6.350   7.579
  172SAPE  H11Y19550  -0.565   6.316   7.475
  172SAPE  C31219551  -0.494   6.518   7.457
  172SAPE  H12X19552  -0.602   6.528   7.481
  172SAPE  H12Y19553  -0.485   6.550   7.351
  172SAPE  C31319554  -0.420   6.620   7.549
  172SAPE  H13X19555  -0.312   6.595   7.537
  172SAPE  H13Y19556  -0.449   6.602   7.655
  172SAPE  C31419557  -0.421   6.774   7.520
  172SAPE  H14X19558  -0.492   6.821   7.593
  172SAPE  H14Y19559  -0.462   6.791   7.418
  172SAPE  C31519560  -0.285   6.853   7.528
  172SAPE  H15X19561  -0.308   6.961   7.544
  172SAPE  H15Y19562  -0.232   6.851   7.431
  172SAPE  C31619563  -0.183   6.810   7.636
  172SAPE  H16X19564  -0.161   6.703   7.621
  172SAPE  H16Y19565  -0.229   6.824   7.736
  172SAPE  C31719566  -0.042   6.873   7.631
  172SAPE  H17X19567  -0.048   6.983   7.615
  172SAPE  H17Y19568   0.006   6.824   7.543
  172SAPE  C31819569   0.051   6.843   7.750
  172SAPE  H18X19570   0.053   6.734   7.772
  172SAPE  H18Y19571   0.020   6.899   7.841
  172SAPE  H18Z19572   0.156   6.870   7.727
  173SOPE     N19573   3.598   4.773   9.929
  173SOPE   HN119574   3.612   4.672   9.945
  173SOPE   HN219575   3.504   4.799   9.967
  173SOPE   HN319576   3.597   4.796   9.827
  173SOPE   C1219577   3.703   4.855  10.000
  173SOPE  H12A19578   3.678   4.962   9.983
  173SOPE  H12B19579   3.801   4.834   9.953
  173SOPE   C1119580   3.706   4.821  10.150
  173SOPE  H11A19581   3.787   4.880  10.200
  173SOPE  H11B19582   3.734   4.714  10.161
  173SOPE     P19583   3.521   4.986  10.242
  173SOPE   O1319584   3.461   4.994  10.377
  173SOPE   O1419585   3.434   5.014  10.126
  173SOPE   O1219586   3.580   4.841  10.214
  173SOPE   O1119587   3.650   5.079  10.234
  173SOPE    C119588   3.633   5.218  10.197
  173SOPE    HA19589   3.696   5.280  10.265
  173SOPE    HB19590   3.529   5.255  10.210
  173SOPE    C219591   3.679   5.248  10.052
  173SOPE    HS19592   3.679   5.358  10.039
  173SOPE   O2119593   3.593   5.184   9.955
  173SOPE   C2119594   3.481   5.251   9.927
  173SOPE   O2219595   3.450   5.359   9.973
  173SOPE   C2219596   3.403   5.176   9.819
  173SOPE   H2R19597   3.298   5.168   9.853
  173SOPE   H2S19598   3.445   5.073   9.812
  173SOPE    C319599   3.826   5.202  10.027
  173SOPE    HX19600   3.833   5.097  10.063
  173SOPE    HY19601   3.893   5.265  10.088
  173SOPE   O3119602   3.861   5.214   9.887
  173SOPE   C3119603   3.961   5.137   9.846
  173SOPE   O3219604   4.016   5.051   9.914
  173SOPE   C3219605   3.991   5.168   9.699
  173SOPE   H2X19606   4.087   5.223   9.696
  173SOPE   H2Y19607   3.911   5.236   9.660
  173SOPE   C2319608   3.408   5.244   9.680
  173SOPE   H3R19609   3.512   5.273   9.654
  173SOPE   H3S19610   3.346   5.336   9.681
  173SOPE   C2419611   3.357   5.149   9.571
  173SOPE   H4R19612   3.419   5.057   9.571
  173SOPE   H4S19613   3.253   5.119   9.597
  173SOPE   C2519614   3.356   5.207   9.428
  173SOPE   H5R19615   3.292   5.298   9.426
  173SOPE   H5S19616   3.459   5.235   9.398
  173SOPE   C2619617   3.300   5.103   9.329
  173SOPE   H6R19618   3.355   5.008   9.344
  173SOPE   H6S19619   3.193   5.086   9.355
  173SOPE   C2719620   3.311   5.143   9.181
  173SOPE   H7R19621   3.272   5.247   9.169
  173SOPE   H7S19622   3.418   5.145   9.152
  173SOPE   C2819623   3.232   5.051   9.085
  173SOPE   H8R19624   3.124   5.074   9.098
  173SOPE   H8S19625   3.256   5.083   8.981
  173SOPE   C2919626   3.252   4.903   9.104
  173SOPE   H9119627   3.241   4.868   9.208
  173SOPE  C21019628   3.282   4.813   9.009
  173SOPE  H10119629   3.295   4.708   9.036
  173SOPE  C21119630   3.301   4.844   8.863
  173SOPE  H11R19631   3.351   4.757   8.814
  173SOPE  H11S19632   3.369   4.931   8.851
  173SOPE  C21219633   3.173   4.874   8.783
  173SOPE  H12R19634   3.116   4.955   8.833
  173SOPE  H12S19635   3.109   4.783   8.780
  173SOPE  C21319636   3.205   4.919   8.639
  173SOPE  H13R19637   3.272   5.008   8.643
  173SOPE  H13S19638   3.111   4.952   8.590
  173SOPE  C21419639   3.269   4.809   8.553
  173SOPE  H14R19640   3.202   4.720   8.555
  173SOPE  H14S19641   3.367   4.779   8.596
  173SOPE  C21519642   3.290   4.851   8.406
  173SOPE  H15R19643   3.193   4.885   8.364
  173SOPE  H15S19644   3.323   4.763   8.348
  173SOPE  C21619645   3.397   4.959   8.386
  173SOPE  H16R19646   3.495   4.918   8.417
  173SOPE  H16S19647   3.376   5.048   8.450
  173SOPE  C21719648   3.404   5.005   8.240
  173SOPE  H17R19649   3.312   5.063   8.216
  173SOPE  H17S19650   3.405   4.916   8.174
  173SOPE  C21819651   3.528   5.090   8.209
  173SOPE  H18R19652   3.532   5.178   8.277
  173SOPE  H18S19653   3.525   5.126   8.104
  173SOPE  H18T19654   3.620   5.030   8.223
  173SOPE   C3319655   3.999   5.042   9.610
  173SOPE   H3X19656   4.085   4.980   9.641
  173SOPE   H3Y19657   4.018   5.076   9.506
  173SOPE   C3419658   3.870   4.956   9.611
  173SOPE   H4X19659   3.782   5.020   9.589
  173SOPE   H4Y19660   3.858   4.915   9.714
  173SOPE   C3519661   3.875   4.838   9.513
  173SOPE   H5X19662   3.800   4.761   9.540
  173SOPE   H5Y19663   3.976   4.791   9.521
  173SOPE   C3619664   3.853   4.878   9.366
  173SOPE   H6X19665   3.892   4.798   9.300
  173SOPE   H6Y19666   3.911   4.971   9.346
  173SOPE   C3719667   3.705   4.904   9.329
  173SOPE   H7X19668   3.666   4.983   9.396
  173SOPE   H7Y19669   3.646   4.811   9.347
  173SOPE   C3819670   3.685   4.950   9.183
  173SOPE   H8X19671   3.752   5.036   9.163
  173SOPE   H8Y19672   3.581   4.985   9.173
  173SOPE   C3919673   3.708   4.841   9.077
  173SOPE   H9X19674   3.638   4.758   9.098
  173SOPE   H9Y19675   3.812   4.800   9.083
  173SOPE  C31019676   3.683   4.894   8.934
  173SOPE  H10X19677   3.775   4.935   8.889
  173SOPE  H10Y19678   3.610   4.977   8.943
  173SOPE  C31119679   3.622   4.791   8.838
  173SOPE  H11X19680   3.563   4.848   8.763
  173SOPE  H11Y19681   3.552   4.724   8.893
  173SOPE  C31219682   3.721   4.706   8.759
  173SOPE  H12X19683   3.778   4.639   8.827
  173SOPE  H12Y19684   3.794   4.774   8.708
  173SOPE  C31319685   3.646   4.623   8.653
  173SOPE  H13X19686   3.585   4.692   8.591
  173SOPE  H13Y19687   3.576   4.554   8.705
  173SOPE  C31419688   3.737   4.540   8.561
  173SOPE  H14X19689   3.672   4.485   8.490
  173SOPE  H14Y19690   3.793   4.465   8.621
  173SOPE  C31519691   3.837   4.624   8.479
  173SOPE  H15X19692   3.886   4.556   8.406
  173SOPE  H15Y19693   3.917   4.663   8.545
  173SOPE  C31619694   3.771   4.741   8.405
  173SOPE  H16X19695   3.753   4.824   8.477
  173SOPE  H16Y19696   3.672   4.710   8.364
  173SOPE  C31719697   3.857   4.791   8.289
  173SOPE  H17X19698   3.961   4.806   8.325
  173SOPE  H17Y19699   3.817   4.890   8.257
  173SOPE  C31819700   3.855   4.697   8.169
  173SOPE  H18X19701   3.958   4.671   8.137
  173SOPE  H18Y19702   3.803   4.748   8.085
  173SOPE  H18Z19703   3.800   4.603   8.192
  174SOPE     N19704   5.064   4.535  10.302
  174SOPE   HN119705   5.067   4.468  10.222
  174SOPE   HN219706   5.159   4.548  10.343
  174SOPE   HN319707   4.997   4.494  10.371
  174SOPE   C1219708   5.005   4.660  10.242
  174SOPE  H12A19709   5.059   4.678  10.146
  174SOPE  H12B19710   5.024   4.745  10.311
  174SOPE   C1119711   4.854   4.643  10.215
  174SOPE  H11A19712   4.820   4.719  10.141
  174SOPE  H11B19713   4.799   4.664  10.309
  174SOPE     P19714   4.875   4.452  10.037
  174SOPE   O1319715   4.786   4.345   9.987
  174SOPE   O1419716   5.015   4.413  10.069
  174SOPE   O1219717   4.820   4.511  10.172
  174SOPE   O1119718   4.877   4.581   9.943
  174SOPE    C119719   4.780   4.599   9.838
  174SOPE    HA19720   4.696   4.663   9.873
  174SOPE    HB19721   4.738   4.501   9.808
  174SOPE    C219722   4.841   4.654   9.704
  174SOPE    HS19723   4.787   4.608   9.619
  174SOPE   O2119724   4.980   4.622   9.698
  174SOPE   C2119725   5.005   4.493   9.699
  174SOPE   O2219726   4.929   4.404   9.663
  174SOPE   C2219727   5.143   4.473   9.761
  174SOPE   H2R19728   5.131   4.485   9.871
  174SOPE   H2S19729   5.209   4.557   9.729
  174SOPE    C319730   4.823   4.808   9.690
  174SOPE    HX19731   4.834   4.851   9.792
  174SOPE    HY19732   4.719   4.831   9.657
  174SOPE   O3119733   4.924   4.868   9.606
  174SOPE   C3119734   4.896   4.885   9.478
  174SOPE   O3219735   4.797   4.842   9.421
  174SOPE   C3219736   5.004   4.974   9.413
  174SOPE   H2X19737   4.998   5.073   9.463
  174SOPE   H2Y19738   4.975   4.987   9.307
  174SOPE   C2319739   5.208   4.337   9.732
  174SOPE   H3R19740   5.153   4.260   9.789
  174SOPE   H3S19741   5.312   4.341   9.772
  174SOPE   C2419742   5.212   4.297   9.583
  174SOPE   H4R19743   5.146   4.364   9.524
  174SOPE   H4S19744   5.315   4.309   9.544
  174SOPE   C2519745   5.163   4.153   9.562
  174SOPE   H5R19746   5.241   4.083   9.599
  174SOPE   H5S19747   5.074   4.139   9.626
  174SOPE   C2619748   5.123   4.119   9.418
  174SOPE   H6R19749   5.102   4.011   9.411
  174SOPE   H6S19750   5.029   4.175   9.398
  174SOPE   C2719751   5.225   4.157   9.308
  174SOPE   H7R19752   5.229   4.267   9.301
  174SOPE   H7S19753   5.326   4.120   9.335
  174SOPE   C2819754   5.188   4.103   9.168
  174SOPE   H8R19755   5.258   4.147   9.094
  174SOPE   H8S19756   5.203   3.993   9.166
  174SOPE   C2919757   5.044   4.137   9.139
  174SOPE   H9119758   4.971   4.086   9.204
  174SOPE  C21019759   4.995   4.217   9.044
  174SOPE  H10119760   4.886   4.231   9.038
  174SOPE  C21119761   5.071   4.294   8.938
  174SOPE  H11R19762   5.181   4.275   8.940
  174SOPE  H11S19763   5.055   4.403   8.948
  174SOPE  C21219764   5.011   4.245   8.806
  174SOPE  H12R19765   4.901   4.260   8.808
  174SOPE  H12S19766   5.030   4.136   8.792
  174SOPE  C21319767   5.061   4.319   8.683
  174SOPE  H13R19768   5.169   4.300   8.666
  174SOPE  H13S19769   5.048   4.428   8.700
  174SOPE  C21419770   4.979   4.273   8.562
  174SOPE  H14R19771   4.872   4.263   8.592
  174SOPE  H14S19772   5.014   4.172   8.531
  174SOPE  C21519773   4.985   4.368   8.443
  174SOPE  H15R19774   4.930   4.323   8.358
  174SOPE  H15S19775   5.092   4.374   8.415
  174SOPE  C21619776   4.928   4.507   8.473
  174SOPE  H16R19777   5.002   4.563   8.535
  174SOPE  H16S19778   4.835   4.498   8.533
  174SOPE  C21719779   4.898   4.588   8.347
  174SOPE  H17R19780   4.985   4.577   8.278
  174SOPE  H17S19781   4.889   4.696   8.374
  174SOPE  C21819782   4.772   4.546   8.271
  174SOPE  H18R19783   4.782   4.442   8.234
  174SOPE  H18S19784   4.757   4.613   8.184
  174SOPE  H18T19785   4.683   4.550   8.336
  174SOPE   C3319786   5.151   4.919   9.420
  174SOPE   H3X19787   5.154   4.825   9.360
  174SOPE   H3Y19788   5.176   4.896   9.525
  174SOPE   C3419789   5.256   5.016   9.362
  174SOPE   H4X19790   5.256   5.101   9.433
  174SOPE   H4Y19791   5.218   5.057   9.267
  174SOPE   C3519792   5.406   4.971   9.344
  174SOPE   H5X19793   5.453   4.983   9.444
  174SOPE   H5Y19794   5.455   5.046   9.277
  174SOPE   C3619795   5.443   4.827   9.294
  174SOPE   H6X19796   5.345   4.774   9.287
  174SOPE   H6Y19797   5.511   4.780   9.368
  174SOPE   C3719798   5.515   4.807   9.157
  174SOPE   H7X19799   5.616   4.853   9.154
  174SOPE   H7Y19800   5.442   4.875   9.107
  174SOPE   C3819801   5.507   4.671   9.079
  174SOPE   H8X19802   5.408   4.624   9.097
  174SOPE   H8Y19803   5.584   4.604   9.124
  174SOPE   C3919804   5.522   4.664   8.922
  174SOPE   H9X19805   5.579   4.570   8.903
  174SOPE   H9Y19806   5.589   4.745   8.886
  174SOPE  C31019807   5.395   4.649   8.830
  174SOPE  H10X19808   5.302   4.644   8.891
  174SOPE  H10Y19809   5.401   4.550   8.781
  174SOPE  C31119810   5.372   4.752   8.715
  174SOPE  H11X19811   5.381   4.858   8.748
  174SOPE  H11Y19812   5.268   4.741   8.678
  174SOPE  C31219813   5.465   4.728   8.596
  174SOPE  H12X19814   5.419   4.641   8.545
  174SOPE  H12Y19815   5.566   4.701   8.635
  174SOPE  C31319816   5.485   4.832   8.484
  174SOPE  H13X19817   5.517   4.932   8.522
  174SOPE  H13Y19818   5.389   4.850   8.432
  174SOPE  C31419819   5.591   4.772   8.387
  174SOPE  H14X19820   5.559   4.666   8.375
  174SOPE  H14Y19821   5.688   4.758   8.440
  174SOPE  C31519822   5.603   4.829   8.243
  174SOPE  H15X19823   5.686   4.903   8.235
  174SOPE  H15Y19824   5.509   4.882   8.217
  174SOPE  C31619825   5.624   4.716   8.139
  174SOPE  H16X19826   5.541   4.644   8.147
  174SOPE  H16Y19827   5.717   4.660   8.162
  174SOPE  C31719828   5.626   4.759   7.992
  174SOPE  H17X19829   5.566   4.853   7.979
  174SOPE  H17Y19830   5.575   4.680   7.932
  174SOPE  C31819831   5.767   4.776   7.937
  174SOPE  H18X19832   5.820   4.678   7.936
  174SOPE  H18Y19833   5.824   4.847   7.999
  174SOPE  H18Z19834   5.765   4.813   7.832
  175SOPE     N19835   5.000   5.257  10.394
  175SOPE   HN119836   4.926   5.277  10.464
  175SOPE   HN219837   5.057   5.175  10.422
  175SOPE   HN319838   5.061   5.342  10.392
  175SOPE   C1219839   4.943   5.238  10.257
  175SOPE  H12A19840   4.907   5.337  10.221
  175SOPE  H12B19841   4.857   5.169  10.263
  175SOPE   C1119842   5.052   5.185  10.162
  175SOPE  H11A19843   5.013   5.189  10.059
  175SOPE  H11B19844   5.070   5.077  10.185
  175SOPE     P19845   5.209   5.382  10.087
  175SOPE   O1319846   5.352   5.414  10.112
  175SOPE   O1419847   5.107   5.485  10.115
  175SOPE   O1219848   5.176   5.256  10.178
  175SOPE   O1119849   5.193   5.324   9.941
  175SOPE    C119850   5.258   5.202   9.902
  175SOPE    HA19851   5.247   5.123   9.979
  175SOPE    HB19852   5.366   5.221   9.887
  175SOPE    C219853   5.200   5.143   9.770
  175SOPE    HS19854   5.264   5.058   9.738
  175SOPE   O2119855   5.195   5.243   9.666
  175SOPE   C2119856   5.313   5.276   9.616
  175SOPE   O2219857   5.419   5.224   9.646
  175SOPE   C2219858   5.294   5.383   9.509
  175SOPE   H2R19859   5.332   5.479   9.551
  175SOPE   H2S19860   5.186   5.395   9.485
  175SOPE    C319861   5.057   5.085   9.787
  175SOPE    HX19862   5.059   5.000   9.859
  175SOPE    HY19863   5.031   5.044   9.687
  175SOPE   O3119864   4.963   5.184   9.832
  175SOPE   C3119865   4.867   5.219   9.747
  175SOPE   O3219866   4.822   5.149   9.659
  175SOPE   C3219867   4.830   5.364   9.777
  175SOPE   H2X19868   4.902   5.405   9.850
  175SOPE   H2Y19869   4.728   5.365   9.821
  175SOPE   C2319870   5.369   5.348   9.380
  175SOPE   H3R19871   5.326   5.259   9.329
  175SOPE   H3S19872   5.475   5.325   9.406
  175SOPE   C2419873   5.367   5.460   9.275
  175SOPE   H4R19874   5.266   5.473   9.230
  175SOPE   H4S19875   5.394   5.554   9.328
  175SOPE   C2519876   5.473   5.433   9.169
  175SOPE   H5R19877   5.510   5.530   9.130
  175SOPE   H5S19878   5.560   5.387   9.220
  175SOPE   C2619879   5.437   5.343   9.049
  175SOPE   H6R19880   5.530   5.327   8.990
  175SOPE   H6S19881   5.407   5.245   9.091
  175SOPE   C2719882   5.326   5.395   8.954
  175SOPE   H7R19883   5.236   5.330   8.964
  175SOPE   H7S19884   5.295   5.495   8.991
  175SOPE   C2819885   5.360   5.410   8.802
  175SOPE   H8R19886   5.267   5.438   8.748
  175SOPE   H8S19887   5.429   5.496   8.800
  175SOPE   C2919888   5.432   5.306   8.722
  175SOPE   H9119889   5.538   5.309   8.750
  175SOPE  C21019890   5.402   5.236   8.611
  175SOPE  H10119891   5.479   5.165   8.576
  175SOPE  C21119892   5.280   5.236   8.523
  175SOPE  H11R19893   5.216   5.325   8.542
  175SOPE  H11S19894   5.219   5.146   8.544
  175SOPE  C21219895   5.322   5.233   8.374
  175SOPE  H12R19896   5.233   5.213   8.311
  175SOPE  H12S19897   5.393   5.150   8.357
  175SOPE  C21319898   5.386   5.365   8.327
  175SOPE  H13R19899   5.455   5.398   8.408
  175SOPE  H13S19900   5.308   5.443   8.318
  175SOPE  C21419901   5.469   5.359   8.197
  175SOPE  H14R19902   5.401   5.352   8.110
  175SOPE  H14S19903   5.535   5.269   8.199
  175SOPE  C21519904   5.556   5.485   8.189
  175SOPE  H15R19905   5.630   5.484   8.272
  175SOPE  H15S19906   5.487   5.570   8.207
  175SOPE  C21619907   5.638   5.515   8.064
  175SOPE  H16R19908   5.577   5.499   7.972
  175SOPE  H16S19909   5.725   5.446   8.061
  175SOPE  C21719910   5.688   5.661   8.069
  175SOPE  H17R19911   5.789   5.662   8.116
  175SOPE  H17S19912   5.620   5.718   8.135
  175SOPE  C21819913   5.692   5.742   7.940
  175SOPE  H18R19914   5.784   5.804   7.933
  175SOPE  H18S19915   5.605   5.811   7.935
  175SOPE  H18T19916   5.685   5.676   7.851
  175SOPE   C3319917   4.829   5.456   9.652
  175SOPE   H3X19918   4.839   5.560   9.688
  175SOPE   H3Y19919   4.729   5.451   9.604
  175SOPE   C3419920   4.936   5.429   9.544
  175SOPE   H4X19921   4.991   5.335   9.561
  175SOPE   H4Y19922   5.009   5.513   9.547
  175SOPE   C3519923   4.873   5.422   9.404
  175SOPE   H5X19924   4.801   5.506   9.395
  175SOPE   H5Y19925   4.814   5.328   9.393
  175SOPE   C3619926   4.970   5.438   9.288
  175SOPE   H6X19927   5.031   5.346   9.276
  175SOPE   H6Y19928   5.039   5.523   9.309
  175SOPE   C3719929   4.893   5.468   9.159
  175SOPE   H7X19930   4.830   5.558   9.173
  175SOPE   H7Y19931   4.824   5.383   9.136
  175SOPE   C3819932   4.987   5.490   9.041
  175SOPE   H8X19933   5.044   5.395   9.026
  175SOPE   H8Y19934   5.060   5.570   9.066
  175SOPE   C3919935   4.914   5.526   8.912
  175SOPE   H9X19936   4.879   5.632   8.918
  175SOPE   H9Y19937   4.825   5.461   8.899
  175SOPE  C31019938   5.009   5.507   8.794
  175SOPE  H10X19939   5.010   5.401   8.762
  175SOPE  H10Y19940   5.110   5.529   8.836
  175SOPE  C31119941   4.985   5.603   8.678
  175SOPE  H11X19942   4.986   5.707   8.717
  175SOPE  H11Y19943   4.884   5.583   8.636
  175SOPE  C31219944   5.091   5.591   8.568
  175SOPE  H12X19945   5.075   5.497   8.511
  175SOPE  H12Y19946   5.191   5.584   8.615
  175SOPE  C31319947   5.088   5.710   8.472
  175SOPE  H13X19948   5.168   5.694   8.396
  175SOPE  H13Y19949   5.113   5.804   8.525
  175SOPE  C31419950   4.949   5.724   8.408
  175SOPE  H14X19951   4.892   5.805   8.459
  175SOPE  H14Y19952   4.895   5.629   8.425
  175SOPE  C31519953   4.947   5.744   8.257
  175SOPE  H15X19954   4.975   5.848   8.231
  175SOPE  H15Y19955   4.843   5.730   8.222
  175SOPE  C31619956   5.037   5.642   8.185
  175SOPE  H16X19957   5.036   5.547   8.243
  175SOPE  H16Y19958   5.143   5.674   8.189
  175SOPE  C31719959   4.993   5.614   8.041
  175SOPE  H17X19960   4.895   5.561   8.050
  175SOPE  H17Y19961   5.064   5.543   7.994
  175SOPE  C31819962   4.976   5.739   7.954
  175SOPE  H18X19963   4.945   5.711   7.851
  175SOPE  H18Y19964   5.072   5.794   7.945
  175SOPE  H18Z19965   4.899   5.807   7.995
  176SOPE     N19966   5.586   4.942  10.233
  176SOPE   HN119967   5.566   4.900  10.140
  176SOPE   HN219968   5.504   4.999  10.265
  176SOPE   HN319969   5.670   5.003  10.229
  176SOPE   C1219970   5.612   4.827  10.326
  176SOPE  H12A19971   5.515   4.795  10.370
  176SOPE  H12B19972   5.680   4.862  10.407
  176SOPE   C1119973   5.673   4.710  10.248
  176SOPE  H11A19974   5.695   4.628  10.320
  176SOPE  H11B19975   5.768   4.741  10.201
  176SOPE     P19976   5.625   4.555  10.046
  176SOPE   O1319977   5.506   4.499   9.981
  176SOPE   O1419978   5.719   4.462  10.113
  176SOPE   O1219979   5.578   4.665  10.151
  176SOPE   O1119980   5.704   4.648   9.945
  176SOPE    C119981   5.634   4.717   9.841
  176SOPE    HA19982   5.685   4.813   9.820
  176SOPE    HB19983   5.529   4.741   9.870
  176SOPE    C219984   5.632   4.634   9.709
  176SOPE    HS19985   5.598   4.531   9.736
  176SOPE   O2119986   5.764   4.640   9.651
  176SOPE   C2119987   5.799   4.532   9.585
  176SOPE   O2219988   5.743   4.423   9.590
  176SOPE   C2219989   5.920   4.563   9.499
  176SOPE   H2R19990   5.962   4.466   9.465
  176SOPE   H2S19991   5.996   4.616   9.560
  176SOPE    C319992   5.531   4.694   9.608
  176SOPE    HX19993   5.586   4.777   9.557
  176SOPE    HY19994   5.450   4.741   9.667
  176SOPE   O3119995   5.483   4.598   9.509
  176SOPE   C3119996   5.351   4.606   9.481
  176SOPE   O3219997   5.273   4.672   9.546
  176SOPE   C3219998   5.316   4.535   9.349
  176SOPE   H2X19999   5.331   4.426   9.366
  176SOPE   H2Y20000   5.395   4.564   9.277
  176SOPE   C2320001   5.878   4.648   9.377
  176SOPE   H3R20002   5.846   4.749   9.413
  176SOPE   H3S20003   5.792   4.602   9.325
  176SOPE   C2420004   5.991   4.666   9.276
  176SOPE   H4R20005   6.079   4.708   9.330
  176SOPE   H4S20006   6.023   4.568   9.234
  176SOPE   C2520007   5.951   4.761   9.163
  176SOPE   H5R20008   5.884   4.840   9.202
  176SOPE   H5S20009   6.043   4.811   9.125
  176SOPE   C2620010   5.888   4.691   9.042
  176SOPE   H6R20011   5.849   4.591   9.070
  176SOPE   H6S20012   5.803   4.752   9.005
  176SOPE   C2720013   5.992   4.680   8.930
  176SOPE   H7R20014   6.026   4.783   8.907
  176SOPE   H7S20015   6.079   4.622   8.968
  176SOPE   C2820016   5.943   4.622   8.796
  176SOPE   H8R20017   5.845   4.668   8.772
  176SOPE   H8S20018   6.016   4.657   8.720
  176SOPE   C2920019   5.942   4.472   8.788
  176SOPE   H9120020   6.030   4.423   8.833
  176SOPE  C21020021   5.847   4.395   8.733
  176SOPE  H10120022   5.862   4.286   8.734
  176SOPE  C21120023   5.719   4.440   8.667
  176SOPE  H11R20024   5.699   4.548   8.686
  176SOPE  H11S20025   5.635   4.387   8.716
  176SOPE  C21220026   5.708   4.417   8.515
  176SOPE  H12R20027   5.767   4.328   8.483
  176SOPE  H12S20028   5.753   4.505   8.463
  176SOPE  C21320029   5.561   4.399   8.469
  176SOPE  H13R20030   5.502   4.478   8.519
  176SOPE  H13S20031   5.518   4.304   8.506
  176SOPE  C21420032   5.539   4.406   8.317
  176SOPE  H14R20033   5.586   4.315   8.272
  176SOPE  H14S20034   5.596   4.492   8.276
  176SOPE  C21520035   5.391   4.410   8.269
  176SOPE  H15R20036   5.347   4.313   8.301
  176SOPE  H15S20037   5.390   4.411   8.158
  176SOPE  C21620038   5.294   4.521   8.319
  176SOPE  H16R20039   5.298   4.531   8.429
  176SOPE  H16S20040   5.193   4.484   8.294
  176SOPE  C21720041   5.300   4.658   8.249
  176SOPE  H17R20042   5.311   4.648   8.139
  176SOPE  H17S20043   5.394   4.707   8.280
  176SOPE  C21820044   5.190   4.759   8.283
  176SOPE  H18R20045   5.169   4.760   8.392
  176SOPE  H18S20046   5.096   4.737   8.227
  176SOPE  H18T20047   5.223   4.861   8.253
  176SOPE   C3320048   5.170   4.564   9.294
  176SOPE   H3X20049   5.114   4.634   9.360
  176SOPE   H3Y20050   5.118   4.468   9.310
  176SOPE   C3420051   5.144   4.602   9.144
  176SOPE   H4X20052   5.053   4.542   9.122
  176SOPE   H4Y20053   5.221   4.558   9.077
  176SOPE   C3520054   5.098   4.746   9.095
  176SOPE   H5X20055   5.031   4.791   9.171
  176SOPE   H5Y20056   5.036   4.729   9.004
  176SOPE   C3620057   5.208   4.848   9.052
  176SOPE   H6X20058   5.294   4.783   9.024
  176SOPE   H6Y20059   5.237   4.907   9.142
  176SOPE   C3720060   5.194   4.945   8.931
  176SOPE   H7X20061   5.102   5.005   8.946
  176SOPE   H7Y20062   5.178   4.884   8.840
  176SOPE   C3820063   5.312   5.049   8.900
  176SOPE   H8X20064   5.285   5.137   8.962
  176SOPE   H8Y20065   5.301   5.078   8.793
  176SOPE   C3920066   5.462   5.017   8.934
  176SOPE   H9X20067   5.467   4.906   8.924
  176SOPE   H9Y20068   5.472   5.049   9.040
  176SOPE  C31020069   5.599   5.061   8.873
  176SOPE  H10X20070   5.670   5.062   8.959
  176SOPE  H10Y20071   5.605   5.166   8.836
  176SOPE  C31120072   5.664   4.961   8.776
  176SOPE  H11X20073   5.576   4.906   8.735
  176SOPE  H11Y20074   5.727   4.886   8.829
  176SOPE  C31220075   5.738   5.008   8.649
  176SOPE  H12X20076   5.695   5.103   8.610
  176SOPE  H12Y20077   5.709   4.931   8.575
  176SOPE  C31320078   5.892   5.004   8.646
  176SOPE  H13X20079   5.930   4.991   8.749
  176SOPE  H13Y20080   5.931   5.102   8.608
  176SOPE  C31420081   5.951   4.891   8.557
  176SOPE  H14X20082   5.915   4.797   8.606
  176SOPE  H14Y20083   6.062   4.889   8.562
  176SOPE  C31520084   5.901   4.878   8.412
  176SOPE  H15X20085   5.799   4.921   8.405
  176SOPE  H15Y20086   5.895   4.769   8.386
  176SOPE  C31620087   5.973   4.946   8.297
  176SOPE  H16X20088   5.948   5.054   8.305
  176SOPE  H16Y20089   5.928   4.913   8.201
  176SOPE  C31720090   6.123   4.921   8.291
  176SOPE  H17X20091   6.172   4.954   8.385
  176SOPE  H17Y20092   6.164   4.983   8.208
  176SOPE  C31820093   6.156   4.774   8.264
  176SOPE  H18X20094   6.115   4.709   8.344
  176SOPE  H18Y20095   6.266   4.758   8.260
  176SOPE  H18Z20096   6.112   4.742   8.167
  177SOPE     N20097   5.349   1.445  10.116
  177SOPE   HN120098   5.262   1.420  10.166
  177SOPE   HN220099   5.337   1.531  10.059
  177SOPE   HN320100   5.377   1.365  10.056
  177SOPE   C1220101   5.462   1.468  10.213
  177SOPE  H12A20102   5.496   1.369  10.250
  177SOPE  H12B20103   5.424   1.529  10.298
  177SOPE   C1120104   5.576   1.542  10.142
  177SOPE  H11A20105   5.604   1.484  10.051
  177SOPE  H11B20106   5.668   1.543  10.205
  177SOPE     P20107   5.569   1.798  10.194
  177SOPE   O1320108   5.714   1.822  10.198
  177SOPE   O1420109   5.503   1.777  10.325
  177SOPE   O1220110   5.535   1.673  10.102
  177SOPE   O1120111   5.498   1.916  10.116
  177SOPE    C120112   5.356   1.919  10.100
  177SOPE    HA20113   5.315   2.001  10.163
  177SOPE    HB20114   5.307   1.825  10.135
  177SOPE    C220115   5.311   1.943   9.953
  177SOPE    HS20116   5.202   1.922   9.946
  177SOPE   O2120117   5.384   1.860   9.860
  177SOPE   C2120118   5.366   1.731   9.862
  177SOPE   O2220119   5.285   1.670   9.932
  177SOPE   C2220120   5.455   1.667   9.755
  177SOPE   H2R20121   5.515   1.588   9.806
  177SOPE   H2S20122   5.525   1.743   9.715
  177SOPE    C320123   5.331   2.090   9.907
  177SOPE    HX20124   5.437   2.107   9.879
  177SOPE    HY20125   5.310   2.156   9.994
  177SOPE   O3120126   5.237   2.122   9.802
  177SOPE   C3120127   5.276   2.094   9.678
  177SOPE   O3220128   5.388   2.065   9.642
  177SOPE   C3220129   5.152   2.098   9.590
  177SOPE   H2X20130   5.117   2.204   9.586
  177SOPE   H2Y20131   5.073   2.036   9.637
  177SOPE   C2320132   5.372   1.607   9.640
  177SOPE   H3R20133   5.325   1.690   9.582
  177SOPE   H3S20134   5.289   1.545   9.682
  177SOPE   C2420135   5.450   1.516   9.543
  177SOPE   H4R20136   5.500   1.436   9.601
  177SOPE   H4S20137   5.377   1.468   9.475
  177SOPE   C2520138   5.554   1.588   9.454
  177SOPE   H5R20139   5.630   1.638   9.518
  177SOPE   H5S20140   5.607   1.512   9.392
  177SOPE   C2620141   5.492   1.692   9.360
  177SOPE   H6R20142   5.417   1.644   9.294
  177SOPE   H6S20143   5.441   1.769   9.421
  177SOPE   C2720144   5.595   1.766   9.273
  177SOPE   H7R20145   5.678   1.801   9.338
  177SOPE   H7S20146   5.639   1.696   9.198
  177SOPE   C2820147   5.530   1.886   9.202
  177SOPE   H8R20148   5.459   1.848   9.125
  177SOPE   H8S20149   5.469   1.937   9.279
  177SOPE   C2920150   5.628   1.983   9.139
  177SOPE   H9120151   5.717   1.937   9.094
  177SOPE  C21020152   5.614   2.117   9.137
  177SOPE  H10120153   5.693   2.177   9.089
  177SOPE  C21120154   5.500   2.197   9.195
  177SOPE  H11R20155   5.541   2.282   9.253
  177SOPE  H11S20156   5.442   2.136   9.269
  177SOPE  C21220157   5.398   2.253   9.093
  177SOPE  H12R20158   5.440   2.345   9.048
  177SOPE  H12S20159   5.308   2.286   9.149
  177SOPE  C21320160   5.354   2.154   8.984
  177SOPE  H13R20161   5.301   2.070   9.034
  177SOPE  H13S20162   5.442   2.110   8.932
  177SOPE  C21420163   5.262   2.217   8.878
  177SOPE  H14R20164   5.196   2.292   8.927
  177SOPE  H14S20165   5.198   2.137   8.836
  177SOPE  C21520166   5.336   2.282   8.762
  177SOPE  H15R20167   5.408   2.208   8.720
  177SOPE  H15S20168   5.393   2.370   8.797
  177SOPE  C21620169   5.244   2.331   8.650
  177SOPE  H16R20170   5.218   2.437   8.670
  177SOPE  H16S20171   5.150   2.272   8.650
  177SOPE  C21720172   5.311   2.329   8.514
  177SOPE  H17R20173   5.358   2.229   8.500
  177SOPE  H17S20174   5.393   2.404   8.520
  177SOPE  C21820175   5.220   2.357   8.395
  177SOPE  H18R20176   5.130   2.291   8.397
  177SOPE  H18S20177   5.274   2.341   8.299
  177SOPE  H18T20178   5.186   2.463   8.398
  177SOPE   C3320179   5.176   2.051   9.445
  177SOPE   H3X20180   5.215   1.947   9.443
  177SOPE   H3Y20181   5.252   2.117   9.398
  177SOPE   C3420182   5.046   2.059   9.365
  177SOPE   H4X20183   4.996   2.156   9.389
  177SOPE   H4Y20184   4.976   1.978   9.397
  177SOPE   C3520185   5.069   2.053   9.215
  177SOPE   H5X20186   5.121   1.958   9.189
  177SOPE   H5Y20187   5.137   2.137   9.187
  177SOPE   C3620188   4.940   2.067   9.133
  177SOPE   H6X20189   4.882   2.153   9.174
  177SOPE   H6Y20190   4.879   1.975   9.145
  177SOPE   C3720191   4.971   2.092   8.986
  177SOPE   H7X20192   5.043   2.015   8.952
  177SOPE   H7Y20193   5.022   2.191   8.980
  177SOPE   C3820194   4.851   2.096   8.891
  177SOPE   H8X20195   4.785   2.181   8.919
  177SOPE   H8Y20196   4.792   2.002   8.901
  177SOPE   C3920197   4.895   2.108   8.744
  177SOPE   H9X20198   4.977   2.182   8.736
  177SOPE   H9Y20199   4.810   2.144   8.683
  177SOPE  C31020200   4.939   1.972   8.689
  177SOPE  H10X20201   4.850   1.906   8.692
  177SOPE  H10Y20202   5.015   1.926   8.756
  177SOPE  C31120203   4.990   1.974   8.545
  177SOPE  H11X20204   4.930   2.045   8.484
  177SOPE  H11Y20205   4.970   1.872   8.505
  177SOPE  C31220206   5.141   2.001   8.524
  177SOPE  H12X20207   5.161   2.109   8.539
  177SOPE  H12Y20208   5.166   1.982   8.417
  177SOPE  C31320209   5.238   1.919   8.611
  177SOPE  H13X20210   5.180   1.833   8.653
  177SOPE  H13Y20211   5.274   1.980   8.696
  177SOPE  C31420212   5.357   1.858   8.534
  177SOPE  H14X20213   5.322   1.810   8.441
  177SOPE  H14Y20214   5.404   1.779   8.596
  177SOPE  C31520215   5.465   1.960   8.496
  177SOPE  H15X20216   5.522   1.989   8.587
  177SOPE  H15Y20217   5.415   2.051   8.456
  177SOPE  C31620218   5.560   1.910   8.386
  177SOPE  H16X20219   5.580   1.802   8.397
  177SOPE  H16Y20220   5.656   1.964   8.397
  177SOPE  C31720221   5.506   1.942   8.245
  177SOPE  H17X20222   5.473   2.048   8.244
  177SOPE  H17Y20223   5.416   1.880   8.226
  177SOPE  C31820224   5.608   1.921   8.133
  177SOPE  H18X20225   5.575   1.973   8.041
  177SOPE  H18Y20226   5.620   1.812   8.111
  177SOPE  H18Z20227   5.708   1.962   8.162
  178SOPE     N20228   2.609   0.025  10.191
  178SOPE   HN120229   2.594   0.113  10.245
  178SOPE   HN220230   2.545   0.027  10.109
  178SOPE   HN320231   2.587  -0.061  10.245
  178SOPE   C1220232   2.752   0.011  10.146
  178SOPE  H12A20233   2.816   0.020  10.236
  178SOPE  H12B20234   2.773   0.093  10.075
  178SOPE   C1120235   2.770  -0.127  10.083
  178SOPE  H11A20236   2.877  -0.143  10.059
  178SOPE  H11B20237   2.712  -0.128   9.987
  178SOPE     P20238   2.713  -0.378  10.126
  178SOPE   O1320239   2.600  -0.439  10.200
  178SOPE   O1420240   2.847  -0.440  10.138
  178SOPE   O1220241   2.723  -0.226  10.174
  178SOPE   O1120242   2.675  -0.360   9.973
  178SOPE    C120243   2.539  -0.382   9.934
  178SOPE    HA20244   2.469  -0.317   9.991
  178SOPE    HB20245   2.511  -0.488   9.953
  178SOPE    C220246   2.512  -0.358   9.782
  178SOPE    HS20247   2.419  -0.415   9.760
  178SOPE   O2120248   2.626  -0.403   9.704
  178SOPE   C2120249   2.590  -0.451   9.586
  178SOPE   O2220250   2.476  -0.469   9.549
  178SOPE   C2220251   2.711  -0.477   9.498
  178SOPE   H2R20252   2.798  -0.505   9.560
  178SOPE   H2S20253   2.733  -0.383   9.444
  178SOPE    C320254   2.482  -0.208   9.749
  178SOPE    HX20255   2.571  -0.150   9.781
  178SOPE    HY20256   2.396  -0.173   9.810
  178SOPE   O3120257   2.461  -0.186   9.607
  178SOPE   C3120258   2.340  -0.224   9.561
  178SOPE   O3220259   2.244  -0.249   9.630
  178SOPE   C3220260   2.349  -0.226   9.408
  178SOPE   H2X20261   2.451  -0.259   9.379
  178SOPE   H2Y20262   2.334  -0.121   9.376
  178SOPE   C2320263   2.676  -0.589   9.397
  178SOPE   H3R20264   2.567  -0.598   9.376
  178SOPE   H3S20265   2.705  -0.686   9.444
  178SOPE   C2420266   2.747  -0.576   9.263
  178SOPE   H4R20267   2.847  -0.530   9.275
  178SOPE   H4S20268   2.760  -0.680   9.226
  178SOPE   C2520269   2.663  -0.504   9.157
  178SOPE   H5R20270   2.561  -0.548   9.156
  178SOPE   H5S20271   2.653  -0.397   9.184
  178SOPE   C2620272   2.724  -0.521   9.018
  178SOPE   H6R20273   2.713  -0.626   8.985
  178SOPE   H6S20274   2.664  -0.463   8.944
  178SOPE   C2720275   2.868  -0.469   9.006
  178SOPE   H7R20276   2.872  -0.373   9.062
  178SOPE   H7S20277   2.939  -0.539   9.056
  178SOPE   C2820278   2.910  -0.446   8.860
  178SOPE   H8R20279   2.917  -0.545   8.809
  178SOPE   H8S20280   2.829  -0.390   8.809
  178SOPE   C2920281   3.038  -0.368   8.855
  178SOPE   H9120282   3.055  -0.302   8.941
  178SOPE  C21020283   3.129  -0.370   8.756
  178SOPE  H10120284   3.218  -0.306   8.765
  178SOPE  C21120285   3.121  -0.452   8.630
  178SOPE  H11R20286   3.081  -0.554   8.650
  178SOPE  H11S20287   3.223  -0.466   8.589
  178SOPE  C21220288   3.033  -0.386   8.523
  178SOPE  H12R20289   3.059  -0.278   8.512
  178SOPE  H12S20290   2.927  -0.392   8.554
  178SOPE  C21320291   3.051  -0.453   8.386
  178SOPE  H13R20292   3.041  -0.563   8.395
  178SOPE  H13S20293   3.153  -0.431   8.350
  178SOPE  C21420294   2.950  -0.403   8.282
  178SOPE  H14R20295   2.988  -0.422   8.180
  178SOPE  H14S20296   2.940  -0.292   8.293
  178SOPE  C21520297   2.811  -0.467   8.295
  178SOPE  H15R20298   2.778  -0.466   8.401
  178SOPE  H15S20299   2.814  -0.573   8.261
  178SOPE  C21620300   2.712  -0.386   8.212
  178SOPE  H16R20301   2.749  -0.378   8.108
  178SOPE  H16S20302   2.713  -0.286   8.259
  178SOPE  C21720303   2.567  -0.434   8.210
  178SOPE  H17R20304   2.503  -0.343   8.198
  178SOPE  H17S20305   2.540  -0.480   8.308
  178SOPE  C21820306   2.534  -0.528   8.095
  178SOPE  H18R20307   2.424  -0.526   8.076
  178SOPE  H18S20308   2.564  -0.632   8.119
  178SOPE  H18T20309   2.584  -0.496   8.001
  178SOPE   C3320310   2.247  -0.312   9.330
  178SOPE   H3X20311   2.143  -0.285   9.359
  178SOPE   H3Y20312   2.264  -0.419   9.356
  178SOPE   C3420313   2.265  -0.294   9.178
  178SOPE   H4X20314   2.205  -0.373   9.129
  178SOPE   H4Y20315   2.372  -0.313   9.153
  178SOPE   C3520316   2.223  -0.157   9.121
  178SOPE   H5X20317   2.256  -0.075   9.189
  178SOPE   H5Y20318   2.112  -0.153   9.116
  178SOPE   C3620319   2.279  -0.126   8.981
  178SOPE   H6X20320   2.215  -0.179   8.907
  178SOPE   H6Y20321   2.382  -0.168   8.976
  178SOPE   C3720322   2.287   0.022   8.939
  178SOPE   H7X20323   2.345   0.081   9.013
  178SOPE   H7Y20324   2.181   0.055   8.947
  178SOPE   C3820325   2.341   0.045   8.795
  178SOPE   H8X20326   2.258   0.073   8.727
  178SOPE   H8Y20327   2.373  -0.054   8.756
  178SOPE   C3920328   2.460   0.143   8.773
  178SOPE   H9X20329   2.540   0.122   8.847
  178SOPE   H9Y20330   2.428   0.248   8.789
  178SOPE  C31020331   2.523   0.126   8.632
  178SOPE  H10X20332   2.463   0.183   8.558
  178SOPE  H10Y20333   2.517   0.018   8.608
  178SOPE  C31120334   2.672   0.162   8.616
  178SOPE  H11X20335   2.729   0.102   8.689
  178SOPE  H11Y20336   2.685   0.269   8.641
  178SOPE  C31220337   2.731   0.135   8.475
  178SOPE  H12X20338   2.681   0.045   8.432
  178SOPE  H12Y20339   2.838   0.107   8.489
  178SOPE  C31320340   2.728   0.250   8.371
  178SOPE  H13X20341   2.798   0.330   8.404
  178SOPE  H13Y20342   2.626   0.293   8.366
  178SOPE  C31420343   2.768   0.198   8.231
  178SOPE  H14X20344   2.676   0.162   8.181
  178SOPE  H14Y20345   2.831   0.108   8.249
  178SOPE  C31520346   2.839   0.292   8.131
  178SOPE  H15X20347   2.846   0.394   8.175
  178SOPE  H15Y20348   2.772   0.300   8.043
  178SOPE  C31620349   2.979   0.252   8.076
  178SOPE  H16X20350   3.058   0.301   8.137
  178SOPE  H16Y20351   2.986   0.303   7.978
  178SOPE  C31720352   3.017   0.103   8.049
  178SOPE  H17X20353   3.103   0.106   7.979
  178SOPE  H17Y20354   2.934   0.056   7.992
  178SOPE  C31820355   3.061   0.006   8.160
  178SOPE  H18X20356   3.057  -0.098   8.122
  178SOPE  H18Y20357   2.998   0.011   8.251
  178SOPE  H18Z20358   3.167   0.025   8.190
  179SOPE     N20359   4.042   3.554   5.735
  179SOPE   HN120360   4.022   3.557   5.633
  179SOPE   HN220361   4.067   3.648   5.771
  179SOPE   HN320362   4.127   3.495   5.750
  179SOPE   C1220363   3.932   3.492   5.815
  179SOPE  H12A20364   3.879   3.418   5.751
  179SOPE  H12B20365   3.861   3.572   5.845
  179SOPE   C1120366   3.991   3.420   5.937
  179SOPE  H11A20367   3.908   3.378   5.997
  179SOPE  H11B20368   4.043   3.493   6.003
  179SOPE     P20369   4.234   3.320   5.904
  179SOPE   O1320370   4.272   3.429   5.811
  179SOPE   O1420371   4.293   3.188   5.876
  179SOPE   O1220372   4.076   3.313   5.896
  179SOPE   O1120373   4.262   3.366   6.052
  179SOPE    C120374   4.195   3.298   6.160
  179SOPE    HA20375   4.247   3.202   6.182
  179SOPE    HB20376   4.089   3.274   6.137
  179SOPE    C220377   4.193   3.382   6.291
  179SOPE    HS20378   4.144   3.318   6.367
  179SOPE   O2120379   4.124   3.507   6.272
  179SOPE   C2120380   3.998   3.506   6.309
  179SOPE   O2220381   3.930   3.406   6.327
  179SOPE   C2220382   3.952   3.649   6.334
  179SOPE   H2R20383   3.869   3.670   6.263
  179SOPE   H2S20384   4.035   3.720   6.316
  179SOPE    C320385   4.335   3.414   6.342
  179SOPE    HX20386   4.370   3.507   6.291
  179SOPE    HY20387   4.405   3.333   6.313
  179SOPE   O3120388   4.334   3.436   6.486
  179SOPE   C3120389   4.325   3.323   6.555
  179SOPE   O3220390   4.326   3.211   6.508
  179SOPE   C3220391   4.311   3.353   6.704
  179SOPE   H2X20392   4.217   3.305   6.737
  179SOPE   H2Y20393   4.303   3.462   6.721
  179SOPE   C2320394   3.898   3.664   6.478
  179SOPE   H3R20395   3.823   3.583   6.495
  179SOPE   H3S20396   3.844   3.761   6.489
  179SOPE   C2420397   4.003   3.652   6.590
  179SOPE   H4R20398   3.947   3.623   6.681
  179SOPE   H4S20399   4.075   3.569   6.569
  179SOPE   C2520400   4.081   3.782   6.619
  179SOPE   H5R20401   4.151   3.802   6.535
  179SOPE   H5S20402   4.008   3.865   6.621
  179SOPE   C2620403   4.157   3.782   6.753
  179SOPE   H6R20404   4.242   3.711   6.749
  179SOPE   H6S20405   4.198   3.884   6.768
  179SOPE   C2720406   4.066   3.746   6.872
  179SOPE   H7R20407   3.968   3.794   6.850
  179SOPE   H7S20408   4.050   3.636   6.873
  179SOPE   C2820409   4.114   3.792   7.010
  179SOPE   H8R20410   4.208   3.740   7.037
  179SOPE   H8S20411   4.137   3.901   7.005
  179SOPE   C2920412   4.004   3.769   7.111
  179SOPE   H9120413   3.902   3.772   7.069
  179SOPE  C21020414   4.016   3.746   7.243
  179SOPE  H10120415   3.924   3.731   7.302
  179SOPE  C21120416   4.143   3.737   7.323
  179SOPE  H11R20417   4.136   3.807   7.409
  179SOPE  H11S20418   4.231   3.770   7.264
  179SOPE  C21220419   4.171   3.595   7.377
  179SOPE  H12R20420   4.262   3.599   7.440
  179SOPE  H12S20421   4.194   3.529   7.290
  179SOPE  C21320422   4.056   3.530   7.457
  179SOPE  H13R20423   4.087   3.427   7.487
  179SOPE  H13S20424   3.968   3.519   7.391
  179SOPE  C21420425   4.013   3.607   7.583
  179SOPE  H14R20426   3.913   3.572   7.616
  179SOPE  H14S20427   4.004   3.715   7.558
  179SOPE  C21520428   4.111   3.590   7.700
  179SOPE  H15R20429   4.214   3.587   7.659
  179SOPE  H15S20430   4.093   3.494   7.753
  179SOPE  C21620431   4.106   3.708   7.799
  179SOPE  H16R20432   4.117   3.802   7.741
  179SOPE  H16S20433   4.192   3.702   7.869
  179SOPE  C21720434   3.981   3.719   7.885
  179SOPE  H17R20435   3.975   3.632   7.954
  179SOPE  H17S20436   3.890   3.718   7.821
  179SOPE  C21820437   3.986   3.849   7.965
  179SOPE  H18R20438   3.899   3.859   8.033
  179SOPE  H18S20439   3.989   3.936   7.896
  179SOPE  H18T20440   4.079   3.853   8.026
  179SOPE   C3320441   4.430   3.292   6.781
  179SOPE   H3X20442   4.515   3.364   6.780
  179SOPE   H3Y20443   4.466   3.200   6.731
  179SOPE   C3420444   4.396   3.255   6.925
  179SOPE   H4X20445   4.326   3.169   6.925
  179SOPE   H4Y20446   4.346   3.340   6.976
  179SOPE   C3520447   4.524   3.218   7.000
  179SOPE   H5X20448   4.587   3.309   7.009
  179SOPE   H5Y20449   4.582   3.144   6.940
  179SOPE   C3620450   4.503   3.159   7.140
  179SOPE   H6X20451   4.604   3.153   7.185
  179SOPE   H6Y20452   4.463   3.055   7.133
  179SOPE   C3720453   4.408   3.241   7.230
  179SOPE   H7X20454   4.303   3.220   7.201
  179SOPE   H7Y20455   4.425   3.350   7.211
  179SOPE   C3820456   4.426   3.218   7.381
  179SOPE   H8X20457   4.385   3.118   7.405
  179SOPE   H8Y20458   4.365   3.293   7.435
  179SOPE   C3920459   4.571   3.225   7.433
  179SOPE   H9X20460   4.634   3.147   7.385
  179SOPE   H9Y20461   4.569   3.197   7.540
  179SOPE  C31020462   4.641   3.362   7.421
  179SOPE  H10X20463   4.572   3.440   7.458
  179SOPE  H10Y20464   4.660   3.384   7.314
  179SOPE  C31120465   4.773   3.368   7.500
  179SOPE  H11X20466   4.859   3.362   7.430
  179SOPE  H11Y20467   4.779   3.279   7.567
  179SOPE  C31220468   4.787   3.494   7.588
  179SOPE  H12X20469   4.698   3.502   7.654
  179SOPE  H12Y20470   4.786   3.583   7.521
  179SOPE  C31320471   4.915   3.500   7.675
  179SOPE  H13X20472   4.926   3.603   7.714
  179SOPE  H13Y20473   5.001   3.480   7.608
  179SOPE  C31420474   4.921   3.402   7.795
  179SOPE  H14X20475   5.026   3.398   7.829
  179SOPE  H14Y20476   4.891   3.300   7.763
  179SOPE  C31520477   4.836   3.446   7.916
  179SOPE  H15X20478   4.728   3.438   7.890
  179SOPE  H15Y20479   4.860   3.551   7.939
  179SOPE  C31620480   4.854   3.362   8.043
  179SOPE  H16X20481   4.827   3.424   8.132
  179SOPE  H16Y20482   4.961   3.335   8.052
  179SOPE  C31720483   4.768   3.234   8.045
  179SOPE  H17X20484   4.825   3.155   8.099
  179SOPE  H17Y20485   4.753   3.198   7.941
  179SOPE  C31820486   4.634   3.250   8.116
  179SOPE  H18X20487   4.581   3.153   8.123
  179SOPE  H18Y20488   4.569   3.323   8.063
  179SOPE  H18Z20489   4.647   3.291   8.219
  180SOPE     N20490   3.991   0.705   5.824
  180SOPE   HN120491   3.956   0.611   5.853
  180SOPE   HN220492   3.941   0.782   5.873
  180SOPE   HN320493   3.968   0.724   5.724
  180SOPE   C1220494   4.139   0.725   5.842
  180SOPE  H12A20495   4.185   0.724   5.741
  180SOPE  H12B20496   4.179   0.641   5.903
  180SOPE   C1120497   4.172   0.861   5.909
  180SOPE  H11A20498   4.283   0.869   5.917
  180SOPE  H11B20499   4.133   0.863   6.013
  180SOPE     P20500   3.994   1.047   5.868
  180SOPE   O1320501   3.893   0.941   5.893
  180SOPE   O1420502   3.971   1.143   5.758
  180SOPE   O1220503   4.126   0.969   5.829
  180SOPE   O1120504   4.040   1.114   6.003
  180SOPE    C120505   4.091   1.248   6.004
  180SOPE    HA20506   4.008   1.320   5.991
  180SOPE    HB20507   4.163   1.264   5.921
  180SOPE    C220508   4.165   1.286   6.137
  180SOPE    HS20509   4.217   1.382   6.121
  180SOPE   O2120510   4.258   1.187   6.182
  180SOPE   C2120511   4.339   1.122   6.105
  180SOPE   O2220512   4.370   1.147   5.989
  180SOPE   C2220513   4.393   1.003   6.186
  180SOPE   H2R20514   4.488   1.036   6.234
  180SOPE   H2S20515   4.415   0.921   6.115
  180SOPE    C320516   4.068   1.305   6.257
  180SOPE    HX20517   3.988   1.375   6.223
  180SOPE    HY20518   4.124   1.358   6.337
  180SOPE   O3120519   4.006   1.182   6.303
  180SOPE   C3120520   4.030   1.143   6.428
  180SOPE   O3220521   4.115   1.190   6.502
  180SOPE   C3220522   3.930   1.036   6.473
  180SOPE   H2X20523   3.984   0.939   6.482
  180SOPE   H2Y20524   3.854   1.020   6.393
  180SOPE   C2320525   4.292   0.957   6.294
  180SOPE   H3R20526   4.196   0.934   6.244
  180SOPE   H3S20527   4.273   1.040   6.366
  180SOPE   C2420528   4.337   0.836   6.376
  180SOPE   H4R20529   4.366   0.756   6.305
  180SOPE   H4S20530   4.424   0.862   6.439
  180SOPE   C2520531   4.220   0.785   6.462
  180SOPE   H5R20532   4.128   0.814   6.408
  180SOPE   H5S20533   4.217   0.674   6.462
  180SOPE   C2620534   4.213   0.838   6.606
  180SOPE   H6R20535   4.267   0.934   6.617
  180SOPE   H6S20536   4.105   0.860   6.622
  180SOPE   C2720537   4.246   0.740   6.720
  180SOPE   H7R20538   4.192   0.645   6.703
  180SOPE   H7S20539   4.354   0.713   6.718
  180SOPE   C2820540   4.210   0.799   6.859
  180SOPE   H8R20541   4.275   0.887   6.879
  180SOPE   H8S20542   4.106   0.839   6.853
  180SOPE   C2920543   4.216   0.701   6.974
  180SOPE   H9120544   4.258   0.603   6.950
  180SOPE  C21020545   4.177   0.726   7.101
  180SOPE  H10120546   4.188   0.646   7.176
  180SOPE  C21120547   4.120   0.855   7.156
  180SOPE  H11R20548   4.096   0.925   7.074
  180SOPE  H11S20549   4.194   0.906   7.220
  180SOPE  C21220550   3.991   0.839   7.240
  180SOPE  H12R20551   3.917   0.780   7.181
  180SOPE  H12S20552   3.947   0.940   7.256
  180SOPE  C21320553   4.007   0.771   7.378
  180SOPE  H13R20554   4.076   0.684   7.369
  180SOPE  H13S20555   3.908   0.731   7.406
  180SOPE  C21420556   4.052   0.863   7.494
  180SOPE  H14R20557   4.053   0.969   7.460
  180SOPE  H14S20558   4.156   0.837   7.522
  180SOPE  C21520559   3.961   0.852   7.618
  180SOPE  H15R20560   3.926   0.747   7.631
  180SOPE  H15S20561   3.871   0.915   7.597
  180SOPE  C21620562   4.022   0.900   7.750
  180SOPE  H16R20563   3.948   0.960   7.807
  180SOPE  H16S20564   4.107   0.967   7.725
  180SOPE  C21720565   4.073   0.787   7.843
  180SOPE  H17R20566   4.169   0.821   7.887
  180SOPE  H17S20567   4.094   0.697   7.782
  180SOPE  C21820568   3.980   0.748   7.957
  180SOPE  H18R20569   3.887   0.701   7.919
  180SOPE  H18S20570   3.953   0.838   8.017
  180SOPE  H18T20571   4.030   0.676   8.025
  180SOPE   C3320572   3.860   1.071   6.607
  180SOPE   H3X20573   3.750   1.068   6.590
  180SOPE   H3Y20574   3.888   1.173   6.640
  180SOPE   C3420575   3.894   0.978   6.724
  180SOPE   H4X20576   4.004   0.981   6.738
  180SOPE   H4Y20577   3.862   0.874   6.698
  180SOPE   C3520578   3.833   1.017   6.860
  180SOPE   H5X20579   3.897   1.094   6.908
  180SOPE   H5Y20580   3.838   0.926   6.924
  180SOPE   C3620581   3.689   1.069   6.857
  180SOPE   H6X20582   3.633   1.022   6.774
  180SOPE   H6Y20583   3.691   1.179   6.839
  180SOPE   C3720584   3.612   1.040   6.987
  180SOPE   H7X20585   3.580   0.934   6.984
  180SOPE   H7Y20586   3.519   1.102   6.990
  180SOPE   C3820587   3.692   1.062   7.116
  180SOPE   H8X20588   3.722   1.168   7.124
  180SOPE   H8Y20589   3.784   1.000   7.114
  180SOPE   C3920590   3.613   1.021   7.241
  180SOPE   H9X20591   3.561   0.924   7.225
  180SOPE   H9Y20592   3.532   1.095   7.257
  180SOPE  C31020593   3.703   1.006   7.363
  180SOPE  H10X20594   3.784   1.082   7.354
  180SOPE  H10Y20595   3.753   0.906   7.365
  180SOPE  C31120596   3.634   1.032   7.497
  180SOPE  H11X20597   3.549   1.103   7.487
  180SOPE  H11Y20598   3.712   1.080   7.560
  180SOPE  C31220599   3.587   0.912   7.577
  180SOPE  H12X20600   3.672   0.843   7.591
  180SOPE  H12Y20601   3.506   0.859   7.522
  180SOPE  C31320602   3.537   0.957   7.714
  180SOPE  H13X20603   3.438   1.006   7.703
  180SOPE  H13Y20604   3.605   1.034   7.758
  180SOPE  C31420605   3.528   0.840   7.810
  180SOPE  H14X20606   3.528   0.746   7.750
  180SOPE  H14Y20607   3.431   0.844   7.863
  180SOPE  C31520608   3.643   0.833   7.911
  180SOPE  H15X20609   3.740   0.850   7.859
  180SOPE  H15Y20610   3.645   0.729   7.950
  180SOPE  C31620611   3.627   0.932   8.028
  180SOPE  H16X20612   3.519   0.948   8.046
  180SOPE  H16Y20613   3.670   1.030   7.999
  180SOPE  C31720614   3.688   0.884   8.161
  180SOPE  H17X20615   3.666   0.962   8.238
  180SOPE  H17Y20616   3.799   0.878   8.152
  180SOPE  C31820617   3.635   0.751   8.213
  180SOPE  H18X20618   3.524   0.752   8.213
  180SOPE  H18Y20619   3.670   0.732   8.317
  180SOPE  H18Z20620   3.669   0.667   8.150
  181SOPE     N20621   3.278   0.298   5.945
  181SOPE   HN120622   3.273   0.195   5.929
  181SOPE   HN220623   3.336   0.339   5.869
  181SOPE   HN320624   3.327   0.316   6.034
  181SOPE   C1220625   3.143   0.366   5.939
  181SOPE  H12A20626   3.082   0.324   6.022
  181SOPE  H12B20627   3.097   0.339   5.841
  181SOPE   C1120628   3.152   0.519   5.954
  181SOPE  H11A20629   3.215   0.544   6.042
  181SOPE  H11B20630   3.050   0.554   5.978
  181SOPE     P20631   3.346   0.590   5.791
  181SOPE   O1320632   3.367   0.695   5.688
  181SOPE   O1420633   3.378   0.451   5.754
  181SOPE   O1220634   3.194   0.589   5.835
  181SOPE   O1120635   3.417   0.628   5.927
  181SOPE    C120636   3.474   0.757   5.954
  181SOPE    HA20637   3.461   0.829   5.870
  181SOPE    HB20638   3.584   0.746   5.967
  181SOPE    C220639   3.420   0.824   6.084
  181SOPE    HS20640   3.469   0.923   6.092
  181SOPE   O2120641   3.454   0.740   6.195
  181SOPE   C2120642   3.477   0.805   6.309
  181SOPE   O2220643   3.511   0.921   6.320
  181SOPE   C2220644   3.427   0.715   6.421
  181SOPE   H2R20645   3.411   0.613   6.380
  181SOPE   H2S20646   3.328   0.756   6.451
  181SOPE    C320647   3.265   0.846   6.080
  181SOPE    HX20648   3.221   0.755   6.034
  181SOPE    HY20649   3.242   0.930   6.011
  181SOPE   O3120650   3.210   0.875   6.211
  181SOPE   C3120651   3.113   0.795   6.255
  181SOPE   O3220652   3.059   0.707   6.190
  181SOPE   C3220653   3.083   0.823   6.403
  181SOPE   H2X20654   2.985   0.875   6.411
  181SOPE   H2Y20655   3.160   0.895   6.437
  181SOPE   C2320656   3.511   0.705   6.548
  181SOPE   H3R20657   3.493   0.795   6.611
  181SOPE   H3S20658   3.620   0.704   6.525
  181SOPE   C2420659   3.470   0.576   6.621
  181SOPE   H4R20660   3.361   0.560   6.604
  181SOPE   H4S20661   3.524   0.490   6.575
  181SOPE   C2520662   3.493   0.580   6.771
  181SOPE   H5R20663   3.588   0.529   6.797
  181SOPE   H5S20664   3.501   0.687   6.799
  181SOPE   C2620665   3.377   0.525   6.857
  181SOPE   H6R20666   3.397   0.556   6.962
  181SOPE   H6S20667   3.282   0.572   6.825
  181SOPE   C2720668   3.355   0.374   6.855
  181SOPE   H7R20669   3.288   0.349   6.770
  181SOPE   H7S20670   3.452   0.323   6.837
  181SOPE   C2820671   3.293   0.323   6.987
  181SOPE   H8R20672   3.214   0.395   7.018
  181SOPE   H8S20673   3.246   0.225   6.966
  181SOPE   C2920674   3.394   0.304   7.095
  181SOPE   H9120675   3.495   0.336   7.068
  181SOPE  C21020676   3.373   0.252   7.217
  181SOPE  H10120677   3.459   0.241   7.285
  181SOPE  C21120678   3.243   0.204   7.275
  181SOPE  H11R20679   3.222   0.098   7.250
  181SOPE  H11S20680   3.158   0.265   7.236
  181SOPE  C21220681   3.246   0.222   7.428
  181SOPE  H12R20682   3.140   0.220   7.462
  181SOPE  H12S20683   3.287   0.322   7.453
  181SOPE  C21320684   3.325   0.115   7.506
  181SOPE  H13R20685   3.428   0.107   7.467
  181SOPE  H13S20686   3.275   0.017   7.490
  181SOPE  C21420687   3.331   0.140   7.658
  181SOPE  H14R20688   3.402   0.223   7.677
  181SOPE  H14S20689   3.371   0.050   7.709
  181SOPE  C21520690   3.196   0.179   7.720
  181SOPE  H15R20691   3.166   0.274   7.671
  181SOPE  H15S20692   3.208   0.201   7.829
  181SOPE  C21620693   3.079   0.085   7.695
  181SOPE  H16R20694   3.083   0.006   7.773
  181SOPE  H16S20695   3.088   0.038   7.595
  181SOPE  C21720696   2.938   0.145   7.705
  181SOPE  H17R20697   2.915   0.161   7.813
  181SOPE  H17S20698   2.871   0.067   7.664
  181SOPE  C21820699   2.905   0.276   7.635
  181SOPE  H18R20700   2.795   0.295   7.639
  181SOPE  H18S20701   2.936   0.275   7.529
  181SOPE  H18T20702   2.954   0.360   7.689
  181SOPE   C3320703   3.083   0.691   6.486
  181SOPE   H3X20704   3.163   0.624   6.449
  181SOPE   H3Y20705   2.987   0.638   6.467
  181SOPE   C3420706   3.103   0.701   6.639
  181SOPE   H4X20707   3.134   0.601   6.676
  181SOPE   H4Y20708   3.003   0.716   6.686
  181SOPE   C3520709   3.203   0.806   6.692
  181SOPE   H5X20710   3.216   0.891   6.623
  181SOPE   H5Y20711   3.303   0.757   6.702
  181SOPE   C3620712   3.173   0.870   6.829
  181SOPE   H6X20713   3.084   0.937   6.821
  181SOPE   H6Y20714   3.258   0.935   6.857
  181SOPE   C3720715   3.147   0.772   6.941
  181SOPE   H7X20716   3.239   0.712   6.960
  181SOPE   H7Y20717   3.064   0.702   6.914
  181SOPE   C3820718   3.115   0.842   7.072
  181SOPE   H8X20719   3.021   0.900   7.060
  181SOPE   H8Y20720   3.197   0.912   7.099
  181SOPE   C3920721   3.098   0.740   7.184
  181SOPE   H9X20722   3.042   0.652   7.145
  181SOPE   H9Y20723   3.033   0.786   7.261
  181SOPE  C31020724   3.229   0.695   7.249
  181SOPE  H10X20725   3.300   0.665   7.169
  181SOPE  H10Y20726   3.210   0.601   7.304
  181SOPE  C31120727   3.300   0.794   7.345
  181SOPE  H11X20728   3.362   0.858   7.279
  181SOPE  H11Y20729   3.369   0.735   7.409
  181SOPE  C31220730   3.218   0.891   7.435
  181SOPE  H12X20731   3.118   0.910   7.388
  181SOPE  H12Y20732   3.273   0.988   7.430
  181SOPE  C31320733   3.199   0.857   7.585
  181SOPE  H13X20734   3.296   0.864   7.639
  181SOPE  H13Y20735   3.171   0.749   7.588
  181SOPE  C31420736   3.087   0.935   7.662
  181SOPE  H14X20737   3.005   0.960   7.591
  181SOPE  H14Y20738   3.127   1.032   7.697
  181SOPE  C31520739   3.024   0.878   7.793
  181SOPE  H15X20740   2.951   0.954   7.828
  181SOPE  H15Y20741   3.107   0.877   7.867
  181SOPE  C31620742   2.950   0.744   7.802
  181SOPE  H16X20743   2.975   0.697   7.899
  181SOPE  H16Y20744   2.988   0.672   7.726
  181SOPE  C31720745   2.796   0.746   7.791
  181SOPE  H17X20746   2.769   0.771   7.686
  181SOPE  H17Y20747   2.754   0.828   7.853
  181SOPE  C31820748   2.728   0.614   7.827
  181SOPE  H18X20749   2.617   0.625   7.821
  181SOPE  H18Y20750   2.755   0.582   7.930
  181SOPE  H18Z20751   2.758   0.534   7.757
  182SOPE     N20752   4.655   0.893   5.611
  182SOPE   HN120753   4.751   0.931   5.626
  182SOPE   HN220754   4.668   0.823   5.536
  182SOPE   HN320755   4.595   0.969   5.574
  182SOPE   C1220756   4.604   0.825   5.735
  182SOPE  H12A20757   4.504   0.783   5.713
  182SOPE  H12B20758   4.594   0.901   5.816
  182SOPE   C1120759   4.701   0.714   5.778
  182SOPE  H11A20760   4.800   0.757   5.800
  182SOPE  H11B20761   4.712   0.641   5.695
  182SOPE     P20762   4.726   0.521   5.951
  182SOPE   O1320763   4.865   0.557   5.987
  182SOPE   O1420764   4.709   0.406   5.859
  182SOPE   O1220765   4.649   0.648   5.893
  182SOPE   O1120766   4.641   0.491   6.081
  182SOPE    C120767   4.500   0.468   6.069
  182SOPE    HA20768   4.469   0.450   5.964
  182SOPE    HB20769   4.445   0.558   6.103
  182SOPE    C220770   4.458   0.339   6.147
  182SOPE    HS20771   4.358   0.308   6.108
  182SOPE   O2120772   4.451   0.360   6.288
  182SOPE   C2120773   4.378   0.459   6.332
  182SOPE   O2220774   4.278   0.503   6.276
  182SOPE   C2220775   4.443   0.510   6.460
  182SOPE   H2R20776   4.461   0.423   6.526
  182SOPE   H2S20777   4.375   0.578   6.516
  182SOPE    C320778   4.559   0.223   6.123
  182SOPE    HX20779   4.599   0.233   6.020
  182SOPE    HY20780   4.504   0.128   6.130
  182SOPE   O3120781   4.662   0.224   6.225
  182SOPE   C3120782   4.789   0.243   6.192
  182SOPE   O3220783   4.836   0.231   6.080
  182SOPE   C3220784   4.868   0.281   6.317
  182SOPE   H2X20785   4.819   0.373   6.357
  182SOPE   H2Y20786   4.971   0.308   6.286
  182SOPE   C2320787   4.578   0.580   6.432
  182SOPE   H3R20788   4.565   0.674   6.373
  182SOPE   H3S20789   4.641   0.512   6.372
  182SOPE   C2420790   4.652   0.610   6.563
  182SOPE   H4R20791   4.628   0.531   6.637
  182SOPE   H4S20792   4.761   0.607   6.544
  182SOPE   C2520793   4.623   0.747   6.626
  182SOPE   H5R20794   4.675   0.823   6.564
  182SOPE   H5S20795   4.514   0.771   6.619
  182SOPE   C2620796   4.670   0.754   6.772
  182SOPE   H6R20797   4.739   0.670   6.793
  182SOPE   H6S20798   4.729   0.847   6.786
  182SOPE   C2720799   4.557   0.753   6.877
  182SOPE   H7R20800   4.488   0.837   6.857
  182SOPE   H7S20801   4.502   0.657   6.867
  182SOPE   C2820802   4.610   0.766   7.022
  182SOPE   H8R20803   4.695   0.695   7.028
  182SOPE   H8S20804   4.649   0.869   7.036
  182SOPE   C2920805   4.516   0.727   7.133
  182SOPE   H9120806   4.487   0.620   7.130
  182SOPE  C21020807   4.465   0.802   7.233
  182SOPE  H10120808   4.399   0.752   7.305
  182SOPE  C21120809   4.486   0.948   7.263
  182SOPE  H11R20810   4.388   0.995   7.289
  182SOPE  H11S20811   4.524   1.003   7.174
  182SOPE  C21220812   4.582   0.976   7.380
  182SOPE  H12R20813   4.579   1.084   7.406
  182SOPE  H12S20814   4.685   0.955   7.343
  182SOPE  C21320815   4.561   0.892   7.508
  182SOPE  H13R20816   4.547   0.786   7.480
  182SOPE  H13S20817   4.471   0.928   7.562
  182SOPE  C21420818   4.685   0.895   7.598
  182SOPE  H14R20819   4.725   0.999   7.600
  182SOPE  H14S20820   4.759   0.829   7.547
  182SOPE  C21520821   4.675   0.846   7.743
  182SOPE  H15R20822   4.658   0.736   7.746
  182SOPE  H15S20823   4.590   0.895   7.795
  182SOPE  C21620824   4.807   0.879   7.815
  182SOPE  H16R20825   4.813   0.989   7.825
  182SOPE  H16S20826   4.892   0.846   7.750
  182SOPE  C21720827   4.828   0.818   7.954
  182SOPE  H17R20828   4.931   0.844   7.987
  182SOPE  H17S20829   4.823   0.707   7.949
  182SOPE  C21820830   4.729   0.868   8.058
  182SOPE  H18R20831   4.759   0.833   8.159
  182SOPE  H18S20832   4.627   0.831   8.036
  182SOPE  H18T20833   4.728   0.979   8.059
  182SOPE   C3320834   4.871   0.168   6.423
  182SOPE   H3X20835   4.939   0.087   6.391
  182SOPE   H3Y20836   4.769   0.125   6.433
  182SOPE   C3420837   4.910   0.216   6.564
  182SOPE   H4X20838   5.016   0.250   6.566
  182SOPE   H4Y20839   4.901   0.130   6.634
  182SOPE   C3520840   4.819   0.329   6.614
  182SOPE   H5X20841   4.716   0.311   6.576
  182SOPE   H5Y20842   4.855   0.424   6.570
  182SOPE   C3620843   4.812   0.343   6.766
  182SOPE   H6X20844   4.780   0.247   6.812
  182SOPE   H6Y20845   4.735   0.419   6.792
  182SOPE   C3720846   4.945   0.388   6.828
  182SOPE   H7X20847   4.983   0.475   6.769
  182SOPE   H7Y20848   5.020   0.307   6.820
  182SOPE   C3820849   4.930   0.432   6.974
  182SOPE   H8X20850   4.854   0.513   6.980
  182SOPE   H8Y20851   5.027   0.474   7.008
  182SOPE   C3920852   4.891   0.318   7.069
  182SOPE   H9X20853   4.962   0.234   7.054
  182SOPE   H9Y20854   4.789   0.281   7.047
  182SOPE  C31020855   4.898   0.362   7.216
  182SOPE  H10X20856   4.991   0.420   7.231
  182SOPE  H10Y20857   4.904   0.273   7.282
  182SOPE  C31120858   4.778   0.447   7.261
  182SOPE  H11X20859   4.695   0.380   7.291
  182SOPE  H11Y20860   4.741   0.508   7.175
  182SOPE  C31220861   4.812   0.543   7.375
  182SOPE  H12X20862   4.719   0.597   7.404
  182SOPE  H12Y20863   4.886   0.618   7.341
  182SOPE  C31320864   4.873   0.475   7.498
  182SOPE  H13X20865   4.982   0.459   7.483
  182SOPE  H13Y20866   4.826   0.374   7.507
  182SOPE  C31420867   4.846   0.555   7.627
  182SOPE  H14X20868   4.741   0.589   7.623
  182SOPE  H14Y20869   4.912   0.645   7.628
  182SOPE  C31520870   4.864   0.475   7.756
  182SOPE  H15X20871   4.796   0.387   7.754
  182SOPE  H15Y20872   4.830   0.535   7.843
  182SOPE  C31620873   5.007   0.427   7.782
  182SOPE  H16X20874   5.058   0.407   7.685
  182SOPE  H16Y20875   5.004   0.331   7.838
  182SOPE  C31720876   5.086   0.530   7.864
  182SOPE  H17X20877   5.034   0.628   7.862
  182SOPE  H17Y20878   5.184   0.547   7.814
  182SOPE  C31820879   5.107   0.485   8.009
  182SOPE  H18X20880   5.171   0.558   8.064
  182SOPE  H18Y20881   5.157   0.386   8.012
  182SOPE  H18Z20882   5.009   0.477   8.061
  183SOPE     N20883   6.730   4.968   5.697
  183SOPE   HN120884   6.661   4.984   5.774
  183SOPE   HN220885   6.673   4.973   5.610
  183SOPE   HN320886   6.773   4.873   5.703
  183SOPE   C1220887   6.835   5.075   5.705
  183SOPE  H12A20888   6.879   5.088   5.604
  183SOPE  H12B20889   6.913   5.039   5.776
  183SOPE   C1120890   6.777   5.206   5.759
  183SOPE  H11A20891   6.701   5.246   5.688
  183SOPE  H11B20892   6.858   5.282   5.764
  183SOPE     P20893   6.572   5.182   5.919
  183SOPE   O1320894   6.525   5.066   5.839
  183SOPE   O1420895   6.516   5.315   5.888
  183SOPE   O1220896   6.727   5.188   5.891
  183SOPE   O1120897   6.566   5.147   6.073
  183SOPE    C120898   6.687   5.139   6.149
  183SOPE    HA20899   6.729   5.240   6.164
  183SOPE    HB20900   6.763   5.075   6.098
  183SOPE    C220901   6.663   5.075   6.289
  183SOPE    HS20902   6.627   4.972   6.271
  183SOPE   O2120903   6.567   5.155   6.361
  183SOPE   C2120904   6.480   5.086   6.435
  183SOPE   O2220905   6.479   4.965   6.449
  183SOPE   C2220906   6.387   5.184   6.507
  183SOPE   H2R20907   6.318   5.225   6.429
  183SOPE   H2S20908   6.448   5.268   6.546
  183SOPE    C320909   6.799   5.068   6.365
  183SOPE    HX20910   6.847   5.168   6.356
  183SOPE    HY20911   6.865   4.995   6.314
  183SOPE   O3120912   6.778   5.027   6.501
  183SOPE   C3120913   6.803   5.117   6.594
  183SOPE   O3220914   6.879   5.212   6.584
  183SOPE   C3220915   6.705   5.092   6.706
  183SOPE   H2X20916   6.714   4.990   6.747
  183SOPE   H2Y20917   6.608   5.098   6.653
  183SOPE   C2320918   6.303   5.121   6.622
  183SOPE   H3R20919   6.258   5.026   6.586
  183SOPE   H3S20920   6.221   5.191   6.647
  183SOPE   C2420921   6.384   5.095   6.750
  183SOPE   H4R20922   6.449   5.006   6.732
  183SOPE   H4S20923   6.445   5.186   6.766
  183SOPE   C2520924   6.308   5.069   6.879
  183SOPE   H5R20925   6.252   5.161   6.905
  183SOPE   H5S20926   6.235   4.987   6.863
  183SOPE   C2620927   6.395   5.026   6.999
  183SOPE   H6R20928   6.481   5.096   7.014
  183SOPE   H6S20929   6.333   5.034   7.091
  183SOPE   C2720930   6.444   4.880   6.994
  183SOPE   H7R20931   6.363   4.818   6.952
  183SOPE   H7S20932   6.531   4.872   6.926
  183SOPE   C2820933   6.477   4.822   7.134
  183SOPE   H8R20934   6.384   4.822   7.194
  183SOPE   H8S20935   6.505   4.715   7.121
  183SOPE   C2920936   6.589   4.895   7.204
  183SOPE   H9120937   6.687   4.887   7.154
  183SOPE  C21020938   6.582   4.967   7.318
  183SOPE  H10120939   6.674   5.015   7.354
  183SOPE  C21120940   6.461   4.994   7.404
  183SOPE  H11R20941   6.369   4.951   7.359
  183SOPE  H11S20942   6.446   5.104   7.411
  183SOPE  C21220943   6.471   4.939   7.549
  183SOPE  H12R20944   6.506   4.834   7.544
  183SOPE  H12S20945   6.370   4.938   7.595
  183SOPE  C21320946   6.564   5.020   7.640
  183SOPE  H13R20947   6.655   5.047   7.582
  183SOPE  H13S20948   6.598   4.955   7.724
  183SOPE  C21420949   6.502   5.147   7.701
  183SOPE  H14R20950   6.434   5.120   7.784
  183SOPE  H14S20951   6.445   5.201   7.622
  183SOPE  C21520952   6.613   5.240   7.750
  183SOPE  H15R20953   6.667   5.271   7.658
  183SOPE  H15S20954   6.682   5.181   7.815
  183SOPE  C21620955   6.579   5.372   7.821
  183SOPE  H16R20956   6.484   5.410   7.778
  183SOPE  H16S20957   6.654   5.448   7.789
  183SOPE  C21720958   6.579   5.372   7.975
  183SOPE  H17R20959   6.480   5.339   8.011
  183SOPE  H17S20960   6.593   5.478   8.008
  183SOPE  C21820961   6.684   5.286   8.047
  183SOPE  H18R20962   6.678   5.300   8.157
  183SOPE  H18S20963   6.788   5.311   8.016
  183SOPE  H18T20964   6.667   5.178   8.025
  183SOPE   C3320965   6.704   5.197   6.818
  183SOPE   H3X20966   6.609   5.185   6.875
  183SOPE   H3Y20967   6.706   5.300   6.778
  183SOPE   C3420968   6.812   5.173   6.922
  183SOPE   H4X20969   6.911   5.203   6.880
  183SOPE   H4Y20970   6.817   5.066   6.948
  183SOPE   C3520971   6.780   5.253   7.048
  183SOPE   H5X20972   6.846   5.215   7.128
  183SOPE   H5Y20973   6.676   5.229   7.081
  183SOPE   C3620974   6.799   5.404   7.031
  183SOPE   H6X20975   6.702   5.450   7.002
  183SOPE   H6Y20976   6.869   5.417   6.945
  183SOPE   C3720977   6.862   5.480   7.148
  183SOPE   H7X20978   6.855   5.588   7.125
  183SOPE   H7Y20979   6.970   5.454   7.153
  183SOPE   C3820980   6.801   5.455   7.287
  183SOPE   H8X20981   6.835   5.535   7.356
  183SOPE   H8Y20982   6.844   5.361   7.329
  183SOPE   C3920983   6.649   5.442   7.291
  183SOPE   H9X20984   6.619   5.392   7.386
  183SOPE   H9Y20985   6.612   5.375   7.210
  183SOPE  C31020986   6.580   5.577   7.278
  183SOPE  H10X20987   6.471   5.560   7.263
  183SOPE  H10Y20988   6.618   5.630   7.188
  183SOPE  C31120989   6.597   5.665   7.402
  183SOPE  H11X20990   6.538   5.757   7.384
  183SOPE  H11Y20991   6.703   5.693   7.417
  183SOPE  C31220992   6.545   5.598   7.530
  183SOPE  H12X20993   6.606   5.510   7.556
  183SOPE  H12Y20994   6.441   5.563   7.508
  183SOPE  C31320995   6.543   5.695   7.648
  183SOPE  H13X20996   6.596   5.788   7.618
  183SOPE  H13Y20997   6.598   5.653   7.735
  183SOPE  C31420998   6.400   5.732   7.689
  183SOPE  H14X20999   6.338   5.746   7.598
  183SOPE  H14Y21000   6.407   5.832   7.737
  183SOPE  C31521001   6.333   5.635   7.788
  183SOPE  H15X21002   6.254   5.693   7.840
  183SOPE  H15Y21003   6.408   5.605   7.864
  183SOPE  C31621004   6.267   5.510   7.726
  183SOPE  H16X21005   6.336   5.463   7.653
  183SOPE  H16Y21006   6.176   5.536   7.669
  183SOPE  C31721007   6.233   5.403   7.832
  183SOPE  H17X21008   6.152   5.436   7.901
  183SOPE  H17Y21009   6.322   5.389   7.898
  183SOPE  C31821010   6.196   5.267   7.775
  183SOPE  H18X21011   6.088   5.264   7.749
  183SOPE  H18Y21012   6.217   5.188   7.849
  183SOPE  H18Z21013   6.253   5.246   7.682
  184SOPE     N21014   4.758   0.091   5.849
  184SOPE   HN121015   4.796   0.176   5.894
  184SOPE   HN221016   4.820   0.059   5.771
  184SOPE   HN321017   4.668   0.117   5.805
  184SOPE   C1221018   4.741  -0.020   5.951
  184SOPE  H12A21019   4.717   0.025   6.049
  184SOPE  H12B21020   4.839  -0.072   5.960
  184SOPE   C1121021   4.627  -0.116   5.915
  184SOPE  H11A21022   4.532  -0.058   5.909
  184SOPE  H11B21023   4.614  -0.189   5.997
  184SOPE     P21024   4.738  -0.312   5.787
  184SOPE   O1321025   4.836  -0.307   5.896
  184SOPE   O1421026   4.792  -0.321   5.649
  184SOPE   O1221027   4.651  -0.179   5.789
  184SOPE   O1121028   4.633  -0.426   5.812
  184SOPE    C121029   4.491  -0.406   5.808
  184SOPE    HA21030   4.451  -0.460   5.719
  184SOPE    HB21031   4.459  -0.301   5.800
  184SOPE    C221032   4.419  -0.464   5.933
  184SOPE    HS21033   4.311  -0.463   5.904
  184SOPE   O2121034   4.445  -0.380   6.049
  184SOPE   C2121035   4.339  -0.348   6.123
  184SOPE   O2221036   4.223  -0.356   6.087
  184SOPE   C2221037   4.378  -0.304   6.265
  184SOPE   H2R21038   4.459  -0.372   6.300
  184SOPE   H2S21039   4.290  -0.324   6.329
  184SOPE    C321040   4.459  -0.613   5.955
  184SOPE    HX21041   4.484  -0.655   5.856
  184SOPE    HY21042   4.372  -0.673   5.992
  184SOPE   O3121043   4.572  -0.630   6.041
  184SOPE   C3121044   4.542  -0.618   6.171
  184SOPE   O3221045   4.429  -0.608   6.217
  184SOPE   C3221046   4.673  -0.608   6.247
  184SOPE   H2X21047   4.756  -0.605   6.174
  184SOPE   H2Y21048   4.681  -0.701   6.308
  184SOPE   C2321049   4.424  -0.157   6.277
  184SOPE   H3R21050   4.350  -0.092   6.226
  184SOPE   H3S21051   4.521  -0.145   6.223
  184SOPE   C2421052   4.443  -0.106   6.421
  184SOPE   H4R21053   4.352  -0.117   6.484
  184SOPE   H4S21054   4.519  -0.164   6.478
  184SOPE   C2521055   4.483   0.042   6.419
  184SOPE   H5R21056   4.588   0.048   6.382
  184SOPE   H5S21057   4.419   0.093   6.344
  184SOPE   C2621058   4.469   0.122   6.549
  184SOPE   H6R21059   4.496   0.225   6.520
  184SOPE   H6S21060   4.363   0.126   6.584
  184SOPE   C2721061   4.562   0.086   6.666
  184SOPE   H7R21062   4.665   0.068   6.628
  184SOPE   H7S21063   4.568   0.177   6.731
  184SOPE   C2821064   4.520  -0.031   6.758
  184SOPE   H8R21065   4.537  -0.126   6.704
  184SOPE   H8S21066   4.591  -0.031   6.844
  184SOPE   C2921067   4.379  -0.026   6.810
  184SOPE   H9121068   4.310  -0.097   6.761
  184SOPE  C21021069   4.331   0.050   6.911
  184SOPE  H10121070   4.225   0.039   6.939
  184SOPE  C21121071   4.408   0.149   6.994
  184SOPE  H11R21072   4.349   0.242   7.007
  184SOPE  H11S21073   4.503   0.178   6.945
  184SOPE  C21221074   4.442   0.094   7.134
  184SOPE  H12R21075   4.506   0.168   7.186
  184SOPE  H12S21076   4.502   0.001   7.123
  184SOPE  C21321077   4.319   0.065   7.223
  184SOPE  H13R21078   4.253  -0.008   7.173
  184SOPE  H13S21079   4.262   0.160   7.237
  184SOPE  C21421080   4.359   0.009   7.360
  184SOPE  H14R21081   4.434   0.077   7.406
  184SOPE  H14S21082   4.407  -0.090   7.344
  184SOPE  C21521083   4.242  -0.007   7.458
  184SOPE  H15R21084   4.158  -0.054   7.404
  184SOPE  H15S21085   4.209   0.093   7.492
  184SOPE  C21621086   4.275  -0.093   7.581
  184SOPE  H16R21087   4.323  -0.188   7.547
  184SOPE  H16S21088   4.181  -0.120   7.633
  184SOPE  C21721089   4.370  -0.028   7.682
  184SOPE  H17R21090   4.325   0.066   7.720
  184SOPE  H17S21091   4.464  -0.001   7.629
  184SOPE  C21821092   4.404  -0.120   7.800
  184SOPE  H18R21093   4.311  -0.149   7.855
  184SOPE  H18S21094   4.473  -0.070   7.871
  184SOPE  H18T21095   4.453  -0.213   7.764
  184SOPE   C3321096   4.690  -0.484   6.337
  184SOPE   H3X21097   4.769  -0.507   6.412
  184SOPE   H3Y21098   4.600  -0.464   6.398
  184SOPE   C3421099   4.741  -0.362   6.259
  184SOPE   H4X21100   4.665  -0.333   6.184
  184SOPE   H4Y21101   4.835  -0.385   6.205
  184SOPE   C3521102   4.766  -0.245   6.355
  184SOPE   H5X21103   4.680  -0.246   6.425
  184SOPE   H5Y21104   4.768  -0.147   6.302
  184SOPE   C3621105   4.890  -0.259   6.444
  184SOPE   H6X21106   4.976  -0.206   6.397
  184SOPE   H6Y21107   4.920  -0.366   6.453
  184SOPE   C3721108   4.864  -0.205   6.585
  184SOPE   H7X21109   4.772  -0.252   6.626
  184SOPE   H7Y21110   4.847  -0.096   6.579
  184SOPE   C3821111   4.980  -0.235   6.680
  184SOPE   H8X21112   5.074  -0.208   6.629
  184SOPE   H8Y21113   4.984  -0.344   6.701
  184SOPE   C3921114   4.971  -0.157   6.811
  184SOPE   H9X21115   4.963  -0.048   6.789
  184SOPE   H9Y21116   5.067  -0.172   6.865
  184SOPE  C31021117   4.857  -0.200   6.904
  184SOPE  H10X21118   4.870  -0.307   6.929
  184SOPE  H10Y21119   4.759  -0.188   6.854
  184SOPE  C31121120   4.858  -0.117   7.034
  184SOPE  H11X21121   4.826  -0.013   7.012
  184SOPE  H11Y21122   4.963  -0.114   7.069
  184SOPE  C31221123   4.773  -0.176   7.148
  184SOPE  H12X21124   4.813  -0.276   7.173
  184SOPE  H12Y21125   4.668  -0.187   7.114
  184SOPE  C31321126   4.778  -0.087   7.273
  184SOPE  H13X21127   4.729   0.010   7.250
  184SOPE  H13Y21128   4.885  -0.066   7.296
  184SOPE  C31421129   4.713  -0.152   7.396
  184SOPE  H14X21130   4.757  -0.253   7.410
  184SOPE  H14Y21131   4.604  -0.166   7.375
  184SOPE  C31521132   4.729  -0.075   7.529
  184SOPE  H15X21133   4.829  -0.096   7.573
  184SOPE  H15Y21134   4.654  -0.113   7.601
  184SOPE  C31621135   4.718   0.078   7.517
  184SOPE  H16X21136   4.615   0.105   7.484
  184SOPE  H16Y21137   4.788   0.115   7.440
  184SOPE  C31721138   4.749   0.155   7.646
  184SOPE  H17X21139   4.716   0.259   7.626
  184SOPE  H17Y21140   4.859   0.155   7.661
  184SOPE  C31821141   4.682   0.110   7.776
  184SOPE  H18X21142   4.720   0.170   7.861
  184SOPE  H18Y21143   4.701   0.003   7.797
  184SOPE  H18Z21144   4.572   0.127   7.770
  185SAPI   C1221145   5.854   2.148  10.270
  185SAPI    H221146   5.903   2.124  10.173
  185SAPI    O221147   5.715   2.119  10.258
  185SAPI   HO221148   5.699   2.068  10.178
  185SAPI   C1321149   5.915   2.061  10.379
  185SAPI    H321150   6.022   2.091  10.388
  185SAPI    O321151   5.917   1.922  10.347
  185SAPI   HO321152   5.843   1.898  10.292
  185SAPI   C1421153   5.846   2.090  10.512
  185SAPI    H421154   5.738   2.066  10.502
  185SAPI    O421155   5.901   2.006  10.615
  185SAPI   HO421156   5.923   1.924  10.571
  185SAPI   C1521157   5.863   2.238  10.545
  185SAPI    H521158   5.972   2.258  10.556
  185SAPI    O521159   5.801   2.272  10.670
  185SAPI   HO521160   5.710   2.295  10.649
  185SAPI   C1621161   5.811   2.329  10.434
  185SAPI    H621162   5.701   2.315  10.423
  185SAPI    O621163   5.835   2.465  10.469
  185SAPI   HO621164   5.832   2.516  10.388
  185SAPI   C1121165   5.878   2.295  10.302
  185SAPI    H121166   5.988   2.308  10.313
  185SAPI     P21167   5.902   2.514  10.145
  185SAPI   O1321168   6.045   2.488  10.120
  185SAPI   O1421169   5.875   2.615  10.250
  185SAPI   O1221170   5.829   2.375  10.194
  185SAPI   O1121171   5.821   2.552  10.013
  185SAPI    C121172   5.678   2.533  10.011
  185SAPI    HA21173   5.654   2.427   9.988
  185SAPI    HB21174   5.633   2.557  10.110
  185SAPI    C221175   5.602   2.624   9.908
  185SAPI    HS21176   5.498   2.630   9.946
  185SAPI   O2121177   5.604   2.562   9.778
  185SAPI   C2121178   5.509   2.607   9.696
  185SAPI   O2221179   5.412   2.671   9.732
  185SAPI   C2221180   5.539   2.567   9.551
  185SAPI   H2R21181   5.649   2.560   9.538
  185SAPI   H2S21182   5.495   2.466   9.535
  185SAPI    C321183   5.660   2.770   9.902
  185SAPI    HX21184   5.652   2.812  10.004
  185SAPI    HY21185   5.596   2.833   9.836
  185SAPI   O3121186   5.799   2.772   9.863
  185SAPI   C3121187   5.819   2.758   9.732
  185SAPI   O3221188   5.741   2.791   9.645
  185SAPI   C3221189   5.955   2.693   9.709
  185SAPI   H2X21190   5.949   2.586   9.738
  185SAPI   H2Y21191   6.028   2.742   9.778
  185SAPI   C2321192   5.480   2.669   9.450
  185SAPI   H3R21193   5.528   2.768   9.464
  185SAPI   H3S21194   5.372   2.682   9.473
  185SAPI   C2421195   5.490   2.624   9.302
  185SAPI   H4R21196   5.403   2.670   9.250
  185SAPI   H4S21197   5.476   2.514   9.298
  185SAPI   C2521198   5.617   2.662   9.232
  185SAPI   H5R21199   5.708   2.655   9.294
  185SAPI   C2621200   5.628   2.698   9.102
  185SAPI   H6R21201   5.727   2.722   9.062
  185SAPI   C2721202   5.514   2.707   9.003
  185SAPI   H7R21203   5.476   2.811   9.006
  185SAPI   H7S21204   5.429   2.644   9.037
  185SAPI   C2821205   5.537   2.672   8.857
  185SAPI   H8R21206   5.481   2.737   8.788
  185SAPI   C2921207   5.614   2.576   8.802
  185SAPI   H9R21208   5.616   2.568   8.692
  185SAPI  C21021209   5.701   2.474   8.871
  185SAPI  H10R21210   5.707   2.491   8.980
  185SAPI  H10S21211   5.805   2.485   8.833
  185SAPI  C21121212   5.653   2.333   8.852
  185SAPI  H11R21213   5.554   2.313   8.898
  185SAPI  C21221214   5.713   2.229   8.794
  185SAPI  H12R21215   5.660   2.133   8.793
  185SAPI  C21321216   5.850   2.232   8.732
  185SAPI  H13R21217   5.927   2.215   8.810
  185SAPI  H13S21218   5.871   2.331   8.687
  185SAPI  C21421219   5.856   2.122   8.630
  185SAPI  H14R21220   5.865   2.021   8.673
  185SAPI  C21521221   5.850   2.133   8.497
  185SAPI  H15R21222   5.861   2.042   8.436
  185SAPI  C21621223   5.834   2.260   8.417
  185SAPI  H16R21224   5.933   2.282   8.372
  185SAPI  H16S21225   5.807   2.347   8.479
  185SAPI  C21721226   5.731   2.244   8.303
  185SAPI  H17R21227   5.725   2.137   8.272
  185SAPI  H17S21228   5.764   2.298   8.211
  185SAPI  C21821229   5.591   2.295   8.334
  185SAPI  H18R21230   5.557   2.247   8.429
  185SAPI  H18S21231   5.523   2.261   8.253
  185SAPI  C21921232   5.576   2.449   8.344
  185SAPI  H19R21233   5.616   2.482   8.443
  185SAPI  H19S21234   5.467   2.472   8.343
  185SAPI  C22021235   5.638   2.533   8.233
  185SAPI  H20R21236   5.627   2.483   8.134
  185SAPI  H20S21237   5.746   2.550   8.254
  185SAPI  H20T21238   5.589   2.632   8.228
  185SAPI   C3321239   6.006   2.707   9.564
  185SAPI   H3X21240   6.117   2.703   9.566
  185SAPI   H3Y21241   5.975   2.806   9.523
  185SAPI   C3421242   5.957   2.598   9.467
  185SAPI   H4X21243   5.847   2.603   9.459
  185SAPI   H4Y21244   5.985   2.499   9.508
  185SAPI   C3521245   6.020   2.613   9.328
  185SAPI   H5X21246   5.985   2.529   9.265
  185SAPI   H5Y21247   6.131   2.604   9.337
  185SAPI   C3621248   5.988   2.747   9.258
  185SAPI   H6X21249   6.019   2.831   9.324
  185SAPI   H6Y21250   5.878   2.755   9.245
  185SAPI   C3721251   6.057   2.767   9.122
  185SAPI   H7X21252   6.164   2.791   9.139
  185SAPI   H7Y21253   6.010   2.854   9.072
  185SAPI   C3821254   6.047   2.643   9.033
  185SAPI   H8X21255   5.944   2.602   9.039
  185SAPI   H8Y21256   6.116   2.566   9.071
  185SAPI   C3921257   6.079   2.671   8.886
  185SAPI   H9X21258   6.175   2.727   8.877
  185SAPI   H9Y21259   5.998   2.736   8.845
  185SAPI  C31021260   6.087   2.541   8.806
  185SAPI  H10X21261   6.007   2.474   8.843
  185SAPI  H10Y21262   6.183   2.489   8.827
  185SAPI  C31121263   6.068   2.560   8.656
  185SAPI  H11X21264   5.991   2.639   8.638
  185SAPI  H11Y21265   6.028   2.466   8.613
  185SAPI  C31221266   6.198   2.596   8.583
  185SAPI  H12X21267   6.268   2.510   8.588
  185SAPI  H12Y21268   6.246   2.681   8.637
  185SAPI  C31321269   6.176   2.636   8.436
  185SAPI  H13X21270   6.273   2.670   8.393
  185SAPI  H13Y21271   6.106   2.723   8.434
  185SAPI  C31421272   6.119   2.523   8.351
  185SAPI  H14X21273   6.031   2.480   8.404
  185SAPI  H14Y21274   6.195   2.442   8.342
  185SAPI  C31521275   6.071   2.567   8.213
  185SAPI  H15X21276   6.155   2.595   8.147
  185SAPI  H15Y21277   6.007   2.657   8.226
  185SAPI  C31621278   5.984   2.459   8.147
  185SAPI  H16X21279   5.930   2.503   8.060
  185SAPI  H16Y21280   5.908   2.432   8.223
  185SAPI  C31721281   6.059   2.331   8.104
  185SAPI  H17X21282   6.131   2.305   8.184
  185SAPI  H17Y21283   6.114   2.355   8.011
  185SAPI  C31821284   5.975   2.205   8.080
  185SAPI  H18X21285   5.951   2.155   8.177
  185SAPI  H18Y21286   6.032   2.132   8.018
  185SAPI  H18Z21287   5.880   2.228   8.029
  186SAPI   C1221288   5.940   0.363  10.475
  186SAPI    H221289   6.015   0.289  10.441
  186SAPI    O221290   5.825   0.292  10.521
  186SAPI   HO221291   5.790   0.254  10.440
  186SAPI   C1321292   6.000   0.448  10.584
  186SAPI    H321293   6.087   0.499  10.537
  186SAPI    O321294   6.052   0.369  10.692
  186SAPI   HO321295   5.999   0.289  10.696
  186SAPI   C1421296   5.902   0.556  10.630
  186SAPI    H421297   5.810   0.507  10.669
  186SAPI    O421298   5.956   0.634  10.737
  186SAPI   HO421299   6.042   0.667  10.710
  186SAPI   C1521300   5.862   0.642  10.511
  186SAPI    H521301   5.954   0.691  10.472
  186SAPI    O521302   5.771   0.745  10.547
  186SAPI   HO521303   5.731   0.773  10.464
  186SAPI   C1621304   5.804   0.558  10.398
  186SAPI    H621305   5.710   0.509  10.431
  186SAPI    O621306   5.772   0.642  10.287
  186SAPI   HO621307   5.809   0.603  10.208
  186SAPI   C1121308   5.905   0.452  10.358
  186SAPI    H121309   5.999   0.505  10.331
  186SAPI     P21310   5.923   0.392  10.102
  186SAPI   O1321311   6.066   0.355  10.111
  186SAPI   O1421312   5.887   0.532  10.070
  186SAPI   O1221313   5.858   0.367  10.253
  186SAPI   O1121314   5.839   0.290  10.016
  186SAPI    C121315   5.697   0.304  10.008
  186SAPI    HA21316   5.649   0.239  10.084
  186SAPI    HB21317   5.663   0.409  10.025
  186SAPI    C221318   5.645   0.264   9.868
  186SAPI    HS21319   5.657   0.154   9.861
  186SAPI   O2121320   5.723   0.333   9.768
  186SAPI   C2121321   5.748   0.263   9.660
  186SAPI   O2221322   5.722   0.146   9.641
  186SAPI   C2221323   5.804   0.356   9.554
  186SAPI   H2R21324   5.803   0.301   9.458
  186SAPI   H2S21325   5.734   0.443   9.546
  186SAPI    C321326   5.496   0.303   9.848
  186SAPI    HX21327   5.489   0.413   9.862
  186SAPI    HY21328   5.434   0.257   9.928
  186SAPI   O3121329   5.448   0.271   9.715
  186SAPI   C3121330   5.421   0.141   9.703
  186SAPI   O3221331   5.419   0.063   9.796
  186SAPI   C3221332   5.384   0.102   9.559
  186SAPI   H2X21333   5.291   0.042   9.567
  186SAPI   H2Y21334   5.463   0.034   9.521
  186SAPI   C2321335   5.945   0.409   9.586
  186SAPI   H3R21336   6.019   0.326   9.585
  186SAPI   H3S21337   5.947   0.454   9.687
  186SAPI   C2421338   5.984   0.517   9.485
  186SAPI   H4R21339   6.080   0.563   9.515
  186SAPI   H4S21340   5.905   0.595   9.493
  186SAPI   C2521341   5.991   0.463   9.344
  186SAPI   H5R21342   6.043   0.366   9.337
  186SAPI   C2621343   5.940   0.517   9.232
  186SAPI   H6R21344   5.958   0.464   9.137
  186SAPI   C2721345   5.863   0.645   9.217
  186SAPI   H7R21346   5.848   0.664   9.109
  186SAPI   H7S21347   5.929   0.729   9.251
  186SAPI   C2821348   5.730   0.651   9.289
  186SAPI   H8R21349   5.733   0.693   9.391
  186SAPI   C2921350   5.613   0.607   9.240
  186SAPI   H9R21351   5.523   0.614   9.303
  186SAPI  C21021352   5.594   0.544   9.105
  186SAPI  H10R21353   5.505   0.477   9.108
  186SAPI  H10S21354   5.680   0.477   9.083
  186SAPI  C21121355   5.583   0.644   8.993
  186SAPI  H11R21356   5.642   0.736   9.005
  186SAPI  C21221357   5.511   0.627   8.881
  186SAPI  H12R21358   5.512   0.706   8.804
  186SAPI  C21321359   5.428   0.505   8.848
  186SAPI  H13R21360   5.357   0.531   8.767
  186SAPI  H13S21361   5.362   0.484   8.935
  186SAPI  C21421362   5.500   0.376   8.813
  186SAPI  H14R21363   5.456   0.287   8.859
  186SAPI  C21521364   5.608   0.358   8.733
  186SAPI  H15R21365   5.645   0.255   8.719
  186SAPI  C21621366   5.688   0.462   8.658
  186SAPI  H16R21367   5.795   0.432   8.657
  186SAPI  H16S21368   5.685   0.562   8.706
  186SAPI  C21721369   5.641   0.478   8.512
  186SAPI  H17R21370   5.640   0.378   8.463
  186SAPI  H17S21371   5.716   0.540   8.458
  186SAPI  C21821372   5.502   0.541   8.496
  186SAPI  H18R21373   5.509   0.650   8.518
  186SAPI  H18S21374   5.431   0.496   8.568
  186SAPI  C21921375   5.443   0.519   8.356
  186SAPI  H19R21376   5.345   0.570   8.350
  186SAPI  H19S21377   5.426   0.410   8.340
  186SAPI  C22021378   5.534   0.573   8.247
  186SAPI  H20R21379   5.632   0.520   8.244
  186SAPI  H20S21380   5.556   0.679   8.272
  186SAPI  H20T21381   5.487   0.566   8.147
  186SAPI   C3321382   5.359   0.218   9.459
  186SAPI   H3X21383   5.304   0.301   9.507
  186SAPI   H3Y21384   5.294   0.178   9.378
  186SAPI   C3421385   5.484   0.270   9.388
  186SAPI   H4X21386   5.551   0.320   9.461
  186SAPI   H4Y21387   5.452   0.347   9.315
  186SAPI   C3521388   5.563   0.161   9.312
  186SAPI   H5X21389   5.492   0.092   9.262
  186SAPI   H5Y21390   5.623   0.102   9.384
  186SAPI   C3621391   5.653   0.223   9.206
  186SAPI   H6X21392   5.716   0.302   9.253
  186SAPI   H6Y21393   5.589   0.273   9.129
  186SAPI   C3721394   5.746   0.125   9.133
  186SAPI   H7X21395   5.685   0.054   9.074
  186SAPI   H7Y21396   5.805   0.067   9.207
  186SAPI   C3821397   5.840   0.203   9.041
  186SAPI   H8X21398   5.910   0.262   9.104
  186SAPI   H8Y21399   5.781   0.275   8.980
  186SAPI   C3921400   5.922   0.116   8.946
  186SAPI   H9X21401   5.853   0.059   8.879
  186SAPI   H9Y21402   5.981   0.043   9.006
  186SAPI  C31021403   6.020   0.199   8.862
  186SAPI  H10X21404   6.078   0.259   8.935
  186SAPI  H10Y21405   5.963   0.271   8.800
  186SAPI  C31121406   6.116   0.115   8.776
  186SAPI  H11X21407   6.163   0.037   8.840
  186SAPI  H11Y21408   6.198   0.179   8.736
  186SAPI  C31221409   6.052   0.050   8.654
  186SAPI  H12X21410   5.969  -0.017   8.688
  186SAPI  H12Y21411   6.127  -0.014   8.602
  186SAPI  C31321412   5.990   0.148   8.555
  186SAPI  H13X21413   6.067   0.218   8.515
  186SAPI  H13Y21414   5.913   0.208   8.607
  186SAPI  C31421415   5.923   0.071   8.441
  186SAPI  H14X21416   5.889  -0.026   8.481
  186SAPI  H14Y21417   5.997   0.051   8.361
  186SAPI  C31521418   5.799   0.141   8.385
  186SAPI  H15X21419   5.752   0.204   8.463
  186SAPI  H15Y21420   5.726   0.062   8.360
  186SAPI  C31621421   5.830   0.223   8.259
  186SAPI  H16X21422   5.893   0.162   8.190
  186SAPI  H16Y21423   5.888   0.313   8.287
  186SAPI  C31721424   5.703   0.263   8.183
  186SAPI  H17X21425   5.731   0.331   8.099
  186SAPI  H17Y21426   5.637   0.319   8.253
  186SAPI  C31821427   5.623   0.145   8.130
  186SAPI  H18X21428   5.573   0.093   8.214
  186SAPI  H18Y21429   5.689   0.073   8.078
  186SAPI  H18Z21430   5.544   0.179   8.059
  187SAPI   C1221431   0.719   2.002   5.511
  187SAPI    H221432   0.669   1.931   5.580
  187SAPI    O221433   0.834   1.938   5.456
  187SAPI   HO221434   0.898   1.939   5.528
  187SAPI   C1321435   0.620   2.040   5.404
  187SAPI    H321436   0.536   2.093   5.454
  187SAPI    O321437   0.567   1.924   5.340
  187SAPI   HO321438   0.642   1.870   5.315
  187SAPI   C1421439   0.685   2.139   5.308
  187SAPI    H421440   0.774   2.092   5.261
  187SAPI    O421441   0.596   2.176   5.204
  187SAPI   HO421442   0.636   2.252   5.160
  187SAPI   C1521443   0.731   2.263   5.385
  187SAPI    H521444   0.641   2.311   5.430
  187SAPI    O521445   0.792   2.358   5.298
  187SAPI   HO521446   0.850   2.410   5.353
  187SAPI   C1621447   0.826   2.226   5.498
  187SAPI    H621448   0.919   2.183   5.457
  187SAPI    O621449   0.860   2.343   5.573
  187SAPI   HO621450   0.877   2.318   5.664
  187SAPI   C1121451   0.758   2.125   5.588
  187SAPI    H121452   0.663   2.170   5.625
  187SAPI     P21453   0.825   2.141   5.843
  187SAPI   O1321454   0.680   2.157   5.868
  187SAPI   O1421455   0.914   2.261   5.839
  187SAPI   O1221456   0.841   2.075   5.694
  187SAPI   O1121457   0.886   2.024   5.930
  187SAPI    C121458   0.801   1.918   5.978
  187SAPI    HA21459   0.725   1.888   5.904
  187SAPI    HB21460   0.865   1.829   5.999
  187SAPI    C221461   0.732   1.954   6.112
  187SAPI    HS21462   0.664   2.040   6.095
  187SAPI   O2121463   0.833   1.981   6.210
  187SAPI   C2121464   0.858   2.107   6.226
  187SAPI   O2221465   0.820   2.199   6.156
  187SAPI   C2221466   0.934   2.125   6.353
  187SAPI   H2R21467   0.954   2.028   6.404
  187SAPI   H2S21468   1.033   2.168   6.325
  187SAPI    C321469   0.645   1.842   6.174
  187SAPI    HX21470   0.706   1.750   6.182
  187SAPI    HY21471   0.559   1.821   6.107
  187SAPI   O3121472   0.595   1.890   6.302
  187SAPI   C3121473   0.653   1.837   6.411
  187SAPI   O3221474   0.723   1.737   6.411
  187SAPI   C3221475   0.616   1.917   6.535
  187SAPI   H2X21476   0.507   1.904   6.553
  187SAPI   H2Y21477   0.635   2.024   6.516
  187SAPI   C2321478   0.856   2.224   6.440
  187SAPI   H3R21479   0.785   2.171   6.508
  187SAPI   H3S21480   0.794   2.293   6.378
  187SAPI   C2421481   0.947   2.315   6.520
  187SAPI   H4R21482   0.884   2.395   6.565
  187SAPI   H4S21483   1.018   2.365   6.451
  187SAPI   C2521484   1.022   2.239   6.624
  187SAPI   H5R21485   1.115   2.191   6.590
  187SAPI   C2621486   0.989   2.232   6.754
  187SAPI   H6R21487   1.063   2.184   6.820
  187SAPI   C2721488   0.873   2.295   6.827
  187SAPI   H7R21489   0.842   2.388   6.774
  187SAPI   H7S21490   0.918   2.329   6.923
  187SAPI   C2821491   0.744   2.221   6.854
  187SAPI   H8R21492   0.683   2.205   6.764
  187SAPI   C2921493   0.698   2.175   6.972
  187SAPI   H9R21494   0.602   2.122   6.973
  187SAPI  C21021495   0.765   2.187   7.108
  187SAPI  H10R21496   0.844   2.265   7.106
  187SAPI  H10S21497   0.820   2.093   7.127
  187SAPI  C21121498   0.676   2.214   7.227
  187SAPI  H11R21499   0.666   2.321   7.251
  187SAPI  C21221500   0.609   2.125   7.302
  187SAPI  H12R21501   0.548   2.163   7.386
  187SAPI  C21321502   0.608   1.975   7.285
  187SAPI  H13R21503   0.708   1.941   7.249
  187SAPI  H13S21504   0.538   1.948   7.203
  187SAPI  C21421505   0.568   1.895   7.408
  187SAPI  H14R21506   0.463   1.862   7.411
  187SAPI  C21521507   0.650   1.864   7.511
  187SAPI  H15R21508   0.613   1.804   7.596
  187SAPI  C21621509   0.793   1.908   7.515
  187SAPI  H16R21510   0.791   2.017   7.492
  187SAPI  H16S21511   0.856   1.862   7.437
  187SAPI  C21721512   0.870   1.894   7.647
  187SAPI  H17R21513   0.812   1.923   7.737
  187SAPI  H17S21514   0.958   1.962   7.636
  187SAPI  C21821515   0.934   1.761   7.676
  187SAPI  H18R21516   1.015   1.750   7.601
  187SAPI  H18S21517   0.860   1.679   7.665
  187SAPI  C21921518   0.992   1.760   7.818
  187SAPI  H19R21519   1.031   1.659   7.843
  187SAPI  H19S21520   0.905   1.777   7.885
  187SAPI  C22021521   1.098   1.868   7.846
  187SAPI  H20R21522   1.143   1.853   7.946
  187SAPI  H20S21523   1.053   1.970   7.843
  187SAPI  H20T21524   1.178   1.864   7.769
  187SAPI   C3321525   0.695   1.868   6.659
  187SAPI   H3X21526   0.673   1.762   6.683
  187SAPI   H3Y21527   0.663   1.929   6.746
  187SAPI   C3421528   0.845   1.886   6.636
  187SAPI   H4X21529   0.855   1.974   6.568
  187SAPI   H4Y21530   0.890   1.798   6.586
  187SAPI   C3521531   0.923   1.925   6.760
  187SAPI   H5X21532   0.867   2.008   6.809
  187SAPI   H5Y21533   1.023   1.963   6.728
  187SAPI   C3621534   0.941   1.818   6.865
  187SAPI   H6X21535   1.022   1.750   6.832
  187SAPI   H6Y21536   0.848   1.758   6.870
  187SAPI   C3721537   0.973   1.882   7.003
  187SAPI   H7X21538   1.016   1.806   7.072
  187SAPI   H7Y21539   0.877   1.914   7.049
  187SAPI   C3821540   1.068   2.002   6.997
  187SAPI   H8X21541   1.007   2.094   6.986
  187SAPI   H8Y21542   1.134   1.992   6.908
  187SAPI   C3921543   1.161   2.019   7.117
  187SAPI   H9X21544   1.240   2.092   7.087
  187SAPI   H9Y21545   1.210   1.923   7.141
  187SAPI  C31021546   1.094   2.072   7.243
  187SAPI  H10X21547   1.037   1.989   7.290
  187SAPI  H10Y21548   1.022   2.153   7.216
  187SAPI  C31121549   1.198   2.130   7.340
  187SAPI  H11X21550   1.223   2.233   7.306
  187SAPI  H11Y21551   1.290   2.069   7.337
  187SAPI  C31221552   1.149   2.138   7.485
  187SAPI  H12X21553   1.220   2.199   7.544
  187SAPI  H12Y21554   1.146   2.036   7.529
  187SAPI  C31321555   1.010   2.200   7.489
  187SAPI  H13X21556   0.940   2.131   7.437
  187SAPI  H13Y21557   1.011   2.292   7.428
  187SAPI  C31421558   0.956   2.227   7.630
  187SAPI  H14X21559   1.011   2.312   7.677
  187SAPI  H14Y21560   0.980   2.141   7.696
  187SAPI  C31521561   0.805   2.254   7.629
  187SAPI  H15X21562   0.762   2.229   7.529
  187SAPI  H15Y21563   0.788   2.363   7.644
  187SAPI  C31621564   0.725   2.181   7.736
  187SAPI  H16X21565   0.703   2.076   7.707
  187SAPI  H16Y21566   0.622   2.223   7.744
  187SAPI  C31721567   0.790   2.192   7.873
  187SAPI  H17X21568   0.828   2.296   7.886
  187SAPI  H17Y21569   0.877   2.123   7.880
  187SAPI  C31821570   0.692   2.161   7.985
  187SAPI  H18X21571   0.598   2.219   7.973
  187SAPI  H18Y21572   0.736   2.189   8.083
  187SAPI  H18Z21573   0.664   2.054   7.985
  188SAPI   C1221574   0.567   5.042   5.652
  188SAPI    H221575   0.595   4.976   5.736
  188SAPI    O221576   0.685   5.068   5.576
  188SAPI   HO221577   0.749   5.099   5.641
  188SAPI   C1321578   0.462   4.967   5.571
  188SAPI    H321579   0.376   4.949   5.638
  188SAPI    O321580   0.506   4.838   5.527
  188SAPI   HO321581   0.496   4.775   5.599
  188SAPI   C1421582   0.414   5.053   5.456
  188SAPI    H421583   0.503   5.077   5.393
  188SAPI    O421584   0.321   4.983   5.373
  188SAPI   HO421585   0.348   4.891   5.376
  188SAPI   C1521586   0.357   5.184   5.507
  188SAPI    H521587   0.272   5.160   5.574
  188SAPI    O521588   0.302   5.261   5.399
  188SAPI   HO521589   0.259   5.196   5.343
  188SAPI   C1621590   0.460   5.261   5.589
  188SAPI    H621591   0.546   5.288   5.524
  188SAPI    O621592   0.406   5.380   5.645
  188SAPI   HO621593   0.448   5.381   5.732
  188SAPI   C1121594   0.508   5.173   5.703
  188SAPI    H121595   0.419   5.148   5.764
  188SAPI     P21596   0.647   5.179   5.930
  188SAPI   O1321597   0.772   5.103   5.905
  188SAPI   O1421598   0.530   5.106   5.982
  188SAPI   O1221599   0.603   5.246   5.784
  188SAPI   O1121600   0.675   5.307   6.017
  188SAPI    C121601   0.806   5.364   6.019
  188SAPI    HA21602   0.879   5.291   6.059
  188SAPI    HB21603   0.839   5.394   5.916
  188SAPI    C221604   0.812   5.489   6.111
  188SAPI    HS21605   0.917   5.524   6.113
  188SAPI   O2121606   0.764   5.451   6.241
  188SAPI   C2121607   0.852   5.439   6.337
  188SAPI   O2221608   0.969   5.472   6.334
  188SAPI   C2221609   0.780   5.377   6.457
  188SAPI   H2R21610   0.718   5.455   6.505
  188SAPI   H2S21611   0.714   5.296   6.419
  188SAPI    C321612   0.724   5.607   6.057
  188SAPI    HX21613   0.759   5.627   5.953
  188SAPI    HY21614   0.746   5.698   6.117
  188SAPI   O3121615   0.583   5.575   6.053
  188SAPI   C3121616   0.521   5.589   6.171
  188SAPI   O3221617   0.560   5.660   6.262
  188SAPI   C3221618   0.391   5.509   6.171
  188SAPI   H2X21619   0.407   5.414   6.114
  188SAPI   H2Y21620   0.314   5.569   6.118
  188SAPI   C2321621   0.878   5.315   6.558
  188SAPI   H3R21622   0.955   5.390   6.586
  188SAPI   H3S21623   0.931   5.232   6.506
  188SAPI   C2421624   0.808   5.260   6.683
  188SAPI   H4R21625   0.741   5.177   6.649
  188SAPI   H4S21626   0.742   5.339   6.723
  188SAPI   C2521627   0.898   5.208   6.793
  188SAPI   H5R21628   0.900   5.098   6.798
  188SAPI   C2621629   0.958   5.274   6.893
  188SAPI   H6R21630   1.020   5.215   6.963
  188SAPI   C2721631   0.953   5.421   6.926
  188SAPI   H7R21632   1.037   5.446   6.995
  188SAPI   H7S21633   0.860   5.437   6.985
  188SAPI   C2821634   0.954   5.518   6.812
  188SAPI   H8R21635   1.043   5.513   6.748
  188SAPI   C2921636   0.856   5.606   6.781
  188SAPI   H9R21637   0.870   5.670   6.693
  188SAPI  C21021638   0.726   5.629   6.854
  188SAPI  H10R21639   0.675   5.709   6.797
  188SAPI  H10S21640   0.749   5.671   6.955
  188SAPI  C21121641   0.621   5.522   6.866
  188SAPI  H11R21642   0.594   5.474   6.771
  188SAPI  C21221643   0.554   5.485   6.977
  188SAPI  H12R21644   0.475   5.409   6.965
  188SAPI  C21321645   0.566   5.538   7.118
  188SAPI  H13R21646   0.470   5.521   7.171
  188SAPI  H13S21647   0.579   5.649   7.114
  188SAPI  C21421648   0.680   5.480   7.199
  188SAPI  H14R21649   0.758   5.428   7.141
  188SAPI  C21521650   0.690   5.475   7.332
  188SAPI  H15R21651   0.779   5.428   7.377
  188SAPI  C21621652   0.589   5.527   7.430
  188SAPI  H16R21653   0.512   5.591   7.381
  188SAPI  H16S21654   0.637   5.589   7.508
  188SAPI  C21721655   0.518   5.407   7.496
  188SAPI  H17R21656   0.474   5.340   7.419
  188SAPI  H17S21657   0.434   5.447   7.556
  188SAPI  C21821658   0.611   5.327   7.589
  188SAPI  H18R21659   0.662   5.401   7.655
  188SAPI  H18S21660   0.691   5.276   7.531
  188SAPI  C21921661   0.534   5.227   7.676
  188SAPI  H19R21662   0.524   5.130   7.623
  188SAPI  H19S21663   0.431   5.266   7.690
  188SAPI  C22021664   0.597   5.209   7.814
  188SAPI  H20R21665   0.679   5.134   7.813
  188SAPI  H20S21666   0.523   5.179   7.890
  188SAPI  H20T21667   0.640   5.306   7.847
  188SAPI   C3321668   0.341   5.475   6.314
  188SAPI   H3X21669   0.233   5.450   6.310
  188SAPI   H3Y21670   0.352   5.563   6.381
  188SAPI   C3421671   0.415   5.354   6.373
  188SAPI   H4X21672   0.524   5.370   6.361
  188SAPI   H4Y21673   0.388   5.264   6.315
  188SAPI   C3521674   0.383   5.331   6.521
  188SAPI   H5X21675   0.273   5.323   6.534
  188SAPI   H5Y21676   0.419   5.418   6.580
  188SAPI   C3621677   0.449   5.203   6.575
  188SAPI   H6X21678   0.557   5.203   6.546
  188SAPI   H6Y21679   0.402   5.115   6.526
  188SAPI   C3721680   0.438   5.191   6.727
  188SAPI   H7X21681   0.330   5.192   6.753
  188SAPI   H7Y21682   0.485   5.278   6.776
  188SAPI   C3821683   0.501   5.062   6.782
  188SAPI   H8X21684   0.612   5.068   6.779
  188SAPI   H8Y21685   0.471   4.978   6.715
  188SAPI   C3921686   0.452   5.030   6.923
  188SAPI   H9X21687   0.480   4.925   6.948
  188SAPI   H9Y21688   0.341   5.037   6.918
  188SAPI  C31021689   0.495   5.124   7.036
  188SAPI  H10X21690   0.455   5.084   7.132
  188SAPI  H10Y21691   0.448   5.224   7.021
  188SAPI  C31121692   0.646   5.136   7.054
  188SAPI  H11X21693   0.663   5.201   7.143
  188SAPI  H11Y21694   0.691   5.188   6.967
  188SAPI  C31221695   0.709   4.998   7.074
  188SAPI  H12X21696   0.734   4.957   6.974
  188SAPI  H12Y21697   0.634   4.930   7.119
  188SAPI  C31321698   0.832   4.995   7.165
  188SAPI  H13X21699   0.916   5.048   7.114
  188SAPI  H13Y21700   0.863   4.889   7.179
  188SAPI  C31421701   0.810   5.059   7.303
  188SAPI  H14X21702   0.811   5.170   7.292
  188SAPI  H14Y21703   0.896   5.031   7.368
  188SAPI  C31521704   0.681   5.019   7.377
  188SAPI  H15X21705   0.590   5.046   7.319
  188SAPI  H15Y21706   0.678   5.080   7.470
  188SAPI  C31621707   0.678   4.871   7.414
  188SAPI  H16X21708   0.783   4.837   7.420
  188SAPI  H16Y21709   0.627   4.815   7.332
  188SAPI  C31721710   0.611   4.839   7.548
  188SAPI  H17X21711   0.603   4.729   7.558
  188SAPI  H17Y21712   0.508   4.881   7.549
  188SAPI  C31821713   0.691   4.893   7.667
  188SAPI  H18X21714   0.702   5.003   7.661
  188SAPI  H18Y21715   0.794   4.851   7.668
  188SAPI  H18Z21716   0.641   4.865   7.762
  189POPC     N21717   4.173   6.470  10.039
  189POPC   C1221718   4.123   6.553   9.922
  189POPC  H12A21719   4.205   6.613   9.885
  189POPC  H12B21720   4.047   6.621   9.958
  189POPC   C1321721   4.245   6.348   9.989
  189POPC  H13A21722   4.276   6.283  10.069
  189POPC  H13B21723   4.180   6.294   9.921
  189POPC  H13C21724   4.333   6.375   9.933
  189POPC   C1421725   4.267   6.549  10.125
  189POPC  H14A21726   4.358   6.572  10.072
  189POPC  H14B21727   4.221   6.642  10.157
  189POPC  H14C21728   4.295   6.494  10.214
  189POPC   C1521729   4.054   6.431  10.122
  189POPC  H15A21730   4.004   6.518  10.162
  189POPC  H15B21731   4.081   6.367  10.205
  189POPC  H15C21732   3.981   6.382  10.059
  189POPC   C1121733   4.060   6.477   9.802
  189POPC  H11A21734   4.139   6.417   9.751
  189POPC  H11B21735   4.027   6.552   9.727
  189POPC     P21736   3.806   6.447   9.854
  189POPC   O1321737   3.812   6.566   9.942
  189POPC   O1421738   3.721   6.335   9.899
  189POPC   O1221739   3.954   6.390   9.841
  189POPC   O1121740   3.768   6.489   9.706
  189POPC    C121741   3.753   6.394   9.600
  189POPC    HA21742   3.685   6.438   9.523
  189POPC    HB21743   3.706   6.300   9.634
  189POPC    C221744   3.888   6.363   9.529
  189POPC    HS21745   3.953   6.320   9.607
  189POPC   O2121746   3.943   6.486   9.477
  189POPC   C2121747   4.073   6.482   9.458
  189POPC   O2221748   4.146   6.388   9.485
  189POPC   C2221749   4.121   6.614   9.401
  189POPC   H2R21750   4.207   6.647   9.464
  189POPC   H2S21751   4.040   6.690   9.409
  189POPC    C321752   3.877   6.255   9.416
  189POPC    HX21753   3.834   6.164   9.462
  189POPC    HY21754   3.981   6.233   9.384
  189POPC   O3121755   3.798   6.298   9.302
  189POPC   C3121756   3.800   6.203   9.207
  189POPC   O3221757   3.852   6.094   9.219
  189POPC   C3221758   3.728   6.253   9.082
  189POPC   H2X21759   3.792   6.331   9.035
  189POPC   H2Y21760   3.632   6.298   9.112
  189POPC   C2321761   4.168   6.599   9.255
  189POPC   H3R21762   4.233   6.510   9.243
  189POPC   H3S21763   4.230   6.688   9.232
  189POPC   C2421764   4.052   6.590   9.155
  189POPC   H4R21765   3.982   6.675   9.175
  189POPC   H4S21766   3.996   6.496   9.172
  189POPC   C2521767   4.096   6.598   9.008
  189POPC   H5R21768   4.008   6.580   8.943
  189POPC   H5S21769   4.170   6.518   8.988
  189POPC   C2621770   4.156   6.735   8.972
  189POPC   H6R21771   4.246   6.753   9.036
  189POPC   H6S21772   4.083   6.815   8.997
  189POPC   C2721773   4.200   6.750   8.826
  189POPC   H7R21774   4.252   6.658   8.793
  189POPC   H7S21775   4.272   6.834   8.821
  189POPC   C2821776   4.081   6.781   8.734
  189POPC   H8R21777   4.019   6.859   8.781
  189POPC   H8S21778   4.018   6.689   8.729
  189POPC   C2921779   4.126   6.828   8.597
  189POPC   H9121780   4.168   6.930   8.595
  189POPC  C21021781   4.119   6.757   8.483
  189POPC  H10121782   4.154   6.802   8.389
  189POPC  C21121783   4.066   6.617   8.474
  189POPC  H11R21784   4.111   6.554   8.553
  189POPC  H11S21785   4.096   6.572   8.377
  189POPC  C21221786   3.912   6.608   8.489
  189POPC  H12R21787   3.875   6.682   8.562
  189POPC  H12S21788   3.886   6.508   8.531
  189POPC  C21321789   3.835   6.623   8.357
  189POPC  H13R21790   3.871   6.548   8.283
  189POPC  H13S21791   3.859   6.722   8.314
  189POPC  C21421792   3.684   6.612   8.380
  189POPC  H14R21793   3.631   6.667   8.299
  189POPC  H14S21794   3.658   6.662   8.476
  189POPC  C21521795   3.627   6.469   8.385
  189POPC  H15R21796   3.517   6.475   8.398
  189POPC  H15S21797   3.668   6.417   8.474
  189POPC  C21621798   3.658   6.386   8.260
  189POPC  H16R21799   3.611   6.285   8.270
  189POPC  H16S21800   3.768   6.368   8.259
  189POPC  C21721801   3.616   6.453   8.128
  189POPC  H17R21802   3.670   6.549   8.118
  189POPC  H17S21803   3.507   6.476   8.134
  189POPC  C21821804   3.644   6.370   8.003
  189POPC  H18R21805   3.753   6.358   7.985
  189POPC  H18S21806   3.601   6.420   7.914
  189POPC  H18T21807   3.599   6.268   8.012
  189POPC   C3321808   3.705   6.136   8.983
  189POPC   H3X21809   3.652   6.054   9.035
  189POPC   H3Y21810   3.802   6.096   8.949
  189POPC   C3421811   3.621   6.175   8.860
  189POPC   H4X21812   3.518   6.203   8.893
  189POPC   H4Y21813   3.611   6.086   8.794
  189POPC   C3521814   3.678   6.292   8.777
  189POPC   H5X21815   3.671   6.386   8.836
  189POPC   H5Y21816   3.614   6.305   8.687
  189POPC   C3621817   3.823   6.273   8.731
  189POPC   H6X21818   3.892   6.275   8.818
  189POPC   H6Y21819   3.850   6.361   8.668
  189POPC   C3721820   3.848   6.145   8.650
  189POPC   H7X21821   3.758   6.120   8.590
  189POPC   H7Y21822   3.864   6.061   8.721
  189POPC   C3821823   3.968   6.159   8.556
  189POPC   H8X21824   4.009   6.058   8.534
  189POPC   H8Y21825   4.049   6.213   8.609
  189POPC   C3921826   3.933   6.231   8.425
  189POPC   H9X21827   3.950   6.339   8.441
  189POPC   H9Y21828   3.824   6.217   8.406
  189POPC  C31021829   4.010   6.185   8.300
  189POPC  H10X21830   3.941   6.137   8.228
  189POPC  H10Y21831   4.082   6.106   8.330
  189POPC  C31121832   4.084   6.299   8.228
  189POPC  H11X21833   4.187   6.268   8.201
  189POPC  H11Y21834   4.095   6.385   8.298
  189POPC  C31221835   4.012   6.343   8.101
  189POPC  H12X21836   3.903   6.348   8.123
  189POPC  H12Y21837   4.024   6.267   8.021
  189POPC  C31321838   4.054   6.481   8.050
  189POPC  H13X21839   4.053   6.553   8.135
  189POPC  H13Y21840   3.977   6.514   7.977
  189POPC  C31421841   4.191   6.483   7.983
  189POPC  H14X21842   4.186   6.424   7.889
  189POPC  H14Y21843   4.266   6.434   8.049
  189POPC  C31521844   4.238   6.625   7.951
  189POPC  H15X21845   4.328   6.619   7.885
  189POPC  H15Y21846   4.270   6.674   8.046
  189POPC  C31621847   4.131   6.713   7.885
  189POPC  H16X21848   4.091   6.662   7.795
  189POPC  H16Y21849   4.174   6.811   7.855
  189POPC  H16Z21850   4.047   6.732   7.954
  190POPC     N21851   6.696   2.817  10.102
  190POPC   C1221852   6.602   2.707  10.149
  190POPC  H12A21853   6.511   2.751  10.186
  190POPC  H12B21854   6.647   2.653  10.232
  190POPC   C1321855   6.633   2.883   9.982
  190POPC  H13A21856   6.610   2.808   9.908
  190POPC  H13B21857   6.536   2.925  10.005
  190POPC  H13C21858   6.694   2.960   9.936
  190POPC   C1421859   6.718   2.919  10.209
  190POPC  H14A21860   6.763   2.875  10.297
  190POPC  H14B21861   6.784   2.998  10.174
  190POPC  H14C21862   6.625   2.965  10.239
  190POPC   C1521863   6.827   2.756  10.063
  190POPC  H15A21864   6.871   2.703  10.145
  190POPC  H15B21865   6.896   2.831  10.028
  190POPC  H15C21866   6.811   2.686   9.982
  190POPC   C1121867   6.557   2.605  10.043
  190POPC  H11A21868   6.511   2.517  10.093
  190POPC  H11B21869   6.644   2.568   9.984
  190POPC     P21870   6.423   2.599   9.822
  190POPC   O1321871   6.316   2.680   9.759
  190POPC   O1421872   6.403   2.456   9.849
  190POPC   O1221873   6.459   2.668   9.960
  190POPC   O1121874   6.561   2.623   9.747
  190POPC    C121875   6.579   2.736   9.662
  190POPC    HA21876   6.674   2.787   9.691
  190POPC    HB21877   6.498   2.812   9.672
  190POPC    C221878   6.591   2.701   9.511
  190POPC    HS21879   6.496   2.657   9.475
  190POPC   O2121880   6.704   2.616   9.489
  190POPC   C2121881   6.675   2.487   9.481
  190POPC   O2221882   6.566   2.437   9.497
  190POPC   C2221883   6.797   2.413   9.427
  190POPC   H2R21884   6.830   2.342   9.505
  190POPC   H2S21885   6.880   2.484   9.406
  190POPC    C321886   6.615   2.833   9.434
  190POPC    HX21887   6.696   2.888   9.488
  190POPC    HY21888   6.522   2.893   9.443
  190POPC   O3121889   6.659   2.817   9.297
  190POPC   C3121890   6.560   2.807   9.208
  190POPC   O3221891   6.442   2.796   9.233
  190POPC   C3221892   6.620   2.816   9.067
  190POPC   H2X21893   6.598   2.721   9.014
  190POPC   H2Y21894   6.730   2.827   9.077
  190POPC   C2321895   6.757   2.341   9.298
  190POPC   H3R21896   6.677   2.269   9.327
  190POPC   H3S21897   6.842   2.281   9.260
  190POPC   C2421898   6.701   2.432   9.187
  190POPC   H4R21899   6.680   2.535   9.225
  190POPC   H4S21900   6.602   2.390   9.158
  190POPC   C2521901   6.787   2.441   9.061
  190POPC   H5R21902   6.723   2.460   8.972
  190POPC   H5S21903   6.838   2.344   9.045
  190POPC   C2621904   6.889   2.555   9.074
  190POPC   H6R21905   6.923   2.551   9.179
  190POPC   H6S21906   6.835   2.651   9.060
  190POPC   C2721907   7.009   2.549   8.978
  190POPC   H7R21908   7.076   2.467   9.009
  190POPC   H7S21909   7.067   2.643   8.989
  190POPC   C2821910   6.970   2.528   8.831
  190POPC   H8R21911   6.917   2.430   8.822
  190POPC   H8S21912   7.062   2.523   8.769
  190POPC   C2921913   6.882   2.642   8.786
  190POPC   H9121914   6.906   2.738   8.834
  190POPC  C21021915   6.780   2.638   8.700
  190POPC  H10121916   6.727   2.732   8.678
  190POPC  C21121917   6.727   2.520   8.623
  190POPC  H11R21918   6.625   2.494   8.659
  190POPC  H11S21919   6.790   2.429   8.633
  190POPC  C21221920   6.719   2.560   8.475
  190POPC  H12R21921   6.674   2.661   8.465
  190POPC  H12S21922   6.649   2.492   8.421
  190POPC  C21321923   6.855   2.558   8.403
  190POPC  H13R21924   6.934   2.594   8.471
  190POPC  H13S21925   6.852   2.630   8.318
  190POPC  C21421926   6.891   2.420   8.346
  190POPC  H14R21927   6.801   2.355   8.343
  190POPC  H14S21928   6.964   2.373   8.416
  190POPC  C21521929   6.952   2.422   8.205
  190POPC  H15R21930   6.991   2.321   8.183
  190POPC  H15S21931   7.038   2.493   8.205
  190POPC  C21621932   6.855   2.462   8.094
  190POPC  H16R21933   6.813   2.562   8.118
  190POPC  H16S21934   6.771   2.390   8.092
  190POPC  C21721935   6.917   2.473   7.954
  190POPC  H17R21936   6.971   2.379   7.930
  190POPC  H17S21937   6.992   2.555   7.954
  190POPC  C21821938   6.812   2.498   7.845
  190POPC  H18R21939   6.736   2.417   7.845
  190POPC  H18S21940   6.858   2.503   7.744
  190POPC  H18T21941   6.760   2.595   7.862
  190POPC   C3321942   6.569   2.937   8.987
  190POPC   H3X21943   6.583   3.030   9.047
  190POPC   H3Y21944   6.460   2.927   8.966
  190POPC   C3421945   6.647   2.952   8.856
  190POPC   H4X21946   6.614   2.874   8.784
  190POPC   H4Y21947   6.754   2.935   8.878
  190POPC   C3521948   6.635   3.091   8.790
  190POPC   H5X21949   6.637   3.168   8.870
  190POPC   H5Y21950   6.539   3.099   8.736
  190POPC   C3621951   6.751   3.120   8.694
  190POPC   H6X21952   6.847   3.108   8.749
  190POPC   H6Y21953   6.745   3.226   8.661
  190POPC   C3721954   6.754   3.030   8.570
  190POPC   H7X21955   6.662   3.049   8.511
  190POPC   H7Y21956   6.749   2.923   8.600
  190POPC   C3821957   6.881   3.052   8.487
  190POPC   H8X21958   6.958   2.980   8.523
  190POPC   H8Y21959   6.920   3.154   8.507
  190POPC   C3921960   6.864   3.037   8.336
  190POPC   H9X21961   6.965   3.027   8.290
  190POPC   H9Y21962   6.818   3.128   8.293
  190POPC  C31021963   6.777   2.918   8.294
  190POPC  H10X21964   6.671   2.951   8.295
  190POPC  H10Y21965   6.787   2.836   8.369
  190POPC  C31121966   6.814   2.865   8.156
  190POPC  H11X21967   6.894   2.788   8.166
  190POPC  H11Y21968   6.856   2.948   8.094
  190POPC  C31221969   6.694   2.807   8.080
  190POPC  H12X21970   6.732   2.754   7.990
  190POPC  H12Y21971   6.633   2.893   8.044
  190POPC  C31321972   6.605   2.714   8.163
  190POPC  H13X21973   6.532   2.774   8.222
  190POPC  H13Y21974   6.668   2.658   8.236
  190POPC  C31421975   6.531   2.610   8.080
  190POPC  H14X21976   6.603   2.546   8.024
  190POPC  H14Y21977   6.464   2.658   8.005
  190POPC  C31521978   6.443   2.521   8.166
  190POPC  H15X21979   6.367   2.583   8.218
  190POPC  H15Y21980   6.505   2.472   8.244
  190POPC  C31621981   6.374   2.417   8.079
  190POPC  H16X21982   6.448   2.363   8.016
  190POPC  H16Y21983   6.299   2.465   8.013
  190POPC  H16Z21984   6.324   2.341   8.144
  191POPC     N21985   4.829   3.887   5.947
  191POPC   C1221986   4.698   3.812   5.957
  191POPC  H12A21987   4.698   3.750   6.045
  191POPC  H12B21988   4.686   3.746   5.873
  191POPC   C1321989   4.840   3.980   6.064
  191POPC  H13A21990   4.746   4.032   6.077
  191POPC  H13B21991   4.856   3.925   6.155
  191POPC  H13C21992   4.921   4.051   6.053
  191POPC   C1421993   4.945   3.793   5.949
  191POPC  H14A21994   5.039   3.846   5.945
  191POPC  H14B21995   4.945   3.735   6.040
  191POPC  H14C21996   4.941   3.724   5.866
  191POPC   C1521997   4.828   3.967   5.821
  191POPC  H15A21998   4.807   3.905   5.735
  191POPC  H15B21999   4.921   4.020   5.804
  191POPC  H15C22000   4.747   4.039   5.823
  191POPC   C1122001   4.570   3.899   5.970
  191POPC  H11A22002   4.481   3.838   5.941
  191POPC  H11B22003   4.572   3.984   5.899
  191POPC     P22004   4.496   3.851   6.212
  191POPC   O1322005   4.575   3.725   6.203
  191POPC   O1422006   4.351   3.840   6.187
  191POPC   O1222007   4.559   3.949   6.103
  191POPC   O1122008   4.527   3.926   6.347
  191POPC    C122009   4.660   3.955   6.391
  191POPC    HA22010   4.653   4.034   6.469
  191POPC    HB22011   4.722   3.996   6.309
  191POPC    C222012   4.728   3.832   6.457
  191POPC    HS22013   4.738   3.754   6.379
  191POPC   O2122014   4.643   3.789   6.563
  191POPC   C2122015   4.660   3.666   6.604
  191POPC   O2222016   4.739   3.584   6.560
  191POPC   C2222017   4.562   3.643   6.719
  191POPC   H2R22018   4.496   3.559   6.689
  191POPC   H2S22019   4.499   3.733   6.731
  191POPC    C322020   4.871   3.865   6.509
  191POPC    HX22021   4.926   3.915   6.427
  191POPC    HY22022   4.925   3.770   6.531
  191POPC   O3122023   4.863   3.954   6.622
  191POPC   C3122024   4.867   3.894   6.740
  191POPC   O3222025   4.913   3.784   6.762
  191POPC   C3222026   4.801   3.984   6.843
  191POPC   H2X22027   4.700   4.012   6.808
  191POPC   H2Y22028   4.864   4.076   6.850
  191POPC   C2322029   4.632   3.611   6.853
  191POPC   H3R22030   4.716   3.683   6.871
  191POPC   H3S22031   4.678   3.510   6.849
  191POPC   C2422032   4.535   3.621   6.972
  191POPC   H4R22033   4.447   3.559   6.947
  191POPC   H4S22034   4.499   3.725   6.984
  191POPC   C2522035   4.595   3.567   7.103
  191POPC   H5R22036   4.680   3.499   7.080
  191POPC   H5S22037   4.516   3.508   7.153
  191POPC   C2622038   4.640   3.671   7.206
  191POPC   H6R22039   4.718   3.737   7.162
  191POPC   H6S22040   4.689   3.617   7.291
  191POPC   C2722041   4.526   3.755   7.264
  191POPC   H7R22042   4.448   3.688   7.307
  191POPC   H7S22043   4.479   3.814   7.182
  191POPC   C2822044   4.579   3.847   7.374
  191POPC   H8R22045   4.681   3.876   7.343
  191POPC   H8S22046   4.592   3.787   7.467
  191POPC   C2922047   4.503   3.974   7.399
  191POPC   H9122048   4.539   4.058   7.338
  191POPC  C21022049   4.403   3.997   7.484
  191POPC  H10122050   4.363   4.100   7.487
  191POPC  C21122051   4.335   3.903   7.580
  191POPC  H11R22052   4.348   3.798   7.550
  191POPC  H11S22053   4.226   3.922   7.578
  191POPC  C21222054   4.384   3.925   7.725
  191POPC  H12R22055   4.326   3.859   7.794
  191POPC  H12S22056   4.363   4.030   7.756
  191POPC  C21322057   4.532   3.893   7.745
  191POPC  H13R22058   4.563   3.920   7.848
  191POPC  H13S22059   4.591   3.957   7.677
  191POPC  C21422060   4.566   3.746   7.717
  191POPC  H14R22061   4.668   3.744   7.673
  191POPC  H14S22062   4.499   3.700   7.642
  191POPC  C21522063   4.569   3.659   7.843
  191POPC  H15R22064   4.560   3.724   7.933
  191POPC  H15S22065   4.672   3.617   7.846
  191POPC  C21622066   4.463   3.548   7.855
  191POPC  H16R22067   4.364   3.599   7.865
  191POPC  H16S22068   4.483   3.494   7.950
  191POPC  C21722069   4.448   3.441   7.745
  191POPC  H17R22070   4.477   3.480   7.645
  191POPC  H17S22071   4.339   3.417   7.739
  191POPC  C21822072   4.517   3.307   7.775
  191POPC  H18R22073   4.626   3.313   7.755
  191POPC  H18S22074   4.473   3.225   7.714
  191POPC  H18T22075   4.501   3.278   7.881
  191POPC   C3322076   4.792   3.920   6.982
  191POPC   H3X22077   4.881   3.857   7.002
  191POPC   H3Y22078   4.702   3.855   6.988
  191POPC   C3422079   4.784   4.025   7.092
  191POPC   H4X22080   4.680   4.030   7.131
  191POPC   H4Y22081   4.808   4.126   7.051
  191POPC   C3522082   4.882   3.997   7.206
  191POPC   H5X22083   4.986   3.997   7.169
  191POPC   H5Y22084   4.863   3.897   7.250
  191POPC   C3622085   4.865   4.105   7.311
  191POPC   H6X22086   4.757   4.124   7.330
  191POPC   H6Y22087   4.909   4.198   7.269
  191POPC   C3722088   4.936   4.079   7.442
  191POPC   H7X22089   4.914   4.172   7.499
  191POPC   H7Y22090   5.046   4.070   7.430
  191POPC   C3822091   4.880   3.970   7.532
  191POPC   H8X22092   4.931   3.873   7.512
  191POPC   H8Y22093   4.771   3.958   7.516
  191POPC   C3922094   4.899   4.017   7.676
  191POPC   H9X22095   4.812   4.079   7.706
  191POPC   H9Y22096   4.989   4.082   7.682
  191POPC  C31022097   4.922   3.905   7.776
  191POPC  H10X22098   5.015   3.850   7.753
  191POPC  H10Y22099   4.837   3.834   7.772
  191POPC  C31122100   4.930   3.968   7.915
  191POPC  H11X22101   4.841   4.034   7.926
  191POPC  H11Y22102   5.020   4.032   7.924
  191POPC  C31222103   4.928   3.861   8.023
  191POPC  H12X22104   5.011   3.790   8.005
  191POPC  H12Y22105   4.834   3.803   8.014
  191POPC  C31322106   4.943   3.917   8.165
  191POPC  H13X22107   5.049   3.945   8.179
  191POPC  H13Y22108   4.923   3.833   8.234
  191POPC  C31422109   4.859   4.041   8.205
  191POPC  H14X22110   4.913   4.131   8.166
  191POPC  H14Y22111   4.864   4.050   8.316
  191POPC  C31522112   4.712   4.056   8.161
  191POPC  H15X22113   4.709   4.100   8.060
  191POPC  H15Y22114   4.668   4.133   8.229
  191POPC  C31622115   4.618   3.935   8.162
  191POPC  H16X22116   4.522   3.961   8.112
  191POPC  H16Y22117   4.593   3.903   8.266
  191POPC  H16Z22118   4.661   3.848   8.108
  192POPC     N22119   2.498   6.696   5.979
  192POPC   C1222120   2.596   6.779   6.063
  192POPC  H12A22121   2.548   6.871   6.091
  192POPC  H12B22122   2.681   6.803   6.002
  192POPC   C1322123   2.388   6.639   6.063
  192POPC  H13A22124   2.333   6.715   6.116
  192POPC  H13B22125   2.318   6.583   6.003
  192POPC  H13C22126   2.431   6.570   6.135
  192POPC   C1422127   2.440   6.779   5.869
  192POPC  H14A22128   2.378   6.719   5.805
  192POPC  H14B22129   2.376   6.858   5.907
  192POPC  H14C22130   2.517   6.825   5.808
  192POPC   C1522131   2.570   6.580   5.918
  192POPC  H15A22132   2.647   6.611   5.849
  192POPC  H15B22133   2.502   6.511   5.869
  192POPC  H15C22134   2.620   6.526   5.996
  192POPC   C1122135   2.652   6.714   6.192
  192POPC  H11A22136   2.569   6.694   6.263
  192POPC  H11B22137   2.721   6.784   6.243
  192POPC     P22138   2.865   6.579   6.111
  192POPC   O1322139   2.924   6.714   6.102
  192POPC   O1422140   2.858   6.502   5.984
  192POPC   O1222141   2.716   6.592   6.162
  192POPC   O1122142   2.929   6.492   6.225
  192POPC    C122143   2.907   6.350   6.232
  192POPC    HA22144   2.957   6.312   6.324
  192POPC    HB22145   2.957   6.299   6.147
  192POPC    C222146   2.757   6.308   6.239
  192POPC    HS22147   2.712   6.333   6.141
  192POPC   O2122148   2.696   6.380   6.346
  192POPC   C2122149   2.567   6.404   6.334
  192POPC   O2222150   2.498   6.380   6.237
  192POPC   C2222151   2.515   6.462   6.466
  192POPC   H2R22152   2.445   6.387   6.509
  192POPC   H2S22153   2.459   6.556   6.444
  192POPC    C322154   2.736   6.155   6.262
  192POPC    HX22155   2.789   6.102   6.180
  192POPC    HY22156   2.628   6.132   6.250
  192POPC   O3122157   2.789   6.110   6.388
  192POPC   C3122158   2.706   6.122   6.492
  192POPC   O3222159   2.587   6.147   6.487
  192POPC   C3222160   2.784   6.087   6.619
  192POPC   H2X22161   2.869   6.158   6.628
  192POPC   H2Y22162   2.824   5.985   6.606
  192POPC   C2322163   2.626   6.487   6.570
  192POPC   H3R22164   2.695   6.567   6.535
  192POPC   H3S22165   2.686   6.394   6.582
  192POPC   C2422166   2.570   6.521   6.707
  192POPC   H4R22167   2.487   6.452   6.733
  192POPC   H4S22168   2.530   6.624   6.705
  192POPC   C2522169   2.680   6.509   6.813
  192POPC   H5R22170   2.769   6.564   6.777
  192POPC   H5S22171   2.709   6.402   6.825
  192POPC   C2622172   2.640   6.566   6.949
  192POPC   H6R22173   2.613   6.673   6.935
  192POPC   H6S22174   2.731   6.562   7.013
  192POPC   C2722175   2.525   6.493   7.020
  192POPC   H7R22176   2.559   6.391   7.047
  192POPC   H7S22177   2.440   6.481   6.950
  192POPC   C2822178   2.472   6.565   7.146
  192POPC   H8R22179   2.428   6.488   7.213
  192POPC   H8S22180   2.387   6.628   7.113
  192POPC   C2922181   2.572   6.652   7.219
  192POPC   H9122182   2.667   6.674   7.167
  192POPC  C21022183   2.557   6.704   7.341
  192POPC  H10122184   2.639   6.763   7.384
  192POPC  C21122185   2.438   6.684   7.430
  192POPC  H11R22186   2.353   6.636   7.376
  192POPC  H11S22187   2.397   6.777   7.473
  192POPC  C21222188   2.488   6.596   7.543
  192POPC  H12R22189   2.416   6.603   7.627
  192POPC  H12S22190   2.585   6.630   7.584
  192POPC  C21322191   2.497   6.451   7.495
  192POPC  H13R22192   2.579   6.441   7.421
  192POPC  H13S22193   2.404   6.423   7.442
  192POPC  C21422194   2.519   6.352   7.609
  192POPC  H14R22195   2.528   6.251   7.564
  192POPC  H14S22196   2.426   6.355   7.670
  192POPC  C21522197   2.637   6.387   7.699
  192POPC  H15R22198   2.610   6.472   7.764
  192POPC  H15S22199   2.722   6.419   7.635
  192POPC  C21622200   2.684   6.269   7.785
  192POPC  H16R22201   2.602   6.239   7.853
  192POPC  H16S22202   2.769   6.303   7.848
  192POPC  C21722203   2.730   6.150   7.699
  192POPC  H17R22204   2.794   6.190   7.618
  192POPC  H17S22205   2.642   6.102   7.652
  192POPC  C21822206   2.809   6.043   7.775
  192POPC  H18R22207   2.849   5.968   7.703
  192POPC  H18S22208   2.745   5.990   7.848
  192POPC  H18T22209   2.895   6.089   7.829
  192POPC   C3322210   2.699   6.092   6.748
  192POPC   H3X22211   2.603   6.038   6.733
  192POPC   H3Y22212   2.673   6.198   6.772
  192POPC   C3422213   2.774   6.028   6.864
  192POPC   H4X22214   2.877   6.071   6.871
  192POPC   H4Y22215   2.786   5.920   6.841
  192POPC   C3522216   2.704   6.042   7.000
  192POPC   H5X22217   2.720   5.947   7.056
  192POPC   H5Y22218   2.595   6.057   6.987
  192POPC   C3622219   2.759   6.154   7.087
  192POPC   H6X22220   2.733   6.251   7.039
  192POPC   H6Y22221   2.869   6.147   7.091
  192POPC   C3722222   2.703   6.148   7.229
  192POPC   H7X22223   2.710   6.044   7.268
  192POPC   H7Y22224   2.595   6.175   7.227
  192POPC   C3822225   2.777   6.242   7.325
  192POPC   H8X22226   2.878   6.200   7.346
  192POPC   H8Y22227   2.721   6.247   7.421
  192POPC   C3922228   2.791   6.383   7.267
  192POPC   H9X22229   2.691   6.416   7.233
  192POPC   H9Y22230   2.856   6.378   7.177
  192POPC  C31022231   2.849   6.487   7.363
  192POPC  H10X22232   2.776   6.509   7.444
  192POPC  H10Y22233   2.865   6.581   7.307
  192POPC  C31122234   2.981   6.444   7.428
  192POPC  H11X22235   3.049   6.407   7.349
  192POPC  H11Y22236   2.964   6.359   7.497
  192POPC  C31222237   3.049   6.559   7.503
  192POPC  H12X22238   3.046   6.652   7.442
  192POPC  H12Y22239   3.156   6.532   7.516
  192POPC  C31322240   2.987   6.583   7.641
  192POPC  H13X22241   3.069   6.583   7.716
  192POPC  H13Y22242   2.919   6.499   7.666
  192POPC  C31422243   2.909   6.715   7.653
  192POPC  H14X22244   2.837   6.724   7.569
  192POPC  H14Y22245   2.980   6.800   7.642
  192POPC  C31522246   2.833   6.733   7.786
  192POPC  H15X22247   2.728   6.701   7.771
  192POPC  H15Y22248   2.831   6.841   7.810
  192POPC  C31622249   2.891   6.656   7.906
  192POPC  H16X22250   3.001   6.669   7.914
  192POPC  H16Y22251   2.870   6.547   7.895
  192POPC  H16Z22252   2.844   6.691   8.001
  193SOD    SOD22253   5.733   6.729   4.334
  194SOD    SOD22254   3.869   0.093   2.767
  195SOD    SOD22255   6.465   0.634  14.408
  196SOD    SOD22256   3.925   2.087  12.444
  197SOD    SOD22257   3.623   6.133   2.051
  198SOD    SOD22258   1.958   5.034   1.123
  199SOD    SOD22259   2.015   5.786   0.488
  200SOD    SOD22260   3.200   3.037   3.728
  201SOD    SOD22261   0.363   2.280   2.307
  202SOD    SOD22262   0.425   0.864  15.425
  203SOD    SOD22263   4.950   1.978   4.777
  204SOD    SOD22264   4.745   2.845   2.075
  205SOD    SOD22265   5.303   4.932  15.438
  206SOD    SOD22266   1.950   4.683  15.606
  207SOD    SOD22267   6.673   4.219   2.810
  208SOD    SOD22268   4.572   6.660  12.554
  209SOD    SOD22269   2.826   4.949   0.500
  210SOD    SOD22270   3.731   4.399  12.665
  211SOD    SOD22271   0.505   4.217  10.460
  212SOD    SOD22272   5.897   2.172   4.094
  213SOD    SOD22273   0.840   6.799   4.618
  214SOD    SOD22274   5.772   4.337  11.456
  215SOD    SOD22275   7.131   5.709  15.982
  216SOD    SOD22276   5.516   5.596  14.605
  217SOD    SOD22277   2.107   0.180  11.821
  218SOD    SOD22278   0.546   2.153  15.641
  219SOD    SOD22279   3.537   4.421  14.649
  220SOD    SOD22280   5.815   3.565   5.889
  221SOD    SOD22281   2.143   6.279   1.778
  222SOD    SOD22282   6.347   1.123  11.012
  223SOD    SOD22283   0.894   1.739  10.565
  224SOD    SOD22284   6.373   5.947  14.403
  225SOD    SOD22285   5.084   4.961  14.440
  226SOD    SOD22286   4.644   0.466  15.138
  227SOD    SOD22287   0.038   1.589  10.973
  228SOD    SOD22288   4.718   6.748   0.616
  229SOD    SOD22289   2.539   3.909   2.325
  230SOD    SOD22290   2.141   1.409  14.969
  231SOD    SOD22291   0.404   1.440   5.022
  232SOD    SOD22292   0.773   5.721  12.316
  233SOD    SOD22293   5.393   0.023  14.264
  234SOD    SOD22294   4.362   0.271   3.552
  235SOD    SOD22295   6.939   5.012   4.470
  236SOD    SOD22296   2.811   5.064   2.674
  237SOD    SOD22297   5.240   3.999   3.612
  238SOD    SOD22298   1.482   7.086  10.797
  239SOD    SOD22299   0.634   7.233   1.083
  240SOD    SOD22300   2.957   2.147   0.246
  241SOD    SOD22301   6.853   2.871   5.370
  242SOD    SOD22302   2.553   3.671  15.170
  243SOD    SOD22303   5.757   0.240  15.586
  244SOD    SOD22304   4.284   1.755  13.557
  245SOD    SOD22305   0.648   2.724   5.438
  246SOD    SOD22306   3.286   1.952  13.898
  247SOD    SOD22307   6.161   3.908  13.135
  248SOD    SOD22308   5.889   5.845   2.398
  249SOD    SOD22309   0.481   2.016   1.372
  250SOD    SOD22310   5.461   0.104   0.444
  251SOD    SOD22311   5.419   3.101   0.777
  252SOD    SOD22312   0.388   2.162   0.369
  253SOD    SOD22313   5.882   3.362  14.612
  254SOD    SOD22314   2.581   3.987  10.887
  255SOD    SOD22315   2.018   4.188  15.682
  256SOD    SOD22316   6.584   4.531   3.701
  257SOD    SOD22317   2.057   3.027   5.297
  258SOD    SOD22318   2.649   1.157  15.846
  259SOD    SOD22319   2.151   3.387  11.066
  260SOD    SOD22320   4.541   4.497   0.554
  261SOD    SOD22321   1.598   1.355  10.875
  262SOD    SOD22322   4.947   1.110   2.303
  263SOD    SOD22323   3.548   4.745   0.435
  264SOD    SOD22324   1.304   4.110  15.048
  265SOD    SOD22325   0.339   3.562  10.175
  266SOD    SOD22326   5.991   4.547  14.057
  267SOD    SOD22327   3.224   0.212   2.465
  268SOD    SOD22328   2.001   4.493  11.585
  269SOD    SOD22329   6.673   3.682   4.470
  270CLA    CLA22330   4.060   0.640   2.242
  271CLA    CLA22331   1.771   2.527  14.472
  272CLA    CLA22332   1.376   1.314   1.230
  273CLA    CLA22333   7.031   2.562   0.576
  274CLA    CLA22334   3.093   7.184  15.870
  275CLA    CLA22335   6.312   4.657   4.219
  276CLA    CLA22336   2.207   5.592   4.104
  277CLA    CLA22337   1.628   4.806   4.694
  278CLA    CLA22338   5.793   0.479  13.146
  279CLA    CLA22339   5.851   4.617  14.283
  280CLA    CLA22340   0.059   1.674  13.826
  281CLA    CLA22341   1.368   6.825  11.775
  282CLA    CLA22342   3.079   5.797  12.456
  283CLA    CLA22343   3.913   0.650  11.288
  284CLA    CLA22344   3.295   7.073  11.610
  285CLA    CLA22345   2.155   1.558  11.932
  286CLA    CLA22346   2.790   2.527   2.655
  287CLA    CLA22347   0.487   5.652  13.399
  288CLA    CLA22348   2.296   1.386  14.234
  289CLA    CLA22349   5.424   5.684   4.943
  290CLA    CLA22350   5.713   5.705   0.439
  291CLA    CLA22351   5.936   6.765   5.009
  292CLA    CLA22352   0.405   2.944   1.965
  293CLA    CLA22353   6.934   2.108   2.455
  294CLA    CLA22354   4.576   2.475  14.752
  295CLA    CLA22355   2.493   1.069   3.430
  296CLA    CLA22356   4.054   1.751  13.422
  297CLA    CLA22357   1.008   5.791  11.941
  298CLA    CLA22358   5.089   2.417  13.156
  299CLA    CLA22359   2.907   3.949  15.576
  300CLA    CLA22360   4.875   4.608  13.431
  301CLA    CLA22361   0.987   1.598  10.360
  302CLA    CLA22362   6.161   3.847   2.657
  303CLA    CLA22363   2.336   1.355   2.274
  304CLA    CLA22364   3.253   2.070   5.414
  305CLA    CLA22365   1.009   0.935   5.635
  306CLA    CLA22366   5.513   3.634   5.682
  307CLA    CLA22367   6.904   3.521   0.004
  308CLA    CLA22368   5.424   4.916   2.828
  309CLA    CLA22369   7.018   0.644  13.158
  310CLA    CLA22370   2.186   4.822  12.446
  311CLA    CLA22371   6.752   7.293   1.596
  312CLA    CLA22372   4.187   1.922  13.950
  313CLA    CLA22373   0.738   6.189  12.826
  314CLA    CLA22374   0.771   5.935   3.970
  315CLA    CLA22375   2.978   6.241   1.905
  316CLA    CLA22376   4.093   3.627  15.223
  317CLA    CLA22377   1.869   0.519  15.728
  318CLA    CLA22378   1.405   7.183  15.332
  319CLA    CLA22379   3.831   7.104  10.702
  320CLA    CLA22380   3.720   5.784   0.999
  321CLA    CLA22381   2.842   3.374  12.920
  322CLA    CLA22382   2.818   1.822  10.719
  323TIP3   OH222383   3.825   3.557  10.234
  323TIP3    H122384   3.798   3.628  10.176
  323TIP3    H222385   3.759   3.488  10.219
  324TIP3   OH222386   3.724   3.726  10.010
  324TIP3    H122387   3.661   3.767   9.951
  324TIP3    H222388   3.770   3.663   9.955
  325TIP3   OH222389   5.003   3.136   9.999
  325TIP3    H122390   5.058   3.070   9.956
  325TIP3    H222391   4.956   3.179   9.927
  326TIP3   OH222392   5.915   4.334   9.787
  326TIP3    H122393   5.865   4.352   9.866
  326TIP3    H222394   5.850   4.334   9.717
  327TIP3   OH222395   5.645   3.863  10.107
  327TIP3    H122396   5.614   3.915  10.033
  327TIP3    H222397   5.738   3.848  10.088
  328TIP3   OH222398   5.317   4.112  10.046
  328TIP3    H122399   5.315   4.201  10.011
  328TIP3    H222400   5.378   4.065   9.990
  329TIP3   OH222401   5.144   2.501  10.097
  329TIP3    H122402   5.211   2.555  10.055
  329TIP3    H222403   5.099   2.458  10.025
  330TIP3   OH222404   4.882   2.650  10.027
  330TIP3    H122405   4.950   2.665  10.093
  330TIP3    H222406   4.908   2.570   9.983
  331TIP3   OH222407   4.798   2.174   9.995
  331TIP3    H122408   4.753   2.173  10.080
  331TIP3    H222409   4.781   2.087   9.958
  332TIP3   OH222410   3.026   5.365   9.969
  332TIP3    H122411   3.093   5.390  10.033
  332TIP3    H222412   2.998   5.278   9.997
  333TIP3   OH222413   5.017   1.684  10.009
  333TIP3    H122414   5.032   1.650  10.097
  333TIP3    H222415   5.104   1.685   9.969
  334TIP3   OH222416   4.593   1.276  10.096
  334TIP3    H122417   4.565   1.355  10.050
  334TIP3    H222418   4.676   1.302  10.138
  335TIP3   OH222419   4.541   1.517   9.980
  335TIP3    H122420   4.511   1.593  10.030
  335TIP3    H222421   4.618   1.549   9.933
  336TIP3   OH222422   6.429   3.925  10.058
  336TIP3    H122423   6.377   3.975  10.121
  336TIP3    H222424   6.369   3.856  10.028
  337TIP3   OH222425   2.958   6.629   9.890
  337TIP3    H122426   3.039   6.617   9.940
  337TIP3    H222427   2.910   6.696   9.939
  338TIP3   OH222428   3.484   6.410  10.013
  338TIP3    H122429   3.423   6.425   9.941
  338TIP3    H222430   3.567   6.389   9.970
  339TIP3   OH222431   3.284   6.347  10.190
  339TIP3    H122432   3.356   6.368  10.130
  339TIP3    H222433   3.264   6.429  10.234
  340TIP3   OH222434   1.229   5.033   9.971
  340TIP3    H122435   1.309   4.994  10.007
  340TIP3    H222436   1.254   5.066   9.885
  341TIP3   OH222437   0.587   3.095   9.954
  341TIP3    H122438   0.594   3.084  10.049
  341TIP3    H222439   0.622   3.014   9.918
  342TIP3   OH222440   0.495   2.672   9.895
  342TIP3    H122441   0.425   2.737   9.908
  342TIP3    H222442   0.452   2.600   9.848
  343TIP3   OH222443   6.710   4.885  10.167
  343TIP3    H122444   6.668   4.903  10.084
  343TIP3    H222445   6.649   4.920  10.233
  344TIP3   OH222446   6.452   5.040   9.962
  344TIP3    H122447   6.422   5.063  10.049
  344TIP3    H222448   6.445   5.121   9.911
  345TIP3   OH222449   6.323   4.539   9.890
  345TIP3    H122450   6.246   4.521   9.836
  345TIP3    H222451   6.352   4.626   9.863
  346TIP3   OH222452   4.544   0.650  10.134
  346TIP3    H122453   4.539   0.702  10.054
  346TIP3    H222454   4.530   0.560  10.105
  347TIP3   OH222455   4.505   1.023  10.030
  347TIP3    H122456   4.529   1.115  10.040
  347TIP3    H222457   4.577   0.975  10.070
  348TIP3   OH222458   3.980   0.716  10.032
  348TIP3    H122459   3.908   0.687   9.975
  348TIP3    H222460   4.042   0.758   9.972
  349TIP3   OH222461   3.661   0.434  10.086
  349TIP3    H122462   3.628   0.346  10.105
  349TIP3    H222463   3.745   0.439  10.132
  350TIP3   OH222464   5.445   1.207  10.002
  350TIP3    H122465   5.388   1.135   9.976
  350TIP3    H222466   5.533   1.177   9.980
  351TIP3   OH222467   5.488   0.795  10.041
  351TIP3    H122468   5.580   0.773  10.026
  351TIP3    H222469   5.474   0.877   9.994
  352TIP3   OH222470   1.570   6.287  10.121
  352TIP3    H122471   1.615   6.298  10.037
  352TIP3    H222472   1.559   6.192  10.129
  353TIP3   OH222473   1.570   6.018  10.117
  353TIP3    H122474   1.616   6.018  10.033
  353TIP3    H222475   1.540   5.928  10.128
  354TIP3   OH222476   0.648   4.365  10.092
  354TIP3    H122477   0.601   4.362  10.009
  354TIP3    H222478   0.739   4.378  10.067
  355TIP3   OH222479   0.282   4.469   9.897
  355TIP3    H122480   0.367   4.436   9.870
  355TIP3    H222481   0.226   4.456   9.821
  356TIP3   OH222482   0.455   4.209  10.238
  356TIP3    H122483   0.392   4.168  10.179
  356TIP3    H222484   0.507   4.266  10.182
  357TIP3   OH222485   4.596   6.533  10.054
  357TIP3    H122486   4.644   6.458  10.088
  357TIP3    H222487   4.652   6.569   9.985
  358TIP3   OH222488   5.068   6.676  10.048
  358TIP3    H122489   5.149   6.632  10.020
  358TIP3    H222490   5.097   6.760  10.083
  359TIP3   OH222491   4.775   6.794  10.183
  359TIP3    H122492   4.862   6.833  10.175
  359TIP3    H222493   4.778   6.717  10.125
  360TIP3   OH222494   4.974   6.472  10.215
  360TIP3    H122495   5.014   6.531  10.151
  360TIP3    H222496   5.033   6.397  10.218
  361TIP3   OH222497   0.863   1.345  10.215
  361TIP3    H122498   0.920   1.299  10.154
  361TIP3    H222499   0.915   1.419  10.247
  362TIP3   OH222500   1.027   1.208  10.042
  362TIP3    H122501   1.086   1.222   9.969
  362TIP3    H222502   1.046   1.118  10.071
  363TIP3   OH222503   0.038   3.615  10.023
  363TIP3    H122504   0.024   3.520  10.019
  363TIP3    H222505  -0.049   3.652  10.018
  364TIP3   OH222506   0.330   3.364  10.040
  364TIP3    H122507   0.357   3.275  10.019
  364TIP3    H222508   0.315   3.406   9.955
  365TIP3   OH222509   6.978   4.367  10.057
  365TIP3    H122510   7.038   4.328  10.121
  365TIP3    H222511   6.900   4.389  10.107
  366TIP3   OH222512   3.262   7.259  10.040
  366TIP3    H122513   3.330   7.227   9.982
  366TIP3    H222514   3.244   7.187  10.100
  367TIP3   OH222515   4.422   0.017  10.124
  367TIP3    H122516   4.333   0.040  10.151
  367TIP3    H222517   4.415   0.004  10.029
  368TIP3   OH222518   4.006   7.208   9.959
  368TIP3    H122519   3.996   7.124  10.003
  368TIP3    H222520   3.917   7.236   9.941
  369TIP3   OH222521   4.144   0.048  10.159
  369TIP3    H122522   4.089   0.024  10.234
  369TIP3    H222523   4.108  -0.003  10.086
  370TIP3   OH222524   7.258   4.726  10.112
  370TIP3    H122525   7.237   4.798  10.171
  370TIP3    H222526   7.178   4.673  10.109
  371TIP3   OH222527   0.448   1.196  10.016
  371TIP3    H122528   0.423   1.278   9.973
  371TIP3    H222529   0.534   1.213  10.052
  372TIP3   OH222530   0.465   1.496  10.152
  372TIP3    H122531   0.533   1.560  10.173
  372TIP3    H222532   0.443   1.513  10.060
  373TIP3   OH222533   0.273   1.302  10.202
  373TIP3    H122534   0.333   1.377  10.201
  373TIP3    H222535   0.317   1.236  10.148
  374TIP3   OH222536   0.059   1.316   9.955
  374TIP3    H122537   0.012   1.237   9.930
  374TIP3    H222538   0.083   1.301  10.047
  375TIP3   OH222539   6.345   7.269  10.068
  375TIP3    H122540   6.286   7.330  10.023
  375TIP3    H222541   6.306   7.183  10.052
  376TIP3   OH222542   2.531   4.862   5.945
  376TIP3    H122543   2.532   4.945   5.992
  376TIP3    H222544   2.480   4.879   5.865
  377TIP3   OH222545   2.749   4.681   5.985
  377TIP3    H122546   2.665   4.717   5.959
  377TIP3    H222547   2.791   4.656   5.902
  378TIP3   OH222548   2.639   5.168   5.958
  378TIP3    H122549   2.592   5.238   6.003
  378TIP3    H222550   2.668   5.110   6.029
  379TIP3   OH222551   1.970   3.446   6.020
  379TIP3    H122552   1.901   3.392   6.058
  379TIP3    H222553   1.997   3.505   6.090
  380TIP3   OH222554   1.989   3.588   5.780
  380TIP3    H122555   1.969   3.676   5.811
  380TIP3    H222556   1.999   3.536   5.860
  381TIP3   OH222557   1.967   3.980   5.997
  381TIP3    H122558   1.957   3.907   6.059
  381TIP3    H222559   2.061   3.986   5.983
  382TIP3   OH222560   5.552   3.366   6.067
  382TIP3    H122561   5.540   3.354   5.973
  382TIP3    H222562   5.472   3.410   6.096
  383TIP3   OH222563   5.420   3.725   5.982
  383TIP3    H122564   5.440   3.817   6.000
  383TIP3    H222565   5.450   3.711   5.892
  384TIP3   OH222566   5.105   3.463   5.931
  384TIP3    H122567   5.157   3.480   6.009
  384TIP3    H222568   5.016   3.454   5.963
  385TIP3   OH222569   4.527   2.152   5.902
  385TIP3    H122570   4.491   2.063   5.910
  385TIP3    H222571   4.449   2.208   5.900
  386TIP3   OH222572   1.801   4.584   5.884
  386TIP3    H122573   1.848   4.577   5.967
  386TIP3    H222574   1.715   4.545   5.901
  387TIP3   OH222575   1.843   1.876   6.029
  387TIP3    H122576   1.878   1.956   6.069
  387TIP3    H222577   1.880   1.805   6.082
  388TIP3   OH222578   2.402   5.675   5.983
  388TIP3    H122579   2.455   5.663   5.904
  388TIP3    H222580   2.317   5.638   5.961
  389TIP3   OH222581   2.846   5.581   5.989
  389TIP3    H122582   2.779   5.631   6.035
  389TIP3    H222583   2.809   5.565   5.902
  390TIP3   OH222584   2.590   5.638   5.768
  390TIP3    H122585   2.569   5.554   5.726
  390TIP3    H222586   2.615   5.695   5.695
  391TIP3   OH222587   2.683   5.964   5.969
  391TIP3    H122588   2.730   5.942   5.888
  391TIP3    H222589   2.681   5.883   6.019
  392TIP3   OH222590   2.002   5.107   5.936
  392TIP3    H122591   1.920   5.146   5.904
  392TIP3    H222592   2.057   5.099   5.858
  393TIP3   OH222593   2.114   5.553   5.959
  393TIP3    H122594   2.115   5.473   6.011
  393TIP3    H222595   2.030   5.551   5.913
  394TIP3   OH222596   5.973   3.448   6.016
  394TIP3    H122597   5.971   3.367   6.066
  394TIP3    H222598   6.065   3.475   6.015
  395TIP3   OH222599   6.085   3.043   5.908
  395TIP3    H122600   6.086   2.950   5.886
  395TIP3    H222601   6.012   3.053   5.969
  396TIP3   OH222602   6.091   3.279   5.767
  396TIP3    H122603   6.104   3.196   5.812
  396TIP3    H222604   6.142   3.342   5.818
  397TIP3   OH222605   5.719   2.527   5.905
  397TIP3    H122606   5.750   2.474   5.832
  397TIP3    H222607   5.635   2.561   5.875
  398TIP3   OH222608   5.956   2.660   5.942
  398TIP3    H122609   5.993   2.581   5.904
  398TIP3    H222610   5.864   2.640   5.957
  399TIP3   OH222611   5.983   2.390   5.853
  399TIP3    H122612   5.915   2.350   5.907
  399TIP3    H222613   6.011   2.319   5.795
  400TIP3   OH222614   6.245   2.257   5.963
  400TIP3    H122615   6.160   2.301   5.965
  400TIP3    H222616   6.224   2.164   5.960
  401TIP3   OH222617   5.183   5.702   6.045
  401TIP3    H122618   5.238   5.771   6.082
  401TIP3    H222619   5.123   5.679   6.115
  402TIP3   OH222620   6.579   3.435   5.898
  402TIP3    H122621   6.538   3.511   5.856
  402TIP3    H222622   6.617   3.471   5.978
  403TIP3   OH222623   6.987   3.543   6.134
  403TIP3    H122624   7.006   3.609   6.201
  403TIP3    H222625   7.067   3.539   6.082
  404TIP3   OH222626   0.618   3.477   5.943
  404TIP3    H122627   0.669   3.435   6.012
  404TIP3    H222628   0.588   3.559   5.982
  405TIP3   OH222629   0.775   3.856   5.881
  405TIP3    H122630   0.852   3.805   5.859
  405TIP3    H222631   0.729   3.803   5.947
  406TIP3   OH222632   3.437   6.867   5.964
  406TIP3    H122633   3.442   6.777   5.932
  406TIP3    H222634   3.520   6.907   5.937
  407TIP3   OH222635   1.408   6.794   6.033
  407TIP3    H122636   1.401   6.848   6.112
  407TIP3    H222637   1.388   6.705   6.063
  408TIP3   OH222638   1.526   6.344   5.972
  408TIP3    H122639   1.504   6.403   5.900
  408TIP3    H222640   1.616   6.317   5.955
  409TIP3   OH222641   1.988   6.743   5.956
  409TIP3    H122642   1.910   6.789   5.985
  409TIP3    H222643   1.961   6.651   5.950
  410TIP3   OH222644   5.493   0.070   6.037
  410TIP3    H122645   5.466  -0.022   6.042
  410TIP3    H222646   5.425   0.118   6.083
  411TIP3   OH222647   5.403   0.541   5.976
  411TIP3    H122648   5.395   0.471   6.040
  411TIP3    H222649   5.424   0.496   5.894
  412TIP3   OH222650   5.057   0.371   6.011
  412TIP3    H122651   5.006   0.451   6.002
  412TIP3    H222652   4.992   0.303   6.032
  413TIP3   OH222653   5.433   0.304   5.832
  413TIP3    H122654   5.390   0.252   5.900
  413TIP3    H222655   5.515   0.259   5.815
  414TIP3   OH222656   0.722   6.073   5.752
  414TIP3    H122657   0.758   6.044   5.836
  414TIP3    H222658   0.654   6.135   5.776
  415TIP3   OH222659   0.929   6.083   5.957
  415TIP3    H122660   0.902   6.172   5.936
  415TIP3    H222661   0.891   6.067   6.044
  416TIP3   OH222662   0.402   2.066   6.241
  416TIP3    H122663   0.441   2.144   6.281
  416TIP3    H222664   0.463   1.995   6.262
  417TIP3   OH222665   0.379   1.617   5.778
  417TIP3    H122666   0.333   1.687   5.826
  417TIP3    H222667   0.314   1.547   5.770
  418TIP3   OH222668   0.369   1.373   5.967
  418TIP3    H122669   0.444   1.414   5.924
  418TIP3    H222670   0.405   1.296   6.010
  419TIP3   OH222671   0.226   1.802   5.919
  419TIP3    H122672   0.237   1.752   6.000
  419TIP3    H222673   0.147   1.855   5.934
  420TIP3   OH222674   0.266   0.044   6.044
  420TIP3    H122675   0.344   0.021   6.094
  420TIP3    H222676   0.193   0.009   6.096
  421TIP3   OH222677   1.207   1.029  10.617
  421TIP3    H122678   1.178   1.120  10.617
  421TIP3    H222679   1.144   0.983  10.562
  422TIP3   OH222680   1.097   0.936  11.051
  422TIP3    H122681   1.107   0.891  11.135
  422TIP3    H222682   1.039   0.880  11.000
  423TIP3   OH222683   0.319   0.898  11.193
  423TIP3    H122684   0.317   0.810  11.229
  423TIP3    H222685   0.405   0.905  11.151
  424TIP3   OH222686   1.413   1.229  10.928
  424TIP3    H122687   1.399   1.138  10.953
  424TIP3    H222688   1.335   1.274  10.959
  425TIP3   OH222689   0.425   1.356  11.004
  425TIP3    H122690   0.408   1.266  10.975
  425TIP3    H222691   0.520   1.361  11.011
  426TIP3   OH222692   0.140   0.762  10.541
  426TIP3    H122693   0.057   0.781  10.585
  426TIP3    H222694   0.116   0.747  10.450
  427TIP3   OH222695   0.196   0.926  10.827
  427TIP3    H122696   0.194   0.832  10.844
  427TIP3    H222697   0.187   0.933  10.732
  428TIP3   OH222698   1.173   1.758  10.904
  428TIP3    H122699   1.219   1.693  10.851
  428TIP3    H222700   1.105   1.708  10.949
  429TIP3   OH222701   0.905   1.213  11.062
  429TIP3    H122702   0.933   1.149  10.996
  429TIP3    H222703   0.982   1.223  11.118
  430TIP3   OH222704   1.825   0.336  11.163
  430TIP3    H122705   1.836   0.407  11.226
  430TIP3    H222706   1.883   0.358  11.090
  431TIP3   OH222707   1.240   0.621  11.071
  431TIP3    H122708   1.244   0.526  11.081
  431TIP3    H222709   1.218   0.635  10.979
  432TIP3   OH222710   0.579   0.424  10.800
  432TIP3    H122711   0.577   0.508  10.755
  432TIP3    H222712   0.540   0.363  10.738
  433TIP3   OH222713   1.341   0.422  10.647
  433TIP3    H122714   1.393   0.422  10.727
  433TIP3    H222715   1.371   0.499  10.599
  434TIP3   OH222716   0.188   0.656  10.893
  434TIP3    H122717   0.270   0.613  10.919
  434TIP3    H222718   0.152   0.600  10.824
  435TIP3   OH222719   0.697   0.826  10.854
  435TIP3    H122720   0.785   0.795  10.877
  435TIP3    H222721   0.665   0.762  10.791
  436TIP3   OH222722   1.844   0.511  11.378
  436TIP3    H122723   1.764   0.560  11.359
  436TIP3    H222724   1.852   0.513  11.473
  437TIP3   OH222725   0.431   0.337  11.231
  437TIP3    H122726   0.408   0.389  11.154
  437TIP3    H222727   0.357   0.350  11.291
  438TIP3   OH222728   1.128   1.289  10.569
  438TIP3    H122729   1.093   1.272  10.482
  438TIP3    H222730   1.060   1.340  10.613
  439TIP3   OH222731   0.695   1.115  11.214
  439TIP3    H122732   0.638   1.184  11.248
  439TIP3    H222733   0.761   1.161  11.162
  440TIP3   OH222734   1.459   0.405  10.890
  440TIP3    H122735   1.391   0.376  10.950
  440TIP3    H222736   1.516   0.461  10.943
  441TIP3   OH222737   0.409   0.502  11.002
  441TIP3    H122738   0.466   0.557  11.056
  441TIP3    H222739   0.466   0.469  10.933
  442TIP3   OH222740   0.537   1.317  11.326
  442TIP3    H122741   0.545   1.411  11.311
  442TIP3    H222742   0.447   1.305  11.356
  443TIP3   OH222743   0.117   1.272  10.421
  443TIP3    H122744   0.164   1.287  10.339
  443TIP3    H222745   0.161   1.196  10.460
  444TIP3   OH222746   1.524   1.487  11.048
  444TIP3    H122747   1.435   1.470  11.078
  444TIP3    H222748   1.532   1.582  11.049
  445TIP3   OH222749   1.569   0.280  11.256
  445TIP3    H122750   1.497   0.304  11.197
  445TIP3    H222751   1.648   0.300  11.205
  446TIP3   OH222752   0.785   0.082  10.968
  446TIP3    H122753   0.810   0.022  11.038
  446TIP3    H222754   0.695   0.107  10.988
  447TIP3   OH222755   1.319   1.583  10.735
  447TIP3    H122756   1.358   1.501  10.705
  447TIP3    H222757   1.390   1.647  10.730
  448TIP3   OH222758   1.479   1.351  10.670
  448TIP3    H122759   1.501   1.343  10.577
  448TIP3    H222760   1.405   1.292  10.682
  449TIP3   OH222761   1.604   1.241  11.423
  449TIP3    H122762   1.599   1.186  11.346
  449TIP3    H222763   1.613   1.330  11.389
  450TIP3   OH222764   1.041   0.925  10.419
  450TIP3    H122765   0.978   0.995  10.439
  450TIP3    H222766   1.052   0.930  10.324
  451TIP3   OH222767   1.772   0.899  11.266
  451TIP3    H122768   1.701   0.963  11.257
  451TIP3    H222769   1.836   0.925  11.200
  452TIP3   OH222770   1.437   0.980  10.477
  452TIP3    H122771   1.356   1.001  10.524
  452TIP3    H222772   1.487   0.927  10.539
  453TIP3   OH222773   1.380   0.773  11.453
  453TIP3    H122774   1.374   0.844  11.516
  453TIP3    H222775   1.312   0.793  11.388
  454TIP3   OH222776   0.555   1.021  10.706
  454TIP3    H122777   0.514   0.987  10.627
  454TIP3    H222778   0.604   0.946  10.742
  455TIP3   OH222779   0.704   1.380  10.955
  455TIP3    H122780   0.701   1.355  10.863
  455TIP3    H222781   0.775   1.326  10.992
  456TIP3   OH222782   0.576   0.894  11.093
  456TIP3    H122783   0.613   0.884  11.005
  456TIP3    H222784   0.616   0.975  11.127
  457TIP3   OH222785   1.277   1.438  11.149
  457TIP3    H122786   1.246   1.519  11.191
  457TIP3    H222787   1.221   1.370  11.186
  458TIP3   OH222788   0.703   1.346  11.546
  458TIP3    H122789   0.642   1.405  11.589
  458TIP3    H222790   0.657   1.316  11.467
  459TIP3   OH222791   1.278   0.835  10.259
  459TIP3    H122792   1.312   0.911  10.305
  459TIP3    H222793   1.210   0.869  10.202
  460TIP3   OH222794   0.393   0.934  11.488
  460TIP3    H122795   0.384   1.009  11.546
  460TIP3    H222796   0.348   0.960  11.407
  461TIP3   OH222797   1.047   1.583  10.660
  461TIP3    H122798   1.139   1.582  10.687
  461TIP3    H222799   1.050   1.558  10.567
  462TIP3   OH222800   0.506   1.530  11.614
  462TIP3    H122801   0.515   1.558  11.523
  462TIP3    H222802   0.412   1.526  11.629
  463TIP3   OH222803   0.440   0.932  10.470
  463TIP3    H122804   0.483   0.982  10.402
  463TIP3    H222805   0.396   0.861  10.423
  464TIP3   OH222806   0.157   1.134  11.340
  464TIP3    H122807   0.138   1.111  11.249
  464TIP3    H222808   0.133   1.056  11.390
  465TIP3   OH222809   0.151   1.401  11.045
  465TIP3    H122810   0.245   1.388  11.033
  465TIP3    H222811   0.116   1.314  11.058
  466TIP3   OH222812   1.859   1.536  11.630
  466TIP3    H122813   1.851   1.441  11.625
  466TIP3    H222814   1.774   1.566  11.663
  467TIP3   OH222815   0.942   1.471  11.490
  467TIP3    H122816   0.940   1.554  11.537
  467TIP3    H222817   0.857   1.430  11.510
  468TIP3   OH222818   0.975   1.897  10.408
  468TIP3    H122819   0.978   1.817  10.356
  468TIP3    H222820   1.024   1.961  10.357
  469TIP3   OH222821   0.361   1.712  10.663
  469TIP3    H122822   0.416   1.672  10.731
  469TIP3    H222823   0.338   1.639  10.605
  470TIP3   OH222824   1.244   1.810  10.529
  470TIP3    H122825   1.192   1.821  10.450
  470TIP3    H222826   1.283   1.723  10.520
  471TIP3   OH222827   1.548   0.648  11.659
  471TIP3    H122828   1.491   0.683  11.591
  471TIP3    H222829   1.561   0.556  11.636
  472TIP3   OH222830   0.291   1.330  11.473
  472TIP3    H122831   0.328   1.273  11.540
  472TIP3    H222832   0.234   1.272  11.421
  473TIP3   OH222833   0.517   0.127  11.048
  473TIP3    H122834   0.427   0.127  11.013
  473TIP3    H222835   0.513   0.184  11.124
  474TIP3   OH222836   1.041   0.133  11.415
  474TIP3    H122837   1.078   0.055  11.456
  474TIP3    H222838   0.947   0.128  11.433
  475TIP3   OH222839   1.317   0.502  11.481
  475TIP3    H122840   1.249   0.488  11.546
  475TIP3    H222841   1.320   0.597  11.470
  476TIP3   OH222842   0.564   0.642  11.190
  476TIP3    H122843   0.494   0.644  11.254
  476TIP3    H222844   0.572   0.732  11.160
  477TIP3   OH222845   0.585   0.661  10.667
  477TIP3    H122846   0.491   0.651  10.652
  477TIP3    H222847   0.625   0.646  10.582
  478TIP3   OH222848   1.107   0.686  10.538
  478TIP3    H122849   1.077   0.768  10.499
  478TIP3    H222850   1.184   0.662  10.487
  479TIP3   OH222851   1.023   0.714  11.666
  479TIP3    H122852   0.967   0.645  11.702
  479TIP3    H222853   1.108   0.701  11.707
  480TIP3   OH222854   1.207   0.636  10.797
  480TIP3    H122855   1.165   0.689  10.729
  480TIP3    H222856   1.223   0.551  10.755
  481TIP3   OH222857   0.339   0.660  11.348
  481TIP3    H122858   0.331   0.715  11.426
  481TIP3    H222859   0.293   0.579  11.370
  482TIP3   OH222860   0.110   0.437  10.711
  482TIP3    H122861   0.070   0.383  10.779
  482TIP3    H222862   0.069   0.406  10.630
  483TIP3   OH222863   1.162   0.783  11.274
  483TIP3    H122864   1.196   0.726  11.205
  483TIP3    H222865   1.095   0.730  11.318
  484TIP3   OH222866   0.853   0.424  10.794
  484TIP3    H122867   0.758   0.422  10.795
  484TIP3    H222868   0.879   0.397  10.882
  485TIP3   OH222869   0.328   0.582  10.631
  485TIP3    H122870   0.278   0.653  10.591
  485TIP3    H222871   0.263   0.518  10.657
  486TIP3   OH222872   0.697   0.609  10.428
  486TIP3    H122873   0.787   0.641  10.420
  486TIP3    H222874   0.646   0.664  10.368
  487TIP3   OH222875   1.242   0.341  11.056
  487TIP3    H122876   1.215   0.342  11.147
  487TIP3    H222877   1.171   0.296  11.010
  488TIP3   OH222878   0.619   0.793  10.248
  488TIP3    H122879   0.532   0.768  10.219
  488TIP3    H222880   0.663   0.823  10.169
  489TIP3   OH222881   1.607   1.902  11.733
  489TIP3    H122882   1.631   1.935  11.647
  489TIP3    H222883   1.682   1.923  11.789
  490TIP3   OH222884   0.370   1.152  11.669
  490TIP3    H122885   0.431   1.143  11.742
  490TIP3    H222886   0.284   1.156  11.710
  491TIP3   OH222887   0.938   0.717  10.955
  491TIP3    H122888   0.986   0.654  10.902
  491TIP3    H222889   0.903   0.665  11.028
  492TIP3   OH222890   0.458   0.274  10.605
  492TIP3    H122891   0.398   0.203  10.629
  492TIP3    H222892   0.405   0.334  10.553
  493TIP3   OH222893   0.832   0.573  11.171
  493TIP3    H122894   0.743   0.608  11.182
  493TIP3    H222895   0.878   0.598  11.251
  494TIP3   OH222896   0.880   1.134  10.475
  494TIP3    H122897   0.812   1.126  10.407
  494TIP3    H222898   0.834   1.170  10.550
  495TIP3   OH222899   1.587   1.093  11.189
  495TIP3    H122900   1.627   1.147  11.121
  495TIP3    H222901   1.509   1.056  11.148
  496TIP3   OH222902   1.168   0.400  10.218
  496TIP3    H122903   1.190   0.364  10.132
  496TIP3    H222904   1.190   0.493  10.211
  497TIP3   OH222905   1.017   1.188  11.485
  497TIP3    H122906   1.036   1.151  11.572
  497TIP3    H222907   0.986   1.276  11.503
  498TIP3   OH222908   1.340   0.617  10.406
  498TIP3    H122909   1.433   0.603  10.391
  498TIP3    H222910   1.316   0.687  10.345
  499TIP3   OH222911   0.394   1.101  10.913
  499TIP3    H122912   0.460   1.086  10.845
  499TIP3    H222913   0.325   1.038  10.894
  500TIP3   OH222914   0.079   0.929  11.494
  500TIP3    H122915   0.106   0.906  11.583
  500TIP3    H222916   0.039   0.849  11.460
  501TIP3   OH222917   0.811   0.899  11.685
  501TIP3    H122918   0.745   0.861  11.628
  501TIP3    H222919   0.891   0.850  11.665
  502TIP3   OH222920   1.224   1.450  11.488
  502TIP3    H122921   1.131   1.455  11.467
  502TIP3    H222922   1.229   1.465  11.582
  503TIP3   OH222923   1.831   1.253  11.577
  503TIP3    H122924   1.741   1.259  11.547
  503TIP3    H222925   1.882   1.230  11.499
  504TIP3   OH222926   1.372   0.983  11.036
  504TIP3    H122927   1.277   0.971  11.038
  504TIP3    H222928   1.405   0.910  10.985
  505TIP3   OH222929   0.621   1.457  10.649
  505TIP3    H122930   0.637   1.551  10.643
  505TIP3    H222931   0.622   1.427  10.558
  506TIP3   OH222932   0.744   1.221  10.706
  506TIP3    H122933   0.699   1.299  10.674
  506TIP3    H222934   0.678   1.152  10.704
  507TIP3   OH222935   0.833   1.615  11.266
  507TIP3    H122936   0.891   1.689  11.245
  507TIP3    H222937   0.886   1.559  11.323
  508TIP3   OH222938   0.659   1.725  10.582
  508TIP3    H122939   0.601   1.729  10.506
  508TIP3    H222940   0.658   1.813  10.618
  509TIP3   OH222941   1.128   1.214  11.234
  509TIP3    H122942   1.090   1.206  11.322
  509TIP3    H222943   1.181   1.135  11.223
  510TIP3   OH222944   1.427   1.652  11.461
  510TIP3    H122945   1.349   1.599  11.443
  510TIP3    H222946   1.421   1.725  11.398
  511TIP3   OH222947   0.221   0.407  11.417
  511TIP3    H122948   0.126   0.413  11.418
  511TIP3    H222949   0.241   0.333  11.474
  512TIP3   OH222950   1.535   1.264  10.413
  512TIP3    H122951   1.465   1.207  10.381
  512TIP3    H222952   1.611   1.207  10.421
  513TIP3   OH222953   0.230   1.596  11.265
  513TIP3    H122954   0.196   1.508  11.251
  513TIP3    H222955   0.247   1.600  11.359
  514TIP3   OH222956   0.657   1.397  10.390
  514TIP3    H122957   0.727   1.356  10.338
  514TIP3    H222958   0.628   1.471  10.337
  515TIP3   OH222959   1.154   0.358  11.310
  515TIP3    H122960   1.216   0.389  11.376
  515TIP3    H222961   1.115   0.280  11.349
  516TIP3   OH222962   1.282   0.266  10.426
  516TIP3    H122963   1.236   0.312  10.356
  516TIP3    H222964   1.286   0.330  10.497
  517TIP3   OH222965   0.941   0.464  10.529
  517TIP3    H122966   0.999   0.540  10.522
  517TIP3    H222967   0.887   0.481  10.606
  518TIP3   OH222968   0.993   0.608  11.401
  518TIP3    H122969   0.995   0.637  11.492
  518TIP3    H222970   1.026   0.518  11.404
  519TIP3   OH222971   1.010   0.221  10.640
  519TIP3    H122972   0.975   0.309  10.631
  519TIP3    H222973   1.066   0.210  10.562
  520TIP3   OH222974   0.658   1.666  10.267
  520TIP3    H122975   0.753   1.654  10.263
  520TIP3    H222976   0.646   1.761  10.264
  521TIP3   OH222977   1.567   0.406  11.508
  521TIP3    H122978   1.474   0.428  11.503
  521TIP3    H222979   1.587   0.364  11.425
  522TIP3   OH222980   1.453   0.762  10.884
  522TIP3    H122981   1.368   0.722  10.866
  522TIP3    H222982   1.495   0.701  10.945
  523TIP3   OH222983   1.582   1.750  11.074
  523TIP3    H122984   1.566   1.818  11.008
  523TIP3    H222985   1.677   1.746  11.081
  524TIP3   OH222986   0.257   0.113  10.956
  524TIP3    H122987   0.257   0.101  10.861
  524TIP3    H222988   0.214   0.035  10.990
  525TIP3   OH222989   0.193   1.528  10.520
  525TIP3    H122990   0.161   1.440  10.501
  525TIP3    H222991   0.205   1.568  10.434
  526TIP3   OH222992   0.188   1.802  11.723
  526TIP3    H122993   0.245   1.798  11.799
  526TIP3    H222994   0.186   1.713  11.689
  527TIP3   OH222995   0.585   1.619  11.862
  527TIP3    H122996   0.663   1.568  11.882
  527TIP3    H222997   0.560   1.591  11.774
  528TIP3   OH222998   1.223   1.489  11.760
  528TIP3    H122999   1.209   1.407  11.806
  528TIP3    H223000   1.300   1.528  11.803
  529TIP3   OH223001   1.417   1.569  10.050
  529TIP3    H123002   1.344   1.518  10.014
  529TIP3    H223003   1.406   1.657  10.013
  530TIP3   OH223004   0.103   1.175  11.753
  530TIP3    H123005   0.103   1.079  11.751
  530TIP3    H223006   0.042   1.200  11.683
  531TIP3   OH223007   0.779   1.172  11.747
  531TIP3    H123008   0.760   1.216  11.664
  531TIP3    H223009   0.803   1.083  11.722
  532TIP3   OH223010   1.344   1.191  11.506
  532TIP3    H123011   1.434   1.214  11.484
  532TIP3    H223012   1.294   1.271  11.491
  533TIP3   OH223013   0.187   0.901  11.748
  533TIP3    H123014   0.268   0.856  11.725
  533TIP3    H223015   0.185   0.900  11.843
  534TIP3   OH223016   0.691   1.047  10.294
  534TIP3    H123017   0.665   0.955  10.302
  534TIP3    H223018   0.740   1.051  10.212
  535TIP3   OH223019   0.627   0.787  11.503
  535TIP3    H123020   0.546   0.839  11.495
  535TIP3    H223021   0.684   0.821  11.435
  536TIP3   OH223022   1.121   1.029  11.790
  536TIP3    H123023   1.194   0.990  11.742
  536TIP3    H223024   1.089   0.958  11.846
  537TIP3   OH223025   0.651   0.525  11.571
  537TIP3    H123026   0.659   0.470  11.494
  537TIP3    H223027   0.644   0.614  11.537
  538TIP3   OH223028   0.683   0.376  11.335
  538TIP3    H123029   0.732   0.422  11.268
  538TIP3    H223030   0.595   0.366  11.299
  539TIP3   OH223031   0.810   0.897  11.337
  539TIP3    H123032   0.903   0.920  11.344
  539TIP3    H223033   0.770   0.972  11.293
  540TIP3   OH223034   1.260   0.654  11.819
  540TIP3    H123035   1.276   0.560  11.822
  540TIP3    H223036   1.347   0.693  11.813
  541TIP3   OH223037   1.393   0.969  11.655
  541TIP3    H123038   1.364   1.048  11.609
  541TIP3    H223039   1.488   0.972  11.650
  542TIP3   OH223040   0.498   0.581  11.796
  542TIP3    H123041   0.415   0.536  11.780
  542TIP3    H223042   0.545   0.575  11.713
  543TIP3   OH223043   0.758   0.123  11.418
  543TIP3    H123044   0.739   0.214  11.397
  543TIP3    H223045   0.679   0.075  11.395
  544TIP3   OH223046   0.868   0.501  11.739
  544TIP3    H123047   0.851   0.430  11.800
  544TIP3    H223048   0.790   0.505  11.685
  545TIP3   OH223049   1.121   0.428  11.649
  545TIP3    H123050   1.031   0.436  11.681
  545TIP3    H223051   1.167   0.381  11.719
  546TIP3   OH223052   1.320   0.370  11.857
  546TIP3    H123053   1.314   0.277  11.838
  546TIP3    H223054   1.297   0.378  11.949
  547TIP3   OH223055   0.284   0.407  11.763
  547TIP3    H123056   0.286   0.332  11.703
  547TIP3    H223057   0.287   0.367  11.850
  548TIP3   OH223058   0.828   0.006  11.657
  548TIP3    H123059   0.750  -0.036  11.693
  548TIP3    H223060   0.797   0.052  11.579
  549TIP3   OH223061   0.863   0.228  11.836
  549TIP3    H123062   0.868   0.145  11.788
  549TIP3    H223063   0.770   0.242  11.849
  550TIP3   OH223064   0.027   1.868  10.582
  550TIP3    H123065   0.055   1.847  10.493
  550TIP3    H223066   0.064   1.798  10.636
  551TIP3   OH223067   0.109   1.649  10.758
  551TIP3    H123068   0.104   1.590  10.682
  551TIP3    H223069   0.197   1.686  10.753
  552TIP3   OH223070   1.849   1.724  11.131
  552TIP3    H123071   1.853   1.730  11.226
  552TIP3    H223072   1.928   1.766  11.100
  553TIP3   OH223073   1.785   1.701  11.409
  553TIP3    H123074   1.731   1.630  11.372
  553TIP3    H223075   1.836   1.659  11.478
  554TIP3   OH223076   1.631   1.284  11.882
  554TIP3    H123077   1.548   1.294  11.930
  554TIP3    H223078   1.685   1.356  11.913
  555TIP3   OH223079   1.778   1.142  10.452
  555TIP3    H123080   1.857   1.192  10.433
  555TIP3    H223081   1.783   1.124  10.546
  556TIP3   OH223082   1.763   1.241  11.006
  556TIP3    H123083   1.819   1.166  11.023
  556TIP3    H223084   1.818   1.317  11.023
  557TIP3   OH223085   1.615   1.497  11.322
  557TIP3    H123086   1.543   1.543  11.365
  557TIP3    H223087   1.589   1.494  11.229
  558TIP3   OH223088   1.576   0.805  10.636
  558TIP3    H123089   1.556   0.717  10.602
  558TIP3    H223090   1.544   0.803  10.726
  559TIP3   OH223091   0.114   1.033  11.074
  559TIP3    H123092   0.122   1.021  10.979
  559TIP3    H223093   0.194   0.994  11.110
  560TIP3   OH223094   1.670   0.983  11.632
  560TIP3    H123095   1.727   0.908  11.617
  560TIP3    H223096   1.713   1.056  11.587
  561TIP3   OH223097   1.803   0.743  11.627
  561TIP3    H123098   1.714   0.711  11.641
  561TIP3    H223099   1.859   0.667  11.645
  562TIP3   OH223100   1.607   0.540  10.518
  562TIP3    H123101   1.590   0.447  10.504
  562TIP3    H223102   1.672   0.543  10.588
  563TIP3   OH223103   1.601   0.584  11.046
  563TIP3    H123104   1.693   0.602  11.027
  563TIP3    H223105   1.591   0.603  11.139
  564TIP3   OH223106   1.619   0.672  11.311
  564TIP3    H123107   1.540   0.703  11.355
  564TIP3    H223108   1.672   0.751  11.299
  565TIP3   OH223109   0.069   0.576  11.761
  565TIP3    H123110   0.145   0.527  11.731
  565TIP3    H223111   0.016   0.512  11.809
  566TIP3   OH223112   1.891   0.104  11.848
  566TIP3    H123113   1.855   0.018  11.868
  566TIP3    H223114   1.840   0.136  11.774
  567TIP3   OH223115   1.581   0.266  10.525
  567TIP3    H123116   1.631   0.226  10.597
  567TIP3    H223117   1.490   0.258  10.553
  568TIP3   OH223118   0.165   0.366  11.006
  568TIP3    H123119   0.188   0.274  10.995
  568TIP3    H223120   0.249   0.412  11.000
  569TIP3   OH223121   0.045   0.755  11.108
  569TIP3    H123122   0.100   0.726  11.035
  569TIP3    H223123   0.048   0.851  11.104
  570TIP3   OH223124   1.777   0.259  11.648
  570TIP3    H123125   1.701   0.305  11.682
  570TIP3    H223126   1.744   0.210  11.573
  571TIP3   OH223127   7.304   0.326  10.469
  571TIP3    H123128   7.239   0.266  10.433
  571TIP3    H223129   7.363   0.344  10.396
  572TIP3   OH223130   1.545   1.733  10.711
  572TIP3    H123131   1.589   1.758  10.630
  572TIP3    H223132   1.550   1.812  10.766
  573TIP3   OH223133   0.023   0.112  11.327
  573TIP3    H123134   0.018   0.181  11.393
  573TIP3    H223135  -0.026   0.146  11.252
  574TIP3   OH223136   0.229   1.523  11.678
  574TIP3    H123137   0.216   1.457  11.609
  574TIP3    H223138   0.183   1.488  11.754
  575TIP3   OH223139   0.571   1.592  11.348
  575TIP3    H123140   0.538   1.676  11.317
  575TIP3    H223141   0.664   1.593  11.326
  576TIP3   OH223142   0.948   1.713  11.625
  576TIP3    H123143   0.959   1.682  11.715
  576TIP3    H223144   1.030   1.760  11.607
  577TIP3   OH223145   1.187   1.846  11.584
  577TIP3    H123146   1.255   1.793  11.542
  577TIP3    H223147   1.229   1.881  11.663
  578TIP3   OH223148   1.669   0.088  11.424
  578TIP3    H123149   1.623   0.151  11.369
  578TIP3    H223150   1.640   0.002  11.392
  579TIP3   OH223151   0.296   1.921  11.361
  579TIP3    H123152   0.208   1.941  11.330
  579TIP3    H223153   0.300   1.961  11.448
  580TIP3   OH223154   0.540   1.854  11.266
  580TIP3    H123155   0.452   1.873  11.299
  580TIP3    H223156   0.545   1.900  11.183
  581TIP3   OH223157   0.985   1.831  11.181
  581TIP3    H123158   0.935   1.871  11.110
  581TIP3    H223159   1.002   1.903  11.242
  582TIP3   OH223160   1.218   1.695  11.250
  582TIP3    H123161   1.136   1.736  11.221
  582TIP3    H223162   1.283   1.764  11.242
  583TIP3   OH223163   1.444   1.865  11.278
  583TIP3    H123164   1.458   1.959  11.265
  583TIP3    H223165   1.492   1.823  11.206
  584TIP3   OH223166   0.235   1.733  11.032
  584TIP3    H123167   0.243   1.699  11.121
  584TIP3    H223168   0.312   1.699  10.986
  585TIP3   OH223169   0.450   1.619  10.911
  585TIP3    H123170   0.440   1.525  10.928
  585TIP3    H223171   0.539   1.640  10.941
  586TIP3   OH223172   0.712   1.651  11.015
  586TIP3    H123173   0.719   1.562  10.979
  586TIP3    H223174   0.741   1.643  11.106
  587TIP3   OH223175   1.038   0.206  10.918
  587TIP3    H123176   0.960   0.164  10.954
  587TIP3    H223177   1.018   0.216  10.825
  588TIP3   OH223178   1.534   0.026  10.849
  588TIP3    H123179   1.605   0.085  10.823
  588TIP3    H223180   1.455   0.080  10.843
  589TIP3   OH223181   1.751   0.170  10.724
  589TIP3    H123182   1.815   0.103  10.749
  589TIP3    H223183   1.800   0.252  10.727
  590TIP3   OH223184   0.301   0.057  10.682
  590TIP3    H123185   0.239   0.010  10.626
  590TIP3    H223186   0.355  -0.011  10.721
  591TIP3   OH223187   0.811   0.037  10.695
  591TIP3    H123188   0.870   0.109  10.674
  591TIP3    H223189   0.790   0.050  10.787
  592TIP3   OH223190   1.286   0.139  10.801
  592TIP3    H123191   1.269   0.220  10.752
  592TIP3    H223192   1.213   0.133  10.862
  593TIP3   OH223193   0.122   1.814  10.333
  593TIP3    H123194   0.053   1.826  10.267
  593TIP3    H223195   0.197   1.861  10.297
  594TIP3   OH223196   0.824   0.273  10.345
  594TIP3    H123197   0.805   0.198  10.401
  594TIP3    H223198   0.858   0.340  10.405
  595TIP3   OH223199   1.667   1.787  10.463
  595TIP3    H123200   1.640   1.712  10.409
  595TIP3    H223201   1.651   1.863  10.407
  596TIP3   OH223202   0.255   0.177  11.573
  596TIP3    H123203   0.251   0.104  11.512
  596TIP3    H223204   0.305   0.145  11.648
  597TIP3   OH223205   0.412   0.137  11.796
  597TIP3    H123206   0.504   0.161  11.799
  597TIP3    H223207   0.411   0.043  11.817
  598TIP3   OH223208   1.294   0.102  11.832
  598TIP3    H123209   1.210   0.058  11.842
  598TIP3    H223210   1.359   0.035  11.853
  599TIP3   OH223211   1.603   1.630  11.680
  599TIP3    H123212   1.541   1.626  11.607
  599TIP3    H223213   1.602   1.721  11.708
  600TIP3   OH223214   3.089   1.030  10.628
  600TIP3    H123215   3.088   1.125  10.625
  600TIP3    H223216   2.997   1.004  10.639
  601TIP3   OH223217   2.959   0.940  11.043
  601TIP3    H123218   2.986   0.903  11.127
  601TIP3    H223219   2.912   0.869  10.999
  602TIP3   OH223220   2.166   0.887  11.179
  602TIP3    H123221   2.176   0.813  11.239
  602TIP3    H223222   2.256   0.908  11.152
  603TIP3   OH223223   3.337   1.248  10.880
  603TIP3    H123224   3.299   1.175  10.929
  603TIP3    H223225   3.365   1.311  10.947
  604TIP3   OH223226   2.290   1.344  10.989
  604TIP3    H123227   2.261   1.257  10.961
  604TIP3    H223228   2.384   1.336  11.001
  605TIP3   OH223229   2.023   0.943  10.835
  605TIP3    H123230   2.049   0.852  10.838
  605TIP3    H223231   2.104   0.992  10.845
  606TIP3   OH223232   3.072   1.744  10.921
  606TIP3    H123233   3.124   1.683  10.869
  606TIP3    H223234   2.987   1.747  10.877
  607TIP3   OH223235   2.801   1.180  11.066
  607TIP3    H123236   2.844   1.103  11.029
  607TIP3    H223237   2.866   1.219  11.124
  608TIP3   OH223238   3.700   0.323  11.160
  608TIP3    H123239   3.699   0.394  11.224
  608TIP3    H223240   3.760   0.354  11.092
  609TIP3   OH223241   3.114   0.613  11.070
  609TIP3    H123242   3.141   0.523  11.084
  609TIP3    H223243   3.090   0.617  10.978
  610TIP3   OH223244   2.433   0.454  10.798
  610TIP3    H123245   2.438   0.534  10.746
  610TIP3    H223246   2.403   0.387  10.737
  611TIP3   OH223247   3.242   0.475  10.668
  611TIP3    H123248   3.292   0.433  10.739
  611TIP3    H223249   3.308   0.497  10.602
  612TIP3   OH223250   2.092   0.671  10.861
  612TIP3    H123251   2.158   0.635  10.920
  612TIP3    H223252   2.105   0.624  10.779
  613TIP3   OH223253   2.576   0.812  10.854
  613TIP3    H123254   2.663   0.788  10.884
  613TIP3    H223255   2.552   0.744  10.792
  614TIP3   OH223256   3.660   0.498  11.375
  614TIP3    H123257   3.595   0.563  11.348
  614TIP3    H223258   3.744   0.542  11.366
  615TIP3   OH223259   2.318   0.345  11.229
  615TIP3    H123260   2.294   0.401  11.156
  615TIP3    H223261   2.247   0.356  11.293
  616TIP3   OH223262   3.040   1.295  10.575
  616TIP3    H123263   3.009   1.298  10.484
  616TIP3    H223264   2.999   1.371  10.616
  617TIP3   OH223265   2.583   1.100  11.220
  617TIP3    H123266   2.531   1.175  11.249
  617TIP3    H223267   2.652   1.139  11.166
  618TIP3   OH223268   3.360   0.382  10.899
  618TIP3    H123269   3.296   0.370  10.969
  618TIP3    H223270   3.422   0.446  10.933
  619TIP3   OH223271   2.276   0.517  11.012
  619TIP3    H123272   2.332   0.573  11.066
  619TIP3    H223273   2.334   0.486  10.942
  620TIP3   OH223274   2.428   1.311  11.319
  620TIP3    H123275   2.441   1.403  11.298
  620TIP3    H223276   2.334   1.304  11.337
  621TIP3   OH223277   2.002   1.284  10.401
  621TIP3    H123278   2.016   1.303  10.309
  621TIP3    H223279   2.038   1.360  10.447
  622TIP3   OH223280   3.394   1.451  11.074
  622TIP3    H123281   3.302   1.446  11.098
  622TIP3    H223282   3.407   1.541  11.046
  623TIP3   OH223283   3.447   0.250  11.257
  623TIP3    H123284   3.375   0.293  11.211
  623TIP3    H223285   3.525   0.277  11.209
  624TIP3   OH223286   2.647   0.027  10.954
  624TIP3    H123287   2.651  -0.066  10.976
  624TIP3    H223288   2.584   0.063  11.016
  625TIP3   OH223289   3.224   1.614  10.716
  625TIP3    H123290   3.260   1.528  10.691
  625TIP3    H223291   3.299   1.673  10.709
  626TIP3   OH223292   3.301   1.359  10.632
  626TIP3    H123293   3.213   1.330  10.609
  626TIP3    H223294   3.320   1.313  10.715
  627TIP3   OH223295   3.495   1.237  11.433
  627TIP3    H123296   3.480   1.185  11.354
  627TIP3    H223297   3.509   1.326  11.401
  628TIP3   OH223298   2.972   0.962  10.363
  628TIP3    H123299   2.885   1.001  10.353
  628TIP3    H223300   3.028   1.035  10.388
  629TIP3   OH223301   3.623   0.911  11.259
  629TIP3    H123302   3.561   0.981  11.236
  629TIP3    H223303   3.694   0.920  11.196
  630TIP3   OH223304   3.250   0.852  10.489
  630TIP3    H123305   3.202   0.920  10.537
  630TIP3    H223306   3.332   0.842  10.537
  631TIP3   OH223307   3.250   0.772  11.452
  631TIP3    H123308   3.245   0.843  11.516
  631TIP3    H223309   3.184   0.794  11.387
  632TIP3   OH223310   2.441   1.012  10.712
  632TIP3    H123311   2.416   0.972  10.629
  632TIP3    H223312   2.497   0.948  10.754
  633TIP3   OH223313   2.563   1.311  10.974
  633TIP3    H123314   2.568   1.350  10.887
  633TIP3    H223315   2.652   1.280  10.992
  634TIP3   OH223316   2.432   0.923  11.072
  634TIP3    H123317   2.487   0.897  10.998
  634TIP3    H223318   2.486   0.986  11.121
  635TIP3   OH223319   3.141   1.444  11.165
  635TIP3    H123320   3.106   1.521  11.208
  635TIP3    H223321   3.085   1.372  11.194
  636TIP3   OH223322   2.589   1.337  11.544
  636TIP3    H123323   2.533   1.401  11.585
  636TIP3    H223324   2.542   1.310  11.465
  637TIP3   OH223325   2.261   0.928  11.498
  637TIP3    H123326   2.272   1.002  11.558
  637TIP3    H223327   2.168   0.930  11.475
  638TIP3   OH223328   2.957   1.538  10.677
  638TIP3    H123329   3.046   1.570  10.692
  638TIP3    H223330   2.903   1.617  10.680
  639TIP3   OH223331   2.401   1.529  11.604
  639TIP3    H123332   2.409   1.558  11.513
  639TIP3    H223333   2.308   1.509  11.615
  640TIP3   OH223334   3.553   0.178  10.213
  640TIP3    H123335   3.521   0.087  10.210
  640TIP3    H223336   3.558   0.198  10.307
  641TIP3   OH223337   2.353   0.887  10.475
  641TIP3    H123338   2.297   0.958  10.446
  641TIP3    H223339   2.413   0.873  10.402
  642TIP3   OH223340   1.965   1.156  11.354
  642TIP3    H123341   1.958   1.136  11.260
  642TIP3    H223342   1.979   1.071  11.395
  643TIP3   OH223343   1.918   1.468  11.028
  643TIP3    H123344   2.010   1.458  11.053
  643TIP3    H223345   1.890   1.548  11.072
  644TIP3   OH223346   3.748   1.544  11.635
  644TIP3    H123347   3.740   1.450  11.618
  644TIP3    H223348   3.659   1.571  11.660
  645TIP3   OH223349   2.827   1.462  11.488
  645TIP3    H123350   2.824   1.546  11.533
  645TIP3    H223351   2.743   1.421  11.507
  646TIP3   OH223352   2.808   1.919  10.417
  646TIP3    H123353   2.785   1.844  10.362
  646TIP3    H223354   2.826   1.881  10.503
  647TIP3   OH223355   2.225   1.722  10.680
  647TIP3    H123356   2.279   1.684  10.749
  647TIP3    H223357   2.168   1.650  10.652
  648TIP3   OH223358   3.153   1.767  10.176
  648TIP3    H123359   3.218   1.806  10.118
  648TIP3    H223360   3.201   1.700  10.225
  649TIP3   OH223361   3.157   1.789  10.491
  649TIP3    H123362   3.069   1.760  10.465
  649TIP3    H223363   3.192   1.717  10.542
  650TIP3   OH223364   3.419   0.656  11.661
  650TIP3    H123365   3.369   0.690  11.587
  650TIP3    H223366   3.433   0.564  11.640
  651TIP3   OH223367   2.161   1.350  11.391
  651TIP3    H123368   2.156   1.374  11.483
  651TIP3    H223369   2.094   1.283  11.379
  652TIP3   OH223370   2.423   0.120  11.103
  652TIP3    H123371   2.353   0.106  11.039
  652TIP3    H223372   2.395   0.199  11.151
  653TIP3   OH223373   2.943   0.121  11.385
  653TIP3    H123374   2.999   0.045  11.401
  653TIP3    H223375   2.869   0.108  11.445
  654TIP3   OH223376   3.217   0.491  11.451
  654TIP3    H123377   3.152   0.479  11.521
  654TIP3    H223378   3.224   0.586  11.442
  655TIP3   OH223379   2.441   0.667  11.175
  655TIP3    H123380   2.388   0.670  11.254
  655TIP3    H223381   2.443   0.757  11.143
  656TIP3   OH223382   2.432   0.670  10.628
  656TIP3    H123383   2.400   0.751  10.587
  656TIP3    H223384   2.488   0.630  10.562
  657TIP3   OH223385   3.000   0.725  10.526
  657TIP3    H123386   2.960   0.792  10.471
  657TIP3    H223387   3.094   0.740  10.518
  658TIP3   OH223388   2.919   0.715  11.670
  658TIP3    H123389   2.866   0.643  11.701
  658TIP3    H223390   3.006   0.699  11.707
  659TIP3   OH223391   3.067   0.640  10.797
  659TIP3    H123392   3.032   0.692  10.725
  659TIP3    H223393   3.121   0.573  10.755
  660TIP3   OH223394   2.213   0.664  11.344
  660TIP3    H123395   2.248   0.704  11.423
  660TIP3    H223396   2.179   0.579  11.373
  661TIP3   OH223397   1.923   0.391  10.722
  661TIP3    H123398   1.946   0.386  10.815
  661TIP3    H223399   1.994   0.440  10.682
  662TIP3   OH223400   3.036   0.785  11.266
  662TIP3    H123401   3.072   0.729  11.197
  662TIP3    H223402   2.972   0.730  11.311
  663TIP3   OH223403   2.721   0.456  10.785
  663TIP3    H123404   2.629   0.445  10.810
  663TIP3    H223405   2.766   0.382  10.826
  664TIP3   OH223406   2.152   0.533  10.618
  664TIP3    H123407   2.212   0.605  10.598
  664TIP3    H223408   2.205   0.454  10.610
  665TIP3   OH223409   2.583   0.562  10.430
  665TIP3    H123410   2.667   0.525  10.459
  665TIP3    H223411   2.597   0.579  10.337
  666TIP3   OH223412   3.169   0.336  11.089
  666TIP3    H123413   3.107   0.339  11.162
  666TIP3    H223414   3.137   0.264  11.034
  667TIP3   OH223415   2.428   0.708  10.150
  667TIP3    H123416   2.404   0.691  10.059
  667TIP3    H223417   2.512   0.664  10.162
  668TIP3   OH223418   3.488   1.899  11.726
  668TIP3    H123419   3.507   1.926  11.636
  668TIP3    H223420   3.565   1.925  11.776
  669TIP3   OH223421   2.249   1.106  11.709
  669TIP3    H123422   2.319   1.126  11.770
  669TIP3    H223423   2.179   1.168  11.732
  670TIP3   OH223424   2.819   0.712  10.953
  670TIP3    H123425   2.881   0.663  10.899
  670TIP3    H223426   2.789   0.649  11.018
  671TIP3   OH223427   2.314   0.315  10.583
  671TIP3    H123428   2.279   0.232  10.617
  671TIP3    H223429   2.391   0.289  10.533
  672TIP3   OH223430   2.704   0.568  11.170
  672TIP3    H123431   2.620   0.613  11.180
  672TIP3    H223432   2.754   0.594  11.248
  673TIP3   OH223433   2.732   1.099  10.368
  673TIP3    H123434   2.652   1.062  10.331
  673TIP3    H223435   2.704   1.137  10.451
  674TIP3   OH223436   3.443   1.109  11.197
  674TIP3    H123437   3.504   1.163  11.146
  674TIP3    H223438   3.374   1.086  11.134
  675TIP3   OH223439   2.898   1.174  11.499
  675TIP3    H123440   2.931   1.148  11.585
  675TIP3    H223441   2.874   1.266  11.509
  676TIP3   OH223442   2.259   1.073  10.906
  676TIP3    H123443   2.317   1.071  10.831
  676TIP3    H223444   2.307   1.029  10.976
  677TIP3   OH223445   2.927   1.297  10.328
  677TIP3    H123446   2.891   1.380  10.299
  677TIP3    H223447   2.854   1.235  10.322
  678TIP3   OH223448   1.981   0.912  11.477
  678TIP3    H123449   1.975   0.870  11.563
  678TIP3    H223450   1.913   0.870  11.424
  679TIP3   OH223451   2.717   0.902  11.671
  679TIP3    H123452   2.693   0.909  11.578
  679TIP3    H223453   2.796   0.848  11.671
  680TIP3   OH223454   3.106   1.441  11.495
  680TIP3    H123455   3.013   1.449  11.474
  680TIP3    H223456   3.111   1.464  11.588
  681TIP3   OH223457   3.626   0.651  10.310
  681TIP3    H123458   3.651   0.604  10.230
  681TIP3    H223459   3.624   0.743  10.284
  682TIP3   OH223460   3.724   1.274  11.591
  682TIP3    H123461   3.631   1.259  11.573
  682TIP3    H223462   3.769   1.241  11.513
  683TIP3   OH223463   3.565   1.505  10.254
  683TIP3    H123464   3.487   1.474  10.208
  683TIP3    H223465   3.638   1.476  10.199
  684TIP3   OH223466   3.241   1.022  11.020
  684TIP3    H123467   3.146   1.011  11.015
  684TIP3    H223468   3.277   0.946  10.975
  685TIP3   OH223469   2.534   1.421  10.720
  685TIP3    H123470   2.554   1.513  10.703
  685TIP3    H223471   2.454   1.404  10.669
  686TIP3   OH223472   2.630   1.186  10.604
  686TIP3    H123473   2.627   1.275  10.641
  686TIP3    H223474   2.564   1.138  10.654
  687TIP3   OH223475   2.715   1.603  11.259
  687TIP3    H123476   2.767   1.682  11.241
  687TIP3    H223477   2.770   1.550  11.316
  688TIP3   OH223478   2.548   1.684  10.655
  688TIP3    H123479   2.513   1.737  10.583
  688TIP3    H223480   2.635   1.721  10.672
  689TIP3   OH223481   3.009   1.214  11.249
  689TIP3    H123482   2.972   1.194  11.336
  689TIP3    H223483   3.087   1.159  11.243
  690TIP3   OH223484   3.312   1.666  11.453
  690TIP3    H123485   3.231   1.625  11.420
  690TIP3    H223486   3.326   1.741  11.396
  691TIP3   OH223487   3.788   1.780  10.155
  691TIP3    H123488   3.814   1.724  10.081
  691TIP3    H223489   3.696   1.801  10.137
  692TIP3   OH223490   2.107   0.399  11.407
  692TIP3    H123491   2.019   0.432  11.390
  692TIP3    H223492   2.093   0.314  11.448
  693TIP3   OH223493   3.393   1.154  10.357
  693TIP3    H123494   3.372   1.195  10.441
  693TIP3    H223495   3.412   1.228  10.299
  694TIP3   OH223496   2.108   1.596  11.255
  694TIP3    H123497   2.138   1.513  11.292
  694TIP3    H223498   2.138   1.662  11.318
  695TIP3   OH223499   2.217   1.102  10.368
  695TIP3    H123500   2.145   1.160  10.390
  695TIP3    H223501   2.274   1.155  10.312
  696TIP3   OH223502   3.009   0.373  11.311
  696TIP3    H123503   3.087   0.392  11.363
  696TIP3    H223504   2.983   0.285  11.340
  697TIP3   OH223505   2.833   0.486  10.535
  697TIP3    H123506   2.891   0.562  10.527
  697TIP3    H223507   2.800   0.490  10.625
  698TIP3   OH223508   2.870   0.605  11.393
  698TIP3    H123509   2.888   0.619  11.486
  698TIP3    H223510   2.912   0.521  11.374
  699TIP3   OH223511   2.853   0.202  10.592
  699TIP3    H123512   2.863   0.222  10.685
  699TIP3    H223513   2.853   0.287  10.549
  700TIP3   OH223514   3.463   0.408  11.548
  700TIP3    H123515   3.380   0.407  11.500
  700TIP3    H223516   3.529   0.424  11.480
  701TIP3   OH223517   3.321   0.778  10.900
  701TIP3    H123518   3.237   0.734  10.886
  701TIP3    H223519   3.372   0.717  10.953
  702TIP3   OH223520   2.321   1.365  10.194
  702TIP3    H123521   2.382   1.431  10.226
  702TIP3    H223522   2.370   1.317  10.128
  703TIP3   OH223523   3.452   1.732  11.069
  703TIP3    H123524   3.437   1.804  11.008
  703TIP3    H223525   3.547   1.723  11.073
  704TIP3   OH223526   2.141   0.121  10.989
  704TIP3    H123527   2.179   0.080  10.911
  704TIP3    H223528   2.127   0.048  11.050
  705TIP3   OH223529   2.119   1.510  10.505
  705TIP3    H123530   2.078   1.583  10.458
  705TIP3    H223531   2.211   1.516  10.481
  706TIP3   OH223532   2.020   1.771  11.736
  706TIP3    H123533   2.077   1.728  11.800
  706TIP3    H223534   1.970   1.700  11.697
  707TIP3   OH223535   2.521   1.681  11.807
  707TIP3    H123536   2.558   1.612  11.862
  707TIP3    H223537   2.473   1.633  11.739
  708TIP3   OH223538   3.108   1.488  11.768
  708TIP3    H123539   3.095   1.405  11.814
  708TIP3    H223540   3.185   1.527  11.808
  709TIP3   OH223541   1.981   1.163  11.795
  709TIP3    H123542   1.977   1.069  11.782
  709TIP3    H223543   1.924   1.200  11.728
  710TIP3   OH223544   2.666   1.168  11.748
  710TIP3    H123545   2.648   1.214  11.665
  710TIP3    H223546   2.696   1.081  11.721
  711TIP3   OH223547   3.231   1.192  11.508
  711TIP3    H123548   3.322   1.212  11.485
  711TIP3    H223549   3.184   1.274  11.495
  712TIP3   OH223550   2.089   0.884  11.763
  712TIP3    H123551   2.155   0.947  11.733
  712TIP3    H223552   2.094   0.888  11.859
  713TIP3   OH223553   2.546   0.939  10.236
  713TIP3    H123554   2.494   0.866  10.203
  713TIP3    H223555   2.630   0.930  10.192
  714TIP3   OH223556   2.469   0.759  11.466
  714TIP3    H123557   2.405   0.829  11.479
  714TIP3    H223558   2.548   0.804  11.437
  715TIP3   OH223559   3.012   1.030  11.789
  715TIP3    H123560   3.088   0.996  11.742
  715TIP3    H223561   2.982   0.957  11.843
  716TIP3   OH223562   3.618   1.044   9.969
  716TIP3    H123563   3.691   1.067   9.912
  716TIP3    H223564   3.552   1.112   9.953
  717TIP3   OH223565   2.531   0.518  11.574
  717TIP3    H123566   2.549   0.457  11.503
  717TIP3    H223567   2.518   0.603  11.531
  718TIP3   OH223568   2.571   0.377  11.338
  718TIP3    H123569   2.626   0.420  11.272
  718TIP3    H223570   2.486   0.367  11.295
  719TIP3   OH223571   2.686   0.908  11.390
  719TIP3    H123572   2.779   0.906  11.370
  719TIP3    H223573   2.651   0.979  11.336
  720TIP3   OH223574   3.154   0.652  11.822
  720TIP3    H123575   3.165   0.557  11.829
  720TIP3    H223576   3.241   0.685  11.799
  721TIP3   OH223577   3.270   0.970  11.658
  721TIP3    H123578   3.246   1.049  11.610
  721TIP3    H223579   3.366   0.967  11.651
  722TIP3   OH223580   2.371   0.598  11.784
  722TIP3    H123581   2.334   0.683  11.759
  722TIP3    H223582   2.430   0.576  11.712
  723TIP3   OH223583   2.655   0.140  11.453
  723TIP3    H123584   2.630   0.224  11.415
  723TIP3    H223585   2.661   0.081  11.378
  724TIP3   OH223586   2.767   0.494  11.721
  724TIP3    H123587   2.754   0.415  11.774
  724TIP3    H223588   2.684   0.504  11.673
  725TIP3   OH223589   3.023   0.436  11.630
  725TIP3    H123590   2.933   0.442  11.663
  725TIP3    H223591   3.072   0.401  11.704
  726TIP3   OH223592   3.188   0.369  11.844
  726TIP3    H123593   3.201   0.278  11.819
  726TIP3    H223594   3.174   0.367  11.938
  727TIP3   OH223595   2.163   0.401  11.750
  727TIP3    H123596   2.210   0.385  11.668
  727TIP3    H223597   2.215   0.468  11.794
  728TIP3   OH223598   2.668   0.033  11.700
  728TIP3    H123599   2.728  -0.040  11.683
  728TIP3    H223600   2.651   0.071  11.614
  729TIP3   OH223601   2.719   0.258  11.849
  729TIP3    H123602   2.718   0.173  11.806
  729TIP3    H223603   2.626   0.277  11.868
  730TIP3   OH223604   2.041   1.312  10.132
  730TIP3    H123605   2.130   1.347  10.143
  730TIP3    H223606   2.044   1.267  10.048
  731TIP3   OH223607   1.888   1.864  10.621
  731TIP3    H123608   1.827   1.827  10.558
  731TIP3    H223609   1.908   1.791  10.680
  732TIP3   OH223610   1.945   1.671  10.813
  732TIP3    H123611   1.929   1.585  10.850
  732TIP3    H223612   2.007   1.713  10.874
  733TIP3   OH223613   3.725   1.720  11.125
  733TIP3    H123614   3.730   1.728  11.220
  733TIP3    H223615   3.805   1.763  11.094
  734TIP3   OH223616   3.682   1.693  11.404
  734TIP3    H123617   3.621   1.629  11.367
  734TIP3    H223618   3.726   1.647  11.475
  735TIP3   OH223619   3.532   1.288  11.894
  735TIP3    H123620   3.446   1.295  11.936
  735TIP3    H223621   3.582   1.362  11.929
  736TIP3   OH223622   3.725   1.095  10.394
  736TIP3    H123623   3.676   1.175  10.413
  736TIP3    H223624   3.718   1.043  10.474
  737TIP3   OH223625   3.713   0.915  10.606
  737TIP3    H123626   3.627   0.884  10.635
  737TIP3    H223627   3.762   0.929  10.687
  738TIP3   OH223628   3.684   1.229  11.127
  738TIP3    H123629   3.733   1.157  11.087
  738TIP3    H223630   3.715   1.307  11.081
  739TIP3   OH223631   3.502   1.495  11.328
  739TIP3    H123632   3.425   1.541  11.362
  739TIP3    H223633   3.480   1.473  11.238
  740TIP3   OH223634   3.600   0.914  10.215
  740TIP3    H123635   3.615   0.953  10.129
  740TIP3    H223636   3.640   0.975  10.276
  741TIP3   OH223637   3.465   0.792  10.661
  741TIP3    H123638   3.470   0.698  10.644
  741TIP3    H223639   3.423   0.799  10.747
  742TIP3   OH223640   1.948   1.022  11.087
  742TIP3    H123641   1.954   1.002  10.993
  742TIP3    H223642   2.028   0.986  11.124
  743TIP3   OH223643   3.545   0.981  11.620
  743TIP3    H123644   3.603   0.905  11.617
  743TIP3    H223645   3.565   1.029  11.539
  744TIP3   OH223646   3.683   0.747  11.650
  744TIP3    H123647   3.595   0.710  11.649
  744TIP3    H223648   3.740   0.673  11.668
  745TIP3   OH223649   3.446   0.527  10.488
  745TIP3    H123650   3.481   0.438  10.488
  745TIP3    H223651   3.507   0.576  10.433
  746TIP3   OH223652   3.481   0.594  11.037
  746TIP3    H123653   3.573   0.612  11.018
  746TIP3    H223654   3.471   0.614  11.130
  747TIP3   OH223655   3.478   0.686  11.302
  747TIP3    H123656   3.401   0.723  11.345
  747TIP3    H223657   3.536   0.761  11.288
  748TIP3   OH223658   1.919   0.495  11.654
  748TIP3    H123659   2.005   0.471  11.690
  748TIP3    H223660   1.868   0.415  11.659
  749TIP3   OH223661   3.766   0.089  11.845
  749TIP3    H123662   3.782   0.013  11.790
  749TIP3    H223663   3.738   0.158  11.784
  750TIP3   OH223664   3.513   0.253  10.488
  750TIP3    H123665   3.542   0.209  10.568
  750TIP3    H223666   3.430   0.211  10.466
  751TIP3   OH223667   2.034   0.371  10.978
  751TIP3    H123668   2.069   0.282  10.983
  751TIP3    H223669   2.109   0.427  10.996
  752TIP3   OH223670   1.866   0.655  11.031
  752TIP3    H123671   1.935   0.659  10.965
  752TIP3    H223672   1.905   0.696  11.108
  753TIP3   OH223673   3.670   0.265  11.655
  753TIP3    H123674   3.590   0.317  11.644
  753TIP3    H223675   3.674   0.210  11.577
  754TIP3   OH223676   3.434   1.782  10.664
  754TIP3    H123677   3.478   1.752  10.585
  754TIP3    H223678   3.478   1.865  10.685
  755TIP3   OH223679   1.932   0.134  11.340
  755TIP3    H123680   1.848   0.109  11.377
  755TIP3    H223681   1.911   0.195  11.269
  756TIP3   OH223682   2.130   1.454  11.644
  756TIP3    H123683   2.041   1.487  11.635
  756TIP3    H223684   2.154   1.471  11.735
  757TIP3   OH223685   2.454   1.592  11.339
  757TIP3    H123686   2.426   1.680  11.313
  757TIP3    H223687   2.546   1.588  11.315
  758TIP3   OH223688   2.831   1.702  11.621
  758TIP3    H123689   2.839   1.680  11.714
  758TIP3    H223690   2.909   1.755  11.602
  759TIP3   OH223691   3.063   1.847  11.576
  759TIP3    H123692   3.128   1.803  11.522
  759TIP3    H223693   3.111   1.875  11.654
  760TIP3   OH223694   3.568   0.079  11.437
  760TIP3    H123695   3.519   0.141  11.383
  760TIP3    H223696   3.546  -0.007  11.402
  761TIP3   OH223697   2.149   1.878  11.364
  761TIP3    H123698   2.072   1.921  11.328
  761TIP3    H223699   2.161   1.917  11.450
  762TIP3   OH223700   2.410   1.855  11.272
  762TIP3    H123701   2.318   1.869  11.295
  762TIP3    H223702   2.419   1.892  11.184
  763TIP3   OH223703   2.859   1.830  11.197
  763TIP3    H123704   2.817   1.867  11.119
  763TIP3    H223705   2.877   1.905  11.253
  764TIP3   OH223706   3.098   1.705  11.254
  764TIP3    H123707   3.011   1.742  11.239
  764TIP3    H223708   3.147   1.725  11.174
  765TIP3   OH223709   3.382   1.882  11.291
  765TIP3    H123710   3.375   1.972  11.258
  765TIP3    H223711   3.400   1.830  11.213
  766TIP3   OH223712   2.117   1.747  11.025
  766TIP3    H123713   2.116   1.702  11.110
  766TIP3    H223714   2.192   1.709  10.979
  767TIP3   OH223715   2.321   1.609  10.915
  767TIP3    H123716   2.308   1.516  10.937
  767TIP3    H223717   2.409   1.629  10.944
  768TIP3   OH223718   2.573   1.644  11.015
  768TIP3    H123719   2.638   1.617  10.950
  768TIP3    H223720   2.615   1.627  11.100
  769TIP3   OH223721   2.843   0.223  10.870
  769TIP3    H123722   2.793   0.154  10.913
  769TIP3    H223723   2.935   0.200  10.887
  770TIP3   OH223724   3.401   0.043  10.888
  770TIP3    H123725   3.475   0.053  10.827
  770TIP3    H223726   3.394   0.128  10.930
  771TIP3   OH223727   3.606   0.111  10.714
  771TIP3    H123728   3.669   0.039  10.705
  771TIP3    H223729   3.661   0.187  10.737
  772TIP3   OH223730   2.208   0.085  10.682
  772TIP3    H123731   2.166   0.019  10.626
  772TIP3    H223732   2.272   0.035  10.733
  773TIP3   OH223733   2.612   0.075  10.674
  773TIP3    H123734   2.691   0.109  10.633
  773TIP3    H223735   2.635   0.064  10.766
  774TIP3   OH223736   3.112   0.159  10.877
  774TIP3    H123737   3.165   0.206  10.812
  774TIP3    H223738   3.132   0.066  10.862
  775TIP3   OH223739   3.291   0.105  10.412
  775TIP3    H123740   3.231   0.056  10.469
  775TIP3    H223741   3.342   0.037  10.367
  776TIP3   OH223742   2.039   1.716  10.351
  776TIP3    H123743   2.063   1.715  10.258
  776TIP3    H223744   2.023   1.808  10.371
  777TIP3   OH223745   3.588   1.730  10.435
  777TIP3    H123746   3.582   1.651  10.380
  777TIP3    H223747   3.591   1.802  10.372
  778TIP3   OH223748   2.112   0.150  11.585
  778TIP3    H123749   2.048   0.105  11.531
  778TIP3    H223750   2.183   0.087  11.596
  779TIP3   OH223751   2.332   0.133  11.791
  779TIP3    H123752   2.402   0.198  11.784
  779TIP3    H223753   2.377   0.052  11.814
  780TIP3   OH223754   3.241   0.111  11.786
  780TIP3    H123755   3.218   0.039  11.845
  780TIP3    H223756   3.320   0.080  11.740
  781TIP3   OH223757   3.485   1.626  11.675
  781TIP3    H123758   3.426   1.618  11.600
  781TIP3    H223759   3.480   1.719  11.699
  782TIP3   OH223760   4.955   1.027  10.657
  782TIP3    H123761   4.935   1.121  10.651
  782TIP3    H223762   4.896   0.987  10.593
  783TIP3   OH223763   4.851   0.945  11.050
  783TIP3    H123764   4.878   0.897  11.128
  783TIP3    H223765   4.806   0.880  10.996
  784TIP3   OH223766   4.063   0.900  11.147
  784TIP3    H123767   4.027   0.821  11.188
  784TIP3    H223768   4.158   0.886  11.148
  785TIP3   OH223769   5.229   1.253  10.870
  785TIP3    H123770   5.189   1.178  10.915
  785TIP3    H223771   5.247   1.316  10.940
  786TIP3   OH223772   4.197   1.360  10.995
  786TIP3    H123773   4.162   1.274  10.972
  786TIP3    H223774   4.292   1.346  11.000
  787TIP3   OH223775   3.839   0.680  10.504
  787TIP3    H123776   3.812   0.764  10.541
  787TIP3    H223777   3.770   0.658  10.441
  788TIP3   OH223778   3.898   0.935  10.816
  788TIP3    H123779   3.933   0.848  10.834
  788TIP3    H223780   3.973   0.993  10.829
  789TIP3   OH223781   4.962   1.736  10.895
  789TIP3    H123782   4.999   1.686  10.822
  789TIP3    H223783   4.924   1.670  10.953
  790TIP3   OH223784   4.688   1.197  11.053
  790TIP3    H123785   4.726   1.118  11.016
  790TIP3    H223786   4.757   1.232  11.109
  791TIP3   OH223787   5.595   0.324  11.169
  791TIP3    H123788   5.605   0.397  11.230
  791TIP3    H223789   5.647   0.349  11.092
  792TIP3   OH223790   5.016   0.610  11.076
  792TIP3    H123791   5.036   0.516  11.087
  792TIP3    H223792   4.993   0.618  10.983
  793TIP3   OH223793   4.346   0.446  10.795
  793TIP3    H123794   4.350   0.530  10.748
  793TIP3    H223795   4.297   0.388  10.736
  794TIP3   OH223796   5.124   0.455  10.657
  794TIP3    H123797   5.174   0.431  10.734
  794TIP3    H223798   5.189   0.491  10.596
  795TIP3   OH223799   3.993   0.681  10.871
  795TIP3    H123800   4.048   0.634  10.933
  795TIP3    H223801   4.017   0.646  10.786
  796TIP3   OH223802   4.474   0.809  10.864
  796TIP3    H123803   4.561   0.776  10.886
  796TIP3    H223804   4.442   0.750  10.796
  797TIP3   OH223805   5.614   0.504  11.380
  797TIP3    H123806   5.540   0.560  11.358
  797TIP3    H223807   5.621   0.510  11.476
  798TIP3   OH223808   4.225   0.330  11.221
  798TIP3    H123809   4.188   0.382  11.150
  798TIP3    H223810   4.158   0.333  11.290
  799TIP3   OH223811   4.883   1.278  10.566
  799TIP3    H123812   4.925   1.297  10.482
  799TIP3    H223813   4.850   1.362  10.597
  800TIP3   OH223814   4.471   1.113  11.203
  800TIP3    H123815   4.417   1.184  11.238
  800TIP3    H223816   4.538   1.158  11.151
  801TIP3   OH223817   5.239   0.409  10.896
  801TIP3    H123818   5.185   0.373  10.967
  801TIP3    H223819   5.301   0.467  10.940
  802TIP3   OH223820   4.173   0.508  11.006
  802TIP3    H123821   4.229   0.558  11.066
  802TIP3    H223822   4.232   0.477  10.938
  803TIP3   OH223823   4.317   1.316  11.315
  803TIP3    H123824   4.320   1.411  11.299
  803TIP3    H223825   4.226   1.298  11.338
  804TIP3   OH223826   5.269   1.458  11.076
  804TIP3    H123827   5.175   1.459  11.093
  804TIP3    H223828   5.289   1.547  11.046
  805TIP3   OH223829   5.334   0.281  11.262
  805TIP3    H123830   5.259   0.289  11.203
  805TIP3    H223831   5.411   0.293  11.206
  806TIP3   OH223832   4.559   0.043  10.970
  806TIP3    H123833   4.545  -0.052  10.976
  806TIP3    H223834   4.476   0.081  10.996
  807TIP3   OH223835   5.083   1.625  10.669
  807TIP3    H123836   5.119   1.537  10.657
  807TIP3    H223837   5.160   1.682  10.672
  808TIP3   OH223838   5.198   1.384  10.624
  808TIP3    H123839   5.223   1.328  10.550
  808TIP3    H223840   5.210   1.329  10.701
  809TIP3   OH223841   5.382   1.228  11.432
  809TIP3    H123842   5.368   1.175  11.354
  809TIP3    H223843   5.393   1.317  11.398
  810TIP3   OH223844   4.823   0.938  10.428
  810TIP3    H123845   4.754   1.001  10.410
  810TIP3    H223846   4.877   0.939  10.350
  811TIP3   OH223847   4.821   0.844  10.119
  811TIP3    H123848   4.908   0.834  10.158
  811TIP3    H223849   4.781   0.757  10.128
  812TIP3   OH223850   5.553   0.907  11.258
  812TIP3    H123851   5.481   0.968  11.242
  812TIP3    H223852   5.607   0.911  11.179
  813TIP3   OH223853   5.178   0.975  10.506
  813TIP3    H123854   5.108   0.994  10.570
  813TIP3    H223855   5.241   0.922  10.555
  814TIP3   OH223856   5.149   0.772  11.448
  814TIP3    H123857   5.137   0.842  11.512
  814TIP3    H223858   5.084   0.790  11.380
  815TIP3   OH223859   4.333   1.004  10.736
  815TIP3    H123860   4.295   0.943  10.672
  815TIP3    H223861   4.395   0.952  10.786
  816TIP3   OH223862   4.480   1.373  10.957
  816TIP3    H123863   4.474   1.380  10.862
  816TIP3    H223864   4.555   1.316  10.973
  817TIP3   OH223865   4.337   0.899  11.091
  817TIP3    H123866   4.387   0.875  11.013
  817TIP3    H223867   4.384   0.973  11.129
  818TIP3   OH223868   5.009   1.473  11.151
  818TIP3    H123869   4.987   1.538  11.218
  818TIP3    H223870   4.966   1.393  11.181
  819TIP3   OH223871   4.474   1.343  11.542
  819TIP3    H123872   4.411   1.403  11.583
  819TIP3    H223873   4.430   1.314  11.461
  820TIP3   OH223874   5.068   0.904  10.265
  820TIP3    H123875   5.107   0.931  10.349
  820TIP3    H223876   5.095   0.972  10.203
  821TIP3   OH223877   4.145   0.921  11.508
  821TIP3    H123878   4.154   1.007  11.549
  821TIP3    H223879   4.054   0.919  11.478
  822TIP3   OH223880   4.822   1.544  10.614
  822TIP3    H123881   4.909   1.578  10.638
  822TIP3    H223882   4.780   1.617  10.569
  823TIP3   OH223883   4.276   1.526  11.609
  823TIP3    H123884   4.280   1.554  11.517
  823TIP3    H223885   4.183   1.515  11.626
  824TIP3   OH223886   5.371   0.054  10.238
  824TIP3    H123887   5.306   0.096  10.294
  824TIP3    H223888   5.437   0.122  10.223
  825TIP3   OH223889   3.833   1.167  11.366
  825TIP3    H123890   3.781   1.177  11.286
  825TIP3    H223891   3.840   1.072  11.378
  826TIP3   OH223892   3.811   1.462  11.032
  826TIP3    H123893   3.901   1.459  11.064
  826TIP3    H223894   3.774   1.539  11.074
  827TIP3   OH223895   5.636   1.544  11.635
  827TIP3    H123896   5.628   1.450  11.619
  827TIP3    H223897   5.550   1.571  11.665
  828TIP3   OH223898   4.713   1.470  11.492
  828TIP3    H123899   4.708   1.554  11.538
  828TIP3    H223900   4.628   1.429  11.508
  829TIP3   OH223901   4.772   1.829  10.469
  829TIP3    H123902   4.692   1.818  10.418
  829TIP3    H223903   4.763   1.915  10.511
  830TIP3   OH223904   4.149   1.721  10.670
  830TIP3    H123905   4.163   1.685  10.758
  830TIP3    H223906   4.096   1.654  10.626
  831TIP3   OH223907   5.031   1.762  10.415
  831TIP3    H123908   4.939   1.779  10.433
  831TIP3    H223909   5.059   1.703  10.485
  832TIP3   OH223910   5.325   0.656  11.649
  832TIP3    H123911   5.267   0.688  11.580
  832TIP3    H223912   5.337   0.563  11.630
  833TIP3   OH223913   4.060   1.314  11.422
  833TIP3    H123914   4.088   1.273  11.504
  833TIP3    H223915   3.983   1.265  11.395
  834TIP3   OH223916   4.304   0.126  11.048
  834TIP3    H123917   4.218   0.135  11.008
  834TIP3    H223918   4.302   0.184  11.124
  835TIP3   OH223919   4.788   0.131  11.417
  835TIP3    H123920   4.804   0.104  11.507
  835TIP3    H223921   4.693   0.138  11.409
  836TIP3   OH223922   5.087   0.498  11.485
  836TIP3    H123923   5.015   0.486  11.548
  836TIP3    H223924   5.088   0.592  11.467
  837TIP3   OH223925   4.742   0.369  10.121
  837TIP3    H123926   4.706   0.335  10.202
  837TIP3    H223927   4.668   0.375  10.061
  838TIP3   OH223928   4.339   0.642  11.185
  838TIP3    H123929   4.293   0.640  11.269
  838TIP3    H223930   4.337   0.735  11.159
  839TIP3   OH223931   4.335   0.681  10.644
  839TIP3    H123932   4.242   0.661  10.636
  839TIP3    H223933   4.371   0.666  10.557
  840TIP3   OH223934   4.882   0.695  10.544
  840TIP3    H123935   4.853   0.779  10.510
  840TIP3    H223936   4.951   0.667  10.484
  841TIP3   OH223937   4.801   0.712  11.673
  841TIP3    H123938   4.742   0.644  11.706
  841TIP3    H223939   4.885   0.693  11.714
  842TIP3   OH223940   4.977   0.638  10.804
  842TIP3    H123941   4.934   0.688  10.734
  842TIP3    H223942   5.019   0.565  10.758
  843TIP3   OH223943   4.194   0.661  11.413
  843TIP3    H123944   4.173   0.746  11.454
  843TIP3    H223945   4.110   0.629  11.380
  844TIP3   OH223946   4.464   0.401  10.039
  844TIP3    H123947   4.419   0.369  10.117
  844TIP3    H223948   4.400   0.393   9.968
  845TIP3   OH223949   3.763   0.332  10.750
  845TIP3    H123950   3.809   0.362  10.828
  845TIP3    H223951   3.826   0.344  10.678
  846TIP3   OH223952   3.889   0.468  10.234
  846TIP3    H123953   3.966   0.416  10.209
  846TIP3    H223954   3.920   0.558  10.231
  847TIP3   OH223955   4.933   0.785  11.265
  847TIP3    H123956   4.968   0.726  11.198
  847TIP3    H223957   4.867   0.733  11.311
  848TIP3   OH223958   4.629   0.412  10.770
  848TIP3    H123959   4.537   0.413  10.796
  848TIP3    H223960   4.672   0.361  10.839
  849TIP3   OH223961   4.075   0.585  10.624
  849TIP3    H123962   3.997   0.606  10.574
  849TIP3    H223963   4.094   0.493  10.602
  850TIP3   OH223964   4.446   0.613  10.393
  850TIP3    H123965   4.527   0.585  10.436
  850TIP3    H223966   4.474   0.644  10.307
  851TIP3   OH223967   5.063   0.327  11.093
  851TIP3    H123968   4.999   0.334  11.164
  851TIP3    H223969   5.026   0.262  11.034
  852TIP3   OH223970   5.378   1.900  11.731
  852TIP3    H123971   5.400   1.931  11.643
  852TIP3    H223972   5.452   1.926  11.785
  853TIP3   OH223973   4.139   1.164  11.657
  853TIP3    H123974   4.204   1.154  11.727
  853TIP3    H223975   4.055   1.160  11.702
  854TIP3   OH223976   4.718   0.708  10.951
  854TIP3    H123977   4.777   0.651  10.902
  854TIP3    H223978   4.685   0.653  11.021
  855TIP3   OH223979   4.190   0.326  10.593
  855TIP3    H123980   4.156   0.245  10.630
  855TIP3    H223981   4.230   0.299  10.511
  856TIP3   OH223982   4.605   0.576  11.167
  856TIP3    H123983   4.515   0.607  11.175
  856TIP3    H223984   4.648   0.603  11.248
  857TIP3   OH223985   4.636   1.137  10.366
  857TIP3    H123986   4.584   1.165  10.291
  857TIP3    H223987   4.582   1.157  10.442
  858TIP3   OH223988   5.350   1.087  11.198
  858TIP3    H123989   5.408   1.140  11.144
  858TIP3    H223990   5.275   1.067  11.141
  859TIP3   OH223991   4.994   0.393  10.243
  859TIP3    H123992   4.918   0.390  10.184
  859TIP3    H223993   5.013   0.486  10.252
  860TIP3   OH223994   4.799   1.193  11.484
  860TIP3    H123995   4.802   1.152  11.570
  860TIP3    H223996   4.764   1.280  11.500
  861TIP3   OH223997   5.083   0.640  10.358
  861TIP3    H123998   5.170   0.617  10.390
  861TIP3    H223999   5.094   0.726  10.318
  862TIP3   OH224000   4.135   1.088  10.922
  862TIP3    H124001   4.208   1.062  10.865
  862TIP3    H224002   4.138   1.027  10.995
  863TIP3   OH224003   4.828   1.312  10.264
  863TIP3    H124004   4.794   1.400  10.282
  863TIP3    H224005   4.777   1.255  10.322
  864TIP3   OH224006   3.869   0.904  11.466
  864TIP3    H124007   3.825   0.867  11.542
  864TIP3    H224008   3.867   0.833  11.401
  865TIP3   OH224009   4.604   0.911  11.701
  865TIP3    H124010   4.534   0.880  11.644
  865TIP3    H224011   4.679   0.857  11.678
  866TIP3   OH224012   4.998   1.456  11.490
  866TIP3    H124013   4.905   1.458  11.467
  866TIP3    H224014   4.999   1.467  11.586
  867TIP3   OH224015   5.610   1.271  11.591
  867TIP3    H124016   5.516   1.262  11.574
  867TIP3    H224017   5.652   1.241  11.510
  868TIP3   OH224018   5.137   1.019  11.020
  868TIP3    H124019   5.042   1.009  11.013
  868TIP3    H224020   5.172   0.943  10.973
  869TIP3   OH224021   4.404   1.441  10.692
  869TIP3    H124022   4.433   1.523  10.653
  869TIP3    H224023   4.308   1.446  10.691
  870TIP3   OH224024   4.453   1.196  10.564
  870TIP3    H124025   4.451   1.282  10.604
  870TIP3    H224026   4.417   1.137  10.630
  871TIP3   OH224027   4.601   1.616  11.268
  871TIP3    H124028   4.658   1.689  11.245
  871TIP3    H224029   4.655   1.559  11.322
  872TIP3   OH224030   4.409   1.704  10.582
  872TIP3    H124031   4.317   1.722  10.601
  872TIP3    H224032   4.456   1.781  10.613
  873TIP3   OH224033   4.903   1.228  11.232
  873TIP3    H124034   4.869   1.209  11.320
  873TIP3    H224035   4.956   1.151  11.210
  874TIP3   OH224036   5.209   1.646  11.461
  874TIP3    H124037   5.128   1.596  11.451
  874TIP3    H224038   5.201   1.719  11.400
  875TIP3   OH224039   4.026   0.370  11.399
  875TIP3    H124040   3.971   0.445  11.376
  875TIP3    H224041   3.969   0.314  11.452
  876TIP3   OH224042   5.269   1.220  10.404
  876TIP3    H124043   5.231   1.137  10.434
  876TIP3    H224044   5.363   1.203  10.399
  877TIP3   OH224045   3.998   1.577  11.258
  877TIP3    H124046   4.020   1.492  11.295
  877TIP3    H224047   4.020   1.640  11.327
  878TIP3   OH224048   4.906   0.362  11.319
  878TIP3    H124049   4.976   0.383  11.381
  878TIP3    H224050   4.867   0.281  11.352
  879TIP3   OH224051   4.979   0.288  10.491
  879TIP3    H124052   4.979   0.325  10.402
  879TIP3    H224053   5.023   0.355  10.544
  880TIP3   OH224054   4.712   1.558  10.274
  880TIP3    H124055   4.620   1.579  10.292
  880TIP3    H224056   4.746   1.636  10.231
  881TIP3   OH224057   4.669   0.520  10.523
  881TIP3    H124058   4.744   0.579  10.530
  881TIP3    H224059   4.655   0.490  10.613
  882TIP3   OH224060   4.769   0.609  11.393
  882TIP3    H124061   4.769   0.621  11.488
  882TIP3    H224062   4.801   0.519  11.380
  883TIP3   OH224063   4.743   0.200  10.597
  883TIP3    H124064   4.722   0.274  10.654
  883TIP3    H224065   4.827   0.223  10.557
  884TIP3   OH224066   4.465   1.669  10.307
  884TIP3    H124067   4.407   1.723  10.254
  884TIP3    H224068   4.434   1.681  10.397
  885TIP3   OH224069   4.351   0.367  10.300
  885TIP3    H124070   4.364   0.455  10.335
  885TIP3    H224071   4.433   0.321  10.319
  886TIP3   OH224072   5.338   0.403  11.516
  886TIP3    H124073   5.245   0.426  11.512
  886TIP3    H224074   5.358   0.369  11.429
  887TIP3   OH224075   5.217   0.773  10.897
  887TIP3    H124076   5.133   0.731  10.878
  887TIP3    H224077   5.262   0.711  10.954
  888TIP3   OH224078   5.339   1.734  11.059
  888TIP3    H124079   5.327   1.809  11.000
  888TIP3    H224080   5.434   1.727  11.069
  889TIP3   OH224081   4.039   0.133  10.959
  889TIP3    H124082   4.044   0.119  10.864
  889TIP3    H224083   4.010   0.049  10.994
  890TIP3   OH224084   3.998   1.517  10.559
  890TIP3    H124085   3.921   1.523  10.615
  890TIP3    H224086   3.978   1.573  10.484
  891TIP3   OH224087   3.917   1.790  11.731
  891TIP3    H124088   3.987   1.761  11.790
  891TIP3    H224089   3.884   1.709  11.691
  892TIP3   OH224090   4.351   1.622  11.854
  892TIP3    H124091   4.431   1.574  11.875
  892TIP3    H224092   4.328   1.593  11.765
  893TIP3   OH224093   4.990   1.487  11.765
  893TIP3    H124094   4.979   1.404  11.810
  893TIP3    H224095   5.067   1.527  11.806
  894TIP3   OH224096   3.890   1.179  11.791
  894TIP3    H124097   3.895   1.084  11.784
  894TIP3    H224098   3.822   1.204  11.729
  895TIP3   OH224099   4.551   1.180  11.751
  895TIP3    H124100   4.531   1.219  11.666
  895TIP3    H224101   4.580   1.091  11.731
  896TIP3   OH224102   4.964   1.270  10.028
  896TIP3    H124103   4.927   1.283  10.115
  896TIP3    H224104   4.890   1.242   9.974
  897TIP3   OH224105   5.119   1.188  11.521
  897TIP3    H124106   5.207   1.213  11.493
  897TIP3    H224107   5.064   1.263  11.496
  898TIP3   OH224108   3.971   0.919  11.768
  898TIP3    H124109   4.034   0.865  11.719
  898TIP3    H224110   3.985   0.893  11.859
  899TIP3   OH224111   4.414   0.823  11.528
  899TIP3    H124112   4.327   0.857  11.508
  899TIP3    H224113   4.466   0.844  11.450
  900TIP3   OH224114   4.899   1.026  11.802
  900TIP3    H124115   4.966   0.986  11.746
  900TIP3    H224116   4.861   0.952  11.850
  901TIP3   OH224117   4.433   0.544  11.570
  901TIP3    H124118   4.431   0.488  11.492
  901TIP3    H224119   4.412   0.632  11.537
  902TIP3   OH224120   4.463   0.389  11.336
  902TIP3    H124121   4.516   0.428  11.267
  902TIP3    H224122   4.378   0.375  11.296
  903TIP3   OH224123   4.584   0.897  11.330
  903TIP3    H124124   4.679   0.903  11.316
  903TIP3    H224125   4.549   0.975  11.287
  904TIP3   OH224126   5.037   0.649  11.824
  904TIP3    H124127   5.057   0.555  11.829
  904TIP3    H224128   5.122   0.690  11.805
  905TIP3   OH224129   5.157   0.962  11.663
  905TIP3    H124130   5.131   1.042  11.618
  905TIP3    H224131   5.253   0.960  11.656
  906TIP3   OH224132   4.269   0.580  11.795
  906TIP3    H124133   4.187   0.536  11.775
  906TIP3    H224134   4.314   0.585  11.710
  907TIP3   OH224135   4.511   0.143  11.444
  907TIP3    H124136   4.492   0.231  11.411
  907TIP3    H224137   4.442   0.088  11.406
  908TIP3   OH224138   4.639   0.499  11.742
  908TIP3    H124139   4.595   0.460  11.817
  908TIP3    H224140   4.569   0.513  11.678
  909TIP3   OH224141   4.889   0.423  11.653
  909TIP3    H124142   4.800   0.434  11.686
  909TIP3    H224143   4.939   0.390  11.728
  910TIP3   OH224144   5.082   0.363  11.857
  910TIP3    H124145   5.072   0.271  11.834
  910TIP3    H224146   5.062   0.367  11.950
  911TIP3   OH224147   4.061   0.405  11.748
  911TIP3    H124148   4.050   0.338  11.681
  911TIP3    H224149   4.051   0.358  11.831
  912TIP3   OH224150   4.604   0.001  11.652
  912TIP3    H124151   4.529  -0.053  11.678
  912TIP3    H224152   4.571   0.054  11.580
  913TIP3   OH224153   4.629   0.191  11.860
  913TIP3    H124154   4.620   0.128  11.788
  913TIP3    H224155   4.548   0.243  11.855
  914TIP3   OH224156   4.585   1.976  10.225
  914TIP3    H124157   4.639   1.903  10.194
  914TIP3    H224158   4.499   1.959  10.186
  915TIP3   OH224159   3.764   1.845  10.631
  915TIP3    H124160   3.726   1.808  10.551
  915TIP3    H224161   3.790   1.769  10.682
  916TIP3   OH224162   3.846   1.639  10.803
  916TIP3    H124163   3.807   1.563  10.847
  916TIP3    H224164   3.892   1.686  10.872
  917TIP3   OH224165   5.605   1.722  11.126
  917TIP3    H124166   5.610   1.733  11.220
  917TIP3    H224167   5.683   1.767  11.092
  918TIP3   OH224168   5.556   1.699  11.407
  918TIP3    H124169   5.502   1.629  11.369
  918TIP3    H224170   5.603   1.656  11.478
  919TIP3   OH224171   5.415   1.288  11.887
  919TIP3    H124172   5.330   1.296  11.932
  919TIP3    H224173   5.467   1.360  11.921
  920TIP3   OH224174   5.535   1.156  10.402
  920TIP3    H124175   5.619   1.155  10.356
  920TIP3    H224176   5.546   1.093  10.474
  921TIP3   OH224177   5.561   0.967  10.603
  921TIP3    H124178   5.482   0.915  10.617
  921TIP3    H224179   5.626   0.926  10.660
  922TIP3   OH224180   5.595   1.204  11.115
  922TIP3    H124181   5.637   1.143  11.054
  922TIP3    H224182   5.617   1.291  11.081
  923TIP3   OH224183   5.391   1.486  11.326
  923TIP3    H124184   5.319   1.534  11.367
  923TIP3    H224185   5.361   1.471  11.236
  924TIP3   OH224186   5.341   0.801  10.650
  924TIP3    H124187   5.337   0.711  10.616
  924TIP3    H224188   5.305   0.795  10.738
  925TIP3   OH224189   3.818   0.998  11.073
  925TIP3    H124190   3.820   0.973  10.981
  925TIP3    H224191   3.904   0.973  11.107
  926TIP3   OH224192   5.432   0.983  11.626
  926TIP3    H124193   5.495   0.914  11.608
  926TIP3    H224194   5.444   1.045  11.553
  927TIP3   OH224195   5.582   0.749  11.620
  927TIP3    H124196   5.491   0.720  11.630
  927TIP3    H224197   5.635   0.672  11.642
  928TIP3   OH224198   5.330   0.555  10.488
  928TIP3    H124199   5.345   0.460  10.493
  928TIP3    H224200   5.405   0.588  10.438
  929TIP3   OH224201   5.377   0.593  11.049
  929TIP3    H124202   5.470   0.601  11.030
  929TIP3    H224203   5.370   0.608  11.143
  930TIP3   OH224204   5.401   0.679  11.317
  930TIP3    H124205   5.317   0.712  11.351
  930TIP3    H224206   5.452   0.758  11.298
  931TIP3   OH224207   3.812   0.513  11.712
  931TIP3    H124208   3.903   0.485  11.710
  931TIP3    H224209   3.762   0.434  11.691
  932TIP3   OH224210   5.661   0.106  11.835
  932TIP3    H124211   5.664   0.016  11.802
  932TIP3    H224212   5.626   0.158  11.763
  933TIP3   OH224213   5.345   0.282  10.515
  933TIP3    H124214   5.383   0.239  10.591
  933TIP3    H224215   5.282   0.218  10.480
  934TIP3   OH224216   3.915   0.376  10.982
  934TIP3    H124217   3.956   0.290  10.981
  934TIP3    H224218   3.986   0.437  11.005
  935TIP3   OH224219   3.747   0.658  11.021
  935TIP3    H124220   3.818   0.661  10.957
  935TIP3    H224221   3.791   0.659  11.106
  936TIP3   OH224222   5.546   0.256  11.633
  936TIP3    H124223   5.468   0.311  11.636
  936TIP3    H224224   5.533   0.201  11.555
  937TIP3   OH224225   3.800   0.296  10.446
  937TIP3    H124226   3.707   0.304  10.465
  937TIP3    H224227   3.818   0.370  10.387
  938TIP3   OH224228   5.295   1.794  10.648
  938TIP3    H124229   5.301   1.823  10.557
  938TIP3    H224230   5.386   1.793  10.679
  939TIP3   OH224231   3.820   0.116  11.312
  939TIP3    H124232   3.739   0.093  11.357
  939TIP3    H224233   3.794   0.184  11.249
  940TIP3   OH224234   4.014   1.499  11.703
  940TIP3    H124235   3.926   1.505  11.667
  940TIP3    H224236   4.010   1.427  11.766
  941TIP3   OH224237   4.337   1.596  11.345
  941TIP3    H124238   4.308   1.683  11.317
  941TIP3    H224239   4.430   1.595  11.324
  942TIP3   OH224240   4.709   1.713  11.628
  942TIP3    H124241   4.723   1.684  11.718
  942TIP3    H224242   4.788   1.762  11.606
  943TIP3   OH224243   4.942   1.850  11.579
  943TIP3    H124244   5.001   1.802  11.521
  943TIP3    H224245   4.998   1.875  11.653
  944TIP3   OH224246   5.444   0.085  11.423
  944TIP3    H124247   5.401   0.153  11.371
  944TIP3    H224248   5.408   0.002  11.389
  945TIP3   OH224249   4.040   1.896  11.369
  945TIP3    H124250   3.962   1.936  11.332
  945TIP3    H224251   4.050   1.939  11.454
  946TIP3   OH224252   4.296   1.859  11.274
  946TIP3    H124253   4.205   1.874  11.300
  946TIP3    H224254   4.303   1.902  11.189
  947TIP3   OH224255   4.751   1.833  11.180
  947TIP3    H124256   4.703   1.865  11.103
  947TIP3    H224257   4.761   1.910  11.235
  948TIP3   OH224258   4.980   1.722  11.290
  948TIP3    H124259   4.902   1.754  11.246
  948TIP3    H224260   5.051   1.778  11.260
  949TIP3   OH224261   5.229   1.862  11.276
  949TIP3    H124262   5.240   1.954  11.254
  949TIP3    H224263   5.265   1.815  11.201
  950TIP3   OH224264   3.995   1.742  11.033
  950TIP3    H124265   3.994   1.691  11.114
  950TIP3    H224266   4.072   1.710  10.986
  951TIP3   OH224267   4.212   1.623  10.921
  951TIP3    H124268   4.199   1.532  10.945
  951TIP3    H224269   4.301   1.643  10.950
  952TIP3   OH224270   4.476   1.647  11.018
  952TIP3    H124271   4.484   1.557  10.985
  952TIP3    H224272   4.509   1.642  11.108
  953TIP3   OH224273   4.764   0.229  10.922
  953TIP3    H124274   4.701   0.160  10.943
  953TIP3    H224275   4.844   0.183  10.899
  954TIP3   OH224276   5.288   0.054  10.944
  954TIP3    H124277   5.344   0.082  10.872
  954TIP3    H224278   5.203   0.092  10.925
  955TIP3   OH224279   5.448   0.130  10.727
  955TIP3    H124280   5.500   0.053  10.703
  955TIP3    H224281   5.512   0.199  10.743
  956TIP3   OH224282   4.105   0.084  10.693
  956TIP3    H124283   4.067   0.034  10.621
  956TIP3    H224284   4.156   0.020  10.742
  957TIP3   OH224285   3.889   0.087  10.291
  957TIP3    H124286   3.906   0.144  10.216
  957TIP3    H224287   3.860   0.147  10.360
  958TIP3   OH224288   4.526   0.055  10.684
  958TIP3    H124289   4.599   0.100  10.643
  958TIP3    H224290   4.544   0.060  10.778
  959TIP3   OH224291   5.032   0.156  10.855
  959TIP3    H124292   5.051   0.227  10.794
  959TIP3    H224293   5.042   0.076  10.802
  960TIP3   OH224294   5.158   0.094  10.419
  960TIP3    H124295   5.088   0.156  10.436
  960TIP3    H224296   5.118   0.027  10.363
  961TIP3   OH224297   3.937   1.709  10.380
  961TIP3    H124298   3.876   1.699  10.306
  961TIP3    H224299   3.971   1.798  10.371
  962TIP3   OH224300   4.111   0.321  10.170
  962TIP3    H124301   4.126   0.228  10.150
  962TIP3    H224302   4.190   0.348  10.217
  963TIP3   OH224303   4.613   0.302  10.361
  963TIP3    H124304   4.645   0.227  10.410
  963TIP3    H224305   4.638   0.378  10.414
  964TIP3   OH224306   4.798   1.798  10.156
  964TIP3    H124307   4.863   1.839  10.213
  964TIP3    H224308   4.848   1.772  10.078
  965TIP3   OH224309   3.989   0.171  11.615
  965TIP3    H124310   3.964   0.103  11.553
  965TIP3    H224311   4.045   0.126  11.678
  966TIP3   OH224312   4.202   0.140  11.811
  966TIP3    H124313   4.266   0.188  11.760
  966TIP3    H224314   4.246   0.058  11.835
  967TIP3   OH224315   5.051   0.097  11.806
  967TIP3    H124316   5.114   0.049  11.860
  967TIP3    H224317   5.026   0.035  11.738
  968TIP3   OH224318   5.377   1.628  11.684
  968TIP3    H124319   5.319   1.620  11.608
  968TIP3    H224320   5.374   1.720  11.708
  969TIP3   OH224321   6.838   1.032  10.664
  969TIP3    H124322   6.821   1.126  10.656
  969TIP3    H224323   6.781   0.992  10.598
  970TIP3   OH224324   6.715   0.924  11.020
  970TIP3    H124325   6.735   0.882  11.104
  970TIP3    H224326   6.679   0.853  10.966
  971TIP3   OH224327   5.977   0.902  11.179
  971TIP3    H124328   5.966   0.813  11.211
  971TIP3    H224329   6.010   0.951  11.254
  972TIP3   OH224330   7.116   1.237  10.874
  972TIP3    H124331   7.066   1.157  10.889
  972TIP3    H224332   7.107   1.287  10.955
  973TIP3   OH224333   6.100   1.379  11.004
  973TIP3    H124334   6.067   1.290  10.990
  973TIP3    H224335   6.195   1.372  10.989
  974TIP3   OH224336   5.799   0.895  10.784
  974TIP3    H124337   5.807   0.810  10.741
  974TIP3    H224338   5.836   0.957  10.721
  975TIP3   OH224339   6.811   1.742  10.934
  975TIP3    H124340   6.842   1.673  10.876
  975TIP3    H224341   6.767   1.696  11.005
  976TIP3   OH224342   6.578   1.162  11.014
  976TIP3    H124343   6.625   1.083  10.986
  976TIP3    H224344   6.636   1.203  11.078
  977TIP3   OH224345   6.883   0.600  11.065
  977TIP3    H124346   6.899   0.507  11.080
  977TIP3    H224347   6.866   0.607  10.971
  978TIP3   OH224348   6.998   0.458  10.636
  978TIP3    H124349   7.054   0.421  10.704
  978TIP3    H224350   7.060   0.502  10.577
  979TIP3   OH224351   6.375   0.811  10.824
  979TIP3    H124352   6.460   0.772  10.844
  979TIP3    H224353   6.330   0.745  10.772
  980TIP3   OH224354   6.084   0.335  11.208
  980TIP3    H124355   6.060   0.385  11.130
  980TIP3    H224356   6.012   0.349  11.269
  981TIP3   OH224357   6.777   1.288  10.577
  981TIP3    H124358   6.783   1.274  10.483
  981TIP3    H224359   6.733   1.372  10.587
  982TIP3   OH224360   6.386   1.156  11.245
  982TIP3    H124361   6.311   1.205  11.277
  982TIP3    H224362   6.462   1.207  11.275
  983TIP3   OH224363   7.125   0.362  10.856
  983TIP3    H124364   7.128   0.273  10.891
  983TIP3    H224365   7.154   0.417  10.928
  984TIP3   OH224366   6.036   0.504  10.992
  984TIP3    H124367   6.106   0.558  11.027
  984TIP3    H224368   6.030   0.529  10.899
  985TIP3   OH224369   6.191   1.324  11.328
  985TIP3    H124370   6.195   1.418  11.311
  985TIP3    H224371   6.100   1.308  11.353
  986TIP3   OH224372   7.127   1.507  11.054
  986TIP3    H124373   7.056   1.461  11.100
  986TIP3    H224374   7.082   1.575  11.003
  987TIP3   OH224375   7.152   0.295  11.199
  987TIP3    H124376   7.062   0.286  11.168
  987TIP3    H224377   7.187   0.371  11.152
  988TIP3   OH224378   6.469   0.026  10.991
  988TIP3    H124379   6.438  -0.061  10.968
  988TIP3    H224380   6.391   0.074  11.017
  989TIP3   OH224381   6.931   1.572  10.759
  989TIP3    H124382   6.974   1.494  10.724
  989TIP3    H224383   6.993   1.643  10.740
  990TIP3   OH224384   7.109   1.399  10.648
  990TIP3    H124385   7.111   1.354  10.564
  990TIP3    H224386   7.119   1.330  10.713
  991TIP3   OH224387   7.258   1.247  11.503
  991TIP3    H124388   7.306   1.189  11.443
  991TIP3    H224389   7.252   1.330  11.456
  992TIP3   OH224390   6.701   0.946  10.437
  992TIP3    H124391   6.634   1.009  10.410
  992TIP3    H224392   6.762   0.943  10.364
  993TIP3   OH224393   7.071   0.999  10.513
  993TIP3    H124394   6.994   1.009  10.569
  993TIP3    H224395   7.123   0.931  10.555
  994TIP3   OH224396   6.997   0.789  11.401
  994TIP3    H124397   7.007   0.881  11.425
  994TIP3    H224398   6.921   0.788  11.342
  995TIP3   OH224399   6.193   1.008  10.704
  995TIP3    H124400   6.147   0.987  10.622
  995TIP3    H224401   6.254   0.935  10.716
  996TIP3   OH224402   6.366   1.344  10.922
  996TIP3    H124403   6.335   1.376  10.838
  996TIP3    H224404   6.459   1.325  10.908
  997TIP3   OH224405   6.313   0.901  11.070
  997TIP3    H124406   6.335   0.853  10.991
  997TIP3    H224407   6.372   0.865  11.137
  998TIP3   OH224408   6.883   1.451  11.161
  998TIP3    H124409   6.858   1.519  11.223
  998TIP3    H224410   6.834   1.374  11.188
  999TIP3   OH224411   6.356   1.346  11.546
  999TIP3    H124412   6.302   1.408  11.596
  999TIP3    H224413   6.303   1.321  11.471
 1000TIP3   OH224414   6.931   0.886  10.285
 1000TIP3    H124415   6.998   0.917  10.346
 1000TIP3    H224416   6.981   0.850  10.212
 1001TIP3   OH224417   6.027   0.948  11.473
 1001TIP3    H124418   6.036   1.023  11.532
 1001TIP3    H224419   5.932   0.933  11.468
 1002TIP3   OH224420   6.696   1.556  10.609
 1002TIP3    H124421   6.774   1.562  10.665
 1002TIP3    H224422   6.679   1.646  10.582
 1003TIP3   OH224423   6.160   1.529  11.614
 1003TIP3    H124424   6.161   1.559  11.523
 1003TIP3    H224425   6.068   1.516  11.634
 1004TIP3   OH224426   6.048   0.969  10.468
 1004TIP3    H124427   6.025   1.055  10.432
 1004TIP3    H224428   6.013   0.907  10.405
 1005TIP3   OH224429   5.720   1.168  11.362
 1005TIP3    H124430   5.673   1.180  11.279
 1005TIP3    H224431   5.728   1.073  11.372
 1006TIP3   OH224432   5.692   1.462  11.052
 1006TIP3    H124433   5.777   1.479  11.092
 1006TIP3    H224434   5.639   1.540  11.073
 1007TIP3   OH224435   6.594   1.471  11.487
 1007TIP3    H124436   6.592   1.555  11.534
 1007TIP3    H224437   6.511   1.429  11.510
 1008TIP3   OH224438   6.667   1.826  10.501
 1008TIP3    H124439   6.580   1.813  10.464
 1008TIP3    H224440   6.661   1.906  10.552
 1009TIP3   OH224441   6.048   1.727  10.657
 1009TIP3    H124442   6.045   1.695  10.747
 1009TIP3    H224443   5.989   1.669  10.609
 1010TIP3   OH224444   6.936   1.764  10.475
 1010TIP3    H124445   6.842   1.779  10.477
 1010TIP3    H224446   6.946   1.680  10.430
 1011TIP3   OH224447   7.162   0.728  11.662
 1011TIP3    H124448   7.167   0.705  11.569
 1011TIP3    H224449   7.240   0.687  11.700
 1012TIP3   OH224450   5.938   1.322  11.430
 1012TIP3    H124451   5.961   1.285  11.515
 1012TIP3    H224452   5.860   1.273  11.403
 1013TIP3   OH224453   6.234   0.133  11.079
 1013TIP3    H124454   6.176   0.084  11.020
 1013TIP3    H224455   6.176   0.196  11.123
 1014TIP3   OH224456   6.679   0.144  11.417
 1014TIP3    H124457   6.711   0.054  11.425
 1014TIP3    H224458   6.584   0.136  11.422
 1015TIP3   OH224459   7.008   0.512  11.489
 1015TIP3    H124460   6.935   0.494  11.548
 1015TIP3    H224461   6.995   0.602  11.460
 1016TIP3   OH224462   7.200   1.085  10.058
 1016TIP3    H124463   7.151   1.005  10.039
 1016TIP3    H224464   7.209   1.085  10.153
 1017TIP3   OH224465   6.203   0.658  11.163
 1017TIP3    H124466   6.134   0.651  11.228
 1017TIP3    H224467   6.202   0.750  11.137
 1018TIP3   OH224468   6.235   0.634  10.678
 1018TIP3    H124469   6.216   0.543  10.701
 1018TIP3    H224470   6.263   0.631  10.587
 1019TIP3   OH224471   6.786   0.700  10.519
 1019TIP3    H124472   6.750   0.785  10.496
 1019TIP3    H224473   6.850   0.681  10.450
 1020TIP3   OH224474   6.673   0.718  11.665
 1020TIP3    H124475   6.625   0.643  11.700
 1020TIP3    H224476   6.762   0.709  11.698
 1021TIP3   OH224477   6.858   0.639  10.789
 1021TIP3    H124478   6.821   0.693  10.719
 1021TIP3    H224479   6.899   0.565  10.743
 1022TIP3   OH224480   5.988   0.664  11.333
 1022TIP3    H124481   5.975   0.707  11.417
 1022TIP3    H224482   5.951   0.576  11.345
 1023TIP3   OH224483   5.648   0.310  10.744
 1023TIP3    H124484   5.698   0.342  10.819
 1023TIP3    H224485   5.710   0.309  10.671
 1024TIP3   OH224486   6.771   0.773  11.242
 1024TIP3    H124487   6.812   0.713  11.180
 1024TIP3    H224488   6.715   0.717  11.296
 1025TIP3   OH224489   6.525   0.408  10.762
 1025TIP3    H124490   6.443   0.359  10.752
 1025TIP3    H224491   6.572   0.361  10.830
 1026TIP3   OH224492   6.314   0.556  10.427
 1026TIP3    H124493   6.407   0.552  10.450
 1026TIP3    H224494   6.296   0.472  10.384
 1027TIP3   OH224495   6.899   0.324  11.094
 1027TIP3    H124496   6.830   0.330  11.161
 1027TIP3    H224497   6.860   0.270  11.025
 1028TIP3   OH224498   7.239   1.910  11.717
 1028TIP3    H124499   7.243   1.966  11.639
 1028TIP3    H224500   7.329   1.879  11.729
 1029TIP3   OH224501   6.023   1.161  11.660
 1029TIP3    H124502   6.090   1.155  11.729
 1029TIP3    H224503   5.940   1.166  11.707
 1030TIP3   OH224504   6.593   0.687  10.936
 1030TIP3    H124505   6.646   0.623  10.888
 1030TIP3    H224506   6.559   0.637  11.010
 1031TIP3   OH224507   6.473   0.582  11.164
 1031TIP3    H124508   6.380   0.605  11.174
 1031TIP3    H224509   6.511   0.597  11.251
 1032TIP3   OH224510   6.502   1.139  10.396
 1032TIP3    H124511   6.460   1.204  10.340
 1032TIP3    H224512   6.477   1.165  10.485
 1033TIP3   OH224513   7.178   1.117  11.190
 1033TIP3    H124514   7.256   1.087  11.144
 1033TIP3    H224515   7.105   1.079  11.141
 1034TIP3   OH224516   6.672   1.182  11.486
 1034TIP3    H124517   6.691   1.135  11.567
 1034TIP3    H224518   6.653   1.271  11.513
 1035TIP3   OH224519   6.119   1.099  10.954
 1035TIP3    H124520   6.123   1.070  10.863
 1035TIP3    H224521   6.071   1.029  10.999
 1036TIP3   OH224522   5.754   0.896  11.451
 1036TIP3    H124523   5.719   0.855  11.529
 1036TIP3    H224524   5.689   0.877  11.382
 1037TIP3   OH224525   6.463   0.901  11.682
 1037TIP3    H124526   6.397   0.863  11.624
 1037TIP3    H224527   6.542   0.849  11.665
 1038TIP3   OH224528   6.876   1.452  11.483
 1038TIP3    H124529   6.782   1.459  11.468
 1038TIP3    H224530   6.887   1.463  11.577
 1039TIP3   OH224531   6.986   1.009  11.021
 1039TIP3    H124532   6.892   0.995  11.004
 1039TIP3    H224533   7.028   0.932  10.982
 1040TIP3   OH224534   6.268   1.455  10.688
 1040TIP3    H124535   6.304   1.535  10.651
 1040TIP3    H224536   6.177   1.453  10.657
 1041TIP3   OH224537   5.906   0.980  10.216
 1041TIP3    H124538   5.912   1.050  10.151
 1041TIP3    H224539   5.847   0.915  10.177
 1042TIP3   OH224540   6.390   1.204  10.652
 1042TIP3    H124541   6.349   1.290  10.642
 1042TIP3    H224542   6.317   1.143  10.658
 1043TIP3   OH224543   6.484   1.604  11.255
 1043TIP3    H124544   6.534   1.684  11.238
 1043TIP3    H224545   6.538   1.555  11.318
 1044TIP3   OH224546   6.312   1.713  10.587
 1044TIP3    H124547   6.217   1.725  10.595
 1044TIP3    H224548   6.349   1.792  10.625
 1045TIP3   OH224549   6.761   1.207  11.226
 1045TIP3    H124550   6.735   1.190  11.316
 1045TIP3    H224551   6.833   1.147  11.209
 1046TIP3   OH224552   7.075   1.653  11.454
 1046TIP3    H124553   7.000   1.595  11.441
 1046TIP3    H224554   7.064   1.723  11.390
 1047TIP3   OH224555   5.882   0.412  11.389
 1047TIP3    H124556   5.789   0.431  11.381
 1047TIP3    H224557   5.888   0.345  11.457
 1048TIP3   OH224558   7.139   1.249  10.417
 1048TIP3    H124559   7.116   1.159  10.440
 1048TIP3    H224560   7.235   1.249  10.413
 1049TIP3   OH224561   5.882   1.590  11.256
 1049TIP3    H124562   5.905   1.509  11.301
 1049TIP3    H224563   5.900   1.659  11.320
 1050TIP3   OH224564   6.343   1.324  10.238
 1050TIP3    H124565   6.412   1.328  10.172
 1050TIP3    H224566   6.263   1.347  10.192
 1051TIP3   OH224567   6.775   0.387  11.342
 1051TIP3    H124568   6.860   0.394  11.386
 1051TIP3    H224569   6.740   0.303  11.371
 1052TIP3   OH224570   6.865   0.307  10.445
 1052TIP3    H124571   6.866   0.351  10.359
 1052TIP3    H224572   6.905   0.370  10.504
 1053TIP3   OH224573   6.569   0.526  10.517
 1053TIP3    H124574   6.646   0.582  10.513
 1053TIP3    H224575   6.561   0.502  10.609
 1054TIP3   OH224576   6.622   0.611  11.402
 1054TIP3    H124577   6.639   0.635  11.493
 1054TIP3    H224578   6.668   0.528  11.390
 1055TIP3   OH224579   6.652   0.208  10.593
 1055TIP3    H124580   6.632   0.294  10.630
 1055TIP3    H224581   6.721   0.224  10.530
 1056TIP3   OH224582   7.245   0.360  11.447
 1056TIP3    H124583   7.178   0.415  11.487
 1056TIP3    H224584   7.209   0.338  11.361
 1057TIP3   OH224585   7.077   0.767  10.910
 1057TIP3    H124586   6.996   0.733  10.873
 1057TIP3    H224587   7.102   0.703  10.976
 1058TIP3   OH224588   7.258   1.782  11.087
 1058TIP3    H124589   7.238   1.850  11.023
 1058TIP3    H224590   7.339   1.810  11.129
 1059TIP3   OH224591   5.903   0.119  11.007
 1059TIP3    H124592   5.961   0.071  10.948
 1059TIP3    H224593   5.916   0.077  11.092
 1060TIP3   OH224594   5.900   1.539  10.520
 1060TIP3    H124595   5.805   1.541  10.532
 1060TIP3    H224596   5.912   1.520  10.427
 1061TIP3   OH224597   5.802   1.798  11.729
 1061TIP3    H124598   5.869   1.771  11.792
 1061TIP3    H224599   5.768   1.716  11.693
 1062TIP3   OH224600   6.232   1.624  11.861
 1062TIP3    H124601   6.312   1.575  11.882
 1062TIP3    H224602   6.210   1.595  11.772
 1063TIP3   OH224603   6.882   1.490  11.756
 1063TIP3    H124604   6.856   1.409  11.798
 1063TIP3    H224605   6.958   1.520  11.806
 1064TIP3   OH224606   5.776   1.168  11.790
 1064TIP3    H124607   5.777   1.073  11.780
 1064TIP3    H224608   5.707   1.197  11.730
 1065TIP3   OH224609   6.437   1.173  11.747
 1065TIP3    H124610   6.418   1.216  11.664
 1065TIP3    H224611   6.459   1.083  11.723
 1066TIP3   OH224612   7.002   1.132  11.500
 1066TIP3    H124613   7.091   1.168  11.492
 1066TIP3    H224614   6.945   1.206  11.481
 1067TIP3   OH224615   5.861   0.901  11.767
 1067TIP3    H124616   5.943   0.861  11.739
 1067TIP3    H224617   5.864   0.897  11.863
 1068TIP3   OH224618   6.275   0.802  11.493
 1068TIP3    H124619   6.193   0.851  11.480
 1068TIP3    H224620   6.330   0.827  11.419
 1069TIP3   OH224621   6.773   1.029  11.794
 1069TIP3    H124622   6.861   1.005  11.765
 1069TIP3    H224623   6.744   0.955  11.847
 1070TIP3   OH224624   6.304   0.537  11.571
 1070TIP3    H124625   6.310   0.480  11.494
 1070TIP3    H224626   6.298   0.625  11.535
 1071TIP3   OH224627   6.325   0.386  11.335
 1071TIP3    H124628   6.384   0.408  11.264
 1071TIP3    H224629   6.242   0.365  11.292
 1072TIP3   OH224630   6.458   0.888  11.305
 1072TIP3    H124631   6.552   0.877  11.315
 1072TIP3    H224632   6.446   0.982  11.292
 1073TIP3   OH224633   6.922   0.665  11.808
 1073TIP3    H124634   6.931   0.570  11.808
 1073TIP3    H224635   7.002   0.697  11.765
 1074TIP3   OH224636   7.033   0.967  11.718
 1074TIP3    H124637   7.028   1.021  11.639
 1074TIP3    H224638   7.082   0.889  11.690
 1075TIP3   OH224639   6.151   0.582  11.798
 1075TIP3    H124640   6.067   0.538  11.785
 1075TIP3    H224641   6.196   0.574  11.714
 1076TIP3   OH224642   6.398   0.147  11.456
 1076TIP3    H124643   6.376   0.233  11.421
 1076TIP3    H224644   6.337   0.086  11.414
 1077TIP3   OH224645   6.530   0.495  11.730
 1077TIP3    H124646   6.509   0.430  11.797
 1077TIP3    H224647   6.451   0.502  11.677
 1078TIP3   OH224648   6.798   0.442  11.650
 1078TIP3    H124649   6.705   0.438  11.674
 1078TIP3    H224650   6.842   0.392  11.719
 1079TIP3   OH224651   6.972   0.360  11.855
 1079TIP3    H124652   6.967   0.266  11.836
 1079TIP3    H224653   6.943   0.367  11.947
 1080TIP3   OH224654   5.926   0.420  11.777
 1080TIP3    H124655   5.927   0.346  11.716
 1080TIP3    H224656   5.926   0.380  11.864
 1081TIP3   OH224657   6.493  -0.002  11.662
 1081TIP3    H124658   6.412  -0.040  11.698
 1081TIP3    H224659   6.464   0.054  11.591
 1082TIP3   OH224660   6.519   0.219  11.842
 1082TIP3    H124661   6.522   0.139  11.789
 1082TIP3    H224662   6.426   0.240  11.849
 1083TIP3   OH224663   5.567   1.835  10.580
 1083TIP3    H124664   5.552   1.819  10.487
 1083TIP3    H224665   5.637   1.775  10.604
 1084TIP3   OH224666   5.717   1.668  10.792
 1084TIP3    H124667   5.685   1.584  10.825
 1084TIP3    H224668   5.763   1.707  10.866
 1085TIP3   OH224669   7.251   1.469  11.334
 1085TIP3    H124670   7.199   1.538  11.375
 1085TIP3    H224671   7.218   1.465  11.244
 1086TIP3   OH224672   7.197   0.797  10.658
 1086TIP3    H124673   7.170   0.718  10.610
 1086TIP3    H224674   7.160   0.786  10.745
 1087TIP3   OH224675   5.733   0.945  11.047
 1087TIP3    H124676   5.748   0.933  10.953
 1087TIP3    H224677   5.820   0.936  11.086
 1088TIP3   OH224678   7.132   0.418  10.125
 1088TIP3    H124679   7.190   0.411  10.201
 1088TIP3    H224680   7.045   0.432  10.162
 1089TIP3   OH224681   7.174   0.591  10.466
 1089TIP3    H124682   7.231   0.518  10.442
 1089TIP3    H224683   7.175   0.648  10.390
 1090TIP3   OH224684   7.244   0.508  11.056
 1090TIP3    H124685   7.326   0.462  11.037
 1090TIP3    H224686   7.272   0.596  11.082
 1091TIP3   OH224687   7.263   0.714  11.373
 1091TIP3    H124688   7.170   0.727  11.359
 1091TIP3    H224689   7.301   0.715  11.285
 1092TIP3   OH224690   5.688   0.497  11.657
 1092TIP3    H124691   5.774   0.480  11.696
 1092TIP3    H224692   5.641   0.414  11.664
 1093TIP3   OH224693   7.217   0.133  10.656
 1093TIP3    H124694   7.274   0.194  10.609
 1093TIP3    H224695   7.155   0.103  10.590
 1094TIP3   OH224696   5.797   0.372  10.974
 1094TIP3    H124697   5.822   0.280  10.983
 1094TIP3    H224698   5.879   0.421  10.980
 1095TIP3   OH224699   5.648   0.621  11.025
 1095TIP3    H124700   5.706   0.552  10.994
 1095TIP3    H224701   5.697   0.702  11.008
 1096TIP3   OH224702   7.088   1.790  10.698
 1096TIP3    H124703   7.044   1.781  10.613
 1096TIP3    H224704   7.177   1.819  10.676
 1097TIP3   OH224705   5.706   0.115  11.321
 1097TIP3    H124706   5.624   0.089  11.362
 1097TIP3    H224707   5.682   0.183  11.258
 1098TIP3   OH224708   5.901   1.498  11.710
 1098TIP3    H124709   5.813   1.505  11.672
 1098TIP3    H224710   5.887   1.459  11.796
 1099TIP3   OH224711   6.222   1.599  11.345
 1099TIP3    H124712   6.193   1.685  11.317
 1099TIP3    H224713   6.315   1.595  11.320
 1100TIP3   OH224714   6.597   1.713  11.623
 1100TIP3    H124715   6.609   1.681  11.712
 1100TIP3    H224716   6.677   1.762  11.604
 1101TIP3   OH224717   6.833   1.850  11.584
 1101TIP3    H124718   6.899   1.793  11.543
 1101TIP3    H224719   6.875   1.881  11.664
 1102TIP3   OH224720   5.929   1.886  11.371
 1102TIP3    H124721   5.850   1.923  11.332
 1102TIP3    H224722   5.940   1.932  11.454
 1103TIP3   OH224723   6.182   1.861  11.268
 1103TIP3    H124724   6.093   1.872  11.299
 1103TIP3    H224725   6.183   1.903  11.182
 1104TIP3   OH224726   6.618   1.836  11.180
 1104TIP3    H124727   6.568   1.874  11.108
 1104TIP3    H224728   6.635   1.909  11.239
 1105TIP3   OH224729   6.835   1.703  11.281
 1105TIP3    H124730   6.758   1.747  11.246
 1105TIP3    H224731   6.906   1.766  11.268
 1106TIP3   OH224732   7.059   1.864  11.266
 1106TIP3    H124733   7.072   1.959  11.261
 1106TIP3    H224734   7.123   1.828  11.204
 1107TIP3   OH224735   5.871   1.752  11.025
 1107TIP3    H124736   5.873   1.705  11.108
 1107TIP3    H224737   5.949   1.723  10.979
 1108TIP3   OH224738   6.094   1.640  10.922
 1108TIP3    H124739   6.083   1.549  10.948
 1108TIP3    H224740   6.184   1.661  10.944
 1109TIP3   OH224741   6.368   1.659  11.002
 1109TIP3    H124742   6.391   1.584  10.947
 1109TIP3    H224743   6.394   1.633  11.090
 1110TIP3   OH224744   6.652   0.234  10.931
 1110TIP3    H124745   6.597   0.161  10.962
 1110TIP3    H224746   6.725   0.191  10.887
 1111TIP3   OH224747   7.152   0.054  10.910
 1111TIP3    H124748   7.192   0.067  10.824
 1111TIP3    H224749   7.058   0.064  10.895
 1112TIP3   OH224750   6.432   0.062  10.702
 1112TIP3    H124751   6.497   0.089  10.636
 1112TIP3    H224752   6.482   0.057  10.784
 1113TIP3   OH224753   6.895   0.148  10.830
 1113TIP3    H124754   6.923   0.218  10.770
 1113TIP3    H224755   6.898   0.069  10.777
 1114TIP3   OH224756   7.041   0.089  10.443
 1114TIP3    H124757   6.972   0.154  10.427
 1114TIP3    H224758   7.045   0.039  10.362
 1115TIP3   OH224759   6.486   0.319  10.330
 1115TIP3    H124760   6.555   0.294  10.270
 1115TIP3    H224761   6.532   0.355  10.406
 1116TIP3   OH224762   5.901   0.212  11.592
 1116TIP3    H124763   5.850   0.143  11.549
 1116TIP3    H224764   5.960   0.165  11.651
 1117TIP3   OH224765   6.087   0.149  11.797
 1117TIP3    H124766   6.166   0.203  11.791
 1117TIP3    H224767   6.120   0.061  11.818
 1118TIP3   OH224768   6.968   0.092  11.808
 1118TIP3    H124769   7.017   0.031  11.863
 1118TIP3    H224770   6.934   0.038  11.736
 1119TIP3   OH224771   7.214   1.626  11.695
 1119TIP3    H124772   7.173   1.615  11.609
 1119TIP3    H224773   7.222   1.721  11.706
 1120TIP3   OH224774   1.218   2.933  10.634
 1120TIP3    H124775   1.205   3.028  10.633
 1120TIP3    H224776   1.145   2.899  10.583
 1121TIP3   OH224777   1.087   2.832  11.057
 1121TIP3    H124778   1.112   2.783  11.135
 1121TIP3    H224779   1.037   2.770  11.004
 1122TIP3   OH224780   0.310   2.763  11.177
 1122TIP3    H124781   0.312   2.685  11.231
 1122TIP3    H224782   0.401   2.776  11.150
 1123TIP3   OH224783   1.512   3.121  10.892
 1123TIP3    H124784   1.450   3.055  10.922
 1123TIP3    H224785   1.498   3.195  10.952
 1124TIP3   OH224786   0.417   3.257  11.003
 1124TIP3    H124787   0.396   3.167  10.976
 1124TIP3    H224788   0.511   3.256  11.020
 1125TIP3   OH224789   0.132   2.621  10.519
 1125TIP3    H124790   0.149   2.704  10.474
 1125TIP3    H224791   0.061   2.581  10.469
 1126TIP3   OH224792   0.140   2.812  10.812
 1126TIP3    H124793   0.172   2.723  10.827
 1126TIP3    H224794   0.145   2.823  10.717
 1127TIP3   OH224795   1.192   3.629  10.926
 1127TIP3    H124796   1.241   3.579  10.862
 1127TIP3    H224797   1.146   3.563  10.978
 1128TIP3   OH224798   0.910   3.090  11.058
 1128TIP3    H124799   0.945   3.013  11.013
 1128TIP3    H224800   0.981   3.118  11.116
 1129TIP3   OH224801   1.800   2.219  11.153
 1129TIP3    H124802   1.820   2.289  11.215
 1129TIP3    H224803   1.854   2.237  11.077
 1130TIP3   OH224804   1.241   2.496  11.076
 1130TIP3    H124805   1.257   2.402  11.083
 1130TIP3    H224806   1.219   2.510  10.984
 1131TIP3   OH224807   0.576   2.307  10.790
 1131TIP3    H124808   0.581   2.396  10.756
 1131TIP3    H224809   0.534   2.257  10.720
 1132TIP3   OH224810   1.353   2.387  10.650
 1132TIP3    H124811   1.394   2.336  10.720
 1132TIP3    H224812   1.422   2.396  10.584
 1133TIP3   OH224813   0.217   2.553  10.885
 1133TIP3    H124814   0.286   2.513  10.938
 1133TIP3    H224815   0.231   2.519  10.797
 1134TIP3   OH224816   0.704   2.717  10.861
 1134TIP3    H124817   0.789   2.680  10.883
 1134TIP3    H224818   0.663   2.651  10.805
 1135TIP3   OH224819   1.847   2.388  11.377
 1135TIP3    H124820   1.768   2.440  11.359
 1135TIP3    H224821   1.860   2.396  11.472
 1136TIP3   OH224822   0.433   2.229  11.227
 1136TIP3    H124823   0.407   2.285  11.154
 1136TIP3    H224824   0.362   2.238  11.291
 1137TIP3   OH224825   1.175   3.202  10.583
 1137TIP3    H124826   1.151   3.193  10.491
 1137TIP3    H224827   1.118   3.271  10.617
 1138TIP3   OH224828   0.699   2.999  11.213
 1138TIP3    H124829   0.644   3.069  11.247
 1138TIP3    H224830   0.765   3.044  11.161
 1139TIP3   OH224831   1.463   2.292  10.882
 1139TIP3    H124832   1.413   2.238  10.943
 1139TIP3    H224833   1.521   2.344  10.938
 1140TIP3   OH224834   0.415   2.389  10.999
 1140TIP3    H124835   0.473   2.443  11.053
 1140TIP3    H224836   0.472   2.353  10.931
 1141TIP3   OH224837   0.540   3.198  11.325
 1141TIP3    H124838   0.546   3.293  11.313
 1141TIP3    H224839   0.450   3.184  11.356
 1142TIP3   OH224840   1.494   3.345  11.069
 1142TIP3    H124841   1.401   3.342  11.089
 1142TIP3    H224842   1.511   3.436  11.045
 1143TIP3   OH224843   1.543   2.131  11.246
 1143TIP3    H124844   1.473   2.170  11.194
 1143TIP3    H224845   1.624   2.155  11.199
 1144TIP3   OH224846   0.797   1.921  10.982
 1144TIP3    H124847   0.768   1.830  10.981
 1144TIP3    H224848   0.719   1.971  11.007
 1145TIP3   OH224849   1.322   3.512  10.716
 1145TIP3    H124850   1.366   3.428  10.703
 1145TIP3    H224851   1.322   3.552  10.629
 1146TIP3   OH224852   1.434   3.270  10.656
 1146TIP3    H124853   1.354   3.232  10.621
 1146TIP3    H224854   1.466   3.206  10.720
 1147TIP3   OH224855   1.606   3.124  11.428
 1147TIP3    H124856   1.596   3.066  11.353
 1147TIP3    H224857   1.616   3.211  11.391
 1148TIP3   OH224858   1.041   2.849  10.437
 1148TIP3    H124859   0.977   2.912  10.404
 1148TIP3    H224860   1.105   2.841  10.367
 1149TIP3   OH224861   1.069   2.632  10.121
 1149TIP3    H124862   1.130   2.680  10.178
 1149TIP3    H224863   1.013   2.700  10.083
 1150TIP3   OH224864   1.773   2.788  11.267
 1150TIP3    H124865   1.701   2.850  11.251
 1150TIP3    H224866   1.832   2.801  11.193
 1151TIP3   OH224867   1.422   2.827  10.481
 1151TIP3    H124868   1.359   2.869  10.540
 1151TIP3    H224869   1.479   2.777  10.539
 1152TIP3   OH224870   1.379   2.651  11.453
 1152TIP3    H124871   1.371   2.722  11.517
 1152TIP3    H224872   1.314   2.672  11.386
 1153TIP3   OH224873   0.556   2.909  10.704
 1153TIP3    H124874   0.516   2.871  10.626
 1153TIP3    H224875   0.607   2.838  10.742
 1154TIP3   OH224876   0.704   3.270  10.969
 1154TIP3    H124877   0.697   3.269  10.874
 1154TIP3    H224878   0.775   3.209  10.989
 1155TIP3   OH224879   0.566   2.795  11.085
 1155TIP3    H124880   0.616   2.775  11.006
 1155TIP3    H224881   0.614   2.866  11.127
 1156TIP3   OH224882   1.238   3.352  11.152
 1156TIP3    H124883   1.217   3.419  11.217
 1156TIP3    H224884   1.194   3.273  11.184
 1157TIP3   OH224885   0.704   3.231  11.545
 1157TIP3    H124886   0.641   3.290  11.588
 1157TIP3    H224887   0.658   3.200  11.467
 1158TIP3   OH224888   1.248   2.787  10.267
 1158TIP3    H124889   1.318   2.804  10.330
 1158TIP3    H224890   1.263   2.851  10.197
 1159TIP3   OH224891   0.390   2.827  11.486
 1159TIP3    H124892   0.389   2.899  11.549
 1159TIP3    H224893   0.332   2.855  11.415
 1160TIP3   OH224894   1.052   3.443  10.654
 1160TIP3    H124895   1.138   3.471  10.685
 1160TIP3    H224896   1.023   3.514  10.597
 1161TIP3   OH224897   0.505   3.415  11.613
 1161TIP3    H124898   0.511   3.442  11.521
 1161TIP3    H224899   0.411   3.412  11.631
 1162TIP3   OH224900   1.610   1.990  10.285
 1162TIP3    H124901   1.519   2.004  10.259
 1162TIP3    H224902   1.660   1.995  10.204
 1163TIP3   OH224903   0.454   2.797  10.471
 1163TIP3    H124904   0.376   2.806  10.416
 1163TIP3    H224905   0.477   2.704  10.464
 1164TIP3   OH224906   0.180   3.008  11.338
 1164TIP3    H124907   0.150   2.992  11.248
 1164TIP3    H224908   0.134   2.943  11.391
 1165TIP3   OH224909   0.122   3.348  10.946
 1165TIP3    H124910   0.199   3.303  10.981
 1165TIP3    H224911   0.049   3.314  10.997
 1166TIP3   OH224912   1.859   3.413  11.634
 1166TIP3    H124913   1.849   3.318  11.622
 1166TIP3    H224914   1.775   3.442  11.668
 1167TIP3   OH224915   0.941   3.357  11.489
 1167TIP3    H124916   0.938   3.440  11.537
 1167TIP3    H224917   0.857   3.315  11.509
 1168TIP3   OH224918   1.021   3.675  10.496
 1168TIP3    H124919   1.003   3.647  10.406
 1168TIP3    H224920   1.003   3.769  10.496
 1169TIP3   OH224921   0.379   3.596  10.669
 1169TIP3    H124922   0.396   3.567  10.759
 1169TIP3    H224923   0.319   3.530  10.633
 1170TIP3   OH224924   1.294   3.629  10.472
 1170TIP3    H124925   1.199   3.646  10.476
 1170TIP3    H224926   1.309   3.599  10.383
 1171TIP3   OH224927   1.556   2.530  11.651
 1171TIP3    H124928   1.498   2.565  11.583
 1171TIP3    H224929   1.563   2.437  11.632
 1172TIP3   OH224930   0.294   3.215  11.471
 1172TIP3    H124931   0.331   3.160  11.541
 1172TIP3    H224932   0.240   3.155  11.420
 1173TIP3   OH224933   0.547   2.034  11.058
 1173TIP3    H124934   0.472   2.021  11.000
 1173TIP3    H224935   0.520   2.103  11.118
 1174TIP3   OH224936   1.033   1.998  11.401
 1174TIP3    H124937   1.078   1.947  11.468
 1174TIP3    H224938   0.940   1.987  11.420
 1175TIP3   OH224939   1.317   2.378  11.478
 1175TIP3    H124940   1.258   2.370  11.553
 1175TIP3    H224941   1.325   2.472  11.463
 1176TIP3   OH224942   0.562   2.537  11.183
 1176TIP3    H124943   0.495   2.538  11.252
 1176TIP3    H224944   0.570   2.628  11.156
 1177TIP3   OH224945   0.559   2.561  10.690
 1177TIP3    H124946   0.466   2.541  10.679
 1177TIP3    H224947   0.594   2.560  10.601
 1178TIP3   OH224948   1.100   2.608  10.554
 1178TIP3    H124949   1.068   2.691  10.518
 1178TIP3    H224950   1.187   2.597  10.515
 1179TIP3   OH224951   1.017   2.598  11.661
 1179TIP3    H124952   0.969   2.524  11.696
 1179TIP3    H224953   1.102   2.595  11.704
 1180TIP3   OH224954   1.190   2.536  10.809
 1180TIP3    H124955   1.145   2.584  10.740
 1180TIP3    H224956   1.241   2.469  10.762
 1181TIP3   OH224957   0.342   2.546  11.352
 1181TIP3    H124958   0.341   2.600  11.431
 1181TIP3    H224959   0.300   2.464  11.379
 1182TIP3   OH224960   0.056   2.257  10.650
 1182TIP3    H124961   0.104   2.255  10.733
 1182TIP3    H224962   0.116   2.215  10.588
 1183TIP3   OH224963   0.059   2.379  10.242
 1183TIP3    H124964   0.145   2.341  10.261
 1183TIP3    H224965   0.048   2.367  10.147
 1184TIP3   OH224966   1.164   2.668  11.270
 1184TIP3    H124967   1.198   2.610  11.201
 1184TIP3    H224968   1.095   2.617  11.312
 1185TIP3   OH224969   0.858   2.320  10.777
 1185TIP3    H124970   0.766   2.303  10.795
 1185TIP3    H224971   0.905   2.271  10.844
 1186TIP3   OH224972   0.311   2.454  10.645
 1186TIP3    H124973   0.252   2.500  10.585
 1186TIP3    H224974   0.335   2.374  10.598
 1187TIP3   OH224975   0.649   2.550  10.436
 1187TIP3    H124976   0.733   2.508  10.452
 1187TIP3    H224977   0.647   2.565  10.342
 1188TIP3   OH224978   1.253   2.217  11.089
 1188TIP3    H124979   1.201   2.226  11.169
 1188TIP3    H224980   1.192   2.178  11.025
 1189TIP3   OH224981   0.603   2.616  10.162
 1189TIP3    H124982   0.516   2.577  10.177
 1189TIP3    H224983   0.602   2.642  10.070
 1190TIP3   OH224984   1.607   3.788  11.731
 1190TIP3    H124985   1.633   3.816  11.643
 1190TIP3    H224986   1.681   3.812  11.787
 1191TIP3   OH224987   0.372   3.039  11.672
 1191TIP3    H124988   0.432   3.031  11.746
 1191TIP3    H224989   0.285   3.044  11.711
 1192TIP3   OH224990   0.941   2.600  10.959
 1192TIP3    H124991   1.006   2.552  10.908
 1192TIP3    H224992   0.908   2.537  11.022
 1193TIP3   OH224993   0.436   2.205  10.570
 1193TIP3    H124994   0.390   2.125  10.595
 1193TIP3    H224995   0.462   2.190  10.479
 1194TIP3   OH224996   0.824   2.446  11.169
 1194TIP3    H124997   0.737   2.486  11.179
 1194TIP3    H224998   0.872   2.476  11.246
 1195TIP3   OH224999   0.847   3.036  10.349
 1195TIP3    H125000   0.784   2.973  10.315
 1195TIP3    H225001   0.817   3.056  10.437
 1196TIP3   OH225002   1.583   2.979  11.195
 1196TIP3    H125003   1.631   3.034  11.133
 1196TIP3    H225004   1.506   2.950  11.145
 1197TIP3   OH225005   1.027   3.075  11.491
 1197TIP3    H125006   1.042   3.035  11.577
 1197TIP3    H225007   0.991   3.162  11.511
 1198TIP3   OH225008   0.413   2.997  10.926
 1198TIP3    H125009   0.451   2.976  10.841
 1198TIP3    H225010   0.425   2.918  10.978
 1199TIP3   OH225011   1.077   3.195  10.331
 1199TIP3    H125012   1.087   3.241  10.248
 1199TIP3    H225013   0.999   3.140  10.319
 1200TIP3   OH225014   0.079   2.808  11.489
 1200TIP3    H125015   0.103   2.785  11.578
 1200TIP3    H225016   0.039   2.728  11.453
 1201TIP3   OH225017   0.808   2.783  11.681
 1201TIP3    H125018   0.742   2.745  11.624
 1201TIP3    H225019   0.888   2.734  11.662
 1202TIP3   OH225020   1.224   3.343  11.487
 1202TIP3    H125021   1.131   3.343  11.466
 1202TIP3    H225022   1.227   3.351  11.582
 1203TIP3   OH225023   1.806   2.473  10.330
 1203TIP3    H125024   1.836   2.387  10.359
 1203TIP3    H225025   1.869   2.498  10.263
 1204TIP3   OH225026   1.834   3.141  11.581
 1204TIP3    H125027   1.742   3.139  11.556
 1204TIP3    H225028   1.881   3.117  11.501
 1205TIP3   OH225029   1.708   3.444  10.357
 1205TIP3    H125030   1.639   3.384  10.384
 1205TIP3    H225031   1.696   3.454  10.262
 1206TIP3   OH225032   1.373   2.899  11.021
 1206TIP3    H125033   1.278   2.889  11.019
 1206TIP3    H225034   1.406   2.823  10.974
 1207TIP3   OH225035   0.639   3.331  10.700
 1207TIP3    H125036   0.667   3.410  10.654
 1207TIP3    H225037   0.545   3.327  10.686
 1208TIP3   OH225038   0.732   3.092  10.588
 1208TIP3    H125039   0.715   3.174  10.634
 1208TIP3    H225040   0.675   3.028  10.632
 1209TIP3   OH225041   0.829   3.506  11.270
 1209TIP3    H125042   0.889   3.577  11.247
 1209TIP3    H225043   0.881   3.448  11.326
 1210TIP3   OH225044   0.628   3.599  10.558
 1210TIP3    H125045   0.541   3.605  10.597
 1210TIP3    H225046   0.675   3.675  10.593
 1211TIP3   OH225047   1.126   3.109  11.237
 1211TIP3    H125048   1.094   3.092  11.325
 1211TIP3    H225049   1.172   3.029  11.212
 1212TIP3   OH225050   1.432   3.529  11.462
 1212TIP3    H125051   1.354   3.475  11.456
 1212TIP3    H225052   1.417   3.600  11.399
 1213TIP3   OH225053   0.233   2.284  11.426
 1213TIP3    H125054   0.137   2.287  11.431
 1213TIP3    H225055   0.257   2.213  11.486
 1214TIP3   OH225056   0.231   3.483  11.260
 1214TIP3    H125057   0.277   3.399  11.266
 1214TIP3    H225058   0.160   3.477  11.323
 1215TIP3   OH225059   0.765   3.349   9.972
 1215TIP3    H125060   0.739   3.270   9.924
 1215TIP3    H225061   0.754   3.325  10.064
 1216TIP3   OH225062   0.716   3.254  10.230
 1216TIP3    H125063   0.771   3.181  10.255
 1216TIP3    H225064   0.664   3.274  10.308
 1217TIP3   OH225065   1.116   2.253  11.333
 1217TIP3    H125066   1.195   2.270  11.385
 1217TIP3    H225067   1.089   2.165  11.359
 1218TIP3   OH225068   0.890   2.430  10.524
 1218TIP3    H125069   0.965   2.488  10.534
 1218TIP3    H225070   0.875   2.395  10.612
 1219TIP3   OH225071   0.987   2.497  11.390
 1219TIP3    H125072   0.993   2.515  11.484
 1219TIP3    H225073   1.024   2.409  11.380
 1220TIP3   OH225074   1.011   2.109  10.644
 1220TIP3    H125075   0.986   2.200  10.632
 1220TIP3    H225076   1.061   2.087  10.566
 1221TIP3   OH225077   0.550   3.564  10.285
 1221TIP3    H125078   0.630   3.539  10.239
 1221TIP3    H225079   0.577   3.577  10.376
 1222TIP3   OH225080   1.568   2.279  11.506
 1222TIP3    H125081   1.475   2.302  11.497
 1222TIP3    H225082   1.589   2.234  11.424
 1223TIP3   OH225083   1.448   2.657  10.894
 1223TIP3    H125084   1.364   2.615  10.871
 1223TIP3    H225085   1.493   2.592  10.947
 1224TIP3   OH225086   0.343   2.534  10.164
 1224TIP3    H125087   0.309   2.612  10.208
 1224TIP3    H225088   0.280   2.515  10.095
 1225TIP3   OH225089   1.570   3.617  11.061
 1225TIP3    H125090   1.553   3.677  10.989
 1225TIP3    H225091   1.665   3.619  11.072
 1226TIP3   OH225092   0.300   1.994  10.932
 1226TIP3    H125093   0.300   1.985  10.837
 1226TIP3    H225094   0.268   1.910  10.965
 1227TIP3   OH225095   0.224   3.393  10.570
 1227TIP3    H125096   0.172   3.327  10.616
 1227TIP3    H225097   0.200   3.383  10.478
 1228TIP3   OH225098   0.187   3.688  11.723
 1228TIP3    H125099   0.244   3.683  11.800
 1228TIP3    H225100   0.186   3.599  11.688
 1229TIP3   OH225101   0.584   3.504  11.861
 1229TIP3    H125102   0.663   3.453  11.881
 1229TIP3    H225103   0.559   3.477  11.773
 1230TIP3   OH225104   1.224   3.374  11.760
 1230TIP3    H125105   1.210   3.291  11.805
 1230TIP3    H225106   1.299   3.413  11.804
 1231TIP3   OH225107   1.596   3.470  10.099
 1231TIP3    H125108   1.532   3.413  10.054
 1231TIP3    H225109   1.681   3.441  10.066
 1232TIP3   OH225110   0.102   3.055  11.750
 1232TIP3    H125111   0.106   2.959  11.748
 1232TIP3    H225112   0.039   3.078  11.681
 1233TIP3   OH225113   0.779   3.056  11.746
 1233TIP3    H125114   0.760   3.101  11.664
 1233TIP3    H225115   0.802   2.967  11.720
 1234TIP3   OH225116   1.347   3.076  11.518
 1234TIP3    H125117   1.436   3.100  11.492
 1234TIP3    H225118   1.293   3.151  11.493
 1235TIP3   OH225119   0.188   2.783  11.744
 1235TIP3    H125120   0.273   2.746  11.721
 1235TIP3    H225121   0.188   2.785  11.840
 1236TIP3   OH225122   0.649   2.865  10.281
 1236TIP3    H125123   0.581   2.859  10.349
 1236TIP3    H225124   0.642   2.783  10.232
 1237TIP3   OH225125   0.616   2.667  11.502
 1237TIP3    H125126   0.539   2.724  11.495
 1237TIP3    H225127   0.677   2.700  11.435
 1238TIP3   OH225128   1.122   2.915  11.789
 1238TIP3    H125129   1.197   2.875  11.744
 1238TIP3    H225130   1.090   2.846  11.847
 1239TIP3   OH225131   0.656   2.404  11.569
 1239TIP3    H125132   0.665   2.347  11.493
 1239TIP3    H225133   0.645   2.491  11.533
 1240TIP3   OH225134   0.687   2.248  11.334
 1240TIP3    H125135   0.741   2.291  11.268
 1240TIP3    H225136   0.600   2.244  11.295
 1241TIP3   OH225137   0.800   2.776  11.338
 1241TIP3    H125138   0.896   2.780  11.333
 1241TIP3    H225139   0.771   2.858  11.297
 1242TIP3   OH225140   1.254   2.558  11.819
 1242TIP3    H125141   1.248   2.466  11.793
 1242TIP3    H225142   1.348   2.576  11.821
 1243TIP3   OH225143   1.393   2.849  11.659
 1243TIP3    H125144   1.367   2.929  11.614
 1243TIP3    H225145   1.489   2.848  11.653
 1244TIP3   OH225146   0.493   2.469  11.790
 1244TIP3    H125147   0.415   2.415  11.778
 1244TIP3    H225148   0.542   2.459  11.709
 1245TIP3   OH225149   0.752   1.982  11.399
 1245TIP3    H125150   0.730   2.073  11.378
 1245TIP3    H225151   0.687   1.930  11.353
 1246TIP3   OH225152   0.877   2.375  11.736
 1246TIP3    H125153   0.839   2.347  11.819
 1246TIP3    H225154   0.803   2.377  11.675
 1247TIP3   OH225155   1.151   2.329  11.687
 1247TIP3    H125156   1.059   2.321  11.708
 1247TIP3    H225157   1.195   2.263  11.741
 1248TIP3   OH225158   1.319   2.189  11.856
 1248TIP3    H125159   1.318   2.094  11.844
 1248TIP3    H225160   1.295   2.202  11.947
 1249TIP3   OH225161   0.293   2.274  11.766
 1249TIP3    H125162   0.293   2.199  11.707
 1249TIP3    H225163   0.311   2.237  11.852
 1250TIP3   OH225164   0.746   1.902  11.660
 1250TIP3    H125165   0.802   1.824  11.656
 1250TIP3    H225166   0.742   1.933  11.570
 1251TIP3   OH225167   0.815   2.062  11.873
 1251TIP3    H125168   0.796   2.010  11.796
 1251TIP3    H225169   0.752   2.135  11.869
 1252TIP3   OH225170   0.793   3.781  10.130
 1252TIP3    H125171   0.852   3.710  10.155
 1252TIP3    H225172   0.772   3.826  10.212
 1253TIP3   OH225173   0.046   3.765  10.602
 1253TIP3    H125174  -0.042   3.738  10.574
 1253TIP3    H225175   0.071   3.699  10.667
 1254TIP3   OH225176   0.096   3.580  10.806
 1254TIP3    H125177   0.101   3.487  10.830
 1254TIP3    H225178   0.141   3.626  10.876
 1255TIP3   OH225179   1.837   3.628  11.143
 1255TIP3    H125180   1.828   3.600  11.234
 1255TIP3    H225181   1.869   3.718  11.148
 1256TIP3   OH225182   1.791   3.567  11.409
 1256TIP3    H125183   1.730   3.500  11.377
 1256TIP3    H225184   1.831   3.527  11.486
 1257TIP3   OH225185   1.641   3.180  11.884
 1257TIP3    H125186   1.558   3.185  11.931
 1257TIP3    H225187   1.693   3.251  11.919
 1258TIP3   OH225188   1.783   3.107  11.029
 1258TIP3    H125189   1.840   3.030  11.030
 1258TIP3    H225190   1.727   3.095  10.952
 1259TIP3   OH225191   1.614   3.377  11.317
 1259TIP3    H125192   1.542   3.421  11.363
 1259TIP3    H225193   1.579   3.360  11.230
 1260TIP3   OH225194   1.579   2.671  10.641
 1260TIP3    H125195   1.569   2.582  10.607
 1260TIP3    H225196   1.544   2.667  10.730
 1261TIP3   OH225197   0.099   2.896  11.073
 1261TIP3    H125198   0.107   2.894  10.978
 1261TIP3    H225199   0.180   2.857  11.105
 1262TIP3   OH225200   1.671   2.861  11.633
 1262TIP3    H125201   1.727   2.784  11.623
 1262TIP3    H225202   1.708   2.925  11.571
 1263TIP3   OH225203   1.812   2.626  11.626
 1263TIP3    H125204   1.724   2.589  11.635
 1263TIP3    H225205   1.871   2.554  11.648
 1264TIP3   OH225206   1.571   2.436  10.480
 1264TIP3    H125207   1.589   2.342  10.487
 1264TIP3    H225208   1.642   2.469  10.426
 1265TIP3   OH225209   1.601   2.474  11.047
 1265TIP3    H125210   1.694   2.486  11.026
 1265TIP3    H225211   1.595   2.489  11.141
 1266TIP3   OH225212   1.627   2.557  11.317
 1266TIP3    H125213   1.545   2.589  11.355
 1266TIP3    H225214   1.679   2.636  11.301
 1267TIP3   OH225215   0.076   2.444  11.753
 1267TIP3    H125216   0.156   2.394  11.735
 1267TIP3    H225217   0.020   2.384  11.802
 1268TIP3   OH225218   1.865   1.975  11.835
 1268TIP3    H125219   1.927   1.911  11.801
 1268TIP3    H225220   1.860   2.043  11.768
 1269TIP3   OH225221   1.638   2.173  10.488
 1269TIP3    H125222   1.636   2.124  10.570
 1269TIP3    H225223   1.618   2.108  10.420
 1270TIP3   OH225224   0.180   2.244  10.929
 1270TIP3    H125225   0.212   2.154  10.936
 1270TIP3    H225226   0.257   2.298  10.945
 1271TIP3   OH225227   0.023   2.619  11.077
 1271TIP3    H125228   0.089   2.597  11.011
 1271TIP3    H225229   0.029   2.714  11.087
 1272TIP3   OH225230   1.787   2.157  11.642
 1272TIP3    H125231   1.706   2.207  11.650
 1272TIP3    H225232   1.771   2.097  11.569
 1273TIP3   OH225233   1.856   2.138  10.101
 1273TIP3    H125234   1.870   2.064  10.041
 1273TIP3    H225235   1.914   2.206  10.067
 1274TIP3   OH225236   0.162   2.134  10.416
 1274TIP3    H125237   0.088   2.103  10.364
 1274TIP3    H225238   0.239   2.104  10.369
 1275TIP3   OH225239   1.622   3.669  10.644
 1275TIP3    H125240   1.569   3.599  10.606
 1275TIP3    H225241   1.573   3.698  10.721
 1276TIP3   OH225242   0.043   2.015  11.310
 1276TIP3    H125243   0.027   2.078  11.380
 1276TIP3    H225244  -0.017   2.041  11.240
 1277TIP3   OH225245   0.230   3.407  11.678
 1277TIP3    H125246   0.218   3.346  11.606
 1277TIP3    H225247   0.178   3.371  11.750
 1278TIP3   OH225248   0.566   3.473  11.344
 1278TIP3    H125249   0.529   3.556  11.315
 1278TIP3    H225250   0.659   3.480  11.325
 1279TIP3   OH225251   0.945   3.598  11.626
 1279TIP3    H125252   0.956   3.567  11.716
 1279TIP3    H225253   1.025   3.648  11.608
 1280TIP3   OH225254   1.180   3.737  11.586
 1280TIP3    H125255   1.243   3.680  11.541
 1280TIP3    H225256   1.228   3.769  11.662
 1281TIP3   OH225257   1.696   1.958  11.464
 1281TIP3    H125258   1.623   1.975  11.404
 1281TIP3    H225259   1.722   1.868  11.446
 1282TIP3   OH225260   0.297   3.810  11.359
 1282TIP3    H125261   0.209   3.831  11.331
 1282TIP3    H225262   0.302   3.844  11.449
 1283TIP3   OH225263   0.540   3.739  11.264
 1283TIP3    H125264   0.452   3.757  11.298
 1283TIP3    H225265   0.545   3.786  11.182
 1284TIP3   OH225266   0.981   3.721  11.178
 1284TIP3    H125267   0.932   3.758  11.105
 1284TIP3    H225268   0.990   3.793  11.240
 1285TIP3   OH225269   1.213   3.605  11.280
 1285TIP3    H125270   1.133   3.639  11.240
 1285TIP3    H225271   1.280   3.669  11.256
 1286TIP3   OH225272   1.462   3.752  11.276
 1286TIP3    H125273   1.476   3.843  11.251
 1286TIP3    H225274   1.497   3.701  11.203
 1287TIP3   OH225275   0.235   3.646  11.038
 1287TIP3    H125276   0.231   3.609  11.126
 1287TIP3    H225277   0.308   3.601  10.995
 1288TIP3   OH225278   0.445   3.516  10.922
 1288TIP3    H125279   0.427   3.426  10.946
 1288TIP3    H225280   0.533   3.533  10.955
 1289TIP3   OH225281   0.707   3.542  11.021
 1289TIP3    H125282   0.716   3.452  10.990
 1289TIP3    H225283   0.735   3.539  11.112
 1290TIP3   OH225284   1.028   2.123  10.927
 1290TIP3    H125285   0.968   2.051  10.949
 1290TIP3    H225286   1.056   2.105  10.838
 1291TIP3   OH225287   1.526   1.951  10.900
 1291TIP3    H125288   1.589   2.002  10.848
 1291TIP3    H225289   1.441   1.972  10.862
 1292TIP3   OH225290   1.709   2.047  10.724
 1292TIP3    H125291   1.776   1.986  10.694
 1292TIP3    H225292   1.757   2.127  10.743
 1293TIP3   OH225293   0.295   1.978  10.655
 1293TIP3    H125294   0.219   1.982  10.597
 1293TIP3    H225295   0.330   1.890  10.643
 1294TIP3   OH225296   0.823   1.920  10.700
 1294TIP3    H125297   0.880   1.991  10.672
 1294TIP3    H225298   0.812   1.933  10.794
 1295TIP3   OH225299   1.286   1.967  10.768
 1295TIP3    H125300   1.276   1.935  10.679
 1295TIP3    H225301   1.238   1.904  10.822
 1296TIP3   OH225302   0.147   3.530  10.309
 1296TIP3    H125303   0.066   3.507  10.263
 1296TIP3    H225304   0.121   3.596  10.372
 1297TIP3   OH225305   0.295   2.037  11.617
 1297TIP3    H125306   0.244   1.962  11.646
 1297TIP3    H225307   0.381   2.025  11.657
 1298TIP3   OH225308   0.506   1.967  11.782
 1298TIP3    H125309   0.589   1.939  11.744
 1298TIP3    H225310   0.472   1.890  11.827
 1299TIP3   OH225311   1.339   1.918  11.808
 1299TIP3    H125312   1.328   1.869  11.889
 1299TIP3    H225313   1.431   1.908  11.786
 1300TIP3   OH225314   1.606   3.514  11.683
 1300TIP3    H125315   1.544   3.509  11.610
 1300TIP3    H225316   1.603   3.606  11.710
 1301TIP3   OH225317   3.056   2.875  10.660
 1301TIP3    H125318   3.090   2.963  10.678
 1301TIP3    H225319   2.976   2.890  10.611
 1302TIP3   OH225320   2.953   2.829  11.055
 1302TIP3    H125321   2.987   2.788  11.135
 1302TIP3    H225322   2.909   2.759  11.008
 1303TIP3   OH225323   2.172   2.771  11.187
 1303TIP3    H125324   2.178   2.696  11.246
 1303TIP3    H225325   2.261   2.785  11.157
 1304TIP3   OH225326   3.320   3.137  10.885
 1304TIP3    H125327   3.301   3.056  10.932
 1304TIP3    H225328   3.351   3.197  10.952
 1305TIP3   OH225329   2.305   3.225  11.030
 1305TIP3    H125330   2.288   3.138  10.993
 1305TIP3    H225331   2.401   3.232  11.030
 1306TIP3   OH225332   1.944   2.573  10.552
 1306TIP3    H125333   1.875   2.581  10.618
 1306TIP3    H225334   1.899   2.540  10.474
 1307TIP3   OH225335   2.013   2.806  10.817
 1307TIP3    H125336   2.035   2.713  10.831
 1307TIP3    H225337   2.079   2.837  10.755
 1308TIP3   OH225338   3.064   3.595  10.968
 1308TIP3    H125339   3.101   3.566  10.884
 1308TIP3    H225340   3.065   3.516  11.022
 1309TIP3   OH225341   2.797   3.075  11.061
 1309TIP3    H125342   2.837   2.993  11.032
 1309TIP3    H225343   2.866   3.117  11.113
 1310TIP3   OH225344   3.697   2.220  11.139
 1310TIP3    H125345   3.712   2.298  11.191
 1310TIP3    H225346   3.754   2.230  11.063
 1311TIP3   OH225347   3.126   2.494  11.081
 1311TIP3    H125348   3.154   2.403  11.093
 1311TIP3    H225349   3.097   2.499  10.990
 1312TIP3   OH225350   2.436   2.308  10.815
 1312TIP3    H125351   2.464   2.387  10.769
 1312TIP3    H225352   2.403   2.250  10.746
 1313TIP3   OH225353   3.237   2.412  10.664
 1313TIP3    H125354   3.272   2.353  10.730
 1313TIP3    H225355   3.303   2.412  10.595
 1314TIP3   OH225356   2.095   2.546  10.865
 1314TIP3    H125357   2.157   2.505  10.925
 1314TIP3    H225358   2.123   2.517  10.778
 1315TIP3   OH225359   2.576   2.696  10.864
 1315TIP3    H125360   2.661   2.664  10.892
 1315TIP3    H225361   2.542   2.628  10.806
 1316TIP3   OH225362   3.718   2.386  11.376
 1316TIP3    H125363   3.661   2.456  11.344
 1316TIP3    H225364   3.664   2.340  11.441
 1317TIP3   OH225365   2.325   2.218  11.220
 1317TIP3    H125366   2.298   2.275  11.147
 1317TIP3    H225367   2.254   2.226  11.284
 1318TIP3   OH225368   2.989   3.136  10.563
 1318TIP3    H125369   2.995   3.147  10.468
 1318TIP3    H225370   3.035   3.212  10.599
 1319TIP3   OH225371   2.586   2.986  11.217
 1319TIP3    H125372   2.536   3.060  11.252
 1319TIP3    H225373   2.657   3.026  11.167
 1320TIP3   OH225374   3.354   2.289  10.884
 1320TIP3    H125375   3.400   2.205  10.885
 1320TIP3    H225376   3.410   2.347  10.937
 1321TIP3   OH225377   2.275   2.396  11.013
 1321TIP3    H125378   2.335   2.450  11.065
 1321TIP3    H225379   2.331   2.358  10.945
 1322TIP3   OH225380   2.438   3.201  11.324
 1322TIP3    H125381   2.440   3.295  11.307
 1322TIP3    H225382   2.348   3.183  11.351
 1323TIP3   OH225383   2.064   3.170  10.396
 1323TIP3    H125384   2.099   3.223  10.324
 1323TIP3    H225385   2.083   3.221  10.474
 1324TIP3   OH225386   3.364   3.348  11.082
 1324TIP3    H125387   3.269   3.357  11.085
 1324TIP3    H225388   3.395   3.433  11.050
 1325TIP3   OH225389   3.428   2.158  11.240
 1325TIP3    H125390   3.351   2.187  11.191
 1325TIP3    H225391   3.501   2.173  11.181
 1326TIP3   OH225392   2.720   1.947  10.988
 1326TIP3    H125393   2.735   1.896  10.908
 1326TIP3    H225394   2.624   1.948  10.998
 1327TIP3   OH225395   3.197   3.512  10.738
 1327TIP3    H125396   3.222   3.426  10.706
 1327TIP3    H225397   3.268   3.570  10.710
 1328TIP3   OH225398   3.265   3.259  10.643
 1328TIP3    H125399   3.312   3.216  10.572
 1328TIP3    H225400   3.291   3.212  10.722
 1329TIP3   OH225401   3.496   3.119  11.432
 1329TIP3    H125402   3.483   3.063  11.355
 1329TIP3    H225403   3.510   3.206  11.396
 1330TIP3   OH225404   3.657   2.796  11.268
 1330TIP3    H125405   3.584   2.855  11.252
 1330TIP3    H225406   3.716   2.810  11.194
 1331TIP3   OH225407   3.290   2.838  10.506
 1331TIP3    H125408   3.215   2.842  10.566
 1331TIP3    H225409   3.355   2.786  10.553
 1332TIP3   OH225410   3.264   2.658  11.451
 1332TIP3    H125411   3.254   2.729  11.514
 1332TIP3    H225412   3.199   2.677  11.383
 1333TIP3   OH225413   2.452   2.896  10.715
 1333TIP3    H125414   2.407   2.854  10.641
 1333TIP3    H225415   2.496   2.824  10.759
 1334TIP3   OH225416   2.584   3.255  10.980
 1334TIP3    H125417   2.575   3.261  10.885
 1334TIP3    H225418   2.659   3.198  10.994
 1335TIP3   OH225419   2.435   2.801  11.079
 1335TIP3    H125420   2.488   2.773  11.005
 1335TIP3    H225421   2.490   2.864  11.126
 1336TIP3   OH225422   3.092   3.376  11.144
 1336TIP3    H125423   3.098   3.421  11.228
 1336TIP3    H225424   3.064   3.287  11.166
 1337TIP3   OH225425   2.598   3.233  11.546
 1337TIP3    H125426   2.534   3.291  11.587
 1337TIP3    H225427   2.554   3.201  11.467
 1338TIP3   OH225428   3.194   2.822  10.247
 1338TIP3    H125429   3.239   2.826  10.332
 1338TIP3    H225430   3.221   2.738  10.210
 1339TIP3   OH225431   2.259   2.833  11.516
 1339TIP3    H125432   2.262   2.917  11.561
 1339TIP3    H225433   2.169   2.826  11.484
 1340TIP3   OH225434   2.939   3.470  10.636
 1340TIP3    H125435   3.027   3.487  10.669
 1340TIP3    H225436   2.943   3.491  10.543
 1341TIP3   OH225437   2.393   3.412  11.603
 1341TIP3    H125438   2.397   3.442  11.513
 1341TIP3    H225439   2.299   3.404  11.622
 1342TIP3   OH225440   3.568   1.959  10.276
 1342TIP3    H125441   3.476   1.972  10.301
 1342TIP3    H225442   3.573   1.994  10.187
 1343TIP3   OH225443   2.322   2.789  10.497
 1343TIP3    H125444   2.303   2.864  10.441
 1343TIP3    H225445   2.315   2.713  10.439
 1344TIP3   OH225446   1.960   3.051  11.351
 1344TIP3    H125447   1.937   3.037  11.259
 1344TIP3    H225448   1.972   2.963  11.386
 1345TIP3   OH225449   1.922   3.355  11.036
 1345TIP3    H125450   1.874   3.273  11.034
 1345TIP3    H225451   1.863   3.417  11.078
 1346TIP3   OH225452   3.750   3.427  11.632
 1346TIP3    H125453   3.741   3.333  11.617
 1346TIP3    H225454   3.663   3.454  11.664
 1347TIP3   OH225455   2.831   3.365  11.484
 1347TIP3    H125456   2.827   3.446  11.535
 1347TIP3    H225457   2.750   3.319  11.506
 1348TIP3   OH225458   2.238   3.617  10.674
 1348TIP3    H125459   2.256   3.571  10.755
 1348TIP3    H225460   2.191   3.554  10.619
 1349TIP3   OH225461   3.128   3.674  10.433
 1349TIP3    H125462   3.037   3.695  10.412
 1349TIP3    H225463   3.152   3.607  10.370
 1350TIP3   OH225464   3.442   2.533  11.643
 1350TIP3    H125465   3.384   2.570  11.577
 1350TIP3    H225466   3.448   2.440  11.620
 1351TIP3   OH225467   2.181   3.196  11.433
 1351TIP3    H125468   2.206   3.161  11.519
 1351TIP3    H225469   2.106   3.143  11.406
 1352TIP3   OH225470   2.429   2.016  11.048
 1352TIP3    H125471   2.351   2.012  10.992
 1352TIP3    H225472   2.413   2.089  11.107
 1353TIP3   OH225473   2.911   2.010  11.404
 1353TIP3    H125474   2.956   1.955  11.467
 1353TIP3    H225475   2.818   1.993  11.418
 1354TIP3   OH225476   3.214   2.382  11.489
 1354TIP3    H125477   3.146   2.371  11.556
 1354TIP3    H225478   3.210   2.475  11.466
 1355TIP3   OH225479   2.442   2.543  11.176
 1355TIP3    H125480   2.383   2.545  11.251
 1355TIP3    H225481   2.445   2.634  11.145
 1356TIP3   OH225482   2.451   2.542  10.669
 1356TIP3    H125483   2.357   2.529  10.656
 1356TIP3    H225484   2.489   2.539  10.581
 1357TIP3   OH225485   2.901   2.601  11.665
 1357TIP3    H125486   2.855   2.524  11.698
 1357TIP3    H225487   2.987   2.598  11.706
 1358TIP3   OH225488   3.073   2.566  10.815
 1358TIP3    H125489   3.078   2.649  10.768
 1358TIP3    H225490   3.118   2.504  10.757
 1359TIP3   OH225491   2.216   2.544  11.345
 1359TIP3    H125492   2.275   2.565  11.417
 1359TIP3    H225493   2.181   2.458  11.367
 1360TIP3   OH225494   1.871   2.263  10.750
 1360TIP3    H125495   1.935   2.267  10.822
 1360TIP3    H225496   1.923   2.276  10.671
 1361TIP3   OH225497   3.049   2.672  11.268
 1361TIP3    H125498   3.083   2.613  11.202
 1361TIP3    H225499   2.980   2.622  11.312
 1362TIP3   OH225500   2.731   2.337  10.808
 1362TIP3    H125501   2.648   2.297  10.833
 1362TIP3    H225502   2.797   2.274  10.836
 1363TIP3   OH225503   2.191   2.461  10.617
 1363TIP3    H125504   2.111   2.495  10.577
 1363TIP3    H225505   2.198   2.371  10.583
 1364TIP3   OH225506   3.169   2.218  11.117
 1364TIP3    H125507   3.080   2.203  11.148
 1364TIP3    H225508   3.170   2.182  11.028
 1365TIP3   OH225509   3.490   3.786  11.727
 1365TIP3    H125510   3.510   3.818  11.639
 1365TIP3    H225511   3.565   3.812  11.780
 1366TIP3   OH225512   2.247   3.065  11.672
 1366TIP3    H125513   2.315   3.052  11.738
 1366TIP3    H225514   2.165   3.064  11.721
 1367TIP3   OH225515   2.819   2.599  10.960
 1367TIP3    H125516   2.881   2.556  10.902
 1367TIP3    H225517   2.787   2.530  11.017
 1368TIP3   OH225518   2.336   2.170  10.594
 1368TIP3    H125519   2.266   2.107  10.607
 1368TIP3    H225520   2.416   2.118  10.596
 1369TIP3   OH225521   2.703   2.447  11.171
 1369TIP3    H125522   2.615   2.483  11.179
 1369TIP3    H225523   2.748   2.477  11.250
 1370TIP3   OH225524   2.690   3.144  10.348
 1370TIP3    H125525   2.708   3.058  10.310
 1370TIP3    H225526   2.664   3.125  10.438
 1371TIP3   OH225527   3.459   2.975  11.201
 1371TIP3    H125528   3.521   3.025  11.149
 1371TIP3    H225529   3.389   2.953  11.141
 1372TIP3   OH225530   2.908   3.072  11.479
 1372TIP3    H125531   2.937   3.030  11.560
 1372TIP3    H225532   2.882   3.160  11.506
 1373TIP3   OH225533   2.285   2.979  10.919
 1373TIP3    H125534   2.334   2.962  10.839
 1373TIP3    H225535   2.311   2.909  10.979
 1374TIP3   OH225536   2.955   3.195  10.286
 1374TIP3    H125537   2.965   3.291  10.287
 1374TIP3    H225538   2.863   3.180  10.305
 1375TIP3   OH225539   1.978   2.809  11.473
 1375TIP3    H125540   1.968   2.765  11.557
 1375TIP3    H225541   1.916   2.765  11.415
 1376TIP3   OH225542   2.710   2.797  11.671
 1376TIP3    H125543   2.679   2.797  11.580
 1376TIP3    H225544   2.784   2.737  11.671
 1377TIP3   OH225545   3.112   3.340  11.484
 1377TIP3    H125546   3.019   3.347  11.463
 1377TIP3    H225547   3.116   3.354  11.578
 1378TIP3   OH225548   3.654   2.521  10.289
 1378TIP3    H125549   3.610   2.494  10.209
 1378TIP3    H225550   3.658   2.617  10.283
 1379TIP3   OH225551   3.723   3.154  11.590
 1379TIP3    H125552   3.630   3.146  11.567
 1379TIP3    H225553   3.770   3.126  11.512
 1380TIP3   OH225554   3.591   3.390  10.402
 1380TIP3    H125555   3.556   3.307  10.433
 1380TIP3    H225556   3.542   3.410  10.322
 1381TIP3   OH225557   3.251   2.899  11.024
 1381TIP3    H125558   3.156   2.885  11.018
 1381TIP3    H225559   3.289   2.820  10.985
 1382TIP3   OH225560   2.497   3.343  10.726
 1382TIP3    H125561   2.525   3.422  10.680
 1382TIP3    H225562   2.525   3.271  10.670
 1383TIP3   OH225563   2.100   2.868  10.114
 1383TIP3    H125564   2.179   2.870  10.167
 1383TIP3    H225565   2.037   2.819  10.166
 1384TIP3   OH225566   2.606   3.106  10.618
 1384TIP3    H125567   2.692   3.092  10.658
 1384TIP3    H225568   2.553   3.033  10.648
 1385TIP3   OH225569   2.722   3.517  11.265
 1385TIP3    H125570   2.784   3.585  11.237
 1385TIP3    H225571   2.774   3.459  11.321
 1386TIP3   OH225572   2.511   3.605  10.619
 1386TIP3    H125573   2.417   3.619  10.628
 1386TIP3    H225574   2.549   3.693  10.626
 1387TIP3   OH225575   3.017   3.121  11.230
 1387TIP3    H125576   2.982   3.099  11.316
 1387TIP3    H225577   3.082   3.052  11.212
 1388TIP3   OH225578   3.331   3.535  11.463
 1388TIP3    H125579   3.246   3.491  11.448
 1388TIP3    H225580   3.329   3.610  11.404
 1389TIP3   OH225581   2.113   2.286  11.394
 1389TIP3    H125582   2.022   2.310  11.377
 1389TIP3    H225583   2.108   2.212  11.454
 1390TIP3   OH225584   3.403   3.092  10.463
 1390TIP3    H125585   3.358   3.008  10.470
 1390TIP3    H225586   3.493   3.070  10.438
 1391TIP3   OH225587   2.133   3.427  11.293
 1391TIP3    H125588   2.151   3.349  11.346
 1391TIP3    H225589   2.112   3.495  11.356
 1392TIP3   OH225590   2.499   3.306  10.224
 1392TIP3    H125591   2.556   3.245  10.271
 1392TIP3    H225592   2.513   3.390  10.266
 1393TIP3   OH225593   2.257   2.982  10.320
 1393TIP3    H125594   2.190   3.048  10.337
 1393TIP3    H225595   2.321   3.027  10.265
 1394TIP3   OH225596   2.982   2.272  11.357
 1394TIP3    H125597   3.076   2.274  11.377
 1394TIP3    H225598   2.956   2.181  11.371
 1395TIP3   OH225599   2.973   3.467  10.291
 1395TIP3    H125600   2.938   3.556  10.302
 1395TIP3    H225601   3.051   3.478  10.236
 1396TIP3   OH225602   2.860   2.515  11.395
 1396TIP3    H125603   2.869   2.534  11.488
 1396TIP3    H225604   2.897   2.428  11.384
 1397TIP3   OH225605   2.863   2.206  10.500
 1397TIP3    H125606   2.872   2.209  10.595
 1397TIP3    H225607   2.872   2.113  10.477
 1398TIP3   OH225608   2.544   3.541  10.353
 1398TIP3    H125609   2.607   3.604  10.319
 1398TIP3    H225610   2.546   3.554  10.448
 1399TIP3   OH225611   3.463   2.276  11.491
 1399TIP3    H125612   3.372   2.305  11.496
 1399TIP3    H225613   3.468   2.229  11.408
 1400TIP3   OH225614   3.335   2.653  10.917
 1400TIP3    H125615   3.253   2.605  10.906
 1400TIP3    H225616   3.393   2.592  10.963
 1401TIP3   OH225617   2.208   3.320  10.220
 1401TIP3    H125618   2.302   3.319  10.205
 1401TIP3    H225619   2.170   3.337  10.134
 1402TIP3   OH225620   3.453   3.617  11.061
 1402TIP3    H125621   3.437   3.690  11.001
 1402TIP3    H225622   3.548   3.617  11.073
 1403TIP3   OH225623   2.174   2.006  10.932
 1403TIP3    H125624   2.166   1.997  10.837
 1403TIP3    H225625   2.149   1.921  10.967
 1404TIP3   OH225626   2.097   3.450  10.492
 1404TIP3    H125627   2.003   3.439  10.473
 1404TIP3    H225628   2.141   3.427  10.410
 1405TIP3   OH225629   2.036   3.691  11.729
 1405TIP3    H125630   2.102   3.674  11.797
 1405TIP3    H225631   2.011   3.604  11.699
 1406TIP3   OH225632   2.458   3.510  11.853
 1406TIP3    H125633   2.537   3.465  11.881
 1406TIP3    H225634   2.442   3.479  11.764
 1407TIP3   OH225635   3.106   3.375  11.757
 1407TIP3    H125636   3.092   3.292  11.802
 1407TIP3    H225637   3.182   3.414  11.800
 1408TIP3   OH225638   1.998   3.054  11.793
 1408TIP3    H125639   2.004   2.959  11.785
 1408TIP3    H225640   1.930   3.079  11.730
 1409TIP3   OH225641   2.666   3.061  11.751
 1409TIP3    H125642   2.653   3.106  11.667
 1409TIP3    H225643   2.695   2.973  11.727
 1410TIP3   OH225644   3.233   3.084  11.515
 1410TIP3    H125645   3.324   3.101  11.490
 1410TIP3    H225646   3.187   3.165  11.493
 1411TIP3   OH225647   2.081   2.789  11.759
 1411TIP3    H125648   2.164   2.758  11.722
 1411TIP3    H225649   2.092   2.779  11.854
 1412TIP3   OH225650   2.449   2.644  11.465
 1412TIP3    H125651   2.390   2.716  11.489
 1412TIP3    H225652   2.529   2.687  11.437
 1413TIP3   OH225653   3.011   2.914  11.787
 1413TIP3    H125654   3.088   2.877  11.744
 1413TIP3    H225655   2.980   2.845  11.845
 1414TIP3   OH225656   3.606   2.908   9.988
 1414TIP3    H125657   3.679   2.855   9.956
 1414TIP3    H225658   3.640   2.997   9.991
 1415TIP3   OH225659   2.535   2.404  11.570
 1415TIP3    H125660   2.548   2.341  11.499
 1415TIP3    H225661   2.513   2.486  11.525
 1416TIP3   OH225662   2.571   2.248  11.338
 1416TIP3    H125663   2.629   2.285  11.271
 1416TIP3    H225664   2.487   2.238  11.293
 1417TIP3   OH225665   2.672   2.785  11.393
 1417TIP3    H125666   2.756   2.753  11.361
 1417TIP3    H225667   2.650   2.858  11.334
 1418TIP3   OH225668   3.139   2.562  11.818
 1418TIP3    H125669   3.122   2.474  11.786
 1418TIP3    H225670   3.234   2.571  11.815
 1419TIP3   OH225671   3.272   2.857  11.659
 1419TIP3    H125672   3.248   2.937  11.613
 1419TIP3    H225673   3.368   2.854  11.652
 1420TIP3   OH225674   2.369   2.461  11.791
 1420TIP3    H125675   2.295   2.402  11.778
 1420TIP3    H225676   2.422   2.451  11.711
 1421TIP3   OH225677   2.634   1.980  11.392
 1421TIP3    H125678   2.611   2.070  11.373
 1421TIP3    H225679   2.566   1.928  11.349
 1422TIP3   OH225680   2.760   2.377  11.734
 1422TIP3    H125681   2.721   2.346  11.816
 1422TIP3    H225682   2.688   2.379  11.672
 1423TIP3   OH225683   3.042   2.336  11.697
 1423TIP3    H125684   2.948   2.320  11.709
 1423TIP3    H225685   3.085   2.265  11.745
 1424TIP3   OH225686   3.207   2.181  11.857
 1424TIP3    H125687   3.200   2.087  11.840
 1424TIP3    H225688   3.178   2.191  11.948
 1425TIP3   OH225689   2.171   2.261  11.763
 1425TIP3    H125690   2.179   2.182  11.709
 1425TIP3    H225691   2.184   2.231  11.852
 1426TIP3   OH225692   2.646   1.917  11.656
 1426TIP3    H125693   2.678   1.827  11.658
 1426TIP3    H225694   2.639   1.938  11.563
 1427TIP3   OH225695   2.700   2.064  11.878
 1427TIP3    H125696   2.685   2.011  11.799
 1427TIP3    H225697   2.636   2.135  11.871
 1428TIP3   OH225698   1.883   3.744  10.638
 1428TIP3    H125699   1.794   3.714  10.617
 1428TIP3    H225700   1.914   3.685  10.706
 1429TIP3   OH225701   1.958   3.586  10.849
 1429TIP3    H125702   1.919   3.499  10.857
 1429TIP3    H225703   1.984   3.608  10.938
 1430TIP3   OH225704   3.717   3.643  11.129
 1430TIP3    H125705   3.734   3.637  11.223
 1430TIP3    H225706   3.802   3.661  11.090
 1431TIP3   OH225707   3.670   3.587  11.407
 1431TIP3    H125708   3.621   3.517  11.363
 1431TIP3    H225709   3.718   3.542  11.477
 1432TIP3   OH225710   3.524   3.172  11.888
 1432TIP3    H125711   3.439   3.181  11.931
 1432TIP3    H225712   3.577   3.244  11.924
 1433TIP3   OH225713   3.662   3.004  10.415
 1433TIP3    H125714   3.737   3.063  10.414
 1433TIP3    H225715   3.681   2.941  10.485
 1434TIP3   OH225716   3.695   2.809  10.608
 1434TIP3    H125717   3.611   2.769  10.630
 1434TIP3    H225718   3.744   2.810  10.690
 1435TIP3   OH225719   3.699   3.092  11.118
 1435TIP3    H125720   3.749   3.024  11.073
 1435TIP3    H225721   3.731   3.174  11.079
 1436TIP3   OH225722   3.506   3.373  11.323
 1436TIP3    H125723   3.438   3.422  11.368
 1436TIP3    H225724   3.472   3.359  11.234
 1437TIP3   OH225725   3.642   2.788  10.240
 1437TIP3    H125726   3.616   2.825  10.155
 1437TIP3    H225727   3.651   2.865  10.297
 1438TIP3   OH225728   3.528   2.476  10.013
 1438TIP3    H125729   3.435   2.487   9.992
 1438TIP3    H225730   3.540   2.381  10.018
 1439TIP3   OH225731   3.456   2.678  10.660
 1439TIP3    H125732   3.462   2.592  10.617
 1439TIP3    H225733   3.421   2.659  10.747
 1440TIP3   OH225734   1.952   2.887  11.072
 1440TIP3    H125735   1.963   2.863  10.980
 1440TIP3    H225736   2.031   2.855  11.115
 1441TIP3   OH225737   3.549   2.864  11.627
 1441TIP3    H125738   3.609   2.790  11.617
 1441TIP3    H225739   3.573   2.925  11.557
 1442TIP3   OH225740   3.699   2.631  11.629
 1442TIP3    H125741   3.611   2.594  11.631
 1442TIP3    H225742   3.755   2.559  11.659
 1443TIP3   OH225743   3.473   2.444  10.507
 1443TIP3    H125744   3.475   2.349  10.510
 1443TIP3    H225745   3.534   2.466  10.436
 1444TIP3   OH225746   3.496   2.469  11.048
 1444TIP3    H125747   3.589   2.481  11.029
 1444TIP3    H225748   3.488   2.484  11.142
 1445TIP3   OH225749   3.512   2.565  11.312
 1445TIP3    H125750   3.429   2.596  11.349
 1445TIP3    H225751   3.562   2.645  11.298
 1446TIP3   OH225752   1.942   2.385  11.665
 1446TIP3    H125753   2.028   2.357  11.696
 1446TIP3    H225754   1.888   2.307  11.671
 1447TIP3   OH225755   3.743   1.976  11.825
 1447TIP3    H125756   3.808   1.916  11.788
 1447TIP3    H225757   3.734   2.045  11.759
 1448TIP3   OH225758   3.445   2.172  10.521
 1448TIP3    H125759   3.491   2.113  10.582
 1448TIP3    H225760   3.399   2.113  10.462
 1449TIP3   OH225761   2.038   2.243  10.977
 1449TIP3    H125762   2.078   2.157  10.968
 1449TIP3    H225763   2.111   2.302  10.996
 1450TIP3   OH225764   1.872   2.530  11.041
 1450TIP3    H125765   1.933   2.528  10.966
 1450TIP3    H225766   1.927   2.557  11.115
 1451TIP3   OH225767   3.674   2.161  11.634
 1451TIP3    H125768   3.592   2.210  11.629
 1451TIP3    H225769   3.667   2.096  11.564
 1452TIP3   OH225770   1.905   2.241  10.450
 1452TIP3    H125771   1.816   2.210  10.467
 1452TIP3    H225772   1.948   2.168  10.404
 1453TIP3   OH225773   3.402   3.691  10.676
 1453TIP3    H125774   3.440   3.662  10.593
 1453TIP3    H225775   3.465   3.755  10.710
 1454TIP3   OH225776   1.920   2.013  11.297
 1454TIP3    H125777   1.848   1.999  11.358
 1454TIP3    H225778   1.886   2.077  11.234
 1455TIP3   OH225779   2.128   3.399  11.694
 1455TIP3    H125780   2.036   3.392  11.669
 1455TIP3    H225781   2.133   3.356  11.779
 1456TIP3   OH225782   2.456   3.485  11.335
 1456TIP3    H125783   2.429   3.572  11.306
 1456TIP3    H225784   2.550   3.483  11.320
 1457TIP3   OH225785   2.827   3.603  11.628
 1457TIP3    H125786   2.842   3.569  11.717
 1457TIP3    H225787   2.907   3.652  11.608
 1458TIP3   OH225788   3.062   3.739  11.582
 1458TIP3    H125789   3.119   3.687  11.527
 1458TIP3    H225790   3.116   3.764  11.657
 1459TIP3   OH225791   3.589   1.945  11.466
 1459TIP3    H125792   3.511   1.948  11.411
 1459TIP3    H225793   3.626   1.858  11.451
 1460TIP3   OH225794   2.151   3.786  11.324
 1460TIP3    H125795   2.064   3.818  11.298
 1460TIP3    H225796   2.163   3.818  11.413
 1461TIP3   OH225797   2.414   3.748  11.245
 1461TIP3    H125798   2.327   3.772  11.276
 1461TIP3    H225799   2.429   3.805  11.170
 1462TIP3   OH225800   2.889   3.717  11.153
 1462TIP3    H125801   2.953   3.704  11.083
 1462TIP3    H225802   2.921   3.793  11.201
 1463TIP3   OH225803   3.099   3.607  11.312
 1463TIP3    H125804   3.024   3.633  11.258
 1463TIP3    H225805   3.171   3.662  11.281
 1464TIP3   OH225806   3.335   3.747  11.272
 1464TIP3    H125807   3.354   3.839  11.255
 1464TIP3    H225808   3.376   3.700  11.198
 1465TIP3   OH225809   2.147   3.639  11.066
 1465TIP3    H125810   2.158   3.669  11.156
 1465TIP3    H225811   2.236   3.624  11.034
 1466TIP3   OH225812   2.338   3.493  10.917
 1466TIP3    H125813   2.364   3.420  10.861
 1466TIP3    H225814   2.420   3.524  10.955
 1467TIP3   OH225815   2.589   3.534  11.023
 1467TIP3    H125816   2.603   3.445  10.990
 1467TIP3    H225817   2.630   3.535  11.109
 1468TIP3   OH225818   2.907   2.134  10.880
 1468TIP3    H125819   2.849   2.066  10.914
 1468TIP3    H225820   2.985   2.087  10.850
 1469TIP3   OH225821   3.406   1.979  10.939
 1469TIP3    H125822   3.469   1.989  10.868
 1469TIP3    H225823   3.321   1.983  10.897
 1470TIP3   OH225824   3.581   2.023  10.729
 1470TIP3    H125825   3.649   1.965  10.696
 1470TIP3    H225826   3.626   2.105  10.748
 1471TIP3   OH225827   2.143   1.978  10.656
 1471TIP3    H125828   2.053   1.961  10.631
 1471TIP3    H225829   2.185   1.892  10.654
 1472TIP3   OH225830   2.032   1.991  10.269
 1472TIP3    H125831   2.064   1.922  10.211
 1472TIP3    H225832   1.964   2.035  10.218
 1473TIP3   OH225833   2.562   2.019  10.644
 1473TIP3    H125834   2.649   1.997  10.612
 1473TIP3    H225835   2.556   1.976  10.730
 1474TIP3   OH225836   3.150   1.987  10.825
 1474TIP3    H125837   3.152   1.968  10.731
 1474TIP3    H225838   3.122   1.906  10.865
 1475TIP3   OH225839   3.303   1.985  10.359
 1475TIP3    H125840   3.272   1.974  10.269
 1475TIP3    H225841   3.257   1.918  10.409
 1476TIP3   OH225842   3.585   3.661  10.469
 1476TIP3    H125843   3.589   3.572  10.434
 1476TIP3    H225844   3.575   3.717  10.393
 1477TIP3   OH225845   2.157   2.001  11.623
 1477TIP3    H125846   2.108   1.927  11.659
 1477TIP3    H225847   2.245   1.991  11.660
 1478TIP3   OH225848   2.386   1.959  11.762
 1478TIP3    H125849   2.473   1.929  11.733
 1478TIP3    H225850   2.364   1.900  11.834
 1479TIP3   OH225851   3.220   1.912  11.801
 1479TIP3    H125852   3.211   1.862  11.882
 1479TIP3    H225853   3.312   1.901  11.776
 1480TIP3   OH225854   3.492   3.513  11.688
 1480TIP3    H125855   3.437   3.505  11.609
 1480TIP3    H225856   3.490   3.606  11.709
 1481TIP3   OH225857   4.933   2.916  10.634
 1481TIP3    H125858   4.928   3.006  10.604
 1481TIP3    H225859   4.853   2.903  10.685
 1482TIP3   OH225860   4.854   2.823  11.046
 1482TIP3    H125861   4.881   2.778  11.126
 1482TIP3    H225862   4.802   2.758  10.998
 1483TIP3   OH225863   4.069   2.770  11.183
 1483TIP3    H125864   4.077   2.693  11.239
 1483TIP3    H225865   4.158   2.785  11.150
 1484TIP3   OH225866   5.234   3.129  10.876
 1484TIP3    H125867   5.191   3.057  10.923
 1484TIP3    H225868   5.249   3.195  10.943
 1485TIP3   OH225869   4.197   3.255  11.009
 1485TIP3    H125870   4.169   3.166  10.984
 1485TIP3    H225871   4.293   3.251  11.008
 1486TIP3   OH225872   3.843   2.580  10.532
 1486TIP3    H125873   3.797   2.663  10.543
 1486TIP3    H225874   3.794   2.534  10.464
 1487TIP3   OH225875   3.891   2.799  10.807
 1487TIP3    H125876   3.923   2.709  10.821
 1487TIP3    H225877   3.957   2.839  10.751
 1488TIP3   OH225878   4.961   3.618  10.903
 1488TIP3    H125879   5.008   3.569  10.836
 1488TIP3    H225880   4.887   3.562  10.927
 1489TIP3   OH225881   4.683   3.084  11.055
 1489TIP3    H125882   4.719   3.009  11.007
 1489TIP3    H225883   4.754   3.112  11.112
 1490TIP3   OH225884   5.574   2.213  11.157
 1490TIP3    H125885   5.587   2.287  11.216
 1490TIP3    H225886   5.643   2.222  11.092
 1491TIP3   OH225887   5.010   2.493  11.070
 1491TIP3    H125888   5.034   2.401  11.080
 1491TIP3    H225889   4.991   2.503  10.977
 1492TIP3   OH225890   4.356   2.306  10.794
 1492TIP3    H125891   4.358   2.391  10.749
 1492TIP3    H225892   4.304   2.250  10.736
 1493TIP3   OH225893   5.118   2.340  10.660
 1493TIP3    H125894   5.166   2.307  10.736
 1493TIP3    H225895   5.186   2.371  10.600
 1494TIP3   OH225896   3.988   2.547  10.872
 1494TIP3    H125897   4.057   2.506  10.925
 1494TIP3    H225898   4.005   2.516  10.783
 1495TIP3   OH225899   4.459   2.699  10.860
 1495TIP3    H125900   4.547   2.665  10.878
 1495TIP3    H225901   4.423   2.639  10.794
 1496TIP3   OH225902   5.599   2.382  11.381
 1496TIP3    H125903   5.547   2.456  11.350
 1496TIP3    H225904   5.545   2.340  11.447
 1497TIP3   OH225905   4.206   2.228  11.221
 1497TIP3    H125906   4.186   2.281  11.144
 1497TIP3    H225907   4.132   2.242  11.280
 1498TIP3   OH225908   4.881   3.173  10.548
 1498TIP3    H125909   4.894   3.212  10.461
 1498TIP3    H225910   4.848   3.244  10.602
 1499TIP3   OH225911   4.468   2.997  11.205
 1499TIP3    H125912   4.415   3.069  11.239
 1499TIP3    H225913   4.535   3.040  11.152
 1500TIP3   OH225914   5.249   2.287  10.890
 1500TIP3    H125915   5.254   2.202  10.933
 1500TIP3    H225916   5.300   2.345  10.947
 1501TIP3   OH225917   4.186   2.390  10.998
 1501TIP3    H125918   4.244   2.446  11.049
 1501TIP3    H225919   4.242   2.355  10.928
 1502TIP3   OH225920   4.318   3.202  11.317
 1502TIP3    H125921   4.321   3.295  11.295
 1502TIP3    H225922   4.226   3.186  11.341
 1503TIP3   OH225923   3.879   3.173  10.407
 1503TIP3    H125924   3.896   3.189  10.314
 1503TIP3    H225925   3.913   3.252  10.450
 1504TIP3   OH225926   5.274   3.340  11.076
 1504TIP3    H125927   5.180   3.339  11.098
 1504TIP3    H225928   5.289   3.428  11.042
 1505TIP3   OH225929   5.310   2.135  11.245
 1505TIP3    H125930   5.238   2.170  11.194
 1505TIP3    H225931   5.388   2.155  11.193
 1506TIP3   OH225932   4.570   1.915  10.971
 1506TIP3    H125933   4.541   1.824  10.967
 1506TIP3    H225934   4.492   1.964  10.997
 1507TIP3   OH225935   5.099   3.503  10.694
 1507TIP3    H125936   5.132   3.415  10.673
 1507TIP3    H225937   5.178   3.557  10.701
 1508TIP3   OH225938   5.202   3.262  10.630
 1508TIP3    H125939   5.216   3.207  10.552
 1508TIP3    H225940   5.216   3.203  10.704
 1509TIP3   OH225941   5.382   3.118  11.431
 1509TIP3    H125942   5.366   3.064  11.354
 1509TIP3    H225943   5.393   3.207  11.396
 1510TIP3   OH225944   5.544   2.800  11.265
 1510TIP3    H125945   5.470   2.859  11.249
 1510TIP3    H225946   5.600   2.811  11.189
 1511TIP3   OH225947   5.164   2.845  10.498
 1511TIP3    H125948   5.093   2.866  10.558
 1511TIP3    H225949   5.229   2.800  10.551
 1512TIP3   OH225950   5.150   2.656  11.449
 1512TIP3    H125951   5.139   2.727  11.512
 1512TIP3    H225952   5.086   2.674  11.381
 1513TIP3   OH225953   4.326   2.910  10.724
 1513TIP3    H125954   4.285   2.878  10.644
 1513TIP3    H225955   4.376   2.835  10.756
 1514TIP3   OH225956   4.474   3.263  10.956
 1514TIP3    H125957   4.466   3.267  10.861
 1514TIP3    H225958   4.548   3.204  10.971
 1515TIP3   OH225959   4.325   2.798  11.079
 1515TIP3    H125960   4.373   2.773  11.000
 1515TIP3    H225961   4.378   2.867  11.119
 1516TIP3   OH225962   5.019   3.348  11.166
 1516TIP3    H125963   4.987   3.412  11.229
 1516TIP3    H225964   4.971   3.268  11.187
 1517TIP3   OH225965   4.473   3.230  11.543
 1517TIP3    H125966   4.411   3.290  11.583
 1517TIP3    H225967   4.430   3.202  11.462
 1518TIP3   OH225968   5.055   2.783  10.246
 1518TIP3    H125969   5.103   2.800  10.327
 1518TIP3    H225970   5.111   2.818  10.177
 1519TIP3   OH225971   4.133   2.802  11.523
 1519TIP3    H125972   4.146   2.891  11.556
 1519TIP3    H225973   4.045   2.803  11.485
 1520TIP3   OH225974   4.826   3.434  10.648
 1520TIP3    H125975   4.918   3.462  10.656
 1520TIP3    H225976   4.789   3.492  10.581
 1521TIP3   OH225977   4.275   3.412  11.610
 1521TIP3    H125978   4.279   3.440  11.519
 1521TIP3    H225979   4.182   3.402  11.628
 1522TIP3   OH225980   4.203   2.823  10.496
 1522TIP3    H125981   4.189   2.898  10.439
 1522TIP3    H225982   4.166   2.749  10.448
 1523TIP3   OH225983   5.535   3.389  10.080
 1523TIP3    H125984   5.583   3.448  10.023
 1523TIP3    H225985   5.603   3.333  10.119
 1524TIP3   OH225986   3.839   3.059  11.363
 1524TIP3    H125987   3.791   3.068  11.280
 1524TIP3    H225988   3.853   2.965  11.372
 1525TIP3   OH225989   3.841   3.324  11.040
 1525TIP3    H125990   3.933   3.304  11.020
 1525TIP3    H225991   3.846   3.388  11.111
 1526TIP3   OH225992   5.635   3.427  11.636
 1526TIP3    H125993   5.626   3.333  11.621
 1526TIP3    H225994   5.548   3.455  11.666
 1527TIP3   OH225995   4.713   3.354  11.493
 1527TIP3    H125996   4.707   3.438  11.537
 1527TIP3    H225997   4.628   3.313  11.509
 1528TIP3   OH225998   4.803   3.690  10.467
 1528TIP3    H125999   4.785   3.676  10.374
 1528TIP3    H226000   4.758   3.772  10.488
 1529TIP3   OH226001   4.123   3.594  10.655
 1529TIP3    H126002   4.135   3.550  10.739
 1529TIP3    H226003   4.062   3.538  10.607
 1530TIP3   OH226004   5.093   3.664  10.172
 1530TIP3    H126005   5.152   3.606  10.123
 1530TIP3    H226006   5.106   3.640  10.263
 1531TIP3   OH226007   5.072   3.643  10.450
 1531TIP3    H126008   4.977   3.656  10.452
 1531TIP3    H226009   5.090   3.579  10.518
 1532TIP3   OH226010   5.332   2.533  11.643
 1532TIP3    H126011   5.273   2.571  11.577
 1532TIP3    H226012   5.337   2.441  11.619
 1533TIP3   OH226013   4.063   3.206  11.427
 1533TIP3    H126014   4.089   3.165  11.509
 1533TIP3    H226015   3.985   3.158  11.399
 1534TIP3   OH226016   4.321   2.027  11.056
 1534TIP3    H126017   4.247   2.015  10.996
 1534TIP3    H226018   4.295   2.100  11.112
 1535TIP3   OH226019   4.792   2.004  11.399
 1535TIP3    H126020   4.836   1.951  11.465
 1535TIP3    H226021   4.699   1.992  11.416
 1536TIP3   OH226022   5.096   2.381  11.488
 1536TIP3    H126023   5.033   2.374  11.559
 1536TIP3    H226024   5.096   2.474  11.465
 1537TIP3   OH226025   5.200   2.882  10.020
 1537TIP3    H126026   5.188   2.831   9.940
 1537TIP3    H226027   5.268   2.946   9.998
 1538TIP3   OH226028   4.334   2.541  11.181
 1538TIP3    H126029   4.265   2.540  11.248
 1538TIP3    H226030   4.336   2.632  11.150
 1539TIP3   OH226031   4.333   2.548  10.665
 1539TIP3    H126032   4.239   2.535  10.651
 1539TIP3    H226033   4.371   2.548  10.578
 1540TIP3   OH226034   4.902   2.590  10.530
 1540TIP3    H126035   4.910   2.682  10.504
 1540TIP3    H226036   4.960   2.543  10.471
 1541TIP3   OH226037   4.785   2.600  11.661
 1541TIP3    H126038   4.738   2.524  11.696
 1541TIP3    H226039   4.870   2.598  11.705
 1542TIP3   OH226040   4.970   2.526  10.797
 1542TIP3    H126041   4.935   2.574  10.723
 1542TIP3    H226042   5.014   2.450  10.759
 1543TIP3   OH226043   4.117   2.549  11.351
 1543TIP3    H126044   4.112   2.595  11.435
 1543TIP3    H226045   4.072   2.466  11.366
 1544TIP3   OH226046   3.738   2.242  10.766
 1544TIP3    H126047   3.815   2.257  10.821
 1544TIP3    H226048   3.769   2.255  10.677
 1545TIP3   OH226049   3.916   2.411  10.273
 1545TIP3    H126050   3.955   2.468  10.207
 1545TIP3    H226051   3.824   2.436  10.276
 1546TIP3   OH226052   4.938   2.666  11.265
 1546TIP3    H126053   4.970   2.608  11.196
 1546TIP3    H226054   4.868   2.617  11.307
 1547TIP3   OH226055   4.644   2.276  10.762
 1547TIP3    H126056   4.552   2.278  10.790
 1547TIP3    H226057   4.690   2.235  10.835
 1548TIP3   OH226058   4.072   2.457  10.627
 1548TIP3    H126059   3.996   2.490  10.580
 1548TIP3    H226060   4.082   2.366  10.597
 1549TIP3   OH226061   4.452   2.505  10.420
 1549TIP3    H126062   4.535   2.473  10.455
 1549TIP3    H226063   4.446   2.466  10.333
 1550TIP3   OH226064   5.033   2.215  11.113
 1550TIP3    H126065   4.969   2.229  11.182
 1550TIP3    H226066   4.983   2.176  11.041
 1551TIP3   OH226067   5.378   3.787  11.729
 1551TIP3    H126068   5.402   3.812  11.639
 1551TIP3    H226069   5.455   3.811  11.781
 1552TIP3   OH226070   4.133   3.051  11.661
 1552TIP3    H126071   4.200   3.045  11.730
 1552TIP3    H226072   4.051   3.056  11.709
 1553TIP3   OH226073   4.709   2.592  10.951
 1553TIP3    H126074   4.773   2.542  10.901
 1553TIP3    H226075   4.677   2.531  11.017
 1554TIP3   OH226076   4.189   2.183  10.606
 1554TIP3    H126077   4.124   2.116  10.630
 1554TIP3    H226078   4.226   2.151  10.524
 1555TIP3   OH226079   4.594   2.447  11.168
 1555TIP3    H126080   4.507   2.487  11.176
 1555TIP3    H226081   4.641   2.479  11.246
 1556TIP3   OH226082   5.342   2.976  11.199
 1556TIP3    H126083   5.400   3.028  11.145
 1556TIP3    H226084   5.269   2.952  11.141
 1557TIP3   OH226085   4.801   3.077  11.488
 1557TIP3    H126086   4.808   3.039  11.575
 1557TIP3    H226087   4.765   3.164  11.502
 1558TIP3   OH226088   5.079   2.459  10.362
 1558TIP3    H126089   5.167   2.465  10.399
 1558TIP3    H226090   5.091   2.481  10.270
 1559TIP3   OH226091   4.166   2.994  10.931
 1559TIP3    H126092   4.213   2.979  10.849
 1559TIP3    H226093   4.191   2.920  10.986
 1560TIP3   OH226094   3.860   2.789  11.459
 1560TIP3    H126095   3.828   2.742  11.536
 1560TIP3    H226096   3.796   2.770  11.390
 1561TIP3   OH226097   4.577   2.784  11.685
 1561TIP3    H126098   4.509   2.748  11.628
 1561TIP3    H226099   4.656   2.735  11.662
 1562TIP3   OH226100   4.996   3.344  11.491
 1562TIP3    H126101   4.903   3.344  11.470
 1562TIP3    H226102   4.999   3.355  11.586
 1563TIP3   OH226103   5.609   3.157  11.589
 1563TIP3    H126104   5.516   3.146  11.568
 1563TIP3    H226105   5.655   3.127  11.511
 1564TIP3   OH226106   5.420   3.397  10.341
 1564TIP3    H126107   5.342   3.342  10.333
 1564TIP3    H226108   5.463   3.389  10.255
 1565TIP3   OH226109   5.136   2.897  11.021
 1565TIP3    H126110   5.042   2.885  11.015
 1565TIP3    H226111   5.173   2.822  10.974
 1566TIP3   OH226112   4.415   3.315  10.688
 1566TIP3    H126113   4.436   3.404  10.661
 1566TIP3    H226114   4.335   3.293  10.640
 1567TIP3   OH226115   4.540   3.065  10.630
 1567TIP3    H126116   4.517   3.157  10.642
 1567TIP3    H226117   4.463   3.017  10.661
 1568TIP3   OH226118   4.597   3.498  11.268
 1568TIP3    H126119   4.653   3.572  11.245
 1568TIP3    H226120   4.653   3.440  11.319
 1569TIP3   OH226121   4.397   3.582  10.604
 1569TIP3    H126122   4.304   3.601  10.609
 1569TIP3    H226123   4.440   3.663  10.630
 1570TIP3   OH226124   4.900   3.106  11.233
 1570TIP3    H126125   4.867   3.088  11.321
 1570TIP3    H226126   4.954   3.030  11.211
 1571TIP3   OH226127   5.176   3.246  10.187
 1571TIP3    H126128   5.189   3.181  10.255
 1571TIP3    H226129   5.111   3.207  10.128
 1572TIP3   OH226130   5.209   3.534  11.460
 1572TIP3    H126131   5.127   3.486  11.449
 1572TIP3    H226132   5.201   3.609  11.401
 1573TIP3   OH226133   3.984   2.301  11.387
 1573TIP3    H126134   3.897   2.337  11.375
 1573TIP3    H226135   3.969   2.212  11.420
 1574TIP3   OH226136   5.255   3.090  10.406
 1574TIP3    H126137   5.220   3.005  10.429
 1574TIP3    H226138   5.349   3.076  10.397
 1575TIP3   OH226139   3.985   3.471  11.264
 1575TIP3    H126140   4.019   3.388  11.299
 1575TIP3    H226141   4.015   3.537  11.326
 1576TIP3   OH226142   4.152   3.020  10.315
 1576TIP3    H126143   4.069   3.066  10.303
 1576TIP3    H226144   4.192   3.018  10.228
 1577TIP3   OH226145   4.883   2.259  11.346
 1577TIP3    H126146   4.965   2.266  11.394
 1577TIP3    H226147   4.852   2.170  11.366
 1578TIP3   OH226148   4.973   2.211  10.464
 1578TIP3    H126149   4.984   2.280  10.398
 1578TIP3    H226150   5.016   2.245  10.542
 1579TIP3   OH226151   4.743   3.383  10.301
 1579TIP3    H126152   4.658   3.420  10.324
 1579TIP3    H226153   4.784   3.452  10.248
 1580TIP3   OH226154   4.686   2.403  10.518
 1580TIP3    H126155   4.760   2.464  10.523
 1580TIP3    H226156   4.677   2.370  10.608
 1581TIP3   OH226157   4.757   2.503  11.390
 1581TIP3    H126158   4.760   2.522  11.483
 1581TIP3    H226159   4.792   2.415  11.382
 1582TIP3   OH226160   4.747   2.088  10.577
 1582TIP3    H126161   4.714   2.160  10.630
 1582TIP3    H226162   4.821   2.126  10.529
 1583TIP3   OH226163   4.511   3.516  10.357
 1583TIP3    H126164   4.505   3.592  10.299
 1583TIP3    H226165   4.466   3.544  10.437
 1584TIP3   OH226166   5.346   2.278  11.487
 1584TIP3    H126167   5.256   2.308  11.492
 1584TIP3    H226168   5.350   2.225  11.407
 1585TIP3   OH226169   5.217   2.653  10.896
 1585TIP3    H126170   5.135   2.611  10.871
 1585TIP3    H226171   5.262   2.589  10.950
 1586TIP3   OH226172   4.003   2.585  10.060
 1586TIP3    H126173   4.070   2.653  10.048
 1586TIP3    H226174   3.930   2.612  10.005
 1587TIP3   OH226175   5.340   3.624  11.066
 1587TIP3    H126176   5.324   3.686  10.995
 1587TIP3    H226177   5.435   3.614  11.069
 1588TIP3   OH226178   4.069   2.000  10.938
 1588TIP3    H126179   4.056   1.993  10.843
 1588TIP3    H226180   4.033   1.918  10.973
 1589TIP3   OH226181   3.933   3.451  10.485
 1589TIP3    H126182   3.841   3.449  10.511
 1589TIP3    H226183   3.933   3.491  10.399
 1590TIP3   OH226184   3.916   3.685  11.733
 1590TIP3    H126185   3.986   3.659  11.793
 1590TIP3    H226186   3.889   3.604  11.691
 1591TIP3   OH226187   4.348   3.504  11.858
 1591TIP3    H126188   4.429   3.458  11.877
 1591TIP3    H226189   4.325   3.477  11.769
 1592TIP3   OH226190   4.991   3.374  11.765
 1592TIP3    H126191   4.980   3.290  11.810
 1592TIP3    H226192   5.068   3.413  11.806
 1593TIP3   OH226193   5.267   3.474  10.066
 1593TIP3    H126194   5.223   3.397  10.102
 1593TIP3    H226195   5.360   3.450  10.064
 1594TIP3   OH226196   3.886   3.059  11.794
 1594TIP3    H126197   3.889   2.964  11.785
 1594TIP3    H226198   3.818   3.087  11.732
 1595TIP3   OH226199   4.547   3.058  11.745
 1595TIP3    H126200   4.529   3.102  11.662
 1595TIP3    H226201   4.570   2.969  11.720
 1596TIP3   OH226202   5.120   3.077  11.522
 1596TIP3    H126203   5.208   3.101  11.493
 1596TIP3    H226204   5.066   3.151  11.495
 1597TIP3   OH226205   3.963   2.796  11.767
 1597TIP3    H126206   4.039   2.768  11.715
 1597TIP3    H226207   3.990   2.781  11.857
 1598TIP3   OH226208   4.384   2.670  11.511
 1598TIP3    H126209   4.302   2.719  11.505
 1598TIP3    H226210   4.439   2.706  11.441
 1599TIP3   OH226211   4.896   2.913  11.797
 1599TIP3    H126212   4.967   2.873  11.747
 1599TIP3    H226213   4.863   2.842  11.852
 1600TIP3   OH226214   4.428   2.405  11.571
 1600TIP3    H126215   4.434   2.349  11.494
 1600TIP3    H226216   4.416   2.493  11.536
 1601TIP3   OH226217   4.457   2.250  11.335
 1601TIP3    H126218   4.511   2.293  11.269
 1601TIP3    H226219   4.370   2.245  11.295
 1602TIP3   OH226220   4.564   2.782  11.344
 1602TIP3    H126221   4.659   2.781  11.331
 1602TIP3    H226222   4.535   2.860  11.297
 1603TIP3   OH226223   5.023   2.562  11.817
 1603TIP3    H126224   5.010   2.472  11.786
 1603TIP3    H226225   5.117   2.575  11.813
 1604TIP3   OH226226   5.159   2.850  11.663
 1604TIP3    H126227   5.133   2.930  11.618
 1604TIP3    H226228   5.254   2.847  11.656
 1605TIP3   OH226229   4.262   2.461  11.794
 1605TIP3    H126230   4.182   2.410  11.780
 1605TIP3    H226231   4.308   2.456  11.711
 1606TIP3   OH226232   4.513   1.984  11.403
 1606TIP3    H126233   4.494   2.075  11.380
 1606TIP3    H226234   4.447   1.933  11.357
 1607TIP3   OH226235   4.648   2.373  11.737
 1607TIP3    H126236   4.608   2.345  11.819
 1607TIP3    H226237   4.576   2.376  11.675
 1608TIP3   OH226238   4.927   2.333  11.695
 1608TIP3    H126239   4.833   2.321  11.712
 1608TIP3    H226240   4.969   2.264  11.745
 1609TIP3   OH226241   5.098   2.185  11.855
 1609TIP3    H126242   5.091   2.090  11.841
 1609TIP3    H226243   5.070   2.197  11.946
 1610TIP3   OH226244   4.061   2.263  11.765
 1610TIP3    H126245   4.059   2.190  11.704
 1610TIP3    H226246   4.072   2.223  11.851
 1611TIP3   OH226247   4.502   1.901  11.664
 1611TIP3    H126248   4.558   1.824  11.659
 1611TIP3    H226249   4.498   1.935  11.574
 1612TIP3   OH226250   4.583   2.060  11.874
 1612TIP3    H126251   4.561   2.008  11.796
 1612TIP3    H226252   4.522   2.134  11.871
 1613TIP3   OH226253   4.522   3.734  10.186
 1613TIP3    H126254   4.614   3.746  10.161
 1613TIP3    H226255   4.477   3.720  10.103
 1614TIP3   OH226256   3.962   3.210  10.149
 1614TIP3    H126257   4.042   3.260  10.132
 1614TIP3    H226258   3.929   3.188  10.062
 1615TIP3   OH226259   3.780   3.747  10.644
 1615TIP3    H126260   3.725   3.716  10.572
 1615TIP3    H226261   3.797   3.669  10.697
 1616TIP3   OH226262   3.825   3.541  10.820
 1616TIP3    H126263   3.793   3.457  10.853
 1616TIP3    H226264   3.878   3.576  10.892
 1617TIP3   OH226265   5.611   3.603  11.125
 1617TIP3    H126266   5.615   3.606  11.221
 1617TIP3    H226267   5.694   3.643  11.096
 1618TIP3   OH226268   5.576   3.569  11.402
 1618TIP3    H126269   5.515   3.505  11.365
 1618TIP3    H226270   5.613   3.526  11.479
 1619TIP3   OH226271   5.415   3.173  11.888
 1619TIP3    H126272   5.330   3.181  11.932
 1619TIP3    H226273   5.466   3.246  11.923
 1620TIP3   OH226274   5.528   3.033  10.405
 1620TIP3    H126275   5.590   3.104  10.392
 1620TIP3    H226276   5.555   2.991  10.487
 1621TIP3   OH226277   5.570   2.868  10.628
 1621TIP3    H126278   5.492   2.813  10.617
 1621TIP3    H226279   5.607   2.840  10.713
 1622TIP3   OH226280   5.590   3.090  11.120
 1622TIP3    H126281   5.634   3.027  11.064
 1622TIP3    H226282   5.609   3.175  11.080
 1623TIP3   OH226283   5.393   3.375  11.325
 1623TIP3    H126284   5.321   3.423  11.365
 1623TIP3    H226285   5.364   3.359  11.235
 1624TIP3   OH226286   5.506   2.795  10.259
 1624TIP3    H126287   5.570   2.815  10.190
 1624TIP3    H226288   5.503   2.874  10.312
 1625TIP3   OH226289   5.347   2.694  10.650
 1625TIP3    H126290   5.342   2.609  10.607
 1625TIP3    H226291   5.308   2.679  10.736
 1626TIP3   OH226292   3.836   2.851  11.069
 1626TIP3    H126293   3.849   2.843  10.975
 1626TIP3    H226294   3.922   2.834  11.107
 1627TIP3   OH226295   5.435   2.865  11.625
 1627TIP3    H126296   5.497   2.794  11.613
 1627TIP3    H226297   5.451   2.925  11.552
 1628TIP3   OH226298   5.588   2.634  11.624
 1628TIP3    H126299   5.500   2.597  11.628
 1628TIP3    H226300   5.645   2.563  11.657
 1629TIP3   OH226301   5.334   2.450  10.494
 1629TIP3    H126302   5.354   2.357  10.503
 1629TIP3    H226303   5.396   2.482  10.429
 1630TIP3   OH226304   5.377   2.474  11.051
 1630TIP3    H126305   5.469   2.491  11.030
 1630TIP3    H226306   5.370   2.494  11.145
 1631TIP3   OH226307   5.399   2.570  11.315
 1631TIP3    H126308   5.315   2.600  11.350
 1631TIP3    H226309   5.449   2.650  11.298
 1632TIP3   OH226310   3.825   2.397  11.716
 1632TIP3    H126311   3.912   2.360  11.727
 1632TIP3    H226312   3.770   2.323  11.692
 1633TIP3   OH226313   5.631   1.983  11.834
 1633TIP3    H126314   5.694   1.921  11.796
 1633TIP3    H226315   5.625   2.053  11.769
 1634TIP3   OH226316   5.358   2.184  10.535
 1634TIP3    H126317   5.403   2.133  10.603
 1634TIP3    H226318   5.306   2.119  10.488
 1635TIP3   OH226319   3.937   2.242  10.975
 1635TIP3    H126320   3.976   2.155  10.966
 1635TIP3    H226321   4.011   2.301  10.981
 1636TIP3   OH226322   3.763   2.539  11.043
 1636TIP3    H126323   3.826   2.515  10.975
 1636TIP3    H226324   3.789   2.627  11.071
 1637TIP3   OH226325   5.564   2.170  11.644
 1637TIP3    H126326   5.482   2.212  11.670
 1637TIP3    H226327   5.541   2.115  11.569
 1638TIP3   OH226328   3.814   2.232  10.493
 1638TIP3    H126329   3.767   2.158  10.454
 1638TIP3    H226330   3.865   2.269  10.421
 1639TIP3   OH226331   5.316   3.674  10.693
 1639TIP3    H126332   5.361   3.638  10.617
 1639TIP3    H226333   5.355   3.760  10.706
 1640TIP3   OH226334   3.810   2.036  11.313
 1640TIP3    H126335   3.730   2.006  11.357
 1640TIP3    H226336   3.778   2.092  11.242
 1641TIP3   OH226337   4.014   3.391  11.706
 1641TIP3    H126338   3.927   3.394  11.668
 1641TIP3    H226339   4.003   3.342  11.788
 1642TIP3   OH226340   4.334   3.483  11.345
 1642TIP3    H126341   4.307   3.570  11.318
 1642TIP3    H226342   4.427   3.479  11.324
 1643TIP3   OH226343   4.709   3.598  11.628
 1643TIP3    H126344   4.724   3.568  11.718
 1643TIP3    H226345   4.788   3.647  11.605
 1644TIP3   OH226346   4.941   3.737  11.574
 1644TIP3    H126347   4.997   3.694  11.510
 1644TIP3    H226348   4.999   3.759  11.647
 1645TIP3   OH226349   5.465   1.956  11.466
 1645TIP3    H126350   5.391   1.972  11.408
 1645TIP3    H226351   5.492   1.866  11.447
 1646TIP3   OH226352   4.039   3.773  11.371
 1646TIP3    H126353   3.963   3.815  11.332
 1646TIP3    H226354   4.052   3.819  11.454
 1647TIP3   OH226355   4.296   3.745  11.273
 1647TIP3    H126356   4.204   3.759  11.298
 1647TIP3    H226357   4.304   3.788  11.188
 1648TIP3   OH226358   4.746   3.716  11.185
 1648TIP3    H126359   4.699   3.747  11.108
 1648TIP3    H226360   4.759   3.795  11.239
 1649TIP3   OH226361   4.983   3.611  11.284
 1649TIP3    H126362   4.898   3.639  11.250
 1649TIP3    H226363   5.046   3.638  11.218
 1650TIP3   OH226364   5.259   3.761  11.289
 1650TIP3    H126365   5.250   3.850  11.258
 1650TIP3    H226366   5.284   3.710  11.212
 1651TIP3   OH226367   3.988   3.628  11.034
 1651TIP3    H126368   3.991   3.580  11.117
 1651TIP3    H226369   4.065   3.598  10.986
 1652TIP3   OH226370   4.204   3.513  10.918
 1652TIP3    H126371   4.198   3.421  10.944
 1652TIP3    H226372   4.295   3.537  10.935
 1653TIP3   OH226373   4.476   3.537  11.015
 1653TIP3    H126374   4.483   3.449  10.977
 1653TIP3    H226375   4.506   3.526  11.105
 1654TIP3   OH226376   4.809   2.106  10.924
 1654TIP3    H126377   4.747   2.033  10.934
 1654TIP3    H226378   4.883   2.069  10.876
 1655TIP3   OH226379   5.304   1.981  10.928
 1655TIP3    H126380   5.368   2.004  10.860
 1655TIP3    H226381   5.220   1.982  10.883
 1656TIP3   OH226382   5.503   2.046  10.736
 1656TIP3    H126383   5.526   1.973  10.679
 1656TIP3    H226384   5.586   2.086  10.760
 1657TIP3   OH226385   4.024   1.968  10.669
 1657TIP3    H126386   3.937   1.954  10.633
 1657TIP3    H226387   4.070   1.885  10.652
 1658TIP3   OH226388   3.955   1.972  10.282
 1658TIP3    H126389   4.021   1.986  10.215
 1658TIP3    H226390   3.885   1.925  10.237
 1659TIP3   OH226391   4.536   1.929  10.680
 1659TIP3    H126392   4.601   1.985  10.638
 1659TIP3    H226393   4.555   1.936  10.774
 1660TIP3   OH226394   5.042   1.985  10.815
 1660TIP3    H126395   5.062   1.973  10.723
 1660TIP3    H226396   5.014   1.898  10.846
 1661TIP3   OH226397   5.166   2.005  10.438
 1661TIP3    H126398   5.093   2.067  10.431
 1661TIP3    H226399   5.128   1.920  10.415
 1662TIP3   OH226400   4.575   2.250  10.284
 1662TIP3    H126401   4.580   2.155  10.277
 1662TIP3    H226402   4.627   2.271  10.362
 1663TIP3   OH226403   4.817   3.654  10.186
 1663TIP3    H126404   4.911   3.663  10.172
 1663TIP3    H226405   4.779   3.669  10.099
 1664TIP3   OH226406   5.480   3.627  10.476
 1664TIP3    H126407   5.462   3.544  10.432
 1664TIP3    H226408   5.464   3.694  10.409
 1665TIP3   OH226409   4.049   2.014  11.629
 1665TIP3    H126410   3.994   1.940  11.655
 1665TIP3    H226411   4.132   1.999  11.675
 1666TIP3   OH226412   4.259   1.958  11.802
 1666TIP3    H126413   4.341   1.934  11.759
 1666TIP3    H226414   4.227   1.876  11.841
 1667TIP3   OH226415   5.108   1.913  11.801
 1667TIP3    H126416   5.097   1.865  11.883
 1667TIP3    H226417   5.201   1.903  11.780
 1668TIP3   OH226418   5.376   3.514  11.683
 1668TIP3    H126419   5.319   3.506  11.607
 1668TIP3    H226420   5.372   3.607  11.706
 1669TIP3   OH226421   6.786   2.889  10.592
 1669TIP3    H126422   6.786   2.983  10.573
 1669TIP3    H226423   6.737   2.881  10.674
 1670TIP3   OH226424   6.705   2.828  11.025
 1670TIP3    H126425   6.729   2.789  11.109
 1670TIP3    H226426   6.658   2.758  10.979
 1671TIP3   OH226427   5.967   2.772  11.163
 1671TIP3    H126428   5.967   2.698  11.224
 1671TIP3    H226429   6.059   2.784  11.140
 1672TIP3   OH226430   7.094   3.141  10.877
 1672TIP3    H126431   7.059   3.067  10.925
 1672TIP3    H226432   7.121   3.203  10.945
 1673TIP3   OH226433   6.096   3.257  11.010
 1673TIP3    H126434   6.067   3.170  10.981
 1673TIP3    H226435   6.191   3.250  11.016
 1674TIP3   OH226436   5.788   2.772  10.801
 1674TIP3    H126437   5.808   2.679  10.805
 1674TIP3    H226438   5.802   2.796  10.710
 1675TIP3   OH226439   6.827   3.611  10.885
 1675TIP3    H126440   6.841   3.545  10.816
 1675TIP3    H226441   6.805   3.560  10.963
 1676TIP3   OH226442   6.574   3.079  11.051
 1676TIP3    H126443   6.606   2.994  11.022
 1676TIP3    H226444   6.643   3.113  11.109
 1677TIP3   OH226445   6.882   2.494  11.068
 1677TIP3    H126446   6.890   2.400  11.081
 1677TIP3    H226447   6.867   2.504  10.974
 1678TIP3   OH226448   6.233   2.308  10.782
 1678TIP3    H126449   6.221   2.385  10.726
 1678TIP3    H226450   6.193   2.236  10.734
 1679TIP3   OH226451   6.983   2.332  10.641
 1679TIP3    H126452   7.022   2.283  10.713
 1679TIP3    H226453   7.051   2.333  10.573
 1680TIP3   OH226454   5.849   2.504  10.836
 1680TIP3    H126455   5.924   2.471  10.885
 1680TIP3    H226456   5.836   2.439  10.767
 1681TIP3   OH226457   6.338   2.694  10.834
 1681TIP3    H126458   6.422   2.658  10.862
 1681TIP3    H226459   6.301   2.627  10.776
 1682TIP3   OH226460   6.083   2.227  11.216
 1682TIP3    H126461   6.058   2.279  11.139
 1682TIP3    H226462   6.011   2.239  11.277
 1683TIP3   OH226463   6.814   3.162  10.557
 1683TIP3    H126464   6.908   3.177  10.548
 1683TIP3    H226465   6.785   3.226  10.621
 1684TIP3   OH226466   6.358   2.997  11.206
 1684TIP3    H126467   6.302   3.067  11.240
 1684TIP3    H226468   6.423   3.043  11.152
 1685TIP3   OH226469   7.084   2.239  10.875
 1685TIP3    H126470   7.016   2.199  10.929
 1685TIP3    H226471   7.140   2.284  10.938
 1686TIP3   OH226472   6.059   2.388  10.987
 1686TIP3    H126473   6.113   2.444  11.042
 1686TIP3    H226474   6.120   2.353  10.921
 1687TIP3   OH226475   6.207   3.202  11.316
 1687TIP3    H126476   6.209   3.296  11.299
 1687TIP3    H226477   6.116   3.184  11.340
 1688TIP3   OH226478   7.158   3.347  11.075
 1688TIP3    H126479   7.064   3.343  11.092
 1688TIP3    H226480   7.176   3.441  11.063
 1689TIP3   OH226481   7.127   2.156  11.200
 1689TIP3    H126482   7.038   2.167  11.167
 1689TIP3    H226483   7.178   2.221  11.151
 1690TIP3   OH226484   6.441   1.928  10.978
 1690TIP3    H126485   6.415   1.836  10.975
 1690TIP3    H226486   6.360   1.975  11.002
 1691TIP3   OH226487   6.930   3.451  10.670
 1691TIP3    H126488   6.976   3.370  10.649
 1691TIP3    H226489   6.999   3.512  10.694
 1692TIP3   OH226490   7.079   3.224  10.613
 1692TIP3    H126491   7.143   3.178  10.559
 1692TIP3    H226492   7.093   3.190  10.702
 1693TIP3   OH226493   7.227   3.114  11.480
 1693TIP3    H126494   7.236   3.057  11.403
 1693TIP3    H226495   7.248   3.202  11.447
 1694TIP3   OH226496   7.037   2.860  10.470
 1694TIP3    H126497   6.952   2.872  10.512
 1694TIP3    H226498   7.080   2.792  10.522
 1695TIP3   OH226499   7.000   2.687  11.404
 1695TIP3    H126500   7.008   2.778  11.433
 1695TIP3    H226501   6.923   2.687  11.347
 1696TIP3   OH226502   6.200   2.887  10.683
 1696TIP3    H126503   6.162   2.840  10.609
 1696TIP3    H226504   6.250   2.821  10.731
 1697TIP3   OH226505   6.373   3.263  10.960
 1697TIP3    H126506   6.356   3.259  10.866
 1697TIP3    H226507   6.443   3.200  10.975
 1698TIP3   OH226508   6.232   2.782  11.083
 1698TIP3    H126509   6.270   2.770  10.995
 1698TIP3    H226510   6.275   2.860  11.117
 1699TIP3   OH226511   6.893   3.353  11.138
 1699TIP3    H126512   6.871   3.423  11.199
 1699TIP3    H226513   6.849   3.276  11.172
 1700TIP3   OH226514   6.359   3.226  11.544
 1700TIP3    H126515   6.298   3.287  11.586
 1700TIP3    H226516   6.315   3.200  11.463
 1701TIP3   OH226517   6.022   2.804  11.513
 1701TIP3    H126518   6.034   2.890  11.553
 1701TIP3    H226519   5.932   2.805  11.480
 1702TIP3   OH226520   6.162   3.410  11.610
 1702TIP3    H126521   6.166   3.439  11.518
 1702TIP3    H226522   6.069   3.400  11.628
 1703TIP3   OH226523   6.063   2.755  10.416
 1703TIP3    H126524   5.970   2.762  10.396
 1703TIP3    H226525   6.092   2.676  10.370
 1704TIP3   OH226526   5.726   3.059  11.363
 1704TIP3    H126527   5.676   3.068  11.282
 1704TIP3    H226528   5.737   2.964  11.373
 1705TIP3   OH226529   5.688   3.343  11.041
 1705TIP3    H126530   5.777   3.350  11.075
 1705TIP3    H226531   5.643   3.421  11.073
 1706TIP3   OH226532   6.600   3.349  11.492
 1706TIP3    H126533   6.593   3.433  11.537
 1706TIP3    H226534   6.515   3.306  11.509
 1707TIP3   OH226535   6.660   3.729  10.430
 1707TIP3    H126536   6.631   3.783  10.356
 1707TIP3    H226537   6.633   3.778  10.507
 1708TIP3   OH226538   6.045   3.610  10.667
 1708TIP3    H126539   6.058   3.577  10.755
 1708TIP3    H226540   5.989   3.545  10.624
 1709TIP3   OH226541   6.920   3.652  10.473
 1709TIP3    H126542   6.828   3.669  10.451
 1709TIP3    H226543   6.917   3.574  10.529
 1710TIP3   OH226544   7.166   2.599  11.662
 1710TIP3    H126545   7.172   2.586  11.568
 1710TIP3    H226546   7.245   2.556  11.697
 1711TIP3   OH226547   5.954   3.200  11.424
 1711TIP3    H126548   5.978   3.161  11.508
 1711TIP3    H226549   5.874   3.154  11.399
 1712TIP3   OH226550   6.186   2.028  11.046
 1712TIP3    H126551   6.115   2.018  10.982
 1712TIP3    H226552   6.156   2.097  11.104
 1713TIP3   OH226553   6.680   2.001  11.399
 1713TIP3    H126554   6.726   1.948  11.465
 1713TIP3    H226555   6.587   1.990  11.420
 1714TIP3   OH226556   7.005   2.392  11.486
 1714TIP3    H126557   6.938   2.379  11.554
 1714TIP3    H226558   6.995   2.484  11.460
 1715TIP3   OH226559   6.215   2.527  11.176
 1715TIP3    H126560   6.146   2.530  11.242
 1715TIP3    H226561   6.225   2.618  11.147
 1716TIP3   OH226562   6.199   2.542  10.636
 1716TIP3    H126563   6.108   2.559  10.612
 1716TIP3    H226564   6.246   2.539  10.552
 1717TIP3   OH226565   6.777   2.610  10.541
 1717TIP3    H126566   6.784   2.705  10.543
 1717TIP3    H226567   6.848   2.582  10.484
 1718TIP3   OH226568   6.672   2.599  11.656
 1718TIP3    H126569   6.627   2.524  11.695
 1718TIP3    H226570   6.759   2.599  11.697
 1719TIP3   OH226571   6.862   2.523  10.796
 1719TIP3    H126572   6.822   2.573  10.725
 1719TIP3    H226573   6.905   2.450  10.753
 1720TIP3   OH226574   6.000   2.553  11.343
 1720TIP3    H126575   5.993   2.603  11.425
 1720TIP3    H226576   5.954   2.471  11.362
 1721TIP3   OH226577   6.348   2.290  10.043
 1721TIP3    H126578   6.282   2.231  10.007
 1721TIP3    H226579   6.369   2.349   9.971
 1722TIP3   OH226580   6.773   2.672  11.242
 1722TIP3    H126581   6.815   2.612  11.180
 1722TIP3    H226582   6.718   2.615  11.296
 1723TIP3   OH226583   6.522   2.302  10.773
 1723TIP3    H126584   6.428   2.300  10.788
 1723TIP3    H226585   6.560   2.252  10.846
 1724TIP3   OH226586   6.321   2.524  10.391
 1724TIP3    H126587   6.403   2.479  10.411
 1724TIP3    H226588   6.286   2.477  10.315
 1725TIP3   OH226589   6.875   2.215  11.093
 1725TIP3    H126590   6.831   2.228  11.177
 1725TIP3    H226591   6.807   2.179  11.036
 1726TIP3   OH226592   7.240   3.800  11.718
 1726TIP3    H126593   7.243   3.858  11.642
 1726TIP3    H226594   7.329   3.769  11.729
 1727TIP3   OH226595   6.023   3.050  11.661
 1727TIP3    H126596   6.088   3.041  11.731
 1727TIP3    H226597   5.939   3.053  11.707
 1728TIP3   OH226598   6.580   2.588  10.940
 1728TIP3    H126599   6.637   2.529  10.892
 1728TIP3    H226600   6.549   2.536  11.015
 1729TIP3   OH226601   6.481   2.451  11.165
 1729TIP3    H126602   6.391   2.483  11.175
 1729TIP3    H226603   6.524   2.474  11.247
 1730TIP3   OH226604   6.466   3.070  10.323
 1730TIP3    H126605   6.411   2.999  10.291
 1730TIP3    H226606   6.447   3.076  10.416
 1731TIP3   OH226607   7.187   2.985  11.221
 1731TIP3    H126608   7.260   2.959  11.166
 1731TIP3    H226609   7.109   2.967  11.168
 1732TIP3   OH226610   6.729   3.085  11.500
 1732TIP3    H126611   6.701   3.037  11.578
 1732TIP3    H226612   6.682   3.168  11.506
 1733TIP3   OH226613   6.987   2.535  10.366
 1733TIP3    H126614   7.056   2.510  10.426
 1733TIP3    H226615   7.025   2.523  10.279
 1734TIP3   OH226616   6.073   2.998  10.915
 1734TIP3    H126617   6.109   2.969  10.831
 1734TIP3    H226618   6.030   2.920  10.951
 1735TIP3   OH226619   5.749   2.788  11.452
 1735TIP3    H126620   5.716   2.741  11.529
 1735TIP3    H226621   5.683   2.771  11.384
 1736TIP3   OH226622   6.464   2.784  11.683
 1736TIP3    H126623   6.396   2.747  11.627
 1736TIP3    H226624   6.543   2.734  11.660
 1737TIP3   OH226625   6.881   3.372  11.488
 1737TIP3    H126626   6.789   3.360  11.467
 1737TIP3    H226627   6.886   3.366  11.583
 1738TIP3   OH226628   6.981   2.920  11.033
 1738TIP3    H126629   6.887   2.904  11.020
 1738TIP3    H226630   7.024   2.845  10.992
 1739TIP3   OH226631   6.275   3.315  10.698
 1739TIP3    H126632   6.300   3.398  10.659
 1739TIP3    H226633   6.179   3.318  10.702
 1740TIP3   OH226634   6.374   3.084  10.583
 1740TIP3    H126635   6.347   3.166  10.624
 1740TIP3    H226636   6.318   3.017  10.624
 1741TIP3   OH226637   6.487   3.504  11.270
 1741TIP3    H126638   6.544   3.578  11.249
 1741TIP3    H226639   6.543   3.446  11.323
 1742TIP3   OH226640   6.308   3.565  10.588
 1742TIP3    H126641   6.216   3.590  10.591
 1742TIP3    H226642   6.356   3.645  10.606
 1743TIP3   OH226643   6.789   3.108  11.228
 1743TIP3    H126644   6.769   3.094  11.320
 1743TIP3    H226645   6.862   3.048  11.210
 1744TIP3   OH226646   7.093   3.541  11.449
 1744TIP3    H126647   7.014   3.487  11.444
 1744TIP3    H226648   7.078   3.610  11.384
 1745TIP3   OH226649   5.871   2.304  11.392
 1745TIP3    H126650   5.781   2.334  11.380
 1745TIP3    H226651   5.863   2.224  11.444
 1746TIP3   OH226652   7.235   3.049  10.459
 1746TIP3    H126653   7.162   2.988  10.469
 1746TIP3    H226654   7.312   2.994  10.458
 1747TIP3   OH226655   5.887   3.447  11.252
 1747TIP3    H126656   5.922   3.361  11.273
 1747TIP3    H226657   5.885   3.493  11.336
 1748TIP3   OH226658   6.780   2.253  11.350
 1748TIP3    H126659   6.857   2.262  11.406
 1748TIP3    H226660   6.745   2.167  11.372
 1749TIP3   OH226661   6.567   2.420  10.517
 1749TIP3    H126662   6.638   2.484  10.526
 1749TIP3    H226663   6.551   2.389  10.606
 1750TIP3   OH226664   6.637   2.491  11.394
 1750TIP3    H126665   6.644   2.519  11.485
 1750TIP3    H226666   6.680   2.406  11.390
 1751TIP3   OH226667   6.633   2.083  10.609
 1751TIP3    H126668   6.639   2.158  10.668
 1751TIP3    H226669   6.597   2.118  10.528
 1752TIP3   OH226670   6.272   2.233  10.290
 1752TIP3    H126671   6.178   2.222  10.276
 1752TIP3    H226672   6.307   2.254  10.204
 1753TIP3   OH226673   7.248   2.242  11.442
 1753TIP3    H126674   7.188   2.300  11.490
 1753TIP3    H226675   7.203   2.225  11.359
 1754TIP3   OH226676   7.077   2.685  10.917
 1754TIP3    H126677   7.007   2.626  10.889
 1754TIP3    H226678   7.130   2.632  10.977
 1755TIP3   OH226679   7.238   3.619  11.070
 1755TIP3    H126680   7.221   3.686  11.004
 1755TIP3    H226681   7.333   3.607  11.069
 1756TIP3   OH226682   5.950   2.009  10.896
 1756TIP3    H126683   5.935   2.013  10.801
 1756TIP3    H226684   5.909   1.927  10.923
 1757TIP3   OH226685   5.891   3.402  10.586
 1757TIP3    H126686   5.802   3.419  10.618
 1757TIP3    H226687   5.878   3.353  10.505
 1758TIP3   OH226688   5.807   3.687  11.723
 1758TIP3    H126689   5.874   3.660  11.786
 1758TIP3    H226690   5.773   3.605  11.688
 1759TIP3   OH226691   6.232   3.507  11.857
 1759TIP3    H126692   6.313   3.459  11.878
 1759TIP3    H226693   6.210   3.478  11.768
 1760TIP3   OH226694   6.878   3.376  11.764
 1760TIP3    H126695   6.857   3.292  11.805
 1760TIP3    H226696   6.956   3.406  11.811
 1761TIP3   OH226697   5.774   3.063  11.792
 1761TIP3    H126698   5.778   2.968  11.785
 1761TIP3    H226699   5.705   3.089  11.730
 1762TIP3   OH226700   6.436   3.057  11.747
 1762TIP3    H126701   6.415   3.100  11.664
 1762TIP3    H226702   6.456   2.967  11.722
 1763TIP3   OH226703   6.988   2.966  11.490
 1763TIP3    H126704   7.060   3.028  11.483
 1763TIP3    H226705   6.909   3.020  11.492
 1764TIP3   OH226706   5.853   2.800  11.768
 1764TIP3    H126707   5.925   2.756  11.723
 1764TIP3    H226708   5.867   2.782  11.861
 1765TIP3   OH226709   6.301   2.862  10.229
 1765TIP3    H126710   6.258   2.800  10.288
 1765TIP3    H226711   6.299   2.819  10.144
 1766TIP3   OH226712   6.273   2.671  11.506
 1766TIP3    H126713   6.190   2.720  11.498
 1766TIP3    H226714   6.329   2.708  11.437
 1767TIP3   OH226715   6.782   2.912  11.799
 1767TIP3    H126716   6.869   2.884  11.771
 1767TIP3    H226717   6.749   2.839  11.851
 1768TIP3   OH226718   6.316   2.407  11.569
 1768TIP3    H126719   6.318   2.350  11.492
 1768TIP3    H226720   6.303   2.495  11.534
 1769TIP3   OH226721   6.335   2.249  11.330
 1769TIP3    H126722   6.388   2.292  11.263
 1769TIP3    H226723   6.247   2.244  11.292
 1770TIP3   OH226724   6.459   2.780  11.341
 1770TIP3    H126725   6.553   2.778  11.320
 1770TIP3    H226726   6.426   2.857  11.295
 1771TIP3   OH226727   6.915   2.555  11.803
 1771TIP3    H126728   6.905   2.462  11.780
 1771TIP3    H226729   7.001   2.578  11.769
 1772TIP3   OH226730   7.044   2.839  11.725
 1772TIP3    H126731   7.031   2.885  11.642
 1772TIP3    H226732   7.091   2.759  11.701
 1773TIP3   OH226733   6.149   2.465  11.793
 1773TIP3    H126734   6.070   2.412  11.781
 1773TIP3    H226735   6.195   2.457  11.710
 1774TIP3   OH226736   6.399   1.985  11.399
 1774TIP3    H126737   6.378   2.076  11.379
 1774TIP3    H226738   6.331   1.934  11.354
 1775TIP3   OH226739   6.538   2.372  11.733
 1775TIP3    H126740   6.499   2.345  11.816
 1775TIP3    H226741   6.464   2.377  11.672
 1776TIP3   OH226742   6.811   2.325  11.671
 1776TIP3    H126743   6.718   2.321  11.693
 1776TIP3    H226744   6.853   2.262  11.730
 1777TIP3   OH226745   6.973   2.194  11.854
 1777TIP3    H126746   6.965   2.099  11.844
 1777TIP3    H226747   6.944   2.212  11.943
 1778TIP3   OH226748   5.950   2.268  11.762
 1778TIP3    H126749   5.947   2.192  11.704
 1778TIP3    H226750   5.960   2.231  11.850
 1779TIP3   OH226751   6.390   1.901  11.662
 1779TIP3    H126752   6.447   1.825  11.656
 1779TIP3    H226753   6.385   1.935  11.572
 1780TIP3   OH226754   6.469   2.060  11.873
 1780TIP3    H126755   6.445   2.007  11.797
 1780TIP3    H226756   6.409   2.135  11.870
 1781TIP3   OH226757   5.669   3.742  10.640
 1781TIP3    H126758   5.614   3.705  10.570
 1781TIP3    H226759   5.688   3.667  10.697
 1782TIP3   OH226760   5.723   3.538  10.816
 1782TIP3    H126761   5.682   3.457  10.848
 1782TIP3    H226762   5.774   3.569  10.890
 1783TIP3   OH226763   7.270   3.356  11.342
 1783TIP3    H126764   7.210   3.420  11.378
 1783TIP3    H226765   7.236   3.338  11.254
 1784TIP3   OH226766   7.148   2.682  10.643
 1784TIP3    H126767   7.218   2.618  10.634
 1784TIP3    H226768   7.141   2.697  10.737
 1785TIP3   OH226769   5.724   2.838  11.059
 1785TIP3    H126770   5.740   2.828  10.965
 1785TIP3    H226771   5.810   2.825  11.099
 1786TIP3   OH226772   7.221   2.420  10.473
 1786TIP3    H126773   7.269   2.370  10.540
 1786TIP3    H226774   7.267   2.400  10.392
 1787TIP3   OH226775   7.262   2.347  11.056
 1787TIP3    H126776   7.339   2.315  11.011
 1787TIP3    H226777   7.280   2.440  11.073
 1788TIP3   OH226778   7.258   2.596  11.364
 1788TIP3    H126779   7.167   2.624  11.357
 1788TIP3    H226780   7.288   2.589  11.273
 1789TIP3   OH226781   5.717   2.405  11.718
 1789TIP3    H126782   5.804   2.367  11.729
 1789TIP3    H226783   5.661   2.331  11.696
 1790TIP3   OH226784   7.164   2.094  10.536
 1790TIP3    H126785   7.221   2.154  10.584
 1790TIP3    H226786   7.210   2.010  10.539
 1791TIP3   OH226787   5.816   2.224  11.018
 1791TIP3    H126788   5.851   2.148  10.972
 1791TIP3    H226789   5.878   2.294  11.000
 1792TIP3   OH226790   5.643   2.550  11.028
 1792TIP3    H126791   5.705   2.520  10.961
 1792TIP3    H226792   5.669   2.640  11.047
 1793TIP3   OH226793   7.137   3.613  10.731
 1793TIP3    H126794   7.220   3.569  10.748
 1793TIP3    H226795   7.139   3.691  10.787
 1794TIP3   OH226796   5.695   2.012  11.307
 1794TIP3    H126797   5.618   1.997  11.362
 1794TIP3    H226798   5.664   2.074  11.241
 1795TIP3   OH226799   5.900   3.390  11.704
 1795TIP3    H126800   5.811   3.393  11.671
 1795TIP3    H226801   5.894   3.336  11.783
 1796TIP3   OH226802   6.223   3.482  11.345
 1796TIP3    H126803   6.192   3.568  11.317
 1796TIP3    H226804   6.317   3.483  11.325
 1797TIP3   OH226805   6.596   3.595  11.625
 1797TIP3    H126806   6.610   3.565  11.715
 1797TIP3    H226807   6.676   3.643  11.603
 1798TIP3   OH226808   6.831   3.733  11.580
 1798TIP3    H126809   6.894   3.677  11.536
 1798TIP3    H226810   6.877   3.763  11.659
 1799TIP3   OH226811   5.924   3.807  11.353
 1799TIP3    H126812   5.838   3.838  11.323
 1799TIP3    H226813   5.927   3.834  11.445
 1800TIP3   OH226814   6.180   3.746  11.272
 1800TIP3    H126815   6.088   3.763  11.296
 1800TIP3    H226816   6.190   3.785  11.185
 1801TIP3   OH226817   6.631   3.727  11.184
 1801TIP3    H126818   6.577   3.760  11.112
 1801TIP3    H226819   6.643   3.802  11.241
 1802TIP3   OH226820   6.851   3.593  11.268
 1802TIP3    H126821   6.773   3.638  11.236
 1802TIP3    H226822   6.922   3.655  11.256
 1803TIP3   OH226823   7.077   3.746  11.255
 1803TIP3    H126824   7.095   3.839  11.240
 1803TIP3    H226825   7.136   3.701  11.195
 1804TIP3   OH226826   5.883   3.626  11.039
 1804TIP3    H126827   5.886   3.574  11.119
 1804TIP3    H226828   5.959   3.597  10.989
 1805TIP3   OH226829   6.101   3.516  10.922
 1805TIP3    H126830   6.087   3.425  10.948
 1805TIP3    H226831   6.191   3.535  10.949
 1806TIP3   OH226832   6.366   3.535  11.018
 1806TIP3    H126833   6.374   3.445  10.986
 1806TIP3    H226834   6.398   3.530  11.109
 1807TIP3   OH226835   6.673   2.106  10.927
 1807TIP3    H126836   6.607   2.038  10.941
 1807TIP3    H226837   6.745   2.061  10.883
 1808TIP3   OH226838   7.193   1.977  10.915
 1808TIP3    H126839   7.211   2.062  10.877
 1808TIP3    H226840   7.106   1.954  10.882
 1809TIP3   OH226841   6.420   1.937  10.697
 1809TIP3    H126842   6.490   1.995  10.668
 1809TIP3    H226843   6.424   1.941  10.793
 1810TIP3   OH226844   6.906   1.977  10.836
 1810TIP3    H126845   6.942   1.954  10.751
 1810TIP3    H226846   6.877   1.894  10.873
 1811TIP3   OH226847   5.842   3.558  10.266
 1811TIP3    H126848   5.823   3.465  10.257
 1811TIP3    H226849   5.757   3.599  10.284
 1812TIP3   OH226850   6.527   2.180  10.381
 1812TIP3    H126851   6.440   2.182  10.342
 1812TIP3    H226852   6.544   2.270  10.407
 1813TIP3   OH226853   5.937   2.019  11.624
 1813TIP3    H126854   5.877   1.949  11.652
 1813TIP3    H226855   6.017   2.003  11.673
 1814TIP3   OH226856   6.142   1.957  11.799
 1814TIP3    H126857   6.225   1.930  11.761
 1814TIP3    H226858   6.107   1.877  11.839
 1815TIP3   OH226859   6.057   3.699  10.130
 1815TIP3    H126860   5.985   3.649  10.168
 1815TIP3    H226861   6.093   3.641  10.062
 1816TIP3   OH226862   6.979   1.920  11.814
 1816TIP3    H126863   6.971   1.867  11.893
 1816TIP3    H226864   7.071   1.910  11.788
 1817TIP3   OH226865   7.216   3.515  11.696
 1817TIP3    H126866   7.181   3.504  11.608
 1817TIP3    H226867   7.225   3.610  11.707
 1818TIP3   OH226868   1.189   4.778  10.656
 1818TIP3    H126869   1.167   4.870  10.670
 1818TIP3    H226870   1.136   4.751  10.582
 1819TIP3   OH226871   1.082   4.715  11.047
 1819TIP3    H126872   1.104   4.675  11.131
 1819TIP3    H226873   1.033   4.648  11.000
 1820TIP3   OH226874   0.310   4.655  11.170
 1820TIP3    H126875   0.309   4.574  11.222
 1820TIP3    H226876   0.366   4.715  11.219
 1821TIP3   OH226877   1.464   5.016  10.868
 1821TIP3    H126878   1.420   4.947  10.917
 1821TIP3    H226879   1.481   5.085  10.933
 1822TIP3   OH226880   0.417   5.126  10.987
 1822TIP3    H126881   0.394   5.034  10.970
 1822TIP3    H226882   0.510   5.123  11.012
 1823TIP3   OH226883   0.143   4.490  10.566
 1823TIP3    H126884   0.103   4.569  10.602
 1823TIP3    H226885   0.069   4.440  10.531
 1824TIP3   OH226886   0.142   4.697  10.812
 1824TIP3    H126887   0.170   4.607  10.828
 1824TIP3    H226888   0.222   4.744  10.790
 1825TIP3   OH226889   1.168   5.505  10.886
 1825TIP3    H126890   1.221   5.448  10.831
 1825TIP3    H226891   1.156   5.456  10.968
 1826TIP3   OH226892   0.917   4.968  11.061
 1826TIP3    H126893   0.958   4.893  11.018
 1826TIP3    H226894   0.983   5.000  11.122
 1827TIP3   OH226895   1.803   4.116  11.155
 1827TIP3    H126896   1.814   4.185  11.220
 1827TIP3    H226897   1.857   4.144  11.080
 1828TIP3   OH226898   1.237   4.383  11.067
 1828TIP3    H126899   1.259   4.290  11.074
 1828TIP3    H226900   1.221   4.397  10.974
 1829TIP3   OH226901   0.559   4.222  10.801
 1829TIP3    H126902   0.559   4.301  10.747
 1829TIP3    H226903   0.537   4.151  10.741
 1830TIP3   OH226904   1.354   4.232  10.651
 1830TIP3    H126905   1.398   4.201  10.730
 1830TIP3    H226906   1.424   4.273  10.599
 1831TIP3   OH226907   0.195   4.431  10.881
 1831TIP3    H126908   0.272   4.390  10.922
 1831TIP3    H226909   0.170   4.370  10.812
 1832TIP3   OH226910   0.720   4.591  10.827
 1832TIP3    H126911   0.803   4.561  10.864
 1832TIP3    H226912   0.690   4.518  10.772
 1833TIP3   OH226913   1.817   4.275  11.389
 1833TIP3    H126914   1.767   4.350  11.357
 1833TIP3    H226915   1.753   4.223  11.438
 1834TIP3   OH226916   0.437   4.117  11.233
 1834TIP3    H126917   0.413   4.181  11.166
 1834TIP3    H226918   0.366   4.122  11.297
 1835TIP3   OH226919   1.093   5.032  10.591
 1835TIP3    H126920   1.102   5.024  10.496
 1835TIP3    H226921   1.087   5.127  10.606
 1836TIP3   OH226922   0.698   4.886  11.209
 1836TIP3    H126923   0.644   4.957  11.244
 1836TIP3    H226924   0.768   4.931  11.161
 1837TIP3   OH226925   1.471   4.177  10.889
 1837TIP3    H126926   1.409   4.145  10.954
 1837TIP3    H226927   1.527   4.238  10.937
 1838TIP3   OH226928   0.402   4.288  11.013
 1838TIP3    H126929   0.455   4.347  11.066
 1838TIP3    H226930   0.460   4.258  10.943
 1839TIP3   OH226931   0.547   5.093  11.315
 1839TIP3    H126932   0.557   5.188  11.306
 1839TIP3    H226933   0.458   5.082  11.348
 1840TIP3   OH226934   0.130   5.030  10.368
 1840TIP3    H126935   0.124   5.067  10.280
 1840TIP3    H226936   0.153   5.104  10.424
 1841TIP3   OH226937   1.498   5.218  11.072
 1841TIP3    H126938   1.404   5.220  11.089
 1841TIP3    H226939   1.519   5.308  11.046
 1842TIP3   OH226940   1.537   4.016  11.215
 1842TIP3    H126941   1.467   4.056  11.164
 1842TIP3    H226942   1.618   4.047  11.174
 1843TIP3   OH226943   0.790   3.805  10.958
 1843TIP3    H126944   0.765   3.713  10.966
 1843TIP3    H226945   0.715   3.853  10.994
 1844TIP3   OH226946   1.316   5.369  10.701
 1844TIP3    H126947   1.356   5.285  10.679
 1844TIP3    H226948   1.382   5.435  10.679
 1845TIP3   OH226949   1.419   5.135  10.618
 1845TIP3    H126950   1.451   5.085  10.543
 1845TIP3    H226951   1.441   5.081  10.694
 1846TIP3   OH226952   1.606   5.003  11.431
 1846TIP3    H126953   1.594   4.950  11.352
 1846TIP3    H226954   1.616   5.092  11.399
 1847TIP3   OH226955   1.070   4.720  10.412
 1847TIP3    H126956   1.002   4.772  10.369
 1847TIP3    H226957   1.139   4.712  10.346
 1848TIP3   OH226958   1.080   4.521  10.148
 1848TIP3    H126959   1.156   4.564  10.188
 1848TIP3    H226960   1.100   4.518  10.055
 1849TIP3   OH226961   1.776   4.684  11.235
 1849TIP3    H126962   1.700   4.743  11.229
 1849TIP3    H226963   1.833   4.712  11.164
 1850TIP3   OH226964   1.415   4.747  10.498
 1850TIP3    H126965   1.345   4.759  10.562
 1850TIP3    H226966   1.486   4.704  10.546
 1851TIP3   OH226967   1.376   4.544  11.445
 1851TIP3    H126968   1.368   4.617  11.507
 1851TIP3    H226969   1.309   4.562  11.379
 1852TIP3   OH226970   0.552   4.779  10.708
 1852TIP3    H126971   0.523   4.743  10.624
 1852TIP3    H226972   0.617   4.717  10.741
 1853TIP3   OH226973   0.708   5.143  10.967
 1853TIP3    H126974   0.709   5.146  10.872
 1853TIP3    H226975   0.782   5.088  10.991
 1854TIP3   OH226976   0.596   4.675  11.065
 1854TIP3    H126977   0.649   4.662  10.986
 1854TIP3    H226978   0.637   4.750  11.109
 1855TIP3   OH226979   1.237   5.230  11.143
 1855TIP3    H126980   1.218   5.306  11.198
 1855TIP3    H226981   1.188   5.159  11.184
 1856TIP3   OH226982   0.699   5.116  11.547
 1856TIP3    H126983   0.638   5.176  11.591
 1856TIP3    H226984   0.655   5.092  11.466
 1857TIP3   OH226985   1.297   4.673  10.254
 1857TIP3    H126986   1.349   4.699  10.330
 1857TIP3    H226987   1.359   4.678  10.181
 1858TIP3   OH226988   0.387   4.707  11.491
 1858TIP3    H126989   0.401   4.787  11.542
 1858TIP3    H226990   0.296   4.713  11.462
 1859TIP3   OH226991   1.074   5.314  10.589
 1859TIP3    H126992   1.158   5.335  10.630
 1859TIP3    H226993   1.010   5.367  10.637
 1860TIP3   OH226994   0.498   5.296  11.618
 1860TIP3    H126995   0.510   5.328  11.528
 1860TIP3    H226996   0.404   5.289  11.629
 1861TIP3   OH226997   0.441   4.678  10.458
 1861TIP3    H126998   0.422   4.762  10.415
 1861TIP3    H226999   0.369   4.620  10.431
 1862TIP3   OH227000   1.744   5.314  10.102
 1862TIP3    H127001   1.723   5.404  10.075
 1862TIP3    H227002   1.742   5.264  10.021
 1863TIP3   OH227003   0.185   4.885  11.326
 1863TIP3    H127004   0.146   4.877  11.239
 1863TIP3    H227005   0.139   4.819  11.379
 1864TIP3   OH227006   0.127   5.228  10.946
 1864TIP3    H127007   0.202   5.187  10.988
 1864TIP3    H227008   0.053   5.203  11.002
 1865TIP3   OH227009   1.864   5.310  11.644
 1865TIP3    H127010   1.852   5.215  11.637
 1865TIP3    H227011   1.777   5.343  11.670
 1866TIP3   OH227012   0.941   5.237  11.493
 1866TIP3    H127013   0.947   5.319  11.543
 1866TIP3    H227014   0.855   5.202  11.513
 1867TIP3   OH227015   0.383   5.462  10.654
 1867TIP3    H127016   0.397   5.440  10.745
 1867TIP3    H227017   0.328   5.391  10.620
 1868TIP3   OH227018   1.542   4.420  11.644
 1868TIP3    H127019   1.488   4.461  11.577
 1868TIP3    H227020   1.538   4.327  11.624
 1869TIP3   OH227021   0.306   5.096  11.447
 1869TIP3    H127022   0.330   5.054  11.529
 1869TIP3    H227023   0.251   5.032  11.402
 1870TIP3   OH227024   0.553   3.924  11.059
 1870TIP3    H127025   0.474   3.914  11.005
 1870TIP3    H227026   0.529   3.991  11.123
 1871TIP3   OH227027   1.030   3.885  11.399
 1871TIP3    H127028   1.074   3.835  11.467
 1871TIP3    H227029   0.937   3.877  11.419
 1872TIP3   OH227030   1.334   4.266  11.485
 1872TIP3    H127031   1.265   4.252  11.550
 1872TIP3    H227032   1.327   4.359  11.462
 1873TIP3   OH227033   0.947   4.045  10.092
 1873TIP3    H127034   0.911   4.096  10.165
 1873TIP3    H227035   0.992   3.972  10.135
 1874TIP3   OH227036   0.562   4.432  11.184
 1874TIP3    H127037   0.496   4.441  11.254
 1874TIP3    H227038   0.570   4.521  11.148
 1875TIP3   OH227039   0.565   4.443  10.633
 1875TIP3    H127040   0.486   4.498  10.629
 1875TIP3    H227041   0.608   4.456  10.549
 1876TIP3   OH227042   1.118   4.466  10.515
 1876TIP3    H127043   1.095   4.553  10.484
 1876TIP3    H227044   1.179   4.432  10.450
 1877TIP3   OH227045   1.020   4.479  11.658
 1877TIP3    H127046   0.969   4.407  11.696
 1877TIP3    H227047   1.104   4.476  11.704
 1878TIP3   OH227048   1.204   4.419  10.795
 1878TIP3    H127049   1.166   4.479  10.730
 1878TIP3    H227050   1.242   4.348  10.742
 1879TIP3   OH227051   0.339   4.438  11.352
 1879TIP3    H127052   0.338   4.495  11.429
 1879TIP3    H227053   0.299   4.357  11.382
 1880TIP3   OH227054   0.116   4.187  10.738
 1880TIP3    H127055   0.120   4.155  10.828
 1880TIP3    H227056   0.043   4.141  10.698
 1881TIP3   OH227057   0.087   4.285  10.266
 1881TIP3    H127058   0.127   4.366  10.237
 1881TIP3    H227059   0.034   4.256  10.191
 1882TIP3   OH227060   1.161   4.553  11.266
 1882TIP3    H127061   1.192   4.496  11.195
 1882TIP3    H227062   1.091   4.503  11.308
 1883TIP3   OH227063   0.843   4.202  10.759
 1883TIP3    H127064   0.758   4.200  10.803
 1883TIP3    H227065   0.892   4.130  10.799
 1884TIP3   OH227066   0.316   4.281  10.574
 1884TIP3    H127067   0.268   4.363  10.560
 1884TIP3    H227068   0.258   4.228  10.628
 1885TIP3   OH227069   0.658   4.378  10.379
 1885TIP3    H127070   0.749   4.369  10.409
 1885TIP3    H227071   0.665   4.385  10.284
 1886TIP3   OH227072   1.288   4.101  11.082
 1886TIP3    H127073   1.237   4.108  11.162
 1886TIP3    H227074   1.237   4.042  11.026
 1887TIP3   OH227075   1.622   5.665  11.728
 1887TIP3    H127076   1.643   5.711  11.646
 1887TIP3    H227077   1.690   5.694  11.789
 1888TIP3   OH227078   0.371   4.926  11.667
 1888TIP3    H127079   0.431   4.923  11.742
 1888TIP3    H227080   0.285   4.940  11.705
 1889TIP3   OH227081   0.941   4.480  10.955
 1889TIP3    H127082   1.006   4.427  10.908
 1889TIP3    H227083   0.908   4.422  11.023
 1890TIP3   OH227084   0.520   4.029  10.600
 1890TIP3    H127085   0.442   3.977  10.616
 1890TIP3    H227086   0.593   3.968  10.615
 1891TIP3   OH227087   0.823   4.335  11.174
 1891TIP3    H127088   0.738   4.380  11.181
 1891TIP3    H227089   0.872   4.366  11.250
 1892TIP3   OH227090   0.832   4.983  10.346
 1892TIP3    H127091   0.793   4.903  10.311
 1892TIP3    H227092   0.811   4.980  10.440
 1893TIP3   OH227093   1.575   4.864  11.193
 1893TIP3    H127094   1.629   4.926  11.143
 1893TIP3    H227095   1.500   4.846  11.137
 1894TIP3   OH227096   1.007   4.952  11.496
 1894TIP3    H127097   1.033   4.925  11.585
 1894TIP3    H227098   0.982   5.043  11.506
 1895TIP3   OH227099   1.308   4.358  10.333
 1895TIP3    H127100   1.387   4.397  10.370
 1895TIP3    H227101   1.317   4.371  10.239
 1896TIP3   OH227102   0.401   4.851  10.931
 1896TIP3    H127103   0.455   4.836  10.853
 1896TIP3    H227104   0.428   4.782  10.991
 1897TIP3   OH227105   0.108   4.670  11.480
 1897TIP3    H127106   0.109   4.660  11.575
 1897TIP3    H227107   0.052   4.599  11.449
 1898TIP3   OH227108   0.806   4.661  11.681
 1898TIP3    H127109   0.741   4.625  11.621
 1898TIP3    H227110   0.887   4.614  11.659
 1899TIP3   OH227111   1.222   5.209  11.490
 1899TIP3    H127112   1.129   5.222  11.469
 1899TIP3    H227113   1.229   5.232  11.582
 1900TIP3   OH227114   1.776   4.399  10.345
 1900TIP3    H127115   1.737   4.352  10.272
 1900TIP3    H227116   1.759   4.491  10.326
 1901TIP3   OH227117   1.824   5.032  11.605
 1901TIP3    H127118   1.732   5.038  11.581
 1901TIP3    H227119   1.869   5.016  11.522
 1902TIP3   OH227120   1.667   5.263  10.363
 1902TIP3    H127121   1.620   5.179  10.367
 1902TIP3    H227122   1.690   5.273  10.270
 1903TIP3   OH227123   1.365   4.791  11.020
 1903TIP3    H127124   1.269   4.782  11.018
 1903TIP3    H227125   1.397   4.718  10.968
 1904TIP3   OH227126   0.634   5.217  10.699
 1904TIP3    H127127   0.656   5.300  10.656
 1904TIP3    H227128   0.543   5.228  10.727
 1905TIP3   OH227129   0.204   4.640  10.238
 1905TIP3    H127130   0.253   4.723  10.243
 1905TIP3    H227131   0.127   4.661  10.185
 1906TIP3   OH227132   0.711   4.979  10.588
 1906TIP3    H127133   0.692   5.063  10.630
 1906TIP3    H227134   0.660   4.915  10.639
 1907TIP3   OH227135   0.837   5.391  11.269
 1907TIP3    H127136   0.893   5.465  11.245
 1907TIP3    H227137   0.892   5.339  11.328
 1908TIP3   OH227138   0.647   5.465  10.572
 1908TIP3    H127139   0.555   5.482  10.593
 1908TIP3    H227140   0.693   5.544  10.601
 1909TIP3   OH227141   1.121   4.995  11.249
 1909TIP3    H127142   1.083   4.977  11.334
 1909TIP3    H227143   1.200   4.941  11.245
 1910TIP3   OH227144   1.431   5.419  11.455
 1910TIP3    H127145   1.347   5.377  11.438
 1910TIP3    H227146   1.433   5.494  11.396
 1911TIP3   OH227147   0.235   4.170  11.434
 1911TIP3    H127148   0.141   4.180  11.445
 1911TIP3    H227149   0.258   4.093  11.487
 1912TIP3   OH227150   1.483   4.997  10.385
 1912TIP3    H127151   1.465   4.910  10.421
 1912TIP3    H227152   1.490   4.983  10.291
 1913TIP3   OH227153   0.234   5.390  11.259
 1913TIP3    H127154   0.230   5.311  11.314
 1913TIP3    H227155   0.249   5.461  11.320
 1914TIP3   OH227156   0.352   4.880  10.291
 1914TIP3    H127157   0.275   4.930  10.320
 1914TIP3    H227158   0.384   4.929  10.214
 1915TIP3   OH227159   1.152   4.119  11.318
 1915TIP3    H127160   1.212   4.144  11.388
 1915TIP3    H227161   1.107   4.041  11.351
 1916TIP3   OH227162   1.186   4.131  10.458
 1916TIP3    H127163   1.202   4.200  10.393
 1916TIP3    H227164   1.238   4.157  10.534
 1917TIP3   OH227165   0.887   4.314  10.512
 1917TIP3    H127166   0.969   4.364  10.513
 1917TIP3    H227167   0.879   4.280  10.601
 1918TIP3   OH227168   0.990   4.378  11.395
 1918TIP3    H127169   0.994   4.410  11.485
 1918TIP3    H227170   1.025   4.289  11.400
 1919TIP3   OH227171   0.989   3.958  10.555
 1919TIP3    H127172   0.994   3.979  10.648
 1919TIP3    H227173   1.058   4.010  10.514
 1920TIP3   OH227174   1.578   4.141  11.462
 1920TIP3    H127175   1.492   4.181  11.473
 1920TIP3    H227176   1.569   4.088  11.383
 1921TIP3   OH227177   1.448   4.549  10.888
 1921TIP3    H127178   1.364   4.510  10.864
 1921TIP3    H227179   1.488   4.484  10.946
 1922TIP3   OH227180   1.569   5.489  11.054
 1922TIP3    H127181   1.552   5.556  10.989
 1922TIP3    H227182   1.664   5.492  11.068
 1923TIP3   OH227183   0.305   3.895  10.939
 1923TIP3    H127184   0.303   3.880  10.844
 1923TIP3    H227185   0.275   3.813  10.976
 1924TIP3   OH227186   0.217   5.261  10.546
 1924TIP3    H127187   0.145   5.252  10.609
 1924TIP3    H227188   0.182   5.317  10.477
 1925TIP3   OH227189   0.177   5.580  11.717
 1925TIP3    H127190   0.221   5.567  11.801
 1925TIP3    H227191   0.182   5.495  11.673
 1926TIP3   OH227192   0.557   5.416  11.860
 1926TIP3    H127193   0.649   5.398  11.878
 1926TIP3    H227194   0.540   5.374  11.776
 1927TIP3   OH227195   1.224   5.257  11.760
 1927TIP3    H127196   1.213   5.176  11.808
 1927TIP3    H227197   1.296   5.302  11.803
 1928TIP3   OH227198   0.102   4.942  11.744
 1928TIP3    H127199   0.105   4.847  11.743
 1928TIP3    H227200   0.045   4.965  11.670
 1929TIP3   OH227201   0.517   4.992  10.073
 1929TIP3    H127202   0.543   4.908  10.036
 1929TIP3    H227203   0.544   5.056  10.007
 1930TIP3   OH227204   0.775   4.936  11.742
 1930TIP3    H127205   0.758   4.984  11.661
 1930TIP3    H227206   0.800   4.848  11.713
 1931TIP3   OH227207   1.341   4.956  11.501
 1931TIP3    H127208   1.431   4.980  11.482
 1931TIP3    H227209   1.292   5.038  11.493
 1932TIP3   OH227210   0.184   4.668  11.746
 1932TIP3    H127211   0.275   4.647  11.724
 1932TIP3    H227212   0.184   4.673  11.842
 1933TIP3   OH227213   0.691   4.756  10.274
 1933TIP3    H127214   0.614   4.723  10.321
 1933TIP3    H227215   0.717   4.684  10.218
 1934TIP3   OH227216   0.620   4.554  11.492
 1934TIP3    H127217   0.542   4.610  11.488
 1934TIP3    H227218   0.681   4.593  11.429
 1935TIP3   OH227219   1.118   4.799  11.786
 1935TIP3    H127220   1.190   4.758  11.740
 1935TIP3    H227221   1.085   4.730  11.845
 1936TIP3   OH227222   0.658   4.294  11.569
 1936TIP3    H127223   0.667   4.236  11.493
 1936TIP3    H227224   0.647   4.381  11.531
 1937TIP3   OH227225   0.691   4.134  11.335
 1937TIP3    H127226   0.741   4.185  11.271
 1937TIP3    H227227   0.602   4.132  11.299
 1938TIP3   OH227228   0.812   4.676  11.345
 1938TIP3    H127229   0.901   4.706  11.364
 1938TIP3    H227230   0.772   4.750  11.298
 1939TIP3   OH227231   1.253   4.444  11.816
 1939TIP3    H127232   1.277   4.351  11.813
 1939TIP3    H227233   1.337   4.490  11.813
 1940TIP3   OH227234   1.388   4.738  11.655
 1940TIP3    H127235   1.357   4.816  11.608
 1940TIP3    H227236   1.483   4.741  11.646
 1941TIP3   OH227237   0.494   4.353  11.790
 1941TIP3    H127238   0.415   4.301  11.777
 1941TIP3    H227239   0.543   4.345  11.708
 1942TIP3   OH227240   0.751   3.868  11.398
 1942TIP3    H127241   0.728   3.959  11.377
 1942TIP3    H227242   0.684   3.816  11.353
 1943TIP3   OH227243   0.876   4.258  11.736
 1943TIP3    H127244   0.838   4.232  11.820
 1943TIP3    H227245   0.802   4.264  11.676
 1944TIP3   OH227246   1.139   4.194  11.659
 1944TIP3    H127247   1.049   4.201  11.690
 1944TIP3    H227248   1.185   4.143  11.726
 1945TIP3   OH227249   1.325   4.088  11.847
 1945TIP3    H127250   1.321   3.993  11.835
 1945TIP3    H227251   1.298   4.102  11.938
 1946TIP3   OH227252   0.293   4.160  11.766
 1946TIP3    H127253   0.293   4.085  11.707
 1946TIP3    H227254   0.310   4.123  11.853
 1947TIP3   OH227255   0.744   3.788  11.659
 1947TIP3    H127256   0.800   3.710  11.656
 1947TIP3    H227257   0.740   3.819  11.569
 1948TIP3   OH227258   0.815   3.948  11.874
 1948TIP3    H127259   0.795   3.896  11.796
 1948TIP3    H227260   0.753   4.021  11.871
 1949TIP3   OH227261   0.137   5.095  10.103
 1949TIP3    H127262   0.174   5.157  10.040
 1949TIP3    H227263   0.076   5.042  10.051
 1950TIP3   OH227264   0.046   5.612  10.554
 1950TIP3    H127265  -0.049   5.612  10.545
 1950TIP3    H227266   0.063   5.554  10.629
 1951TIP3   OH227267   0.096   5.441  10.782
 1951TIP3    H127268   0.097   5.355  10.822
 1951TIP3    H227269   0.133   5.499  10.848
 1952TIP3   OH227270   1.835   5.503  11.128
 1952TIP3    H127271   1.828   5.510  11.223
 1952TIP3    H227272   1.899   5.570  11.104
 1953TIP3   OH227273   1.773   5.477  11.403
 1953TIP3    H127274   1.723   5.401  11.373
 1953TIP3    H227275   1.826   5.444  11.476
 1954TIP3   OH227276   1.642   5.057  11.887
 1954TIP3    H127277   1.559   5.067  11.933
 1954TIP3    H227278   1.695   5.131  11.917
 1955TIP3   OH227279   1.870   4.649  10.561
 1955TIP3    H127280   1.778   4.644  10.586
 1955TIP3    H227281   1.914   4.683  10.639
 1956TIP3   OH227282   1.810   5.000  11.114
 1956TIP3    H127283   1.864   4.939  11.062
 1956TIP3    H227284   1.832   5.086  11.079
 1957TIP3   OH227285   1.615   5.257  11.326
 1957TIP3    H127286   1.544   5.307  11.366
 1957TIP3    H227287   1.586   5.243  11.235
 1958TIP3   OH227288   1.594   4.593  10.651
 1958TIP3    H127289   1.581   4.504  10.616
 1958TIP3    H227290   1.551   4.591  10.736
 1959TIP3   OH227291   0.090   4.784  11.073
 1959TIP3    H127292   0.087   4.786  10.977
 1959TIP3    H227293   0.176   4.747  11.094
 1960TIP3   OH227294   1.662   4.757  11.623
 1960TIP3    H127295   1.731   4.691  11.615
 1960TIP3    H227296   1.693   4.831  11.571
 1961TIP3   OH227297   1.794   4.517  11.691
 1961TIP3    H127298   1.708   4.485  11.666
 1961TIP3    H227299   1.802   4.493  11.784
 1962TIP3   OH227300   1.588   4.333  10.534
 1962TIP3    H127301   1.649   4.279  10.585
 1962TIP3    H227302   1.640   4.366  10.461
 1963TIP3   OH227303   1.599   4.362  11.047
 1963TIP3    H127304   1.692   4.376  11.028
 1963TIP3    H227305   1.590   4.385  11.140
 1964TIP3   OH227306   1.624   4.463  11.309
 1964TIP3    H127307   1.542   4.495  11.348
 1964TIP3    H227308   1.671   4.543  11.286
 1965TIP3   OH227309   0.075   4.330  11.749
 1965TIP3    H127310   0.156   4.281  11.734
 1965TIP3    H227311   0.020   4.270  11.799
 1966TIP3   OH227312   1.856   3.877  11.826
 1966TIP3    H127313   1.919   3.811  11.799
 1966TIP3    H227314   1.859   3.943  11.756
 1967TIP3   OH227315   0.176   4.128  11.001
 1967TIP3    H127316   0.215   4.041  10.994
 1967TIP3    H227317   0.251   4.186  11.013
 1968TIP3   OH227318   0.026   4.507  11.092
 1968TIP3    H127319   0.087   4.486  11.021
 1968TIP3    H227320   0.025   4.602  11.095
 1969TIP3   OH227321   1.788   4.079  11.649
 1969TIP3    H127322   1.724   4.112  11.711
 1969TIP3    H227323   1.737   4.052  11.573
 1970TIP3   OH227324   0.162   4.027  10.357
 1970TIP3    H127325   0.095   4.015  10.424
 1970TIP3    H227326   0.151   4.117  10.327
 1971TIP3   OH227327   1.497   5.562  10.637
 1971TIP3    H127328   1.572   5.556  10.577
 1971TIP3    H227329   1.530   5.611  10.712
 1972TIP3   OH227330   0.046   3.913  11.321
 1972TIP3    H127331   0.017   3.976  11.387
 1972TIP3    H227332  -0.013   3.928  11.247
 1973TIP3   OH227333   0.227   5.298  11.696
 1973TIP3    H127334   0.147   5.259  11.661
 1973TIP3    H227335   0.215   5.297  11.790
 1974TIP3   OH227336   0.577   5.365  11.353
 1974TIP3    H127337   0.543   5.450  11.323
 1974TIP3    H227338   0.671   5.370  11.334
 1975TIP3   OH227339   0.965   5.472  11.635
 1975TIP3    H127340   0.973   5.457  11.729
 1975TIP3    H227341   1.039   5.529  11.613
 1976TIP3   OH227342   1.185   5.625  11.579
 1976TIP3    H127343   1.260   5.581  11.537
 1976TIP3    H227344   1.221   5.659  11.661
 1977TIP3   OH227345   1.691   3.822  11.459
 1977TIP3    H127346   1.608   3.820  11.411
 1977TIP3    H227347   1.727   3.734  11.449
 1978TIP3   OH227348   0.272   5.648  11.371
 1978TIP3    H127349   0.192   5.690  11.340
 1978TIP3    H227350   0.296   5.698  11.449
 1979TIP3   OH227351   0.528   5.623  11.268
 1979TIP3    H127352   0.437   5.634  11.295
 1979TIP3    H227353   0.535   5.675  11.187
 1980TIP3   OH227354   0.983   5.607  11.175
 1980TIP3    H127355   0.943   5.648  11.098
 1980TIP3    H227356   0.996   5.680  11.236
 1981TIP3   OH227357   1.208   5.475  11.266
 1981TIP3    H127358   1.130   5.521  11.236
 1981TIP3    H227359   1.279   5.538  11.257
 1982TIP3   OH227360   1.447   5.621  11.265
 1982TIP3    H127361   1.472   5.713  11.254
 1982TIP3    H227362   1.488   5.576  11.190
 1983TIP3   OH227363   0.225   5.523  11.021
 1983TIP3    H127364   0.221   5.483  11.108
 1983TIP3    H227365   0.299   5.480  10.978
 1984TIP3   OH227366   0.441   5.390  10.911
 1984TIP3    H127367   0.422   5.301  10.942
 1984TIP3    H227368   0.524   5.412  10.952
 1985TIP3   OH227369   0.697   5.417  11.025
 1985TIP3    H127370   0.708   5.325  10.999
 1985TIP3    H227371   0.734   5.421  11.113
 1986TIP3   OH227372   0.987   3.974  10.837
 1986TIP3    H127373   0.936   3.912  10.889
 1986TIP3    H227374   1.077   3.943  10.843
 1987TIP3   OH227375   1.528   3.814  10.873
 1987TIP3    H127376   1.593   3.877  10.841
 1987TIP3    H227377   1.445   3.860  10.866
 1988TIP3   OH227378   1.734   3.958  10.755
 1988TIP3    H127379   1.778   3.883  10.715
 1988TIP3    H227380   1.793   4.032  10.739
 1989TIP3   OH227381   0.306   3.858  10.661
 1989TIP3    H127382   0.219   3.852  10.622
 1989TIP3    H227383   0.340   3.769  10.658
 1990TIP3   OH227384   0.253   3.793  10.210
 1990TIP3    H127385   0.174   3.791  10.156
 1990TIP3    H227386   0.242   3.869  10.267
 1991TIP3   OH227387   0.732   3.851  10.667
 1991TIP3    H127388   0.815   3.876  10.627
 1991TIP3    H227389   0.754   3.836  10.759
 1992TIP3   OH227390   1.246   3.874  10.825
 1992TIP3    H127391   1.263   3.854  10.733
 1992TIP3    H227392   1.230   3.789  10.866
 1993TIP3   OH227393   0.110   5.427  10.360
 1993TIP3    H127394   0.033   5.398  10.311
 1993TIP3    H227395   0.077   5.494  10.420
 1994TIP3   OH227396   0.838   4.089  10.360
 1994TIP3    H127397   0.879   4.026  10.419
 1994TIP3    H227398   0.856   4.174  10.399
 1995TIP3   OH227399   1.698   5.527  10.439
 1995TIP3    H127400   1.688   5.434  10.422
 1995TIP3    H227401   1.691   5.569  10.353
 1996TIP3   OH227402   0.296   3.922  11.618
 1996TIP3    H127403   0.244   3.848  11.646
 1996TIP3    H227404   0.381   3.909  11.660
 1997TIP3   OH227405   0.505   3.852  11.783
 1997TIP3    H127406   0.588   3.824  11.745
 1997TIP3    H227407   0.472   3.775  11.828
 1998TIP3   OH227408   1.339   3.812  11.807
 1998TIP3    H127409   1.326   3.763  11.888
 1998TIP3    H227410   1.431   3.799  11.785
 1999TIP3   OH227411   1.603   5.396  11.680
 1999TIP3    H127412   1.541   5.394  11.607
 1999TIP3    H227413   1.606   5.488  11.705
 2000TIP3   OH227414   3.079   4.835  10.709
 2000TIP3    H127415   3.136   4.895  10.759
 2000TIP3    H227416   3.027   4.893  10.654
 2001TIP3   OH227417   2.975   4.726  11.043
 2001TIP3    H127418   2.993   4.673  11.120
 2001TIP3    H227419   2.962   4.662  10.973
 2002TIP3   OH227420   2.177   4.652  11.188
 2002TIP3    H127421   2.194   4.593  11.262
 2002TIP3    H227422   2.264   4.671  11.153
 2003TIP3   OH227423   3.314   5.014  10.859
 2003TIP3    H127424   3.307   4.939  10.918
 2003TIP3    H227425   3.347   5.084  10.915
 2004TIP3   OH227426   2.308   5.128  10.976
 2004TIP3    H127427   2.273   5.041  10.954
 2004TIP3    H227428   2.400   5.113  10.994
 2005TIP3   OH227429   2.031   4.709  10.792
 2005TIP3    H127430   2.058   4.620  10.814
 2005TIP3    H227431   2.108   4.763  10.810
 2006TIP3   OH227432   3.080   5.500  10.878
 2006TIP3    H127433   3.121   5.445  10.811
 2006TIP3    H227434   3.060   5.439  10.950
 2007TIP3   OH227435   2.805   4.954  11.071
 2007TIP3    H127436   2.852   4.879  11.034
 2007TIP3    H227437   2.869   4.996  11.128
 2008TIP3   OH227438   3.691   4.106  11.148
 2008TIP3    H127439   3.708   4.182  11.204
 2008TIP3    H227440   3.751   4.116  11.074
 2009TIP3   OH227441   3.087   4.371  11.063
 2009TIP3    H127442   3.136   4.292  11.084
 2009TIP3    H227443   3.097   4.380  10.968
 2010TIP3   OH227444   2.425   4.152  10.802
 2010TIP3    H127445   2.464   4.236  10.775
 2010TIP3    H227446   2.381   4.121  10.723
 2011TIP3   OH227447   3.236   4.238  10.657
 2011TIP3    H127448   3.283   4.196  10.730
 2011TIP3    H227449   3.305   4.264  10.596
 2012TIP3   OH227450   2.100   4.450  10.869
 2012TIP3    H127451   2.163   4.409  10.928
 2012TIP3    H227452   2.119   4.412  10.783
 2013TIP3   OH227453   2.584   4.571  10.868
 2013TIP3    H127454   2.671   4.533  10.881
 2013TIP3    H227455   2.540   4.509  10.809
 2014TIP3   OH227456   3.729   4.275  11.380
 2014TIP3    H127457   3.656   4.332  11.357
 2014TIP3    H227458   3.746   4.293  11.473
 2015TIP3   OH227459   2.302   4.120  11.234
 2015TIP3    H127460   2.281   4.187  11.169
 2015TIP3    H227461   2.229   4.124  11.296
 2016TIP3   OH227462   2.983   5.038  10.550
 2016TIP3    H127463   3.070   5.059  10.517
 2016TIP3    H227464   2.943   5.123  10.569
 2017TIP3   OH227465   2.585   4.872  11.219
 2017TIP3    H127466   2.536   4.947  11.249
 2017TIP3    H227467   2.658   4.909  11.169
 2018TIP3   OH227468   3.364   4.165  10.889
 2018TIP3    H127469   3.400   4.079  10.912
 2018TIP3    H227470   3.416   4.227  10.940
 2019TIP3   OH227471   2.279   4.283  11.009
 2019TIP3    H127472   2.339   4.341  11.057
 2019TIP3    H227473   2.335   4.241  10.943
 2020TIP3   OH227474   2.434   5.080  11.319
 2020TIP3    H127475   2.438   5.174  11.301
 2020TIP3    H227476   2.345   5.065  11.350
 2021TIP3   OH227477   3.378   5.217  11.069
 2021TIP3    H127478   3.284   5.222  11.086
 2021TIP3    H227479   3.403   5.306  11.046
 2022TIP3   OH227480   3.432   4.014  11.248
 2022TIP3    H127481   3.358   4.055  11.202
 2022TIP3    H227482   3.509   4.038  11.195
 2023TIP3   OH227483   2.680   3.797  10.986
 2023TIP3    H127484   2.642   3.710  10.977
 2023TIP3    H227485   2.751   3.786  11.049
 2024TIP3   OH227486   3.205   5.360  10.670
 2024TIP3    H127487   3.237   5.274  10.642
 2024TIP3    H227488   3.285   5.413  10.676
 2025TIP3   OH227489   3.290   5.105  10.579
 2025TIP3    H127490   3.348   5.071  10.510
 2025TIP3    H227491   3.321   5.062  10.659
 2026TIP3   OH227492   3.495   5.004  11.435
 2026TIP3    H127493   3.486   4.950  11.357
 2026TIP3    H227494   3.505   5.093  11.401
 2027TIP3   OH227495   3.658   4.676  11.266
 2027TIP3    H127496   3.587   4.738  11.253
 2027TIP3    H227497   3.717   4.690  11.192
 2028TIP3   OH227498   3.217   4.680  10.527
 2028TIP3    H127499   3.182   4.742  10.591
 2028TIP3    H227500   3.306   4.662  10.558
 2029TIP3   OH227501   3.259   4.540  11.450
 2029TIP3    H127502   3.253   4.611  11.513
 2029TIP3    H227503   3.198   4.563  11.380
 2030TIP3   OH227504   2.441   4.762  10.708
 2030TIP3    H127505   2.492   4.832  10.667
 2030TIP3    H227506   2.506   4.707  10.751
 2031TIP3   OH227507   2.584   5.105  10.979
 2031TIP3    H127508   2.593   5.133  10.888
 2031TIP3    H227509   2.666   5.061  10.999
 2032TIP3   OH227510   2.437   4.696  11.069
 2032TIP3    H127511   2.493   4.669  10.997
 2032TIP3    H227512   2.490   4.759  11.118
 2033TIP3   OH227513   3.116   5.239  11.143
 2033TIP3    H127514   3.101   5.312  11.202
 2033TIP3    H227515   3.072   5.165  11.184
 2034TIP3   OH227516   2.592   5.109  11.545
 2034TIP3    H127517   2.531   5.169  11.588
 2034TIP3    H227518   2.547   5.083  11.465
 2035TIP3   OH227519   3.195   4.644  10.252
 2035TIP3    H127520   3.208   4.677  10.341
 2035TIP3    H227521   3.219   4.718  10.195
 2036TIP3   OH227522   2.266   4.752  11.466
 2036TIP3    H127523   2.255   4.788  11.554
 2036TIP3    H227524   2.270   4.829  11.410
 2037TIP3   OH227525   2.925   5.307  10.615
 2037TIP3    H127526   3.014   5.326  10.644
 2037TIP3    H227527   2.901   5.381  10.559
 2038TIP3   OH227528   2.395   5.289  11.612
 2038TIP3    H127529   2.396   5.325  11.524
 2038TIP3    H227530   2.303   5.276  11.632
 2039TIP3   OH227531   3.551   3.851  10.263
 2039TIP3    H127532   3.515   3.807  10.186
 2039TIP3    H227533   3.615   3.913  10.228
 2040TIP3   OH227534   1.928   4.963  11.362
 2040TIP3    H127535   1.887   4.993  11.281
 2040TIP3    H227536   1.916   4.868  11.361
 2041TIP3   OH227537   1.921   5.249  11.047
 2041TIP3    H127538   2.008   5.255  11.086
 2041TIP3    H227539   1.877   5.330  11.074
 2042TIP3   OH227540   3.751   5.313  11.633
 2042TIP3    H127541   3.741   5.219  11.617
 2042TIP3    H227542   3.664   5.342  11.660
 2043TIP3   OH227543   2.826   5.241  11.489
 2043TIP3    H127544   2.824   5.325  11.535
 2043TIP3    H227545   2.743   5.199  11.510
 2044TIP3   OH227546   2.904   5.586  10.446
 2044TIP3    H127547   2.897   5.599  10.352
 2044TIP3    H227548   2.879   5.670  10.484
 2045TIP3   OH227549   3.191   5.487  10.165
 2045TIP3    H127550   3.279   5.484  10.127
 2045TIP3    H227551   3.206   5.494  10.259
 2046TIP3   OH227552   3.173   5.527  10.441
 2046TIP3    H127553   3.078   5.544  10.446
 2046TIP3    H227554   3.190   5.466  10.513
 2047TIP3   OH227555   3.437   4.420  11.651
 2047TIP3    H127556   3.381   4.458  11.584
 2047TIP3    H227557   3.447   4.328  11.624
 2048TIP3   OH227558   2.189   5.038  11.430
 2048TIP3    H127559   2.192   5.035  11.526
 2048TIP3    H227560   2.097   5.026  11.408
 2049TIP3   OH227561   2.404   3.950  11.043
 2049TIP3    H127562   2.321   3.932  11.000
 2049TIP3    H227563   2.381   4.009  11.115
 2050TIP3   OH227564   2.922   3.879  11.384
 2050TIP3    H127565   2.966   3.833  11.455
 2050TIP3    H227566   2.828   3.864  11.400
 2051TIP3   OH227567   3.201   4.265  11.469
 2051TIP3    H127568   3.145   4.257  11.547
 2051TIP3    H227569   3.212   4.359  11.457
 2052TIP3   OH227570   3.335   4.839   9.967
 2052TIP3    H127571   3.244   4.863   9.948
 2052TIP3    H227572   3.365   4.905  10.029
 2053TIP3   OH227573   2.437   4.442  11.172
 2053TIP3    H127574   2.438   4.462  11.265
 2053TIP3    H227575   2.442   4.527  11.128
 2054TIP3   OH227576   2.443   4.408  10.690
 2054TIP3    H127577   2.351   4.417  10.668
 2054TIP3    H227578   2.489   4.414  10.606
 2055TIP3   OH227579   3.023   4.488  10.523
 2055TIP3    H127580   3.075   4.567  10.520
 2055TIP3    H227581   3.070   4.426  10.467
 2056TIP3   OH227582   2.911   4.482  11.659
 2056TIP3    H127583   2.862   4.408  11.695
 2056TIP3    H227584   2.996   4.479  11.703
 2057TIP3   OH227585   3.082   4.418  10.789
 2057TIP3    H127586   3.056   4.471  10.714
 2057TIP3    H227587   3.129   4.344  10.750
 2058TIP3   OH227588   2.171   4.431  11.433
 2058TIP3    H127589   2.265   4.445  11.445
 2058TIP3    H227590   2.163   4.337  11.417
 2059TIP3   OH227591   1.968   4.116  10.704
 2059TIP3    H127592   1.976   4.136  10.797
 2059TIP3    H227593   2.028   4.043  10.689
 2060TIP3   OH227594   3.039   4.553  11.258
 2060TIP3    H127595   3.067   4.491  11.191
 2060TIP3    H227596   2.975   4.505  11.309
 2061TIP3   OH227597   2.733   4.156  10.864
 2061TIP3    H127598   2.750   4.250  10.855
 2061TIP3    H227599   2.820   4.116  10.865
 2062TIP3   OH227600   2.163   4.313  10.632
 2062TIP3    H127601   2.076   4.274  10.638
 2062TIP3    H227602   2.219   4.240  10.604
 2063TIP3   OH227603   2.565   4.412  10.441
 2063TIP3    H127604   2.644   4.385  10.487
 2063TIP3    H227605   2.578   4.384  10.351
 2064TIP3   OH227606   3.172   4.108  11.129
 2064TIP3    H127607   3.091   4.110  11.179
 2064TIP3    H227608   3.148   4.065  11.047
 2065TIP3   OH227609   3.494   5.669  11.728
 2065TIP3    H127610   3.512   5.709  11.643
 2065TIP3    H227611   3.567   5.696  11.783
 2066TIP3   OH227612   2.232   4.908  11.691
 2066TIP3    H127613   2.301   4.915  11.757
 2066TIP3    H227614   2.151   4.920  11.740
 2067TIP3   OH227615   2.826   4.427  10.915
 2067TIP3    H127616   2.904   4.427  10.860
 2067TIP3    H227617   2.856   4.391  10.998
 2068TIP3   OH227618   2.302   4.084  10.559
 2068TIP3    H127619   2.259   3.999  10.570
 2068TIP3    H227620   2.361   4.071  10.485
 2069TIP3   OH227621   2.682   4.295  11.205
 2069TIP3    H127622   2.622   4.365  11.178
 2069TIP3    H227623   2.747   4.340  11.260
 2070TIP3   OH227624   3.466   4.862  11.203
 2070TIP3    H127625   3.529   4.914  11.153
 2070TIP3    H227626   3.395   4.844  11.141
 2071TIP3   OH227627   3.088   4.191  10.205
 2071TIP3    H127628   3.152   4.166  10.139
 2071TIP3    H227629   3.128   4.264  10.252
 2072TIP3   OH227630   2.893   4.948  11.498
 2072TIP3    H127631   2.927   4.921  11.584
 2072TIP3    H227632   2.870   5.040  11.510
 2073TIP3   OH227633   3.216   4.385  10.349
 2073TIP3    H127634   3.303   4.373  10.386
 2073TIP3    H227635   3.220   4.470  10.306
 2074TIP3   OH227636   2.259   4.837  10.899
 2074TIP3    H127637   2.314   4.824  10.822
 2074TIP3    H227638   2.308   4.797  10.971
 2075TIP3   OH227639   1.964   4.666  11.436
 2075TIP3    H127640   2.049   4.694  11.402
 2075TIP3    H227641   1.908   4.661  11.358
 2076TIP3   OH227642   2.716   4.677  11.668
 2076TIP3    H127643   2.689   4.684  11.577
 2076TIP3    H227644   2.793   4.620  11.666
 2077TIP3   OH227645   3.106   5.209  11.492
 2077TIP3    H127646   3.014   5.223  11.470
 2077TIP3    H227647   3.112   5.233  11.585
 2078TIP3   OH227648   3.633   4.432  10.320
 2078TIP3    H127649   3.618   4.410  10.228
 2078TIP3    H227650   3.631   4.527  10.322
 2079TIP3   OH227651   3.722   5.038  11.592
 2079TIP3    H127652   3.630   5.034  11.567
 2079TIP3    H227653   3.770   5.011  11.513
 2080TIP3   OH227654   3.261   4.790  11.023
 2080TIP3    H127655   3.165   4.785  11.023
 2080TIP3    H227656   3.289   4.710  10.979
 2081TIP3   OH227657   2.567   5.214  10.727
 2081TIP3    H127658   2.627   5.274  10.682
 2081TIP3    H227659   2.480   5.250  10.708
 2082TIP3   OH227660   2.582   4.973  10.595
 2082TIP3    H127661   2.601   5.019  10.513
 2082TIP3    H227662   2.585   5.041  10.662
 2083TIP3   OH227663   2.715   5.385  11.264
 2083TIP3    H127664   2.770   5.461  11.244
 2083TIP3    H227665   2.768   5.332  11.322
 2084TIP3   OH227666   2.497   5.484  10.635
 2084TIP3    H127667   2.447   5.485  10.717
 2084TIP3    H227668   2.555   5.560  10.643
 2085TIP3   OH227669   3.011   5.000  11.253
 2085TIP3    H127670   2.972   4.977  11.337
 2085TIP3    H227671   3.092   4.949  11.249
 2086TIP3   OH227672   3.319   5.423  11.456
 2086TIP3    H127673   3.235   5.383  11.435
 2086TIP3    H227674   3.325   5.498  11.397
 2087TIP3   OH227675   2.091   4.162  11.407
 2087TIP3    H127676   2.001   4.194  11.406
 2087TIP3    H227677   2.092   4.094  11.475
 2088TIP3   OH227678   2.121   5.386  11.242
 2088TIP3    H127679   2.170   5.320  11.291
 2088TIP3    H227680   2.127   5.465  11.296
 2089TIP3   OH227681   2.564   5.128  10.338
 2089TIP3    H127682   2.656   5.150  10.321
 2089TIP3    H227683   2.517   5.211  10.324
 2090TIP3   OH227684   2.985   4.144  11.340
 2090TIP3    H127685   3.071   4.160  11.381
 2090TIP3    H227686   2.966   4.053  11.361
 2091TIP3   OH227687   3.018   4.153  10.489
 2091TIP3    H127688   3.045   4.146  10.398
 2091TIP3    H227689   3.099   4.166  10.538
 2092TIP3   OH227690   2.817   5.204  10.277
 2092TIP3    H127691   2.817   5.299  10.268
 2092TIP3    H227692   2.876   5.173  10.208
 2093TIP3   OH227693   2.799   4.328  10.546
 2093TIP3    H127694   2.870   4.392  10.543
 2093TIP3    H227695   2.842   4.243  10.533
 2094TIP3   OH227696   2.866   4.390  11.394
 2094TIP3    H127697   2.879   4.411  11.486
 2094TIP3    H227698   2.903   4.302  11.384
 2095TIP3   OH227699   2.823   3.970  10.560
 2095TIP3    H127700   2.901   4.023  10.542
 2095TIP3    H227701   2.806   3.923  10.478
 2096TIP3   OH227702   2.542   5.413  10.351
 2096TIP3    H127703   2.582   5.473  10.287
 2096TIP3    H227704   2.555   5.456  10.435
 2097TIP3   OH227705   2.464   4.042  10.330
 2097TIP3    H127706   2.453   4.051  10.235
 2097TIP3    H227707   2.548   3.998  10.340
 2098TIP3   OH227708   3.454   4.172  11.512
 2098TIP3    H127709   3.361   4.189  11.496
 2098TIP3    H227710   3.488   4.140  11.428
 2099TIP3   OH227711   3.326   4.542  10.905
 2099TIP3    H127712   3.253   4.492  10.868
 2099TIP3    H227713   3.378   4.478  10.953
 2100TIP3   OH227714   3.454   5.484  11.060
 2100TIP3    H127715   3.435   5.558  11.002
 2100TIP3    H227716   3.550   5.485  11.069
 2101TIP3   OH227717   2.159   3.890  10.933
 2101TIP3    H127718   2.150   3.879  10.839
 2101TIP3    H227719   2.132   3.806  10.970
 2102TIP3   OH227720   2.063   5.284  10.541
 2102TIP3    H127721   2.013   5.309  10.619
 2102TIP3    H227722   2.154   5.297  10.566
 2103TIP3   OH227723   2.029   5.568  11.722
 2103TIP3    H127724   2.092   5.544  11.790
 2103TIP3    H227725   1.989   5.486  11.696
 2104TIP3   OH227726   2.449   5.407  11.859
 2104TIP3    H127727   2.537   5.384  11.889
 2104TIP3    H227728   2.441   5.365  11.773
 2105TIP3   OH227729   3.106   5.260  11.763
 2105TIP3    H127730   3.094   5.179  11.812
 2105TIP3    H227731   3.182   5.302  11.804
 2106TIP3   OH227732   1.984   4.935  11.812
 2106TIP3    H127733   1.934   4.864  11.854
 2106TIP3    H227734   1.923   4.971  11.748
 2107TIP3   OH227735   2.667   4.943  11.751
 2107TIP3    H127736   2.650   4.989  11.669
 2107TIP3    H227737   2.697   4.856  11.724
 2108TIP3   OH227738   3.228   4.958  11.500
 2108TIP3    H127739   3.319   4.980  11.481
 2108TIP3    H227740   3.181   5.041  11.492
 2109TIP3   OH227741   2.133   4.564  11.758
 2109TIP3    H127742   2.220   4.526  11.767
 2109TIP3    H227743   2.123   4.619  11.835
 2110TIP3   OH227744   2.440   4.537  11.433
 2110TIP3    H127745   2.381   4.609  11.457
 2110TIP3    H227746   2.526   4.577  11.425
 2111TIP3   OH227747   3.007   4.802  11.784
 2111TIP3    H127748   3.084   4.764  11.742
 2111TIP3    H227749   2.976   4.732  11.843
 2112TIP3   OH227750   2.534   4.301  11.576
 2112TIP3    H127751   2.543   4.229  11.513
 2112TIP3    H227752   2.519   4.378  11.521
 2113TIP3   OH227753   2.549   4.116  11.360
 2113TIP3    H127754   2.606   4.166  11.303
 2113TIP3    H227755   2.464   4.118  11.316
 2114TIP3   OH227756   2.674   4.674  11.391
 2114TIP3    H127757   2.767   4.665  11.372
 2114TIP3    H227758   2.645   4.748  11.338
 2115TIP3   OH227759   3.143   4.449  11.820
 2115TIP3    H127760   3.149   4.357  11.793
 2115TIP3    H227761   3.234   4.479  11.824
 2116TIP3   OH227762   3.271   4.739  11.655
 2116TIP3    H127763   3.244   4.817  11.606
 2116TIP3    H227764   3.367   4.740  11.650
 2117TIP3   OH227765   2.345   4.381  11.769
 2117TIP3    H127766   2.295   4.300  11.778
 2117TIP3    H227767   2.416   4.359  11.709
 2118TIP3   OH227768   2.638   3.857  11.399
 2118TIP3    H127769   2.612   3.948  11.387
 2118TIP3    H227770   2.576   3.807  11.346
 2119TIP3   OH227771   2.766   4.262  11.737
 2119TIP3    H127772   2.740   4.232  11.824
 2119TIP3    H227773   2.684   4.268  11.689
 2120TIP3   OH227774   3.044   4.215  11.685
 2120TIP3    H127775   2.951   4.206  11.706
 2120TIP3    H227776   3.088   4.150  11.740
 2121TIP3   OH227777   3.203   4.070  11.857
 2121TIP3    H127778   3.200   3.975  11.843
 2121TIP3    H227779   3.175   4.081  11.948
 2122TIP3   OH227780   2.195   4.142  11.777
 2122TIP3    H127781   2.212   4.066  11.721
 2122TIP3    H227782   2.203   4.108  11.866
 2123TIP3   OH227783   2.618   3.786  11.663
 2123TIP3    H127784   2.677   3.710  11.665
 2123TIP3    H227785   2.620   3.816  11.572
 2124TIP3   OH227786   2.686   3.952  11.872
 2124TIP3    H127787   2.668   3.897  11.795
 2124TIP3    H227788   2.624   4.024  11.865
 2125TIP3   OH227789   2.651   5.599  10.177
 2125TIP3    H127790   2.745   5.611  10.161
 2125TIP3    H227791   2.613   5.591  10.089
 2126TIP3   OH227792   1.901   5.599  10.619
 2126TIP3    H127793   1.838   5.574  10.551
 2126TIP3    H227794   1.911   5.520  10.673
 2127TIP3   OH227795   1.967   5.390  10.792
 2127TIP3    H127796   1.926   5.323  10.847
 2127TIP3    H227797   2.016   5.444  10.853
 2128TIP3   OH227798   3.723   5.491  11.124
 2128TIP3    H127799   3.723   5.511  11.218
 2128TIP3    H227800   3.798   5.540  11.090
 2129TIP3   OH227801   3.658   5.479  11.404
 2129TIP3    H127802   3.610   5.406  11.366
 2129TIP3    H227803   3.713   5.440  11.472
 2130TIP3   OH227804   3.529   5.047  11.890
 2130TIP3    H127805   3.442   5.062  11.929
 2130TIP3    H227806   3.581   5.122  11.919
 2131TIP3   OH227807   3.717   4.639  10.585
 2131TIP3    H127808   3.623   4.643  10.602
 2131TIP3    H227809   3.757   4.680  10.662
 2132TIP3   OH227810   3.705   4.980  11.119
 2132TIP3    H127811   3.754   4.917  11.066
 2132TIP3    H227812   3.728   5.065  11.082
 2133TIP3   OH227813   3.500   5.257  11.324
 2133TIP3    H127814   3.428   5.308  11.363
 2133TIP3    H227815   3.472   5.242  11.233
 2134TIP3   OH227816   3.593   4.407  10.048
 2134TIP3    H127817   3.675   4.385  10.002
 2134TIP3    H227818   3.532   4.338  10.022
 2135TIP3   OH227819   3.447   4.575  10.648
 2135TIP3    H127820   3.456   4.486  10.614
 2135TIP3    H227821   3.423   4.564  10.739
 2136TIP3   OH227822   1.959   4.759  11.054
 2136TIP3    H127823   1.972   4.753  10.959
 2136TIP3    H227824   2.044   4.735  11.091
 2137TIP3   OH227825   3.547   4.753  11.628
 2137TIP3    H127826   3.609   4.682  11.612
 2137TIP3    H227827   3.572   4.822  11.567
 2138TIP3   OH227828   3.693   4.518  11.622
 2138TIP3    H127829   3.605   4.484  11.634
 2138TIP3    H227830   3.750   4.446  11.648
 2139TIP3   OH227831   3.455   4.325  10.500
 2139TIP3    H127832   3.475   4.232  10.507
 2139TIP3    H227833   3.522   4.359  10.441
 2140TIP3   OH227834   3.488   4.362  11.047
 2140TIP3    H127835   3.580   4.377  11.024
 2140TIP3    H227836   3.484   4.374  11.142
 2141TIP3   OH227837   3.513   4.446  11.318
 2141TIP3    H127838   3.431   4.482  11.353
 2141TIP3    H227839   3.567   4.522  11.298
 2142TIP3   OH227840   1.984   4.279  11.675
 2142TIP3    H127841   2.057   4.233  11.716
 2142TIP3    H227842   1.915   4.214  11.668
 2143TIP3   OH227843   3.741   3.867  11.836
 2143TIP3    H127844   3.806   3.808  11.798
 2143TIP3    H227845   3.730   3.936  11.771
 2144TIP3   OH227846   3.481   4.054  10.525
 2144TIP3    H127847   3.512   3.999  10.597
 2144TIP3    H227848   3.411   4.003  10.484
 2145TIP3   OH227849   2.036   4.136  10.971
 2145TIP3    H127850   2.076   4.049  10.975
 2145TIP3    H227851   2.107   4.196  10.993
 2146TIP3   OH227852   1.869   4.425  11.036
 2146TIP3    H127853   1.938   4.426  10.970
 2146TIP3    H227854   1.879   4.508  11.082
 2147TIP3   OH227855   3.665   4.042  11.641
 2147TIP3    H127856   3.586   4.096  11.635
 2147TIP3    H227857   3.658   3.981  11.568
 2148TIP3   OH227858   3.744   3.997  10.116
 2148TIP3    H127859   3.753   3.911  10.074
 2148TIP3    H227860   3.760   4.060  10.046
 2149TIP3   OH227861   3.411   5.548  10.654
 2149TIP3    H127862   3.426   5.574  10.563
 2149TIP3    H227863   3.456   5.615  10.706
 2150TIP3   OH227864   1.896   3.880  11.265
 2150TIP3    H127865   1.834   3.873  11.338
 2150TIP3    H227866   1.870   3.960  11.219
 2151TIP3   OH227867   2.133   5.249  11.695
 2151TIP3    H127868   2.042   5.270  11.672
 2151TIP3    H227869   2.132   5.239  11.790
 2152TIP3   OH227870   2.449   5.360  11.340
 2152TIP3    H127871   2.421   5.449  11.317
 2152TIP3    H227872   2.543   5.360  11.322
 2153TIP3   OH227873   2.828   5.484  11.623
 2153TIP3    H127874   2.840   5.457  11.714
 2153TIP3    H227875   2.907   5.534  11.602
 2154TIP3   OH227876   3.063   5.622  11.582
 2154TIP3    H127877   3.131   5.580  11.528
 2154TIP3    H227878   3.109   5.650  11.660
 2155TIP3   OH227879   3.581   3.846  11.459
 2155TIP3    H127880   3.515   3.871  11.395
 2155TIP3    H227881   3.604   3.755  11.437
 2156TIP3   OH227882   2.146   5.644  11.363
 2156TIP3    H127883   2.069   5.685  11.324
 2156TIP3    H227884   2.160   5.691  11.445
 2157TIP3   OH227885   2.408   5.623  11.272
 2157TIP3    H127886   2.317   5.639  11.297
 2157TIP3    H227887   2.419   5.674  11.191
 2158TIP3   OH227888   2.866   5.604  11.183
 2158TIP3    H127889   2.824   5.643  11.106
 2158TIP3    H227890   2.880   5.677  11.242
 2159TIP3   OH227891   3.094   5.480  11.279
 2159TIP3    H127892   3.016   5.521  11.242
 2159TIP3    H227893   3.165   5.541  11.259
 2160TIP3   OH227894   3.334   5.625  11.266
 2160TIP3    H127895   3.356   5.717  11.251
 2160TIP3    H227896   3.374   5.579  11.192
 2161TIP3   OH227897   2.121   5.514  10.995
 2161TIP3    H127898   2.116   5.473  11.082
 2161TIP3    H227899   2.201   5.479  10.956
 2162TIP3   OH227900   2.346   5.392  10.896
 2162TIP3    H127901   2.325   5.302  10.921
 2162TIP3    H227902   2.428   5.411  10.942
 2163TIP3   OH227903   2.597   5.425  11.012
 2163TIP3    H127904   2.629   5.344  10.971
 2163TIP3    H227905   2.623   5.418  11.104
 2164TIP3   OH227906   2.950   3.984  10.896
 2164TIP3    H127907   2.893   3.910  10.876
 2164TIP3    H227908   3.033   3.963  10.853
 2165TIP3   OH227909   3.401   3.871  10.940
 2165TIP3    H127910   3.471   3.883  10.876
 2165TIP3    H227911   3.322   3.863  10.887
 2166TIP3   OH227912   3.588   3.913  10.746
 2166TIP3    H127913   3.656   3.855  10.712
 2166TIP3    H227914   3.632   3.997  10.758
 2167TIP3   OH227915   2.126   3.867  10.656
 2167TIP3    H127916   2.037   3.835  10.641
 2167TIP3    H227917   2.180   3.788  10.656
 2168TIP3   OH227918   2.630   3.850  10.701
 2168TIP3    H127919   2.682   3.901  10.639
 2168TIP3    H227920   2.687   3.778  10.728
 2169TIP3   OH227921   3.163   3.841  10.794
 2169TIP3    H127922   3.194   3.832  10.704
 2169TIP3    H227923   3.142   3.751  10.821
 2170TIP3   OH227924   3.264   3.909  10.433
 2170TIP3    H127925   3.288   3.909  10.341
 2170TIP3    H227926   3.222   3.825  10.448
 2171TIP3   OH227927   2.936   5.610  10.161
 2171TIP3    H127928   3.021   5.567  10.171
 2171TIP3    H227929   2.929   5.628  10.067
 2172TIP3   OH227930   2.167   3.897  11.594
 2172TIP3    H127931   2.106   3.834  11.633
 2172TIP3    H227932   2.249   3.884  11.642
 2173TIP3   OH227933   2.366   3.843  11.783
 2173TIP3    H127934   2.452   3.819  11.751
 2173TIP3    H227935   2.334   3.765  11.828
 2174TIP3   OH227936   3.223   3.799  11.806
 2174TIP3    H127937   3.213   3.749  11.887
 2174TIP3    H227938   3.315   3.788  11.782
 2175TIP3   OH227939   3.490   5.398  11.678
 2175TIP3    H127940   3.432   5.393  11.603
 2175TIP3    H227941   3.490   5.491  11.702
 2176TIP3   OH227942   4.942   4.780  10.638
 2176TIP3    H127943   4.941   4.836  10.716
 2176TIP3    H227944   4.852   4.784  10.604
 2177TIP3   OH227945   4.876   4.698  11.033
 2177TIP3    H127946   4.889   4.660  11.120
 2177TIP3    H227947   4.813   4.639  10.991
 2178TIP3   OH227948   4.070   4.656  11.183
 2178TIP3    H127949   4.078   4.578  11.238
 2178TIP3    H227950   4.159   4.671  11.150
 2179TIP3   OH227951   5.202   5.042  10.875
 2179TIP3    H127952   5.178   4.959  10.916
 2179TIP3    H227953   5.235   5.096  10.946
 2180TIP3   OH227954   4.199   5.140  11.011
 2180TIP3    H127955   4.170   5.054  10.983
 2180TIP3    H227956   4.295   5.136  11.005
 2181TIP3   OH227957   3.864   4.427  10.486
 2181TIP3    H127958   3.826   4.507  10.523
 2181TIP3    H227959   3.790   4.383  10.444
 2182TIP3   OH227960   3.900   4.689  10.801
 2182TIP3    H127961   3.931   4.600  10.817
 2182TIP3    H227962   3.969   4.729  10.748
 2183TIP3   OH227963   4.938   5.503  10.870
 2183TIP3    H127964   5.000   5.439  10.836
 2183TIP3    H227965   4.904   5.464  10.951
 2184TIP3   OH227966   4.672   4.977  11.059
 2184TIP3    H127967   4.696   4.930  10.979
 2184TIP3    H227968   4.753   4.986  11.108
 2185TIP3   OH227969   5.588   4.112  11.127
 2185TIP3    H127970   5.557   4.203  11.124
 2185TIP3    H227971   5.657   4.108  11.060
 2186TIP3   OH227972   5.020   4.375  11.084
 2186TIP3    H127973   5.040   4.282  11.089
 2186TIP3    H227974   4.997   4.389  10.992
 2187TIP3   OH227975   4.355   4.192  10.791
 2187TIP3    H127976   4.360   4.278  10.749
 2187TIP3    H227977   4.308   4.138  10.728
 2188TIP3   OH227978   5.122   4.268  10.652
 2188TIP3    H127979   5.162   4.222  10.725
 2188TIP3    H227980   5.192   4.276  10.587
 2189TIP3   OH227981   3.987   4.434  10.876
 2189TIP3    H127982   4.054   4.396  10.932
 2189TIP3    H227983   4.008   4.403  10.788
 2190TIP3   OH227984   4.463   4.584  10.864
 2190TIP3    H127985   4.550   4.549  10.881
 2190TIP3    H227986   4.426   4.526  10.796
 2191TIP3   OH227987   5.556   4.296  11.400
 2191TIP3    H127988   5.500   4.360  11.357
 2191TIP3    H227989   5.497   4.225  11.423
 2192TIP3   OH227990   4.208   4.112  11.219
 2192TIP3    H127991   4.187   4.165  11.141
 2192TIP3    H227992   4.134   4.127  11.278
 2193TIP3   OH227993   4.464   4.882  11.209
 2193TIP3    H127994   4.411   4.954  11.243
 2193TIP3    H227995   4.532   4.925  11.157
 2194TIP3   OH227996   5.241   4.177  10.880
 2194TIP3    H127997   5.256   4.086  10.906
 2194TIP3    H227998   5.298   4.228  10.938
 2195TIP3   OH227999   4.186   4.274  10.997
 2195TIP3    H128000   4.246   4.330  11.046
 2195TIP3    H228001   4.238   4.241  10.924
 2196TIP3   OH228002   4.317   5.089  11.319
 2196TIP3    H128003   4.322   5.181  11.296
 2196TIP3    H228004   4.226   5.075  11.342
 2197TIP3   OH228005   3.932   5.090  10.302
 2197TIP3    H128006   3.837   5.083  10.292
 2197TIP3    H228007   3.944   5.142  10.381
 2198TIP3   OH228008   5.272   5.223  11.078
 2198TIP3    H128009   5.178   5.226  11.097
 2198TIP3    H228010   5.294   5.313  11.054
 2199TIP3   OH228011   5.282   4.030  11.214
 2199TIP3    H128012   5.200   4.054  11.171
 2199TIP3    H228013   5.347   4.029  11.144
 2200TIP3   OH228014   4.573   3.801  10.976
 2200TIP3    H128015   4.542   3.711  10.969
 2200TIP3    H228016   4.494   3.851  11.000
 2201TIP3   OH228017   5.110   5.323  10.761
 2201TIP3    H128018   5.155   5.241  10.783
 2201TIP3    H228019   5.180   5.381  10.729
 2202TIP3   OH228020   5.384   5.000  11.436
 2202TIP3    H128021   5.367   4.950  11.356
 2202TIP3    H228022   5.392   5.091  11.405
 2203TIP3   OH228023   5.544   4.694  11.275
 2203TIP3    H128024   5.473   4.756  11.259
 2203TIP3    H228025   5.600   4.700  11.197
 2204TIP3   OH228026   5.186   4.739  10.508
 2204TIP3    H128027   5.106   4.752  10.559
 2204TIP3    H228028   5.241   4.684  10.563
 2205TIP3   OH228029   5.144   4.551  11.448
 2205TIP3    H128030   5.131   4.622  11.511
 2205TIP3    H228031   5.076   4.564  11.382
 2206TIP3   OH228032   4.333   4.793  10.723
 2206TIP3    H128033   4.303   4.768  10.636
 2206TIP3    H228034   4.380   4.717  10.755
 2207TIP3   OH228035   4.472   5.156  10.956
 2207TIP3    H128036   4.463   5.151  10.860
 2207TIP3    H228037   4.540   5.092  10.977
 2208TIP3   OH228038   4.325   4.682  11.080
 2208TIP3    H128039   4.374   4.658  11.001
 2208TIP3    H228040   4.376   4.753  11.119
 2209TIP3   OH228041   5.013   5.234  11.151
 2209TIP3    H128042   4.985   5.305  11.210
 2209TIP3    H228043   4.962   5.158  11.179
 2210TIP3   OH228044   4.474   5.115  11.543
 2210TIP3    H128045   4.412   5.176  11.584
 2210TIP3    H228046   4.430   5.088  11.462
 2211TIP3   OH228047   4.131   4.685  11.527
 2211TIP3    H128048   4.146   4.775  11.557
 2211TIP3    H228049   4.045   4.688  11.485
 2212TIP3   OH228050   4.834   5.352  10.590
 2212TIP3    H128051   4.849   5.365  10.683
 2212TIP3    H228052   4.803   5.436  10.558
 2213TIP3   OH228053   4.276   5.295  11.613
 2213TIP3    H128054   4.279   5.325  11.522
 2213TIP3    H228055   4.183   5.282  11.631
 2214TIP3   OH228056   5.451   3.832  10.298
 2214TIP3    H128057   5.375   3.877  10.263
 2214TIP3    H228058   5.518   3.842  10.231
 2215TIP3   OH228059   4.255   4.688  10.481
 2215TIP3    H128060   4.271   4.768  10.430
 2215TIP3    H228061   4.292   4.618  10.428
 2216TIP3   OH228062   3.839   4.946  11.364
 2216TIP3    H128063   3.793   4.957  11.281
 2216TIP3    H228064   3.856   4.852  11.369
 2217TIP3   OH228065   3.806   5.231  11.042
 2217TIP3    H128066   3.899   5.235  11.067
 2217TIP3    H228067   3.769   5.312  11.077
 2218TIP3   OH228068   5.636   5.312  11.636
 2218TIP3    H128069   5.627   5.219  11.619
 2218TIP3    H228070   5.549   5.341  11.663
 2219TIP3   OH228071   4.713   5.239  11.490
 2219TIP3    H128072   4.710   5.324  11.534
 2219TIP3    H228073   4.628   5.200  11.507
 2220TIP3   OH228074   4.825   5.606  10.477
 2220TIP3    H128075   4.830   5.602  10.382
 2220TIP3    H228076   4.788   5.693  10.495
 2221TIP3   OH228077   4.148   5.491  10.658
 2221TIP3    H128078   4.159   5.445  10.741
 2221TIP3    H228079   4.090   5.436  10.607
 2222TIP3   OH228080   5.088   5.514  10.463
 2222TIP3    H128081   5.002   5.550  10.484
 2222TIP3    H228082   5.141   5.527  10.542
 2223TIP3   OH228083   5.329   4.428  11.648
 2223TIP3    H128084   5.275   4.473  11.584
 2223TIP3    H228085   5.308   4.335  11.636
 2224TIP3   OH228086   4.064   5.093  11.429
 2224TIP3    H128087   4.087   5.051  11.512
 2224TIP3    H228088   3.985   5.047  11.399
 2225TIP3   OH228089   4.321   3.912  11.055
 2225TIP3    H128090   4.250   3.902  10.993
 2225TIP3    H228091   4.294   3.986  11.110
 2226TIP3   OH228092   4.788   3.894  11.399
 2226TIP3    H128093   4.831   3.838  11.464
 2226TIP3    H228094   4.694   3.880  11.415
 2227TIP3   OH228095   5.124   4.272  11.510
 2227TIP3    H128096   5.048   4.258  11.566
 2227TIP3    H228097   5.109   4.358  11.470
 2228TIP3   OH228098   4.779   4.123  10.133
 2228TIP3    H128099   4.694   4.113  10.176
 2228TIP3    H228100   4.769   4.199  10.076
 2229TIP3   OH228101   4.334   4.425  11.182
 2229TIP3    H128102   4.264   4.425  11.247
 2229TIP3    H228103   4.336   4.515  11.149
 2230TIP3   OH228104   4.340   4.436  10.670
 2230TIP3    H128105   4.247   4.428  10.650
 2230TIP3    H228106   4.383   4.444  10.585
 2231TIP3   OH228107   4.783   4.485  11.661
 2231TIP3    H128108   4.736   4.410  11.696
 2231TIP3    H228109   4.867   4.484  11.707
 2232TIP3   OH228110   4.976   4.430  10.816
 2232TIP3    H128111   4.931   4.491  10.758
 2232TIP3    H228112   5.016   4.366  10.757
 2233TIP3   OH228113   4.117   4.434  11.351
 2233TIP3    H128114   4.110   4.482  11.434
 2233TIP3    H228115   4.074   4.350  11.368
 2234TIP3   OH228116   3.743   4.136  10.745
 2234TIP3    H128117   3.825   4.156  10.791
 2234TIP3    H228118   3.766   4.139  10.652
 2235TIP3   OH228119   4.933   4.554  11.267
 2235TIP3    H128120   4.968   4.493  11.202
 2235TIP3    H228121   4.862   4.505  11.309
 2236TIP3   OH228122   4.638   4.156  10.764
 2236TIP3    H128123   4.546   4.160  10.788
 2236TIP3    H228124   4.681   4.118  10.840
 2237TIP3   OH228125   4.075   4.338  10.639
 2237TIP3    H128126   4.008   4.361  10.575
 2237TIP3    H228127   4.108   4.253  10.610
 2238TIP3   OH228128   4.466   4.440  10.431
 2238TIP3    H128129   4.549   4.393  10.443
 2238TIP3    H228130   4.457   4.449  10.336
 2239TIP3   OH228131   5.024   4.097  11.116
 2239TIP3    H128132   4.960   4.113  11.186
 2239TIP3    H228133   4.973   4.060  11.044
 2240TIP3   OH228134   5.377   5.670  11.726
 2240TIP3    H128135   5.395   5.707  11.639
 2240TIP3    H228136   5.451   5.697  11.780
 2241TIP3   OH228137   4.132   4.932  11.663
 2241TIP3    H128138   4.199   4.931  11.732
 2241TIP3    H228139   4.050   4.944  11.711
 2242TIP3   OH228140   4.707   4.472  10.958
 2242TIP3    H128141   4.763   4.411  10.908
 2242TIP3    H228142   4.670   4.418  11.028
 2243TIP3   OH228143   4.196   4.092  10.584
 2243TIP3    H128144   4.149   4.009  10.589
 2243TIP3    H228145   4.229   4.095  10.495
 2244TIP3   OH228146   4.593   4.333  11.175
 2244TIP3    H128147   4.506   4.372  11.180
 2244TIP3    H228148   4.639   4.365  11.252
 2245TIP3   OH228149   5.346   4.867  11.199
 2245TIP3    H128150   5.405   4.922  11.147
 2245TIP3    H228151   5.274   4.846  11.139
 2246TIP3   OH228152   5.014   4.205  10.244
 2246TIP3    H128153   4.937   4.161  10.208
 2246TIP3    H228154   5.049   4.255  10.170
 2247TIP3   OH228155   4.793   4.962  11.483
 2247TIP3    H128156   4.798   4.928  11.572
 2247TIP3    H228157   4.760   5.051  11.493
 2248TIP3   OH228158   4.167   4.879  10.925
 2248TIP3    H128159   4.217   4.866  10.845
 2248TIP3    H228160   4.189   4.803  10.980
 2249TIP3   OH228161   3.861   4.673  11.456
 2249TIP3    H128162   3.826   4.628  11.533
 2249TIP3    H228163   3.797   4.656  11.387
 2250TIP3   OH228164   4.575   4.669  11.684
 2250TIP3    H128165   4.507   4.634  11.627
 2250TIP3    H228166   4.654   4.620  11.661
 2251TIP3   OH228167   4.997   5.217  11.491
 2251TIP3    H128168   4.905   5.224  11.468
 2251TIP3    H228169   4.999   5.234  11.586
 2252TIP3   OH228170   5.613   5.036  11.591
 2252TIP3    H128171   5.520   5.031  11.568
 2252TIP3    H228172   5.658   5.010  11.511
 2253TIP3   OH228173   5.438   5.232  10.292
 2253TIP3    H128174   5.354   5.189  10.305
 2253TIP3    H228175   5.420   5.301  10.227
 2254TIP3   OH228176   5.144   4.788  11.015
 2254TIP3    H128177   5.050   4.771  11.018
 2254TIP3    H228178   5.182   4.710  10.976
 2255TIP3   OH228179   4.416   5.215  10.680
 2255TIP3    H128180   4.431   5.303  10.644
 2255TIP3    H228181   4.366   5.170  10.612
 2256TIP3   OH228182   4.558   4.964  10.743
 2256TIP3    H128183   4.543   5.036  10.683
 2256TIP3    H228184   4.483   4.906  10.729
 2257TIP3   OH228185   4.601   5.389  11.265
 2257TIP3    H128186   4.659   5.462  11.242
 2257TIP3    H228187   4.657   5.331  11.317
 2258TIP3   OH228188   4.411   5.483  10.575
 2258TIP3    H128189   4.317   5.487  10.593
 2258TIP3    H228190   4.445   5.569  10.601
 2259TIP3   OH228191   4.898   4.988  11.229
 2259TIP3    H128192   4.862   4.974  11.316
 2259TIP3    H228193   4.965   4.921  11.219
 2260TIP3   OH228194   5.205   5.418  11.459
 2260TIP3    H128195   5.123   5.370  11.444
 2260TIP3    H228196   5.203   5.490  11.397
 2261TIP3   OH228197   3.993   4.179  11.389
 2261TIP3    H128198   3.905   4.209  11.368
 2261TIP3    H228199   3.981   4.092  11.428
 2262TIP3   OH228200   5.308   4.972  10.411
 2262TIP3    H128201   5.263   4.889  10.428
 2262TIP3    H228202   5.331   5.005  10.498
 2263TIP3   OH228203   3.999   5.368  11.258
 2263TIP3    H128204   4.030   5.288  11.299
 2263TIP3    H228205   4.020   5.438  11.320
 2264TIP3   OH228206   4.890   4.145  11.362
 2264TIP3    H128207   4.976   4.136  11.404
 2264TIP3    H228208   4.849   4.060  11.373
 2265TIP3   OH228209   4.924   4.147  10.496
 2265TIP3    H128210   4.959   4.155  10.407
 2265TIP3    H228211   4.997   4.173  10.552
 2266TIP3   OH228212   4.685   4.283  10.519
 2266TIP3    H128213   4.772   4.246  10.502
 2266TIP3    H228214   4.663   4.253  10.607
 2267TIP3   OH228215   4.757   4.388  11.394
 2267TIP3    H128216   4.761   4.411  11.487
 2267TIP3    H228217   4.796   4.300  11.390
 2268TIP3   OH228218   4.724   3.968  10.571
 2268TIP3    H128219   4.691   4.034  10.633
 2268TIP3    H228220   4.803   4.007  10.534
 2269TIP3   OH228221   4.453   5.561  10.275
 2269TIP3    H128222   4.446   5.512  10.193
 2269TIP3    H228223   4.446   5.495  10.344
 2270TIP3   OH228224   4.301   4.134  10.326
 2270TIP3    H128225   4.287   4.188  10.248
 2270TIP3    H228226   4.393   4.110  10.322
 2271TIP3   OH228227   5.351   4.125  11.462
 2271TIP3    H128228   5.269   4.170  11.483
 2271TIP3    H228229   5.334   4.082  11.378
 2272TIP3   OH228230   5.222   4.537  10.908
 2272TIP3    H128231   5.136   4.500  10.888
 2272TIP3    H228232   5.267   4.469  10.958
 2273TIP3   OH228233   5.343   5.490  11.059
 2273TIP3    H128234   5.325   5.559  10.995
 2273TIP3    H228235   5.439   5.491  11.068
 2274TIP3   OH228236   4.069   3.889  10.935
 2274TIP3    H128237   4.063   3.884  10.839
 2274TIP3    H228238   4.030   3.806  10.965
 2275TIP3   OH228239   3.956   5.368  10.497
 2275TIP3    H128240   3.879   5.365  10.553
 2275TIP3    H228241   3.939   5.440  10.436
 2276TIP3   OH228242   3.920   5.567  11.721
 2276TIP3    H128243   3.988   5.540  11.784
 2276TIP3    H228244   3.888   5.485  11.684
 2277TIP3   OH228245   4.344   5.388  11.863
 2277TIP3    H128246   4.429   5.347  11.880
 2277TIP3    H228247   4.322   5.360  11.774
 2278TIP3   OH228248   4.694   5.396  10.084
 2278TIP3    H128249   4.599   5.382  10.085
 2278TIP3    H228250   4.720   5.382   9.994
 2279TIP3   OH228251   4.992   5.259  11.764
 2279TIP3    H128252   4.981   5.176  11.811
 2279TIP3    H228253   5.068   5.300  11.805
 2280TIP3   OH228254   3.884   4.936  11.794
 2280TIP3    H128255   3.884   4.841  11.783
 2280TIP3    H228256   3.818   4.968  11.733
 2281TIP3   OH228257   4.548   4.943  11.744
 2281TIP3    H128258   4.529   4.988  11.662
 2281TIP3    H228259   4.568   4.853  11.718
 2282TIP3   OH228260   5.118   4.959  11.516
 2282TIP3    H128261   5.207   4.985  11.491
 2282TIP3    H228262   5.064   5.036  11.497
 2283TIP3   OH228263   3.960   4.667  11.767
 2283TIP3    H128264   4.038   4.655  11.712
 2283TIP3    H228265   3.994   4.663  11.857
 2284TIP3   OH228266   4.383   4.555  11.511
 2284TIP3    H128267   4.301   4.604  11.505
 2284TIP3    H228268   4.438   4.592  11.441
 2285TIP3   OH228269   4.895   4.799  11.802
 2285TIP3    H128270   4.963   4.758  11.749
 2285TIP3    H228271   4.859   4.728  11.855
 2286TIP3   OH228272   4.427   4.291  11.570
 2286TIP3    H128273   4.433   4.235  11.493
 2286TIP3    H228274   4.415   4.379  11.535
 2287TIP3   OH228275   4.456   4.136  11.335
 2287TIP3    H128276   4.510   4.180  11.270
 2287TIP3    H228277   4.369   4.130  11.294
 2288TIP3   OH228278   4.566   4.668  11.346
 2288TIP3    H128279   4.661   4.674  11.334
 2288TIP3    H228280   4.532   4.745  11.299
 2289TIP3   OH228281   5.017   4.447  11.818
 2289TIP3    H128282   5.007   4.358  11.785
 2289TIP3    H228283   5.111   4.464  11.813
 2290TIP3   OH228284   5.157   4.737  11.665
 2290TIP3    H128285   5.129   4.816  11.619
 2290TIP3    H228286   5.253   4.736  11.656
 2291TIP3   OH228287   4.259   4.345  11.793
 2291TIP3    H128288   4.180   4.295  11.776
 2291TIP3    H228289   4.308   4.343  11.711
 2292TIP3   OH228290   4.511   3.870  11.403
 2292TIP3    H128291   4.492   3.961  11.380
 2292TIP3    H228292   4.445   3.819  11.356
 2293TIP3   OH228293   4.649   4.257  11.734
 2293TIP3    H128294   4.607   4.230  11.815
 2293TIP3    H228295   4.577   4.261  11.670
 2294TIP3   OH228296   4.928   4.217  11.692
 2294TIP3    H128297   4.833   4.207  11.706
 2294TIP3    H228298   4.967   4.147  11.744
 2295TIP3   OH228299   5.101   4.071  11.857
 2295TIP3    H128300   5.093   3.977  11.841
 2295TIP3    H228301   5.071   4.083  11.947
 2296TIP3   OH228302   4.050   4.158  11.761
 2296TIP3    H128303   4.052   4.084  11.701
 2296TIP3    H228304   4.066   4.120  11.847
 2297TIP3   OH228305   4.503   3.786  11.664
 2297TIP3    H128306   4.559   3.709  11.657
 2297TIP3    H228307   4.498   3.820  11.574
 2298TIP3   OH228308   4.583   3.944  11.874
 2298TIP3    H128309   4.561   3.892  11.797
 2298TIP3    H228310   4.524   4.020  11.870
 2299TIP3   OH228311   3.785   5.639  10.629
 2299TIP3    H128312   3.785   5.616  10.536
 2299TIP3    H228313   3.795   5.556  10.675
 2300TIP3   OH228314   3.835   5.421  10.794
 2300TIP3    H128315   3.798   5.342  10.833
 2300TIP3    H228316   3.884   5.462  10.865
 2301TIP3   OH228317   5.611   5.493  11.124
 2301TIP3    H128318   5.613   5.514  11.218
 2301TIP3    H228319   5.685   5.541  11.088
 2302TIP3   OH228320   5.547   5.478  11.405
 2302TIP3    H128321   5.498   5.405  11.368
 2302TIP3    H228322   5.602   5.439  11.472
 2303TIP3   OH228323   5.418   5.053  11.890
 2303TIP3    H128324   5.333   5.064  11.932
 2303TIP3    H228325   5.470   5.128  11.920
 2304TIP3   OH228326   5.586   4.666  10.593
 2304TIP3    H128327   5.499   4.636  10.620
 2304TIP3    H228328   5.634   4.677  10.675
 2305TIP3   OH228329   5.590   4.985  11.117
 2305TIP3    H128330   5.636   4.925  11.059
 2305TIP3    H228331   5.613   5.072  11.084
 2306TIP3   OH228332   5.390   5.255  11.330
 2306TIP3    H128333   5.318   5.306  11.369
 2306TIP3    H228334   5.362   5.241  11.240
 2307TIP3   OH228335   5.336   4.560  10.654
 2307TIP3    H128336   5.342   4.474  10.613
 2307TIP3    H228337   5.304   4.543  10.742
 2308TIP3   OH228338   3.835   4.726  11.064
 2308TIP3    H128339   3.851   4.726  10.970
 2308TIP3    H228340   3.922   4.713  11.103
 2309TIP3   OH228341   5.431   4.753  11.623
 2309TIP3    H128342   5.494   4.684  11.603
 2309TIP3    H228343   5.445   4.819  11.555
 2310TIP3   OH228344   5.588   4.521  11.620
 2310TIP3    H128345   5.501   4.481  11.623
 2310TIP3    H228346   5.642   4.467  11.677
 2311TIP3   OH228347   5.345   4.330  10.489
 2311TIP3    H128348   5.355   4.237  10.508
 2311TIP3    H228349   5.390   4.342  10.405
 2312TIP3   OH228350   5.381   4.350  11.050
 2312TIP3    H128351   5.472   4.377  11.033
 2312TIP3    H228352   5.364   4.381  11.139
 2313TIP3   OH228353   5.375   4.475  11.300
 2313TIP3    H128354   5.293   4.505  11.339
 2313TIP3    H228355   5.427   4.555  11.290
 2314TIP3   OH228356   3.817   4.275  11.663
 2314TIP3    H128357   3.904   4.249  11.692
 2314TIP3    H228358   3.765   4.195  11.666
 2315TIP3   OH228359   5.632   3.867  11.831
 2315TIP3    H128360   5.695   3.806  11.792
 2315TIP3    H228361   5.622   3.936  11.766
 2316TIP3   OH228362   5.339   4.064  10.536
 2316TIP3    H128363   5.383   4.002  10.593
 2316TIP3    H228364   5.279   4.010  10.484
 2317TIP3   OH228365   3.933   4.126  10.992
 2317TIP3    H128366   3.972   4.041  10.974
 2317TIP3    H228367   4.007   4.187  10.987
 2318TIP3   OH228368   3.754   4.437  11.035
 2318TIP3    H128369   3.821   4.409  10.974
 2318TIP3    H228370   3.777   4.527  11.057
 2319TIP3   OH228371   5.554   4.069  11.660
 2319TIP3    H128372   5.484   4.102  11.716
 2319TIP3    H228373   5.511   4.048  11.577
 2320TIP3   OH228374   3.756   4.100  10.464
 2320TIP3    H128375   3.663   4.078  10.461
 2320TIP3    H228376   3.792   4.066  10.382
 2321TIP3   OH228377   5.277   5.526  10.666
 2321TIP3    H128378   5.346   5.524  10.599
 2321TIP3    H228379   5.307   5.592  10.729
 2322TIP3   OH228380   3.815   3.920  11.314
 2322TIP3    H128381   3.736   3.895  11.362
 2322TIP3    H228382   3.783   3.975  11.242
 2323TIP3   OH228383   4.015   5.268  11.710
 2323TIP3    H128384   3.929   5.274  11.670
 2323TIP3    H228385   3.998   5.241  11.800
 2324TIP3   OH228386   4.339   5.369  11.348
 2324TIP3    H128387   4.309   5.455  11.321
 2324TIP3    H228388   4.432   5.368  11.325
 2325TIP3   OH228389   4.713   5.482  11.625
 2325TIP3    H128390   4.725   5.454  11.716
 2325TIP3    H228391   4.792   5.532  11.605
 2326TIP3   OH228392   4.947   5.621  11.583
 2326TIP3    H128393   5.011   5.576  11.528
 2326TIP3    H228394   4.998   5.650  11.659
 2327TIP3   OH228395   5.469   3.816  11.464
 2327TIP3    H128396   5.388   3.813  11.412
 2327TIP3    H228397   5.511   3.732  11.447
 2328TIP3   OH228398   4.038   5.653  11.369
 2328TIP3    H128399   3.960   5.690  11.328
 2328TIP3    H228400   4.049   5.704  11.449
 2329TIP3   OH228401   4.296   5.631  11.274
 2329TIP3    H128402   4.205   5.643  11.300
 2329TIP3    H228403   4.303   5.675  11.189
 2330TIP3   OH228404   4.753   5.606  11.175
 2330TIP3    H128405   4.702   5.640  11.102
 2330TIP3    H228406   4.765   5.681  11.234
 2331TIP3   OH228407   4.975   5.481  11.282
 2331TIP3    H128408   4.899   5.522  11.243
 2331TIP3    H228409   5.048   5.539  11.261
 2332TIP3   OH228410   5.217   5.620  11.266
 2332TIP3    H128411   5.241   5.712  11.253
 2332TIP3    H228412   5.259   5.575  11.193
 2333TIP3   OH228413   3.990   5.514  11.022
 2333TIP3    H128414   3.990   5.469  11.106
 2333TIP3    H228415   4.069   5.481  10.977
 2334TIP3   OH228416   4.210   5.397  10.916
 2334TIP3    H128417   4.198   5.306  10.942
 2334TIP3    H228418   4.301   5.418  10.940
 2335TIP3   OH228419   4.480   5.425  11.013
 2335TIP3    H128420   4.483   5.336  10.977
 2335TIP3    H228421   4.509   5.415  11.103
 2336TIP3   OH228422   4.811   3.989  10.932
 2336TIP3    H128423   4.747   3.919  10.940
 2336TIP3    H228424   4.881   3.952  10.879
 2337TIP3   OH228425   5.285   3.897  10.941
 2337TIP3    H128426   5.349   3.895  10.870
 2337TIP3    H228427   5.201   3.882  10.897
 2338TIP3   OH228428   5.471   3.907  10.737
 2338TIP3    H128429   5.541   3.851  10.702
 2338TIP3    H228430   5.514   3.991  10.754
 2339TIP3   OH228431   4.039   3.858  10.662
 2339TIP3    H128432   3.947   3.844  10.640
 2339TIP3    H228433   4.081   3.773  10.646
 2340TIP3   OH228434   4.523   3.810  10.691
 2340TIP3    H128435   4.586   3.858  10.638
 2340TIP3    H228436   4.554   3.819  10.781
 2341TIP3   OH228437   5.036   3.865  10.812
 2341TIP3    H128438   5.046   3.855  10.717
 2341TIP3    H228439   5.010   3.778  10.843
 2342TIP3   OH228440   5.159   3.903  10.406
 2342TIP3    H128441   5.118   3.923  10.322
 2342TIP3    H228442   5.139   3.810  10.420
 2343TIP3   OH228443   4.578   4.094  10.337
 2343TIP3    H128444   4.612   4.020  10.386
 2343TIP3    H228445   4.607   4.171  10.386
 2344TIP3   OH228446   4.872   5.585  10.207
 2344TIP3    H128447   4.955   5.558  10.169
 2344TIP3    H228448   4.806   5.535  10.158
 2345TIP3   OH228449   5.463   5.509  10.462
 2345TIP3    H128450   5.476   5.428  10.412
 2345TIP3    H228451   5.461   5.578  10.396
 2346TIP3   OH228452   4.048   3.908  11.625
 2346TIP3    H128453   3.991   3.836  11.654
 2346TIP3    H228454   4.131   3.892  11.671
 2347TIP3   OH228455   4.259   3.846  11.795
 2347TIP3    H128456   4.342   3.820  11.754
 2347TIP3    H228457   4.226   3.765  11.834
 2348TIP3   OH228458   5.108   3.800  11.799
 2348TIP3    H128459   5.098   3.751  11.880
 2348TIP3    H228460   5.201   3.790  11.776
 2349TIP3   OH228461   5.375   5.397  11.681
 2349TIP3    H128462   5.317   5.391  11.605
 2349TIP3    H228463   5.376   5.491  11.703
 2350TIP3   OH228464   6.839   4.804  10.651
 2350TIP3    H128465   6.828   4.899  10.649
 2350TIP3    H228466   6.773   4.771  10.590
 2351TIP3   OH228467   6.714   4.715  11.031
 2351TIP3    H128468   6.733   4.671  11.114
 2351TIP3    H228469   6.668   4.649  10.979
 2352TIP3   OH228470   5.954   4.671  11.188
 2352TIP3    H128471   5.967   4.637  11.276
 2352TIP3    H228472   6.042   4.682  11.152
 2353TIP3   OH228473   7.101   5.021  10.887
 2353TIP3    H128474   7.057   4.954  10.939
 2353TIP3    H228475   7.125   5.089  10.949
 2354TIP3   OH228476   6.086   5.136  11.006
 2354TIP3    H128477   6.056   5.050  10.977
 2354TIP3    H228478   6.181   5.130  11.004
 2355TIP3   OH228479   5.759   4.453  10.518
 2355TIP3    H128480   5.690   4.519  10.524
 2355TIP3    H228481   5.742   4.407  10.435
 2356TIP3   OH228482   5.775   4.682  10.802
 2356TIP3    H128483   5.807   4.593  10.815
 2356TIP3    H228484   5.847   4.727  10.758
 2357TIP3   OH228485   6.826   5.515  10.921
 2357TIP3    H128486   6.858   5.449  10.859
 2357TIP3    H228487   6.765   5.467  10.978
 2358TIP3   OH228488   6.563   4.960  11.057
 2358TIP3    H128489   6.603   4.885  11.014
 2358TIP3    H228490   6.632   4.994  11.114
 2359TIP3   OH228491   6.896   4.378  11.067
 2359TIP3    H128492   6.899   4.283  11.078
 2359TIP3    H228493   6.872   4.391  10.975
 2360TIP3   OH228494   6.238   4.190  10.795
 2360TIP3    H128495   6.241   4.277  10.754
 2360TIP3    H228496   6.188   4.137  10.733
 2361TIP3   OH228497   6.998   4.247  10.643
 2361TIP3    H128498   7.038   4.187  10.705
 2361TIP3    H228499   7.068   4.269  10.582
 2362TIP3   OH228500   5.868   4.429  10.877
 2362TIP3    H128501   5.938   4.394  10.931
 2362TIP3    H228502   5.886   4.396  10.789
 2363TIP3   OH228503   6.347   4.589  10.861
 2363TIP3    H128504   6.435   4.555  10.876
 2363TIP3    H228505   6.308   4.530  10.796
 2364TIP3   OH228506   6.088   4.114  11.227
 2364TIP3    H128507   6.059   4.162  11.150
 2364TIP3    H228508   6.007   4.090  11.272
 2365TIP3   OH228509   6.800   5.062  10.554
 2365TIP3    H128510   6.758   5.047  10.470
 2365TIP3    H228511   6.758   5.141  10.588
 2366TIP3   OH228512   6.355   4.874  11.217
 2366TIP3    H128513   6.303   4.948  11.248
 2366TIP3    H228514   6.422   4.914  11.162
 2367TIP3   OH228515   7.106   4.115  10.864
 2367TIP3    H128516   7.025   4.084  10.905
 2367TIP3    H228517   7.146   4.171  10.931
 2368TIP3   OH228518   6.072   4.276  11.003
 2368TIP3    H128519   6.131   4.333  11.053
 2368TIP3    H228520   6.126   4.243  10.932
 2369TIP3   OH228521   6.206   5.084  11.318
 2369TIP3    H128522   6.212   5.177  11.295
 2369TIP3    H228523   6.115   5.072  11.345
 2370TIP3   OH228524   5.811   5.109  10.301
 2370TIP3    H128525   5.853   5.175  10.246
 2370TIP3    H228526   5.817   5.145  10.389
 2371TIP3   OH228527   7.165   5.237  11.076
 2371TIP3    H128528   7.071   5.230  11.096
 2371TIP3    H228529   7.179   5.330  11.059
 2372TIP3   OH228530   7.128   4.021  11.178
 2372TIP3    H128531   7.036   4.034  11.154
 2372TIP3    H228532   7.173   4.099  11.143
 2373TIP3   OH228533   6.456   3.809  10.984
 2373TIP3    H128534   6.431   3.719  10.965
 2373TIP3    H228535   6.373   3.852  11.007
 2374TIP3   OH228536   6.930   5.354  10.726
 2374TIP3    H128537   6.972   5.273  10.698
 2374TIP3    H228538   6.988   5.424  10.695
 2375TIP3   OH228539   7.066   5.131  10.635
 2375TIP3    H128540   6.986   5.092  10.599
 2375TIP3    H228541   7.084   5.082  10.715
 2376TIP3   OH228542   7.250   4.984  11.484
 2376TIP3    H128543   7.244   4.929  11.405
 2376TIP3    H228544   7.261   5.073  11.451
 2377TIP3   OH228545   6.689   4.722  10.431
 2377TIP3    H128546   6.620   4.788  10.424
 2377TIP3    H228547   6.727   4.717  10.344
 2378TIP3   OH228548   6.738   4.516  10.119
 2378TIP3    H128549   6.795   4.578  10.164
 2378TIP3    H228550   6.757   4.530  10.026
 2379TIP3   OH228551   7.048   4.739  10.485
 2379TIP3    H128552   6.982   4.769  10.548
 2379TIP3    H228553   7.105   4.682  10.536
 2380TIP3   OH228554   7.000   4.566  11.404
 2380TIP3    H128555   7.013   4.658  11.427
 2380TIP3    H228556   6.923   4.566  11.347
 2381TIP3   OH228557   6.207   4.789  10.703
 2381TIP3    H128558   6.174   4.757  10.619
 2381TIP3    H228559   6.262   4.719  10.737
 2382TIP3   OH228560   6.361   5.144  10.958
 2382TIP3    H128561   6.355   5.153  10.863
 2382TIP3    H228562   6.435   5.085  10.972
 2383TIP3   OH228563   6.210   4.689  11.075
 2383TIP3    H128564   6.260   4.667  10.996
 2383TIP3    H228565   6.263   4.755  11.120
 2384TIP3   OH228566   6.905   5.226  11.153
 2384TIP3    H128567   6.874   5.302  11.203
 2384TIP3    H228568   6.850   5.154  11.183
 2385TIP3   OH228569   6.360   5.113  11.545
 2385TIP3    H128570   6.299   5.175  11.586
 2385TIP3    H228571   6.317   5.087  11.463
 2386TIP3   OH228572   6.912   4.691  10.242
 2386TIP3    H128573   6.964   4.712  10.320
 2386TIP3    H228574   6.879   4.776  10.212
 2387TIP3   OH228575   6.023   4.695  11.518
 2387TIP3    H128576   6.029   4.782  11.557
 2387TIP3    H228577   5.931   4.686  11.493
 2388TIP3   OH228578   6.682   5.304  10.612
 2388TIP3    H128579   6.761   5.342  10.651
 2388TIP3    H228580   6.658   5.364  10.542
 2389TIP3   OH228581   6.162   5.293  11.612
 2389TIP3    H128582   6.165   5.324  11.521
 2389TIP3    H228583   6.069   5.281  11.630
 2390TIP3   OH228584   6.103   4.699  10.460
 2390TIP3    H128585   6.067   4.774  10.413
 2390TIP3    H228586   6.052   4.624  10.428
 2391TIP3   OH228587   5.726   4.946  11.358
 2391TIP3    H128588   5.675   4.969  11.280
 2391TIP3    H228589   5.753   4.855  11.343
 2392TIP3   OH228590   5.695   5.235  11.046
 2392TIP3    H128591   5.787   5.240  11.075
 2392TIP3    H228592   5.655   5.315  11.078
 2393TIP3   OH228593   6.601   5.235  11.492
 2393TIP3    H128594   6.597   5.320  11.535
 2393TIP3    H228595   6.515   5.196  11.509
 2394TIP3   OH228596   6.660   5.609  10.473
 2394TIP3    H128597   6.610   5.607  10.391
 2394TIP3    H228598   6.649   5.698  10.506
 2395TIP3   OH228599   6.025   5.479  10.664
 2395TIP3    H128600   6.046   5.448  10.752
 2395TIP3    H228601   5.972   5.409  10.625
 2396TIP3   OH228602   7.057   5.553  10.180
 2396TIP3    H128603   7.091   5.478  10.130
 2396TIP3    H228604   6.963   5.552  10.163
 2397TIP3   OH228605   6.911   5.505  10.455
 2397TIP3    H128606   6.823   5.543  10.462
 2397TIP3    H228607   6.899   5.428  10.400
 2398TIP3   OH228608   7.168   4.491  11.658
 2398TIP3    H128609   7.173   4.471  11.564
 2398TIP3    H228610   7.246   4.449  11.695
 2399TIP3   OH228611   5.955   5.088  11.430
 2399TIP3    H128612   5.971   5.051  11.517
 2399TIP3    H228613   5.873   5.046  11.402
 2400TIP3   OH228614   6.207   3.915  11.054
 2400TIP3    H128615   6.131   3.901  10.997
 2400TIP3    H228616   6.181   3.989  11.110
 2401TIP3   OH228617   6.681   3.894  11.404
 2401TIP3    H128618   6.727   3.838  11.466
 2401TIP3    H228619   6.588   3.878  11.422
 2402TIP3   OH228620   6.999   4.278  11.485
 2402TIP3    H128621   6.932   4.265  11.552
 2402TIP3    H228622   6.992   4.371  11.462
 2403TIP3   OH228623   6.709   4.098  10.202
 2403TIP3    H128624   6.618   4.098  10.231
 2403TIP3    H228625   6.704   4.080  10.108
 2404TIP3   OH228626   6.225   4.436  11.181
 2404TIP3    H128627   6.228   4.464  11.273
 2404TIP3    H228628   6.219   4.517  11.131
 2405TIP3   OH228629   6.220   4.435  10.676
 2405TIP3    H128630   6.127   4.418  10.660
 2405TIP3    H228631   6.261   4.430  10.589
 2406TIP3   OH228632   6.772   4.489  10.541
 2406TIP3    H128633   6.727   4.569  10.511
 2406TIP3    H228634   6.853   4.488  10.492
 2407TIP3   OH228635   6.680   4.480  11.656
 2407TIP3    H128636   6.633   4.406  11.695
 2407TIP3    H228637   6.767   4.477  11.697
 2408TIP3   OH228638   6.847   4.418  10.799
 2408TIP3    H128639   6.808   4.474  10.732
 2408TIP3    H228640   6.893   4.349  10.750
 2409TIP3   OH228641   5.985   4.399  11.393
 2409TIP3    H128642   6.053   4.454  11.430
 2409TIP3    H228643   6.030   4.345  11.328
 2410TIP3   OH228644   5.629   4.128  10.763
 2410TIP3    H128645   5.712   4.145  10.808
 2410TIP3    H228646   5.650   4.138  10.670
 2411TIP3   OH228647   5.788   4.275  10.284
 2411TIP3    H128648   5.846   4.214  10.237
 2411TIP3    H228649   5.762   4.339  10.218
 2412TIP3   OH228650   6.777   4.549  11.244
 2412TIP3    H128651   6.819   4.490  11.181
 2412TIP3    H228652   6.718   4.492  11.294
 2413TIP3   OH228653   6.520   4.165  10.765
 2413TIP3    H128654   6.427   4.170  10.786
 2413TIP3    H228655   6.560   4.121  10.840
 2414TIP3   OH228656   5.967   4.331  10.642
 2414TIP3    H128657   5.896   4.364  10.587
 2414TIP3    H228658   5.986   4.244  10.606
 2415TIP3   OH228659   6.329   4.399  10.432
 2415TIP3    H128660   6.421   4.390  10.405
 2415TIP3    H228661   6.281   4.405  10.350
 2416TIP3   OH228662   6.875   4.100  11.085
 2416TIP3    H128663   6.834   4.115  11.170
 2416TIP3    H228664   6.805   4.063  11.031
 2417TIP3   OH228665   6.207   4.402  10.189
 2417TIP3    H128666   6.136   4.400  10.124
 2417TIP3    H228667   6.278   4.450  10.146
 2418TIP3   OH228668   7.229   5.685  11.712
 2418TIP3    H128669   7.230   5.751  11.643
 2418TIP3    H228670   7.320   5.658  11.722
 2419TIP3   OH228671   6.012   4.928  11.669
 2419TIP3    H128672   6.081   4.929  11.736
 2419TIP3    H228673   5.931   4.941  11.719
 2420TIP3   OH228674   6.589   4.470  10.944
 2420TIP3    H128675   6.656   4.425  10.893
 2420TIP3    H228676   6.561   4.407  11.009
 2421TIP3   OH228677   6.088   4.077  10.591
 2421TIP3    H128678   6.029   4.002  10.600
 2421TIP3    H228679   6.116   4.075  10.500
 2422TIP3   OH228680   6.481   4.321  11.164
 2422TIP3    H128681   6.397   4.366  11.167
 2422TIP3    H228682   6.526   4.348  11.244
 2423TIP3   OH228683   6.526   4.938  10.378
 2423TIP3    H128684   6.458   4.882  10.340
 2423TIP3    H228685   6.494   4.961  10.465
 2424TIP3   OH228686   7.184   4.847  11.240
 2424TIP3    H128687   7.256   4.833  11.178
 2424TIP3    H228688   7.105   4.845  11.186
 2425TIP3   OH228689   6.669   4.946  11.492
 2425TIP3    H128690   6.702   4.918  11.577
 2425TIP3    H228691   6.649   5.039  11.503
 2426TIP3   OH228692   6.053   4.873  10.917
 2426TIP3    H128693   6.099   4.859  10.834
 2426TIP3    H228694   6.087   4.806  10.975
 2427TIP3   OH228695   5.758   4.648  11.446
 2427TIP3    H128696   5.714   4.621  11.527
 2427TIP3    H228697   5.688   4.657  11.382
 2428TIP3   OH228698   6.491   4.680  11.669
 2428TIP3    H128699   6.466   4.691  11.578
 2428TIP3    H228700   6.566   4.621  11.667
 2429TIP3   OH228701   6.877   5.181  11.498
 2429TIP3    H128702   6.789   5.207  11.474
 2429TIP3    H228703   6.889   5.216  11.587
 2430TIP3   OH228704   6.986   4.805  11.040
 2430TIP3    H128705   6.892   4.794  11.023
 2430TIP3    H228706   7.027   4.737  10.987
 2431TIP3   OH228707   6.293   5.213  10.694
 2431TIP3    H128708   6.324   5.297  10.660
 2431TIP3    H228709   6.203   5.206  10.662
 2432TIP3   OH228710   6.407   4.972  10.620
 2432TIP3    H128711   6.379   5.060  10.643
 2432TIP3    H228712   6.335   4.916  10.650
 2433TIP3   OH228713   6.487   5.384  11.268
 2433TIP3    H128714   6.540   5.461  11.247
 2433TIP3    H228715   6.544   5.329  11.321
 2434TIP3   OH228716   6.295   5.471  10.583
 2434TIP3    H128717   6.202   5.491  10.594
 2434TIP3    H228718   6.341   5.551  10.610
 2435TIP3   OH228719   6.774   4.991  11.237
 2435TIP3    H128720   6.742   4.969  11.324
 2435TIP3    H228721   6.850   4.933  11.224
 2436TIP3   OH228722   7.064   5.117  10.153
 2436TIP3    H128723   7.100   5.044  10.204
 2436TIP3    H228724   6.970   5.112  10.167
 2437TIP3   OH228725   7.084   5.424  11.450
 2437TIP3    H128726   7.004   5.380  11.423
 2437TIP3    H228727   7.092   5.499  11.391
 2438TIP3   OH228728   5.853   4.116  11.434
 2438TIP3    H128729   5.789   4.062  11.389
 2438TIP3    H228730   5.891   4.058  11.500
 2439TIP3   OH228731   7.180   4.908  10.307
 2439TIP3    H128732   7.137   4.861  10.379
 2439TIP3    H228733   7.257   4.947  10.348
 2440TIP3   OH228734   5.886   5.375  11.260
 2440TIP3    H128735   5.924   5.299  11.305
 2440TIP3    H228736   5.905   5.449  11.317
 2441TIP3   OH228737   6.395   5.137  10.213
 2441TIP3    H128738   6.442   5.097  10.285
 2441TIP3    H228739   6.381   5.227  10.240
 2442TIP3   OH228740   6.005   4.905  10.307
 2442TIP3    H128741   5.939   4.974  10.305
 2442TIP3    H228742   6.069   4.931  10.241
 2443TIP3   OH228743   6.783   4.142  11.342
 2443TIP3    H128744   6.859   4.156  11.399
 2443TIP3    H228745   6.747   4.057  11.369
 2444TIP3   OH228746   6.839   4.067  10.441
 2444TIP3    H128747   6.802   4.084  10.355
 2444TIP3    H228748   6.858   4.154  10.477
 2445TIP3   OH228749   6.699   5.351  10.297
 2445TIP3    H128750   6.603   5.355  10.297
 2445TIP3    H228751   6.725   5.408  10.225
 2446TIP3   OH228752   6.595   4.278  10.519
 2446TIP3    H128753   6.653   4.354  10.526
 2446TIP3    H228754   6.563   4.263  10.608
 2447TIP3   OH228755   6.630   4.373  11.395
 2447TIP3    H128756   6.644   4.404  11.484
 2447TIP3    H228757   6.676   4.290  11.390
 2448TIP3   OH228758   6.625   3.972  10.588
 2448TIP3    H128759   6.601   4.047  10.641
 2448TIP3    H228760   6.703   4.000  10.540
 2449TIP3   OH228761   6.409   5.388  10.337
 2449TIP3    H128762   6.417   5.471  10.290
 2449TIP3    H228763   6.365   5.411  10.418
 2450TIP3   OH228764   6.201   4.116  10.332
 2450TIP3    H128765   6.188   4.202  10.292
 2450TIP3    H228766   6.296   4.105  10.337
 2451TIP3   OH228767   7.245   4.135  11.453
 2451TIP3    H128768   7.174   4.174  11.503
 2451TIP3    H228769   7.223   4.154  11.361
 2452TIP3   OH228770   7.070   4.565  10.911
 2452TIP3    H128771   6.989   4.531  10.873
 2452TIP3    H228772   7.083   4.511  10.989
 2453TIP3   OH228773   7.238   5.511  11.059
 2453TIP3    H128774   7.215   5.582  10.998
 2453TIP3    H228775   7.333   5.508  11.057
 2454TIP3   OH228776   5.959   3.883  10.935
 2454TIP3    H128777   5.949   3.878  10.840
 2454TIP3    H228778   5.920   3.802  10.968
 2455TIP3   OH228779   5.861   5.290  10.527
 2455TIP3    H128780   5.780   5.327  10.564
 2455TIP3    H228781   5.873   5.337  10.445
 2456TIP3   OH228782   5.802   5.570  11.724
 2456TIP3    H128783   5.869   5.544  11.787
 2456TIP3    H228784   5.771   5.488  11.687
 2457TIP3   OH228785   6.228   5.390  11.861
 2457TIP3    H128786   6.314   5.352  11.881
 2457TIP3    H228787   6.209   5.360  11.772
 2458TIP3   OH228788   6.879   5.263  11.763
 2458TIP3    H128789   6.859   5.180  11.808
 2458TIP3    H228790   6.957   5.295  11.808
 2459TIP3   OH228791   7.177   5.342  10.044
 2459TIP3    H128792   7.143   5.262  10.083
 2459TIP3    H228793   7.148   5.339   9.953
 2460TIP3   OH228794   5.765   4.932  11.798
 2460TIP3    H128795   5.748   4.838  11.795
 2460TIP3    H228796   5.704   4.970  11.736
 2461TIP3   OH228797   6.435   4.946  11.750
 2461TIP3    H128798   6.419   4.992  11.667
 2461TIP3    H228799   6.469   4.861  11.723
 2462TIP3   OH228800   6.987   4.912  11.513
 2462TIP3    H128801   7.078   4.941  11.502
 2462TIP3    H228802   6.935   4.992  11.500
 2463TIP3   OH228803   5.848   4.635  11.765
 2463TIP3    H128804   5.932   4.646  11.720
 2463TIP3    H228805   5.868   4.653  11.857
 2464TIP3   OH228806   6.354   4.745  10.300
 2464TIP3    H128807   6.273   4.713  10.340
 2464TIP3    H228808   6.379   4.676  10.238
 2465TIP3   OH228809   6.232   4.536  11.439
 2465TIP3    H128810   6.171   4.601  11.476
 2465TIP3    H228811   6.314   4.585  11.427
 2466TIP3   OH228812   6.449   4.542  10.132
 2466TIP3    H128813   6.419   4.544  10.041
 2466TIP3    H228814   6.544   4.530  10.127
 2467TIP3   OH228815   6.773   4.800  11.799
 2467TIP3    H128816   6.859   4.775  11.767
 2467TIP3    H228817   6.745   4.726  11.854
 2468TIP3   OH228818   6.309   4.297  11.567
 2468TIP3    H128819   6.321   4.233  11.498
 2468TIP3    H228820   6.293   4.380  11.520
 2469TIP3   OH228821   6.339   4.134  11.338
 2469TIP3    H128822   6.394   4.172  11.269
 2469TIP3    H228823   6.252   4.128  11.298
 2470TIP3   OH228824   6.456   4.686  11.391
 2470TIP3    H128825   6.550   4.684  11.371
 2470TIP3    H228826   6.421   4.756  11.336
 2471TIP3   OH228827   6.920   4.440  11.805
 2471TIP3    H128828   6.928   4.345  11.795
 2471TIP3    H228829   7.002   4.475  11.770
 2472TIP3   OH228830   7.030   4.731  11.716
 2472TIP3    H128831   7.021   4.791  11.642
 2472TIP3    H228832   7.083   4.659  11.683
 2473TIP3   OH228833   6.150   4.351  11.795
 2473TIP3    H128834   6.071   4.297  11.785
 2473TIP3    H228835   6.196   4.341  11.712
 2474TIP3   OH228836   6.400   3.868  11.402
 2474TIP3    H128837   6.379   3.959  11.381
 2474TIP3    H228838   6.333   3.816  11.357
 2475TIP3   OH228839   6.535   4.259  11.731
 2475TIP3    H128840   6.497   4.231  11.815
 2475TIP3    H228841   6.459   4.268  11.673
 2476TIP3   OH228842   6.806   4.203  11.663
 2476TIP3    H128843   6.714   4.203  11.690
 2476TIP3    H228844   6.849   4.145  11.726
 2477TIP3   OH228845   6.971   4.081  11.850
 2477TIP3    H128846   6.964   3.986  11.840
 2477TIP3    H228847   6.943   4.097  11.940
 2478TIP3   OH228848   5.951   4.152  11.779
 2478TIP3    H128849   5.951   4.074  11.723
 2478TIP3    H228850   5.964   4.117  11.867
 2479TIP3   OH228851   6.390   3.784  11.664
 2479TIP3    H128852   6.446   3.707  11.659
 2479TIP3    H228853   6.386   3.817  11.574
 2480TIP3   OH228854   6.467   3.943  11.875
 2480TIP3    H128855   6.445   3.891  11.798
 2480TIP3    H228856   6.407   4.018  11.871
 2481TIP3   OH228857   6.519   5.625  10.228
 2481TIP3    H128858   6.560   5.578  10.155
 2481TIP3    H228859   6.461   5.689  10.186
 2482TIP3   OH228860   5.659   5.619  10.634
 2482TIP3    H128861   5.611   5.584  10.559
 2482TIP3    H228862   5.679   5.543  10.689
 2483TIP3   OH228863   5.722   5.411  10.806
 2483TIP3    H128864   5.694   5.332  10.852
 2483TIP3    H228865   5.773   5.460  10.870
 2484TIP3   OH228866   7.253   5.221  11.347
 2484TIP3    H128867   7.204   5.296  11.382
 2484TIP3    H228868   7.232   5.219  11.254
 2485TIP3   OH228869   7.179   4.562  10.650
 2485TIP3    H128870   7.175   4.466  10.647
 2485TIP3    H228871   7.164   4.584  10.742
 2486TIP3   OH228872   5.716   4.717  11.065
 2486TIP3    H128873   5.728   4.717  10.970
 2486TIP3    H228874   5.804   4.709  11.101
 2487TIP3   OH228875   7.226   4.163  10.078
 2487TIP3    H128876   7.223   4.070  10.100
 2487TIP3    H228877   7.164   4.173  10.005
 2488TIP3   OH228878   7.232   4.291  10.496
 2488TIP3    H128879   7.247   4.199  10.518
 2488TIP3    H228880   7.273   4.302  10.410
 2489TIP3   OH228881   7.243   4.245  11.068
 2489TIP3    H128882   7.329   4.208  11.049
 2489TIP3    H228883   7.259   4.338  11.082
 2490TIP3   OH228884   7.257   4.473  11.364
 2490TIP3    H128885   7.166   4.501  11.357
 2490TIP3    H228886   7.291   4.476  11.275
 2491TIP3   OH228887   5.733   4.284  11.683
 2491TIP3    H128888   5.808   4.246  11.728
 2491TIP3    H228889   5.668   4.214  11.681
 2492TIP3   OH228890   7.260   4.022  10.558
 2492TIP3    H128891   7.299   3.942  10.593
 2492TIP3    H228892   7.179   3.993  10.516
 2493TIP3   OH228893   5.831   4.123  10.984
 2493TIP3    H128894   5.868   4.037  10.966
 2493TIP3    H228895   5.905   4.183  10.977
 2494TIP3   OH228896   5.645   4.430  11.051
 2494TIP3    H128897   5.710   4.405  10.985
 2494TIP3    H228898   5.660   4.524  11.064
 2495TIP3   OH228899   5.682   4.124  10.491
 2495TIP3    H128900   5.627   4.060  10.445
 2495TIP3    H228901   5.722   4.175  10.420
 2496TIP3   OH228902   7.142   5.522  10.712
 2496TIP3    H128903   7.211   5.463  10.742
 2496TIP3    H228904   7.146   5.596  10.773
 2497TIP3   OH228905   5.678   3.941  11.321
 2497TIP3    H128906   5.602   3.904  11.365
 2497TIP3    H228907   5.641   3.992  11.248
 2498TIP3   OH228908   5.901   5.265  11.708
 2498TIP3    H128909   5.813   5.274  11.673
 2498TIP3    H228910   5.888   5.249  11.802
 2499TIP3   OH228911   6.224   5.365  11.346
 2499TIP3    H128912   6.194   5.452  11.319
 2499TIP3    H228913   6.317   5.364  11.325
 2500TIP3   OH228914   6.596   5.482  11.623
 2500TIP3    H128915   6.609   5.454  11.713
 2500TIP3    H228916   6.674   5.531  11.601
 2501TIP3   OH228917   6.830   5.621  11.582
 2501TIP3    H128918   6.899   5.575  11.534
 2501TIP3    H228919   6.871   5.650  11.663
 2502TIP3   OH228920   5.921   5.644  11.371
 2502TIP3    H128921   5.845   5.684  11.329
 2502TIP3    H228922   5.935   5.696  11.450
 2503TIP3   OH228923   6.181   5.628  11.274
 2503TIP3    H128924   6.089   5.639  11.300
 2503TIP3    H228925   6.188   5.673  11.190
 2504TIP3   OH228926   6.631   5.605  11.182
 2504TIP3    H128927   6.581   5.641  11.109
 2504TIP3    H228928   6.647   5.680  11.239
 2505TIP3   OH228929   6.851   5.469  11.279
 2505TIP3    H128930   6.774   5.513  11.243
 2505TIP3    H228931   6.923   5.529  11.260
 2506TIP3   OH228932   7.081   5.625  11.257
 2506TIP3    H128933   7.092   5.719  11.242
 2506TIP3    H228934   7.136   5.583  11.191
 2507TIP3   OH228935   5.878   5.517  11.022
 2507TIP3    H128936   5.879   5.473  11.107
 2507TIP3    H228937   5.957   5.485  10.978
 2508TIP3   OH228938   6.097   5.396  10.919
 2508TIP3    H128939   6.086   5.305  10.946
 2508TIP3    H228940   6.186   5.418  10.945
 2509TIP3   OH228941   6.362   5.419  11.017
 2509TIP3    H128942   6.370   5.330  10.983
 2509TIP3    H228943   6.394   5.414  11.107
 2510TIP3   OH228944   6.673   3.985  10.928
 2510TIP3    H128945   6.604   3.920  10.942
 2510TIP3    H228946   6.741   3.938  10.879
 2511TIP3   OH228947   7.168   3.830  10.901
 2511TIP3    H128948   7.207   3.918  10.895
 2511TIP3    H228949   7.075   3.845  10.887
 2512TIP3   OH228950   5.925   3.858  10.663
 2512TIP3    H128951   5.835   3.841  10.637
 2512TIP3    H228952   5.971   3.775  10.646
 2513TIP3   OH228953   6.420   3.806  10.664
 2513TIP3    H128954   6.492   3.866  10.643
 2513TIP3    H228955   6.371   3.851  10.733
 2514TIP3   OH228956   6.905   3.861  10.816
 2514TIP3    H128957   6.911   3.857  10.720
 2514TIP3    H228958   6.876   3.774  10.842
 2515TIP3   OH228959   7.051   3.890  10.448
 2515TIP3    H128960   6.975   3.945  10.432
 2515TIP3    H228961   7.018   3.800  10.443
 2516TIP3   OH228962   5.752   5.475  10.339
 2516TIP3    H128963   5.823   5.436  10.288
 2516TIP3    H228964   5.779   5.566  10.352
 2517TIP3   OH228965   5.970   4.095  10.164
 2517TIP3    H128966   5.987   4.052  10.080
 2517TIP3    H228967   6.043   4.067  10.220
 2518TIP3   OH228968   6.478   4.087  10.362
 2518TIP3    H128969   6.492   4.017  10.425
 2518TIP3    H228970   6.513   4.165  10.404
 2519TIP3   OH228971   5.936   3.914  11.622
 2519TIP3    H128972   5.878   3.843  11.650
 2519TIP3    H228973   6.019   3.895  11.666
 2520TIP3   OH228974   6.142   3.845  11.794
 2520TIP3    H128975   6.226   3.817  11.757
 2520TIP3    H228976   6.107   3.765  11.835
 2521TIP3   OH228977   6.978   3.805  11.811
 2521TIP3    H128978   6.971   3.752  11.890
 2521TIP3    H228979   7.070   3.797  11.785
 2522TIP3   OH228980   7.226   5.394  11.688
 2522TIP3    H128981   7.181   5.385  11.604
 2522TIP3    H228982   7.231   5.488  11.703
 2523TIP3   OH228983   1.189   6.706  10.679
 2523TIP3    H128984   1.162   6.788  10.638
 2523TIP3    H228985   1.114   6.679  10.731
 2524TIP3   OH228986   1.068   6.598  11.029
 2524TIP3    H128987   1.087   6.565  11.117
 2524TIP3    H228988   1.020   6.527  10.986
 2525TIP3   OH228989   0.322   6.537  11.163
 2525TIP3    H128990   0.327   6.460  11.220
 2525TIP3    H228991   0.412   6.551  11.134
 2526TIP3   OH228992   1.424   6.891  10.904
 2526TIP3    H128993   1.396   6.800  10.908
 2526TIP3    H228994   1.435   6.917  10.996
 2527TIP3   OH228995   0.465   7.001  11.041
 2527TIP3    H128996   0.429   6.919  11.007
 2527TIP3    H228997   0.557   7.000  11.015
 2528TIP3   OH228998   0.115   6.404  10.514
 2528TIP3    H128999   0.114   6.484  10.462
 2528TIP3    H229000   0.035   6.408  10.567
 2529TIP3   OH229001   0.171   6.601  10.834
 2529TIP3    H129002   0.177   6.505  10.834
 2529TIP3    H229003   0.147   6.624  10.745
 2530TIP3   OH229004   0.936   6.844  11.080
 2530TIP3    H129005   0.966   6.763  11.039
 2530TIP3    H229006   1.007   6.867  11.141
 2531TIP3   OH229007   1.809   5.990  11.157
 2531TIP3    H129008   1.824   6.060  11.220
 2531TIP3    H229009   1.861   6.014  11.080
 2532TIP3   OH229010   1.222   6.277  11.066
 2532TIP3    H129011   1.240   6.184  11.080
 2532TIP3    H229012   1.212   6.286  10.972
 2533TIP3   OH229013   0.572   6.102  10.810
 2533TIP3    H129014   0.584   6.185  10.762
 2533TIP3    H229015   0.520   6.048  10.750
 2534TIP3   OH229016   1.347   6.098  10.681
 2534TIP3    H129017   1.398   6.052  10.748
 2534TIP3    H229018   1.408   6.109  10.608
 2535TIP3   OH229019   0.210   6.326  10.881
 2535TIP3    H129020   0.283   6.291  10.932
 2535TIP3    H229021   0.228   6.298  10.792
 2536TIP3   OH229022   0.704   6.483  10.845
 2536TIP3    H129023   0.787   6.444  10.872
 2536TIP3    H229024   0.668   6.421  10.782
 2537TIP3   OH229025   1.846   6.159  11.379
 2537TIP3    H129026   1.774   6.219  11.358
 2537TIP3    H229027   1.861   6.173  11.473
 2538TIP3   OH229028   0.431   6.000  11.232
 2538TIP3    H129029   0.409   6.060  11.162
 2538TIP3    H229030   0.365   6.015  11.299
 2539TIP3   OH229031   1.096   6.932  10.550
 2539TIP3    H129032   1.003   6.911  10.544
 2539TIP3    H229033   1.098   7.024  10.577
 2540TIP3   OH229034   0.706   6.763  11.219
 2540TIP3    H129035   0.647   6.832  11.249
 2540TIP3    H229036   0.775   6.809  11.171
 2541TIP3   OH229037   1.470   6.014  10.917
 2541TIP3    H129038   1.395   6.013  10.975
 2541TIP3    H229039   1.525   6.086  10.950
 2542TIP3   OH229040   0.407   6.171  11.014
 2542TIP3    H129041   0.462   6.225  11.070
 2542TIP3    H229042   0.466   6.143  10.944
 2543TIP3   OH229043   0.523   6.961  11.308
 2543TIP3    H129044   0.492   6.976  11.218
 2543TIP3    H229045   0.445   6.966  11.362
 2544TIP3   OH229046   0.127   6.842  10.368
 2544TIP3    H129047   0.189   6.811  10.302
 2544TIP3    H229048   0.139   6.937  10.369
 2545TIP3   OH229049   1.481   7.135  11.041
 2545TIP3    H129050   1.398   7.137  11.088
 2545TIP3    H229051   1.497   7.227  11.018
 2546TIP3   OH229052   1.558   5.880  11.236
 2546TIP3    H129053   1.487   5.931  11.196
 2546TIP3    H229054   1.637   5.913  11.195
 2547TIP3   OH229055   0.789   5.687  10.961
 2547TIP3    H129056   0.761   5.597  10.971
 2547TIP3    H229057   0.716   5.739  10.995
 2548TIP3   OH229058   1.333   7.209  10.664
 2548TIP3    H129059   1.245   7.187  10.632
 2548TIP3    H229060   1.322   7.294  10.706
 2549TIP3   OH229061   1.509   6.949  10.612
 2549TIP3    H129062   1.459   6.953  10.531
 2549TIP3    H229063   1.514   6.855  10.632
 2550TIP3   OH229064   1.616   6.901  11.423
 2550TIP3    H129065   1.608   6.845  11.346
 2550TIP3    H229066   1.604   6.990  11.389
 2551TIP3   OH229067   1.776   6.551  11.263
 2551TIP3    H129068   1.702   6.612  11.259
 2551TIP3    H229069   1.833   6.578  11.191
 2552TIP3   OH229070   1.429   6.687  10.548
 2552TIP3    H129071   1.347   6.676  10.595
 2552TIP3    H229072   1.480   6.609  10.570
 2553TIP3   OH229073   1.372   6.410  11.403
 2553TIP3    H129074   1.383   6.473  11.475
 2553TIP3    H229075   1.300   6.446  11.351
 2554TIP3   OH229076   0.562   6.693  10.702
 2554TIP3    H129077   0.512   6.668  10.624
 2554TIP3    H229078   0.603   6.611  10.730
 2555TIP3   OH229079   0.724   6.975  10.955
 2555TIP3    H129080   0.735   6.947  10.864
 2555TIP3    H229081   0.802   6.943  11.000
 2556TIP3   OH229082   0.588   6.549  11.089
 2556TIP3    H129083   0.625   6.542  11.001
 2556TIP3    H229084   0.628   6.628  11.126
 2557TIP3   OH229085   1.261   7.110  11.196
 2557TIP3    H129086   1.242   7.148  11.282
 2557TIP3    H229087   1.214   7.027  11.195
 2558TIP3   OH229088   0.701   6.990  11.518
 2558TIP3    H129089   0.645   7.047  11.570
 2558TIP3    H229090   0.649   6.968  11.440
 2559TIP3   OH229091   0.387   6.593  11.486
 2559TIP3    H129092   0.393   6.661  11.553
 2559TIP3    H229093   0.334   6.632  11.417
 2560TIP3   OH229094   1.065   7.203  10.602
 2560TIP3    H129095   0.994   7.233  10.659
 2560TIP3    H229096   1.033   7.219  10.513
 2561TIP3   OH229097   0.535   7.191  11.618
 2561TIP3    H129098   0.534   7.223  11.528
 2561TIP3    H229099   0.443   7.177  11.640
 2562TIP3   OH229100   0.411   6.639  10.468
 2562TIP3    H129101   0.371   6.710  10.418
 2562TIP3    H229102   0.424   6.569  10.404
 2563TIP3   OH229103   0.188   6.770  11.349
 2563TIP3    H129104   0.158   6.760  11.259
 2563TIP3    H229105   0.133   6.710  11.399
 2564TIP3   OH229106   0.146   7.178  11.043
 2564TIP3    H129107   0.185   7.093  11.021
 2564TIP3    H229108   0.052   7.161  11.046
 2565TIP3   OH229109   1.887   7.142  11.647
 2565TIP3    H129110   1.861   7.051  11.636
 2565TIP3    H229111   1.805   7.189  11.663
 2566TIP3   OH229112   0.949   7.104  11.511
 2566TIP3    H129113   0.930   7.171  11.576
 2566TIP3    H229114   0.867   7.055  11.502
 2567TIP3   OH229115   1.584   6.311  11.677
 2567TIP3    H129116   1.515   6.368  11.642
 2567TIP3    H229117   1.572   6.228  11.630
 2568TIP3   OH229118   0.304   6.975  11.485
 2568TIP3    H129119   0.340   6.918  11.553
 2568TIP3    H229120   0.248   6.917  11.433
 2569TIP3   OH229121   0.547   5.805  11.061
 2569TIP3    H129122   0.471   5.800  11.003
 2569TIP3    H229123   0.526   5.877  11.121
 2570TIP3   OH229124   1.031   5.769  11.396
 2570TIP3    H129125   1.077   5.724  11.466
 2570TIP3    H229126   0.938   5.761  11.418
 2571TIP3   OH229127   1.322   6.145  11.472
 2571TIP3    H129128   1.264   6.142  11.548
 2571TIP3    H229129   1.327   6.238  11.450
 2572TIP3   OH229130   0.568   6.302  11.194
 2572TIP3    H129131   0.502   6.312  11.263
 2572TIP3    H229132   0.583   6.390  11.162
 2573TIP3   OH229133   0.580   6.327  10.657
 2573TIP3    H129134   0.486   6.318  10.639
 2573TIP3    H229135   0.621   6.332  10.570
 2574TIP3   OH229136   1.172   6.382  10.527
 2574TIP3    H129137   1.095   6.405  10.475
 2574TIP3    H229138   1.238   6.357  10.463
 2575TIP3   OH229139   1.025   6.363  11.651
 2575TIP3    H129140   0.981   6.288  11.691
 2575TIP3    H229141   1.109   6.368  11.697
 2576TIP3   OH229142   1.199   6.296  10.793
 2576TIP3    H129143   1.179   6.349  10.715
 2576TIP3    H229144   1.241   6.217  10.758
 2577TIP3   OH229145   0.343   6.328  11.353
 2577TIP3    H129146   0.340   6.391  11.424
 2577TIP3    H229147   0.302   6.249  11.389
 2578TIP3   OH229148   0.042   6.108  10.710
 2578TIP3    H129149   0.086   6.088  10.793
 2578TIP3    H229150   0.010   6.023  10.680
 2579TIP3   OH229151   0.057   6.185  10.250
 2579TIP3    H129152   0.084   6.153  10.164
 2579TIP3    H229153   0.038   6.278  10.238
 2580TIP3   OH229154   1.130   6.449  11.254
 2580TIP3    H129155   1.168   6.390  11.188
 2580TIP3    H229156   1.072   6.393  11.305
 2581TIP3   OH229157   0.836   6.013  10.791
 2581TIP3    H129158   0.748   6.046  10.810
 2581TIP3    H229159   0.883   6.020  10.874
 2582TIP3   OH229160   0.314   6.251  10.629
 2582TIP3    H129161   0.247   6.298  10.579
 2582TIP3    H229162   0.307   6.160  10.600
 2583TIP3   OH229163   0.699   6.342  10.410
 2583TIP3    H129164   0.761   6.299  10.352
 2583TIP3    H229165   0.681   6.426  10.369
 2584TIP3   OH229166   1.251   6.001  11.088
 2584TIP3    H129167   1.209   6.008  11.173
 2584TIP3    H229168   1.186   5.957  11.033
 2585TIP3   OH229169   0.376   6.794  11.681
 2585TIP3    H129170   0.437   6.794  11.755
 2585TIP3    H229171   0.290   6.806  11.722
 2586TIP3   OH229172   0.937   6.360  10.943
 2586TIP3    H129173   1.009   6.314  10.899
 2586TIP3    H229174   0.911   6.302  11.014
 2587TIP3   OH229175   0.435   5.953  10.625
 2587TIP3    H129176   0.374   5.880  10.638
 2587TIP3    H229177   0.506   5.916  10.572
 2588TIP3   OH229178   0.828   6.212  11.166
 2588TIP3    H129179   0.743   6.253  11.178
 2588TIP3    H229180   0.878   6.240  11.243
 2589TIP3   OH229181   1.582   6.740  11.200
 2589TIP3    H129182   1.639   6.789  11.140
 2589TIP3    H229183   1.509   6.711  11.146
 2590TIP3   OH229184   1.182   6.132  10.185
 2590TIP3    H129185   1.117   6.185  10.138
 2590TIP3    H229186   1.247   6.195  10.215
 2591TIP3   OH229187   1.011   6.819  11.512
 2591TIP3    H129188   1.031   6.771  11.592
 2591TIP3    H229189   1.005   6.910  11.539
 2592TIP3   OH229190   1.371   6.318  10.323
 2592TIP3    H129191   1.424   6.281  10.393
 2592TIP3    H229192   1.429   6.321  10.247
 2593TIP3   OH229193   0.409   6.760  10.927
 2593TIP3    H129194   0.462   6.747  10.848
 2593TIP3    H229195   0.340   6.694  10.920
 2594TIP3   OH229196   0.069   6.572  11.493
 2594TIP3    H129197   0.102   6.548  11.580
 2594TIP3    H229198   0.035   6.490  11.457
 2595TIP3   OH229199   0.806   6.536  11.682
 2595TIP3    H129200   0.744   6.500  11.618
 2595TIP3    H229201   0.890   6.495  11.659
 2596TIP3   OH229202   1.211   7.166  11.462
 2596TIP3    H129203   1.123   7.130  11.462
 2596TIP3    H229204   1.242   7.154  11.552
 2597TIP3   OH229205   1.758   6.329  10.328
 2597TIP3    H129206   1.706   6.304  10.252
 2597TIP3    H229207   1.773   6.423  10.316
 2598TIP3   OH229208   1.830   6.872  11.585
 2598TIP3    H129209   1.743   6.890  11.549
 2598TIP3    H229210   1.886   6.862  11.508
 2599TIP3   OH229211   1.368   6.650  11.029
 2599TIP3    H129212   1.273   6.641  11.036
 2599TIP3    H229213   1.397   6.571  10.984
 2600TIP3   OH229214   0.638   7.125  10.651
 2600TIP3    H129215   0.704   7.190  10.675
 2600TIP3    H229216   0.566   7.138  10.713
 2601TIP3   OH229217   0.765   6.884  10.688
 2601TIP3    H129218   0.716   6.960  10.659
 2601TIP3    H229219   0.701   6.813  10.688
 2602TIP3   OH229220   0.847   7.251  11.201
 2602TIP3    H129221   0.847   7.313  11.273
 2602TIP3    H229222   0.886   7.172  11.237
 2603TIP3   OH229223   1.138   6.868  11.270
 2603TIP3    H129224   1.077   6.847  11.341
 2603TIP3    H229225   1.224   6.845  11.305
 2604TIP3   OH229226   0.240   6.056  11.439
 2604TIP3    H129227   0.148   6.072  11.459
 2604TIP3    H229228   0.262   5.975  11.486
 2605TIP3   OH229229   0.263   7.277  11.351
 2605TIP3    H129230   0.238   7.187  11.333
 2605TIP3    H229231   0.190   7.330  11.320
 2606TIP3   OH229232   0.664   7.031  10.234
 2606TIP3    H129233   0.635   6.958  10.178
 2606TIP3    H229234   0.660   6.995  10.323
 2607TIP3   OH229235   1.123   6.020  11.330
 2607TIP3    H129236   1.197   6.039  11.387
 2607TIP3    H229237   1.093   5.934  11.357
 2608TIP3   OH229238   0.954   7.233  10.355
 2608TIP3    H129239   0.862   7.251  10.373
 2608TIP3    H229240   0.954   7.191  10.269
 2609TIP3   OH229241   0.985   6.260  11.391
 2609TIP3    H129242   0.998   6.287  11.482
 2609TIP3    H229243   1.028   6.175  11.384
 2610TIP3   OH229244   0.960   5.880  10.590
 2610TIP3    H129245   0.920   5.937  10.655
 2610TIP3    H229246   1.055   5.891  10.602
 2611TIP3   OH229247   0.701   7.314  10.435
 2611TIP3    H129248   0.634   7.245  10.434
 2611TIP3    H229249   0.717   7.329  10.528
 2612TIP3   OH229250   1.579   6.076  11.515
 2612TIP3    H129251   1.484   6.083  11.501
 2612TIP3    H229252   1.615   6.065  11.427
 2613TIP3   OH229253   1.442   6.419  10.893
 2613TIP3    H129254   1.362   6.374  10.865
 2613TIP3    H229255   1.489   6.353  10.945
 2614TIP3   OH229256   0.301   5.777  10.933
 2614TIP3    H129257   0.298   5.761  10.839
 2614TIP3    H229258   0.268   5.696  10.973
 2615TIP3   OH229259   0.125   7.217  10.520
 2615TIP3    H129260   0.053   7.169  10.560
 2615TIP3    H229261   0.093   7.242  10.433
 2616TIP3   OH229262   0.616   7.266  11.870
 2616TIP3    H129263   0.686   7.208  11.897
 2616TIP3    H229264   0.579   7.225  11.792
 2617TIP3   OH229265   1.215   7.095  11.739
 2617TIP3    H129266   1.147   7.037  11.772
 2617TIP3    H229267   1.295   7.043  11.744
 2618TIP3   OH229268   1.465   7.141  10.047
 2618TIP3    H129269   1.465   7.078   9.975
 2618TIP3    H229270   1.424   7.220  10.009
 2619TIP3   OH229271   0.102   6.820  11.746
 2619TIP3    H129272   0.102   6.724  11.739
 2619TIP3    H229273   0.043   6.849  11.677
 2620TIP3   OH229274   0.771   6.812  11.729
 2620TIP3    H129275   0.763   6.857  11.645
 2620TIP3    H229276   0.800   6.723  11.706
 2621TIP3   OH229277   1.347   6.826  11.449
 2621TIP3    H129278   1.442   6.838  11.451
 2621TIP3    H229279   1.321   6.823  11.541
 2622TIP3   OH229280   0.188   6.544  11.741
 2622TIP3    H129281   0.279   6.525  11.716
 2622TIP3    H229282   0.190   6.551  11.836
 2623TIP3   OH229283   0.697   6.569  10.252
 2623TIP3    H129284   0.657   6.646  10.212
 2623TIP3    H229285   0.699   6.504  10.182
 2624TIP3   OH229286   0.616   6.432  11.494
 2624TIP3    H129287   0.541   6.491  11.488
 2624TIP3    H229288   0.680   6.467  11.431
 2625TIP3   OH229289   1.084   6.692  11.771
 2625TIP3    H129290   1.176   6.718  11.773
 2625TIP3    H229291   1.079   6.618  11.831
 2626TIP3   OH229292   0.658   6.172  11.571
 2626TIP3    H129293   0.668   6.115  11.495
 2626TIP3    H229294   0.647   6.260  11.533
 2627TIP3   OH229295   0.688   6.016  11.336
 2627TIP3    H129296   0.743   6.063  11.273
 2627TIP3    H229297   0.600   6.018  11.298
 2628TIP3   OH229298   0.812   6.543  11.345
 2628TIP3    H129299   0.906   6.558  11.350
 2628TIP3    H229300   0.778   6.622  11.302
 2629TIP3   OH229301   1.254   6.340  11.821
 2629TIP3    H129302   1.275   6.247  11.811
 2629TIP3    H229303   1.338   6.384  11.821
 2630TIP3   OH229304   1.435   6.551  11.630
 2630TIP3    H129305   1.388   6.625  11.669
 2630TIP3    H229306   1.526   6.579  11.626
 2631TIP3   OH229307   0.503   6.234  11.797
 2631TIP3    H129308   0.422   6.185  11.785
 2631TIP3    H229309   0.549   6.227  11.713
 2632TIP3   OH229310   0.751   5.749  11.397
 2632TIP3    H129311   0.730   5.841  11.380
 2632TIP3    H229312   0.681   5.701  11.352
 2633TIP3   OH229313   0.882   6.143  11.731
 2633TIP3    H129314   0.839   6.123  11.814
 2633TIP3    H229315   0.810   6.147  11.667
 2634TIP3   OH229316   1.155   6.088  11.678
 2634TIP3    H129317   1.062   6.083  11.701
 2634TIP3    H229318   1.198   6.027  11.736
 2635TIP3   OH229319   1.321   5.955  11.859
 2635TIP3    H129320   1.301   5.862  11.846
 2635TIP3    H229321   1.285   5.976  11.945
 2636TIP3   OH229322   0.296   6.045  11.764
 2636TIP3    H129323   0.298   5.972  11.702
 2636TIP3    H229324   0.310   6.005  11.849
 2637TIP3   OH229325   0.732   5.625  11.644
 2637TIP3    H129326   0.811   5.571  11.644
 2637TIP3    H229327   0.736   5.675  11.563
 2638TIP3   OH229328   0.702   5.827  11.878
 2638TIP3    H129329   0.789   5.797  11.854
 2638TIP3    H229330   0.710   5.922  11.885
 2639TIP3   OH229331   1.668   6.922  11.859
 2639TIP3    H129332   1.577   6.915  11.828
 2639TIP3    H229333   1.676   7.014  11.885
 2640TIP3   OH229334   1.826   6.566  10.606
 2640TIP3    H129335   1.735   6.542  10.623
 2640TIP3    H229336   1.864   6.579  10.693
 2641TIP3   OH229337   1.797   6.876  11.088
 2641TIP3    H129338   1.851   6.800  11.067
 2641TIP3    H229339   1.850   6.952  11.064
 2642TIP3   OH229340   1.547   7.157  11.324
 2642TIP3    H129341   1.455   7.150  11.351
 2642TIP3    H229342   1.545   7.137  11.230
 2643TIP3   OH229343   1.802   6.594  10.247
 2643TIP3    H129344   1.788   6.617  10.155
 2643TIP3    H229345   1.897   6.587  10.256
 2644TIP3   OH229346   1.567   6.466  10.649
 2644TIP3    H129347   1.565   6.380  10.607
 2644TIP3    H229348   1.529   6.451  10.735
 2645TIP3   OH229349   0.100   6.672  11.091
 2645TIP3    H129350   0.104   6.677  10.996
 2645TIP3    H229351   0.182   6.630  11.116
 2646TIP3   OH229352   1.697   6.628  11.631
 2646TIP3    H129353   1.761   6.559  11.613
 2646TIP3    H229354   1.742   6.709  11.611
 2647TIP3   OH229355   1.837   6.394  11.616
 2647TIP3    H129356   1.748   6.368  11.640
 2647TIP3    H229357   1.891   6.318  11.638
 2648TIP3   OH229358   1.568   6.222  10.501
 2648TIP3    H129359   1.587   6.128  10.506
 2648TIP3    H229360   1.640   6.258  10.449
 2649TIP3   OH229361   1.597   6.235  11.041
 2649TIP3    H129362   1.689   6.248  11.018
 2649TIP3    H229363   1.592   6.256  11.134
 2650TIP3   OH229364   1.626   6.320  11.309
 2650TIP3    H129365   1.540   6.349  11.341
 2650TIP3    H229366   1.675   6.401  11.297
 2651TIP3   OH229367   0.078   6.212  11.740
 2651TIP3    H129368   0.160   6.163  11.729
 2651TIP3    H229369   0.022   6.154  11.792
 2652TIP3   OH229370   1.869   5.752  11.846
 2652TIP3    H129371   1.931   5.693  11.803
 2652TIP3    H229372   1.855   5.822  11.783
 2653TIP3   OH229373   1.601   5.951  10.521
 2653TIP3    H129374   1.634   5.893  10.589
 2653TIP3    H229375   1.536   5.899  10.473
 2654TIP3   OH229376   0.175   6.023  10.956
 2654TIP3    H129377   0.213   5.935  10.955
 2654TIP3    H229378   0.250   6.080  10.975
 2655TIP3   OH229379   0.034   6.390  11.092
 2655TIP3    H129380   0.094   6.371  11.020
 2655TIP3    H229381   0.032   6.486  11.096
 2656TIP3   OH229382   1.784   5.933  11.663
 2656TIP3    H129383   1.708   5.977  11.702
 2656TIP3    H229384   1.750   5.897  11.580
 2657TIP3   OH229385   0.145   5.938  10.380
 2657TIP3    H129386   0.081   5.938  10.451
 2657TIP3    H229387   0.127   6.018  10.331
 2658TIP3   OH229388   0.046   5.800  11.327
 2658TIP3    H129389   0.021   5.870  11.387
 2658TIP3    H229390  -0.013   5.810  11.253
 2659TIP3   OH229391   0.269   7.169  11.690
 2659TIP3    H129392   0.256   7.109  11.617
 2659TIP3    H229393   0.182   7.182  11.727
 2660TIP3   OH229394   0.539   7.276  11.353
 2660TIP3    H129395   0.444   7.287  11.344
 2660TIP3    H229396   0.564   7.225  11.276
 2661TIP3   OH229397   1.694   5.748  11.459
 2661TIP3    H129398   1.632   5.783  11.395
 2661TIP3    H229399   1.704   5.656  11.435
 2662TIP3   OH229400   0.470   7.210  10.854
 2662TIP3    H129401   0.448   7.138  10.913
 2662TIP3    H229402   0.500   7.281  10.912
 2663TIP3   OH229403   1.051   5.872  10.942
 2663TIP3    H129404   0.976   5.815  10.931
 2663TIP3    H229405   1.117   5.837  10.882
 2664TIP3   OH229406   1.527   5.705  10.888
 2664TIP3    H129407   1.599   5.750  10.844
 2664TIP3    H229408   1.457   5.770  10.894
 2665TIP3   OH229409   1.721   5.791  10.718
 2665TIP3    H129410   1.788   5.732  10.685
 2665TIP3    H229411   1.769   5.871  10.742
 2666TIP3   OH229412   0.287   5.720  10.660
 2666TIP3    H129413   0.204   5.708  10.615
 2666TIP3    H229414   0.330   5.634  10.654
 2667TIP3   OH229415   0.763   5.698  10.667
 2667TIP3    H129416   0.829   5.758  10.633
 2667TIP3    H229417   0.770   5.706  10.762
 2668TIP3   OH229418   1.241   5.751  10.786
 2668TIP3    H129419   1.300   5.735  10.712
 2668TIP3    H229420   1.221   5.664  10.821
 2669TIP3   OH229421   1.416   5.777  10.408
 2669TIP3    H129422   1.434   5.790  10.315
 2669TIP3    H229423   1.428   5.683  10.422
 2670TIP3   OH229424   0.292   5.809  11.607
 2670TIP3    H129425   0.231   5.742  11.637
 2670TIP3    H229426   0.375   5.788  11.651
 2671TIP3   OH229427   0.478   5.709  11.785
 2671TIP3    H129428   0.566   5.747  11.793
 2671TIP3    H229429   0.493   5.615  11.778
 2672TIP3   OH229430   1.350   5.680  11.792
 2672TIP3    H129431   1.340   5.647  11.881
 2672TIP3    H229432   1.444   5.676  11.774
 2673TIP3   OH229433   1.656   7.282  11.685
 2673TIP3    H129434   1.576   7.267  11.735
 2673TIP3    H229435   1.626   7.323  11.604
 2674TIP3   OH229436   3.046   6.676  10.615
 2674TIP3    H129437   3.025   6.769  10.623
 2674TIP3    H229438   2.986   6.643  10.548
 2675TIP3   OH229439   2.963   6.603  11.043
 2675TIP3    H129440   2.988   6.556  11.123
 2675TIP3    H229441   2.917   6.538  10.990
 2676TIP3   OH229442   2.180   6.541  11.181
 2676TIP3    H129443   2.189   6.467  11.242
 2676TIP3    H229444   2.268   6.556  11.148
 2677TIP3   OH229445   3.333   6.915  10.860
 2677TIP3    H129446   3.299   6.837  10.902
 2677TIP3    H229447   3.361   6.971  10.932
 2678TIP3   OH229448   2.299   7.000  10.989
 2678TIP3    H129449   2.281   6.910  10.963
 2678TIP3    H229450   2.391   7.001  11.013
 2679TIP3   OH229451   1.962   6.338  10.527
 2679TIP3    H129452   1.927   6.423  10.552
 2679TIP3    H229453   1.908   6.310  10.453
 2680TIP3   OH229454   2.005   6.577  10.823
 2680TIP3    H129455   2.034   6.486  10.832
 2680TIP3    H229456   2.083   6.624  10.794
 2681TIP3   OH229457   2.802   6.858  11.073
 2681TIP3    H129458   2.834   6.787  11.017
 2681TIP3    H229459   2.876   6.881  11.129
 2682TIP3   OH229460   3.693   5.990  11.154
 2682TIP3    H129461   3.710   6.065  11.212
 2682TIP3    H229462   3.737   6.011  11.073
 2683TIP3   OH229463   3.109   6.266  11.064
 2683TIP3    H129464   3.132   6.173  11.074
 2683TIP3    H229465   3.097   6.277  10.970
 2684TIP3   OH229466   2.463   6.091  10.798
 2684TIP3    H129467   2.483   6.173  10.753
 2684TIP3    H229468   2.416   6.039  10.734
 2685TIP3   OH229469   3.235   6.117  10.647
 2685TIP3    H129470   3.278   6.082  10.725
 2685TIP3    H229471   3.306   6.155  10.595
 2686TIP3   OH229472   2.098   6.320  10.868
 2686TIP3    H129473   2.167   6.282  10.923
 2686TIP3    H229474   2.124   6.297  10.778
 2687TIP3   OH229475   2.577   6.472  10.856
 2687TIP3    H129476   2.666   6.443  10.878
 2687TIP3    H229477   2.549   6.413  10.786
 2688TIP3   OH229478   3.730   6.162  11.381
 2688TIP3    H129479   3.658   6.220  11.356
 2688TIP3    H229480   3.745   6.181  11.473
 2689TIP3   OH229481   2.324   5.999  11.220
 2689TIP3    H129482   2.304   6.057  11.147
 2689TIP3    H229483   2.251   6.013  11.281
 2690TIP3   OH229484   2.963   6.945  10.577
 2690TIP3    H129485   2.970   6.942  10.482
 2690TIP3    H229486   2.959   7.038  10.599
 2691TIP3   OH229487   2.586   6.756  11.208
 2691TIP3    H129488   2.532   6.825  11.246
 2691TIP3    H229489   2.656   6.802  11.163
 2692TIP3   OH229490   3.339   6.058  10.894
 2692TIP3    H129491   3.282   6.024  10.963
 2692TIP3    H229492   3.401   6.114  10.941
 2693TIP3   OH229493   2.295   6.168  11.002
 2693TIP3    H129494   2.352   6.225  11.054
 2693TIP3    H229495   2.351   6.137  10.931
 2694TIP3   OH229496   2.428   6.951  11.322
 2694TIP3    H129497   2.436   7.043  11.297
 2694TIP3    H229498   2.338   6.942  11.353
 2695TIP3   OH229499   3.376   7.123  11.074
 2695TIP3    H129500   3.282   7.128  11.090
 2695TIP3    H229501   3.394   7.192  11.010
 2696TIP3   OH229502   3.439   5.890  11.244
 2696TIP3    H129503   3.367   5.930  11.196
 2696TIP3    H229504   3.518   5.918  11.197
 2697TIP3   OH229505   2.690   5.697  10.974
 2697TIP3    H129506   2.660   5.606  10.971
 2697TIP3    H229507   2.614   5.746  11.003
 2698TIP3   OH229508   3.218   7.251  10.699
 2698TIP3    H129509   3.246   7.169  10.658
 2698TIP3    H229510   3.288   7.272  10.761
 2699TIP3   OH229511   3.328   7.023  10.597
 2699TIP3    H129512   3.346   6.958  10.529
 2699TIP3    H229513   3.336   6.975  10.679
 2700TIP3   OH229514   3.516   6.853  11.436
 2700TIP3    H129515   3.494   6.811  11.353
 2700TIP3    H229516   3.512   6.947  11.418
 2701TIP3   OH229517   2.888   6.586  10.402
 2701TIP3    H129518   2.828   6.519  10.369
 2701TIP3    H229519   2.902   6.645  10.328
 2702TIP3   OH229520   3.652   6.559  11.272
 2702TIP3    H129521   3.581   6.620  11.256
 2702TIP3    H229522   3.712   6.571  11.199
 2703TIP3   OH229523   3.293   6.622  10.497
 2703TIP3    H129524   3.211   6.632  10.545
 2703TIP3    H229525   3.347   6.567  10.553
 2704TIP3   OH229526   3.263   6.433  11.431
 2704TIP3    H129527   3.265   6.516  11.478
 2704TIP3    H229528   3.195   6.445  11.364
 2705TIP3   OH229529   2.438   6.679  10.699
 2705TIP3    H129530   2.411   6.655  10.610
 2705TIP3    H229531   2.494   6.607  10.727
 2706TIP3   OH229532   2.594   7.034  10.974
 2706TIP3    H129533   2.585   7.002  10.884
 2706TIP3    H229534   2.667   6.984  11.010
 2707TIP3   OH229535   2.436   6.571  11.071
 2707TIP3    H129536   2.487   6.543  10.995
 2707TIP3    H229537   2.492   6.634  11.116
 2708TIP3   OH229538   3.113   7.123  11.151
 2708TIP3    H129539   3.106   7.161  11.239
 2708TIP3    H229540   3.081   7.034  11.161
 2709TIP3   OH229541   2.583   6.985  11.552
 2709TIP3    H129542   2.523   7.052  11.586
 2709TIP3    H229543   2.541   6.955  11.471
 2710TIP3   OH229544   2.257   6.585  11.518
 2710TIP3    H129545   2.265   6.672  11.557
 2710TIP3    H229546   2.169   6.583  11.482
 2711TIP3   OH229547   2.954   7.229  10.614
 2711TIP3    H129548   3.043   7.238  10.648
 2711TIP3    H229549   2.925   7.318  10.597
 2712TIP3   OH229550   2.390   7.176  11.583
 2712TIP3    H129551   2.380   7.196  11.490
 2712TIP3    H229552   2.301   7.175  11.617
 2713TIP3   OH229553   2.358   6.612  10.439
 2713TIP3    H129554   2.434   6.612  10.381
 2713TIP3    H229555   2.298   6.549  10.400
 2714TIP3   OH229556   3.730   7.193  10.037
 2714TIP3    H129557   3.708   7.245  10.114
 2714TIP3    H229558   3.779   7.118  10.071
 2715TIP3   OH229559   1.968   6.826  11.354
 2715TIP3    H129560   1.925   6.827  11.268
 2715TIP3    H229561   1.985   6.733  11.371
 2716TIP3   OH229562   1.995   7.063  11.031
 2716TIP3    H129563   2.081   7.032  11.002
 2716TIP3    H229564   2.014   7.126  11.101
 2717TIP3   OH229565   3.754   7.173  11.681
 2717TIP3    H129566   3.747   7.082  11.652
 2717TIP3    H229567   3.664   7.206  11.677
 2718TIP3   OH229568   2.824   7.109  11.514
 2718TIP3    H129569   2.873   7.115  11.596
 2718TIP3    H229570   2.741   7.068  11.540
 2719TIP3   OH229571   3.438   6.310  11.654
 2719TIP3    H129572   3.380   6.349  11.587
 2719TIP3    H229573   3.448   6.219  11.626
 2720TIP3   OH229574   2.176   6.986  11.436
 2720TIP3    H129575   2.199   6.944  11.518
 2720TIP3    H229576   2.100   6.937  11.404
 2721TIP3   OH229577   2.439   5.799  11.062
 2721TIP3    H129578   2.365   5.793  11.001
 2721TIP3    H229579   2.418   5.874  11.117
 2722TIP3   OH229580   2.910   5.772  11.400
 2722TIP3    H129581   2.955   5.724  11.469
 2722TIP3    H229582   2.817   5.762  11.421
 2723TIP3   OH229583   3.208   6.159  11.472
 2723TIP3    H129584   3.144   6.148  11.542
 2723TIP3    H229585   3.211   6.253  11.457
 2724TIP3   OH229586   2.865   6.008  10.081
 2724TIP3    H129587   2.820   5.991  10.164
 2724TIP3    H229588   2.917   5.930  10.065
 2725TIP3   OH229589   2.447   6.317  11.180
 2725TIP3    H129590   2.381   6.319  11.249
 2725TIP3    H229591   2.450   6.407  11.147
 2726TIP3   OH229592   2.475   6.322  10.646
 2726TIP3    H129593   2.383   6.311  10.624
 2726TIP3    H229594   2.520   6.325  10.562
 2727TIP3   OH229595   2.985   6.358  10.532
 2727TIP3    H129596   2.948   6.438  10.495
 2727TIP3    H229597   3.038   6.321  10.462
 2728TIP3   OH229598   2.910   6.361  11.661
 2728TIP3    H129599   2.861   6.287  11.697
 2728TIP3    H229600   2.996   6.356  11.704
 2729TIP3   OH229601   3.080   6.299  10.791
 2729TIP3    H129602   3.043   6.350  10.720
 2729TIP3    H229603   3.125   6.226  10.748
 2730TIP3   OH229604   2.231   6.323  11.350
 2730TIP3    H129605   2.242   6.362  11.437
 2730TIP3    H229606   2.190   6.238  11.368
 2731TIP3   OH229607   1.881   6.003  10.763
 2731TIP3    H129608   1.940   6.031  10.832
 2731TIP3    H229609   1.917   6.042  10.683
 2732TIP3   OH229610   2.048   6.139  10.272
 2732TIP3    H129611   2.121   6.152  10.212
 2732TIP3    H229612   1.981   6.200  10.243
 2733TIP3   OH229613   3.037   6.437  11.259
 2733TIP3    H129614   3.069   6.380  11.189
 2733TIP3    H229615   2.974   6.384  11.307
 2734TIP3   OH229616   2.751   6.034  10.770
 2734TIP3    H129617   2.663   6.043  10.806
 2734TIP3    H229618   2.803   6.002  10.844
 2735TIP3   OH229619   2.203   6.243  10.622
 2735TIP3    H129620   2.125   6.269  10.573
 2735TIP3    H229621   2.222   6.154  10.592
 2736TIP3   OH229622   3.145   5.990  11.090
 2736TIP3    H129623   3.098   6.000  11.173
 2736TIP3    H229624   3.081   5.950  11.032
 2737TIP3   OH229625   2.247   6.829  11.666
 2737TIP3    H129626   2.314   6.822  11.733
 2737TIP3    H229627   2.164   6.830  11.714
 2738TIP3   OH229628   2.823   6.365  10.946
 2738TIP3    H129629   2.893   6.327  10.892
 2738TIP3    H229630   2.802   6.297  11.009
 2739TIP3   OH229631   2.315   5.980  10.592
 2739TIP3    H129632   2.275   5.893  10.602
 2739TIP3    H229633   2.359   5.975  10.507
 2740TIP3   OH229634   2.703   6.208  11.176
 2740TIP3    H129635   2.621   6.256  11.179
 2740TIP3    H229636   2.754   6.242  11.249
 2741TIP3   OH229637   3.462   6.740  11.191
 2741TIP3    H129638   3.524   6.794  11.142
 2741TIP3    H229639   3.389   6.725  11.130
 2742TIP3   OH229640   3.106   6.146  10.255
 2742TIP3    H129641   3.030   6.181  10.208
 2742TIP3    H229642   3.178   6.205  10.233
 2743TIP3   OH229643   2.957   6.847  11.501
 2743TIP3    H129644   2.948   6.800  11.584
 2743TIP3    H229645   2.898   6.922  11.510
 2744TIP3   OH229646   2.273   6.738  10.909
 2744TIP3    H129647   2.324   6.725  10.829
 2744TIP3    H229648   2.311   6.677  10.971
 2745TIP3   OH229649   1.984   6.564  11.451
 2745TIP3    H129650   1.959   6.515  11.530
 2745TIP3    H229651   1.917   6.541  11.387
 2746TIP3   OH229652   2.698   6.540  11.676
 2746TIP3    H129653   2.635   6.502  11.614
 2746TIP3    H229654   2.780   6.493  11.659
 2747TIP3   OH229655   3.079   7.186  11.417
 2747TIP3    H129656   3.004   7.139  11.453
 2747TIP3    H229657   3.153   7.162  11.472
 2748TIP3   OH229658   3.653   6.310  10.301
 2748TIP3    H129659   3.592   6.288  10.231
 2748TIP3    H229660   3.688   6.396  10.276
 2749TIP3   OH229661   3.735   6.911  11.600
 2749TIP3    H129662   3.642   6.897  11.579
 2749TIP3    H229663   3.781   6.891  11.519
 2750TIP3   OH229664   3.451   7.205  10.315
 2750TIP3    H129665   3.478   7.152  10.390
 2750TIP3    H229666   3.396   7.147  10.263
 2751TIP3   OH229667   3.246   6.679  11.013
 2751TIP3    H129668   3.151   6.669  11.006
 2751TIP3    H229669   3.282   6.601  10.970
 2752TIP3   OH229670   2.423   7.187  10.593
 2752TIP3    H129671   2.491   7.253  10.611
 2752TIP3    H229672   2.460   7.105  10.627
 2753TIP3   OH229673   2.066   6.575  10.184
 2753TIP3    H129674   2.145   6.528  10.161
 2753TIP3    H229675   2.031   6.607  10.101
 2754TIP3   OH229676   2.555   6.936  10.715
 2754TIP3    H129677   2.629   6.928  10.654
 2754TIP3    H229678   2.512   6.851  10.710
 2755TIP3   OH229679   2.718   7.235  11.279
 2755TIP3    H129680   2.789   7.262  11.220
 2755TIP3    H229681   2.761   7.183  11.346
 2756TIP3   OH229682   3.030   6.869  11.233
 2756TIP3    H129683   3.010   6.853  11.325
 2756TIP3    H229684   3.096   6.803  11.210
 2757TIP3   OH229685   3.259   7.025  10.207
 2757TIP3    H129686   3.301   6.960  10.262
 2757TIP3    H229687   3.185   6.979  10.167
 2758TIP3   OH229688   2.114   6.066  11.391
 2758TIP3    H129689   2.023   6.092  11.376
 2758TIP3    H229690   2.109   6.002  11.462
 2759TIP3   OH229691   3.392   6.848  10.379
 2759TIP3    H129692   3.349   6.769  10.411
 2759TIP3    H229693   3.485   6.824  10.372
 2760TIP3   OH229694   2.087   7.231  11.228
 2760TIP3    H129695   2.123   7.174  11.296
 2760TIP3    H229696   2.039   7.299  11.277
 2761TIP3   OH229697   2.253   6.883  10.338
 2761TIP3    H129698   2.259   6.797  10.379
 2761TIP3    H229699   2.331   6.889  10.283
 2762TIP3   OH229700   3.009   6.021  11.330
 2762TIP3    H129701   3.081   6.040  11.390
 2762TIP3    H229702   2.975   5.936  11.359
 2763TIP3   OH229703   3.088   5.966  10.463
 2763TIP3    H129704   3.090   6.020  10.384
 2763TIP3    H229705   3.131   6.019  10.529
 2764TIP3   OH229706   2.785   6.156  10.523
 2764TIP3    H129707   2.836   6.236  10.515
 2764TIP3    H229708   2.780   6.140  10.618
 2765TIP3   OH229709   2.872   6.263  11.393
 2765TIP3    H129710   2.884   6.283  11.486
 2765TIP3    H229711   2.912   6.176  11.382
 2766TIP3   OH229712   2.850   5.855  10.554
 2766TIP3    H129713   2.817   5.929  10.606
 2766TIP3    H229714   2.934   5.886  10.520
 2767TIP3   OH229715   2.433   5.961  10.343
 2767TIP3    H129716   2.388   5.967  10.259
 2767TIP3    H229717   2.525   5.977  10.322
 2768TIP3   OH229718   3.459   6.064  11.513
 2768TIP3    H129719   3.366   6.081  11.498
 2768TIP3    H229720   3.493   6.041  11.426
 2769TIP3   OH229721   3.323   6.428  10.902
 2769TIP3    H129722   3.242   6.385  10.873
 2769TIP3    H229723   3.368   6.361  10.954
 2770TIP3   OH229724   2.191   5.778  10.933
 2770TIP3    H129725   2.171   5.781  10.839
 2770TIP3    H229726   2.157   5.693  10.962
 2771TIP3   OH229727   2.115   7.172  10.535
 2771TIP3    H129728   2.097   7.097  10.592
 2771TIP3    H229729   2.204   7.157  10.504
 2772TIP3   OH229730   2.509   7.266  11.909
 2772TIP3    H129731   2.538   7.177  11.931
 2772TIP3    H229732   2.564   7.292  11.836
 2773TIP3   OH229733   3.003   7.118  11.718
 2773TIP3    H129734   2.993   7.045  11.780
 2773TIP3    H229735   3.095   7.114  11.692
 2774TIP3   OH229736   2.002   6.823  11.800
 2774TIP3    H129737   2.010   6.728  11.796
 2774TIP3    H229738   1.928   6.844  11.742
 2775TIP3   OH229739   2.663   6.807  11.747
 2775TIP3    H129740   2.641   6.855  11.667
 2775TIP3    H229741   2.686   6.719  11.717
 2776TIP3   OH229742   3.236   6.776  11.485
 2776TIP3    H129743   3.311   6.835  11.491
 2776TIP3    H229744   3.160   6.834  11.495
 2777TIP3   OH229745   2.087   6.560  11.770
 2777TIP3    H129746   2.169   6.535  11.726
 2777TIP3    H229747   2.106   6.549  11.863
 2778TIP3   OH229748   2.493   6.432  11.498
 2778TIP3    H129749   2.419   6.493  11.499
 2778TIP3    H229750   2.553   6.469  11.433
 2779TIP3   OH229751   3.011   6.663  11.786
 2779TIP3    H129752   3.095   6.630  11.752
 2779TIP3    H229753   2.981   6.594  11.845
 2780TIP3   OH229754   2.538   6.173  11.574
 2780TIP3    H129755   2.549   6.115  11.498
 2780TIP3    H229756   2.527   6.260  11.536
 2781TIP3   OH229757   2.571   6.015  11.339
 2781TIP3    H129758   2.627   6.063  11.278
 2781TIP3    H229759   2.485   6.014  11.298
 2782TIP3   OH229760   2.687   6.542  11.345
 2782TIP3    H129761   2.782   6.539  11.333
 2782TIP3    H229762   2.659   6.619  11.297
 2783TIP3   OH229763   3.145   6.329  11.822
 2783TIP3    H129764   3.171   6.239  11.842
 2783TIP3    H229765   3.227   6.372  11.798
 2784TIP3   OH229766   3.274   6.604  11.686
 2784TIP3    H129767   3.246   6.670  11.623
 2784TIP3    H229768   3.369   6.601  11.678
 2785TIP3   OH229769   2.373   6.235  11.794
 2785TIP3    H129770   2.294   6.183  11.781
 2785TIP3    H229771   2.422   6.226  11.712
 2786TIP3   OH229772   2.628   5.750  11.404
 2786TIP3    H129773   2.611   5.842  11.382
 2786TIP3    H229774   2.561   5.701  11.356
 2787TIP3   OH229775   2.762   6.144  11.739
 2787TIP3    H129776   2.724   6.117  11.823
 2787TIP3    H229777   2.687   6.148  11.679
 2788TIP3   OH229778   3.025   6.081  11.654
 2788TIP3    H129779   2.938   6.083  11.694
 2788TIP3    H229780   3.078   6.030  11.715
 2789TIP3   OH229781   3.216   5.958  11.819
 2789TIP3    H129782   3.206   5.863  11.819
 2789TIP3    H229783   3.186   5.986  11.905
 2790TIP3   OH229784   2.174   6.035  11.761
 2790TIP3    H129785   2.179   5.956  11.708
 2790TIP3    H229786   2.185   6.004  11.851
 2791TIP3   OH229787   2.618   5.670  11.665
 2791TIP3    H129788   2.679   5.596  11.660
 2791TIP3    H229789   2.615   5.705  11.576
 2792TIP3   OH229790   2.702   5.834  11.873
 2792TIP3    H129791   2.678   5.783  11.796
 2792TIP3    H229792   2.641   5.908  11.872
 2793TIP3   OH229793   3.525   6.952  11.856
 2793TIP3    H129794   3.454   6.984  11.800
 2793TIP3    H229795   3.553   7.028  11.905
 2794TIP3   OH229796   3.662   6.755  10.390
 2794TIP3    H129797   3.734   6.814  10.410
 2794TIP3    H229798   3.666   6.688  10.459
 2795TIP3   OH229799   3.703   6.568  10.595
 2795TIP3    H129800   3.616   6.537  10.623
 2795TIP3    H229801   3.748   6.588  10.677
 2796TIP3   OH229802   3.713   6.859  11.126
 2796TIP3    H129803   3.756   6.792  11.073
 2796TIP3    H229804   3.742   6.942  11.089
 2797TIP3   OH229805   3.476   7.132  11.348
 2797TIP3    H129806   3.399   7.120  11.403
 2797TIP3    H229807   3.443   7.125  11.258
 2798TIP3   OH229808   3.749   6.550  10.208
 2798TIP3    H129809   3.753   6.569  10.114
 2798TIP3    H229810   3.707   6.626  10.246
 2799TIP3   OH229811   3.456   6.458  10.659
 2799TIP3    H129812   3.456   6.369  10.623
 2799TIP3    H229813   3.415   6.449  10.745
 2800TIP3   OH229814   1.953   6.651  11.079
 2800TIP3    H129815   1.962   6.632  10.986
 2800TIP3    H229816   2.037   6.624  11.117
 2801TIP3   OH229817   3.540   6.640  11.624
 2801TIP3    H129818   3.607   6.578  11.596
 2801TIP3    H229819   3.539   6.707  11.556
 2802TIP3   OH229820   3.695   6.406  11.616
 2802TIP3    H129821   3.606   6.376  11.633
 2802TIP3    H229822   3.751   6.334  11.645
 2803TIP3   OH229823   3.471   6.212  10.521
 2803TIP3    H129824   3.493   6.119  10.517
 2803TIP3    H229825   3.521   6.252  10.450
 2804TIP3   OH229826   3.486   6.242  11.047
 2804TIP3    H129827   3.576   6.259  11.021
 2804TIP3    H229828   3.483   6.261  11.141
 2805TIP3   OH229829   3.510   6.327  11.316
 2805TIP3    H129830   3.426   6.359  11.348
 2805TIP3    H229831   3.562   6.406  11.301
 2806TIP3   OH229832   1.950   6.151  11.654
 2806TIP3    H129833   2.033   6.124  11.694
 2806TIP3    H229834   1.892   6.076  11.667
 2807TIP3   OH229835   3.752   5.746  11.835
 2807TIP3    H129836   3.814   5.689  11.791
 2807TIP3    H229837   3.736   5.817  11.772
 2808TIP3   OH229838   3.518   5.939  10.509
 2808TIP3    H129839   3.532   5.893  10.592
 2808TIP3    H229840   3.452   5.886  10.463
 2809TIP3   OH229841   2.053   6.017  10.986
 2809TIP3    H129842   2.096   5.932  10.977
 2809TIP3    H229843   2.125   6.080  10.993
 2810TIP3   OH229844   1.868   6.296  11.033
 2810TIP3    H129845   1.935   6.293  10.964
 2810TIP3    H229846   1.901   6.358  11.097
 2811TIP3   OH229847   3.672   5.933  11.656
 2811TIP3    H129848   3.595   5.980  11.689
 2811TIP3    H229849   3.641   5.892  11.575
 2812TIP3   OH229850   1.955   5.975  10.482
 2812TIP3    H129851   1.861   5.972  10.460
 2812TIP3    H229852   1.993   6.029  10.414
 2813TIP3   OH229853   1.916   5.766  11.280
 2813TIP3    H129854   1.852   5.766  11.351
 2813TIP3    H229855   1.890   5.839  11.224
 2814TIP3   OH229856   2.142   7.192  11.722
 2814TIP3    H129857   2.054   7.174  11.689
 2814TIP3    H229858   2.154   7.130  11.794
 2815TIP3   OH229859   2.442   7.223  11.296
 2815TIP3    H129860   2.413   7.286  11.230
 2815TIP3    H229861   2.537   7.225  11.291
 2816TIP3   OH229862   3.576   5.745  11.461
 2816TIP3    H129863   3.514   5.779  11.396
 2816TIP3    H229864   3.590   5.654  11.436
 2817TIP3   OH229865   2.339   7.250  10.883
 2817TIP3    H129866   2.315   7.162  10.913
 2817TIP3    H229867   2.435   7.249  10.879
 2818TIP3   OH229868   2.928   5.879  10.934
 2818TIP3    H129869   2.863   5.809  10.941
 2818TIP3    H229870   2.998   5.842  10.881
 2819TIP3   OH229871   3.399   5.721  10.934
 2819TIP3    H129872   3.464   5.759  10.875
 2819TIP3    H229873   3.315   5.753  10.901
 2820TIP3   OH229874   3.585   5.789  10.741
 2820TIP3    H129875   3.652   5.735  10.699
 2820TIP3    H229876   3.629   5.871  10.762
 2821TIP3   OH229877   2.106   5.781  10.665
 2821TIP3    H129878   2.065   5.857  10.625
 2821TIP3    H229879   2.043   5.710  10.653
 2822TIP3   OH229880   2.652   5.703  10.686
 2822TIP3    H129881   2.713   5.753  10.633
 2822TIP3    H229882   2.677   5.721  10.776
 2823TIP3   OH229883   3.144   5.759  10.810
 2823TIP3    H129884   3.175   5.758  10.719
 2823TIP3    H229885   3.123   5.667  10.829
 2824TIP3   OH229886   3.293   5.777  10.469
 2824TIP3    H129887   3.221   5.838  10.451
 2824TIP3    H229888   3.259   5.691  10.441
 2825TIP3   OH229889   2.271   5.935  10.102
 2825TIP3    H129890   2.273   5.901  10.012
 2825TIP3    H229891   2.250   6.027  10.092
 2826TIP3   OH229892   2.724   5.982  10.324
 2826TIP3    H129893   2.754   5.908  10.378
 2826TIP3    H229894   2.740   6.059  10.378
 2827TIP3   OH229895   2.166   5.787  11.615
 2827TIP3    H129896   2.105   5.720  11.646
 2827TIP3    H229897   2.247   5.771  11.664
 2828TIP3   OH229898   2.367   5.722  11.794
 2828TIP3    H129899   2.454   5.702  11.758
 2828TIP3    H229900   2.340   5.641  11.837
 2829TIP3   OH229901   3.222   5.681  11.803
 2829TIP3    H129902   3.210   5.637  11.887
 2829TIP3    H229903   3.315   5.671  11.784
 2830TIP3   OH229904   3.491   7.290  11.691
 2830TIP3    H129905   3.432   7.220  11.662
 2830TIP3    H229906   3.513   7.338  11.612
 2831TIP3   OH229907   4.934   6.654  10.663
 2831TIP3    H129908   4.926   6.749  10.666
 2831TIP3    H229909   4.886   6.628  10.584
 2832TIP3   OH229910   4.867   6.604  11.048
 2832TIP3    H129911   4.880   6.548  11.124
 2832TIP3    H229912   4.818   6.549  10.986
 2833TIP3   OH229913   4.075   6.540  11.177
 2833TIP3    H129914   4.083   6.464  11.235
 2833TIP3    H229915   4.164   6.558  11.148
 2834TIP3   OH229916   5.236   6.920  10.847
 2834TIP3    H129917   5.194   6.844  10.888
 2834TIP3    H229918   5.261   6.976  10.921
 2835TIP3   OH229919   4.229   6.995  11.036
 2835TIP3    H129920   4.189   6.918  10.995
 2835TIP3    H229921   4.318   6.997  11.002
 2836TIP3   OH229922   3.856   6.356  10.497
 2836TIP3    H129923   3.810   6.434  10.530
 2836TIP3    H229924   3.794   6.316  10.437
 2837TIP3   OH229925   3.893   6.586  10.807
 2837TIP3    H129926   3.935   6.501  10.819
 2837TIP3    H229927   3.965   6.647  10.793
 2838TIP3   OH229928   4.691   6.853  11.058
 2838TIP3    H129929   4.726   6.789  10.997
 2838TIP3    H229930   4.766   6.875  11.115
 2839TIP3   OH229931   5.581   5.985  11.153
 2839TIP3    H129932   5.595   6.063  11.207
 2839TIP3    H229933   5.634   6.000  11.075
 2840TIP3   OH229934   4.997   6.269  11.065
 2840TIP3    H129935   5.014   6.175  11.073
 2840TIP3    H229936   4.986   6.284  10.971
 2841TIP3   OH229937   4.353   6.082  10.793
 2841TIP3    H129938   4.356   6.166  10.747
 2841TIP3    H229939   4.318   6.020  10.728
 2842TIP3   OH229940   5.114   6.099  10.667
 2842TIP3    H129941   5.167   6.070  10.740
 2842TIP3    H229942   5.177   6.142  10.608
 2843TIP3   OH229943   3.993   6.331  10.869
 2843TIP3    H129944   4.057   6.289  10.926
 2843TIP3    H229945   4.012   6.295  10.782
 2844TIP3   OH229946   4.461   6.465  10.850
 2844TIP3    H129947   4.550   6.437  10.869
 2844TIP3    H229948   4.431   6.406  10.781
 2845TIP3   OH229949   5.612   6.158  11.383
 2845TIP3    H129950   5.546   6.222  11.357
 2845TIP3    H229951   5.632   6.181  11.474
 2846TIP3   OH229952   4.208   5.998  11.220
 2846TIP3    H129953   4.188   6.055  11.146
 2846TIP3    H229954   4.135   6.011  11.281
 2847TIP3   OH229955   4.898   6.922  10.602
 2847TIP3    H129956   4.871   6.920  10.510
 2847TIP3    H229957   4.868   7.008  10.634
 2848TIP3   OH229958   4.477   6.761  11.205
 2848TIP3    H129959   4.420   6.831  11.237
 2848TIP3    H229960   4.544   6.806  11.155
 2849TIP3   OH229961   5.233   6.038  10.907
 2849TIP3    H129962   5.165   6.021  10.972
 2849TIP3    H229963   5.292   6.100  10.949
 2850TIP3   OH229964   4.185   6.164  10.999
 2850TIP3    H129965   4.241   6.221  11.052
 2850TIP3    H229966   4.242   6.132  10.930
 2851TIP3   OH229967   4.304   6.956  11.296
 2851TIP3    H129968   4.273   6.981  11.209
 2851TIP3    H229969   4.225   6.959  11.351
 2852TIP3   OH229970   3.887   6.916  10.447
 2852TIP3    H129971   3.889   6.999  10.399
 2852TIP3    H229972   3.875   6.941  10.538
 2853TIP3   OH229973   5.282   7.107  11.059
 2853TIP3    H129974   5.190   7.107  11.084
 2853TIP3    H229975   5.294   7.190  11.012
 2854TIP3   OH229976   5.329   5.880  11.238
 2854TIP3    H129977   5.258   5.927  11.193
 2854TIP3    H229978   5.409   5.911  11.195
 2855TIP3   OH229979   4.566   5.690  10.970
 2855TIP3    H129980   4.540   5.598  10.969
 2855TIP3    H229981   4.489   5.737  11.002
 2856TIP3   OH229982   5.098   7.268  10.666
 2856TIP3    H129983   5.134   7.179  10.664
 2856TIP3    H229984   5.139   7.313  10.593
 2857TIP3   OH229985   5.240   7.038  10.591
 2857TIP3    H129986   5.232   6.969  10.525
 2857TIP3    H229987   5.241   6.991  10.675
 2858TIP3   OH229988   5.374   6.906  11.433
 2858TIP3    H129989   5.366   6.849  11.357
 2858TIP3    H229990   5.362   6.994  11.398
 2859TIP3   OH229991   4.830   6.593  10.410
 2859TIP3    H129992   4.780   6.662  10.367
 2859TIP3    H229993   4.884   6.555  10.341
 2860TIP3   OH229994   5.539   6.560  11.272
 2860TIP3    H129995   5.468   6.623  11.261
 2860TIP3    H229996   5.597   6.576  11.198
 2861TIP3   OH229997   5.173   6.634  10.524
 2861TIP3    H129998   5.095   6.633  10.579
 2861TIP3    H229999   5.231   6.568  10.563
 2862TIP3   OH230000   5.147   6.424  11.447
 2862TIP3    H130001   5.141   6.499  11.506
 2862TIP3    H230002   5.083   6.442  11.378
 2863TIP3   OH230003   4.318   6.667  10.708
 2863TIP3    H130004   4.284   6.630  10.627
 2863TIP3    H230005   4.377   6.600  10.742
 2864TIP3   OH230006   4.489   7.013  10.946
 2864TIP3    H130007   4.494   7.006  10.851
 2864TIP3    H230008   4.563   6.962  10.979
 2865TIP3   OH230009   4.334   6.566  11.075
 2865TIP3    H130010   4.381   6.541  10.995
 2865TIP3    H230011   4.388   6.634  11.115
 2866TIP3   OH230012   5.035   7.108  11.170
 2866TIP3    H130013   4.973   7.170  11.209
 2866TIP3    H230014   4.996   7.022  11.185
 2867TIP3   OH230015   4.463   6.989  11.518
 2867TIP3    H130016   4.401   7.048  11.561
 2867TIP3    H230017   4.423   6.970  11.433
 2868TIP3   OH230018   4.133   6.563  11.524
 2868TIP3    H130019   4.148   6.650  11.563
 2868TIP3    H230020   4.046   6.570  11.485
 2869TIP3   OH230021   4.830   7.189  10.636
 2869TIP3    H130022   4.917   7.228  10.647
 2869TIP3    H230023   4.781   7.255  10.585
 2870TIP3   OH230024   4.288   7.179  11.620
 2870TIP3    H130025   4.287   7.216  11.531
 2870TIP3    H230026   4.195   7.166  11.641
 2871TIP3   OH230027   5.452   5.704  10.270
 2871TIP3    H130028   5.361   5.732  10.282
 2871TIP3    H230029   5.497   5.781  10.235
 2872TIP3   OH230030   4.190   6.568  10.479
 2872TIP3    H130031   4.171   6.644  10.424
 2872TIP3    H230032   4.107   6.522  10.486
 2873TIP3   OH230033   3.853   6.829  11.368
 2873TIP3    H130034   3.803   6.846  11.288
 2873TIP3    H230035   3.864   6.734  11.371
 2874TIP3   OH230036   3.818   7.089  11.013
 2874TIP3    H130037   3.841   7.073  10.922
 2874TIP3    H230038   3.759   7.165  11.010
 2875TIP3   OH230039   5.646   7.160  11.684
 2875TIP3    H130040   5.637   7.068  11.658
 2875TIP3    H230041   5.556   7.193  11.687
 2876TIP3   OH230042   4.718   7.093  11.501
 2876TIP3    H130043   4.704   7.169  11.557
 2876TIP3    H230044   4.631   7.054  11.491
 2877TIP3   OH230045   5.318   6.312  11.659
 2877TIP3    H130046   5.266   6.349  11.588
 2877TIP3    H230047   5.330   6.220  11.634
 2878TIP3   OH230048   4.085   6.951  11.457
 2878TIP3    H130049   4.097   6.902  11.538
 2878TIP3    H230050   4.002   6.920  11.422
 2879TIP3   OH230051   4.320   5.798  11.055
 2879TIP3    H130052   4.243   5.787  10.999
 2879TIP3    H230053   4.298   5.872  11.112
 2880TIP3   OH230054   4.796   5.772  11.398
 2880TIP3    H130055   4.839   5.721  11.467
 2880TIP3    H230056   4.703   5.762  11.416
 2881TIP3   OH230057   5.094   6.148  11.475
 2881TIP3    H130058   5.034   6.142  11.549
 2881TIP3    H230059   5.100   6.241  11.456
 2882TIP3   OH230060   4.336   6.312  11.181
 2882TIP3    H130061   4.268   6.314  11.249
 2882TIP3    H230062   4.340   6.402  11.149
 2883TIP3   OH230063   4.337   6.313  10.648
 2883TIP3    H130064   4.242   6.309  10.636
 2883TIP3    H230065   4.373   6.308  10.560
 2884TIP3   OH230066   4.894   6.332  10.507
 2884TIP3    H130067   4.873   6.421  10.479
 2884TIP3    H230068   4.948   6.297  10.436
 2885TIP3   OH230069   4.790   6.368  11.662
 2885TIP3    H130070   4.742   6.293  11.698
 2885TIP3    H230071   4.877   6.363  11.703
 2886TIP3   OH230072   4.972   6.302  10.793
 2886TIP3    H130073   4.942   6.362  10.724
 2886TIP3    H230074   5.009   6.228  10.746
 2887TIP3   OH230075   4.120   6.322  11.351
 2887TIP3    H130076   4.106   6.375  11.430
 2887TIP3    H230077   4.074   6.240  11.369
 2888TIP3   OH230078   3.750   6.003  10.757
 2888TIP3    H130079   3.822   6.025  10.816
 2888TIP3    H230080   3.787   6.013  10.670
 2889TIP3   OH230081   4.931   6.436  11.266
 2889TIP3    H130082   4.962   6.380  11.195
 2889TIP3    H230083   4.861   6.386  11.308
 2890TIP3   OH230084   4.634   6.025  10.758
 2890TIP3    H130085   4.547   6.045  10.792
 2890TIP3    H230086   4.684   5.999  10.835
 2891TIP3   OH230087   4.065   6.232  10.620
 2891TIP3    H130088   3.992   6.276  10.576
 2891TIP3    H230089   4.064   6.143  10.584
 2892TIP3   OH230090   4.442   6.251  10.395
 2892TIP3    H130091   4.521   6.222  10.440
 2892TIP3    H230092   4.473   6.286  10.311
 2893TIP3   OH230093   5.022   5.993  11.088
 2893TIP3    H130094   4.974   6.003  11.171
 2893TIP3    H230095   4.959   5.951  11.029
 2894TIP3   OH230096   4.136   6.793  11.684
 2894TIP3    H130097   4.203   6.800  11.753
 2894TIP3    H230098   4.053   6.807  11.730
 2895TIP3   OH230099   4.708   6.361  10.944
 2895TIP3    H130100   4.781   6.320  10.898
 2895TIP3    H230101   4.684   6.297  11.011
 2896TIP3   OH230102   4.269   5.897  10.598
 2896TIP3    H130103   4.183   5.856  10.611
 2896TIP3    H230104   4.332   5.830  10.626
 2897TIP3   OH230105   4.593   6.210  11.170
 2897TIP3    H130106   4.509   6.255  11.174
 2897TIP3    H230107   4.642   6.245  11.245
 2898TIP3   OH230108   5.343   6.745  11.210
 2898TIP3    H130109   5.406   6.794  11.158
 2898TIP3    H230110   5.272   6.726  11.149
 2899TIP3   OH230111   4.801   6.823  11.481
 2899TIP3    H130112   4.815   6.790  11.569
 2899TIP3    H230113   4.773   6.914  11.493
 2900TIP3   OH230114   4.166   6.748  10.923
 2900TIP3    H130115   4.213   6.737  10.840
 2900TIP3    H230116   4.204   6.681  10.980
 2901TIP3   OH230117   3.865   6.552  11.451
 2901TIP3    H130118   3.828   6.510  11.529
 2901TIP3    H230119   3.799   6.541  11.383
 2902TIP3   OH230120   4.576   6.545  11.686
 2902TIP3    H130121   4.509   6.511  11.626
 2902TIP3    H230122   4.657   6.500  11.660
 2903TIP3   OH230123   5.003   7.083  11.477
 2903TIP3    H130124   4.908   7.090  11.468
 2903TIP3    H230125   5.020   7.098  11.570
 2904TIP3   OH230126   5.553   6.293  10.265
 2904TIP3    H130127   5.496   6.240  10.209
 2904TIP3    H230128   5.525   6.383  10.249
 2905TIP3   OH230129   5.596   6.895  11.593
 2905TIP3    H130130   5.510   6.911  11.556
 2905TIP3    H230131   5.652   6.878  11.517
 2906TIP3   OH230132   5.435   7.124  10.370
 2906TIP3    H130133   5.369   7.105  10.437
 2906TIP3    H230134   5.405   7.204  10.327
 2907TIP3   OH230135   5.144   6.672  11.023
 2907TIP3    H130136   5.049   6.662  11.016
 2907TIP3    H230137   5.180   6.596  10.976
 2908TIP3   OH230138   4.404   7.113  10.673
 2908TIP3    H130139   4.453   7.194  10.657
 2908TIP3    H230140   4.329   7.140  10.726
 2909TIP3   OH230141   4.516   6.865  10.684
 2909TIP3    H130142   4.478   6.949  10.657
 2909TIP3    H230143   4.443   6.804  10.682
 2910TIP3   OH230144   4.577   7.217  11.249
 2910TIP3    H130145   4.617   7.286  11.196
 2910TIP3    H230146   4.651   7.175  11.293
 2911TIP3   OH230147   4.912   6.865  11.229
 2911TIP3    H130148   4.880   6.842  11.316
 2911TIP3    H230149   4.955   6.785  11.197
 2912TIP3   OH230150   3.995   6.066  11.390
 2912TIP3    H130151   3.906   6.095  11.371
 2912TIP3    H230152   3.984   5.992  11.449
 2913TIP3   OH230153   5.281   6.843  10.393
 2913TIP3    H130154   5.221   6.772  10.418
 2913TIP3    H230155   5.367   6.812  10.419
 2914TIP3   OH230156   4.049   7.266  11.261
 2914TIP3    H130157   4.008   7.187  11.227
 2914TIP3    H230158   3.976   7.326  11.278
 2915TIP3   OH230159   4.599   7.022   9.983
 2915TIP3    H130160   4.658   6.952  10.010
 2915TIP3    H230161   4.548   7.041  10.062
 2916TIP3   OH230162   4.460   7.058  10.222
 2916TIP3    H130163   4.508   7.040  10.303
 2916TIP3    H230164   4.463   7.154  10.214
 2917TIP3   OH230165   4.095   6.771  10.320
 2917TIP3    H130166   4.023   6.807  10.370
 2917TIP3    H230167   4.134   6.846  10.275
 2918TIP3   OH230168   4.891   6.022  11.332
 2918TIP3    H130169   4.969   6.037  11.386
 2918TIP3    H230170   4.861   5.936  11.358
 2919TIP3   OH230171   4.981   5.942  10.482
 2919TIP3    H130172   4.976   6.003  10.408
 2919TIP3    H230173   5.023   5.993  10.552
 2920TIP3   OH230174   4.676   7.291  10.283
 2920TIP3    H130175   4.599   7.333  10.243
 2920TIP3    H230176   4.732   7.270  10.208
 2921TIP3   OH230177   4.667   6.174  10.524
 2921TIP3    H130178   4.747   6.225  10.515
 2921TIP3    H230179   4.669   6.144  10.615
 2922TIP3   OH230180   4.757   6.264  11.390
 2922TIP3    H130181   4.765   6.284  11.484
 2922TIP3    H230182   4.796   6.177  11.380
 2923TIP3   OH230183   4.721   5.865  10.544
 2923TIP3    H130184   4.695   5.933  10.605
 2923TIP3    H230185   4.807   5.892  10.513
 2924TIP3   OH230186   5.350   6.068  11.523
 2924TIP3    H130187   5.257   6.077  11.500
 2924TIP3    H230188   5.395   6.064  11.438
 2925TIP3   OH230189   5.216   6.424  10.903
 2925TIP3    H130190   5.134   6.384  10.873
 2925TIP3    H230191   5.258   6.355  10.954
 2926TIP3   OH230192   4.185   6.980  10.159
 2926TIP3    H130193   4.252   7.034  10.201
 2926TIP3    H230194   4.231   6.933  10.090
 2927TIP3   OH230195   4.072   5.772  10.935
 2927TIP3    H130196   4.061   5.767  10.840
 2927TIP3    H230197   4.032   5.691  10.968
 2928TIP3   OH230198   4.010   7.229  10.487
 2928TIP3    H130199   3.958   7.184  10.554
 2928TIP3    H230200   3.945   7.268  10.428
 2929TIP3   OH230201   4.378   7.236  11.870
 2929TIP3    H130202   4.458   7.184  11.882
 2929TIP3    H230203   4.340   7.204  11.788
 2930TIP3   OH230204   4.786   7.232  10.034
 2930TIP3    H130205   4.723   7.172   9.993
 2930TIP3    H230206   4.867   7.218   9.985
 2931TIP3   OH230207   5.039   7.117  11.745
 2931TIP3    H130208   4.996   7.048  11.795
 2931TIP3    H230209   5.109   7.148  11.802
 2932TIP3   OH230210   5.201   7.236  10.044
 2932TIP3    H130211   5.272   7.268  10.099
 2932TIP3    H230212   5.190   7.304   9.977
 2933TIP3   OH230213   3.887   6.807  11.803
 2933TIP3    H130214   3.877   6.712  11.793
 2933TIP3    H230215   3.825   6.844  11.740
 2934TIP3   OH230216   4.358   6.842   9.993
 2934TIP3    H130217   4.425   6.819  10.057
 2934TIP3    H230218   4.402   6.899   9.930
 2935TIP3   OH230219   4.544   6.822  11.725
 2935TIP3    H130220   4.522   6.863  11.642
 2935TIP3    H230221   4.566   6.731  11.702
 2936TIP3   OH230222   5.119   6.828  11.513
 2936TIP3    H130223   5.208   6.854  11.490
 2936TIP3    H230224   5.064   6.901  11.485
 2937TIP3   OH230225   3.963   6.533  11.772
 2937TIP3    H130226   4.040   6.531  11.715
 2937TIP3    H230227   3.999   6.540  11.860
 2938TIP3   OH230228   4.388   6.438  11.507
 2938TIP3    H130229   4.305   6.485  11.500
 2938TIP3    H230230   4.443   6.477  11.439
 2939TIP3   OH230231   4.894   6.674  11.798
 2939TIP3    H130232   4.967   6.639  11.747
 2939TIP3    H230233   4.859   6.599  11.846
 2940TIP3   OH230234   4.431   6.175  11.571
 2940TIP3    H130235   4.436   6.119  11.493
 2940TIP3    H230236   4.419   6.263  11.536
 2941TIP3   OH230237   4.457   6.018  11.335
 2941TIP3    H130238   4.511   6.065  11.272
 2941TIP3    H230239   4.370   6.015  11.295
 2942TIP3   OH230240   4.576   6.552  11.349
 2942TIP3    H130241   4.672   6.561  11.344
 2942TIP3    H230242   4.543   6.628  11.300
 2943TIP3   OH230243   5.031   6.331  11.817
 2943TIP3    H130244   5.029   6.241  11.786
 2943TIP3    H230245   5.121   6.360  11.804
 2944TIP3   OH230246   5.159   6.613  11.669
 2944TIP3    H130247   5.132   6.691  11.620
 2944TIP3    H230248   5.254   6.613  11.662
 2945TIP3   OH230249   4.263   6.232  11.796
 2945TIP3    H130250   4.180   6.186  11.781
 2945TIP3    H230251   4.307   6.230  11.711
 2946TIP3   OH230252   4.516   5.754  11.402
 2946TIP3    H130253   4.497   5.845  11.380
 2946TIP3    H230254   4.448   5.704  11.357
 2947TIP3   OH230255   4.651   6.142  11.736
 2947TIP3    H130256   4.608   6.116  11.817
 2947TIP3    H230257   4.580   6.148  11.672
 2948TIP3   OH230258   4.928   6.102  11.686
 2948TIP3    H130259   4.835   6.094  11.706
 2948TIP3    H230260   4.970   6.036  11.741
 2949TIP3   OH230261   5.092   5.957  11.856
 2949TIP3    H130262   5.088   5.863  11.841
 2949TIP3    H230263   5.065   5.968  11.947
 2950TIP3   OH230264   4.051   6.044  11.761
 2950TIP3    H130265   4.053   5.967  11.703
 2950TIP3    H230266   4.063   6.008  11.849
 2951TIP3   OH230267   4.503   5.669  11.663
 2951TIP3    H130268   4.561   5.593  11.655
 2951TIP3    H230269   4.499   5.705  11.574
 2952TIP3   OH230270   4.581   5.828  11.875
 2952TIP3    H130271   4.559   5.777  11.797
 2952TIP3    H230272   4.523   5.904  11.871
 2953TIP3   OH230273   3.911   6.994  10.118
 2953TIP3    H130274   4.002   6.985  10.146
 2953TIP3    H230275   3.876   6.906  10.121
 2954TIP3   OH230276   5.401   6.928  11.885
 2954TIP3    H130277   5.320   6.944  11.934
 2954TIP3    H230278   5.456   7.003  11.906
 2955TIP3   OH230279   5.587   6.555  10.594
 2955TIP3    H130280   5.496   6.529  10.608
 2955TIP3    H230281   5.615   6.591  10.678
 2956TIP3   OH230282   5.588   6.853  11.132
 2956TIP3    H130283   5.633   6.787  11.079
 2956TIP3    H230284   5.624   6.936  11.103
 2957TIP3   OH230285   5.307   7.158  11.332
 2957TIP3    H130286   5.212   7.152  11.341
 2957TIP3    H230287   5.323   7.144  11.238
 2958TIP3   OH230288   5.340   6.452  10.653
 2958TIP3    H130289   5.333   6.366  10.611
 2958TIP3    H230290   5.303   6.439  10.741
 2959TIP3   OH230291   3.830   6.597  11.072
 2959TIP3    H130292   3.842   6.603  10.977
 2959TIP3    H230293   3.919   6.588  11.106
 2960TIP3   OH230294   5.434   6.634  11.634
 2960TIP3    H130295   5.495   6.564  11.612
 2960TIP3    H230296   5.470   6.713  11.593
 2961TIP3   OH230297   5.579   6.400  11.619
 2961TIP3    H130298   5.490   6.369  11.635
 2961TIP3    H230299   5.635   6.328  11.647
 2962TIP3   OH230300   5.309   6.213  10.507
 2962TIP3    H130301   5.358   6.132  10.494
 2962TIP3    H230302   5.281   6.238  10.419
 2963TIP3   OH230303   5.370   6.235  11.052
 2963TIP3    H130304   5.460   6.252  11.025
 2963TIP3    H230305   5.368   6.259  11.145
 2964TIP3   OH230306   5.396   6.329  11.320
 2964TIP3    H130307   5.312   6.364  11.351
 2964TIP3    H230308   5.448   6.407  11.301
 2965TIP3   OH230309   3.822   6.165  11.660
 2965TIP3    H130310   3.908   6.139  11.694
 2965TIP3    H230311   3.769   6.086  11.667
 2966TIP3   OH230312   5.629   5.747  11.839
 2966TIP3    H130313   5.694   5.690  11.797
 2966TIP3    H230314   5.616   5.818  11.777
 2967TIP3   OH230315   5.390   5.942  10.493
 2967TIP3    H130316   5.408   5.892  10.572
 2967TIP3    H230317   5.330   5.887  10.442
 2968TIP3   OH230318   3.940   6.017  10.968
 2968TIP3    H130319   3.980   5.930  10.964
 2968TIP3    H230320   4.013   6.077  10.981
 2969TIP3   OH230321   3.754   6.319  11.029
 2969TIP3    H130322   3.823   6.300  10.966
 2969TIP3    H230323   3.769   6.410  11.055
 2970TIP3   OH230324   5.554   5.926  11.649
 2970TIP3    H130325   5.476   5.982  11.655
 2970TIP3    H230326   5.539   5.871  11.572
 2971TIP3   OH230327   3.794   5.971  10.473
 2971TIP3    H130328   3.699   5.968  10.479
 2971TIP3    H230329   3.816   5.915  10.399
 2972TIP3   OH230330   3.806   5.779  11.295
 2972TIP3    H130331   3.735   5.773  11.359
 2972TIP3    H230332   3.777   5.845  11.233
 2973TIP3   OH230333   4.031   7.165  11.729
 2973TIP3    H130334   3.945   7.166  11.687
 2973TIP3    H230335   4.012   7.147  11.821
 2974TIP3   OH230336   4.310   7.272  11.361
 2974TIP3    H130337   4.224   7.274  11.319
 2974TIP3    H230338   4.367   7.229  11.297
 2975TIP3   OH230339   5.464   5.741  11.459
 2975TIP3    H130340   5.404   5.775  11.392
 2975TIP3    H230341   5.478   5.650  11.433
 2976TIP3   OH230342   4.232   7.218  10.869
 2976TIP3    H130343   4.202   7.142  10.919
 2976TIP3    H230344   4.277   7.273  10.934
 2977TIP3   OH230345   4.796   5.879  10.939
 2977TIP3    H130346   4.730   5.809  10.945
 2977TIP3    H230347   4.868   5.838  10.891
 2978TIP3   OH230348   5.288   5.706  10.901
 2978TIP3    H130349   5.353   5.756  10.852
 2978TIP3    H230350   5.206   5.754  10.891
 2979TIP3   OH230351   5.471   5.800  10.722
 2979TIP3    H130352   5.539   5.742  10.689
 2979TIP3    H230353   5.517   5.880  10.746
 2980TIP3   OH230354   4.044   5.746  10.662
 2980TIP3    H130355   3.952   5.740  10.637
 2980TIP3    H230356   4.079   5.658  10.648
 2981TIP3   OH230357   4.496   5.740  10.664
 2981TIP3    H130358   4.581   5.776  10.640
 2981TIP3    H230359   4.501   5.728  10.759
 2982TIP3   OH230360   5.015   5.763  10.821
 2982TIP3    H130361   5.034   5.771  10.728
 2982TIP3    H230362   4.993   5.670  10.832
 2983TIP3   OH230363   5.190   5.775  10.372
 2983TIP3    H130364   5.116   5.827  10.404
 2983TIP3    H230365   5.156   5.685  10.367
 2984TIP3   OH230366   4.048   5.795  11.620
 2984TIP3    H130367   3.991   5.723  11.647
 2984TIP3    H230368   4.130   5.780  11.667
 2985TIP3   OH230369   4.255   5.730  11.794
 2985TIP3    H130370   4.338   5.703  11.755
 2985TIP3    H230371   4.220   5.651  11.834
 2986TIP3   OH230372   5.109   5.686  11.804
 2986TIP3    H130373   5.100   5.638  11.886
 2986TIP3    H230374   5.201   5.676  11.780
 2987TIP3   OH230375   5.388   7.256  11.666
 2987TIP3    H130376   5.315   7.205  11.630
 2987TIP3    H230377   5.404   7.323  11.600
 2988TIP3   OH230378   6.848   6.663  10.667
 2988TIP3    H130379   6.838   6.758  10.667
 2988TIP3    H230380   6.797   6.633  10.592
 2989TIP3   OH230381   6.704   6.600  11.031
 2989TIP3    H130382   6.724   6.552  11.112
 2989TIP3    H230383   6.661   6.536  10.975
 2990TIP3   OH230384   5.961   6.543  11.181
 2990TIP3    H130385   5.967   6.466  11.237
 2990TIP3    H230386   6.050   6.558  11.150
 2991TIP3   OH230387   7.127   6.905  10.876
 2991TIP3    H130388   7.056   6.850  10.908
 2991TIP3    H230389   7.139   6.971  10.944
 2992TIP3   OH230390   6.107   7.011  11.036
 2992TIP3    H130391   6.078   6.929  10.997
 2992TIP3    H230392   6.200   7.018  11.012
 2993TIP3   OH230393   5.724   6.330  10.515
 2993TIP3    H130394   5.679   6.411  10.539
 2993TIP3    H230395   5.676   6.299  10.438
 2994TIP3   OH230396   5.781   6.576  10.810
 2994TIP3    H130397   5.808   6.484  10.818
 2994TIP3    H230398   5.827   6.607  10.732
 2995TIP3   OH230399   6.567   6.855  11.050
 2995TIP3    H130400   6.597   6.777  11.003
 2995TIP3    H230401   6.641   6.880  11.106
 2996TIP3   OH230402   6.897   6.265  11.068
 2996TIP3    H130403   6.899   6.170  11.078
 2996TIP3    H230404   6.874   6.279  10.976
 2997TIP3   OH230405   6.235   6.074  10.786
 2997TIP3    H130406   6.236   6.162  10.747
 2997TIP3    H230407   6.186   6.022  10.723
 2998TIP3   OH230408   7.006   6.121  10.662
 2998TIP3    H130409   7.054   6.069  10.726
 2998TIP3    H230410   7.070   6.140  10.593
 2999TIP3   OH230411   5.865   6.315  10.871
 2999TIP3    H130412   5.937   6.278  10.923
 2999TIP3    H230413   5.882   6.284  10.782
 3000TIP3   OH230414   6.342   6.476  10.852
 3000TIP3    H130415   6.430   6.441  10.868
 3000TIP3    H230416   6.304   6.416  10.788
 3001TIP3   OH230417   6.092   6.000  11.220
 3001TIP3    H130418   6.072   6.054  11.144
 3001TIP3    H230419   6.019   6.015  11.280
 3002TIP3   OH230420   6.804   6.926  10.606
 3002TIP3    H130421   6.806   6.926  10.511
 3002TIP3    H230422   6.754   7.004  10.630
 3003TIP3   OH230423   6.363   6.759  11.208
 3003TIP3    H130424   6.304   6.827  11.240
 3003TIP3    H230425   6.427   6.805  11.153
 3004TIP3   OH230426   7.105   6.000  10.886
 3004TIP3    H130427   7.021   5.980  10.929
 3004TIP3    H230428   7.151   6.055  10.948
 3005TIP3   OH230429   6.070   6.160  10.995
 3005TIP3    H130430   6.129   6.217  11.044
 3005TIP3    H230431   6.124   6.125  10.924
 3006TIP3   OH230432   6.185   6.951  11.295
 3006TIP3    H130433   6.158   6.981  11.208
 3006TIP3    H230434   6.106   6.960  11.349
 3007TIP3   OH230435   5.739   6.911  10.452
 3007TIP3    H130436   5.791   6.939  10.376
 3007TIP3    H230437   5.778   6.958  10.526
 3008TIP3   OH230438   7.170   7.131  11.067
 3008TIP3    H130439   7.082   7.121  11.105
 3008TIP3    H230440   7.163   7.208  11.011
 3009TIP3   OH230441   7.129   5.895  11.176
 3009TIP3    H130442   7.040   5.914  11.148
 3009TIP3    H230443   7.179   5.974  11.152
 3010TIP3   OH230444   6.454   5.695  10.980
 3010TIP3    H130445   6.426   5.604  10.964
 3010TIP3    H230446   6.374   5.740  11.007
 3011TIP3   OH230447   6.961   7.244  10.662
 3011TIP3    H130448   7.017   7.167  10.664
 3011TIP3    H230449   6.984   7.288  10.580
 3012TIP3   OH230450   7.152   7.042  10.627
 3012TIP3    H130451   7.143   6.985  10.551
 3012TIP3    H230452   7.145   6.983  10.702
 3013TIP3   OH230453   7.224   6.898  11.473
 3013TIP3    H130454   7.226   6.842  11.396
 3013TIP3    H230455   7.237   6.986  11.439
 3014TIP3   OH230456   6.726   6.593  10.432
 3014TIP3    H130457   6.668   6.663  10.400
 3014TIP3    H230458   6.783   6.575  10.357
 3015TIP3   OH230459   7.090   6.625  10.535
 3015TIP3    H130460   7.006   6.641  10.576
 3015TIP3    H230461   7.123   6.545  10.577
 3016TIP3   OH230462   7.005   6.458  11.403
 3016TIP3    H130463   7.015   6.549  11.432
 3016TIP3    H230464   6.927   6.459  11.347
 3017TIP3   OH230465   6.199   6.678  10.697
 3017TIP3    H130466   6.172   6.648  10.610
 3017TIP3    H230467   6.255   6.608  10.729
 3018TIP3   OH230468   6.370   7.044  10.959
 3018TIP3    H130469   6.362   7.050  10.864
 3018TIP3    H230470   6.441   6.981  10.973
 3019TIP3   OH230471   6.218   6.561  11.081
 3019TIP3    H130472   6.262   6.542  10.998
 3019TIP3    H230473   6.270   6.632  11.120
 3020TIP3   OH230474   6.930   7.102  11.194
 3020TIP3    H130475   6.918   7.129  11.285
 3020TIP3    H230476   6.874   7.025  11.184
 3021TIP3   OH230477   6.345   6.979  11.519
 3021TIP3    H130478   6.288   7.042  11.562
 3021TIP3    H230479   6.303   6.962  11.435
 3022TIP3   OH230480   6.020   6.569  11.526
 3022TIP3    H130481   6.035   6.658  11.559
 3022TIP3    H230482   5.933   6.573  11.486
 3023TIP3   OH230483   6.691   7.180  10.626
 3023TIP3    H130484   6.781   7.210  10.640
 3023TIP3    H230485   6.673   7.202  10.535
 3024TIP3   OH230486   6.174   7.174  11.615
 3024TIP3    H130487   6.176   7.213  11.527
 3024TIP3    H230488   6.081   7.167  11.636
 3025TIP3   OH230489   6.107   6.604  10.436
 3025TIP3    H130490   6.067   6.675  10.387
 3025TIP3    H230491   6.058   6.526  10.410
 3026TIP3   OH230492   5.734   6.828  11.369
 3026TIP3    H130493   5.685   6.839  11.288
 3026TIP3    H230494   5.751   6.734  11.373
 3027TIP3   OH230495   5.735   7.079  11.071
 3027TIP3    H130496   5.824   7.072  11.037
 3027TIP3    H230497   5.709   7.169  11.053
 3028TIP3   OH230498   6.600   7.083  11.521
 3028TIP3    H130499   6.583   7.159  11.576
 3028TIP3    H230500   6.514   7.045  11.504
 3029TIP3   OH230501   7.163   6.365  11.660
 3029TIP3    H130502   7.167   6.359  11.565
 3029TIP3    H230503   7.244   6.323  11.690
 3030TIP3   OH230504   5.957   6.973  11.443
 3030TIP3    H130505   5.977   6.929  11.525
 3030TIP3    H230506   5.877   6.930  11.412
 3031TIP3   OH230507   6.203   5.798  11.059
 3031TIP3    H130508   6.131   5.789  10.997
 3031TIP3    H230509   6.179   5.873  11.114
 3032TIP3   OH230510   6.681   5.775  11.399
 3032TIP3    H130511   6.725   5.722  11.467
 3032TIP3    H230512   6.588   5.765  11.417
 3033TIP3   OH230513   6.996   6.157  11.481
 3033TIP3    H130514   6.932   6.148  11.551
 3033TIP3    H230515   6.994   6.250  11.458
 3034TIP3   OH230516   6.222   6.306  11.179
 3034TIP3    H130517   6.154   6.308  11.247
 3034TIP3    H230518   6.227   6.396  11.148
 3035TIP3   OH230519   6.208   6.320  10.669
 3035TIP3    H130520   6.113   6.308  10.659
 3035TIP3    H230521   6.244   6.304  10.582
 3036TIP3   OH230522   6.759   6.350  10.544
 3036TIP3    H130523   6.737   6.438  10.512
 3036TIP3    H230524   6.826   6.318  10.485
 3037TIP3   OH230525   6.675   6.366  11.654
 3037TIP3    H130526   6.631   6.292  11.696
 3037TIP3    H230527   6.761   6.369  11.696
 3038TIP3   OH230528   6.853   6.306  10.801
 3038TIP3    H130529   6.810   6.355  10.731
 3038TIP3    H230530   6.901   6.237  10.755
 3039TIP3   OH230531   6.007   6.322  11.351
 3039TIP3    H130532   6.000   6.372  11.433
 3039TIP3    H230533   5.961   6.240  11.370
 3040TIP3   OH230534   6.474   6.097  10.017
 3040TIP3    H130535   6.406   6.051  10.066
 3040TIP3    H230536   6.426   6.145   9.949
 3041TIP3   OH230537   5.639   6.007  10.763
 3041TIP3    H130538   5.713   6.032  10.817
 3041TIP3    H230539   5.672   6.012  10.673
 3042TIP3   OH230540   5.767   6.116  10.276
 3042TIP3    H130541   5.764   6.063  10.196
 3042TIP3    H230542   5.702   6.185  10.262
 3043TIP3   OH230543   6.775   6.436  11.244
 3043TIP3    H130544   6.819   6.378  11.182
 3043TIP3    H230545   6.719   6.378  11.296
 3044TIP3   OH230546   6.515   6.041  10.749
 3044TIP3    H130547   6.422   6.048  10.773
 3044TIP3    H230548   6.557   6.008  10.829
 3045TIP3   OH230549   5.950   6.225  10.628
 3045TIP3    H130550   5.876   6.254  10.575
 3045TIP3    H230551   5.975   6.140  10.589
 3046TIP3   OH230552   6.289   6.245  10.422
 3046TIP3    H130553   6.385   6.240  10.415
 3046TIP3    H230554   6.261   6.286  10.340
 3047TIP3   OH230555   6.879   5.985  11.081
 3047TIP3    H130556   6.838   5.999  11.167
 3047TIP3    H230557   6.809   5.950  11.027
 3048TIP3   OH230558   6.177   6.339  10.193
 3048TIP3    H130559   6.097   6.383  10.163
 3048TIP3    H230560   6.243   6.361  10.127
 3049TIP3   OH230561   6.018   6.812  11.671
 3049TIP3    H130562   6.086   6.812  11.739
 3049TIP3    H230563   5.936   6.825  11.719
 3050TIP3   OH230564   6.584   6.356  10.941
 3050TIP3    H130565   6.652   6.311  10.891
 3050TIP3    H230566   6.558   6.294  11.009
 3051TIP3   OH230567   6.079   5.965  10.582
 3051TIP3    H130568   6.024   5.888  10.597
 3051TIP3    H230569   6.109   5.957  10.492
 3052TIP3   OH230570   6.481   6.209  11.168
 3052TIP3    H130571   6.395   6.252  11.172
 3052TIP3    H230572   6.526   6.239  11.247
 3053TIP3   OH230573   6.536   6.786  10.369
 3053TIP3    H130574   6.470   6.734  10.322
 3053TIP3    H230575   6.491   6.816  10.447
 3054TIP3   OH230576   7.185   6.757  11.235
 3054TIP3    H130577   7.258   6.732  11.179
 3054TIP3    H230578   7.107   6.743  11.182
 3055TIP3   OH230579   6.735   6.835  11.499
 3055TIP3    H130580   6.711   6.788  11.578
 3055TIP3    H230581   6.690   6.920  11.507
 3056TIP3   OH230582   6.941   6.258  10.356
 3056TIP3    H130583   7.034   6.259  10.379
 3056TIP3    H230584   6.927   6.343  10.313
 3057TIP3   OH230585   6.065   6.768  10.922
 3057TIP3    H130586   6.103   6.749  10.836
 3057TIP3    H230587   6.064   6.684  10.967
 3058TIP3   OH230588   6.754   6.957  10.334
 3058TIP3    H130589   6.716   7.044  10.329
 3058TIP3    H230590   6.679   6.898  10.330
 3059TIP3   OH230591   5.749   6.555  11.455
 3059TIP3    H130592   5.715   6.511  11.533
 3059TIP3    H230593   5.682   6.541  11.388
 3060TIP3   OH230594   6.465   6.546  11.684
 3060TIP3    H130595   6.398   6.510  11.626
 3060TIP3    H230596   6.546   6.500  11.660
 3061TIP3   OH230597   6.864   7.139  11.462
 3061TIP3    H130598   6.772   7.114  11.473
 3061TIP3    H230599   6.902   7.128  11.549
 3062TIP3   OH230600   6.970   6.692  11.057
 3062TIP3    H130601   6.880   6.678  11.029
 3062TIP3    H230602   7.021   6.627  11.008
 3063TIP3   OH230603   6.296   7.125  10.699
 3063TIP3    H130604   6.349   7.204  10.689
 3063TIP3    H230605   6.245   7.121  10.618
 3064TIP3   OH230606   5.912   6.532  10.154
 3064TIP3    H130607   5.940   6.620  10.180
 3064TIP3    H230608   5.816   6.538  10.151
 3065TIP3   OH230609   6.391   6.861  10.596
 3065TIP3    H130610   6.377   6.948  10.633
 3065TIP3    H230611   6.321   6.808  10.634
 3066TIP3   OH230612   6.462   7.222  11.252
 3066TIP3    H130613   6.477   7.269  11.169
 3066TIP3    H230614   6.536   7.162  11.259
 3067TIP3   OH230615   6.788   6.863  11.220
 3067TIP3    H130616   6.774   6.841  11.312
 3067TIP3    H230617   6.854   6.800  11.191
 3068TIP3   OH230618   7.034   7.043  10.226
 3068TIP3    H130619   7.080   6.981  10.282
 3068TIP3    H230620   6.946   7.007  10.216
 3069TIP3   OH230621   5.880   6.068  11.391
 3069TIP3    H130622   5.790   6.093  11.371
 3069TIP3    H230623   5.871   5.991  11.449
 3070TIP3   OH230624   7.158   6.864  10.410
 3070TIP3    H130625   7.121   6.780  10.438
 3070TIP3    H230626   7.248   6.845  10.386
 3071TIP3   OH230627   5.932   7.276  11.248
 3071TIP3    H130628   5.918   7.187  11.279
 3071TIP3    H230629   5.857   7.325  11.280
 3072TIP3   OH230630   5.989   6.781  10.249
 3072TIP3    H130631   5.937   6.860  10.238
 3072TIP3    H230632   6.059   6.788  10.184
 3073TIP3   OH230633   6.786   6.024  11.339
 3073TIP3    H130634   6.863   6.038  11.393
 3073TIP3    H230635   6.752   5.939  11.366
 3074TIP3   OH230636   6.846   6.014  10.462
 3074TIP3    H130637   6.863   6.088  10.403
 3074TIP3    H230638   6.893   6.038  10.543
 3075TIP3   OH230639   6.641   7.212  10.339
 3075TIP3    H130640   6.556   7.254  10.351
 3075TIP3    H230641   6.657   7.219  10.245
 3076TIP3   OH230642   6.553   6.173  10.502
 3076TIP3    H130643   6.623   6.237  10.511
 3076TIP3    H230644   6.536   6.142  10.591
 3077TIP3   OH230645   6.636   6.257  11.394
 3077TIP3    H130646   6.648   6.287  11.484
 3077TIP3    H230647   6.682   6.173  11.391
 3078TIP3   OH230648   6.632   5.869  10.564
 3078TIP3    H130649   6.596   5.935  10.623
 3078TIP3    H230650   6.707   5.912  10.522
 3079TIP3   OH230651   6.400   0.043  10.334
 3079TIP3    H130652   6.373   0.020  10.245
 3079TIP3    H230653   6.409   0.138  10.332
 3080TIP3   OH230654   6.193   5.989  10.315
 3080TIP3    H130655   6.191   6.084  10.326
 3080TIP3    H230656   6.286   5.966  10.317
 3081TIP3   OH230657   7.249   6.029  11.453
 3081TIP3    H130658   7.166   6.053  11.493
 3081TIP3    H230659   7.255   6.084  11.374
 3082TIP3   OH230660   7.062   6.459  10.928
 3082TIP3    H130661   6.986   6.437  10.874
 3082TIP3    H230662   7.058   6.398  11.002
 3083TIP3   OH230663   5.958   5.775  10.931
 3083TIP3    H130664   5.949   5.772  10.836
 3083TIP3    H230665   5.918   5.693  10.961
 3084TIP3   OH230666   5.862   7.168  10.510
 3084TIP3    H130667   5.776   7.192  10.479
 3084TIP3    H230668   5.914   7.154  10.430
 3085TIP3   OH230669   6.267   7.246  11.859
 3085TIP3    H130670   6.339   7.187  11.884
 3085TIP3    H230671   6.230   7.206  11.781
 3086TIP3   OH230672   6.631   7.222  10.061
 3086TIP3    H130673   6.540   7.251  10.051
 3086TIP3    H230674   6.667   7.225   9.972
 3087TIP3   OH230675   6.919   7.116  11.734
 3087TIP3    H130676   6.865   7.050  11.777
 3087TIP3    H230677   6.992   7.130  11.793
 3088TIP3   OH230678   5.768   6.816  11.797
 3088TIP3    H130679   5.771   6.721  11.788
 3088TIP3    H230680   5.700   6.844  11.736
 3089TIP3   OH230681   6.195   6.796  10.074
 3089TIP3    H130682   6.279   6.774  10.113
 3089TIP3    H230683   6.210   6.877  10.026
 3090TIP3   OH230684   6.431   6.820  11.731
 3090TIP3    H130685   6.409   6.861  11.647
 3090TIP3    H230686   6.453   6.730  11.709
 3091TIP3   OH230687   6.994   6.731  11.494
 3091TIP3    H130688   7.063   6.796  11.481
 3091TIP3    H230689   6.913   6.781  11.489
 3092TIP3   OH230690   5.847   6.547  11.768
 3092TIP3    H130691   5.926   6.539  11.715
 3092TIP3    H230692   5.879   6.546  11.859
 3093TIP3   OH230693   6.349   6.623  10.249
 3093TIP3    H130694   6.272   6.605  10.302
 3093TIP3    H230695   6.345   6.558  10.178
 3094TIP3   OH230696   6.275   6.438  11.506
 3094TIP3    H130697   6.194   6.489  11.500
 3094TIP3    H230698   6.332   6.475  11.438
 3095TIP3   OH230699   6.384   6.429  10.043
 3095TIP3    H130700   6.376   6.415   9.948
 3095TIP3    H230701   6.478   6.431  10.059
 3096TIP3   OH230702   6.778   6.672  11.800
 3096TIP3    H130703   6.866   6.647  11.773
 3096TIP3    H230704   6.748   6.599  11.855
 3097TIP3   OH230705   6.316   6.175  11.571
 3097TIP3    H130706   6.323   6.119  11.494
 3097TIP3    H230707   6.306   6.263  11.536
 3098TIP3   OH230708   6.342   6.018  11.335
 3098TIP3    H130709   6.396   6.064  11.271
 3098TIP3    H230710   6.255   6.016  11.295
 3099TIP3   OH230711   6.466   6.546  11.345
 3099TIP3    H130712   6.559   6.545  11.326
 3099TIP3    H230713   6.433   6.623  11.298
 3100TIP3   OH230714   6.916   6.322  11.805
 3100TIP3    H130715   6.909   6.231  11.778
 3100TIP3    H230716   7.001   6.351  11.771
 3101TIP3   OH230717   7.041   6.604  11.728
 3101TIP3    H130718   7.031   6.653  11.646
 3101TIP3    H230719   7.091   6.526  11.703
 3102TIP3   OH230720   6.147   6.232  11.793
 3102TIP3    H130721   6.066   6.183  11.776
 3102TIP3    H230722   6.195   6.228  11.710
 3103TIP3   OH230723   6.401   5.754  11.401
 3103TIP3    H130724   6.382   5.845  11.379
 3103TIP3    H230725   6.333   5.704  11.355
 3104TIP3   OH230726   6.538   6.140  11.735
 3104TIP3    H130727   6.498   6.116  11.818
 3104TIP3    H230728   6.465   6.147  11.673
 3105TIP3   OH230729   6.810   6.093  11.671
 3105TIP3    H130730   6.717   6.091  11.694
 3105TIP3    H230731   6.851   6.031  11.731
 3106TIP3   OH230732   6.971   5.961  11.853
 3106TIP3    H130733   6.961   5.866  11.845
 3106TIP3    H230734   6.943   5.980  11.942
 3107TIP3   OH230735   5.937   6.043  11.761
 3107TIP3    H130736   5.940   5.966  11.704
 3107TIP3    H230737   5.950   6.008  11.849
 3108TIP3   OH230738   6.387   5.669  11.662
 3108TIP3    H130739   6.445   5.593  11.655
 3108TIP3    H230740   6.384   5.705  11.573
 3109TIP3   OH230741   6.465   5.827  11.874
 3109TIP3    H130742   6.443   5.777  11.796
 3109TIP3    H230743   6.408   5.904  11.871
 3110TIP3   OH230744   7.261   7.144  11.343
 3110TIP3    H130745   7.281   7.237  11.339
 3110TIP3    H230746   7.228   7.122  11.256
 3111TIP3   OH230747   7.205   6.414  10.691
 3111TIP3    H130748   7.201   6.320  10.708
 3111TIP3    H230749   7.171   6.454  10.770
 3112TIP3   OH230750   5.720   6.606  11.072
 3112TIP3    H130751   5.735   6.607  10.977
 3112TIP3    H230752   5.806   6.593  11.110
 3113TIP3   OH230753   7.047   6.031  10.041
 3113TIP3    H130754   7.094   6.092  10.098
 3113TIP3    H230755   7.111   6.006   9.975
 3114TIP3   OH230756   7.204   6.171  10.476
 3114TIP3    H130757   7.270   6.169  10.545
 3114TIP3    H230758   7.254   6.176  10.395
 3115TIP3   OH230759   7.256   6.124  11.081
 3115TIP3    H130760   7.337   6.092  11.040
 3115TIP3    H230761   7.270   6.219  11.090
 3116TIP3   OH230762   7.258   6.353  11.363
 3116TIP3    H130763   7.170   6.390  11.356
 3116TIP3    H230764   7.294   6.361  11.275
 3117TIP3   OH230765   5.706   6.160  11.661
 3117TIP3    H130766   5.792   6.135  11.694
 3117TIP3    H230767   5.654   6.080  11.668
 3118TIP3   OH230768   7.263   5.878  10.584
 3118TIP3    H130769   7.300   5.790  10.592
 3118TIP3    H230770   7.179   5.865  10.541
 3119TIP3   OH230771   5.823   6.012  10.989
 3119TIP3    H130772   5.864   5.927  10.972
 3119TIP3    H230773   5.895   6.074  10.989
 3120TIP3   OH230774   5.637   6.318  11.039
 3120TIP3    H130775   5.703   6.294  10.974
 3120TIP3    H230776   5.655   6.410  11.058
 3121TIP3   OH230777   5.678   5.959  10.482
 3121TIP3    H130778   5.585   5.958  10.463
 3121TIP3    H230779   5.716   6.018  10.416
 3122TIP3   OH230780   5.694   5.775  11.294
 3122TIP3    H130781   5.621   5.770  11.355
 3122TIP3    H230782   5.668   5.842  11.231
 3123TIP3   OH230783   5.919   7.170  11.726
 3123TIP3    H130784   5.830   7.171  11.692
 3123TIP3    H230785   5.909   7.154  11.820
 3124TIP3   OH230786   6.205   7.270  11.359
 3124TIP3    H130787   6.131   7.280  11.300
 3124TIP3    H230788   6.277   7.240  11.303
 3125TIP3   OH230789   6.104   7.257  10.907
 3125TIP3    H130790   6.094   7.175  10.955
 3125TIP3    H230791   6.154   7.235  10.829
 3126TIP3   OH230792   6.675   5.874  10.926
 3126TIP3    H130793   6.607   5.807  10.940
 3126TIP3    H230794   6.742   5.829  10.874
 3127TIP3   OH230795   7.172   5.724  10.893
 3127TIP3    H130796   7.208   5.813  10.893
 3127TIP3    H230797   7.078   5.737  10.879
 3128TIP3   OH230798   5.924   5.741  10.660
 3128TIP3    H130799   5.835   5.733  10.626
 3128TIP3    H230800   5.963   5.655  10.644
 3129TIP3   OH230801   5.809   5.742  10.348
 3129TIP3    H130802   5.867   5.788  10.286
 3129TIP3    H230803   5.760   5.812  10.390
 3130TIP3   OH230804   6.412   5.705  10.675
 3130TIP3    H130805   6.481   5.754  10.628
 3130TIP3    H230806   6.416   5.738  10.764
 3131TIP3   OH230807   6.905   5.748  10.812
 3131TIP3    H130808   6.905   5.733  10.717
 3131TIP3    H230809   6.876   5.665  10.849
 3132TIP3   OH230810   7.071   5.732  10.446
 3132TIP3    H130811   7.028   5.781  10.376
 3132TIP3    H230812   7.026   5.648  10.448
 3133TIP3   OH230813   5.982   5.869  10.171
 3133TIP3    H130814   6.007   5.875  10.078
 3133TIP3    H230815   6.054   5.912  10.217
 3134TIP3   OH230816   6.470   5.962  10.341
 3134TIP3    H130817   6.514   5.892  10.390
 3134TIP3    H230818   6.497   6.043  10.384
 3135TIP3   OH230819   5.933   5.794  11.619
 3135TIP3    H130820   5.875   5.723  11.649
 3135TIP3    H230821   6.015   5.779  11.666
 3136TIP3   OH230822   6.140   5.729  11.792
 3136TIP3    H130823   6.225   5.705  11.753
 3136TIP3    H230824   6.109   5.648  11.831
 3137TIP3   OH230825   6.972   5.686  11.814
 3137TIP3    H130826   6.968   5.632  11.894
 3137TIP3    H230827   7.064   5.679  11.786
 3138TIP3   OH230828   7.277   7.253  11.683
 3138TIP3    H130829   7.242   7.206  11.607
 3138TIP3    H230830   7.276   7.345  11.657
 3139TIP3   OH230831   1.190   1.030  12.538
 3139TIP3    H130832   1.175   1.124  12.532
 3139TIP3    H230833   1.124   0.991  12.482
 3140TIP3   OH230834   1.081   0.944  12.935
 3140TIP3    H130835   1.106   0.898  13.015
 3140TIP3    H230836   1.034   0.878  12.883
 3141TIP3   OH230837   0.314   0.904  13.049
 3141TIP3    H130838   0.307   0.822  13.099
 3141TIP3    H230839   0.406   0.927  13.056
 3142TIP3   OH230840   1.462   1.248  12.760
 3142TIP3    H130841   1.420   1.175  12.806
 3142TIP3    H230842   1.479   1.312  12.829
 3143TIP3   OH230843   0.416   1.355  12.877
 3143TIP3    H130844   0.392   1.265  12.854
 3143TIP3    H230845   0.510   1.352  12.893
 3144TIP3   OH230846   0.129   0.739  12.422
 3144TIP3    H130847   0.100   0.808  12.482
 3144TIP3    H230848   0.048   0.703  12.386
 3145TIP3   OH230849   0.157   0.931  12.682
 3145TIP3    H130850   0.190   0.846  12.709
 3145TIP3    H230851   0.236   0.985  12.671
 3146TIP3   OH230852   1.187   1.733  12.788
 3146TIP3    H130853   1.223   1.680  12.716
 3146TIP3    H230854   1.154   1.668  12.851
 3147TIP3   OH230855   0.917   1.201  12.940
 3147TIP3    H130856   0.955   1.124  12.897
 3147TIP3    H230857   0.987   1.233  12.998
 3148TIP3   OH230858   1.834   0.329  13.048
 3148TIP3    H130859   1.841   0.400  13.112
 3148TIP3    H230860   1.886   0.358  12.974
 3149TIP3   OH230861   1.240   0.609  12.959
 3149TIP3    H130862   1.262   0.517  12.971
 3149TIP3    H230863   1.220   0.617  12.866
 3150TIP3   OH230864   0.577   0.424  12.683
 3150TIP3    H130865   0.585   0.509  12.640
 3150TIP3    H230866   0.523   0.372  12.624
 3151TIP3   OH230867   1.360   0.454  12.532
 3151TIP3    H130868   1.407   0.431  12.613
 3151TIP3    H230869   1.426   0.495  12.477
 3152TIP3   OH230870   0.248   0.685  12.770
 3152TIP3    H130871   0.306   0.634  12.826
 3152TIP3    H230872   0.259   0.648  12.683
 3153TIP3   OH230873   0.714   0.826  12.729
 3153TIP3    H130874   0.799   0.791  12.755
 3153TIP3    H230875   0.678   0.761  12.668
 3154TIP3   OH230876   1.845   0.504  13.264
 3154TIP3    H130877   1.769   0.558  13.244
 3154TIP3    H230878   1.856   0.512  13.359
 3155TIP3   OH230879   0.438   0.332  13.115
 3155TIP3    H130880   0.415   0.387  13.040
 3155TIP3    H230881   0.368   0.347  13.178
 3156TIP3   OH230882   1.120   1.280  12.448
 3156TIP3    H130883   1.121   1.285  12.353
 3156TIP3    H230884   1.088   1.366  12.477
 3157TIP3   OH230885   0.708   1.114  13.095
 3157TIP3    H130886   0.653   1.184  13.129
 3157TIP3    H230887   0.775   1.158  13.043
 3158TIP3   OH230888   1.465   0.410  12.777
 3158TIP3    H130889   1.410   0.377  12.848
 3158TIP3    H230890   1.529   0.466  12.821
 3159TIP3   OH230891   0.418   0.503  12.896
 3159TIP3    H130892   0.476   0.558  12.949
 3159TIP3    H230893   0.475   0.469  12.826
 3160TIP3   OH230894   0.553   1.315  13.201
 3160TIP3    H130895   0.559   1.410  13.189
 3160TIP3    H230896   0.464   1.301  13.234
 3161TIP3   OH230897   0.112   1.282  12.264
 3161TIP3    H130898   0.110   1.314  12.174
 3161TIP3    H230899   0.148   1.356  12.314
 3162TIP3   OH230900   1.495   1.452  12.962
 3162TIP3    H130901   1.400   1.456  12.977
 3162TIP3    H230902   1.519   1.541  12.935
 3163TIP3   OH230903   1.572   0.285  13.144
 3163TIP3    H130904   1.497   0.294  13.086
 3163TIP3    H230905   1.648   0.299  13.088
 3164TIP3   OH230906   0.768   0.057  12.834
 3164TIP3    H130907   0.789  -0.011  12.898
 3164TIP3    H230908   0.685   0.094  12.864
 3165TIP3   OH230909   1.311   1.610  12.571
 3165TIP3    H130910   1.351   1.524  12.554
 3165TIP3    H230911   1.385   1.670  12.577
 3166TIP3   OH230912   1.437   1.377  12.514
 3166TIP3    H130913   1.451   1.316  12.442
 3166TIP3    H230914   1.447   1.323  12.593
 3167TIP3   OH230915   1.608   1.234  13.316
 3167TIP3    H130916   1.595   1.179  13.239
 3167TIP3    H230917   1.620   1.322  13.280
 3168TIP3   OH230918   1.044   0.940  12.317
 3168TIP3    H130919   0.978   1.005  12.293
 3168TIP3    H230920   1.109   0.945  12.248
 3169TIP3   OH230921   1.082   0.812  11.970
 3169TIP3    H130922   1.138   0.838  12.043
 3169TIP3    H230923   1.133   0.745  11.924
 3170TIP3   OH230924   1.769   0.905  13.154
 3170TIP3    H130925   1.695   0.964  13.140
 3170TIP3    H230926   1.829   0.925  13.082
 3171TIP3   OH230927   1.410   0.972  12.386
 3171TIP3    H130928   1.340   0.992  12.449
 3171TIP3    H230929   1.474   0.921  12.436
 3172TIP3   OH230930   1.376   0.770  13.336
 3172TIP3    H130931   1.368   0.842  13.398
 3172TIP3    H230932   1.313   0.790  13.267
 3173TIP3   OH230933   0.555   1.012  12.590
 3173TIP3    H130934   0.529   0.975  12.505
 3173TIP3    H230935   0.615   0.947  12.627
 3174TIP3   OH230936   0.703   1.376  12.851
 3174TIP3    H130937   0.699   1.384  12.755
 3174TIP3    H230938   0.778   1.320  12.867
 3175TIP3   OH230939   0.585   0.910  12.960
 3175TIP3    H130940   0.633   0.889  12.880
 3175TIP3    H230941   0.635   0.981  13.001
 3176TIP3   OH230942   1.232   1.473  13.031
 3176TIP3    H130943   1.214   1.539  13.097
 3176TIP3    H230944   1.191   1.393  13.065
 3177TIP3   OH230945   0.701   1.345  13.433
 3177TIP3    H130946   0.637   1.403  13.474
 3177TIP3    H230947   0.659   1.317  13.351
 3178TIP3   OH230948   1.275   0.899  12.157
 3178TIP3    H130949   1.326   0.935  12.230
 3178TIP3    H230950   1.327   0.920  12.079
 3179TIP3   OH230951   0.383   0.935  13.395
 3179TIP3    H130952   0.395   1.019  13.438
 3179TIP3    H230953   0.295   0.939  13.357
 3180TIP3   OH230954   1.051   1.547  12.502
 3180TIP3    H130955   1.139   1.569  12.531
 3180TIP3    H230956   1.022   1.623  12.452
 3181TIP3   OH230957   0.494   1.515  13.505
 3181TIP3    H130958   0.489   1.543  13.414
 3181TIP3    H230959   0.403   1.501  13.532
 3182TIP3   OH230960   1.659   0.041  12.161
 3182TIP3    H130961   1.571   0.064  12.193
 3182TIP3    H230962   1.693   0.123  12.124
 3183TIP3   OH230963   0.467   0.923  12.335
 3183TIP3    H130964   0.413   0.989  12.291
 3183TIP3    H230965   0.417   0.842  12.326
 3184TIP3   OH230966   1.767   1.485  12.007
 3184TIP3    H130967   1.795   1.577  12.006
 3184TIP3    H230968   1.848   1.436  12.015
 3185TIP3   OH230969   0.167   1.132  13.214
 3185TIP3    H130970   0.124   1.125  13.129
 3185TIP3    H230971   0.138   1.055  13.262
 3186TIP3   OH230972   0.112   1.464  12.843
 3186TIP3    H130973   0.189   1.418  12.876
 3186TIP3    H230974   0.039   1.424  12.890
 3187TIP3   OH230975   1.865   1.538  13.522
 3187TIP3    H130976   1.855   1.444  13.507
 3187TIP3    H230977   1.778   1.566  13.553
 3188TIP3   OH230978   0.940   1.468  13.377
 3188TIP3    H130979   0.939   1.552  13.422
 3188TIP3    H230980   0.855   1.429  13.396
 3189TIP3   OH230981   1.030   1.809  12.361
 3189TIP3    H130982   1.008   1.812  12.267
 3189TIP3    H230983   0.997   1.891  12.396
 3190TIP3   OH230984   0.376   1.697  12.544
 3190TIP3    H130985   0.389   1.665  12.633
 3190TIP3    H230986   0.317   1.633  12.504
 3191TIP3   OH230987   1.314   1.773  12.042
 3191TIP3    H130988   1.362   1.700  12.003
 3191TIP3    H230989   1.327   1.763  12.136
 3192TIP3   OH230990   1.297   1.758  12.319
 3192TIP3    H130991   1.204   1.770  12.338
 3192TIP3    H230992   1.327   1.694  12.384
 3193TIP3   OH230993   1.548   0.652  13.539
 3193TIP3    H130994   1.493   0.685  13.468
 3193TIP3    H230995   1.562   0.560  13.518
 3194TIP3   OH230996   0.311   1.330  13.328
 3194TIP3    H130997   0.327   1.292  13.415
 3194TIP3    H230998   0.252   1.269  13.285
 3195TIP3   OH230999   0.511   0.120  12.938
 3195TIP3    H131000   0.422   0.126  12.902
 3195TIP3    H231001   0.512   0.182  13.011
 3196TIP3   OH231002   1.017   0.126  13.281
 3196TIP3    H131003   1.050   0.066  13.348
 3196TIP3    H231004   0.925   0.139  13.303
 3197TIP3   OH231005   1.316   0.496  13.363
 3197TIP3    H131006   1.247   0.485  13.428
 3197TIP3    H231007   1.321   0.591  13.349
 3198TIP3   OH231008   1.424   0.939  11.934
 3198TIP3    H131009   1.402   0.954  11.842
 3198TIP3    H231010   1.515   0.966  11.941
 3199TIP3   OH231011   0.983   0.370  12.036
 3199TIP3    H131012   0.921   0.348  12.105
 3199TIP3    H231013   0.957   0.315  11.962
 3200TIP3   OH231014   0.562   0.661  13.070
 3200TIP3    H131015   0.491   0.666  13.134
 3200TIP3    H231016   0.570   0.749  13.035
 3201TIP3   OH231017   0.579   0.665  12.551
 3201TIP3    H131018   0.484   0.653  12.550
 3201TIP3    H231019   0.606   0.649  12.461
 3202TIP3   OH231020   1.104   0.698  12.432
 3202TIP3    H131021   1.076   0.783  12.399
 3202TIP3    H231022   1.176   0.672  12.374
 3203TIP3   OH231023   1.027   0.712  13.552
 3203TIP3    H131024   0.971   0.642  13.588
 3203TIP3    H231025   1.112   0.698  13.592
 3204TIP3   OH231026   1.206   0.633  12.686
 3204TIP3    H131027   1.161   0.682  12.617
 3204TIP3    H231028   1.250   0.562  12.639
 3205TIP3   OH231029   0.337   0.680  13.226
 3205TIP3    H131030   0.330   0.736  13.304
 3205TIP3    H231031   0.283   0.604  13.246
 3206TIP3   OH231032   0.621   0.350  11.895
 3206TIP3    H131033   0.607   0.357  11.989
 3206TIP3    H231034   0.588   0.432  11.859
 3207TIP3   OH231035   0.021   0.419  12.597
 3207TIP3    H131036   0.074   0.426  12.676
 3207TIP3    H231037  -0.004   0.327  12.593
 3208TIP3   OH231038   0.050   0.482  12.145
 3208TIP3    H131039   0.122   0.537  12.114
 3208TIP3    H231040   0.007   0.451  12.065
 3209TIP3   OH231041   1.162   0.783  13.151
 3209TIP3    H131042   1.196   0.726  13.083
 3209TIP3    H231043   1.095   0.732  13.195
 3210TIP3   OH231044   0.857   0.406  12.637
 3210TIP3    H131045   0.766   0.404  12.665
 3210TIP3    H231046   0.904   0.358  12.706
 3211TIP3   OH231047   0.322   0.576  12.531
 3211TIP3    H131048   0.255   0.616  12.475
 3211TIP3    H231049   0.326   0.485  12.502
 3212TIP3   OH231050   0.632   0.590  12.294
 3212TIP3    H131051   0.727   0.583  12.305
 3212TIP3    H231052   0.621   0.630  12.208
 3213TIP3   OH231053   1.290   0.328  12.975
 3213TIP3    H131054   1.225   0.335  13.045
 3213TIP3    H231055   1.257   0.259  12.918
 3214TIP3   OH231056   0.592   0.679  12.041
 3214TIP3    H131057   0.540   0.653  11.965
 3214TIP3    H231058   0.667   0.726  12.004
 3215TIP3   OH231059   1.608   1.899  13.617
 3215TIP3    H131060   1.632   1.933  13.531
 3215TIP3    H231061   1.682   1.923  13.673
 3216TIP3   OH231062   0.365   1.161  13.557
 3216TIP3    H131063   0.424   1.161  13.632
 3216TIP3    H231064   0.278   1.178  13.594
 3217TIP3   OH231065   0.943   0.707  12.837
 3217TIP3    H131066   1.003   0.650  12.791
 3217TIP3    H231067   0.907   0.652  12.907
 3218TIP3   OH231068   0.409   0.304  12.491
 3218TIP3    H131069   0.366   0.223  12.518
 3218TIP3    H231070   0.444   0.285  12.404
 3219TIP3   OH231071   0.825   0.575  13.057
 3219TIP3    H131072   0.739   0.616  13.067
 3219TIP3    H231073   0.873   0.602  13.135
 3220TIP3   OH231074   0.852   1.133  12.244
 3220TIP3    H131075   0.780   1.094  12.194
 3220TIP3    H231076   0.812   1.157  12.328
 3221TIP3   OH231077   1.573   1.087  13.086
 3221TIP3    H131078   1.634   1.141  13.035
 3221TIP3    H231079   1.501   1.068  13.026
 3222TIP3   OH231080   1.238   0.412  12.117
 3222TIP3    H131081   1.146   0.409  12.088
 3222TIP3    H231082   1.248   0.500  12.153
 3223TIP3   OH231083   1.018   1.188  13.372
 3223TIP3    H131084   1.036   1.156  13.460
 3223TIP3    H231085   0.987   1.277  13.385
 3224TIP3   OH231086   1.312   0.640  12.256
 3224TIP3    H131087   1.403   0.625  12.282
 3224TIP3    H231088   1.313   0.727  12.214
 3225TIP3   OH231089   0.395   1.085  12.803
 3225TIP3    H131090   0.453   1.069  12.729
 3225TIP3    H231091   0.418   1.016  12.866
 3226TIP3   OH231092   1.067   1.283  12.168
 3226TIP3    H131093   1.035   1.373  12.174
 3226TIP3    H231094   0.991   1.230  12.192
 3227TIP3   OH231095   0.110   0.905  13.360
 3227TIP3    H131096   0.106   0.889  13.454
 3227TIP3    H231097   0.065   0.830  13.321
 3228TIP3   OH231098   0.813   0.896  13.572
 3228TIP3    H131099   0.746   0.862  13.512
 3228TIP3    H231100   0.893   0.849  13.548
 3229TIP3   OH231101   1.224   1.452  13.376
 3229TIP3    H131102   1.132   1.456  13.353
 3229TIP3    H231103   1.226   1.466  13.470
 3230TIP3   OH231104   1.768   0.669  12.195
 3230TIP3    H131105   1.727   0.647  12.112
 3230TIP3    H231106   1.793   0.761  12.187
 3231TIP3   OH231107   1.833   1.265  13.474
 3231TIP3    H131108   1.741   1.262  13.448
 3231TIP3    H231109   1.881   1.240  13.396
 3232TIP3   OH231110   1.637   1.516  12.252
 3232TIP3    H131111   1.591   1.435  12.274
 3232TIP3    H231112   1.676   1.498  12.166
 3233TIP3   OH231113   1.364   1.018  12.906
 3233TIP3    H131114   1.269   1.009  12.900
 3233TIP3    H231115   1.399   0.943  12.859
 3234TIP3   OH231116   0.642   1.445  12.585
 3234TIP3    H131117   0.672   1.528  12.548
 3234TIP3    H231118   0.548   1.443  12.567
 3235TIP3   OH231119   0.175   0.920  12.022
 3235TIP3    H131120   0.231   0.974  12.078
 3235TIP3    H231121   0.086   0.947  12.044
 3236TIP3   OH231122   0.715   1.205  12.466
 3236TIP3    H131123   0.706   1.289  12.511
 3236TIP3    H231124   0.661   1.145  12.516
 3237TIP3   OH231125   0.829   1.621  13.156
 3237TIP3    H131126   0.888   1.693  13.132
 3237TIP3    H231127   0.883   1.562  13.209
 3238TIP3   OH231128   0.641   1.705  12.471
 3238TIP3    H131129   0.548   1.716  12.489
 3238TIP3    H231130   0.682   1.784  12.505
 3239TIP3   OH231131   1.129   1.229  13.122
 3239TIP3    H131132   1.093   1.208  13.209
 3239TIP3    H231133   1.189   1.157  13.103
 3240TIP3   OH231134   1.415   1.328  12.043
 3240TIP3    H131135   1.429   1.289  12.129
 3240TIP3    H231136   1.326   1.301  12.019
 3241TIP3   OH231137   1.434   1.648  13.348
 3241TIP3    H131138   1.354   1.598  13.334
 3241TIP3    H231139   1.429   1.720  13.285
 3242TIP3   OH231140   1.828   1.752  12.033
 3242TIP3    H131141   1.878   1.813  11.980
 3242TIP3    H231142   1.760   1.805  12.074
 3243TIP3   OH231143   0.239   0.387  13.306
 3243TIP3    H131144   0.143   0.393  13.303
 3243TIP3    H231145   0.257   0.316  13.367
 3244TIP3   OH231146   1.509   1.212  12.285
 3244TIP3    H131147   1.466   1.132  12.315
 3244TIP3    H231148   1.602   1.190  12.285
 3245TIP3   OH231149   0.221   1.585  13.148
 3245TIP3    H131150   0.287   1.522  13.177
 3245TIP3    H231151   0.139   1.553  13.185
 3246TIP3   OH231152   0.791   1.418  11.887
 3246TIP3    H131153   0.795   1.334  11.840
 3246TIP3    H231154   0.750   1.397  11.971
 3247TIP3   OH231155   0.665   1.392  12.133
 3247TIP3    H131156   0.714   1.342  12.198
 3247TIP3    H231157   0.677   1.483  12.160
 3248TIP3   OH231158   0.308   1.100  12.191
 3248TIP3    H131159   0.237   1.148  12.233
 3248TIP3    H231160   0.356   1.166  12.142
 3249TIP3   OH231161   1.129   0.367  13.200
 3249TIP3    H131162   1.202   0.385  13.260
 3249TIP3    H231163   1.094   0.283  13.230
 3250TIP3   OH231164   1.222   0.285  12.362
 3250TIP3    H131165   1.223   0.324  12.274
 3250TIP3    H231166   1.263   0.351  12.418
 3251TIP3   OH231167   0.964   1.533  12.184
 3251TIP3    H131168   0.876   1.567  12.203
 3251TIP3    H231169   1.012   1.609  12.151
 3252TIP3   OH231170   0.887   0.531  12.395
 3252TIP3    H131171   0.962   0.590  12.403
 3252TIP3    H231172   0.875   0.496  12.483
 3253TIP3   OH231173   0.992   0.609  13.278
 3253TIP3    H131174   1.002   0.623  13.372
 3253TIP3    H231175   1.030   0.522  13.263
 3254TIP3   OH231176   0.977   0.201  12.462
 3254TIP3    H131177   0.959   0.272  12.523
 3254TIP3    H231178   1.064   0.221  12.428
 3255TIP3   OH231179   0.717   1.650  12.213
 3255TIP3    H131180   0.722   1.735  12.168
 3255TIP3    H231181   0.690   1.672  12.302
 3256TIP3   OH231182   0.564   0.346  12.170
 3256TIP3    H131183   0.555   0.433  12.209
 3256TIP3    H231184   0.652   0.317  12.196
 3257TIP3   OH231185   1.566   0.402  13.402
 3257TIP3    H131186   1.473   0.423  13.394
 3257TIP3    H231187   1.591   0.371  13.315
 3258TIP3   OH231188   1.444   0.772  12.784
 3258TIP3    H131189   1.361   0.729  12.764
 3258TIP3    H231190   1.490   0.710  12.840
 3259TIP3   OH231191   0.415   1.311  12.039
 3259TIP3    H131192   0.487   1.358  12.079
 3259TIP3    H231193   0.456   1.255  11.973
 3260TIP3   OH231194   0.208   0.646  11.994
 3260TIP3    H131195   0.209   0.741  12.008
 3260TIP3    H231196   0.168   0.635  11.908
 3261TIP3   OH231197   1.574   1.723  12.952
 3261TIP3    H131198   1.559   1.795  12.891
 3261TIP3    H231199   1.669   1.719  12.961
 3262TIP3   OH231200   0.251   0.120  12.837
 3262TIP3    H131201   0.259   0.103  12.743
 3262TIP3    H231202   0.213   0.041  12.874
 3263TIP3   OH231203   0.186   1.521  12.420
 3263TIP3    H131204   0.113   1.512  12.481
 3263TIP3    H231205   0.158   1.589  12.359
 3264TIP3   OH231206   0.194   1.832  13.525
 3264TIP3    H131207   0.242   1.810  13.605
 3264TIP3    H231208   0.137   1.756  13.510
 3265TIP3   OH231209   0.570   1.613  13.752
 3265TIP3    H131210   0.654   1.569  13.766
 3265TIP3    H231211   0.542   1.584  13.665
 3266TIP3   OH231212   0.995   1.604  11.870
 3266TIP3    H131213   0.928   1.536  11.883
 3266TIP3    H231214   1.072   1.557  11.838
 3267TIP3   OH231215   1.220   1.487  13.649
 3267TIP3    H131216   1.210   1.404  13.695
 3267TIP3    H231217   1.297   1.527  13.689
 3268TIP3   OH231218   1.442   1.570  11.910
 3268TIP3    H131219   1.451   1.490  11.963
 3268TIP3    H231220   1.520   1.569  11.854
 3269TIP3   OH231221   0.092   1.160  13.630
 3269TIP3    H131222   0.094   1.065  13.619
 3269TIP3    H231223   0.038   1.192  13.558
 3270TIP3   OH231224   0.547   1.130  11.887
 3270TIP3    H131225   0.574   1.082  11.965
 3270TIP3    H231226   0.629   1.145  11.839
 3271TIP3   OH231227   0.777   1.171  13.632
 3271TIP3    H131228   0.759   1.216  13.550
 3271TIP3    H231229   0.802   1.082  13.605
 3272TIP3   OH231230   1.166   1.272  11.913
 3272TIP3    H131231   1.120   1.270  11.997
 3272TIP3    H231232   1.143   1.190  11.870
 3273TIP3   OH231233   1.346   1.195  13.403
 3273TIP3    H131234   1.436   1.215  13.376
 3273TIP3    H231235   1.297   1.274  13.382
 3274TIP3   OH231236   0.186   0.886  13.629
 3274TIP3    H131237   0.276   0.881  13.597
 3274TIP3    H231238   0.194   0.899  13.723
 3275TIP3   OH231239   0.647   1.000  12.114
 3275TIP3    H131240   0.598   0.953  12.181
 3275TIP3    H231241   0.696   0.932  12.068
 3276TIP3   OH231242   0.620   0.790  13.394
 3276TIP3    H131243   0.540   0.842  13.387
 3276TIP3    H231244   0.677   0.823  13.325
 3277TIP3   OH231245   0.802   0.833  11.955
 3277TIP3    H131246   0.797   0.859  11.863
 3277TIP3    H231247   0.896   0.818  11.970
 3278TIP3   OH231248   1.124   1.028  13.680
 3278TIP3    H131249   1.195   0.992  13.627
 3278TIP3    H231250   1.092   0.953  13.731
 3279TIP3   OH231251   1.687   1.021  11.903
 3279TIP3    H131252   1.688   0.999  11.810
 3279TIP3    H231253   1.679   1.116  11.906
 3280TIP3   OH231254   0.652   0.528  13.460
 3280TIP3    H131255   0.661   0.474  13.381
 3280TIP3    H231256   0.644   0.618  13.427
 3281TIP3   OH231257   0.686   0.385  13.222
 3281TIP3    H131258   0.738   0.428  13.155
 3281TIP3    H231259   0.601   0.370  13.181
 3282TIP3   OH231260   0.806   0.896  13.229
 3282TIP3    H131261   0.901   0.905  13.227
 3282TIP3    H231262   0.774   0.974  13.185
 3283TIP3   OH231263   1.265   0.651  13.707
 3283TIP3    H131264   1.284   0.558  13.713
 3283TIP3    H231265   1.350   0.692  13.690
 3284TIP3   OH231266   1.385   0.967  13.544
 3284TIP3    H131267   1.360   1.047  13.499
 3284TIP3    H231268   1.481   0.966  13.539
 3285TIP3   OH231269   0.494   0.582  13.685
 3285TIP3    H131270   0.410   0.539  13.668
 3285TIP3    H231271   0.539   0.582  13.600
 3286TIP3   OH231272   0.748   0.145  13.337
 3286TIP3    H131273   0.728   0.232  13.303
 3286TIP3    H231274   0.682   0.088  13.298
 3287TIP3   OH231275   0.870   0.498  13.626
 3287TIP3    H131276   0.839   0.450  13.703
 3287TIP3    H231277   0.794   0.504  13.569
 3288TIP3   OH231278   1.122   0.426  13.537
 3288TIP3    H131279   1.033   0.435  13.570
 3288TIP3    H231280   1.173   0.391  13.611
 3289TIP3   OH231281   1.310   0.364  13.742
 3289TIP3    H131282   1.303   0.271  13.719
 3289TIP3    H231283   1.290   0.367  13.835
 3290TIP3   OH231284   0.281   0.402  13.660
 3290TIP3    H131285   0.283   0.326  13.601
 3290TIP3    H231286   0.282   0.364  13.748
 3291TIP3   OH231287   0.834   0.000  13.549
 3291TIP3    H131288   0.755  -0.044  13.581
 3291TIP3    H231289   0.803   0.056  13.477
 3292TIP3   OH231290   0.858   0.204  13.744
 3292TIP3    H131291   0.859   0.130  13.684
 3292TIP3    H231292   0.770   0.240  13.738
 3293TIP3   OH231293   0.789   1.892  12.094
 3293TIP3    H131294   0.878   1.858  12.084
 3293TIP3    H231295   0.780   1.955  12.022
 3294TIP3   OH231296   0.143   1.337  11.991
 3294TIP3    H131297   0.238   1.335  11.998
 3294TIP3    H231298   0.123   1.280  11.917
 3295TIP3   OH231299   0.065   1.878  12.484
 3295TIP3    H131300   0.056   1.832  12.400
 3295TIP3    H231301   0.066   1.809  12.550
 3296TIP3   OH231302   0.086   1.680  12.681
 3296TIP3    H131303   0.085   1.592  12.719
 3296TIP3    H231304   0.138   1.732  12.743
 3297TIP3   OH231305   1.843   1.724  13.016
 3297TIP3    H131306   1.846   1.736  13.111
 3297TIP3    H231307   1.922   1.767  12.983
 3298TIP3   OH231308   1.784   1.701  13.296
 3298TIP3    H131309   1.732   1.631  13.256
 3298TIP3    H231310   1.832   1.658  13.366
 3299TIP3   OH231311   1.638   1.283  13.773
 3299TIP3    H131312   1.555   1.294  13.819
 3299TIP3    H231313   1.691   1.358  13.801
 3300TIP3   OH231314   1.772   1.122  12.310
 3300TIP3    H131315   1.847   1.181  12.311
 3300TIP3    H231316   1.791   1.059  12.379
 3301TIP3   OH231317   1.824   0.918  12.491
 3301TIP3    H131318   1.738   0.886  12.519
 3301TIP3    H231319   1.872   0.932  12.572
 3302TIP3   OH231320   1.812   1.213  13.008
 3302TIP3    H131321   1.862   1.145  12.962
 3302TIP3    H231322   1.838   1.294  12.966
 3303TIP3   OH231323   1.619   1.490  13.210
 3303TIP3    H131324   1.547   1.537  13.252
 3303TIP3    H231325   1.590   1.474  13.121
 3304TIP3   OH231326   1.828   0.928  12.120
 3304TIP3    H131327   1.780   0.954  12.041
 3304TIP3    H231328   1.808   0.997  12.183
 3305TIP3   OH231329   1.671   0.629  11.944
 3305TIP3    H131330   1.646   0.694  11.878
 3305TIP3    H231331   1.653   0.545  11.903
 3306TIP3   OH231332   1.574   0.804  12.540
 3306TIP3    H131333   1.570   0.714  12.505
 3306TIP3    H231334   1.533   0.797  12.626
 3307TIP3   OH231335   0.088   1.016  12.943
 3307TIP3    H131336   0.092   1.013  12.847
 3307TIP3    H231337   0.176   0.991  12.972
 3308TIP3   OH231338   1.661   0.982  13.515
 3308TIP3    H131339   1.722   0.910  13.499
 3308TIP3    H231340   1.687   1.049  13.452
 3309TIP3   OH231341   1.804   0.747  13.504
 3309TIP3    H131342   1.715   0.715  13.517
 3309TIP3    H231343   1.860   0.672  13.525
 3310TIP3   OH231344   1.604   0.383  11.839
 3310TIP3    H131345   1.636   0.332  11.912
 3310TIP3    H231346   1.509   0.372  11.842
 3311TIP3   OH231347   1.569   0.560  12.370
 3311TIP3    H131348   1.594   0.468  12.372
 3311TIP3    H231349   1.636   0.603  12.317
 3312TIP3   OH231350   1.605   0.590  12.934
 3312TIP3    H131351   1.697   0.607  12.914
 3312TIP3    H231352   1.598   0.604  13.029
 3313TIP3   OH231353   1.626   0.673  13.204
 3313TIP3    H131354   1.543   0.706  13.239
 3313TIP3    H231355   1.677   0.752  13.188
 3314TIP3   OH231356   0.047   0.516  13.572
 3314TIP3    H131357   0.136   0.489  13.592
 3314TIP3    H231358   0.030   0.482  13.485
 3315TIP3   OH231359   1.895   0.109  13.722
 3315TIP3    H131360   1.886   0.017  13.696
 3315TIP3    H231361   1.855   0.158  13.650
 3316TIP3   OH231362   1.621   0.285  12.386
 3316TIP3    H131363   1.636   0.245  12.471
 3316TIP3    H231364   1.558   0.227  12.343
 3317TIP3   OH231365   0.168   0.383  12.832
 3317TIP3    H131366   0.188   0.290  12.843
 3317TIP3    H231367   0.248   0.429  12.858
 3318TIP3   OH231368   0.066   0.732  12.973
 3318TIP3    H131369   0.129   0.717  12.903
 3318TIP3    H231370   0.051   0.827  12.972
 3319TIP3   OH231371   1.776   0.253  13.518
 3319TIP3    H131372   1.698   0.309  13.526
 3319TIP3    H231373   1.760   0.201  13.440
 3320TIP3   OH231374   1.767   0.265  12.038
 3320TIP3    H131375   1.820   0.211  11.980
 3320TIP3    H231376   1.827   0.332  12.070
 3321TIP3   OH231377   0.028   0.250  12.289
 3321TIP3    H131378  -0.059   0.227  12.255
 3321TIP3    H231379   0.051   0.330  12.243
 3322TIP3   OH231380   1.507   1.796  12.561
 3322TIP3    H131381   1.571   1.782  12.491
 3322TIP3    H231382   1.556   1.846  12.627
 3323TIP3   OH231383   0.028   0.100  13.216
 3323TIP3    H131384   0.025   0.168  13.283
 3323TIP3    H231385  -0.019   0.137  13.141
 3324TIP3   OH231386   0.235   1.497  13.614
 3324TIP3    H131387   0.166   1.512  13.550
 3324TIP3    H231388   0.201   1.533  13.695
 3325TIP3   OH231389   0.565   1.590  13.231
 3325TIP3    H131390   0.530   1.676  13.207
 3325TIP3    H231391   0.659   1.597  13.214
 3326TIP3   OH231392   0.946   1.711  13.512
 3326TIP3    H131393   0.958   1.682  13.602
 3326TIP3    H231394   1.025   1.761  13.492
 3327TIP3   OH231395   1.179   1.851  13.468
 3327TIP3    H131396   1.241   1.800  13.416
 3327TIP3    H231397   1.230   1.879  13.544
 3328TIP3   OH231398   1.678   0.089  13.305
 3328TIP3    H131399   1.636   0.157  13.253
 3328TIP3    H231400   1.644   0.006  13.271
 3329TIP3   OH231401   0.278   1.907  13.256
 3329TIP3    H131402   0.199   1.959  13.240
 3329TIP3    H231403   0.258   1.858  13.336
 3330TIP3   OH231404   0.531   1.857  13.162
 3330TIP3    H131405   0.442   1.876  13.192
 3330TIP3    H231406   0.536   1.900  13.077
 3331TIP3   OH231407   0.982   1.835  13.066
 3331TIP3    H131408   0.933   1.869  12.990
 3331TIP3    H231409   0.992   1.911  13.123
 3332TIP3   OH231410   1.208   1.716  13.172
 3332TIP3    H131411   1.130   1.753  13.130
 3332TIP3    H231412   1.279   1.774  13.147
 3333TIP3   OH231413   1.453   1.858  13.158
 3333TIP3    H131414   1.471   1.949  13.138
 3333TIP3    H231415   1.493   1.809  13.086
 3334TIP3   OH231416   0.230   1.753  12.921
 3334TIP3    H131417   0.226   1.715  13.009
 3334TIP3    H231418   0.301   1.706  12.878
 3335TIP3   OH231419   0.437   1.619  12.801
 3335TIP3    H131420   0.423   1.528  12.826
 3335TIP3    H231421   0.525   1.639  12.834
 3336TIP3   OH231422   0.700   1.650  12.907
 3336TIP3    H131423   0.710   1.560  12.876
 3336TIP3    H231424   0.731   1.649  12.997
 3337TIP3   OH231425   0.989   0.229  12.795
 3337TIP3    H131426   0.923   0.161  12.813
 3337TIP3    H231427   1.070   0.180  12.784
 3338TIP3   OH231428   1.522   0.056  12.826
 3338TIP3    H131429   1.581   0.087  12.758
 3338TIP3    H231430   1.439   0.100  12.808
 3339TIP3   OH231431   1.687   0.142  12.616
 3339TIP3    H131432   1.745   0.070  12.589
 3339TIP3    H231433   1.746   0.214  12.638
 3340TIP3   OH231434   0.302   0.053  12.567
 3340TIP3    H131435   0.257  -0.005  12.506
 3340TIP3    H231436   0.365  -0.003  12.612
 3341TIP3   OH231437   0.210   0.070  12.196
 3341TIP3    H131438   0.256   0.119  12.127
 3341TIP3    H231439   0.148   0.133  12.233
 3342TIP3   OH231440   0.757   0.054  12.545
 3342TIP3    H131441   0.837   0.096  12.515
 3342TIP3    H231442   0.761   0.061  12.641
 3343TIP3   OH231443   1.259   0.152  12.743
 3343TIP3    H131444   1.275   0.220  12.677
 3343TIP3    H231445   1.269   0.070  12.695
 3344TIP3   OH231446   1.419   0.100  12.296
 3344TIP3    H131447   1.346   0.159  12.314
 3344TIP3    H231448   1.377   0.018  12.268
 3345TIP3   OH231449   0.100   1.720  12.248
 3345TIP3    H131450   0.054   1.679  12.174
 3345TIP3    H231451   0.149   1.792  12.208
 3346TIP3   OH231452   0.333   0.258  12.029
 3346TIP3    H131453   0.371   0.213  11.953
 3346TIP3    H231454   0.409   0.291  12.077
 3347TIP3   OH231455   0.822   0.304  12.254
 3347TIP3    H131456   0.868   0.239  12.307
 3347TIP3    H231457   0.841   0.388  12.296
 3348TIP3   OH231458   1.040   1.782  12.072
 3348TIP3    H131459   1.134   1.798  12.063
 3348TIP3    H231460   1.017   1.730  11.995
 3349TIP3   OH231461   1.694   1.760  12.362
 3349TIP3    H131462   1.681   1.671  12.330
 3349TIP3    H231463   1.687   1.815  12.284
 3350TIP3   OH231464   0.267   0.171  13.487
 3350TIP3    H131465   0.254   0.094  13.433
 3350TIP3    H231466   0.329   0.144  13.555
 3351TIP3   OH231467   0.459   0.154  13.689
 3351TIP3    H131468   0.526   0.223  13.687
 3351TIP3    H231469   0.508   0.075  13.714
 3352TIP3   OH231470   0.370   1.774  11.928
 3352TIP3    H131471   0.350   1.778  12.021
 3352TIP3    H231472   0.440   1.710  11.921
 3353TIP3   OH231473   1.289   0.098  13.688
 3353TIP3    H131474   1.349   0.046  13.741
 3353TIP3    H231475   1.261   0.038  13.619
 3354TIP3   OH231476   1.606   1.627  13.569
 3354TIP3    H131477   1.547   1.621  13.493
 3354TIP3    H231478   1.604   1.720  13.593
 3355TIP3   OH231479   3.077   1.026  12.545
 3355TIP3    H131480   3.064   1.120  12.534
 3355TIP3    H231481   3.015   0.985  12.485
 3356TIP3   OH231482   2.968   0.946  12.939
 3356TIP3    H131483   2.995   0.895  13.015
 3356TIP3    H231484   2.922   0.884  12.883
 3357TIP3   OH231485   2.181   0.882  13.064
 3357TIP3    H131486   2.191   0.809  13.125
 3357TIP3    H231487   2.270   0.900  13.033
 3358TIP3   OH231488   3.348   1.251  12.757
 3358TIP3    H131489   3.307   1.176  12.801
 3358TIP3    H231490   3.362   1.315  12.828
 3359TIP3   OH231491   2.311   1.360  12.881
 3359TIP3    H131492   2.281   1.273  12.855
 3359TIP3    H231493   2.406   1.353  12.885
 3360TIP3   OH231494   1.958   0.684  12.408
 3360TIP3    H131495   1.929   0.769  12.440
 3360TIP3    H231496   1.897   0.662  12.338
 3361TIP3   OH231497   2.014   0.930  12.697
 3361TIP3    H131498   2.049   0.843  12.713
 3361TIP3    H231499   2.092   0.985  12.684
 3362TIP3   OH231500   3.073   1.729  12.785
 3362TIP3    H131501   3.106   1.678  12.711
 3362TIP3    H231502   3.028   1.665  12.839
 3363TIP3   OH231503   2.800   1.199  12.941
 3363TIP3    H131504   2.838   1.123  12.897
 3363TIP3    H231505   2.870   1.231  12.998
 3364TIP3   OH231506   3.721   0.328  13.047
 3364TIP3    H131507   3.727   0.401  13.108
 3364TIP3    H231508   3.772   0.355  12.971
 3365TIP3   OH231509   3.128   0.604  12.959
 3365TIP3    H131510   3.154   0.512  12.969
 3365TIP3    H231511   3.108   0.613  12.865
 3366TIP3   OH231512   2.454   0.425  12.687
 3366TIP3    H131513   2.462   0.511  12.644
 3366TIP3    H231514   2.403   0.373  12.625
 3367TIP3   OH231515   3.247   0.455  12.531
 3367TIP3    H131516   3.297   0.432  12.609
 3367TIP3    H231517   3.312   0.494  12.472
 3368TIP3   OH231518   2.107   0.679  12.764
 3368TIP3    H131519   2.171   0.638  12.822
 3368TIP3    H231520   2.126   0.643  12.678
 3369TIP3   OH231521   2.579   0.820  12.746
 3369TIP3    H131522   2.667   0.788  12.765
 3369TIP3    H231523   2.544   0.757  12.683
 3370TIP3   OH231524   3.731   0.504  13.264
 3370TIP3    H131525   3.656   0.559  13.241
 3370TIP3    H231526   3.741   0.513  13.358
 3371TIP3   OH231527   2.324   0.335  13.110
 3371TIP3    H131528   2.301   0.388  13.034
 3371TIP3    H231529   2.253   0.349  13.172
 3372TIP3   OH231530   3.020   1.274  12.448
 3372TIP3    H131531   3.008   1.278  12.353
 3372TIP3    H231532   2.979   1.355  12.481
 3373TIP3   OH231533   2.584   1.112  13.089
 3373TIP3    H131534   2.532   1.185  13.124
 3373TIP3    H231535   2.652   1.155  13.038
 3374TIP3   OH231536   3.353   0.407  12.774
 3374TIP3    H131537   3.304   0.368  12.846
 3374TIP3    H231538   3.418   0.463  12.817
 3375TIP3   OH231539   2.293   0.511  12.895
 3375TIP3    H131540   2.352   0.565  12.947
 3375TIP3    H231541   2.349   0.475  12.826
 3376TIP3   OH231542   2.432   1.316  13.201
 3376TIP3    H131543   2.436   1.410  13.183
 3376TIP3    H231544   2.342   1.300  13.227
 3377TIP3   OH231545   2.003   1.276  12.297
 3377TIP3    H131546   1.997   1.302  12.205
 3377TIP3    H231547   2.034   1.354  12.342
 3378TIP3   OH231548   3.376   1.457  12.961
 3378TIP3    H131549   3.283   1.462  12.980
 3378TIP3    H231550   3.400   1.545  12.932
 3379TIP3   OH231551   3.456   0.284  13.143
 3379TIP3    H131552   3.379   0.292  13.087
 3379TIP3    H231553   3.530   0.298  13.084
 3380TIP3   OH231554   2.663   0.044  12.831
 3380TIP3    H131555   2.666  -0.043  12.871
 3380TIP3    H231556   2.585   0.085  12.869
 3381TIP3   OH231557   3.191   1.607  12.564
 3381TIP3    H131558   3.230   1.521  12.548
 3381TIP3    H231559   3.265   1.667  12.570
 3382TIP3   OH231560   3.332   1.381  12.510
 3382TIP3    H131561   3.335   1.319  12.437
 3382TIP3    H231562   3.338   1.327  12.588
 3383TIP3   OH231563   3.490   1.243  13.315
 3383TIP3    H131564   3.479   1.184  13.241
 3383TIP3    H231565   3.504   1.329  13.276
 3384TIP3   OH231566   2.938   0.933  12.323
 3384TIP3    H131567   2.870   0.996  12.300
 3384TIP3    H231568   3.001   0.938  12.251
 3385TIP3   OH231569   2.971   0.810  11.968
 3385TIP3    H131570   3.026   0.839  12.041
 3385TIP3    H231571   3.024   0.745  11.922
 3386TIP3   OH231572   3.655   0.906  13.152
 3386TIP3    H131573   3.581   0.966  13.141
 3386TIP3    H231574   3.714   0.926  13.079
 3387TIP3   OH231575   3.295   0.974  12.387
 3387TIP3    H131576   3.226   0.992  12.450
 3387TIP3    H231577   3.358   0.921  12.435
 3388TIP3   OH231578   3.262   0.767  13.336
 3388TIP3    H131579   3.254   0.841  13.396
 3388TIP3    H231580   3.199   0.786  13.266
 3389TIP3   OH231581   2.439   1.014  12.591
 3389TIP3    H131582   2.417   0.979  12.504
 3389TIP3    H231583   2.496   0.948  12.630
 3390TIP3   OH231584   2.591   1.375  12.842
 3390TIP3    H131585   2.585   1.383  12.747
 3390TIP3    H231586   2.666   1.318  12.857
 3391TIP3   OH231587   2.438   0.919  12.961
 3391TIP3    H131588   2.490   0.891  12.885
 3391TIP3    H231589   2.492   0.985  13.004
 3392TIP3   OH231590   3.118   1.476  13.050
 3392TIP3    H131591   3.100   1.526  13.129
 3392TIP3    H231592   3.081   1.389  13.068
 3393TIP3   OH231593   2.587   1.340  13.428
 3393TIP3    H131594   2.525   1.400  13.470
 3393TIP3    H231595   2.543   1.312  13.348
 3394TIP3   OH231596   3.165   0.898  12.155
 3394TIP3    H131597   3.214   0.933  12.229
 3394TIP3    H231598   3.216   0.924  12.078
 3395TIP3   OH231599   2.252   0.925  13.408
 3395TIP3    H131600   2.264   1.012  13.447
 3395TIP3    H231601   2.164   0.927  13.371
 3396TIP3   OH231602   2.927   1.530  12.507
 3396TIP3    H131603   3.013   1.569  12.524
 3396TIP3    H231604   2.903   1.562  12.419
 3397TIP3   OH231605   2.394   1.526  13.496
 3397TIP3    H131606   2.396   1.555  13.404
 3397TIP3    H231607   2.301   1.516  13.516
 3398TIP3   OH231608   3.482   0.115  12.175
 3398TIP3    H131609   3.449   0.054  12.110
 3398TIP3    H231610   3.565   0.147  12.139
 3399TIP3   OH231611   2.362   0.921  12.336
 3399TIP3    H131612   2.309   0.989  12.294
 3399TIP3    H231613   2.317   0.839  12.315
 3400TIP3   OH231614   3.673   1.489  12.021
 3400TIP3    H131615   3.692   1.583  12.013
 3400TIP3    H231616   3.757   1.446  12.012
 3401TIP3   OH231617   1.955   1.176  13.248
 3401TIP3    H131618   1.905   1.186  13.167
 3401TIP3    H231619   1.968   1.081  13.256
 3402TIP3   OH231620   1.932   1.454  12.923
 3402TIP3    H131621   2.026   1.449  12.943
 3402TIP3    H231622   1.902   1.531  12.972
 3403TIP3   OH231623   3.746   1.533  13.512
 3403TIP3    H131624   3.754   1.437  13.511
 3403TIP3    H231625   3.656   1.549  13.543
 3404TIP3   OH231626   2.824   1.467  13.376
 3404TIP3    H131627   2.817   1.550  13.422
 3404TIP3    H231628   2.740   1.424  13.392
 3405TIP3   OH231629   2.932   1.838  12.353
 3405TIP3    H131630   2.897   1.827  12.265
 3405TIP3    H231631   2.883   1.912  12.389
 3406TIP3   OH231632   2.254   1.711  12.551
 3406TIP3    H131633   2.273   1.674  12.637
 3406TIP3    H231634   2.201   1.644  12.508
 3407TIP3   OH231635   3.205   1.775  12.040
 3407TIP3    H131636   3.250   1.701  12.000
 3407TIP3    H231637   3.210   1.758  12.134
 3408TIP3   OH231638   3.185   1.750  12.315
 3408TIP3    H131639   3.094   1.775  12.330
 3408TIP3    H231640   3.204   1.685  12.382
 3409TIP3   OH231641   3.433   0.651  13.537
 3409TIP3    H131642   3.378   0.686  13.468
 3409TIP3    H231643   3.447   0.559  13.513
 3410TIP3   OH231644   2.181   1.319  13.314
 3410TIP3    H131645   2.203   1.282  13.400
 3410TIP3    H231646   2.102   1.272  13.288
 3411TIP3   OH231647   2.417   0.126  12.936
 3411TIP3    H131648   2.333   0.142  12.892
 3411TIP3    H231649   2.415   0.181  13.014
 3412TIP3   OH231650   2.898   0.132  13.299
 3412TIP3    H131651   2.921   0.095  13.384
 3412TIP3    H231652   2.803   0.140  13.301
 3413TIP3   OH231653   3.200   0.493  13.365
 3413TIP3    H131654   3.130   0.482  13.429
 3413TIP3    H231655   3.204   0.587  13.349
 3414TIP3   OH231656   3.314   0.960  11.939
 3414TIP3    H131657   3.289   0.965  11.847
 3414TIP3    H231658   3.408   0.975  11.939
 3415TIP3   OH231659   2.867   0.376  12.046
 3415TIP3    H131660   2.808   0.349  12.116
 3415TIP3    H231661   2.833   0.332  11.968
 3416TIP3   OH231662   2.446   0.663  13.069
 3416TIP3    H131663   2.379   0.664  13.137
 3416TIP3    H231664   2.448   0.754  13.037
 3417TIP3   OH231665   2.446   0.666  12.557
 3417TIP3    H131666   2.351   0.656  12.549
 3417TIP3    H231667   2.479   0.655  12.468
 3418TIP3   OH231668   2.993   0.688  12.430
 3418TIP3    H131669   2.967   0.774  12.398
 3418TIP3    H231670   3.065   0.661  12.372
 3419TIP3   OH231671   2.910   0.712  13.551
 3419TIP3    H131672   2.854   0.643  13.588
 3419TIP3    H231673   2.995   0.698  13.592
 3420TIP3   OH231674   3.093   0.632  12.686
 3420TIP3    H131675   3.048   0.679  12.616
 3420TIP3    H231676   3.138   0.560  12.641
 3421TIP3   OH231677   2.231   0.669  13.239
 3421TIP3    H131678   2.224   0.714  13.323
 3421TIP3    H231679   2.190   0.583  13.254
 3422TIP3   OH231680   2.469   0.360  11.903
 3422TIP3    H131681   2.466   0.373  11.998
 3422TIP3    H231682   2.445   0.445  11.866
 3423TIP3   OH231683   1.874   0.336  12.640
 3423TIP3    H131684   1.931   0.369  12.709
 3423TIP3    H231685   1.925   0.345  12.560
 3424TIP3   OH231686   1.943   0.460  12.135
 3424TIP3    H131687   2.009   0.499  12.078
 3424TIP3    H231688   1.885   0.534  12.158
 3425TIP3   OH231689   3.050   0.779  13.150
 3425TIP3    H131690   3.083   0.721  13.081
 3425TIP3    H231691   2.981   0.729  13.193
 3426TIP3   OH231692   2.737   0.409  12.643
 3426TIP3    H131693   2.646   0.405  12.671
 3426TIP3    H231694   2.785   0.361  12.710
 3427TIP3   OH231695   2.186   0.576  12.523
 3427TIP3    H131696   2.110   0.603  12.471
 3427TIP3    H231697   2.203   0.486  12.495
 3428TIP3   OH231698   2.516   0.600  12.300
 3428TIP3    H131699   2.609   0.589  12.318
 3428TIP3    H231700   2.512   0.633  12.211
 3429TIP3   OH231701   3.182   0.323  12.978
 3429TIP3    H131702   3.112   0.329  13.043
 3429TIP3    H231703   3.149   0.258  12.915
 3430TIP3   OH231704   2.487   0.665  12.038
 3430TIP3    H131705   2.430   0.651  11.962
 3430TIP3    H231706   2.561   0.716  12.003
 3431TIP3   OH231707   3.501   1.897  13.603
 3431TIP3    H131708   3.523   1.927  13.515
 3431TIP3    H231709   3.571   1.931  13.658
 3432TIP3   OH231710   2.252   1.166  13.559
 3432TIP3    H131711   2.317   1.172  13.629
 3432TIP3    H231712   2.168   1.171  13.604
 3433TIP3   OH231713   2.824   0.710  12.837
 3433TIP3    H131714   2.885   0.656  12.787
 3433TIP3    H231715   2.791   0.652  12.905
 3434TIP3   OH231716   2.290   0.310  12.488
 3434TIP3    H131717   2.246   0.228  12.512
 3434TIP3    H231718   2.333   0.291  12.405
 3435TIP3   OH231719   2.707   0.574  13.056
 3435TIP3    H131720   2.622   0.615  13.065
 3435TIP3    H231721   2.756   0.602  13.133
 3436TIP3   OH231722   2.747   1.119  12.256
 3436TIP3    H131723   2.673   1.103  12.198
 3436TIP3    H231724   2.707   1.153  12.337
 3437TIP3   OH231725   3.460   1.090  13.087
 3437TIP3    H131726   3.520   1.143  13.036
 3437TIP3    H231727   3.388   1.069  13.027
 3438TIP3   OH231728   3.127   0.409  12.111
 3438TIP3    H131729   3.035   0.409  12.085
 3438TIP3    H231730   3.143   0.497  12.145
 3439TIP3   OH231731   2.914   1.189  13.372
 3439TIP3    H131732   2.922   1.151  13.460
 3439TIP3    H231733   2.875   1.275  13.387
 3440TIP3   OH231734   3.201   0.637  12.251
 3440TIP3    H131735   3.293   0.622  12.273
 3440TIP3    H231736   3.201   0.722  12.208
 3441TIP3   OH231737   2.275   1.092  12.797
 3441TIP3    H131738   2.327   1.079  12.718
 3441TIP3    H231739   2.314   1.032  12.861
 3442TIP3   OH231740   2.943   1.293  12.174
 3442TIP3    H131741   2.911   1.382  12.186
 3442TIP3    H231742   2.867   1.238  12.195
 3443TIP3   OH231743   1.978   0.907  13.342
 3443TIP3    H131744   1.950   0.864  13.423
 3443TIP3    H231745   1.910   0.884  13.278
 3444TIP3   OH231746   2.697   0.898  13.571
 3444TIP3    H131747   2.630   0.862  13.513
 3444TIP3    H231748   2.776   0.849  13.548
 3445TIP3   OH231749   3.106   1.466  13.369
 3445TIP3    H131750   3.012   1.460  13.351
 3445TIP3    H231751   3.112   1.468  13.464
 3446TIP3   OH231752   3.662   0.672  12.203
 3446TIP3    H131753   3.620   0.650  12.120
 3446TIP3    H231754   3.688   0.764  12.193
 3447TIP3   OH231755   3.713   1.244  13.478
 3447TIP3    H131756   3.624   1.257  13.444
 3447TIP3    H231757   3.766   1.226  13.401
 3448TIP3   OH231758   3.550   1.520  12.271
 3448TIP3    H131759   3.487   1.452  12.295
 3448TIP3    H231760   3.580   1.496  12.184
 3449TIP3   OH231761   3.253   1.017  12.904
 3449TIP3    H131762   3.158   1.008  12.897
 3449TIP3    H231763   3.288   0.942  12.857
 3450TIP3   OH231764   2.522   1.444  12.579
 3450TIP3    H131765   2.552   1.528  12.544
 3450TIP3    H231766   2.433   1.435  12.544
 3451TIP3   OH231767   2.091   0.897  12.040
 3451TIP3    H131768   2.140   0.965  12.086
 3451TIP3    H231769   2.001   0.908  12.070
 3452TIP3   OH231770   2.619   1.200  12.484
 3452TIP3    H131771   2.600   1.289  12.513
 3452TIP3    H231772   2.553   1.146  12.527
 3453TIP3   OH231773   2.715   1.617  13.153
 3453TIP3    H131774   2.773   1.690  13.131
 3453TIP3    H231775   2.769   1.558  13.205
 3454TIP3   OH231776   2.520   1.706  12.471
 3454TIP3    H131777   2.426   1.722  12.486
 3454TIP3    H231778   2.562   1.786  12.502
 3455TIP3   OH231779   3.018   1.225  13.119
 3455TIP3    H131780   2.984   1.204  13.206
 3455TIP3    H231781   3.065   1.146  13.092
 3456TIP3   OH231782   3.306   1.332  12.041
 3456TIP3    H131783   3.317   1.290  12.126
 3456TIP3    H231784   3.221   1.302  12.010
 3457TIP3   OH231785   3.324   1.648  13.349
 3457TIP3    H131786   3.242   1.600  13.338
 3457TIP3    H231787   3.316   1.722  13.289
 3458TIP3   OH231788   3.723   1.766  12.033
 3458TIP3    H131789   3.738   1.820  11.955
 3458TIP3    H231790   3.647   1.806  12.075
 3459TIP3   OH231791   2.117   0.415  13.281
 3459TIP3    H131792   2.024   0.434  13.267
 3459TIP3    H231793   2.118   0.346  13.348
 3460TIP3   OH231794   3.391   1.213  12.284
 3460TIP3    H131795   3.347   1.133  12.313
 3460TIP3    H231796   3.484   1.191  12.282
 3461TIP3   OH231797   2.112   1.589  13.148
 3461TIP3    H131798   2.139   1.506  13.189
 3461TIP3    H231799   2.131   1.655  13.215
 3462TIP3   OH231800   2.705   1.410  11.884
 3462TIP3    H131801   2.698   1.326  11.838
 3462TIP3    H231802   2.667   1.393  11.970
 3463TIP3   OH231803   2.586   1.387  12.129
 3463TIP3    H131804   2.493   1.363  12.132
 3463TIP3    H231805   2.588   1.477  12.162
 3464TIP3   OH231806   2.200   1.101  12.201
 3464TIP3    H131807   2.128   1.146  12.246
 3464TIP3    H231808   2.250   1.171  12.160
 3465TIP3   OH231809   3.012   0.365  13.200
 3465TIP3    H131810   3.086   0.384  13.258
 3465TIP3    H231811   2.976   0.283  13.234
 3466TIP3   OH231812   3.089   0.301  12.361
 3466TIP3    H131813   3.102   0.333  12.272
 3466TIP3    H231814   3.140   0.361  12.416
 3467TIP3   OH231815   2.869   1.555  12.222
 3467TIP3    H131816   2.775   1.573  12.222
 3467TIP3    H231817   2.906   1.621  12.163
 3468TIP3   OH231818   2.766   0.532  12.399
 3468TIP3    H131819   2.845   0.586  12.402
 3468TIP3    H231820   2.757   0.497  12.487
 3469TIP3   OH231821   2.876   0.609  13.276
 3469TIP3    H131822   2.884   0.623  13.371
 3469TIP3    H231823   2.912   0.522  13.262
 3470TIP3   OH231824   2.855   0.205  12.465
 3470TIP3    H131825   2.838   0.275  12.528
 3470TIP3    H231826   2.941   0.225  12.429
 3471TIP3   OH231827   2.610   1.650  12.216
 3471TIP3    H131828   2.610   1.734  12.170
 3471TIP3    H231829   2.574   1.669  12.302
 3472TIP3   OH231830   2.438   0.354  12.189
 3472TIP3    H131831   2.438   0.443  12.225
 3472TIP3    H231832   2.526   0.321  12.206
 3473TIP3   OH231833   3.451   0.400  13.401
 3473TIP3    H131834   3.358   0.421  13.394
 3473TIP3    H231835   3.476   0.372  13.313
 3474TIP3   OH231836   3.331   0.770  12.782
 3474TIP3    H131837   3.248   0.728  12.760
 3474TIP3    H231838   3.376   0.706  12.837
 3475TIP3   OH231839   2.317   1.325  12.081
 3475TIP3    H131840   2.274   1.404  12.046
 3475TIP3    H231841   2.352   1.282  12.003
 3476TIP3   OH231842   2.080   0.629  11.963
 3476TIP3    H131843   2.101   0.714  12.002
 3476TIP3    H231844   2.033   0.650  11.883
 3477TIP3   OH231845   3.460   1.729  12.950
 3477TIP3    H131846   3.443   1.797  12.885
 3477TIP3    H231847   3.555   1.730  12.963
 3478TIP3   OH231848   2.160   0.138  12.832
 3478TIP3    H131849   2.158   0.118  12.738
 3478TIP3    H231850   2.136   0.056  12.874
 3479TIP3   OH231851   2.072   1.525  12.439
 3479TIP3    H131852   2.009   1.548  12.507
 3479TIP3    H231853   2.055   1.586  12.368
 3480TIP3   OH231854   2.034   1.800  13.614
 3480TIP3    H131855   2.102   1.775  13.676
 3480TIP3    H231856   2.004   1.717  13.577
 3481TIP3   OH231857   2.466   1.624  13.743
 3481TIP3    H131858   2.541   1.570  13.770
 3481TIP3    H231859   2.446   1.594  13.655
 3482TIP3   OH231860   2.886   1.611  11.873
 3482TIP3    H131861   2.820   1.542  11.880
 3482TIP3    H231862   2.963   1.567  11.837
 3483TIP3   OH231863   3.106   1.478  13.644
 3483TIP3    H131864   3.090   1.395  13.690
 3483TIP3    H231865   3.185   1.513  13.686
 3484TIP3   OH231866   3.332   1.573  11.909
 3484TIP3    H131867   3.339   1.490  11.957
 3484TIP3    H231868   3.401   1.567  11.842
 3485TIP3   OH231869   1.997   1.160  13.671
 3485TIP3    H131870   1.998   1.065  13.660
 3485TIP3    H231871   1.929   1.191  13.610
 3486TIP3   OH231872   2.440   1.153  11.901
 3486TIP3    H131873   2.469   1.104  11.978
 3486TIP3    H231874   2.520   1.165  11.849
 3487TIP3   OH231875   2.668   1.174  13.633
 3487TIP3    H131876   2.646   1.217  13.550
 3487TIP3    H231877   2.688   1.084  13.609
 3488TIP3   OH231878   3.062   1.268  11.925
 3488TIP3    H131879   3.009   1.270  12.004
 3488TIP3    H231880   3.036   1.188  11.880
 3489TIP3   OH231881   3.233   1.196  13.409
 3489TIP3    H131882   3.322   1.218  13.380
 3489TIP3    H231883   3.178   1.267  13.375
 3490TIP3   OH231884   2.073   0.893  13.643
 3490TIP3    H131885   2.159   0.881  13.602
 3490TIP3    H231886   2.091   0.887  13.737
 3491TIP3   OH231887   2.537   1.000  12.110
 3491TIP3    H131888   2.498   0.954  12.183
 3491TIP3    H231889   2.589   0.934  12.064
 3492TIP3   OH231890   2.500   0.792  13.396
 3492TIP3    H131891   2.419   0.842  13.390
 3492TIP3    H231892   2.555   0.826  13.325
 3493TIP3   OH231893   2.688   0.828  11.943
 3493TIP3    H131894   2.685   0.859  11.853
 3493TIP3    H231895   2.781   0.816  11.962
 3494TIP3   OH231896   3.009   1.029  13.679
 3494TIP3    H131897   3.079   0.991  13.626
 3494TIP3    H231898   2.976   0.955  13.731
 3495TIP3   OH231899   3.582   1.022  11.893
 3495TIP3    H131900   3.582   1.000  11.800
 3495TIP3    H231901   3.573   1.117  11.895
 3496TIP3   OH231902   2.535   0.529  13.459
 3496TIP3    H131903   2.545   0.476  13.380
 3496TIP3    H231904   2.526   0.619  13.426
 3497TIP3   OH231905   2.570   0.385  13.222
 3497TIP3    H131906   2.624   0.427  13.155
 3497TIP3    H231907   2.485   0.371  13.180
 3498TIP3   OH231908   2.682   0.894  13.223
 3498TIP3    H131909   2.777   0.897  13.217
 3498TIP3    H231910   2.652   0.973  13.178
 3499TIP3   OH231911   3.150   0.653  13.705
 3499TIP3    H131912   3.169   0.560  13.710
 3499TIP3    H231913   3.234   0.694  13.685
 3500TIP3   OH231914   3.275   0.965  13.544
 3500TIP3    H131915   3.249   1.046  13.500
 3500TIP3    H231916   3.371   0.964  13.537
 3501TIP3   OH231917   2.381   0.575  13.687
 3501TIP3    H131918   2.296   0.535  13.671
 3501TIP3    H231919   2.425   0.572  13.602
 3502TIP3   OH231920   2.623   0.142  13.339
 3502TIP3    H131921   2.604   0.230  13.306
 3502TIP3    H231922   2.555   0.087  13.300
 3503TIP3   OH231923   2.752   0.500  13.627
 3503TIP3    H131924   2.717   0.456  13.704
 3503TIP3    H231925   2.677   0.506  13.567
 3504TIP3   OH231926   3.005   0.425  13.539
 3504TIP3    H131927   2.915   0.434  13.572
 3504TIP3    H231928   3.054   0.391  13.614
 3505TIP3   OH231929   3.199   0.365  13.742
 3505TIP3    H131930   3.190   0.273  13.718
 3505TIP3    H231931   3.178   0.368  13.835
 3506TIP3   OH231932   2.149   0.424  13.666
 3506TIP3    H131933   2.151   0.351  13.604
 3506TIP3    H231934   2.151   0.382  13.752
 3507TIP3   OH231935   2.737   0.003  13.541
 3507TIP3    H131936   2.666  -0.026  13.598
 3507TIP3    H231937   2.694   0.052  13.471
 3508TIP3   OH231938   2.755   0.208  13.736
 3508TIP3    H131939   2.749   0.139  13.670
 3508TIP3    H231940   2.667   0.245  13.740
 3509TIP3   OH231941   2.679   1.901  12.107
 3509TIP3    H131942   2.766   1.866  12.089
 3509TIP3    H231943   2.659   1.956  12.031
 3510TIP3   OH231944   1.987   1.320  12.026
 3510TIP3    H131945   2.046   1.390  12.000
 3510TIP3    H231946   1.988   1.259  11.951
 3511TIP3   OH231947   1.888   1.854  12.536
 3511TIP3    H131948   1.837   1.821  12.462
 3511TIP3    H231949   1.910   1.776  12.586
 3512TIP3   OH231950   1.957   1.636  12.694
 3512TIP3    H131951   1.919   1.560  12.737
 3512TIP3    H231952   2.006   1.681  12.763
 3513TIP3   OH231953   3.724   1.755  13.020
 3513TIP3    H131954   3.727   1.742  13.115
 3513TIP3    H231955   3.815   1.772  12.995
 3514TIP3   OH231956   3.678   1.696  13.289
 3514TIP3    H131957   3.626   1.622  13.256
 3514TIP3    H231958   3.736   1.657  13.355
 3515TIP3   OH231959   3.525   1.285  13.784
 3515TIP3    H131960   3.440   1.299  13.826
 3515TIP3    H231961   3.579   1.358  13.814
 3516TIP3   OH231962   3.656   1.129  12.304
 3516TIP3    H131963   3.733   1.185  12.304
 3516TIP3    H231964   3.673   1.065  12.374
 3517TIP3   OH231965   3.702   0.928  12.490
 3517TIP3    H131966   3.617   0.890  12.512
 3517TIP3    H231967   3.748   0.934  12.574
 3518TIP3   OH231968   3.700   1.214  13.008
 3518TIP3    H131969   3.748   1.145  12.963
 3518TIP3    H231970   3.729   1.295  12.965
 3519TIP3   OH231971   3.506   1.493  13.205
 3519TIP3    H131972   3.435   1.542  13.247
 3519TIP3    H231973   3.475   1.477  13.116
 3520TIP3   OH231974   3.717   0.932  12.118
 3520TIP3    H131975   3.671   0.950  12.035
 3520TIP3    H231976   3.689   1.002  12.177
 3521TIP3   OH231977   3.559   0.647  11.957
 3521TIP3    H131978   3.563   0.696  11.875
 3521TIP3    H231979   3.529   0.560  11.931
 3522TIP3   OH231980   3.459   0.802  12.536
 3522TIP3    H131981   3.455   0.714  12.498
 3522TIP3    H231982   3.418   0.793  12.622
 3523TIP3   OH231983   1.948   0.972  12.958
 3523TIP3    H131984   1.960   0.965  12.864
 3523TIP3    H231985   2.034   0.952  12.995
 3524TIP3   OH231986   3.552   0.984  13.521
 3524TIP3    H131987   3.610   0.910  13.503
 3524TIP3    H231988   3.593   1.059  13.478
 3525TIP3   OH231989   3.689   0.747  13.505
 3525TIP3    H131990   3.600   0.715  13.516
 3525TIP3    H231991   3.744   0.671  13.527
 3526TIP3   OH231992   3.476   0.396  11.895
 3526TIP3    H131993   3.512   0.311  11.920
 3526TIP3    H231994   3.391   0.376  11.857
 3527TIP3   OH231995   3.459   0.562  12.370
 3527TIP3    H131996   3.484   0.469  12.373
 3527TIP3    H231997   3.526   0.603  12.316
 3528TIP3   OH231998   3.491   0.588  12.934
 3528TIP3    H131999   3.583   0.604  12.914
 3528TIP3    H232000   3.483   0.603  13.028
 3529TIP3   OH232001   3.513   0.673  13.204
 3529TIP3    H132002   3.429   0.705  13.238
 3529TIP3    H232003   3.563   0.752  13.187
 3530TIP3   OH232004   1.915   0.497  13.536
 3530TIP3    H132005   1.999   0.483  13.580
 3530TIP3    H232006   1.870   0.413  13.545
 3531TIP3   OH232007   3.781   0.110  13.722
 3531TIP3    H132008   3.771   0.019  13.696
 3531TIP3    H232009   3.741   0.160  13.650
 3532TIP3   OH232010   3.521   0.290  12.387
 3532TIP3    H132011   3.498   0.240  12.465
 3532TIP3    H232012   3.498   0.233  12.314
 3533TIP3   OH232013   2.041   0.381  12.863
 3533TIP3    H132014   2.079   0.294  12.856
 3533TIP3    H232015   2.117   0.439  12.876
 3534TIP3   OH232016   1.870   0.662  12.920
 3534TIP3    H132017   1.939   0.647  12.856
 3534TIP3    H232018   1.897   0.740  12.968
 3535TIP3   OH232019   3.661   0.253  13.518
 3535TIP3    H132020   3.583   0.309  13.525
 3535TIP3    H232021   3.647   0.202  13.438
 3536TIP3   OH232022   3.716   0.222  12.078
 3536TIP3    H132023   3.742   0.188  11.992
 3536TIP3    H232024   3.759   0.307  12.084
 3537TIP3   OH232025   1.910   0.286  12.345
 3537TIP3    H132026   1.814   0.282  12.351
 3537TIP3    H232027   1.927   0.352  12.278
 3538TIP3   OH232028   3.394   1.783  12.562
 3538TIP3    H132029   3.467   1.779  12.500
 3538TIP3    H232030   3.429   1.834  12.636
 3539TIP3   OH232031   1.936   0.101  13.183
 3539TIP3    H132032   1.855   0.086  13.232
 3539TIP3    H232033   1.915   0.176  13.126
 3540TIP3   OH232034   2.133   1.504  13.591
 3540TIP3    H132035   2.042   1.505  13.561
 3540TIP3    H232036   2.130   1.461  13.677
 3541TIP3   OH232037   2.452   1.595  13.229
 3541TIP3    H132038   2.421   1.682  13.202
 3541TIP3    H232039   2.545   1.594  13.208
 3542TIP3   OH232040   2.819   1.708  13.514
 3542TIP3    H132041   2.835   1.678  13.604
 3542TIP3    H232042   2.898   1.757  13.491
 3543TIP3   OH232043   3.051   1.842  13.450
 3543TIP3    H132044   3.085   1.798  13.372
 3543TIP3    H232045   3.124   1.841  13.512
 3544TIP3   OH232046   3.564   0.088  13.304
 3544TIP3    H132047   3.522   0.156  13.251
 3544TIP3    H232048   3.528   0.006  13.270
 3545TIP3   OH232049   2.155   1.888  13.255
 3545TIP3    H132050   2.076   1.926  13.216
 3545TIP3    H232051   2.165   1.934  13.338
 3546TIP3   OH232052   2.411   1.858  13.159
 3546TIP3    H132053   2.320   1.871  13.186
 3546TIP3    H232054   2.417   1.901  13.074
 3547TIP3   OH232055   2.864   1.836  13.067
 3547TIP3    H132056   2.816   1.862  12.989
 3547TIP3    H232057   2.872   1.917  13.118
 3548TIP3   OH232058   3.094   1.741  13.192
 3548TIP3    H132059   3.018   1.761  13.137
 3548TIP3    H232060   3.167   1.783  13.147
 3549TIP3   OH232061   3.350   1.865  13.162
 3549TIP3    H132062   3.361   1.956  13.137
 3549TIP3    H232063   3.388   1.815  13.090
 3550TIP3   OH232064   2.110   1.742  12.916
 3550TIP3    H132065   2.110   1.695  13.000
 3550TIP3    H232066   2.188   1.709  12.871
 3551TIP3   OH232067   2.326   1.623  12.804
 3551TIP3    H132068   2.315   1.531  12.827
 3551TIP3    H232069   2.416   1.643  12.830
 3552TIP3   OH232070   2.591   1.649  12.902
 3552TIP3    H132071   2.600   1.561  12.867
 3552TIP3    H232072   2.623   1.642  12.992
 3553TIP3   OH232073   2.872   0.232  12.798
 3553TIP3    H132074   2.814   0.157  12.811
 3553TIP3    H232075   2.957   0.193  12.777
 3554TIP3   OH232076   3.412   0.037  12.821
 3554TIP3    H132077   3.476   0.071  12.758
 3554TIP3    H232078   3.327   0.060  12.784
 3555TIP3   OH232079   3.578   0.138  12.626
 3555TIP3    H132080   3.637   0.090  12.568
 3555TIP3    H232081   3.627   0.218  12.648
 3556TIP3   OH232082   2.177   0.059  12.562
 3556TIP3    H132083   2.121   0.009  12.503
 3556TIP3    H232084   2.237  -0.005  12.599
 3557TIP3   OH232085   2.038   0.093  12.185
 3557TIP3    H132086   2.105   0.142  12.136
 3557TIP3    H232087   1.996   0.159  12.240
 3558TIP3   OH232088   2.640   0.052  12.546
 3558TIP3    H132089   2.721   0.091  12.512
 3558TIP3    H232090   2.649   0.057  12.641
 3559TIP3   OH232091   3.140   0.165  12.736
 3559TIP3    H132092   3.173   0.231  12.676
 3559TIP3    H232093   3.149   0.082  12.688
 3560TIP3   OH232094   3.270   0.085  12.352
 3560TIP3    H132095   3.205   0.151  12.327
 3560TIP3    H232096   3.333   0.086  12.280
 3561TIP3   OH232097   2.015   1.717  12.255
 3561TIP3    H132098   1.973   1.688  12.174
 3561TIP3    H232099   2.037   1.809  12.239
 3562TIP3   OH232100   2.230   0.230  12.034
 3562TIP3    H132101   2.298   0.199  11.975
 3562TIP3    H232102   2.276   0.284  12.098
 3563TIP3   OH232103   2.700   0.304  12.259
 3563TIP3    H132104   2.751   0.242  12.311
 3563TIP3    H232105   2.720   0.389  12.297
 3564TIP3   OH232106   2.928   1.791  12.069
 3564TIP3    H132107   3.022   1.808  12.058
 3564TIP3    H232108   2.903   1.739  11.993
 3565TIP3   OH232109   3.599   1.769  12.371
 3565TIP3    H132110   3.584   1.679  12.344
 3565TIP3    H232111   3.575   1.822  12.295
 3566TIP3   OH232112   2.127   0.216  13.481
 3566TIP3    H132113   2.066   0.146  13.459
 3566TIP3    H232114   2.192   0.175  13.538
 3567TIP3   OH232115   2.301   0.130  13.684
 3567TIP3    H132116   2.396   0.121  13.688
 3567TIP3    H232117   2.268   0.041  13.680
 3568TIP3   OH232118   2.238   1.854  11.983
 3568TIP3    H132119   2.178   1.864  12.056
 3568TIP3    H232120   2.239   1.760  11.965
 3569TIP3   OH232121   3.175   0.099  13.688
 3569TIP3    H132122   3.235   0.048  13.742
 3569TIP3    H232123   3.143   0.037  13.622
 3570TIP3   OH232124   3.487   1.622  13.571
 3570TIP3    H132125   3.435   1.617  13.491
 3570TIP3    H232126   3.507   1.714  13.582
 3571TIP3   OH232127   4.959   1.029  12.540
 3571TIP3    H132128   4.945   1.124  12.535
 3571TIP3    H232129   4.895   0.991  12.480
 3572TIP3   OH232130   4.848   0.946  12.933
 3572TIP3    H132131   4.873   0.899  13.013
 3572TIP3    H232132   4.802   0.881  12.880
 3573TIP3   OH232133   4.068   0.885  13.063
 3573TIP3    H132134   4.077   0.811  13.123
 3573TIP3    H232135   4.157   0.901  13.032
 3574TIP3   OH232136   5.232   1.250  12.758
 3574TIP3    H132137   5.191   1.177  12.804
 3574TIP3    H232138   5.251   1.314  12.827
 3575TIP3   OH232139   4.197   1.358  12.886
 3575TIP3    H132140   4.169   1.270  12.859
 3575TIP3    H232141   4.292   1.352  12.893
 3576TIP3   OH232142   3.847   0.696  12.417
 3576TIP3    H132143   3.810   0.780  12.441
 3576TIP3    H232144   3.792   0.664  12.346
 3577TIP3   OH232145   3.893   0.923  12.696
 3577TIP3    H132146   3.925   0.834  12.712
 3577TIP3    H232147   3.970   0.971  12.667
 3578TIP3   OH232148   4.957   1.727  12.788
 3578TIP3    H132149   4.992   1.675  12.716
 3578TIP3    H232150   4.930   1.663  12.854
 3579TIP3   OH232151   4.687   1.198  12.943
 3579TIP3    H132152   4.726   1.121  12.901
 3579TIP3    H232153   4.756   1.232  13.000
 3580TIP3   OH232154   5.561   0.308  13.026
 3580TIP3    H132155   5.620   0.372  13.067
 3580TIP3    H232156   5.582   0.313  12.933
 3581TIP3   OH232157   5.006   0.610  12.958
 3581TIP3    H132158   5.031   0.518  12.969
 3581TIP3    H232159   4.989   0.619  12.865
 3582TIP3   OH232160   4.348   0.426  12.681
 3582TIP3    H132161   4.353   0.512  12.640
 3582TIP3    H232162   4.300   0.372  12.618
 3583TIP3   OH232163   5.134   0.456  12.538
 3583TIP3    H132164   5.184   0.432  12.616
 3583TIP3    H232165   5.199   0.497  12.480
 3584TIP3   OH232166   3.991   0.674  12.765
 3584TIP3    H132167   4.058   0.634  12.820
 3584TIP3    H232168   4.009   0.640  12.677
 3585TIP3   OH232169   4.463   0.818  12.741
 3585TIP3    H132170   4.551   0.786  12.761
 3585TIP3    H232171   4.429   0.756  12.677
 3586TIP3   OH232172   5.529   0.484  13.315
 3586TIP3    H132173   5.479   0.551  13.267
 3586TIP3    H232174   5.614   0.483  13.272
 3587TIP3   OH232175   4.209   0.336  13.109
 3587TIP3    H132176   4.188   0.389  13.032
 3587TIP3    H232177   4.136   0.351  13.170
 3588TIP3   OH232178   4.892   1.281  12.454
 3588TIP3    H132179   4.892   1.283  12.358
 3588TIP3    H232180   4.857   1.366  12.479
 3589TIP3   OH232181   4.470   1.108  13.087
 3589TIP3    H132182   4.418   1.179  13.123
 3589TIP3    H232183   4.540   1.151  13.038
 3590TIP3   OH232184   5.241   0.403  12.781
 3590TIP3    H132185   5.185   0.376  12.854
 3590TIP3    H232186   5.304   0.463  12.821
 3591TIP3   OH232187   4.185   0.508  12.890
 3591TIP3    H132188   4.243   0.563  12.943
 3591TIP3    H232189   4.241   0.474  12.821
 3592TIP3   OH232190   4.320   1.310  13.200
 3592TIP3    H132191   4.325   1.403  13.179
 3592TIP3    H232192   4.229   1.297  13.227
 3593TIP3   OH232193   3.888   1.285  12.277
 3593TIP3    H132194   3.880   1.315  12.187
 3593TIP3    H232195   3.920   1.361  12.326
 3594TIP3   OH232196   5.265   1.453  12.963
 3594TIP3    H132197   5.170   1.456  12.975
 3594TIP3    H232198   5.289   1.542  12.936
 3595TIP3   OH232199   5.324   0.250  13.158
 3595TIP3    H132200   5.250   0.279  13.104
 3595TIP3    H232201   5.402   0.275  13.107
 3596TIP3   OH232202   4.554   0.055  12.842
 3596TIP3    H132203   4.557  -0.029  12.888
 3596TIP3    H232204   4.471   0.095  12.869
 3597TIP3   OH232205   5.078   1.604  12.570
 3597TIP3    H132206   5.118   1.519  12.552
 3597TIP3    H232207   5.151   1.665  12.575
 3598TIP3   OH232208   5.213   1.377  12.510
 3598TIP3    H132209   5.224   1.315  12.438
 3598TIP3    H232210   5.221   1.324  12.589
 3599TIP3   OH232211   5.384   1.226  13.318
 3599TIP3    H132212   5.372   1.172  13.240
 3599TIP3    H232213   5.394   1.315  13.284
 3600TIP3   OH232214   4.815   0.941  12.317
 3600TIP3    H132215   4.749   1.005  12.292
 3600TIP3    H232216   4.880   0.945  12.247
 3601TIP3   OH232217   4.856   0.801  11.978
 3601TIP3    H132218   4.915   0.832  12.047
 3601TIP3    H232219   4.909   0.738  11.928
 3602TIP3   OH232220   5.543   0.899  13.151
 3602TIP3    H132221   5.474   0.962  13.133
 3602TIP3    H232222   5.603   0.906  13.076
 3603TIP3   OH232223   5.181   0.974  12.388
 3603TIP3    H132224   5.111   0.994  12.451
 3603TIP3    H232225   5.245   0.924  12.438
 3604TIP3   OH232226   5.138   0.768  13.336
 3604TIP3    H132227   5.130   0.840  13.398
 3604TIP3    H232228   5.073   0.787  13.269
 3605TIP3   OH232229   4.321   1.011  12.587
 3605TIP3    H132230   4.296   0.975  12.502
 3605TIP3    H232231   4.376   0.943  12.626
 3606TIP3   OH232232   4.478   1.374  12.850
 3606TIP3    H132233   4.475   1.381  12.754
 3606TIP3    H232234   4.553   1.318  12.867
 3607TIP3   OH232235   4.325   0.915  12.959
 3607TIP3    H132236   4.376   0.888  12.882
 3607TIP3    H232237   4.379   0.981  13.001
 3608TIP3   OH232238   5.001   1.471  13.026
 3608TIP3    H132239   4.986   1.538  13.093
 3608TIP3    H232240   4.961   1.392  13.062
 3609TIP3   OH232241   4.483   1.334  13.423
 3609TIP3    H132242   4.423   1.399  13.461
 3609TIP3    H232243   4.438   1.305  13.343
 3610TIP3   OH232244   5.049   0.897  12.159
 3610TIP3    H132245   5.097   0.934  12.234
 3610TIP3    H232246   5.100   0.922  12.083
 3611TIP3   OH232247   4.132   0.921  13.411
 3611TIP3    H132248   4.144   1.008  13.447
 3611TIP3    H232249   4.044   0.923  13.372
 3612TIP3   OH232250   4.815   1.547  12.504
 3612TIP3    H132251   4.904   1.568  12.532
 3612TIP3    H232252   4.789   1.622  12.451
 3613TIP3   OH232253   4.292   1.526  13.478
 3613TIP3    H132254   4.281   1.540  13.384
 3613TIP3    H232255   4.207   1.494  13.508
 3614TIP3   OH232256   5.439   0.045  12.155
 3614TIP3    H132257   5.352   0.074  12.183
 3614TIP3    H232258   5.477   0.123  12.114
 3615TIP3   OH232259   4.236   0.921  12.333
 3615TIP3    H132260   4.184   0.990  12.290
 3615TIP3    H232261   4.193   0.840  12.309
 3616TIP3   OH232262   5.557   1.487  12.011
 3616TIP3    H132263   5.573   1.581  12.009
 3616TIP3    H232264   5.645   1.448  12.004
 3617TIP3   OH232265   3.841   1.175  13.248
 3617TIP3    H132266   3.791   1.187  13.168
 3617TIP3    H232267   3.855   1.080  13.254
 3618TIP3   OH232268   3.839   1.449  12.925
 3618TIP3    H132269   3.932   1.430  12.922
 3618TIP3    H232270   3.829   1.513  12.995
 3619TIP3   OH232271   5.635   1.543  13.515
 3619TIP3    H132272   5.626   1.449  13.499
 3619TIP3    H232273   5.548   1.570  13.545
 3620TIP3   OH232274   4.719   1.463  13.369
 3620TIP3    H132275   4.716   1.546  13.416
 3620TIP3    H232276   4.634   1.423  13.387
 3621TIP3   OH232277   4.798   1.806  12.360
 3621TIP3    H132278   4.780   1.810  12.266
 3621TIP3    H232279   4.768   1.890  12.394
 3622TIP3   OH232280   4.165   1.667  12.547
 3622TIP3    H132281   4.169   1.641  12.639
 3622TIP3    H232282   4.099   1.610  12.509
 3623TIP3   OH232283   5.086   1.775  12.041
 3623TIP3    H132284   5.133   1.701  12.002
 3623TIP3    H232285   5.096   1.763  12.135
 3624TIP3   OH232286   5.066   1.755  12.318
 3624TIP3    H132287   4.973   1.767  12.337
 3624TIP3    H232288   5.097   1.694  12.385
 3625TIP3   OH232289   5.312   0.649  13.542
 3625TIP3    H132290   5.262   0.685  13.468
 3625TIP3    H232291   5.317   0.555  13.524
 3626TIP3   OH232292   4.067   1.320  13.311
 3626TIP3    H132293   4.084   1.291  13.401
 3626TIP3    H232294   3.988   1.273  13.285
 3627TIP3   OH232295   4.300   0.130  12.933
 3627TIP3    H132296   4.222   0.149  12.882
 3627TIP3    H232297   4.291   0.184  13.011
 3628TIP3   OH232298   4.790   0.130  13.305
 3628TIP3    H132299   4.812   0.109  13.395
 3628TIP3    H232300   4.695   0.138  13.304
 3629TIP3   OH232301   5.096   0.487  13.355
 3629TIP3    H132302   5.024   0.481  13.418
 3629TIP3    H232303   5.104   0.580  13.335
 3630TIP3   OH232304   5.200   0.950  11.943
 3630TIP3    H132305   5.172   0.961  11.852
 3630TIP3    H232306   5.293   0.972  11.942
 3631TIP3   OH232307   4.752   0.362  12.034
 3631TIP3    H132308   4.689   0.346  12.104
 3631TIP3    H232309   4.726   0.303  11.963
 3632TIP3   OH232310   4.332   0.661  13.070
 3632TIP3    H132311   4.264   0.662  13.137
 3632TIP3    H232312   4.334   0.751  13.037
 3633TIP3   OH232313   4.331   0.666  12.552
 3633TIP3    H132314   4.236   0.655  12.546
 3633TIP3    H232315   4.363   0.652  12.463
 3634TIP3   OH232316   4.877   0.698  12.430
 3634TIP3    H132317   4.849   0.783  12.397
 3634TIP3    H232318   4.948   0.672  12.372
 3635TIP3   OH232319   4.796   0.714  13.552
 3635TIP3    H132320   4.743   0.643  13.588
 3635TIP3    H232321   4.883   0.700  13.590
 3636TIP3   OH232322   4.975   0.634  12.685
 3636TIP3    H132323   4.932   0.683  12.615
 3636TIP3    H232324   5.021   0.563  12.639
 3637TIP3   OH232325   4.116   0.670  13.238
 3637TIP3    H132326   4.104   0.718  13.320
 3637TIP3    H232327   4.074   0.586  13.253
 3638TIP3   OH232328   4.422   0.373  11.895
 3638TIP3    H132329   4.390   0.370  11.985
 3638TIP3    H232330   4.371   0.443  11.854
 3639TIP3   OH232331   3.742   0.352  12.661
 3639TIP3    H132332   3.811   0.381  12.721
 3639TIP3    H232333   3.782   0.357  12.575
 3640TIP3   OH232334   3.842   0.456  12.169
 3640TIP3    H132335   3.908   0.492  12.109
 3640TIP3    H232336   3.778   0.526  12.178
 3641TIP3   OH232337   4.927   0.784  13.150
 3641TIP3    H132338   4.961   0.727  13.081
 3641TIP3    H232339   4.859   0.731  13.193
 3642TIP3   OH232340   4.630   0.405  12.638
 3642TIP3    H132341   4.538   0.405  12.665
 3642TIP3    H232342   4.676   0.362  12.710
 3643TIP3   OH232343   4.072   0.578  12.522
 3643TIP3    H132344   3.996   0.608  12.473
 3643TIP3    H232345   4.089   0.490  12.488
 3644TIP3   OH232346   4.403   0.596  12.298
 3644TIP3    H132347   4.498   0.588  12.309
 3644TIP3    H232348   4.392   0.633  12.210
 3645TIP3   OH232349   5.055   0.330  12.973
 3645TIP3    H132350   4.987   0.336  13.041
 3645TIP3    H232351   5.022   0.266  12.911
 3646TIP3   OH232352   4.362   0.676  12.042
 3646TIP3    H132353   4.310   0.651  11.966
 3646TIP3    H232354   4.437   0.723  12.006
 3647TIP3   OH232355   5.382   1.900  13.612
 3647TIP3    H132356   5.404   1.934  13.526
 3647TIP3    H232357   5.456   1.926  13.668
 3648TIP3   OH232358   4.132   1.160  13.556
 3648TIP3    H132359   4.199   1.161  13.624
 3648TIP3    H232360   4.051   1.186  13.601
 3649TIP3   OH232361   4.707   0.709  12.834
 3649TIP3    H132362   4.771   0.656  12.786
 3649TIP3    H232363   4.676   0.651  12.904
 3650TIP3   OH232364   4.192   0.316  12.476
 3650TIP3    H132365   4.138   0.240  12.497
 3650TIP3    H232366   4.219   0.303  12.385
 3651TIP3   OH232367   4.594   0.573  13.055
 3651TIP3    H132368   4.508   0.615  13.064
 3651TIP3    H232369   4.643   0.600  13.132
 3652TIP3   OH232370   4.621   1.133  12.242
 3652TIP3    H132371   4.550   1.095  12.191
 3652TIP3    H232372   4.582   1.155  12.327
 3653TIP3   OH232373   5.347   1.083  13.086
 3653TIP3    H132374   5.407   1.140  13.037
 3653TIP3    H232375   5.275   1.067  13.026
 3654TIP3   OH232376   5.005   0.407  12.119
 3654TIP3    H132377   4.915   0.405  12.087
 3654TIP3    H232378   5.018   0.496  12.150
 3655TIP3   OH232379   4.791   1.179  13.371
 3655TIP3    H132380   4.811   1.151  13.460
 3655TIP3    H232381   4.762   1.270  13.380
 3656TIP3   OH232382   5.084   0.637  12.254
 3656TIP3    H132383   5.175   0.622  12.279
 3656TIP3    H232384   5.085   0.723  12.212
 3657TIP3   OH232385   4.167   1.095  12.799
 3657TIP3    H132386   4.215   1.078  12.718
 3657TIP3    H232387   4.201   1.031  12.861
 3658TIP3   OH232388   4.840   1.281  12.174
 3658TIP3    H132389   4.808   1.372  12.177
 3658TIP3    H232390   4.763   1.228  12.194
 3659TIP3   OH232391   3.861   0.902  13.341
 3659TIP3    H132392   3.829   0.858  13.420
 3659TIP3    H232393   3.794   0.885  13.275
 3660TIP3   OH232394   4.580   0.892  13.574
 3660TIP3    H132395   4.513   0.860  13.515
 3660TIP3    H232396   4.660   0.846  13.548
 3661TIP3   OH232397   5.000   1.447  13.378
 3661TIP3    H132398   4.908   1.452  13.352
 3661TIP3    H232399   4.999   1.466  13.472
 3662TIP3   OH232400   5.538   0.672  12.197
 3662TIP3    H132401   5.498   0.650  12.113
 3662TIP3    H232402   5.565   0.764  12.188
 3663TIP3   OH232403   5.610   1.269  13.476
 3663TIP3    H132404   5.518   1.259  13.453
 3663TIP3    H232405   5.657   1.239  13.398
 3664TIP3   OH232406   5.421   1.516  12.255
 3664TIP3    H132407   5.365   1.442  12.279
 3664TIP3    H232408   5.457   1.492  12.170
 3665TIP3   OH232409   5.134   1.021  12.906
 3665TIP3    H132410   5.039   1.012  12.898
 3665TIP3    H232411   5.169   0.946  12.858
 3666TIP3   OH232412   4.423   1.443  12.584
 3666TIP3    H132413   4.462   1.523  12.549
 3666TIP3    H232414   4.333   1.443  12.552
 3667TIP3   OH232415   3.979   0.885  12.044
 3667TIP3    H132416   4.025   0.956  12.088
 3667TIP3    H232417   3.888   0.896  12.068
 3668TIP3   OH232418   4.491   1.199  12.470
 3668TIP3    H132419   4.484   1.283  12.515
 3668TIP3    H232420   4.433   1.141  12.518
 3669TIP3   OH232421   4.607   1.615  13.149
 3669TIP3    H132422   4.666   1.685  13.121
 3669TIP3    H232423   4.662   1.557  13.202
 3670TIP3   OH232424   4.425   1.704  12.470
 3670TIP3    H132425   4.332   1.701  12.492
 3670TIP3    H232426   4.456   1.788  12.503
 3671TIP3   OH232427   4.902   1.227  13.122
 3671TIP3    H132428   4.867   1.202  13.208
 3671TIP3    H232429   4.964   1.158  13.100
 3672TIP3   OH232430   5.193   1.330  12.040
 3672TIP3    H132431   5.203   1.289  12.126
 3672TIP3    H232432   5.106   1.301  12.010
 3673TIP3   OH232433   5.207   1.649  13.347
 3673TIP3    H132434   5.125   1.603  13.329
 3673TIP3    H232435   5.207   1.722  13.284
 3674TIP3   OH232436   5.603   1.758  12.032
 3674TIP3    H132437   5.641   1.826  11.976
 3674TIP3    H232438   5.528   1.802  12.074
 3675TIP3   OH232439   4.001   0.417  13.279
 3675TIP3    H132440   3.909   0.437  13.264
 3675TIP3    H232441   4.001   0.349  13.346
 3676TIP3   OH232442   5.281   1.211  12.284
 3676TIP3    H132443   5.237   1.131  12.313
 3676TIP3    H232444   5.374   1.189  12.284
 3677TIP3   OH232445   3.989   1.579  13.165
 3677TIP3    H132446   4.020   1.493  13.194
 3677TIP3    H232447   4.001   1.636  13.242
 3678TIP3   OH232448   4.559   1.425  11.887
 3678TIP3    H132449   4.564   1.342  11.839
 3678TIP3    H232450   4.515   1.402  11.970
 3679TIP3   OH232451   4.433   1.392  12.133
 3679TIP3    H132452   4.487   1.341  12.193
 3679TIP3    H232453   4.447   1.483  12.159
 3680TIP3   OH232454   4.082   1.102  12.192
 3680TIP3    H132455   4.010   1.149  12.234
 3680TIP3    H232456   4.127   1.169  12.140
 3681TIP3   OH232457   4.897   0.364  13.201
 3681TIP3    H132458   4.975   0.383  13.253
 3681TIP3    H232459   4.865   0.281  13.235
 3682TIP3   OH232460   4.995   0.288  12.367
 3682TIP3    H132461   4.995   0.326  12.279
 3682TIP3    H232462   5.037   0.355  12.421
 3683TIP3   OH232463   4.738   1.532  12.184
 3683TIP3    H132464   4.650   1.566  12.200
 3683TIP3    H232465   4.786   1.606  12.147
 3684TIP3   OH232466   4.659   0.532  12.395
 3684TIP3    H132467   4.734   0.591  12.402
 3684TIP3    H232468   4.647   0.499  12.484
 3685TIP3   OH232469   4.761   0.606  13.277
 3685TIP3    H132470   4.773   0.621  13.371
 3685TIP3    H232471   4.799   0.519  13.262
 3686TIP3   OH232472   4.750   0.207  12.465
 3686TIP3    H132473   4.728   0.282  12.521
 3686TIP3    H232474   4.837   0.227  12.432
 3687TIP3   OH232475   4.491   1.650  12.210
 3687TIP3    H132476   4.495   1.734  12.165
 3687TIP3    H232477   4.469   1.672  12.300
 3688TIP3   OH232478   4.337   0.351  12.167
 3688TIP3    H132479   4.325   0.439  12.202
 3688TIP3    H232480   4.425   0.325  12.194
 3689TIP3   OH232481   5.327   0.378  13.460
 3689TIP3    H132482   5.244   0.388  13.413
 3689TIP3    H232483   5.393   0.404  13.395
 3690TIP3   OH232484   5.212   0.777  12.779
 3690TIP3    H132485   5.129   0.733  12.760
 3690TIP3    H232486   5.260   0.716  12.834
 3691TIP3   OH232487   4.182   1.317  12.039
 3691TIP3    H132488   4.258   1.360  12.078
 3691TIP3    H232489   4.218   1.262  11.970
 3692TIP3   OH232490   3.972   0.611  11.985
 3692TIP3    H132491   3.985   0.704  12.004
 3692TIP3    H232492   3.930   0.609  11.899
 3693TIP3   OH232493   5.343   1.723  12.948
 3693TIP3    H132494   5.327   1.793  12.884
 3693TIP3    H232495   5.439   1.720  12.955
 3694TIP3   OH232496   4.056   0.141  12.803
 3694TIP3    H132497   4.050   0.134  12.708
 3694TIP3    H232498   4.025   0.056  12.835
 3695TIP3   OH232499   3.954   1.533  12.415
 3695TIP3    H132500   3.869   1.538  12.457
 3695TIP3    H232501   3.949   1.596  12.343
 3696TIP3   OH232502   3.846   1.750  13.681
 3696TIP3    H132503   3.937   1.733  13.704
 3696TIP3    H232504   3.831   1.696  13.603
 3697TIP3   OH232505   4.380   1.650  13.746
 3697TIP3    H132506   4.423   1.706  13.811
 3697TIP3    H232507   4.437   1.573  13.739
 3698TIP3   OH232508   4.765   1.607  11.873
 3698TIP3    H132509   4.697   1.540  11.884
 3698TIP3    H232510   4.840   1.559  11.838
 3699TIP3   OH232511   4.987   1.490  13.652
 3699TIP3    H132512   4.978   1.407  13.698
 3699TIP3    H232513   5.065   1.530  13.691
 3700TIP3   OH232514   5.213   1.572  11.908
 3700TIP3    H132515   5.222   1.490  11.958
 3700TIP3    H232516   5.286   1.570  11.847
 3701TIP3   OH232517   3.879   1.161  13.686
 3701TIP3    H132518   3.884   1.067  13.671
 3701TIP3    H232519   3.814   1.192  13.623
 3702TIP3   OH232520   4.315   1.138  11.883
 3702TIP3    H132521   4.341   1.086  11.960
 3702TIP3    H232522   4.397   1.154  11.836
 3703TIP3   OH232523   4.552   1.168  13.631
 3703TIP3    H132524   4.536   1.211  13.547
 3703TIP3    H232525   4.574   1.078  13.608
 3704TIP3   OH232526   4.947   1.268  11.921
 3704TIP3    H132527   4.899   1.266  12.004
 3704TIP3    H232528   4.925   1.186  11.878
 3705TIP3   OH232529   5.120   1.192  13.403
 3705TIP3    H132530   5.210   1.210  13.376
 3705TIP3    H232531   5.072   1.273  13.383
 3706TIP3   OH232532   3.959   0.892  13.651
 3706TIP3    H132533   4.040   0.889  13.601
 3706TIP3    H232534   3.988   0.892  13.742
 3707TIP3   OH232535   4.417   1.001  12.109
 3707TIP3    H132536   4.367   0.952  12.174
 3707TIP3    H232537   4.469   0.934  12.064
 3708TIP3   OH232538   4.385   0.792  13.397
 3708TIP3    H132539   4.303   0.841  13.390
 3708TIP3    H232540   4.440   0.827  13.327
 3709TIP3   OH232541   4.578   0.828  11.963
 3709TIP3    H132542   4.576   0.859  11.872
 3709TIP3    H232543   4.670   0.810  11.980
 3710TIP3   OH232544   4.896   1.028  13.681
 3710TIP3    H132545   4.967   0.992  13.629
 3710TIP3    H232546   4.859   0.953  13.727
 3711TIP3   OH232547   5.464   1.022  11.897
 3711TIP3    H132548   5.463   1.000  11.804
 3711TIP3    H232549   5.456   1.118  11.899
 3712TIP3   OH232550   4.427   0.530  13.457
 3712TIP3    H132551   4.434   0.477  13.378
 3712TIP3    H232552   4.415   0.619  13.426
 3713TIP3   OH232553   4.455   0.384  13.220
 3713TIP3    H132554   4.508   0.428  13.154
 3713TIP3    H232555   4.370   0.371  13.179
 3714TIP3   OH232556   4.571   0.895  13.228
 3714TIP3    H132557   4.666   0.906  13.229
 3714TIP3    H232558   4.539   0.972  13.180
 3715TIP3   OH232559   5.036   0.659  13.706
 3715TIP3    H132560   5.057   0.566  13.704
 3715TIP3    H232561   5.119   0.704  13.687
 3716TIP3   OH232562   5.151   0.965  13.547
 3716TIP3    H132563   5.127   1.045  13.500
 3716TIP3    H232564   5.247   0.961  13.540
 3717TIP3   OH232565   4.271   0.570  13.687
 3717TIP3    H132566   4.184   0.533  13.670
 3717TIP3    H232567   4.312   0.571  13.600
 3718TIP3   OH232568   4.514   0.141  13.331
 3718TIP3    H132569   4.494   0.229  13.299
 3718TIP3    H232570   4.444   0.086  13.294
 3719TIP3   OH232571   4.643   0.495  13.625
 3719TIP3    H132572   4.601   0.460  13.704
 3719TIP3    H232573   4.571   0.505  13.562
 3720TIP3   OH232574   4.895   0.431  13.530
 3720TIP3    H132575   4.807   0.440  13.564
 3720TIP3    H232576   4.946   0.396  13.603
 3721TIP3   OH232577   5.061   0.349  13.734
 3721TIP3    H132578   5.056   0.254  13.718
 3721TIP3    H232579   5.057   0.357  13.829
 3722TIP3   OH232580   4.036   0.423  13.664
 3722TIP3    H132581   4.036   0.352  13.600
 3722TIP3    H232582   4.035   0.379  13.749
 3723TIP3   OH232583   4.616   0.000  13.537
 3723TIP3    H132584   4.541  -0.038  13.583
 3723TIP3    H232585   4.577   0.051  13.466
 3724TIP3   OH232586   4.639   0.188  13.745
 3724TIP3    H132587   4.628   0.131  13.669
 3724TIP3    H232588   4.559   0.241  13.747
 3725TIP3   OH232589   4.560   1.894  12.097
 3725TIP3    H132590   4.649   1.862  12.087
 3725TIP3    H232591   4.549   1.955  12.023
 3726TIP3   OH232592   3.911   1.349  12.006
 3726TIP3    H132593   4.006   1.349  12.015
 3726TIP3    H232594   3.893   1.284  11.937
 3727TIP3   OH232595   3.791   1.883  12.526
 3727TIP3    H132596   3.732   1.846  12.460
 3727TIP3    H232597   3.797   1.816  12.593
 3728TIP3   OH232598   3.835   1.685  12.710
 3728TIP3    H132599   3.790   1.604  12.731
 3728TIP3    H232600   3.886   1.706  12.788
 3729TIP3   OH232601   5.613   1.721  13.011
 3729TIP3    H132602   5.610   1.732  13.106
 3729TIP3    H232603   5.690   1.771  12.983
 3730TIP3   OH232604   5.552   1.699  13.287
 3730TIP3    H132605   5.499   1.628  13.251
 3730TIP3    H232606   5.602   1.658  13.358
 3731TIP3   OH232607   5.418   1.281  13.779
 3731TIP3    H132608   5.333   1.292  13.821
 3731TIP3    H232609   5.469   1.356  13.808
 3732TIP3   OH232610   5.546   1.127  12.308
 3732TIP3    H132611   5.621   1.187  12.308
 3732TIP3    H232612   5.565   1.065  12.379
 3733TIP3   OH232613   5.597   0.925  12.494
 3733TIP3    H132614   5.512   0.891  12.520
 3733TIP3    H232615   5.647   0.932  12.575
 3734TIP3   OH232616   5.578   1.220  13.010
 3734TIP3    H132617   5.630   1.151  12.970
 3734TIP3    H232618   5.605   1.300  12.965
 3735TIP3   OH232619   5.388   1.483  13.213
 3735TIP3    H132620   5.316   1.532  13.253
 3735TIP3    H232621   5.359   1.467  13.123
 3736TIP3   OH232622   5.598   0.931  12.120
 3736TIP3    H132623   5.552   0.954  12.040
 3736TIP3    H232624   5.575   1.000  12.182
 3737TIP3   OH232625   5.438   0.641  11.946
 3737TIP3    H132626   5.422   0.700  11.872
 3737TIP3    H232627   5.419   0.554  11.913
 3738TIP3   OH232628   5.348   0.807  12.538
 3738TIP3    H132629   5.345   0.718  12.503
 3738TIP3    H232630   5.306   0.800  12.624
 3739TIP3   OH232631   3.834   0.973  12.957
 3739TIP3    H132632   3.845   0.963  12.863
 3739TIP3    H232633   3.921   0.953  12.994
 3740TIP3   OH232634   5.425   0.980  13.512
 3740TIP3    H132635   5.488   0.909  13.500
 3740TIP3    H232636   5.445   1.042  13.441
 3741TIP3   OH232637   5.575   0.750  13.519
 3741TIP3    H132638   5.489   0.708  13.517
 3741TIP3    H232639   5.633   0.683  13.554
 3742TIP3   OH232640   5.371   0.395  11.854
 3742TIP3    H132641   5.414   0.332  11.911
 3742TIP3    H232642   5.280   0.367  11.851
 3743TIP3   OH232643   5.341   0.562  12.372
 3743TIP3    H132644   5.366   0.470  12.373
 3743TIP3    H232645   5.407   0.604  12.317
 3744TIP3   OH232646   5.374   0.600  12.925
 3744TIP3    H132647   5.466   0.618  12.907
 3744TIP3    H232648   5.365   0.613  13.019
 3745TIP3   OH232649   5.378   0.682  13.195
 3745TIP3    H132650   5.298   0.724  13.228
 3745TIP3    H232651   5.439   0.754  13.179
 3746TIP3   OH232652   3.800   0.497  13.538
 3746TIP3    H132653   3.885   0.483  13.580
 3746TIP3    H232654   3.755   0.413  13.545
 3747TIP3   OH232655   5.621   0.051  13.730
 3747TIP3    H132656   5.630  -0.019  13.666
 3747TIP3    H232657   5.600   0.128  13.678
 3748TIP3   OH232658   5.388   0.287  12.387
 3748TIP3    H132659   5.404   0.244  12.471
 3748TIP3    H232660   5.326   0.228  12.342
 3749TIP3   OH232661   3.934   0.378  12.865
 3749TIP3    H132662   3.972   0.292  12.847
 3749TIP3    H232663   4.010   0.436  12.875
 3750TIP3   OH232664   3.757   0.658  12.924
 3750TIP3    H132665   3.825   0.641  12.860
 3750TIP3    H232666   3.783   0.741  12.965
 3751TIP3   OH232667   5.551   0.266  13.571
 3751TIP3    H132668   5.469   0.302  13.538
 3751TIP3    H232669   5.608   0.262  13.494
 3752TIP3   OH232670   5.552   0.261  12.032
 3752TIP3    H132671   5.602   0.210  11.968
 3752TIP3    H232672   5.614   0.326  12.064
 3753TIP3   OH232673   3.806   0.297  12.396
 3753TIP3    H132674   3.712   0.291  12.385
 3753TIP3    H232675   3.837   0.342  12.317
 3754TIP3   OH232676   5.270   1.792  12.556
 3754TIP3    H132677   5.344   1.784  12.495
 3754TIP3    H232678   5.305   1.842  12.630
 3755TIP3   OH232679   3.823   0.105  13.185
 3755TIP3    H132680   3.741   0.088  13.231
 3755TIP3    H232681   3.803   0.179  13.127
 3756TIP3   OH232682   4.044   1.471  13.594
 3756TIP3    H132683   3.997   1.525  13.530
 3756TIP3    H232684   4.046   1.524  13.674
 3757TIP3   OH232685   4.341   1.587  13.209
 3757TIP3    H132686   4.307   1.674  13.188
 3757TIP3    H232687   4.435   1.593  13.191
 3758TIP3   OH232688   4.725   1.704  13.507
 3758TIP3    H132689   4.736   1.679  13.598
 3758TIP3    H232690   4.804   1.754  13.485
 3759TIP3   OH232691   4.954   1.848  13.463
 3759TIP3    H132692   5.019   1.803  13.409
 3759TIP3    H232693   5.003   1.877  13.540
 3760TIP3   OH232694   5.446   0.063  13.321
 3760TIP3    H132695   5.405   0.139  13.279
 3760TIP3    H232696   5.413  -0.012  13.273
 3761TIP3   OH232697   4.051   1.933  13.176
 3761TIP3    H132698   3.967   1.979  13.175
 3761TIP3    H232699   4.046   1.875  13.252
 3762TIP3   OH232700   4.314   1.860  13.150
 3762TIP3    H132701   4.224   1.884  13.169
 3762TIP3    H232702   4.331   1.897  13.063
 3763TIP3   OH232703   4.758   1.822  13.050
 3763TIP3    H132704   4.718   1.860  12.971
 3763TIP3    H232705   4.774   1.898  13.107
 3764TIP3   OH232706   4.981   1.710  13.170
 3764TIP3    H132707   4.905   1.746  13.124
 3764TIP3    H232708   5.053   1.770  13.148
 3765TIP3   OH232709   5.222   1.854  13.158
 3765TIP3    H132710   5.239   1.947  13.141
 3765TIP3    H232711   5.262   1.810  13.083
 3766TIP3   OH232712   3.996   1.738  12.934
 3766TIP3    H132713   4.000   1.699  13.021
 3766TIP3    H232714   4.073   1.702  12.889
 3767TIP3   OH232715   4.211   1.620  12.816
 3767TIP3    H132716   4.201   1.528  12.841
 3767TIP3    H232717   4.300   1.643  12.843
 3768TIP3   OH232718   4.477   1.650  12.902
 3768TIP3    H132719   4.486   1.561  12.869
 3768TIP3    H232720   4.513   1.647  12.991
 3769TIP3   OH232721   4.763   0.237  12.807
 3769TIP3    H132722   4.700   0.167  12.823
 3769TIP3    H232723   4.844   0.192  12.784
 3770TIP3   OH232724   5.297   0.044  12.817
 3770TIP3    H132725   5.358   0.073  12.750
 3770TIP3    H232726   5.223   0.104  12.809
 3771TIP3   OH232727   5.461   0.135  12.612
 3771TIP3    H132728   5.524   0.073  12.574
 3771TIP3    H232729   5.514   0.213  12.632
 3772TIP3   OH232730   4.012   0.109  12.529
 3772TIP3    H132731   3.945   0.154  12.478
 3772TIP3    H232732   4.007   0.018  12.499
 3773TIP3   OH232733   3.936   0.084  12.199
 3773TIP3    H132734   4.001   0.132  12.148
 3773TIP3    H232735   3.852   0.121  12.172
 3774TIP3   OH232736   4.542   0.052  12.556
 3774TIP3    H132737   4.615   0.101  12.519
 3774TIP3    H232738   4.549   0.065  12.650
 3775TIP3   OH232739   5.027   0.162  12.738
 3775TIP3    H132740   5.052   0.230  12.676
 3775TIP3    H232741   5.040   0.079  12.691
 3776TIP3   OH232742   5.193   0.107  12.290
 3776TIP3    H132743   5.120   0.165  12.312
 3776TIP3    H232744   5.150   0.030  12.251
 3777TIP3   OH232745   3.923   1.729  12.224
 3777TIP3    H132746   3.852   1.724  12.160
 3777TIP3    H232747   3.950   1.821  12.224
 3778TIP3   OH232748   4.108   0.236  12.049
 3778TIP3    H132749   4.137   0.200  11.965
 3778TIP3    H232750   4.185   0.281  12.084
 3779TIP3   OH232751   4.591   0.305  12.256
 3779TIP3    H132752   4.640   0.242  12.309
 3779TIP3    H232753   4.611   0.390  12.296
 3780TIP3   OH232754   4.811   1.785  12.073
 3780TIP3    H132755   4.905   1.802  12.063
 3780TIP3    H232756   4.787   1.734  11.996
 3781TIP3   OH232757   5.473   1.761  12.367
 3781TIP3    H132758   5.458   1.672  12.335
 3781TIP3    H232759   5.458   1.816  12.290
 3782TIP3   OH232760   4.010   0.217  13.479
 3782TIP3    H132761   3.952   0.148  13.447
 3782TIP3    H232762   4.072   0.172  13.536
 3783TIP3   OH232763   4.183   0.125  13.683
 3783TIP3    H132764   4.276   0.106  13.689
 3783TIP3    H232765   4.141   0.039  13.677
 3784TIP3   OH232766   4.118   1.744  11.924
 3784TIP3    H132767   4.088   1.712  12.009
 3784TIP3    H232768   4.195   1.692  11.904
 3785TIP3   OH232769   5.073   0.075  13.705
 3785TIP3    H132770   5.113   0.041  13.785
 3785TIP3    H232771   5.140   0.062  13.638
 3786TIP3   OH232772   5.376   1.628  13.567
 3786TIP3    H132773   5.318   1.621  13.491
 3786TIP3    H232774   5.376   1.721  13.589
 3787TIP3   OH232775   6.840   1.040  12.538
 3787TIP3    H132776   6.827   1.134  12.529
 3787TIP3    H232777   6.776   1.001  12.478
 3788TIP3   OH232778   6.700   0.940  12.924
 3788TIP3    H132779   6.715   0.897  13.008
 3788TIP3    H232780   6.659   0.873  12.869
 3789TIP3   OH232781   5.963   0.923  13.069
 3789TIP3    H132782   5.969   0.843  13.122
 3789TIP3    H232783   6.050   0.932  13.029
 3790TIP3   OH232784   7.101   1.252  12.765
 3790TIP3    H132785   7.054   1.178  12.805
 3790TIP3    H232786   7.118   1.312  12.838
 3791TIP3   OH232787   6.086   1.361  12.879
 3791TIP3    H132788   6.055   1.274  12.851
 3791TIP3    H232789   6.181   1.351  12.887
 3792TIP3   OH232790   5.728   0.687  12.410
 3792TIP3    H132791   5.697   0.773  12.441
 3792TIP3    H232792   5.669   0.664  12.339
 3793TIP3   OH232793   5.787   0.924  12.702
 3793TIP3    H132794   5.821   0.837  12.721
 3793TIP3    H232795   5.866   0.979  12.696
 3794TIP3   OH232796   6.822   1.727  12.806
 3794TIP3    H132797   6.844   1.664  12.738
 3794TIP3    H232798   6.798   1.673  12.882
 3795TIP3   OH232799   6.570   1.196  12.939
 3795TIP3    H132800   6.603   1.113  12.906
 3795TIP3    H232801   6.642   1.231  12.991
 3796TIP3   OH232802   6.830   0.554  12.925
 3796TIP3    H132803   6.881   0.597  12.994
 3796TIP3    H232804   6.857   0.599  12.844
 3797TIP3   OH232805   6.245   0.424  12.669
 3797TIP3    H132806   6.245   0.511  12.628
 3797TIP3    H232807   6.187   0.372  12.614
 3798TIP3   OH232808   7.004   0.445  12.531
 3798TIP3    H132809   7.046   0.398  12.603
 3798TIP3    H232810   7.077   0.475  12.476
 3799TIP3   OH232811   5.882   0.673  12.769
 3799TIP3    H132812   5.942   0.624  12.826
 3799TIP3    H232813   5.898   0.638  12.681
 3800TIP3   OH232814   6.349   0.821  12.736
 3800TIP3    H132815   6.432   0.780  12.761
 3800TIP3    H232816   6.310   0.759  12.674
 3801TIP3   OH232817   6.082   0.350  13.093
 3801TIP3    H132818   6.083   0.405  13.015
 3801TIP3    H232819   5.995   0.364  13.132
 3802TIP3   OH232820   6.785   1.293  12.444
 3802TIP3    H132821   6.788   1.292  12.348
 3802TIP3    H232822   6.730   1.368  12.466
 3803TIP3   OH232823   6.360   1.111  13.097
 3803TIP3    H132824   6.307   1.182  13.131
 3803TIP3    H232825   6.429   1.154  13.046
 3804TIP3   OH232826   7.076   0.328  12.777
 3804TIP3    H132827   7.009   0.321  12.845
 3804TIP3    H232828   7.136   0.396  12.809
 3805TIP3   OH232829   6.096   0.523  12.882
 3805TIP3    H132830   6.155   0.580  12.931
 3805TIP3    H232831   6.150   0.486  12.812
 3806TIP3   OH232832   6.204   1.316  13.203
 3806TIP3    H132833   6.209   1.410  13.186
 3806TIP3    H232834   6.112   1.300  13.223
 3807TIP3   OH232835   5.772   1.293  12.278
 3807TIP3    H132836   5.765   1.331  12.190
 3807TIP3    H232837   5.798   1.366  12.334
 3808TIP3   OH232838   7.147   1.461  12.967
 3808TIP3    H132839   7.052   1.460  12.979
 3808TIP3    H232840   7.167   1.553  12.946
 3809TIP3   OH232841   7.169   0.289  13.085
 3809TIP3    H132842   7.074   0.280  13.071
 3809TIP3    H232843   7.195   0.358  13.023
 3810TIP3   OH232844   6.427   0.044  12.830
 3810TIP3    H132845   6.421  -0.050  12.847
 3810TIP3    H232846   6.349   0.081  12.871
 3811TIP3   OH232847   6.915   1.572  12.596
 3811TIP3    H132848   6.956   1.488  12.576
 3811TIP3    H232849   6.988   1.635  12.599
 3812TIP3   OH232850   7.110   1.390  12.523
 3812TIP3    H132851   7.107   1.333  12.446
 3812TIP3    H232852   7.112   1.331  12.598
 3813TIP3   OH232853   7.238   1.234  13.362
 3813TIP3    H132854   7.239   1.178  13.285
 3813TIP3    H232855   7.268   1.319  13.330
 3814TIP3   OH232856   6.706   0.946  12.310
 3814TIP3    H132857   6.638   1.009  12.285
 3814TIP3    H232858   6.771   0.950  12.239
 3815TIP3   OH232859   6.748   0.810  11.971
 3815TIP3    H132860   6.808   0.836  12.042
 3815TIP3    H232861   6.800   0.750  11.917
 3816TIP3   OH232862   7.061   0.973  12.392
 3816TIP3    H132863   6.990   1.000  12.450
 3816TIP3    H232864   7.113   0.912  12.444
 3817TIP3   OH232865   7.072   0.867  13.364
 3817TIP3    H132866   7.056   0.950  13.320
 3817TIP3    H232867   7.053   0.800  13.298
 3818TIP3   OH232868   6.217   1.017  12.580
 3818TIP3    H132869   6.191   0.979  12.496
 3818TIP3    H232870   6.269   0.949  12.622
 3819TIP3   OH232871   6.367   1.375  12.847
 3819TIP3    H132872   6.363   1.381  12.752
 3819TIP3    H232873   6.440   1.316  12.865
 3820TIP3   OH232874   6.214   0.931  12.950
 3820TIP3    H132875   6.266   0.901  12.875
 3820TIP3    H232876   6.271   0.992  12.997
 3821TIP3   OH232877   6.881   1.475  13.026
 3821TIP3    H132878   6.864   1.536  13.097
 3821TIP3    H232879   6.845   1.392  13.056
 3822TIP3   OH232880   6.359   1.347  13.430
 3822TIP3    H132881   6.295   1.407  13.469
 3822TIP3    H232882   6.316   1.317  13.349
 3823TIP3   OH232883   6.947   0.901  12.153
 3823TIP3    H132884   6.985   0.933  12.235
 3823TIP3    H232885   7.003   0.938  12.085
 3824TIP3   OH232886   6.019   0.926  13.416
 3824TIP3    H132887   6.031   1.017  13.445
 3824TIP3    H232888   5.933   0.926  13.373
 3825TIP3   OH232889   6.662   1.541  12.499
 3825TIP3    H132890   6.746   1.555  12.543
 3825TIP3    H232891   6.649   1.619  12.446
 3826TIP3   OH232892   6.160   1.527  13.496
 3826TIP3    H132893   6.164   1.555  13.404
 3826TIP3    H232894   6.066   1.516  13.513
 3827TIP3   OH232895   6.131   0.926  12.326
 3827TIP3    H132896   6.074   0.993  12.288
 3827TIP3    H232897   6.085   0.844  12.312
 3828TIP3   OH232898   5.725   1.172  13.248
 3828TIP3    H132899   5.675   1.186  13.168
 3828TIP3    H232900   5.741   1.078  13.251
 3829TIP3   OH232901   5.698   1.461  12.921
 3829TIP3    H132902   5.788   1.456  12.953
 3829TIP3    H232903   5.662   1.539  12.963
 3830TIP3   OH232904   6.597   1.473  13.377
 3830TIP3    H132905   6.592   1.557  13.423
 3830TIP3    H232906   6.513   1.431  13.395
 3831TIP3   OH232907   6.683   1.809  12.361
 3831TIP3    H132908   6.658   1.813  12.269
 3831TIP3    H232909   6.648   1.890  12.398
 3832TIP3   OH232910   6.025   1.706  12.550
 3832TIP3    H132911   6.043   1.673  12.637
 3832TIP3    H232912   5.968   1.640  12.509
 3833TIP3   OH232913   6.970   1.761  12.040
 3833TIP3    H132914   7.014   1.684  12.004
 3833TIP3    H232915   6.976   1.750  12.135
 3834TIP3   OH232916   6.945   1.736  12.315
 3834TIP3    H132917   6.853   1.748  12.339
 3834TIP3    H232918   6.978   1.672  12.379
 3835TIP3   OH232919   7.147   0.709  13.582
 3835TIP3    H132920   7.139   0.749  13.495
 3835TIP3    H232921   7.222   0.651  13.575
 3836TIP3   OH232922   5.947   1.327  13.308
 3836TIP3    H132923   5.972   1.289  13.392
 3836TIP3    H232924   5.870   1.275  13.280
 3837TIP3   OH232925   6.187   0.124  12.949
 3837TIP3    H132926   6.104   0.137  12.903
 3837TIP3    H232927   6.188   0.193  13.015
 3838TIP3   OH232928   6.649   0.067  13.324
 3838TIP3    H132929   6.704   0.143  13.305
 3838TIP3    H232930   6.560   0.101  13.323
 3839TIP3   OH232931   7.002   0.428  13.383
 3839TIP3    H132932   6.940   0.459  13.449
 3839TIP3    H232933   7.005   0.499  13.318
 3840TIP3   OH232934   7.117   1.021  11.975
 3840TIP3    H132935   7.094   1.001  11.884
 3840TIP3    H232936   7.113   1.116  11.981
 3841TIP3   OH232937   6.636   0.370  12.035
 3841TIP3    H132938   6.576   0.348  12.105
 3841TIP3    H232939   6.611   0.313  11.962
 3842TIP3   OH232940   6.232   0.680  13.068
 3842TIP3    H132941   6.158   0.678  13.129
 3842TIP3    H232942   6.231   0.769  13.032
 3843TIP3   OH232943   6.215   0.669  12.549
 3843TIP3    H132944   6.120   0.656  12.546
 3843TIP3    H232945   6.245   0.652  12.459
 3844TIP3   OH232946   6.758   0.701  12.425
 3844TIP3    H132947   6.733   0.787  12.392
 3844TIP3    H232948   6.830   0.673  12.368
 3845TIP3   OH232949   6.675   0.733  13.579
 3845TIP3    H132950   6.628   0.654  13.604
 3845TIP3    H232951   6.767   0.713  13.596
 3846TIP3   OH232952   6.887   0.653  12.674
 3846TIP3    H132953   6.834   0.700  12.609
 3846TIP3    H232954   6.919   0.576  12.627
 3847TIP3   OH232955   6.005   0.694  13.219
 3847TIP3    H132956   5.981   0.719  13.308
 3847TIP3    H232957   5.939   0.629  13.194
 3848TIP3   OH232958   6.280   0.352  11.890
 3848TIP3    H132959   6.265   0.355  11.985
 3848TIP3    H232960   6.246   0.435  11.857
 3849TIP3   OH232961   5.625   0.347  12.631
 3849TIP3    H132962   5.687   0.372  12.699
 3849TIP3    H232963   5.676   0.352  12.550
 3850TIP3   OH232964   5.713   0.457  12.152
 3850TIP3    H132965   5.785   0.493  12.101
 3850TIP3    H232966   5.654   0.531  12.166
 3851TIP3   OH232967   6.742   0.799  13.157
 3851TIP3    H132968   6.834   0.774  13.153
 3851TIP3    H232969   6.699   0.725  13.198
 3852TIP3   OH232970   6.524   0.392  12.639
 3852TIP3    H132971   6.432   0.398  12.661
 3852TIP3    H232972   6.566   0.356  12.717
 3853TIP3   OH232973   5.957   0.579  12.521
 3853TIP3    H132974   5.880   0.606  12.471
 3853TIP3    H232975   5.972   0.488  12.494
 3854TIP3   OH232976   6.285   0.591  12.296
 3854TIP3    H132977   6.379   0.584  12.311
 3854TIP3    H232978   6.278   0.630  12.209
 3855TIP3   OH232979   6.888   0.300  12.989
 3855TIP3    H132980   6.860   0.389  12.972
 3855TIP3    H232981   6.825   0.245  12.942
 3856TIP3   OH232982   6.253   0.679  12.041
 3856TIP3    H132983   6.202   0.653  11.964
 3856TIP3    H232984   6.329   0.725  12.004
 3857TIP3   OH232985   7.258   1.928  13.673
 3857TIP3    H132986   7.322   1.924  13.602
 3857TIP3    H232987   7.285   1.860  13.734
 3858TIP3   OH232988   6.017   1.177  13.548
 3858TIP3    H132989   6.084   1.169  13.616
 3858TIP3    H232990   5.934   1.181  13.596
 3859TIP3   OH232991   6.576   0.692  12.837
 3859TIP3    H132992   6.649   0.642  12.803
 3859TIP3    H232993   6.546   0.642  12.913
 3860TIP3   OH232994   6.062   0.311  12.484
 3860TIP3    H132995   6.015   0.231  12.510
 3860TIP3    H232996   6.091   0.293  12.394
 3861TIP3   OH232997   6.477   0.559  13.067
 3861TIP3    H132998   6.398   0.613  13.075
 3861TIP3    H232999   6.529   0.580  13.144
 3862TIP3   OH233000   6.513   1.137  12.238
 3862TIP3    H133001   6.442   1.098  12.188
 3862TIP3    H233002   6.474   1.161  12.322
 3863TIP3   OH233003   7.187   1.101  13.106
 3863TIP3    H133004   7.254   1.073  13.045
 3863TIP3    H233005   7.105   1.089  13.059
 3864TIP3   OH233006   6.891   0.414  12.112
 3864TIP3    H133007   6.800   0.414  12.084
 3864TIP3    H233008   6.905   0.502  12.147
 3865TIP3   OH233009   6.674   1.191  13.356
 3865TIP3    H133010   6.717   1.160  13.436
 3865TIP3    H233011   6.647   1.280  13.377
 3866TIP3   OH233012   6.969   0.640  12.253
 3866TIP3    H133013   7.056   0.624  12.289
 3866TIP3    H233014   6.976   0.725  12.210
 3867TIP3   OH233015   6.049   1.095  12.784
 3867TIP3    H133016   6.101   1.082  12.706
 3867TIP3    H233017   6.087   1.037  12.850
 3868TIP3   OH233018   6.730   1.287  12.164
 3868TIP3    H133019   6.697   1.377  12.171
 3868TIP3    H233020   6.655   1.232  12.188
 3869TIP3   OH233021   5.748   0.897  13.343
 3869TIP3    H133022   5.711   0.855  13.420
 3869TIP3    H233023   5.685   0.878  13.273
 3870TIP3   OH233024   6.457   0.900  13.586
 3870TIP3    H133025   6.390   0.869  13.524
 3870TIP3    H233026   6.537   0.854  13.560
 3871TIP3   OH233027   6.878   1.457  13.372
 3871TIP3    H133028   6.784   1.464  13.351
 3871TIP3    H233029   6.882   1.469  13.467
 3872TIP3   OH233030   6.974   1.031  12.934
 3872TIP3    H133031   6.882   1.014  12.911
 3872TIP3    H233032   7.021   0.957  12.896
 3873TIP3   OH233033   6.298   1.445  12.584
 3873TIP3    H133034   6.328   1.528  12.547
 3873TIP3    H233035   6.204   1.442  12.566
 3874TIP3   OH233036   5.861   0.899  12.042
 3874TIP3    H133037   5.907   0.968  12.091
 3874TIP3    H233038   5.770   0.906  12.071
 3875TIP3   OH233039   6.380   1.210  12.461
 3875TIP3    H133040   6.368   1.293  12.507
 3875TIP3    H233041   6.325   1.148  12.509
 3876TIP3   OH233042   6.487   1.617  13.153
 3876TIP3    H133043   6.544   1.690  13.131
 3876TIP3    H233044   6.541   1.559  13.207
 3877TIP3   OH233045   6.289   1.706  12.471
 3877TIP3    H133046   6.196   1.718  12.488
 3877TIP3    H233047   6.331   1.785  12.505
 3878TIP3   OH233048   6.791   1.225  13.108
 3878TIP3    H133049   6.754   1.200  13.193
 3878TIP3    H233050   6.850   1.153  13.085
 3879TIP3   OH233051   7.060   1.290  12.039
 3879TIP3    H133052   7.082   1.275  12.130
 3879TIP3    H233053   6.964   1.290  12.037
 3880TIP3   OH233054   7.084   1.651  13.346
 3880TIP3    H133055   7.008   1.595  13.335
 3880TIP3    H233056   7.075   1.718  13.278
 3881TIP3   OH233057   5.845   0.374  13.430
 3881TIP3    H133058   5.835   0.402  13.339
 3881TIP3    H233059   5.860   0.279  13.425
 3882TIP3   OH233060   7.142   1.221  12.295
 3882TIP3    H133061   7.123   1.133  12.326
 3882TIP3    H233062   7.238   1.225  12.292
 3883TIP3   OH233063   5.885   1.584  13.145
 3883TIP3    H133064   5.910   1.502  13.187
 3883TIP3    H233065   5.904   1.651  13.211
 3884TIP3   OH233066   6.442   1.421  11.884
 3884TIP3    H133067   6.450   1.336  11.840
 3884TIP3    H233068   6.401   1.401  11.968
 3885TIP3   OH233069   6.320   1.395  12.132
 3885TIP3    H133070   6.366   1.342  12.198
 3885TIP3    H233071   6.333   1.485  12.161
 3886TIP3   OH233072   5.966   1.108  12.196
 3886TIP3    H133073   5.895   1.156  12.240
 3886TIP3    H233074   6.011   1.174  12.145
 3887TIP3   OH233075   6.776   0.319  13.256
 3887TIP3    H133076   6.858   0.341  13.300
 3887TIP3    H233077   6.799   0.315  13.164
 3888TIP3   OH233078   6.859   0.288  12.354
 3888TIP3    H133079   6.866   0.331  12.269
 3888TIP3    H233080   6.900   0.349  12.415
 3889TIP3   OH233081   6.624   1.535  12.182
 3889TIP3    H133082   6.536   1.565  12.204
 3889TIP3    H233083   6.666   1.612  12.143
 3890TIP3   OH233084   6.541   0.532  12.398
 3890TIP3    H133085   6.615   0.592  12.403
 3890TIP3    H233086   6.536   0.493  12.486
 3891TIP3   OH233087   6.639   0.580  13.294
 3891TIP3    H133088   6.659   0.611  13.383
 3891TIP3    H233089   6.679   0.494  13.289
 3892TIP3   OH233090   6.625   0.195  12.461
 3892TIP3    H133091   6.606   0.266  12.523
 3892TIP3    H233092   6.712   0.216  12.427
 3893TIP3   OH233093   6.376   1.650  12.217
 3893TIP3    H133094   6.380   1.735  12.172
 3893TIP3    H233095   6.344   1.671  12.305
 3894TIP3   OH233096   6.219   0.346  12.166
 3894TIP3    H133097   6.208   0.433  12.204
 3894TIP3    H233098   6.307   0.319  12.194
 3895TIP3   OH233099   7.263   0.354  13.337
 3895TIP3    H133100   7.180   0.375  13.380
 3895TIP3    H233101   7.241   0.344  13.244
 3896TIP3   OH233102   7.078   0.795  12.820
 3896TIP3    H133103   7.008   0.752  12.771
 3896TIP3    H233104   7.110   0.728  12.880
 3897TIP3   OH233105   6.069   1.316  12.039
 3897TIP3    H133106   6.143   1.362  12.078
 3897TIP3    H233107   6.107   1.261  11.971
 3898TIP3   OH233108   5.860   0.625  11.997
 3898TIP3    H133109   5.871   0.718  12.017
 3898TIP3    H233110   5.835   0.624  11.904
 3899TIP3   OH233111   7.235   1.731  12.948
 3899TIP3    H133112   7.218   1.796  12.879
 3899TIP3    H233113   7.328   1.714  12.942
 3900TIP3   OH233114   5.941   0.140  12.831
 3900TIP3    H133115   5.935   0.125  12.736
 3900TIP3    H233116   5.895   0.066  12.870
 3901TIP3   OH233117   5.838   1.532  12.428
 3901TIP3    H133118   5.774   1.558  12.494
 3901TIP3    H233119   5.824   1.593  12.355
 3902TIP3   OH233120   5.806   1.797  13.612
 3902TIP3    H133121   5.874   1.771  13.674
 3902TIP3    H233122   5.776   1.715  13.572
 3903TIP3   OH233123   6.231   1.617  13.745
 3903TIP3    H133124   6.314   1.573  13.763
 3903TIP3    H233125   6.208   1.591  13.656
 3904TIP3   OH233126   6.650   1.602  11.866
 3904TIP3    H133127   6.583   1.535  11.879
 3904TIP3    H233128   6.727   1.554  11.835
 3905TIP3   OH233129   6.876   1.485  13.646
 3905TIP3    H133130   6.852   1.402  13.687
 3905TIP3    H233131   6.955   1.513  13.691
 3906TIP3   OH233132   7.096   1.545  11.929
 3906TIP3    H133133   7.109   1.455  11.960
 3906TIP3    H233134   7.157   1.554  11.856
 3907TIP3   OH233135   5.770   1.174  13.681
 3907TIP3    H133136   5.775   1.079  13.671
 3907TIP3    H233137   5.704   1.202  13.618
 3908TIP3   OH233138   6.202   1.137  11.883
 3908TIP3    H133139   6.228   1.088  11.962
 3908TIP3    H233140   6.285   1.151  11.836
 3909TIP3   OH233141   6.432   1.177  13.633
 3909TIP3    H133142   6.419   1.220  13.549
 3909TIP3    H233143   6.457   1.087  13.611
 3910TIP3   OH233144   6.786   1.283  11.895
 3910TIP3    H133145   6.754   1.276  11.985
 3910TIP3    H233146   6.773   1.195  11.859
 3911TIP3   OH233147   6.977   1.193  13.423
 3911TIP3    H133148   7.070   1.207  13.405
 3911TIP3    H233149   6.934   1.271  13.388
 3912TIP3   OH233150   5.849   0.912  13.651
 3912TIP3    H133151   5.921   0.890  13.592
 3912TIP3    H233152   5.881   0.892  13.738
 3913TIP3   OH233153   6.307   1.004  12.108
 3913TIP3    H133154   6.258   0.959  12.177
 3913TIP3    H233155   6.356   0.935  12.064
 3914TIP3   OH233156   6.276   0.797  13.400
 3914TIP3    H133157   6.192   0.843  13.387
 3914TIP3    H233158   6.331   0.827  13.328
 3915TIP3   OH233159   6.465   0.832  11.954
 3915TIP3    H133160   6.460   0.859  11.862
 3915TIP3    H233161   6.558   0.816  11.968
 3916TIP3   OH233162   6.767   1.015  13.701
 3916TIP3    H133163   6.858   1.004  13.673
 3916TIP3    H233164   6.725   0.932  13.679
 3917TIP3   OH233165   6.316   0.533  13.457
 3917TIP3    H133166   6.315   0.476  13.380
 3917TIP3    H233167   6.305   0.621  13.422
 3918TIP3   OH233168   6.323   0.378  13.223
 3918TIP3    H133169   6.380   0.422  13.160
 3918TIP3    H233170   6.237   0.374  13.180
 3919TIP3   OH233171   6.465   0.888  13.224
 3919TIP3    H133172   6.559   0.882  13.206
 3919TIP3    H233173   6.438   0.969  13.182
 3920TIP3   OH233174   6.917   0.668  13.724
 3920TIP3    H133175   6.902   0.582  13.683
 3920TIP3    H233176   7.002   0.696  13.689
 3921TIP3   OH233177   7.025   0.996  13.610
 3921TIP3    H133178   7.009   1.070  13.550
 3921TIP3    H233179   7.054   0.925  13.553
 3922TIP3   OH233180   6.165   0.617  13.690
 3922TIP3    H133181   6.091   0.557  13.676
 3922TIP3    H233182   6.207   0.623  13.604
 3923TIP3   OH233183   6.382   0.135  13.340
 3923TIP3    H133184   6.365   0.223  13.305
 3923TIP3    H233185   6.317   0.079  13.297
 3924TIP3   OH233186   6.531   0.497  13.626
 3924TIP3    H133187   6.482   0.465  13.702
 3924TIP3    H233188   6.465   0.506  13.557
 3925TIP3   OH233189   6.805   0.462  13.575
 3925TIP3    H133190   6.712   0.449  13.593
 3925TIP3    H233191   6.850   0.395  13.628
 3926TIP3   OH233192   6.978   0.331  13.751
 3926TIP3    H133193   6.964   0.238  13.735
 3926TIP3    H233194   6.949   0.345  13.841
 3927TIP3   OH233195   5.991   0.417  13.655
 3927TIP3    H133196   5.948   0.406  13.570
 3927TIP3    H233197   5.965   0.339  13.704
 3928TIP3   OH233198   6.454   0.023  13.582
 3928TIP3    H133199   6.491  -0.062  13.557
 3928TIP3    H233200   6.431   0.065  13.498
 3929TIP3   OH233201   6.452   0.163  13.815
 3929TIP3    H133202   6.462   0.111  13.735
 3929TIP3    H233203   6.405   0.242  13.788
 3930TIP3   OH233204   6.448   1.894  12.099
 3930TIP3    H133205   6.536   1.859  12.084
 3930TIP3    H233206   6.434   1.956  12.027
 3931TIP3   OH233207   5.801   1.355  11.993
 3931TIP3    H133208   5.894   1.350  12.012
 3931TIP3    H233209   5.785   1.284  11.931
 3932TIP3   OH233210   5.666   1.857  12.537
 3932TIP3    H133211   5.608   1.826  12.467
 3932TIP3    H233212   5.684   1.779  12.589
 3933TIP3   OH233213   5.732   1.637  12.691
 3933TIP3    H133214   5.694   1.559  12.732
 3933TIP3    H233215   5.779   1.681  12.761
 3934TIP3   OH233216   7.273   1.476  13.220
 3934TIP3    H133217   7.213   1.535  13.265
 3934TIP3    H233218   7.230   1.457  13.137
 3935TIP3   OH233219   7.181   0.792  12.557
 3935TIP3    H133220   7.181   0.697  12.558
 3935TIP3    H233221   7.168   0.818  12.648
 3936TIP3   OH233222   5.723   0.994  12.960
 3936TIP3    H133223   5.730   0.968  12.868
 3936TIP3    H233224   5.809   0.975  12.997
 3937TIP3   OH233225   7.243   0.381  11.910
 3937TIP3    H133226   7.269   0.290  11.895
 3937TIP3    H233227   7.150   0.384  11.887
 3938TIP3   OH233228   7.218   0.544  12.377
 3938TIP3    H133229   7.271   0.502  12.444
 3938TIP3    H233230   7.262   0.522  12.295
 3939TIP3   OH233231   7.191   0.523  12.934
 3939TIP3    H133232   7.271   0.575  12.935
 3939TIP3    H233233   7.139   0.558  13.006
 3940TIP3   OH233234   7.321   0.674  13.241
 3940TIP3    H133235   7.227   0.658  13.232
 3940TIP3    H233236   7.352   0.690  13.152
 3941TIP3   OH233237   5.700   0.520  13.613
 3941TIP3    H133238   5.760   0.489  13.545
 3941TIP3    H233239   5.636   0.450  13.623
 3942TIP3   OH233240   7.203   0.140  12.507
 3942TIP3    H133241   7.282   0.168  12.460
 3942TIP3    H233242   7.137   0.130  12.438
 3943TIP3   OH233243   5.790   0.370  12.848
 3943TIP3    H133244   5.856   0.301  12.846
 3943TIP3    H233245   5.806   0.417  12.930
 3944TIP3   OH233246   5.644   0.656  12.924
 3944TIP3    H133247   5.712   0.666  12.858
 3944TIP3    H233248   5.688   0.615  12.999
 3945TIP3   OH233249   5.674   0.277  12.351
 3945TIP3    H133250   5.578   0.275  12.351
 3945TIP3    H233251   5.697   0.343  12.285
 3946TIP3   OH233252   7.125   1.738  12.596
 3946TIP3    H133253   7.202   1.681  12.602
 3946TIP3    H233254   7.148   1.815  12.647
 3947TIP3   OH233255   5.698   0.105  13.192
 3947TIP3    H133256   5.616   0.095  13.241
 3947TIP3    H233257   5.681   0.179  13.133
 3948TIP3   OH233258   5.899   1.504  13.590
 3948TIP3    H133259   5.811   1.507  13.551
 3948TIP3    H233260   5.886   1.461  13.674
 3949TIP3   OH233261   6.224   1.596  13.231
 3949TIP3    H133262   6.195   1.683  13.204
 3949TIP3    H233263   6.317   1.594  13.210
 3950TIP3   OH233264   6.600   1.716  13.515
 3950TIP3    H133265   6.614   1.684  13.604
 3950TIP3    H233266   6.680   1.762  13.493
 3951TIP3   OH233267   6.837   1.850  13.469
 3951TIP3    H133268   6.902   1.795  13.425
 3951TIP3    H233269   6.883   1.885  13.546
 3952TIP3   OH233270   5.927   1.887  13.253
 3952TIP3    H133271   5.849   1.925  13.213
 3952TIP3    H233272   5.937   1.934  13.336
 3953TIP3   OH233273   6.184   1.859  13.161
 3953TIP3    H133274   6.093   1.871  13.187
 3953TIP3    H233275   6.190   1.903  13.076
 3954TIP3   OH233276   6.632   1.837  13.065
 3954TIP3    H133277   6.583   1.870  12.990
 3954TIP3    H233278   6.642   1.912  13.123
 3955TIP3   OH233279   6.856   1.715  13.169
 3955TIP3    H133280   6.778   1.755  13.129
 3955TIP3    H233281   6.927   1.774  13.147
 3956TIP3   OH233282   7.093   1.860  13.145
 3956TIP3    H133283   7.097   1.951  13.117
 3956TIP3    H233284   7.142   1.812  13.079
 3957TIP3   OH233285   5.884   1.741  12.915
 3957TIP3    H133286   5.880   1.692  12.997
 3957TIP3    H233287   5.962   1.707  12.871
 3958TIP3   OH233288   6.100   1.622  12.803
 3958TIP3    H133289   6.088   1.531  12.828
 3958TIP3    H233290   6.189   1.643  12.831
 3959TIP3   OH233291   6.364   1.650  12.903
 3959TIP3    H133292   6.373   1.561  12.869
 3959TIP3    H233293   6.396   1.644  12.993
 3960TIP3   OH233294   6.643   0.223  12.827
 3960TIP3    H133295   6.575   0.156  12.826
 3960TIP3    H233296   6.716   0.185  12.779
 3961TIP3   OH233297   7.181   0.050  12.813
 3961TIP3    H133298   7.234   0.065  12.735
 3961TIP3    H233299   7.125   0.127  12.820
 3962TIP3   OH233300   5.945   0.064  12.562
 3962TIP3    H133301   5.889   0.015  12.501
 3962TIP3    H233302   6.006  -0.002  12.596
 3963TIP3   OH233303   5.842   0.099  12.211
 3963TIP3    H133304   5.881   0.149  12.139
 3963TIP3    H233305   5.785   0.161  12.256
 3964TIP3   OH233306   6.409   0.048  12.544
 3964TIP3    H133307   6.487   0.091  12.508
 3964TIP3    H233308   6.415   0.062  12.638
 3965TIP3   OH233309   6.875   0.140  12.717
 3965TIP3    H133310   6.944   0.204  12.698
 3965TIP3    H233311   6.903   0.060  12.673
 3966TIP3   OH233312   7.063   0.119  12.269
 3966TIP3    H133313   6.980   0.162  12.289
 3966TIP3    H233314   7.039   0.048  12.210
 3967TIP3   OH233315   5.803   1.712  12.223
 3967TIP3    H133316   5.728   1.705  12.164
 3967TIP3    H233317   5.827   1.805  12.220
 3968TIP3   OH233318   5.982   0.263  12.026
 3968TIP3    H133319   6.015   0.213  11.951
 3968TIP3    H233320   6.061   0.291  12.073
 3969TIP3   OH233321   6.476   0.306  12.254
 3969TIP3    H133322   6.524   0.242  12.307
 3969TIP3    H233323   6.495   0.390  12.296
 3970TIP3   OH233324   6.696   1.781  12.066
 3970TIP3    H133325   6.790   1.794  12.058
 3970TIP3    H233326   6.672   1.730  11.988
 3971TIP3   OH233327   5.899   0.117  13.517
 3971TIP3    H133328   5.887   0.022  13.522
 3971TIP3    H233329   5.973   0.134  13.575
 3972TIP3   OH233330   6.111   0.149  13.697
 3972TIP3    H133331   6.177   0.199  13.648
 3972TIP3    H233332   6.155   0.067  13.718
 3973TIP3   OH233333   5.996   1.749  11.922
 3973TIP3    H133334   5.970   1.738  12.013
 3973TIP3    H233335   6.074   1.693  11.912
 3974TIP3   OH233336   6.935   0.065  13.716
 3974TIP3    H133337   6.999   0.019  13.770
 3974TIP3    H233338   6.921   0.007  13.641
 3975TIP3   OH233339   7.310   1.631  13.511
 3975TIP3    H133340   7.225   1.632  13.467
 3975TIP3    H233341   7.289   1.632  13.605
 3976TIP3   OH233342   1.191   2.918  12.538
 3976TIP3    H133343   1.176   3.012  12.530
 3976TIP3    H233344   1.125   2.878  12.482
 3977TIP3   OH233345   1.077   2.832  12.939
 3977TIP3    H133346   1.106   2.785  13.017
 3977TIP3    H233347   1.031   2.766  12.887
 3978TIP3   OH233348   0.307   2.765  13.069
 3978TIP3    H133349   0.312   2.684  13.121
 3978TIP3    H233350   0.396   2.778  13.037
 3979TIP3   OH233351   1.459   3.137  12.758
 3979TIP3    H133352   1.420   3.062  12.803
 3979TIP3    H233353   1.477   3.200  12.829
 3980TIP3   OH233354   0.413   3.247  12.877
 3980TIP3    H133355   0.392   3.157  12.852
 3980TIP3    H233356   0.507   3.246  12.893
 3981TIP3   OH233357   0.120   2.605  12.414
 3981TIP3    H133358   0.070   2.668  12.465
 3981TIP3    H233359   0.055   2.553  12.368
 3982TIP3   OH233360   0.147   2.817  12.709
 3982TIP3    H133361   0.175   2.726  12.722
 3982TIP3    H233362   0.218   2.856  12.658
 3983TIP3   OH233363   1.189   3.614  12.789
 3983TIP3    H133364   1.224   3.563  12.716
 3983TIP3    H233365   1.162   3.549  12.854
 3984TIP3   OH233366   0.912   3.085  12.946
 3984TIP3    H133367   0.950   3.007  12.905
 3984TIP3    H233368   0.982   3.120  13.001
 3985TIP3   OH233369   1.806   2.221  13.038
 3985TIP3    H133370   1.824   2.294  13.098
 3985TIP3    H233371   1.859   2.240  12.960
 3986TIP3   OH233372   1.235   2.499  12.956
 3986TIP3    H133373   1.252   2.405  12.967
 3986TIP3    H233374   1.220   2.509  12.862
 3987TIP3   OH233375   0.592   2.312  12.684
 3987TIP3    H133376   0.601   2.397  12.642
 3987TIP3    H233377   0.543   2.259  12.620
 3988TIP3   OH233378   1.354   2.343  12.525
 3988TIP3    H133379   1.397   2.310  12.604
 3988TIP3    H233380   1.426   2.379  12.472
 3989TIP3   OH233381   0.221   2.558  12.778
 3989TIP3    H133382   0.291   2.518  12.829
 3989TIP3    H233383   0.234   2.524  12.689
 3990TIP3   OH233384   0.702   2.709  12.744
 3990TIP3    H133385   0.789   2.676  12.768
 3990TIP3    H233386   0.669   2.646  12.679
 3991TIP3   OH233387   1.846   2.391  13.264
 3991TIP3    H133388   1.769   2.443  13.243
 3991TIP3    H233389   1.857   2.400  13.358
 3992TIP3   OH233390   0.441   2.226  13.112
 3992TIP3    H133391   0.411   2.283  13.040
 3992TIP3    H233392   0.372   2.233  13.178
 3993TIP3   OH233393   1.123   3.168  12.446
 3993TIP3    H133394   1.123   3.172  12.350
 3993TIP3    H233395   1.090   3.253  12.474
 3994TIP3   OH233396   0.696   2.999  13.095
 3994TIP3    H133397   0.643   3.070  13.131
 3994TIP3    H233398   0.765   3.043  13.045
 3995TIP3   OH233399   1.454   2.292  12.773
 3995TIP3    H133400   1.398   2.253  12.840
 3995TIP3    H233401   1.516   2.346  12.823
 3996TIP3   OH233402   0.421   2.393  12.887
 3996TIP3    H133403   0.478   2.446  12.943
 3996TIP3    H233404   0.479   2.358  12.820
 3997TIP3   OH233405   0.538   3.200  13.210
 3997TIP3    H133406   0.544   3.295  13.196
 3997TIP3    H233407   0.447   3.184  13.233
 3998TIP3   OH233408   0.110   3.167  12.264
 3998TIP3    H133409   0.109   3.197  12.173
 3998TIP3    H233410   0.146   3.241  12.313
 3999TIP3   OH233411   1.493   3.340  12.963
 3999TIP3    H133412   1.398   3.346  12.975
 3999TIP3    H233413   1.518   3.428  12.935
 4000TIP3   OH233414   1.552   2.129  13.132
 4000TIP3    H133415   1.482   2.166  13.079
 4000TIP3    H233416   1.632   2.152  13.086
 4001TIP3   OH233417   0.799   1.916  12.858
 4001TIP3    H133418   0.770   1.825  12.858
 4001TIP3    H233419   0.722   1.965  12.887
 4002TIP3   OH233420   1.310   3.494  12.569
 4002TIP3    H133421   1.350   3.408  12.552
 4002TIP3    H233422   1.384   3.554  12.574
 4003TIP3   OH233423   1.440   3.263  12.510
 4003TIP3    H133424   1.449   3.199  12.440
 4003TIP3    H233425   1.448   3.211  12.590
 4004TIP3   OH233426   1.610   3.119  13.316
 4004TIP3    H133427   1.597   3.063  13.239
 4004TIP3    H233428   1.623   3.207  13.280
 4005TIP3   OH233429   1.045   2.827  12.317
 4005TIP3    H133430   0.980   2.893  12.291
 4005TIP3    H233431   1.112   2.832  12.250
 4006TIP3   OH233432   1.078   2.703  11.975
 4006TIP3    H133433   1.133   2.728  12.049
 4006TIP3    H233434   1.132   2.641  11.925
 4007TIP3   OH233435   1.770   2.789  13.149
 4007TIP3    H133436   1.695   2.848  13.136
 4007TIP3    H233437   1.829   2.809  13.077
 4008TIP3   OH233438   1.412   2.857  12.388
 4008TIP3    H133439   1.343   2.878  12.451
 4008TIP3    H233440   1.475   2.805  12.437
 4009TIP3   OH233441   1.377   2.654  13.338
 4009TIP3    H133442   1.368   2.725  13.401
 4009TIP3    H233443   1.313   2.674  13.270
 4010TIP3   OH233444   0.558   2.898  12.586
 4010TIP3    H133445   0.532   2.860  12.501
 4010TIP3    H233446   0.613   2.831  12.626
 4011TIP3   OH233447   0.700   3.262  12.852
 4011TIP3    H133448   0.696   3.269  12.757
 4011TIP3    H233449   0.774   3.205  12.870
 4012TIP3   OH233450   0.562   2.798  12.964
 4012TIP3    H133451   0.614   2.773  12.888
 4012TIP3    H233452   0.613   2.866  13.008
 4013TIP3   OH233453   1.229   3.363  13.030
 4013TIP3    H133454   1.213   3.427  13.099
 4013TIP3    H233455   1.190   3.282  13.062
 4014TIP3   OH233456   0.702   3.232  13.431
 4014TIP3    H133457   0.640   3.292  13.473
 4014TIP3    H233458   0.656   3.202  13.353
 4015TIP3   OH233459   1.276   2.784  12.160
 4015TIP3    H133460   1.327   2.816  12.234
 4015TIP3    H233461   1.327   2.807  12.083
 4016TIP3   OH233462   0.395   2.824  13.377
 4016TIP3    H133463   0.393   2.900  13.435
 4016TIP3    H233464   0.327   2.842  13.312
 4017TIP3   OH233465   1.049   3.433  12.501
 4017TIP3    H133466   1.137   3.455  12.530
 4017TIP3    H233467   1.020   3.510  12.451
 4018TIP3   OH233468   0.508   3.422  13.499
 4018TIP3    H133469   0.518   3.446  13.407
 4018TIP3    H233470   0.413   3.417  13.512
 4019TIP3   OH233471   1.648   1.930  12.147
 4019TIP3    H133472   1.563   1.955  12.183
 4019TIP3    H233473   1.684   2.012  12.112
 4020TIP3   OH233474   0.468   2.807  12.333
 4020TIP3    H133475   0.413   2.872  12.289
 4020TIP3    H233476   0.423   2.724  12.320
 4021TIP3   OH233477   1.786   3.378  12.007
 4021TIP3    H133478   1.805   3.472  12.009
 4021TIP3    H233479   1.872   3.336  12.004
 4022TIP3   OH233480   0.173   3.025  13.215
 4022TIP3    H133481   0.147   3.003  13.126
 4022TIP3    H233482   0.139   2.953  13.268
 4023TIP3   OH233483   0.125   3.348  12.850
 4023TIP3    H133484   0.208   3.308  12.873
 4023TIP3    H233485   0.060   3.302  12.904
 4024TIP3   OH233486   1.858   3.423  13.515
 4024TIP3    H133487   1.849   3.329  13.501
 4024TIP3    H233488   1.772   3.451  13.546
 4025TIP3   OH233489   0.942   3.353  13.377
 4025TIP3    H133490   0.939   3.437  13.424
 4025TIP3    H233491   0.858   3.313  13.395
 4026TIP3   OH233492   1.029   3.696  12.360
 4026TIP3    H133493   1.006   3.700  12.267
 4026TIP3    H233494   0.998   3.779  12.396
 4027TIP3   OH233495   0.375   3.584  12.542
 4027TIP3    H133496   0.390   3.552  12.631
 4027TIP3    H233497   0.317   3.519  12.502
 4028TIP3   OH233498   1.315   3.661  12.039
 4028TIP3    H133499   1.362   3.587  12.001
 4028TIP3    H233500   1.325   3.650  12.133
 4029TIP3   OH233501   1.296   3.642  12.316
 4029TIP3    H133502   1.203   3.655  12.335
 4029TIP3    H233503   1.326   3.580  12.383
 4030TIP3   OH233504   1.558   2.534  13.530
 4030TIP3    H133505   1.498   2.571  13.465
 4030TIP3    H233506   1.566   2.442  13.506
 4031TIP3   OH233507   0.288   3.221  13.361
 4031TIP3    H133508   0.327   3.162  13.425
 4031TIP3    H233509   0.235   3.165  13.305
 4032TIP3   OH233510   0.555   2.031  12.946
 4032TIP3    H133511   0.479   2.022  12.888
 4032TIP3    H233512   0.530   2.100  13.007
 4033TIP3   OH233513   1.028   2.004  13.286
 4033TIP3    H133514   1.073   1.951  13.352
 4033TIP3    H233515   0.935   1.991  13.304
 4034TIP3   OH233516   1.315   2.380  13.363
 4034TIP3    H133517   1.257   2.371  13.438
 4034TIP3    H233518   1.323   2.475  13.349
 4035TIP3   OH233519   1.424   2.837  11.940
 4035TIP3    H133520   1.402   2.843  11.847
 4035TIP3    H233521   1.517   2.860  11.944
 4036TIP3   OH233522   0.978   2.239  12.013
 4036TIP3    H133523   0.921   2.235  12.089
 4036TIP3    H233524   0.942   2.173  11.953
 4037TIP3   OH233525   0.565   2.542  13.070
 4037TIP3    H133526   0.499   2.541  13.139
 4037TIP3    H233527   0.570   2.634  13.042
 4038TIP3   OH233528   0.581   2.553  12.553
 4038TIP3    H133529   0.486   2.539  12.553
 4038TIP3    H233530   0.607   2.536  12.463
 4039TIP3   OH233531   1.106   2.582  12.428
 4039TIP3    H133532   1.080   2.667  12.393
 4039TIP3    H233533   1.175   2.552  12.368
 4040TIP3   OH233534   1.017   2.598  13.547
 4040TIP3    H133535   0.969   2.523  13.583
 4040TIP3    H233536   1.103   2.593  13.590
 4041TIP3   OH233537   1.205   2.520  12.683
 4041TIP3    H133538   1.161   2.568  12.612
 4041TIP3    H233539   1.249   2.447  12.640
 4042TIP3   OH233540   0.346   2.544  13.239
 4042TIP3    H133541   0.348   2.592  13.321
 4042TIP3    H233542   0.309   2.459  13.261
 4043TIP3   OH233543   0.665   2.288  11.909
 4043TIP3    H133544   0.630   2.276  11.998
 4043TIP3    H233545   0.607   2.354  11.870
 4044TIP3   OH233546   0.029   2.338  12.602
 4044TIP3    H133547   0.086   2.318  12.677
 4044TIP3    H233548  -0.004   2.252  12.575
 4045TIP3   OH233549   0.045   2.369  12.135
 4045TIP3    H133550   0.113   2.427  12.099
 4045TIP3    H233551  -0.001   2.336  12.058
 4046TIP3   OH233552   1.162   2.669  13.153
 4046TIP3    H133553   1.195   2.612  13.083
 4046TIP3    H233554   1.095   2.617  13.196
 4047TIP3   OH233555   0.872   2.267  12.640
 4047TIP3    H133556   0.783   2.272  12.674
 4047TIP3    H233557   0.923   2.231  12.712
 4048TIP3   OH233558   0.323   2.464  12.538
 4048TIP3    H133559   0.255   2.499  12.480
 4048TIP3    H233560   0.340   2.376  12.505
 4049TIP3   OH233561   0.630   2.476  12.294
 4049TIP3    H133562   0.725   2.467  12.304
 4049TIP3    H233563   0.620   2.517  12.208
 4050TIP3   OH233564   1.257   2.221  12.970
 4050TIP3    H133565   1.208   2.228  13.052
 4050TIP3    H233566   1.196   2.178  12.910
 4051TIP3   OH233567   0.585   2.572  12.041
 4051TIP3    H133568   0.530   2.547  11.967
 4051TIP3    H233569   0.661   2.615  12.002
 4052TIP3   OH233570   1.605   3.785  13.613
 4052TIP3    H133571   1.625   3.816  13.524
 4052TIP3    H233572   1.681   3.810  13.665
 4053TIP3   OH233573   0.371   3.042  13.556
 4053TIP3    H133574   0.431   3.032  13.630
 4053TIP3    H233575   0.284   3.044  13.596
 4054TIP3   OH233576   0.940   2.594  12.839
 4054TIP3    H133577   1.007   2.544  12.793
 4054TIP3    H233578   0.908   2.535  12.908
 4055TIP3   OH233579   0.432   2.206  12.479
 4055TIP3    H133580   0.390   2.124  12.507
 4055TIP3    H233581   0.457   2.190  12.388
 4056TIP3   OH233582   0.825   2.450  13.055
 4056TIP3    H133583   0.739   2.489  13.065
 4056TIP3    H233584   0.874   2.478  13.132
 4057TIP3   OH233585   0.852   3.021  12.241
 4057TIP3    H133586   0.781   2.980  12.192
 4057TIP3    H233587   0.813   3.044  12.325
 4058TIP3   OH233588   1.575   2.973  13.085
 4058TIP3    H133589   1.635   3.027  13.034
 4058TIP3    H233590   1.502   2.954  13.025
 4059TIP3   OH233591   1.231   2.282  12.104
 4059TIP3    H133592   1.142   2.282  12.070
 4059TIP3    H233593   1.246   2.372  12.134
 4060TIP3   OH233594   1.021   3.070  13.371
 4060TIP3    H133595   1.042   3.034  13.457
 4060TIP3    H233596   0.991   3.159  13.390
 4061TIP3   OH233597   1.307   2.516  12.242
 4061TIP3    H133598   1.397   2.498  12.271
 4061TIP3    H233599   1.312   2.604  12.204
 4062TIP3   OH233600   0.410   2.982  12.803
 4062TIP3    H133601   0.457   2.964  12.722
 4062TIP3    H233602   0.443   2.917  12.865
 4063TIP3   OH233603   1.067   3.171  12.166
 4063TIP3    H133604   1.035   3.261  12.173
 4063TIP3    H233605   0.992   3.117  12.190
 4064TIP3   OH233606   0.095   2.816  13.369
 4064TIP3    H133607   0.113   2.793  13.460
 4064TIP3    H233608   0.046   2.742  13.335
 4065TIP3   OH233609   0.808   2.782  13.566
 4065TIP3    H133610   0.742   2.744  13.508
 4065TIP3    H233611   0.888   2.733  13.547
 4066TIP3   OH233612   1.225   3.340  13.375
 4066TIP3    H133613   1.133   3.342  13.351
 4066TIP3    H233614   1.226   3.353  13.470
 4067TIP3   OH233615   1.767   2.554  12.193
 4067TIP3    H133616   1.724   2.533  12.110
 4067TIP3    H233617   1.795   2.646  12.182
 4068TIP3   OH233618   1.834   3.150  13.476
 4068TIP3    H133619   1.742   3.144  13.451
 4068TIP3    H233620   1.882   3.124  13.398
 4069TIP3   OH233621   1.645   3.403  12.251
 4069TIP3    H133622   1.595   3.326  12.278
 4069TIP3    H233623   1.683   3.378  12.166
 4070TIP3   OH233624   1.366   2.904  12.904
 4070TIP3    H133625   1.271   2.895  12.898
 4070TIP3    H233626   1.400   2.827  12.857
 4071TIP3   OH233627   0.643   3.330  12.586
 4071TIP3    H133628   0.673   3.413  12.550
 4071TIP3    H233629   0.550   3.326  12.562
 4072TIP3   OH233630   0.177   2.808  12.017
 4072TIP3    H133631   0.232   2.861  12.075
 4072TIP3    H233632   0.088   2.832  12.041
 4073TIP3   OH233633   0.718   3.092  12.464
 4073TIP3    H133634   0.709   3.175  12.511
 4073TIP3    H233635   0.664   3.031  12.514
 4074TIP3   OH233636   0.834   3.503  13.154
 4074TIP3    H133637   0.892   3.575  13.130
 4074TIP3    H233638   0.889   3.445  13.207
 4075TIP3   OH233639   0.642   3.590  12.472
 4075TIP3    H133640   0.548   3.603  12.489
 4075TIP3    H233641   0.683   3.670  12.506
 4076TIP3   OH233642   1.130   3.117  13.122
 4076TIP3    H133643   1.095   3.094  13.208
 4076TIP3    H233644   1.188   3.044  13.099
 4077TIP3   OH233645   1.419   3.213  12.040
 4077TIP3    H133646   1.433   3.172  12.125
 4077TIP3    H233647   1.332   3.183  12.013
 4078TIP3   OH233648   1.435   3.532  13.347
 4078TIP3    H133649   1.355   3.482  13.335
 4078TIP3    H233650   1.429   3.604  13.284
 4079TIP3   OH233651   1.842   3.648  12.044
 4079TIP3    H133652   1.907   3.718  12.040
 4079TIP3    H233653   1.760   3.691  12.069
 4080TIP3   OH233654   0.250   2.287  13.312
 4080TIP3    H133655   0.155   2.293  13.323
 4080TIP3    H233656   0.276   2.216  13.372
 4081TIP3   OH233657   1.510   3.094  12.281
 4081TIP3    H133658   1.467   3.015  12.312
 4081TIP3    H233659   1.604   3.073  12.283
 4082TIP3   OH233660   0.229   3.504  13.142
 4082TIP3    H133661   0.214   3.421  13.186
 4082TIP3    H233662   0.250   3.566  13.213
 4083TIP3   OH233663   0.791   3.303  11.886
 4083TIP3    H133664   0.794   3.219  11.840
 4083TIP3    H233665   0.750   3.282  11.970
 4084TIP3   OH233666   0.666   3.277  12.133
 4084TIP3    H133667   0.716   3.226  12.198
 4084TIP3    H233668   0.677   3.368  12.161
 4085TIP3   OH233669   0.307   2.984  12.191
 4085TIP3    H133670   0.236   3.032  12.233
 4085TIP3    H233671   0.356   3.051  12.143
 4086TIP3   OH233672   1.121   2.252  13.212
 4086TIP3    H133673   1.196   2.270  13.269
 4086TIP3    H233674   1.090   2.166  13.241
 4087TIP3   OH233675   1.208   2.173  12.358
 4087TIP3    H133676   1.215   2.211  12.270
 4087TIP3    H233677   1.252   2.237  12.415
 4088TIP3   OH233678   0.964   3.420  12.185
 4088TIP3    H133679   0.876   3.453  12.204
 4088TIP3    H233680   1.011   3.497  12.152
 4089TIP3   OH233681   0.886   2.416  12.405
 4089TIP3    H133682   0.961   2.475  12.411
 4089TIP3    H233683   0.881   2.375  12.491
 4090TIP3   OH233684   0.989   2.496  13.276
 4090TIP3    H133685   0.995   2.513  13.370
 4090TIP3    H233686   1.026   2.408  13.265
 4091TIP3   OH233687   0.968   2.076  12.455
 4091TIP3    H133688   0.944   2.146  12.516
 4091TIP3    H233689   1.055   2.102  12.423
 4092TIP3   OH233690   0.716   3.535  12.214
 4092TIP3    H133691   0.721   3.619  12.169
 4092TIP3    H233692   0.689   3.557  12.303
 4093TIP3   OH233693   0.563   2.232  12.166
 4093TIP3    H133694   0.558   2.317  12.210
 4093TIP3    H233695   0.649   2.198  12.189
 4094TIP3   OH233696   1.567   2.283  13.389
 4094TIP3    H133697   1.474   2.305  13.380
 4094TIP3    H233698   1.589   2.237  13.307
 4095TIP3   OH233699   1.444   2.657  12.781
 4095TIP3    H133700   1.362   2.614  12.758
 4095TIP3    H233701   1.489   2.594  12.836
 4096TIP3   OH233702   0.415   3.196  12.040
 4096TIP3    H133703   0.487   3.244  12.080
 4096TIP3    H233704   0.456   3.140  11.974
 4097TIP3   OH233705   0.204   2.534  11.987
 4097TIP3    H133706   0.208   2.628  12.000
 4097TIP3    H233707   0.170   2.523  11.899
 4098TIP3   OH233708   1.575   3.609  12.949
 4098TIP3    H133709   1.556   3.680  12.887
 4098TIP3    H233710   1.669   3.613  12.962
 4099TIP3   OH233711   0.303   2.007  12.828
 4099TIP3    H133712   0.309   1.990  12.734
 4099TIP3    H233713   0.273   1.924  12.865
 4100TIP3   OH233714   0.186   3.407  12.419
 4100TIP3    H133715   0.114   3.401  12.481
 4100TIP3    H233716   0.159   3.474  12.357
 4101TIP3   OH233717   0.189   3.686  13.612
 4101TIP3    H133718   0.246   3.680  13.688
 4101TIP3    H233719   0.190   3.598  13.574
 4102TIP3   OH233720   0.587   3.504  13.749
 4102TIP3    H133721   0.665   3.451  13.767
 4102TIP3    H233722   0.561   3.479  13.660
 4103TIP3   OH233723   0.995   3.488  11.869
 4103TIP3    H133724   0.928   3.421  11.883
 4103TIP3    H233725   1.071   3.441  11.838
 4104TIP3   OH233726   1.218   3.374  13.649
 4104TIP3    H133727   1.207   3.290  13.693
 4104TIP3    H233728   1.296   3.413  13.689
 4105TIP3   OH233729   1.442   3.455  11.910
 4105TIP3    H133730   1.448   3.375  11.962
 4105TIP3    H233731   1.519   3.452  11.853
 4106TIP3   OH233732   0.099   3.055  13.635
 4106TIP3    H133733   0.105   2.960  13.633
 4106TIP3    H233734   0.039   3.078  13.564
 4107TIP3   OH233735   0.548   3.015  11.888
 4107TIP3    H133736   0.575   2.968  11.966
 4107TIP3    H233737   0.629   3.030  11.839
 4108TIP3   OH233738   0.777   3.056  13.631
 4108TIP3    H133739   0.760   3.101  13.548
 4108TIP3    H233740   0.802   2.967  13.605
 4109TIP3   OH233741   1.170   3.157  11.913
 4109TIP3    H133742   1.124   3.155  11.997
 4109TIP3    H233743   1.147   3.075  11.870
 4110TIP3   OH233744   1.348   3.083  13.404
 4110TIP3    H133745   1.438   3.102  13.377
 4110TIP3    H233746   1.300   3.162  13.380
 4111TIP3   OH233747   0.188   2.785  13.630
 4111TIP3    H133748   0.268   2.738  13.606
 4111TIP3    H233749   0.189   2.786  13.725
 4112TIP3   OH233750   0.648   2.885  12.113
 4112TIP3    H133751   0.599   2.838  12.181
 4112TIP3    H233752   0.696   2.817  12.067
 4113TIP3   OH233753   0.620   2.666  13.385
 4113TIP3    H133754   0.543   2.723  13.380
 4113TIP3    H233755   0.680   2.700  13.318
 4114TIP3   OH233756   0.800   2.717  11.951
 4114TIP3    H133757   0.796   2.743  11.859
 4114TIP3    H233758   0.893   2.705  11.969
 4115TIP3   OH233759   1.124   2.915  13.676
 4115TIP3    H133760   1.198   2.876  13.629
 4115TIP3    H233761   1.092   2.844  13.732
 4116TIP3   OH233762   1.688   2.913  11.903
 4116TIP3    H133763   1.691   2.888  11.810
 4116TIP3    H233764   1.681   3.009  11.901
 4117TIP3   OH233765   0.655   2.404  13.458
 4117TIP3    H133766   0.664   2.346  13.383
 4117TIP3    H233767   0.646   2.492  13.420
 4118TIP3   OH233768   0.691   2.250  13.223
 4118TIP3    H133769   0.744   2.292  13.156
 4118TIP3    H233770   0.604   2.243  13.184
 4119TIP3   OH233771   0.802   2.778  13.220
 4119TIP3    H133772   0.897   2.787  13.222
 4119TIP3    H233773   0.771   2.859  13.180
 4120TIP3   OH233774   1.254   2.556  13.706
 4120TIP3    H133775   1.250   2.464  13.680
 4120TIP3    H233776   1.347   2.574  13.714
 4121TIP3   OH233777   1.388   2.854  13.544
 4121TIP3    H133778   1.363   2.935  13.498
 4121TIP3    H233779   1.484   2.852  13.538
 4122TIP3   OH233780   0.497   2.475  13.682
 4122TIP3    H133781   0.418   2.423  13.675
 4122TIP3    H233782   0.543   2.461  13.599
 4123TIP3   OH233783   0.749   1.982  13.287
 4123TIP3    H133784   0.727   2.073  13.266
 4123TIP3    H233785   0.681   1.931  13.243
 4124TIP3   OH233786   0.876   2.375  13.624
 4124TIP3    H133787   0.838   2.346  13.707
 4124TIP3    H233788   0.802   2.377  13.563
 4125TIP3   OH233789   1.150   2.327  13.571
 4125TIP3    H133790   1.057   2.320  13.593
 4125TIP3    H233791   1.193   2.262  13.625
 4126TIP3   OH233792   1.322   2.190  13.740
 4126TIP3    H133793   1.319   2.095  13.727
 4126TIP3    H233794   1.296   2.202  13.832
 4127TIP3   OH233795   0.290   2.294  13.677
 4127TIP3    H133796   0.295   2.224  13.611
 4127TIP3    H233797   0.301   2.248  13.760
 4128TIP3   OH233798   0.742   1.901  13.548
 4128TIP3    H133799   0.797   1.823  13.542
 4128TIP3    H233800   0.737   1.933  13.458
 4129TIP3   OH233801   0.813   2.061  13.761
 4129TIP3    H133802   0.793   2.008  13.684
 4129TIP3    H233803   0.749   2.133  13.757
 4130TIP3   OH233804   0.788   3.776  12.093
 4130TIP3    H133805   0.877   3.743  12.083
 4130TIP3    H233806   0.778   3.840  12.023
 4131TIP3   OH233807   0.143   3.219  11.991
 4131TIP3    H133808   0.238   3.218  11.997
 4131TIP3    H233809   0.123   3.163  11.916
 4132TIP3   OH233810   0.068   3.755  12.483
 4132TIP3    H133811   0.064   3.712  12.398
 4132TIP3    H233812   0.069   3.684  12.546
 4133TIP3   OH233813   0.082   3.556  12.678
 4133TIP3    H133814   0.083   3.469  12.718
 4133TIP3    H233815   0.132   3.611  12.738
 4134TIP3   OH233816   1.839   3.642  13.013
 4134TIP3    H133817   1.852   3.632  13.107
 4134TIP3    H233818   1.927   3.659  12.978
 4135TIP3   OH233819   1.786   3.585  13.290
 4135TIP3    H133820   1.734   3.516  13.249
 4135TIP3    H233821   1.833   3.540  13.361
 4136TIP3   OH233822   1.637   3.180  13.767
 4136TIP3    H133823   1.555   3.186  13.816
 4136TIP3    H233824   1.691   3.250  13.804
 4137TIP3   OH233825   1.776   3.013  12.307
 4137TIP3    H133826   1.852   3.071  12.307
 4137TIP3    H233827   1.794   2.950  12.377
 4138TIP3   OH233828   1.825   2.810  12.490
 4138TIP3    H133829   1.741   2.773  12.518
 4138TIP3    H233830   1.875   2.818  12.571
 4139TIP3   OH233831   1.813   3.100  13.005
 4139TIP3    H133832   1.862   3.028  12.965
 4139TIP3    H233833   1.847   3.179  12.963
 4140TIP3   OH233834   1.620   3.374  13.209
 4140TIP3    H133835   1.548   3.422  13.251
 4140TIP3    H233836   1.589   3.358  13.120
 4141TIP3   OH233837   1.828   2.815  12.119
 4141TIP3    H133838   1.779   2.840  12.040
 4141TIP3    H233839   1.806   2.883  12.183
 4142TIP3   OH233840   1.656   2.520  11.946
 4142TIP3    H133841   1.647   2.576  11.869
 4142TIP3    H233842   1.635   2.432  11.914
 4143TIP3   OH233843   1.577   2.687  12.537
 4143TIP3    H133844   1.573   2.598  12.501
 4143TIP3    H233845   1.536   2.679  12.623
 4144TIP3   OH233846   0.095   2.898  12.966
 4144TIP3    H133847   0.102   2.895  12.871
 4144TIP3    H233848   0.176   2.858  12.997
 4145TIP3   OH233849   1.665   2.865  13.514
 4145TIP3    H133850   1.726   2.793  13.502
 4145TIP3    H233851   1.690   2.929  13.448
 4146TIP3   OH233852   1.814   2.633  13.504
 4146TIP3    H133853   1.725   2.598  13.513
 4146TIP3    H233854   1.871   2.561  13.530
 4147TIP3   OH233855   1.589   2.274  11.847
 4147TIP3    H133856   1.635   2.219  11.910
 4147TIP3    H233857   1.500   2.239  11.846
 4148TIP3   OH233858   1.568   2.444  12.365
 4148TIP3    H133859   1.595   2.352  12.370
 4148TIP3    H233860   1.635   2.486  12.311
 4149TIP3   OH233861   1.598   2.473  12.932
 4149TIP3    H133862   1.690   2.484  12.910
 4149TIP3    H233863   1.593   2.489  13.026
 4150TIP3   OH233864   1.625   2.558  13.200
 4150TIP3    H133865   1.543   2.591  13.238
 4150TIP3    H233866   1.677   2.637  13.184
 4151TIP3   OH233867   0.079   2.442  13.587
 4151TIP3    H133868   0.152   2.389  13.620
 4151TIP3    H233869   0.042   2.391  13.515
 4152TIP3   OH233870   1.861   1.982  13.723
 4152TIP3    H133871   1.923   1.919  13.686
 4152TIP3    H233872   1.852   2.049  13.655
 4153TIP3   OH233873   1.625   2.171  12.388
 4153TIP3    H133874   1.642   2.130  12.472
 4153TIP3    H233875   1.560   2.114  12.346
 4154TIP3   OH233876   0.181   2.254  12.837
 4154TIP3    H133877   0.213   2.164  12.838
 4154TIP3    H233878   0.259   2.307  12.851
 4155TIP3   OH233879   0.022   2.619  12.968
 4155TIP3    H133880   0.088   2.597  12.904
 4155TIP3    H233881   0.027   2.714  12.978
 4156TIP3   OH233882   1.786   2.161  13.531
 4156TIP3    H133883   1.705   2.209  13.552
 4156TIP3    H233884   1.763   2.108  13.455
 4157TIP3   OH233885   1.765   2.148  12.027
 4157TIP3    H133886   1.816   2.090  11.970
 4157TIP3    H233887   1.829   2.209  12.063
 4158TIP3   OH233888   0.138   2.153  12.281
 4158TIP3    H133889   0.066   2.147  12.344
 4158TIP3    H233890   0.117   2.230  12.228
 4159TIP3   OH233891   1.507   3.679  12.556
 4159TIP3    H133892   1.576   3.669  12.491
 4159TIP3    H233893   1.548   3.726  12.628
 4160TIP3   OH233894   7.321   2.030  13.245
 4160TIP3    H133895   7.276   1.947  13.259
 4160TIP3    H233896   7.274   2.070  13.171
 4161TIP3   OH233897   0.227   3.412  13.551
 4161TIP3    H133898   0.229   3.350  13.479
 4161TIP3    H233899   0.169   3.373  13.615
 4162TIP3   OH233900   0.572   3.476  13.233
 4162TIP3    H133901   0.540   3.561  13.202
 4162TIP3    H233902   0.666   3.476  13.212
 4163TIP3   OH233903   0.943   3.595  13.515
 4163TIP3    H133904   0.957   3.565  13.605
 4163TIP3    H233905   1.022   3.644  13.494
 4164TIP3   OH233906   1.175   3.734  13.467
 4164TIP3    H133907   1.235   3.685  13.410
 4164TIP3    H233908   1.229   3.761  13.541
 4165TIP3   OH233909   1.695   1.960  13.350
 4165TIP3    H133910   1.624   1.980  13.289
 4165TIP3    H233911   1.719   1.870  13.331
 4166TIP3   OH233912   0.284   3.765  13.263
 4166TIP3    H133913   0.202   3.803  13.229
 4166TIP3    H233914   0.302   3.816  13.342
 4167TIP3   OH233915   0.536   3.739  13.157
 4167TIP3    H133916   0.445   3.749  13.185
 4167TIP3    H233917   0.541   3.786  13.073
 4168TIP3   OH233918   0.981   3.721  13.066
 4168TIP3    H133919   0.934   3.754  12.989
 4168TIP3    H233920   0.993   3.798  13.122
 4169TIP3   OH233921   1.207   3.604  13.176
 4169TIP3    H133922   1.130   3.640  13.131
 4169TIP3    H233923   1.279   3.660  13.149
 4170TIP3   OH233924   1.451   3.741  13.156
 4170TIP3    H133925   1.472   3.832  13.138
 4170TIP3    H233926   1.493   3.692  13.084
 4171TIP3   OH233927   0.229   3.641  12.906
 4171TIP3    H133928   0.223   3.600  12.992
 4171TIP3    H233929   0.302   3.597  12.863
 4172TIP3   OH233930   0.441   3.509  12.798
 4172TIP3    H133931   0.425   3.418  12.824
 4172TIP3    H233932   0.528   3.528  12.831
 4173TIP3   OH233933   0.702   3.536  12.907
 4173TIP3    H133934   0.711   3.447  12.875
 4173TIP3    H233935   0.736   3.534  12.997
 4174TIP3   OH233936   1.036   2.104  12.804
 4174TIP3    H133937   0.974   2.033  12.820
 4174TIP3    H233938   1.109   2.062  12.759
 4175TIP3   OH233939   1.526   1.955  12.812
 4175TIP3    H133940   1.587   2.004  12.756
 4175TIP3    H233941   1.439   1.981  12.781
 4176TIP3   OH233942   1.705   2.042  12.622
 4176TIP3    H133943   1.769   1.977  12.593
 4176TIP3    H233944   1.757   2.121  12.639
 4177TIP3   OH233945   0.314   1.966  12.556
 4177TIP3    H133946   0.226   1.959  12.518
 4177TIP3    H233947   0.353   1.880  12.543
 4178TIP3   OH233948   0.225   1.938  12.136
 4178TIP3    H133949   0.273   1.986  12.068
 4178TIP3    H233950   0.194   2.006  12.196
 4179TIP3   OH233951   0.754   1.932  12.574
 4179TIP3    H133952   0.825   1.979  12.530
 4179TIP3    H233953   0.778   1.935  12.666
 4180TIP3   OH233954   1.263   1.979  12.702
 4180TIP3    H133955   1.293   1.962  12.613
 4180TIP3    H233956   1.238   1.893  12.736
 4181TIP3   OH233957   1.422   2.003  12.293
 4181TIP3    H133958   1.345   2.057  12.307
 4181TIP3    H233959   1.392   1.913  12.306
 4182TIP3   OH233960   0.101   3.606  12.247
 4182TIP3    H133961   0.053   3.567  12.174
 4182TIP3    H233962   0.150   3.678  12.208
 4183TIP3   OH233963   0.379   2.119  11.981
 4183TIP3    H133964   0.438   2.073  11.922
 4183TIP3    H233965   0.437   2.154  12.049
 4184TIP3   OH233966   0.826   2.204  12.242
 4184TIP3    H133967   0.859   2.129  12.292
 4184TIP3    H233968   0.849   2.280  12.295
 4185TIP3   OH233969   1.040   3.668  12.070
 4185TIP3    H133970   1.134   3.685  12.060
 4185TIP3    H233971   1.017   3.615  11.993
 4186TIP3   OH233972   1.701   3.647  12.360
 4186TIP3    H133973   1.684   3.558  12.328
 4186TIP3    H233974   1.687   3.703  12.283
 4187TIP3   OH233975   0.310   2.086  13.504
 4187TIP3    H133976   0.258   2.006  13.495
 4187TIP3    H233977   0.390   2.057  13.548
 4188TIP3   OH233978   0.505   1.984  13.676
 4188TIP3    H133979   0.584   1.947  13.636
 4188TIP3    H233980   0.457   1.908  13.710
 4189TIP3   OH233981   0.369   3.659  11.928
 4189TIP3    H133982   0.350   3.665  12.022
 4189TIP3    H233983   0.439   3.595  11.921
 4190TIP3   OH233984   1.339   1.918  13.690
 4190TIP3    H133985   1.328   1.869  13.772
 4190TIP3    H233986   1.432   1.907  13.668
 4191TIP3   OH233987   1.601   3.512  13.570
 4191TIP3    H133988   1.545   3.505  13.493
 4191TIP3    H233989   1.601   3.605  13.591
 4192TIP3   OH233990   3.078   2.919  12.539
 4192TIP3    H133991   3.072   3.013  12.526
 4192TIP3    H233992   3.011   2.882  12.481
 4193TIP3   OH233993   2.989   2.838  12.939
 4193TIP3    H133994   3.003   2.784  13.017
 4193TIP3    H233995   2.932   2.785  12.883
 4194TIP3   OH233996   2.179   2.768  13.064
 4194TIP3    H133997   2.191   2.695  13.124
 4194TIP3    H233998   2.267   2.787  13.031
 4195TIP3   OH233999   3.350   3.140  12.765
 4195TIP3    H134000   3.312   3.064  12.809
 4195TIP3    H234001   3.366   3.204  12.834
 4196TIP3   OH234002   2.275   3.235  12.880
 4196TIP3    H134003   2.254   3.147  12.848
 4196TIP3    H234004   2.370   3.235  12.889
 4197TIP3   OH234005   1.963   2.576  12.405
 4197TIP3    H134006   1.930   2.661  12.434
 4197TIP3    H234007   1.902   2.548  12.336
 4198TIP3   OH234008   2.017   2.812  12.698
 4198TIP3    H134009   2.048   2.723  12.712
 4198TIP3    H234010   2.097   2.866  12.699
 4199TIP3   OH234011   3.032   3.605  12.799
 4199TIP3    H134012   3.084   3.552  12.739
 4199TIP3    H234013   2.971   3.543  12.839
 4200TIP3   OH234014   2.812   3.067  12.988
 4200TIP3    H134015   2.876   3.015  12.940
 4200TIP3    H234016   2.830   3.158  12.961
 4201TIP3   OH234017   3.679   2.230  13.036
 4201TIP3    H134018   3.697   2.295  13.104
 4201TIP3    H234019   3.742   2.251  12.967
 4202TIP3   OH234020   3.121   2.499  12.954
 4202TIP3    H134021   3.135   2.404  12.962
 4202TIP3    H234022   3.102   2.513  12.862
 4203TIP3   OH234023   2.465   2.304  12.681
 4203TIP3    H134024   2.471   2.388  12.637
 4203TIP3    H234025   2.414   2.249  12.621
 4204TIP3   OH234026   3.238   2.347  12.531
 4204TIP3    H134027   3.284   2.312  12.607
 4204TIP3    H234028   3.307   2.386  12.477
 4205TIP3   OH234029   2.101   2.556  12.763
 4205TIP3    H134030   2.167   2.513  12.818
 4205TIP3    H234031   2.119   2.522  12.675
 4206TIP3   OH234032   2.574   2.704  12.739
 4206TIP3    H134033   2.661   2.672  12.762
 4206TIP3    H234034   2.541   2.639  12.677
 4207TIP3   OH234035   3.723   2.387  13.259
 4207TIP3    H134036   3.648   2.447  13.250
 4207TIP3    H234037   3.753   2.400  13.349
 4208TIP3   OH234038   2.323   2.226  13.105
 4208TIP3    H134039   2.301   2.282  13.030
 4208TIP3    H234040   2.251   2.238  13.166
 4209TIP3   OH234041   3.060   3.173  12.427
 4209TIP3    H134042   3.037   3.165  12.335
 4209TIP3    H234043   3.013   3.251  12.457
 4210TIP3   OH234044   2.572   2.996  13.093
 4210TIP3    H134045   2.525   3.073  13.124
 4210TIP3    H234046   2.651   3.031  13.053
 4211TIP3   OH234047   3.346   2.284  12.776
 4211TIP3    H134048   3.280   2.251  12.837
 4211TIP3    H234049   3.399   2.344  12.829
 4212TIP3   OH234050   2.297   2.392  12.885
 4212TIP3    H134051   2.354   2.449  12.935
 4212TIP3    H234052   2.353   2.355  12.816
 4213TIP3   OH234053   2.428   3.207  13.203
 4213TIP3    H134054   2.437   3.301  13.186
 4213TIP3    H234055   2.337   3.195  13.228
 4214TIP3   OH234056   2.004   3.176  12.281
 4214TIP3    H134057   1.999   3.216  12.194
 4214TIP3    H234058   2.030   3.247  12.339
 4215TIP3   OH234059   3.385   3.345  12.966
 4215TIP3    H134060   3.292   3.345  12.989
 4215TIP3    H234061   3.404   3.435  12.942
 4216TIP3   OH234062   3.422   2.135  13.118
 4216TIP3    H134063   3.354   2.172  13.062
 4216TIP3    H234064   3.504   2.162  13.076
 4217TIP3   OH234065   2.685   1.916  12.858
 4217TIP3    H134066   2.656   1.824  12.853
 4217TIP3    H234067   2.607   1.964  12.884
 4218TIP3   OH234068   3.194   3.506  12.593
 4218TIP3    H134069   3.234   3.420  12.576
 4218TIP3    H234070   3.268   3.566  12.592
 4219TIP3   OH234071   3.309   3.270  12.523
 4219TIP3    H134072   3.241   3.219  12.478
 4219TIP3    H234073   3.333   3.216  12.599
 4220TIP3   OH234074   3.499   3.113  13.322
 4220TIP3    H134075   3.481   3.059  13.245
 4220TIP3    H234076   3.508   3.202  13.287
 4221TIP3   OH234077   2.932   2.830  12.319
 4221TIP3    H134078   2.864   2.891  12.290
 4221TIP3    H234079   2.998   2.833  12.250
 4222TIP3   OH234080   2.962   2.706  11.974
 4222TIP3    H134081   3.017   2.732  12.048
 4222TIP3    H234082   3.016   2.644  11.924
 4223TIP3   OH234083   3.658   2.783  13.148
 4223TIP3    H134084   3.585   2.843  13.136
 4223TIP3    H234085   3.720   2.807  13.079
 4224TIP3   OH234086   3.298   2.859  12.387
 4224TIP3    H134087   3.229   2.880  12.450
 4224TIP3    H234088   3.363   2.810  12.437
 4225TIP3   OH234089   3.259   2.648  13.340
 4225TIP3    H134090   3.251   2.722  13.400
 4225TIP3    H234091   3.196   2.667  13.270
 4226TIP3   OH234092   2.440   2.900  12.583
 4226TIP3    H134093   2.418   2.862  12.498
 4226TIP3    H234094   2.494   2.833  12.626
 4227TIP3   OH234095   2.549   3.263  12.849
 4227TIP3    H134096   2.553   3.280  12.755
 4227TIP3    H234097   2.638   3.278  12.880
 4228TIP3   OH234098   2.433   2.806  12.955
 4228TIP3    H134099   2.486   2.780  12.880
 4228TIP3    H234100   2.485   2.873  12.999
 4229TIP3   OH234101   3.125   3.345  13.051
 4229TIP3    H134102   3.043   3.357  13.004
 4229TIP3    H234103   3.114   3.261  13.096
 4230TIP3   OH234104   2.580   3.226  13.434
 4230TIP3    H134105   2.518   3.290  13.470
 4230TIP3    H234106   2.541   3.202  13.349
 4231TIP3   OH234107   3.161   2.786  12.158
 4231TIP3    H134108   3.212   2.819  12.232
 4231TIP3    H234109   3.212   2.810  12.081
 4232TIP3   OH234110   2.249   2.803  13.403
 4232TIP3    H134111   2.263   2.890  13.439
 4232TIP3    H234112   2.161   2.806  13.366
 4233TIP3   OH234113   2.953   3.424  12.483
 4233TIP3    H134114   3.024   3.457  12.537
 4233TIP3    H234115   2.912   3.502  12.447
 4234TIP3   OH234116   2.385   3.414  13.498
 4234TIP3    H134117   2.392   3.443  13.408
 4234TIP3    H234118   2.291   3.405  13.514
 4235TIP3   OH234119   3.536   1.930  12.157
 4235TIP3    H134120   3.446   1.952  12.183
 4235TIP3    H234121   3.569   2.010  12.117
 4236TIP3   OH234122   2.360   2.809  12.327
 4236TIP3    H134123   2.301   2.874  12.288
 4236TIP3    H234124   2.319   2.725  12.308
 4237TIP3   OH234125   3.668   3.368  12.016
 4237TIP3    H134126   3.684   3.462  12.012
 4237TIP3    H234127   3.755   3.329  12.010
 4238TIP3   OH234128   1.953   3.062  13.248
 4238TIP3    H134129   1.904   3.071  13.167
 4238TIP3    H234130   1.968   2.968  13.257
 4239TIP3   OH234131   1.974   3.321  12.919
 4239TIP3    H134132   2.065   3.294  12.904
 4239TIP3    H234133   1.980   3.379  12.995
 4240TIP3   OH234134   3.751   3.424  13.524
 4240TIP3    H134135   3.742   3.330  13.508
 4240TIP3    H234136   3.664   3.452  13.552
 4241TIP3   OH234137   2.836   3.329  13.415
 4241TIP3    H134138   2.829   3.423  13.430
 4241TIP3    H234139   2.746   3.298  13.412
 4242TIP3   OH234140   2.915   3.698  12.359
 4242TIP3    H134141   2.892   3.702  12.266
 4242TIP3    H234142   2.882   3.780  12.395
 4243TIP3   OH234143   2.254   3.591  12.556
 4243TIP3    H134144   2.278   3.557  12.642
 4243TIP3    H234145   2.201   3.522  12.517
 4244TIP3   OH234146   3.200   3.659  12.045
 4244TIP3    H134147   3.246   3.586  12.004
 4244TIP3    H234148   3.211   3.645  12.139
 4245TIP3   OH234149   3.181   3.638  12.323
 4245TIP3    H134150   3.088   3.651  12.340
 4245TIP3    H234151   3.207   3.570  12.386
 4246TIP3   OH234152   3.436   2.535  13.537
 4246TIP3    H134153   3.382   2.569  13.466
 4246TIP3    H234154   3.450   2.443  13.514
 4247TIP3   OH234155   2.174   3.212  13.313
 4247TIP3    H134156   2.203   3.169  13.393
 4247TIP3    H234157   2.097   3.163  13.285
 4248TIP3   OH234158   2.436   2.026  12.941
 4248TIP3    H134159   2.362   2.015  12.881
 4248TIP3    H234160   2.410   2.099  12.998
 4249TIP3   OH234161   2.904   2.018  13.290
 4249TIP3    H134162   2.946   1.955  13.348
 4249TIP3    H234163   2.811   2.002  13.299
 4250TIP3   OH234164   3.194   2.375  13.384
 4250TIP3    H134165   3.135   2.370  13.459
 4250TIP3    H234166   3.201   2.469  13.365
 4251TIP3   OH234167   3.311   2.840  11.940
 4251TIP3    H134168   3.288   2.846  11.847
 4251TIP3    H234169   3.404   2.861  11.943
 4252TIP3   OH234170   2.867   2.236  12.013
 4252TIP3    H134171   2.805   2.238  12.086
 4252TIP3    H234172   2.830   2.172  11.952
 4253TIP3   OH234173   2.445   2.548  13.060
 4253TIP3    H134174   2.379   2.548  13.129
 4253TIP3    H234175   2.447   2.639  13.029
 4254TIP3   OH234176   2.446   2.544  12.551
 4254TIP3    H134177   2.352   2.533  12.545
 4254TIP3    H234178   2.478   2.530  12.462
 4255TIP3   OH234179   2.989   2.583  12.428
 4255TIP3    H134180   2.962   2.669  12.395
 4255TIP3    H234181   3.056   2.553  12.367
 4256TIP3   OH234182   2.911   2.592  13.533
 4256TIP3    H134183   2.856   2.528  13.577
 4256TIP3    H234184   2.992   2.594  13.585
 4257TIP3   OH234185   3.086   2.524  12.684
 4257TIP3    H134186   3.042   2.573  12.614
 4257TIP3    H234187   3.129   2.451  12.638
 4258TIP3   OH234188   2.233   2.552  13.236
 4258TIP3    H134189   2.233   2.598  13.320
 4258TIP3    H234190   2.192   2.467  13.254
 4259TIP3   OH234191   2.553   2.294  11.912
 4259TIP3    H134192   2.513   2.273  11.997
 4259TIP3    H234193   2.491   2.353  11.870
 4260TIP3   OH234194   1.881   2.246  12.635
 4260TIP3    H134195   1.947   2.255  12.703
 4260TIP3    H234196   1.931   2.234  12.554
 4261TIP3   OH234197   1.938   2.337  12.141
 4261TIP3    H134198   2.008   2.374  12.088
 4261TIP3    H234199   1.880   2.411  12.160
 4262TIP3   OH234200   3.051   2.667  13.154
 4262TIP3    H134201   3.082   2.610  13.083
 4262TIP3    H234202   2.976   2.620  13.191
 4263TIP3   OH234203   2.752   2.273  12.648
 4263TIP3    H134204   2.660   2.273  12.677
 4263TIP3    H234205   2.800   2.235  12.721
 4264TIP3   OH234206   2.185   2.458  12.521
 4264TIP3    H134207   2.111   2.486  12.468
 4264TIP3    H234208   2.204   2.369  12.491
 4265TIP3   OH234209   2.513   2.478  12.293
 4265TIP3    H134210   2.608   2.466  12.303
 4265TIP3    H234211   2.503   2.517  12.207
 4266TIP3   OH234212   3.138   2.221  12.965
 4266TIP3    H134213   3.091   2.231  13.048
 4266TIP3    H234214   3.075   2.179  12.907
 4267TIP3   OH234215   2.466   2.575  12.040
 4267TIP3    H134216   2.413   2.544  11.967
 4267TIP3    H234217   2.543   2.615  11.999
 4268TIP3   OH234218   3.493   3.782  13.621
 4268TIP3    H134219   3.515   3.805  13.531
 4268TIP3    H234220   3.568   3.810  13.673
 4269TIP3   OH234221   2.249   3.051  13.544
 4269TIP3    H134222   2.316   3.046  13.612
 4269TIP3    H234223   2.166   3.054  13.592
 4270TIP3   OH234224   2.817   2.593  12.836
 4270TIP3    H134225   2.883   2.543  12.788
 4270TIP3    H234226   2.786   2.533  12.904
 4271TIP3   OH234227   2.294   2.194  12.483
 4271TIP3    H134228   2.241   2.118  12.506
 4271TIP3    H234229   2.334   2.171  12.398
 4272TIP3   OH234230   2.702   2.446  13.052
 4272TIP3    H134231   2.617   2.490  13.057
 4272TIP3    H234232   2.751   2.480  13.127
 4273TIP3   OH234233   2.736   3.017  12.242
 4273TIP3    H134234   2.665   2.979  12.190
 4273TIP3    H234235   2.695   3.042  12.325
 4274TIP3   OH234236   3.463   2.967  13.091
 4274TIP3    H134237   3.521   3.024  13.040
 4274TIP3    H234238   3.389   2.950  13.032
 4275TIP3   OH234239   3.118   2.278  12.108
 4275TIP3    H134240   3.030   2.275  12.070
 4275TIP3    H234241   3.131   2.370  12.131
 4276TIP3   OH234242   2.908   3.060  13.379
 4276TIP3    H134243   2.928   3.034  13.469
 4276TIP3    H234244   2.883   3.152  13.386
 4277TIP3   OH234245   3.189   2.519  12.241
 4277TIP3    H134246   3.279   2.505  12.270
 4277TIP3    H234247   3.190   2.606  12.201
 4278TIP3   OH234248   2.262   2.964  12.785
 4278TIP3    H134249   2.319   2.958  12.708
 4278TIP3    H234250   2.307   2.914  12.852
 4279TIP3   OH234251   2.950   3.168  12.167
 4279TIP3    H134252   2.917   3.258  12.172
 4279TIP3    H234253   2.875   3.113  12.190
 4280TIP3   OH234254   1.975   2.794  13.339
 4280TIP3    H134255   1.945   2.748  13.417
 4280TIP3    H234256   1.911   2.772  13.271
 4281TIP3   OH234257   2.695   2.778  13.566
 4281TIP3    H134258   2.626   2.745  13.508
 4281TIP3    H234259   2.775   2.736  13.534
 4282TIP3   OH234260   3.122   3.366  13.387
 4282TIP3    H134261   3.038   3.346  13.346
 4282TIP3    H234262   3.106   3.362  13.481
 4283TIP3   OH234263   3.653   2.556  12.198
 4283TIP3    H134264   3.609   2.536  12.115
 4283TIP3    H234265   3.682   2.647  12.188
 4284TIP3   OH234266   3.725   3.154  13.478
 4284TIP3    H134267   3.633   3.145  13.455
 4284TIP3    H234268   3.772   3.128  13.398
 4285TIP3   OH234269   3.533   3.396  12.262
 4285TIP3    H134270   3.477   3.322  12.289
 4285TIP3    H234271   3.567   3.370  12.177
 4286TIP3   OH234272   3.264   2.901  12.903
 4286TIP3    H134273   3.168   2.892  12.904
 4286TIP3    H234274   3.295   2.826  12.853
 4287TIP3   OH234275   2.521   3.336  12.580
 4287TIP3    H134276   2.552   3.421  12.548
 4287TIP3    H234277   2.431   3.329  12.546
 4288TIP3   OH234278   2.089   2.784  12.034
 4288TIP3    H134279   2.137   2.850  12.085
 4288TIP3    H234280   1.999   2.790  12.066
 4289TIP3   OH234281   2.603   3.095  12.464
 4289TIP3    H134282   2.597   3.177  12.513
 4289TIP3    H234283   2.549   3.033  12.514
 4290TIP3   OH234284   2.703   3.513  13.159
 4290TIP3    H134285   2.758   3.591  13.154
 4290TIP3    H234286   2.747   3.449  13.103
 4291TIP3   OH234287   2.517   3.598  12.469
 4291TIP3    H134288   2.425   3.610  12.492
 4291TIP3    H234289   2.561   3.676  12.503
 4292TIP3   OH234290   3.085   3.088  13.167
 4292TIP3    H134291   3.009   3.074  13.224
 4292TIP3    H234292   3.075   3.024  13.097
 4293TIP3   OH234293   3.298   3.218  12.034
 4293TIP3    H134294   3.321   3.171  12.114
 4293TIP3    H234295   3.211   3.186  12.010
 4294TIP3   OH234296   3.334   3.532  13.347
 4294TIP3    H134297   3.256   3.477  13.353
 4294TIP3    H234298   3.308   3.606  13.293
 4295TIP3   OH234299   3.715   3.641  12.031
 4295TIP3    H134300   3.748   3.704  11.967
 4295TIP3    H234301   3.641   3.686  12.073
 4296TIP3   OH234302   2.112   2.297  13.276
 4296TIP3    H134303   2.022   2.323  13.258
 4296TIP3    H234304   2.104   2.221  13.334
 4297TIP3   OH234305   3.401   3.082  12.251
 4297TIP3    H134306   3.356   3.014  12.300
 4297TIP3    H234307   3.494   3.063  12.264
 4298TIP3   OH234308   2.100   3.472  13.145
 4298TIP3    H134309   2.132   3.391  13.186
 4298TIP3    H234310   2.127   3.541  13.206
 4299TIP3   OH234311   2.669   3.309  11.887
 4299TIP3    H134312   2.677   3.224  11.842
 4299TIP3    H234313   2.630   3.288  11.971
 4300TIP3   OH234314   2.545   3.281  12.135
 4300TIP3    H134315   2.594   3.229  12.198
 4300TIP3    H234316   2.558   3.371  12.163
 4301TIP3   OH234317   2.194   2.990  12.194
 4301TIP3    H134318   2.125   3.037  12.239
 4301TIP3    H234319   2.241   3.057  12.144
 4302TIP3   OH234320   3.010   2.259  13.211
 4302TIP3    H134321   3.085   2.273  13.269
 4302TIP3    H234322   2.975   2.174  13.238
 4303TIP3   OH234323   3.091   2.177  12.363
 4303TIP3    H134324   3.096   2.213  12.275
 4303TIP3    H234325   3.135   2.242  12.419
 4304TIP3   OH234326   2.843   3.417  12.177
 4304TIP3    H134327   2.757   3.453  12.199
 4304TIP3    H234328   2.893   3.493  12.148
 4305TIP3   OH234329   2.771   2.413  12.408
 4305TIP3    H134330   2.845   2.473  12.412
 4305TIP3    H234331   2.763   2.377  12.496
 4306TIP3   OH234332   2.867   2.499  13.268
 4306TIP3    H134333   2.878   2.521  13.361
 4306TIP3    H234334   2.909   2.413  13.260
 4307TIP3   OH234335   2.847   2.086  12.459
 4307TIP3    H134336   2.822   2.157  12.518
 4307TIP3    H234337   2.933   2.111  12.426
 4308TIP3   OH234338   2.598   3.538  12.214
 4308TIP3    H134339   2.605   3.622  12.169
 4308TIP3    H234340   2.569   3.561  12.302
 4309TIP3   OH234341   2.441   2.234  12.165
 4309TIP3    H134342   2.439   2.318  12.210
 4309TIP3    H234343   2.528   2.199  12.184
 4310TIP3   OH234344   3.451   2.282  13.400
 4310TIP3    H134345   3.358   2.301  13.391
 4310TIP3    H234346   3.478   2.251  13.314
 4311TIP3   OH234347   3.330   2.653  12.777
 4311TIP3    H134348   3.244   2.615  12.756
 4311TIP3    H234349   3.371   2.590  12.836
 4312TIP3   OH234350   2.296   3.203  12.038
 4312TIP3    H134351   2.370   3.248  12.080
 4312TIP3    H234352   2.336   3.147  11.972
 4313TIP3   OH234353   2.080   2.509  11.983
 4313TIP3    H134354   2.098   2.600  12.007
 4313TIP3    H234355   2.058   2.513  11.890
 4314TIP3   OH234356   3.456   3.618  12.957
 4314TIP3    H134357   3.437   3.692  12.899
 4314TIP3    H234358   3.551   3.619  12.967
 4315TIP3   OH234359   2.184   2.000  12.823
 4315TIP3    H134360   2.175   1.991  12.728
 4315TIP3    H234361   2.149   1.918  12.858
 4316TIP3   OH234362   2.070   3.409  12.439
 4316TIP3    H134363   2.010   3.436  12.509
 4316TIP3    H234364   2.056   3.472  12.369
 4317TIP3   OH234365   2.037   3.686  13.618
 4317TIP3    H134366   2.106   3.662  13.680
 4317TIP3    H234367   2.013   3.603  13.576
 4318TIP3   OH234368   2.463   3.504  13.744
 4318TIP3    H134369   2.544   3.458  13.762
 4318TIP3    H234370   2.439   3.478  13.655
 4319TIP3   OH234371   2.879   3.490  11.869
 4319TIP3    H134372   2.812   3.423  11.883
 4319TIP3    H234373   2.955   3.441  11.837
 4320TIP3   OH234374   3.095   3.380  13.665
 4320TIP3    H134375   3.088   3.293  13.703
 4320TIP3    H234376   3.177   3.416  13.698
 4321TIP3   OH234377   3.324   3.459  11.907
 4321TIP3    H134378   3.330   3.377  11.956
 4321TIP3    H234379   3.399   3.457  11.847
 4322TIP3   OH234380   2.002   3.061  13.678
 4322TIP3    H134381   2.006   2.966  13.672
 4322TIP3    H234382   1.933   3.087  13.617
 4323TIP3   OH234383   2.430   3.024  11.883
 4323TIP3    H134384   2.454   2.973  11.960
 4323TIP3    H234385   2.512   3.037  11.836
 4324TIP3   OH234386   2.661   3.056  13.632
 4324TIP3    H134387   2.644   3.103  13.551
 4324TIP3    H234388   2.688   2.968  13.604
 4325TIP3   OH234389   3.048   3.159  11.910
 4325TIP3    H134390   3.003   3.154  11.995
 4325TIP3    H234391   3.028   3.075  11.867
 4326TIP3   OH234392   3.236   3.060  13.409
 4326TIP3    H134393   3.322   3.098  13.389
 4326TIP3    H234394   3.180   3.089  13.337
 4327TIP3   OH234395   2.077   2.797  13.653
 4327TIP3    H134396   2.152   2.761  13.605
 4327TIP3    H234397   2.095   2.778  13.745
 4328TIP3   OH234398   2.531   2.888  12.106
 4328TIP3    H134399   2.484   2.841  12.175
 4328TIP3    H234400   2.579   2.820  12.058
 4329TIP3   OH234401   2.502   2.671  13.387
 4329TIP3    H134402   2.421   2.722  13.382
 4329TIP3    H234403   2.559   2.710  13.321
 4330TIP3   OH234404   2.682   2.719  11.943
 4330TIP3    H134405   2.679   2.744  11.850
 4330TIP3    H234406   2.775   2.706  11.961
 4331TIP3   OH234407   3.008   2.915  13.681
 4331TIP3    H134408   3.078   2.876  13.630
 4331TIP3    H234409   2.974   2.844  13.736
 4332TIP3   OH234410   3.578   2.907  11.899
 4332TIP3    H134411   3.579   2.884  11.806
 4332TIP3    H234412   3.569   3.002  11.900
 4333TIP3   OH234413   2.546   2.408  13.454
 4333TIP3    H134414   2.552   2.351  13.377
 4333TIP3    H234415   2.533   2.495  13.418
 4334TIP3   OH234416   2.572   2.250  13.219
 4334TIP3    H134417   2.625   2.296  13.154
 4334TIP3    H234418   2.485   2.244  13.179
 4335TIP3   OH234419   2.689   2.792  13.232
 4335TIP3    H134420   2.782   2.814  13.236
 4335TIP3    H234421   2.649   2.864  13.183
 4336TIP3   OH234422   3.140   2.561  13.695
 4336TIP3    H134423   3.158   2.467  13.691
 4336TIP3    H234424   3.226   2.602  13.684
 4337TIP3   OH234425   3.273   2.839  13.554
 4337TIP3    H134426   3.247   2.919  13.509
 4337TIP3    H234427   3.368   2.837  13.547
 4338TIP3   OH234428   2.378   2.461  13.678
 4338TIP3    H134429   2.296   2.414  13.666
 4338TIP3    H234430   2.423   2.453  13.594
 4339TIP3   OH234431   2.629   1.984  13.284
 4339TIP3    H134432   2.607   2.075  13.262
 4339TIP3    H234433   2.562   1.932  13.240
 4340TIP3   OH234434   2.761   2.384  13.627
 4340TIP3    H134435   2.718   2.355  13.708
 4340TIP3    H234436   2.691   2.388  13.562
 4341TIP3   OH234437   3.022   2.287  13.587
 4341TIP3    H134438   2.939   2.325  13.615
 4341TIP3    H234439   2.998   2.205  13.545
 4342TIP3   OH234440   3.238   2.151  13.793
 4342TIP3    H134441   3.187   2.168  13.714
 4342TIP3    H234442   3.199   2.209  13.860
 4343TIP3   OH234443   2.168   2.271  13.645
 4343TIP3    H134444   2.170   2.193  13.590
 4343TIP3    H234445   2.179   2.238  13.735
 4344TIP3   OH234446   2.618   1.901  13.547
 4344TIP3    H134447   2.671   1.822  13.542
 4344TIP3    H234448   2.614   1.933  13.457
 4345TIP3   OH234449   2.701   2.062  13.754
 4345TIP3    H134450   2.675   2.008  13.680
 4345TIP3    H234451   2.639   2.136  13.753
 4346TIP3   OH234452   2.672   3.777  12.090
 4346TIP3    H134453   2.762   3.744  12.080
 4346TIP3    H234454   2.663   3.841  12.020
 4347TIP3   OH234455   2.027   3.241  11.998
 4347TIP3    H134456   2.121   3.236  12.014
 4347TIP3    H234457   2.010   3.170  11.936
 4348TIP3   OH234458   1.893   3.734  12.537
 4348TIP3    H134459   1.837   3.704  12.465
 4348TIP3    H234460   1.911   3.656  12.589
 4349TIP3   OH234461   1.960   3.514  12.693
 4349TIP3    H134462   1.925   3.438  12.739
 4349TIP3    H234463   2.009   3.562  12.760
 4350TIP3   OH234464   3.724   3.639  13.017
 4350TIP3    H134465   3.732   3.625  13.111
 4350TIP3    H234466   3.813   3.658  12.987
 4351TIP3   OH234467   3.695   3.568  13.289
 4351TIP3    H134468   3.632   3.506  13.251
 4351TIP3    H234469   3.732   3.520  13.364
 4352TIP3   OH234470   3.532   3.172  13.777
 4352TIP3    H134471   3.447   3.182  13.820
 4352TIP3    H234472   3.583   3.246  13.809
 4353TIP3   OH234473   3.666   3.006  12.307
 4353TIP3    H134474   3.739   3.068  12.309
 4353TIP3    H234475   3.685   2.944  12.376
 4354TIP3   OH234476   3.715   2.798  12.490
 4354TIP3    H134477   3.627   2.771  12.516
 4354TIP3    H234478   3.760   2.814  12.573
 4355TIP3   OH234479   3.697   3.099  13.008
 4355TIP3    H134480   3.747   3.028  12.966
 4355TIP3    H234481   3.722   3.178  12.960
 4356TIP3   OH234482   3.512   3.370  13.213
 4356TIP3    H134483   3.442   3.421  13.253
 4356TIP3    H234484   3.481   3.354  13.123
 4357TIP3   OH234485   3.719   2.813  12.116
 4357TIP3    H134486   3.671   2.836  12.036
 4357TIP3    H234487   3.695   2.882  12.178
 4358TIP3   OH234488   3.548   2.516  11.951
 4358TIP3    H134489   3.548   2.576  11.876
 4358TIP3    H234490   3.521   2.432  11.915
 4359TIP3   OH234491   3.464   2.689  12.537
 4359TIP3    H134492   3.452   2.604  12.496
 4359TIP3    H234493   3.421   2.681  12.622
 4360TIP3   OH234494   1.949   2.864  12.957
 4360TIP3    H134495   1.959   2.851  12.863
 4360TIP3    H234496   2.034   2.840  12.995
 4361TIP3   OH234497   3.544   2.869  13.513
 4361TIP3    H134498   3.609   2.801  13.493
 4361TIP3    H234499   3.557   2.934  13.443
 4362TIP3   OH234500   3.691   2.636  13.501
 4362TIP3    H134501   3.603   2.602  13.517
 4362TIP3    H234502   3.749   2.562  13.520
 4363TIP3   OH234503   3.469   2.273  11.856
 4363TIP3    H134504   3.510   2.211  11.916
 4363TIP3    H234505   3.379   2.242  11.847
 4364TIP3   OH234506   3.447   2.454  12.367
 4364TIP3    H134507   3.466   2.360  12.365
 4364TIP3    H234508   3.515   2.493  12.312
 4365TIP3   OH234509   3.479   2.471  12.935
 4365TIP3    H134510   3.571   2.484  12.913
 4365TIP3    H234511   3.474   2.488  13.029
 4366TIP3   OH234512   3.505   2.559  13.205
 4366TIP3    H134513   3.423   2.595  13.239
 4366TIP3    H234514   3.559   2.636  13.187
 4367TIP3   OH234515   1.939   2.392  13.549
 4367TIP3    H134516   2.025   2.366  13.581
 4367TIP3    H234517   1.886   2.312  13.555
 4368TIP3   OH234518   3.730   1.989  13.732
 4368TIP3    H134519   3.781   1.911  13.711
 4368TIP3    H234520   3.741   2.046  13.656
 4369TIP3   OH234521   3.484   2.179  12.387
 4369TIP3    H134522   3.504   2.140  12.471
 4369TIP3    H234523   3.420   2.120  12.347
 4370TIP3   OH234524   2.052   2.242  12.859
 4370TIP3    H134525   2.091   2.155  12.854
 4370TIP3    H234526   2.126   2.301  12.869
 4371TIP3   OH234527   1.868   2.532  12.922
 4371TIP3    H134528   1.934   2.522  12.853
 4371TIP3    H234529   1.902   2.602  12.978
 4372TIP3   OH234530   3.670   2.152  13.514
 4372TIP3    H134531   3.590   2.204  13.507
 4372TIP3    H234532   3.666   2.089  13.443
 4373TIP3   OH234533   3.658   2.140  12.028
 4373TIP3    H134534   3.699   2.090  11.958
 4373TIP3    H234535   3.717   2.215  12.040
 4374TIP3   OH234536   1.917   2.163  12.351
 4374TIP3    H134537   1.821   2.157  12.357
 4374TIP3    H234538   1.933   2.227  12.282
 4375TIP3   OH234539   3.399   3.682  12.564
 4375TIP3    H134540   3.460   3.665  12.492
 4375TIP3    H234541   3.452   3.717  12.635
 4376TIP3   OH234542   1.922   2.016  13.187
 4376TIP3    H134543   1.848   2.002  13.246
 4376TIP3    H234544   1.890   2.080  13.123
 4377TIP3   OH234545   2.122   3.395  13.590
 4377TIP3    H134546   2.034   3.394  13.552
 4377TIP3    H234547   2.117   3.334  13.664
 4378TIP3   OH234548   2.445   3.486  13.237
 4378TIP3    H134549   2.420   3.573  13.207
 4378TIP3    H234550   2.540   3.482  13.223
 4379TIP3   OH234551   2.820   3.598  13.531
 4379TIP3    H134552   2.844   3.568  13.619
 4379TIP3    H234553   2.897   3.644  13.499
 4380TIP3   OH234554   3.045   3.737  13.452
 4380TIP3    H134555   3.087   3.697  13.376
 4380TIP3    H234556   3.116   3.751  13.515
 4381TIP3   OH234557   3.580   1.946  13.339
 4381TIP3    H134558   3.503   1.952  13.282
 4381TIP3    H234559   3.614   1.858  13.324
 4382TIP3   OH234560   2.154   3.771  13.252
 4382TIP3    H134561   2.076   3.815  13.216
 4382TIP3    H234562   2.169   3.816  13.335
 4383TIP3   OH234563   2.410   3.745  13.153
 4383TIP3    H134564   2.318   3.759  13.177
 4383TIP3    H234565   2.419   3.791  13.069
 4384TIP3   OH234566   2.859   3.733  13.090
 4384TIP3    H134567   2.833   3.756  13.000
 4384TIP3    H234568   2.869   3.817  13.134
 4385TIP3   OH234569   3.101   3.633  13.192
 4385TIP3    H134570   3.018   3.661  13.155
 4385TIP3    H234571   3.129   3.560  13.136
 4386TIP3   OH234572   3.397   3.774  13.183
 4386TIP3    H134573   3.381   3.860  13.146
 4386TIP3    H234574   3.402   3.716  13.107
 4387TIP3   OH234575   2.114   3.624  12.912
 4387TIP3    H134576   2.110   3.575  12.995
 4387TIP3    H234577   2.194   3.592  12.869
 4388TIP3   OH234578   2.334   3.502  12.805
 4388TIP3    H134579   2.322   3.410  12.829
 4388TIP3    H234580   2.425   3.521  12.827
 4389TIP3   OH234581   2.598   3.571  12.895
 4389TIP3    H134582   2.667   3.511  12.866
 4389TIP3    H234583   2.597   3.562  12.990
 4390TIP3   OH234584   2.919   2.104  12.811
 4390TIP3    H134585   2.853   2.035  12.823
 4390TIP3    H234586   2.990   2.062  12.762
 4391TIP3   OH234587   3.413   1.950  12.790
 4391TIP3    H134588   3.468   2.014  12.745
 4391TIP3    H234589   3.323   1.976  12.769
 4392TIP3   OH234590   3.599   2.070  12.617
 4392TIP3    H134591   3.655   1.996  12.591
 4392TIP3    H234592   3.660   2.142  12.632
 4393TIP3   OH234593   2.148   1.966  12.551
 4393TIP3    H134594   2.056   1.949  12.528
 4393TIP3    H234595   2.192   1.883  12.536
 4394TIP3   OH234596   2.057   1.983  12.176
 4394TIP3    H134597   2.100   2.048  12.120
 4394TIP3    H234598   2.011   2.035  12.242
 4395TIP3   OH234599   2.636   1.935  12.572
 4395TIP3    H134600   2.706   1.982  12.526
 4395TIP3    H234601   2.664   1.935  12.663
 4396TIP3   OH234602   3.143   1.978  12.701
 4396TIP3    H134603   3.154   1.966  12.607
 4396TIP3    H234604   3.120   1.892  12.734
 4397TIP3   OH234605   3.299   2.000  12.290
 4397TIP3    H134606   3.220   2.052  12.301
 4397TIP3    H234607   3.269   1.909  12.300
 4398TIP3   OH234608   2.033   3.590  12.239
 4398TIP3    H134609   1.957   3.575  12.182
 4398TIP3    H234610   2.054   3.682  12.227
 4399TIP3   OH234611   2.230   2.135  12.006
 4399TIP3    H134612   2.256   2.048  11.978
 4399TIP3    H234613   2.302   2.166  12.060
 4400TIP3   OH234614   2.706   2.208  12.237
 4400TIP3    H134615   2.735   2.128  12.280
 4400TIP3    H234616   2.732   2.279  12.296
 4401TIP3   OH234617   2.925   3.669  12.069
 4401TIP3    H134618   3.019   3.684  12.062
 4401TIP3    H234619   2.903   3.616  11.993
 4402TIP3   OH234620   3.589   3.642  12.366
 4402TIP3    H134621   3.573   3.553  12.336
 4402TIP3    H234622   3.572   3.696  12.288
 4403TIP3   OH234623   2.165   2.023  13.508
 4403TIP3    H134624   2.106   1.953  13.537
 4403TIP3    H234625   2.247   2.007  13.555
 4404TIP3   OH234626   2.373   1.959  13.680
 4404TIP3    H134627   2.455   1.931  13.641
 4404TIP3    H234628   2.337   1.880  13.720
 4405TIP3   OH234629   2.228   3.640  11.923
 4405TIP3    H134630   2.205   3.627  12.014
 4405TIP3    H234631   2.305   3.585  11.909
 4406TIP3   OH234632   3.249   1.842  13.684
 4406TIP3    H134633   3.253   1.749  13.703
 4406TIP3    H234634   3.332   1.862  13.642
 4407TIP3   OH234635   3.494   3.510  13.572
 4407TIP3    H134636   3.439   3.503  13.494
 4407TIP3    H234637   3.489   3.603  13.597
 4408TIP3   OH234638   4.959   2.918  12.541
 4408TIP3    H134639   4.945   3.012  12.531
 4408TIP3    H234640   4.895   2.878  12.482
 4409TIP3   OH234641   4.843   2.865  12.916
 4409TIP3    H134642   4.837   2.810  12.994
 4409TIP3    H234643   4.829   2.804  12.843
 4410TIP3   OH234644   4.065   2.759  13.064
 4410TIP3    H134645   4.074   2.686  13.125
 4410TIP3    H234646   4.155   2.778  13.036
 4411TIP3   OH234647   5.234   3.139  12.760
 4411TIP3    H134648   5.191   3.065  12.802
 4411TIP3    H234649   5.249   3.202  12.830
 4412TIP3   OH234650   4.191   3.245  12.878
 4412TIP3    H134651   4.165   3.156  12.852
 4412TIP3    H234652   4.287   3.239  12.887
 4413TIP3   OH234653   3.814   2.538  12.434
 4413TIP3    H134654   3.793   2.627  12.460
 4413TIP3    H234655   3.765   2.525  12.352
 4414TIP3   OH234656   3.903   2.811  12.699
 4414TIP3    H134657   3.935   2.722  12.715
 4414TIP3    H234658   3.982   2.863  12.688
 4415TIP3   OH234659   4.962   3.615  12.789
 4415TIP3    H134660   4.996   3.564  12.716
 4415TIP3    H234661   4.928   3.550  12.851
 4416TIP3   OH234662   4.681   3.095  12.944
 4416TIP3    H134663   4.722   3.017  12.906
 4416TIP3    H234664   4.750   3.134  12.999
 4417TIP3   OH234665   5.575   2.214  13.031
 4417TIP3    H134666   5.591   2.286  13.092
 4417TIP3    H234667   5.620   2.240  12.951
 4418TIP3   OH234668   5.002   2.591  12.915
 4418TIP3    H134669   5.031   2.524  12.977
 4418TIP3    H234670   4.970   2.541  12.839
 4419TIP3   OH234671   4.337   2.308  12.684
 4419TIP3    H134672   4.348   2.393  12.641
 4419TIP3    H234673   4.300   2.251  12.617
 4420TIP3   OH234674   5.120   2.338  12.524
 4420TIP3    H134675   5.166   2.307  12.602
 4420TIP3    H234676   5.189   2.379  12.471
 4421TIP3   OH234677   3.985   2.552  12.758
 4421TIP3    H134678   4.048   2.511  12.817
 4421TIP3    H234679   4.009   2.520  12.671
 4422TIP3   OH234680   4.456   2.703  12.739
 4422TIP3    H134681   4.541   2.666  12.762
 4422TIP3    H234682   4.419   2.641  12.677
 4423TIP3   OH234683   5.607   2.367  13.268
 4423TIP3    H134684   5.563   2.447  13.238
 4423TIP3    H234685   5.540   2.320  13.318
 4424TIP3   OH234686   4.221   2.222  13.105
 4424TIP3    H134687   4.190   2.282  13.037
 4424TIP3    H234688   4.150   2.220  13.169
 4425TIP3   OH234689   4.898   3.169  12.449
 4425TIP3    H134690   4.895   3.172  12.353
 4425TIP3    H234691   4.863   3.254  12.476
 4426TIP3   OH234692   4.472   2.994  13.093
 4426TIP3    H134693   4.419   3.065  13.128
 4426TIP3    H234694   4.540   3.038  13.042
 4427TIP3   OH234695   5.242   2.279  12.760
 4427TIP3    H134696   5.184   2.239  12.824
 4427TIP3    H234697   5.297   2.338  12.811
 4428TIP3   OH234698   4.174   2.393  12.890
 4428TIP3    H134699   4.232   2.449  12.942
 4428TIP3    H234700   4.231   2.355  12.823
 4429TIP3   OH234701   4.319   3.201  13.200
 4429TIP3    H134702   4.324   3.295  13.184
 4429TIP3    H234703   4.228   3.186  13.226
 4430TIP3   OH234704   3.889   3.176  12.281
 4430TIP3    H134705   3.881   3.210  12.192
 4430TIP3    H234706   3.915   3.251  12.334
 4431TIP3   OH234707   5.265   3.340  12.964
 4431TIP3    H134708   5.171   3.343  12.981
 4431TIP3    H234709   5.288   3.428  12.936
 4432TIP3   OH234710   5.320   2.121  13.131
 4432TIP3    H134711   5.247   2.166  13.088
 4432TIP3    H234712   5.397   2.148  13.080
 4433TIP3   OH234713   4.571   1.915  12.845
 4433TIP3    H134714   4.543   1.824  12.849
 4433TIP3    H234715   4.494   1.965  12.875
 4434TIP3   OH234716   5.084   3.497  12.568
 4434TIP3    H134717   5.123   3.410  12.552
 4434TIP3    H234718   5.159   3.555  12.576
 4435TIP3   OH234719   5.214   3.265  12.512
 4435TIP3    H134720   5.219   3.203  12.440
 4435TIP3    H234721   5.222   3.212  12.591
 4436TIP3   OH234722   5.381   3.115  13.318
 4436TIP3    H134723   5.366   3.061  13.240
 4436TIP3    H234724   5.394   3.203  13.285
 4437TIP3   OH234725   4.816   2.832  12.316
 4437TIP3    H134726   4.750   2.896  12.289
 4437TIP3    H234727   4.883   2.837  12.248
 4438TIP3   OH234728   4.849   2.700  11.979
 4438TIP3    H134729   4.905   2.726  12.052
 4438TIP3    H234730   4.902   2.640  11.927
 4439TIP3   OH234731   5.553   2.808  13.142
 4439TIP3    H134732   5.474   2.860  13.129
 4439TIP3    H234733   5.609   2.829  13.067
 4440TIP3   OH234734   5.181   2.860  12.389
 4440TIP3    H134735   5.111   2.879  12.452
 4440TIP3    H234736   5.241   2.804  12.438
 4441TIP3   OH234737   5.200   2.667  13.310
 4441TIP3    H134738   5.140   2.741  13.301
 4441TIP3    H234739   5.157   2.595  13.264
 4442TIP3   OH234740   4.324   2.899  12.585
 4442TIP3    H134741   4.299   2.862  12.500
 4442TIP3    H234742   4.378   2.832  12.626
 4443TIP3   OH234743   4.473   3.262  12.847
 4443TIP3    H134744   4.471   3.268  12.751
 4443TIP3    H234745   4.548   3.206  12.867
 4444TIP3   OH234746   4.324   2.803  12.961
 4444TIP3    H134747   4.375   2.776  12.885
 4444TIP3    H234748   4.379   2.867  13.005
 4445TIP3   OH234749   5.005   3.366  13.040
 4445TIP3    H134750   4.988   3.424  13.114
 4445TIP3    H234751   4.967   3.282  13.066
 4446TIP3   OH234752   4.473   3.229  13.428
 4446TIP3    H134753   4.411   3.289  13.469
 4446TIP3    H234754   4.430   3.200  13.347
 4447TIP3   OH234755   5.048   2.784  12.160
 4447TIP3    H134756   5.098   2.817  12.235
 4447TIP3    H234757   5.100   2.809  12.083
 4448TIP3   OH234758   4.142   2.821  13.400
 4448TIP3    H134759   4.147   2.908  13.439
 4448TIP3    H234760   4.054   2.816  13.363
 4449TIP3   OH234761   4.821   3.433  12.505
 4449TIP3    H134762   4.910   3.458  12.531
 4449TIP3    H234763   4.792   3.504  12.448
 4450TIP3   OH234764   4.276   3.411  13.494
 4450TIP3    H134765   4.279   3.439  13.403
 4450TIP3    H234766   4.183   3.401  13.513
 4451TIP3   OH234767   5.418   1.927  12.152
 4451TIP3    H134768   5.332   1.950  12.186
 4451TIP3    H234769   5.454   2.009  12.118
 4452TIP3   OH234770   4.240   2.808  12.330
 4452TIP3    H134771   4.188   2.878  12.291
 4452TIP3    H234772   4.200   2.727  12.298
 4453TIP3   OH234773   5.556   3.373  12.013
 4453TIP3    H134774   5.573   3.467  12.008
 4453TIP3    H234775   5.643   3.333  12.008
 4454TIP3   OH234776   3.842   3.066  13.248
 4454TIP3    H134777   3.789   3.074  13.168
 4454TIP3    H234778   3.853   2.972  13.260
 4455TIP3   OH234779   3.838   3.330  12.914
 4455TIP3    H134780   3.931   3.307  12.913
 4455TIP3    H234781   3.828   3.389  12.989
 4456TIP3   OH234782   5.635   3.434  13.520
 4456TIP3    H134783   5.627   3.340  13.503
 4456TIP3    H234784   5.549   3.459  13.553
 4457TIP3   OH234785   4.711   3.357  13.377
 4457TIP3    H134786   4.706   3.440  13.424
 4457TIP3    H234787   4.627   3.315  13.394
 4458TIP3   OH234788   4.803   3.698  12.357
 4458TIP3    H134789   4.779   3.699  12.265
 4458TIP3    H234790   4.768   3.780  12.391
 4459TIP3   OH234791   4.139   3.595  12.551
 4459TIP3    H134792   4.157   3.559  12.638
 4459TIP3    H234793   4.084   3.529  12.509
 4460TIP3   OH234794   5.088   3.662  12.040
 4460TIP3    H134795   5.134   3.588  12.001
 4460TIP3    H234796   5.098   3.649  12.135
 4461TIP3   OH234797   5.069   3.643  12.319
 4461TIP3    H134798   4.976   3.657  12.334
 4461TIP3    H234799   5.094   3.578  12.385
 4462TIP3   OH234800   5.319   2.573  13.548
 4462TIP3    H134801   5.284   2.625  13.475
 4462TIP3    H234802   5.279   2.487  13.537
 4463TIP3   OH234803   4.065   3.211  13.311
 4463TIP3    H134804   4.089   3.173  13.395
 4463TIP3    H234805   3.987   3.163  13.284
 4464TIP3   OH234806   4.326   2.028  12.932
 4464TIP3    H134807   4.245   2.016  12.882
 4464TIP3    H234808   4.305   2.097  12.995
 4465TIP3   OH234809   4.806   1.988  13.265
 4465TIP3    H134810   4.852   1.944  13.336
 4465TIP3    H234811   4.714   1.983  13.289
 4466TIP3   OH234812   5.144   2.379  13.458
 4466TIP3    H134813   5.062   2.354  13.500
 4466TIP3    H234814   5.121   2.392  13.366
 4467TIP3   OH234815   5.200   2.842  11.944
 4467TIP3    H134816   5.173   2.848  11.852
 4467TIP3    H234817   5.293   2.862  11.943
 4468TIP3   OH234818   4.749   2.234  12.014
 4468TIP3    H134819   4.689   2.232  12.088
 4468TIP3    H234820   4.714   2.170  11.953
 4469TIP3   OH234821   4.331   2.544  13.059
 4469TIP3    H134822   4.269   2.542  13.132
 4469TIP3    H234823   4.334   2.635  13.031
 4470TIP3   OH234824   4.325   2.547  12.551
 4470TIP3    H134825   4.230   2.538  12.541
 4470TIP3    H234826   4.359   2.535  12.463
 4471TIP3   OH234827   4.869   2.577  12.413
 4471TIP3    H134828   4.847   2.666  12.383
 4471TIP3    H234829   4.941   2.550  12.356
 4472TIP3   OH234830   4.780   2.601  13.558
 4472TIP3    H134831   4.738   2.522  13.592
 4472TIP3    H234832   4.869   2.596  13.593
 4473TIP3   OH234833   4.919   2.482  12.671
 4473TIP3    H134834   4.894   2.531  12.593
 4473TIP3    H234835   4.982   2.417  12.639
 4474TIP3   OH234836   4.114   2.538  13.233
 4474TIP3    H134837   4.150   2.568  13.316
 4474TIP3    H234838   4.074   2.453  13.253
 4475TIP3   OH234839   4.436   2.286  11.915
 4475TIP3    H134840   4.398   2.280  12.002
 4475TIP3    H234841   4.379   2.348  11.869
 4476TIP3   OH234842   3.833   2.239  12.608
 4476TIP3    H134843   3.860   2.248  12.700
 4476TIP3    H234844   3.807   2.327  12.582
 4477TIP3   OH234845   3.823   2.346  12.126
 4477TIP3    H134846   3.893   2.382  12.072
 4477TIP3    H234847   3.767   2.421  12.146
 4478TIP3   OH234848   4.847   2.696  13.134
 4478TIP3    H134849   4.912   2.653  13.078
 4478TIP3    H234850   4.816   2.627  13.193
 4479TIP3   OH234851   4.633   2.264  12.636
 4479TIP3    H134852   4.549   2.271  12.680
 4479TIP3    H234853   4.693   2.233  12.704
 4480TIP3   OH234854   4.065   2.455  12.512
 4480TIP3    H134855   3.984   2.482  12.469
 4480TIP3    H234856   4.086   2.369  12.474
 4481TIP3   OH234857   4.393   2.475  12.295
 4481TIP3    H134858   4.487   2.467  12.311
 4481TIP3    H234859   4.386   2.517  12.210
 4482TIP3   OH234860   5.068   2.185  12.951
 4482TIP3    H134861   5.059   2.257  13.013
 4482TIP3    H234862   4.979   2.169  12.919
 4483TIP3   OH234863   4.354   2.570  12.042
 4483TIP3    H134864   4.302   2.544  11.967
 4483TIP3    H234865   4.431   2.613  12.004
 4484TIP3   OH234866   5.380   3.788  13.616
 4484TIP3    H134867   5.401   3.819  13.528
 4484TIP3    H234868   5.455   3.813  13.670
 4485TIP3   OH234869   4.133   3.060  13.549
 4485TIP3    H134870   4.200   3.050  13.617
 4485TIP3    H234871   4.050   3.061  13.596
 4486TIP3   OH234872   4.686   2.572  12.817
 4486TIP3    H134873   4.759   2.530  12.772
 4486TIP3    H234874   4.671   2.518  12.895
 4487TIP3   OH234875   4.154   2.181  12.433
 4487TIP3    H134876   4.189   2.098  12.467
 4487TIP3    H234877   4.203   2.196  12.351
 4488TIP3   OH234878   4.592   2.445  13.059
 4488TIP3    H134879   4.505   2.485  13.062
 4488TIP3    H234880   4.635   2.477  13.139
 4489TIP3   OH234881   4.620   3.024  12.240
 4489TIP3    H134882   4.550   2.984  12.189
 4489TIP3    H234883   4.580   3.045  12.325
 4490TIP3   OH234884   5.344   2.978  13.085
 4490TIP3    H134885   5.401   3.033  13.030
 4490TIP3    H234886   5.269   2.958  13.028
 4491TIP3   OH234887   5.004   2.278  12.102
 4491TIP3    H134888   4.915   2.278  12.068
 4491TIP3    H234889   5.019   2.369  12.130
 4492TIP3   OH234890   4.819   3.085  13.375
 4492TIP3    H134891   4.815   3.033  13.455
 4492TIP3    H234892   4.771   3.166  13.396
 4493TIP3   OH234893   5.080   2.515  12.237
 4493TIP3    H134894   5.168   2.497  12.268
 4493TIP3    H234895   5.085   2.603  12.199
 4494TIP3   OH234896   4.163   2.976  12.796
 4494TIP3    H134897   4.215   2.962  12.717
 4494TIP3    H234898   4.202   2.917  12.861
 4495TIP3   OH234899   4.838   3.172  12.172
 4495TIP3    H134900   4.807   3.263  12.177
 4495TIP3    H234901   4.761   3.119  12.192
 4496TIP3   OH234902   3.864   2.803  13.342
 4496TIP3    H134903   3.841   2.760  13.425
 4496TIP3    H234904   3.799   2.770  13.279
 4497TIP3   OH234905   4.588   2.796  13.557
 4497TIP3    H134906   4.546   2.782  13.473
 4497TIP3    H234907   4.665   2.738  13.555
 4498TIP3   OH234908   4.996   3.356  13.373
 4498TIP3    H134909   4.903   3.348  13.351
 4498TIP3    H234910   4.998   3.356  13.468
 4499TIP3   OH234911   5.539   2.553  12.191
 4499TIP3    H134912   5.496   2.531  12.109
 4499TIP3    H234913   5.565   2.645  12.181
 4500TIP3   OH234914   5.610   3.164  13.474
 4500TIP3    H134915   5.517   3.144  13.461
 4500TIP3    H234916   5.653   3.132  13.395
 4501TIP3   OH234917   5.423   3.398  12.258
 4501TIP3    H134918   5.365   3.324  12.281
 4501TIP3    H234919   5.457   3.375  12.172
 4502TIP3   OH234920   5.137   2.913  12.905
 4502TIP3    H134921   5.043   2.899  12.897
 4502TIP3    H234922   5.177   2.838  12.861
 4503TIP3   OH234923   4.411   3.332  12.582
 4503TIP3    H134924   4.440   3.416  12.547
 4503TIP3    H234925   4.319   3.325  12.556
 4504TIP3   OH234926   3.984   2.779  12.044
 4504TIP3    H134927   4.028   2.851  12.090
 4504TIP3    H234928   3.892   2.788  12.067
 4505TIP3   OH234929   4.489   3.091  12.467
 4505TIP3    H134930   4.479   3.175  12.511
 4505TIP3    H234931   4.433   3.031  12.516
 4506TIP3   OH234932   4.602   3.503  13.153
 4506TIP3    H134933   4.660   3.575  13.131
 4506TIP3    H234934   4.655   3.445  13.208
 4507TIP3   OH234935   4.405   3.594  12.473
 4507TIP3    H134936   4.312   3.607  12.490
 4507TIP3    H234937   4.447   3.673  12.506
 4508TIP3   OH234938   4.903   3.118  13.116
 4508TIP3    H134939   4.874   3.097  13.205
 4508TIP3    H234940   4.938   3.036  13.082
 4509TIP3   OH234941   5.192   3.216  12.040
 4509TIP3    H134942   5.203   3.174  12.125
 4509TIP3    H234943   5.106   3.186  12.009
 4510TIP3   OH234944   5.211   3.529  13.349
 4510TIP3    H134945   5.131   3.478  13.345
 4510TIP3    H234946   5.197   3.602  13.288
 4511TIP3   OH234947   5.603   3.645  12.031
 4511TIP3    H134948   5.638   3.712  11.971
 4511TIP3    H234949   5.528   3.688  12.073
 4512TIP3   OH234950   4.012   2.275  13.289
 4512TIP3    H134951   3.919   2.274  13.266
 4512TIP3    H234952   4.023   2.205  13.353
 4513TIP3   OH234953   5.278   3.097  12.284
 4513TIP3    H134954   5.235   3.018  12.314
 4513TIP3    H234955   5.371   3.075  12.282
 4514TIP3   OH234956   3.989   3.464  13.147
 4514TIP3    H134957   4.019   3.381  13.185
 4514TIP3    H234958   4.002   3.528  13.217
 4515TIP3   OH234959   4.560   3.305  11.885
 4515TIP3    H134960   4.564   3.222  11.837
 4515TIP3    H234961   4.517   3.284  11.967
 4516TIP3   OH234962   4.435   3.280  12.132
 4516TIP3    H134963   4.487   3.228  12.193
 4516TIP3    H234964   4.448   3.370  12.160
 4517TIP3   OH234965   4.083   2.993  12.197
 4517TIP3    H134966   4.012   3.041  12.240
 4517TIP3    H234967   4.128   3.059  12.145
 4518TIP3   OH234968   4.841   2.265  13.278
 4518TIP3    H134969   4.921   2.296  13.234
 4518TIP3    H234970   4.840   2.170  13.263
 4519TIP3   OH234971   4.976   2.169  12.356
 4519TIP3    H134972   4.985   2.208  12.268
 4519TIP3    H234973   5.020   2.232  12.414
 4520TIP3   OH234974   4.738   3.424  12.189
 4520TIP3    H134975   4.650   3.456  12.207
 4520TIP3    H234976   4.782   3.497  12.146
 4521TIP3   OH234977   4.646   2.417  12.403
 4521TIP3    H134978   4.722   2.474  12.404
 4521TIP3    H234979   4.645   2.376  12.490
 4522TIP3   OH234980   4.727   2.510  13.296
 4522TIP3    H134981   4.744   2.542  13.385
 4522TIP3    H234982   4.764   2.421  13.296
 4523TIP3   OH234983   4.734   2.074  12.450
 4523TIP3    H134984   4.712   2.142  12.514
 4523TIP3    H234985   4.822   2.098  12.420
 4524TIP3   OH234986   4.489   3.536  12.217
 4524TIP3    H134987   4.493   3.620  12.172
 4524TIP3    H234988   4.458   3.559  12.305
 4525TIP3   OH234989   4.321   2.229  12.184
 4525TIP3    H134990   4.328   2.319  12.215
 4525TIP3    H234991   4.409   2.193  12.195
 4526TIP3   OH234992   5.374   2.258  13.370
 4526TIP3    H134993   5.297   2.298  13.408
 4526TIP3    H234994   5.343   2.219  13.288
 4527TIP3   OH234995   5.238   2.667  12.797
 4527TIP3    H134996   5.150   2.644  12.828
 4527TIP3    H234997   5.295   2.601  12.836
 4528TIP3   OH234998   4.182   3.204  12.040
 4528TIP3    H134999   4.257   3.249  12.078
 4528TIP3    H235000   4.220   3.149  11.971
 4529TIP3   OH235001   3.972   2.510  11.970
 4529TIP3    H135002   3.989   2.601  11.994
 4529TIP3    H235003   3.931   2.515  11.884
 4530TIP3   OH235004   5.345   3.609  12.952
 4530TIP3    H135005   5.327   3.681  12.891
 4530TIP3    H235006   5.440   3.605  12.957
 4531TIP3   OH235007   4.065   1.996  12.828
 4531TIP3    H135008   4.066   1.965  12.738
 4531TIP3    H235009   4.037   1.920  12.880
 4532TIP3   OH235010   3.955   3.420  12.428
 4532TIP3    H135011   3.884   3.442  12.489
 4532TIP3    H235012   3.941   3.479  12.354
 4533TIP3   OH235013   3.918   3.687  13.616
 4533TIP3    H135014   3.987   3.661  13.677
 4533TIP3    H235015   3.887   3.605  13.578
 4534TIP3   OH235016   4.347   3.506  13.742
 4534TIP3    H135017   4.427   3.458  13.764
 4534TIP3    H235018   4.326   3.478  13.653
 4535TIP3   OH235019   4.764   3.490  11.873
 4535TIP3    H135020   4.697   3.423  11.881
 4535TIP3    H235021   4.840   3.443  11.837
 4536TIP3   OH235022   4.991   3.373  13.649
 4536TIP3    H135023   4.979   3.289  13.694
 4536TIP3    H235024   5.067   3.412  13.691
 4537TIP3   OH235025   5.214   3.458  11.909
 4537TIP3    H135026   5.222   3.376  11.958
 4537TIP3    H235027   5.286   3.455  11.846
 4538TIP3   OH235028   3.887   3.056  13.679
 4538TIP3    H135029   3.889   2.961  13.669
 4538TIP3    H235030   3.819   3.085  13.618
 4539TIP3   OH235031   4.314   3.024  11.883
 4539TIP3    H135032   4.341   2.975  11.960
 4539TIP3    H235033   4.395   3.038  11.833
 4540TIP3   OH235034   4.549   3.062  13.633
 4540TIP3    H135035   4.530   3.105  13.549
 4540TIP3    H235036   4.575   2.973  13.608
 4541TIP3   OH235037   4.948   3.154  11.920
 4541TIP3    H135038   4.899   3.152  12.002
 4541TIP3    H235039   4.923   3.073  11.876
 4542TIP3   OH235040   5.118   3.049  13.398
 4542TIP3    H135041   5.202   3.088  13.371
 4542TIP3    H235042   5.052   3.111  13.367
 4543TIP3   OH235043   3.963   2.790  13.642
 4543TIP3    H135044   4.046   2.766  13.601
 4543TIP3    H235045   3.980   2.782  13.736
 4544TIP3   OH235046   4.419   2.889  12.106
 4544TIP3    H135047   4.371   2.840  12.173
 4544TIP3    H235048   4.469   2.823  12.059
 4545TIP3   OH235049   4.358   2.653  13.359
 4545TIP3    H135050   4.293   2.722  13.373
 4545TIP3    H235051   4.430   2.697  13.313
 4546TIP3   OH235052   4.570   2.715  11.953
 4546TIP3    H135053   4.566   2.741  11.861
 4546TIP3    H235054   4.664   2.703  11.971
 4547TIP3   OH235055   4.897   2.914  13.685
 4547TIP3    H135056   4.978   2.882  13.645
 4547TIP3    H235057   4.865   2.841  13.738
 4548TIP3   OH235058   5.466   2.908  11.897
 4548TIP3    H135059   5.466   2.885  11.804
 4548TIP3    H235060   5.457   3.004  11.898
 4549TIP3   OH235061   4.423   2.405  13.455
 4549TIP3    H135062   4.438   2.345  13.382
 4549TIP3    H235063   4.408   2.490  13.414
 4550TIP3   OH235064   4.465   2.247  13.226
 4550TIP3    H135065   4.522   2.293  13.164
 4550TIP3    H235066   4.380   2.241  13.181
 4551TIP3   OH235067   4.571   2.789  13.253
 4551TIP3    H135068   4.658   2.764  13.221
 4551TIP3    H235069   4.545   2.863  13.198
 4552TIP3   OH235070   5.023   2.566  13.705
 4552TIP3    H135071   5.005   2.476  13.678
 4552TIP3    H235072   5.112   2.583  13.672
 4553TIP3   OH235073   5.159   2.861  13.586
 4553TIP3    H135074   5.134   2.926  13.521
 4553TIP3    H235075   5.250   2.841  13.566
 4554TIP3   OH235076   4.272   2.464  13.683
 4554TIP3    H135077   4.188   2.421  13.665
 4554TIP3    H235078   4.320   2.457  13.600
 4555TIP3   OH235079   4.526   1.984  13.286
 4555TIP3    H135080   4.509   2.076  13.268
 4555TIP3    H235081   4.460   1.937  13.236
 4556TIP3   OH235082   4.639   2.373  13.627
 4556TIP3    H135083   4.596   2.340  13.706
 4556TIP3    H235084   4.570   2.380  13.562
 4557TIP3   OH235085   4.920   2.331  13.610
 4557TIP3    H135086   4.826   2.318  13.611
 4557TIP3    H235087   4.955   2.255  13.656
 4558TIP3   OH235088   5.110   2.177  13.755
 4558TIP3    H135089   5.100   2.083  13.737
 4558TIP3    H235090   5.077   2.189  13.844
 4559TIP3   OH235091   4.046   2.305  13.643
 4559TIP3    H135092   4.047   2.225  13.592
 4559TIP3    H235093   4.061   2.276  13.733
 4560TIP3   OH235094   4.501   1.862  13.527
 4560TIP3    H135095   4.575   1.802  13.525
 4560TIP3    H235096   4.508   1.912  13.446
 4561TIP3   OH235097   4.586   2.039  13.755
 4561TIP3    H135098   4.567   1.994  13.673
 4561TIP3    H235099   4.528   2.115  13.755
 4562TIP3   OH235100   4.561   3.779  12.099
 4562TIP3    H135101   4.650   3.746  12.086
 4562TIP3    H235102   4.547   3.840  12.026
 4563TIP3   OH235103   3.912   3.237  12.003
 4563TIP3    H135104   4.007   3.235  12.016
 4563TIP3    H235105   3.895   3.169  11.937
 4564TIP3   OH235106   3.774   3.750  12.539
 4564TIP3    H135107   3.721   3.715  12.467
 4564TIP3    H235108   3.795   3.673  12.593
 4565TIP3   OH235109   3.840   3.532  12.698
 4565TIP3    H135110   3.801   3.453  12.735
 4565TIP3    H235111   3.888   3.572  12.770
 4566TIP3   OH235112   5.615   3.608  13.021
 4566TIP3    H135113   5.601   3.609  13.116
 4566TIP3    H235114   5.676   3.680  13.005
 4567TIP3   OH235115   5.556   3.578  13.291
 4567TIP3    H135116   5.498   3.510  13.258
 4567TIP3    H235117   5.598   3.539  13.368
 4568TIP3   OH235118   5.415   3.178  13.771
 4568TIP3    H135119   5.330   3.181  13.814
 4568TIP3    H235120   5.465   3.250  13.809
 4569TIP3   OH235121   5.544   3.013  12.305
 4569TIP3    H135122   5.620   3.070  12.307
 4569TIP3    H235123   5.559   2.950  12.375
 4570TIP3   OH235124   5.584   2.809  12.490
 4570TIP3    H135125   5.499   2.771  12.511
 4570TIP3    H235126   5.630   2.812  12.573
 4571TIP3   OH235127   5.584   3.105  13.005
 4571TIP3    H135128   5.635   3.037  12.962
 4571TIP3    H235129   5.603   3.185  12.956
 4572TIP3   OH235130   5.392   3.372  13.210
 4572TIP3    H135131   5.318   3.416  13.253
 4572TIP3    H235132   5.360   3.353  13.122
 4573TIP3   OH235133   5.599   2.814  12.118
 4573TIP3    H135134   5.554   2.838  12.037
 4573TIP3    H235135   5.574   2.883  12.180
 4574TIP3   OH235136   5.432   2.513  11.943
 4574TIP3    H135137   5.424   2.573  11.869
 4574TIP3    H235138   5.412   2.427  11.907
 4575TIP3   OH235139   5.340   2.683  12.537
 4575TIP3    H135140   5.335   2.594  12.502
 4575TIP3    H235141   5.303   2.677  12.625
 4576TIP3   OH235142   3.838   2.865  12.959
 4576TIP3    H135143   3.849   2.853  12.865
 4576TIP3    H235144   3.922   2.838  12.996
 4577TIP3   OH235145   5.435   2.868  13.514
 4577TIP3    H135146   5.494   2.795  13.496
 4577TIP3    H235147   5.431   2.917  13.432
 4578TIP3   OH235148   5.590   2.634  13.510
 4578TIP3    H135149   5.501   2.600  13.519
 4578TIP3    H235150   5.646   2.565  13.545
 4579TIP3   OH235151   5.367   2.264  11.840
 4579TIP3    H135152   5.406   2.216  11.912
 4579TIP3    H235153   5.275   2.238  11.840
 4580TIP3   OH235154   5.337   2.442  12.363
 4580TIP3    H135155   5.363   2.351  12.369
 4580TIP3    H235156   5.405   2.484  12.311
 4581TIP3   OH235157   5.375   2.463  12.925
 4581TIP3    H135158   5.470   2.474  12.922
 4581TIP3    H235159   5.353   2.468  13.018
 4582TIP3   OH235160   5.436   2.566  13.195
 4582TIP3    H135161   5.351   2.588  13.234
 4582TIP3    H235162   5.475   2.650  13.173
 4583TIP3   OH235163   3.812   2.391  13.529
 4583TIP3    H135164   3.899   2.374  13.565
 4583TIP3    H235165   3.765   2.308  13.538
 4584TIP3   OH235166   5.634   1.974  13.726
 4584TIP3    H135167   5.697   1.915  13.684
 4584TIP3    H235168   5.627   2.048  13.665
 4585TIP3   OH235169   5.399   2.170  12.384
 4585TIP3    H135170   5.414   2.132  12.470
 4585TIP3    H235171   5.332   2.114  12.345
 4586TIP3   OH235172   3.931   2.239  12.867
 4586TIP3    H135173   3.971   2.152  12.867
 4586TIP3    H235174   4.003   2.299  12.885
 4587TIP3   OH235175   3.749   2.532  12.914
 4587TIP3    H135176   3.823   2.534  12.852
 4587TIP3    H235177   3.774   2.596  12.982
 4588TIP3   OH235178   5.576   2.171  13.548
 4588TIP3    H135179   5.496   2.216  13.575
 4588TIP3    H235180   5.554   2.129  13.465
 4589TIP3   OH235181   5.535   2.147  12.034
 4589TIP3    H135182   5.584   2.092  11.973
 4589TIP3    H235183   5.599   2.210  12.067
 4590TIP3   OH235184   3.753   2.172  12.322
 4590TIP3    H135185   3.657   2.173  12.330
 4590TIP3    H235186   3.772   2.234  12.251
 4591TIP3   OH235187   5.287   3.676  12.563
 4591TIP3    H135188   5.350   3.662  12.493
 4591TIP3    H235189   5.331   3.737  12.623
 4592TIP3   OH235190   3.803   2.046  13.199
 4592TIP3    H135191   3.731   2.006  13.246
 4592TIP3    H235192   3.761   2.099  13.131
 4593TIP3   OH235193   4.016   3.391  13.592
 4593TIP3    H135194   3.927   3.394  13.557
 4593TIP3    H235195   4.008   3.342  13.674
 4594TIP3   OH235196   4.338   3.480  13.229
 4594TIP3    H135197   4.308   3.567  13.203
 4594TIP3    H235198   4.432   3.480  13.209
 4595TIP3   OH235199   4.707   3.598  13.515
 4595TIP3    H135200   4.723   3.568  13.605
 4595TIP3    H235201   4.785   3.649  13.493
 4596TIP3   OH235202   4.938   3.737  13.462
 4596TIP3    H135203   4.991   3.686  13.399
 4596TIP3    H235204   4.998   3.756  13.533
 4597TIP3   OH235205   5.475   1.961  13.351
 4597TIP3    H135206   5.407   1.991  13.291
 4597TIP3    H235207   5.491   1.870  13.325
 4598TIP3   OH235208   4.039   3.785  13.252
 4598TIP3    H135209   3.958   3.823  13.217
 4598TIP3    H235210   4.050   3.827  13.337
 4599TIP3   OH235211   4.295   3.743  13.160
 4599TIP3    H135212   4.204   3.759  13.186
 4599TIP3    H235213   4.303   3.786  13.075
 4600TIP3   OH235214   4.752   3.721  13.067
 4600TIP3    H135215   4.704   3.752  12.991
 4600TIP3    H235216   4.761   3.798  13.124
 4601TIP3   OH235217   4.984   3.620  13.184
 4601TIP3    H135218   4.905   3.646  13.136
 4601TIP3    H235219   5.054   3.673  13.147
 4602TIP3   OH235220   5.238   3.751  13.162
 4602TIP3    H135221   5.249   3.842  13.133
 4602TIP3    H235222   5.272   3.699  13.090
 4603TIP3   OH235223   3.996   3.625  12.921
 4603TIP3    H135224   3.995   3.575  13.003
 4603TIP3    H235225   4.073   3.593  12.874
 4604TIP3   OH235226   4.211   3.509  12.805
 4604TIP3    H135227   4.200   3.416  12.827
 4604TIP3    H235228   4.300   3.529  12.833
 4605TIP3   OH235229   4.475   3.535  12.905
 4605TIP3    H135230   4.483   3.446  12.871
 4605TIP3    H235231   4.509   3.530  12.994
 4606TIP3   OH235232   4.803   2.108  12.795
 4606TIP3    H135233   4.743   2.035  12.809
 4606TIP3    H235234   4.879   2.069  12.752
 4607TIP3   OH235235   5.297   1.946  12.794
 4607TIP3    H135236   5.358   2.001  12.745
 4607TIP3    H235237   5.212   1.991  12.786
 4608TIP3   OH235238   5.482   2.047  12.619
 4608TIP3    H135239   5.548   1.983  12.594
 4608TIP3    H235240   5.532   2.127  12.636
 4609TIP3   OH235241   4.061   1.921  12.552
 4609TIP3    H135242   3.976   1.878  12.549
 4609TIP3    H235243   4.124   1.850  12.542
 4610TIP3   OH235244   3.965   2.011  12.213
 4610TIP3    H135245   4.026   2.035  12.143
 4610TIP3    H235246   3.880   2.040  12.182
 4611TIP3   OH235247   4.508   1.948  12.568
 4611TIP3    H135248   4.582   1.986  12.521
 4611TIP3    H235249   4.537   1.943  12.659
 4612TIP3   OH235250   5.019   1.974  12.687
 4612TIP3    H135251   5.064   1.951  12.606
 4612TIP3    H235252   4.999   1.889  12.727
 4613TIP3   OH235253   5.192   2.001  12.295
 4613TIP3    H135254   5.115   2.056  12.308
 4613TIP3    H235255   5.160   1.911  12.308
 4614TIP3   OH235256   3.915   3.599  12.224
 4614TIP3    H135257   3.841   3.591  12.163
 4614TIP3    H235258   3.945   3.690  12.213
 4615TIP3   OH235259   4.133   2.111  12.005
 4615TIP3    H135260   4.182   2.060  11.941
 4615TIP3    H235261   4.200   2.152  12.059
 4616TIP3   OH235262   4.590   2.203  12.241
 4616TIP3    H135263   4.629   2.130  12.288
 4616TIP3    H235264   4.613   2.280  12.293
 4617TIP3   OH235265   4.813   3.670  12.070
 4617TIP3    H135266   4.906   3.688  12.059
 4617TIP3    H235267   4.789   3.619  11.992
 4618TIP3   OH235268   5.477   3.644  12.363
 4618TIP3    H135269   5.460   3.555  12.332
 4618TIP3    H235270   5.459   3.699  12.287
 4619TIP3   OH235271   4.045   2.069  13.493
 4619TIP3    H135272   4.007   1.990  13.455
 4619TIP3    H235273   4.120   2.037  13.544
 4620TIP3   OH235274   4.250   1.970  13.653
 4620TIP3    H135275   4.321   2.034  13.661
 4620TIP3    H235276   4.221   1.955  13.743
 4621TIP3   OH235277   4.117   3.637  11.920
 4621TIP3    H135278   4.091   3.622  12.011
 4621TIP3    H235279   4.193   3.580  11.906
 4622TIP3   OH235280   5.112   1.908  13.687
 4622TIP3    H135281   5.105   1.860  13.770
 4622TIP3    H235282   5.205   1.901  13.664
 4623TIP3   OH235283   5.377   3.516  13.572
 4623TIP3    H135284   5.319   3.506  13.496
 4623TIP3    H235285   5.372   3.608  13.594
 4624TIP3   OH235286   6.840   2.926  12.542
 4624TIP3    H135287   6.826   3.020  12.533
 4624TIP3    H235288   6.778   2.887  12.480
 4625TIP3   OH235289   6.695   2.835  12.920
 4625TIP3    H135290   6.720   2.789  13.000
 4625TIP3    H235291   6.656   2.768  12.865
 4626TIP3   OH235292   5.953   2.767  13.058
 4626TIP3    H135293   5.958   2.694  13.118
 4626TIP3    H235294   6.043   2.781  13.028
 4627TIP3   OH235295   7.097   3.144  12.762
 4627TIP3    H135296   7.053   3.069  12.802
 4627TIP3    H235297   7.120   3.200  12.836
 4628TIP3   OH235298   6.089   3.254  12.909
 4628TIP3    H135299   6.057   3.169  12.877
 4628TIP3    H235300   6.184   3.246  12.907
 4629TIP3   OH235301   5.734   2.582  12.404
 4629TIP3    H135302   5.694   2.664  12.433
 4629TIP3    H235303   5.676   2.549  12.336
 4630TIP3   OH235304   5.779   2.800  12.690
 4630TIP3    H135305   5.807   2.711  12.714
 4630TIP3    H235306   5.854   2.837  12.643
 4631TIP3   OH235307   6.827   3.588  12.822
 4631TIP3    H135308   6.839   3.539  12.741
 4631TIP3    H235309   6.835   3.522  12.891
 4632TIP3   OH235310   6.568   3.088  12.940
 4632TIP3    H135311   6.599   3.005  12.905
 4632TIP3    H235312   6.642   3.122  12.991
 4633TIP3   OH235313   6.881   2.497  12.957
 4633TIP3    H135314   6.892   2.403  12.970
 4633TIP3    H235315   6.868   2.507  12.862
 4634TIP3   OH235316   6.237   2.306  12.680
 4634TIP3    H135317   6.240   2.391  12.636
 4634TIP3    H235318   6.185   2.251  12.622
 4635TIP3   OH235319   6.991   2.337  12.530
 4635TIP3    H135320   7.034   2.287  12.599
 4635TIP3    H235321   7.063   2.363  12.471
 4636TIP3   OH235322   5.873   2.552  12.766
 4636TIP3    H135323   5.939   2.510  12.822
 4636TIP3    H235324   5.889   2.517  12.679
 4637TIP3   OH235325   6.344   2.704  12.737
 4637TIP3    H135326   6.430   2.668  12.759
 4637TIP3    H235327   6.306   2.642  12.675
 4638TIP3   OH235328   6.089   2.227  13.110
 4638TIP3    H135329   6.066   2.282  13.034
 4638TIP3    H235330   6.016   2.238  13.171
 4639TIP3   OH235331   6.779   3.179  12.451
 4639TIP3    H135332   6.783   3.176  12.356
 4639TIP3    H235333   6.722   3.253  12.471
 4640TIP3   OH235334   6.358   2.992  13.091
 4640TIP3    H135335   6.305   3.062  13.129
 4640TIP3    H235336   6.425   3.037  13.040
 4641TIP3   OH235337   7.085   2.230  12.766
 4641TIP3    H135338   7.010   2.209  12.822
 4641TIP3    H235339   7.144   2.279  12.823
 4642TIP3   OH235340   6.071   2.391  12.887
 4642TIP3    H135341   6.129   2.446  12.939
 4642TIP3    H235342   6.128   2.355  12.818
 4643TIP3   OH235343   6.209   3.194  13.209
 4643TIP3    H135344   6.211   3.288  13.194
 4643TIP3    H235345   6.118   3.176  13.233
 4644TIP3   OH235346   5.774   3.175  12.279
 4644TIP3    H135347   5.766   3.209  12.190
 4644TIP3    H235348   5.802   3.250  12.331
 4645TIP3   OH235349   7.140   3.349  12.969
 4645TIP3    H135350   7.045   3.353  12.976
 4645TIP3    H235351   7.166   3.438  12.947
 4646TIP3   OH235352   7.128   2.135  13.071
 4646TIP3    H135353   7.038   2.154  13.045
 4646TIP3    H235354   7.178   2.210  13.040
 4647TIP3   OH235355   6.452   1.918  12.857
 4647TIP3    H135356   6.426   1.825  12.856
 4647TIP3    H235357   6.373   1.964  12.886
 4648TIP3   OH235358   6.909   3.463  12.587
 4648TIP3    H135359   6.951   3.379  12.567
 4648TIP3    H235360   6.982   3.525  12.595
 4649TIP3   OH235361   7.105   3.280  12.519
 4649TIP3    H135362   7.106   3.222  12.443
 4649TIP3    H235363   7.107   3.222  12.595
 4650TIP3   OH235364   7.232   3.110  13.378
 4650TIP3    H135365   7.250   3.051  13.304
 4650TIP3    H235366   7.242   3.198  13.340
 4651TIP3   OH235367   6.706   2.834  12.313
 4651TIP3    H135368   6.638   2.895  12.287
 4651TIP3    H235369   6.770   2.837  12.242
 4652TIP3   OH235370   6.746   2.694  11.973
 4652TIP3    H135371   6.805   2.719  12.045
 4652TIP3    H235372   6.799   2.635  11.919
 4653TIP3   OH235373   7.061   2.857  12.394
 4653TIP3    H135374   6.991   2.883  12.455
 4653TIP3    H235375   7.113   2.793  12.444
 4654TIP3   OH235376   6.993   2.692  13.288
 4654TIP3    H135377   7.001   2.783  13.316
 4654TIP3    H235378   6.915   2.691  13.232
 4655TIP3   OH235379   6.210   2.903  12.588
 4655TIP3    H135380   6.183   2.866  12.504
 4655TIP3    H235381   6.262   2.834  12.629
 4656TIP3   OH235382   6.365   3.270  12.850
 4656TIP3    H135383   6.357   3.272  12.755
 4656TIP3    H235384   6.437   3.209  12.867
 4657TIP3   OH235385   6.212   2.797  12.961
 4657TIP3    H135386   6.261   2.772  12.883
 4657TIP3    H235387   6.267   2.863  13.004
 4658TIP3   OH235388   6.868   3.377  13.016
 4658TIP3    H135389   6.857   3.433  13.093
 4658TIP3    H235390   6.838   3.291  13.044
 4659TIP3   OH235391   6.361   3.228  13.435
 4659TIP3    H135392   6.297   3.287  13.476
 4659TIP3    H235393   6.317   3.197  13.356
 4660TIP3   OH235394   6.946   2.785  12.156
 4660TIP3    H135395   6.984   2.814  12.238
 4660TIP3    H235396   7.003   2.821  12.088
 4661TIP3   OH235397   6.023   2.806  13.394
 4661TIP3    H135398   6.034   2.891  13.438
 4661TIP3    H235399   5.932   2.807  13.363
 4662TIP3   OH235400   6.652   3.428  12.503
 4662TIP3    H135401   6.739   3.442  12.541
 4662TIP3    H235402   6.642   3.500  12.440
 4663TIP3   OH235403   6.159   3.410  13.497
 4663TIP3    H135404   6.161   3.434  13.404
 4663TIP3    H235405   6.067   3.397  13.517
 4664TIP3   OH235406   6.124   2.811  12.336
 4664TIP3    H135407   6.070   2.877  12.292
 4664TIP3    H235408   6.084   2.728  12.313
 4665TIP3   OH235409   5.725   3.064  13.248
 4665TIP3    H135410   5.673   3.073  13.168
 4665TIP3    H235411   5.735   2.969  13.259
 4666TIP3   OH235412   5.690   3.355  12.918
 4666TIP3    H135413   5.771   3.346  12.967
 4666TIP3    H235414   5.647   3.431  12.957
 4667TIP3   OH235415   6.599   3.352  13.376
 4667TIP3    H135416   6.596   3.436  13.422
 4667TIP3    H235417   6.517   3.309  13.398
 4668TIP3   OH235418   6.681   3.694  12.358
 4668TIP3    H135419   6.662   3.696  12.265
 4668TIP3    H235420   6.650   3.778  12.391
 4669TIP3   OH235421   6.023   3.591  12.553
 4669TIP3    H135422   6.036   3.553  12.640
 4669TIP3    H235423   5.966   3.529  12.508
 4670TIP3   OH235424   6.970   3.647  12.039
 4670TIP3    H135425   7.015   3.570  12.003
 4670TIP3    H235426   6.976   3.635  12.134
 4671TIP3   OH235427   6.944   3.620  12.314
 4671TIP3    H135428   6.852   3.632  12.338
 4671TIP3    H235429   6.976   3.554  12.375
 4672TIP3   OH235430   7.162   2.603  13.547
 4672TIP3    H135431   7.171   2.599  13.452
 4672TIP3    H235432   7.238   2.556  13.581
 4673TIP3   OH235433   5.954   3.201  13.314
 4673TIP3    H135434   5.978   3.160  13.397
 4673TIP3    H235435   5.874   3.154  13.286
 4674TIP3   OH235436   6.206   2.030  12.944
 4674TIP3    H135437   6.132   2.017  12.885
 4674TIP3    H235438   6.179   2.100  13.002
 4675TIP3   OH235439   6.683   2.002  13.287
 4675TIP3    H135440   6.729   1.949  13.351
 4675TIP3    H235441   6.590   1.989  13.307
 4676TIP3   OH235442   7.007   2.396  13.359
 4676TIP3    H135443   6.941   2.381  13.426
 4676TIP3    H235444   6.999   2.488  13.337
 4677TIP3   OH235445   7.120   2.904  11.981
 4677TIP3    H135446   7.099   2.883  11.890
 4677TIP3    H235447   7.118   2.999  11.984
 4678TIP3   OH235448   6.635   2.234  12.013
 4678TIP3    H135449   6.576   2.232  12.088
 4678TIP3    H235450   6.598   2.169  11.952
 4679TIP3   OH235451   6.220   2.541  13.068
 4679TIP3    H135452   6.151   2.540  13.134
 4679TIP3    H235453   6.222   2.632  13.037
 4680TIP3   OH235454   6.213   2.547  12.551
 4680TIP3    H135455   6.119   2.534  12.546
 4680TIP3    H235456   6.245   2.532  12.462
 4681TIP3   OH235457   6.757   2.589  12.431
 4681TIP3    H135458   6.733   2.674  12.395
 4681TIP3    H235459   6.825   2.556  12.372
 4682TIP3   OH235460   6.676   2.599  13.548
 4682TIP3    H135461   6.630   2.524  13.584
 4682TIP3    H235462   6.765   2.591  13.583
 4683TIP3   OH235463   6.860   2.527  12.685
 4683TIP3    H135464   6.817   2.577  12.616
 4683TIP3    H235465   6.901   2.453  12.640
 4684TIP3   OH235466   5.999   2.550  13.232
 4684TIP3    H135467   5.996   2.598  13.315
 4684TIP3    H235468   5.955   2.467  13.251
 4685TIP3   OH235469   6.326   2.290  11.909
 4685TIP3    H135470   6.287   2.275  11.996
 4685TIP3    H235471   6.267   2.352  11.866
 4686TIP3   OH235472   5.657   2.253  12.628
 4686TIP3    H135473   5.724   2.257  12.696
 4686TIP3    H235474   5.706   2.235  12.547
 4687TIP3   OH235475   5.711   2.338  12.140
 4687TIP3    H135476   5.779   2.375  12.084
 4687TIP3    H235477   5.652   2.411  12.159
 4688TIP3   OH235478   6.762   2.669  13.131
 4688TIP3    H135479   6.808   2.613  13.068
 4688TIP3    H235480   6.713   2.609  13.186
 4689TIP3   OH235481   6.520   2.270  12.643
 4689TIP3    H135482   6.428   2.273  12.672
 4689TIP3    H235483   6.567   2.230  12.716
 4690TIP3   OH235484   5.954   2.460  12.522
 4690TIP3    H135485   5.880   2.490  12.469
 4690TIP3    H235486   5.971   2.371  12.491
 4691TIP3   OH235487   6.284   2.478  12.296
 4691TIP3    H135488   6.379   2.467  12.308
 4691TIP3    H235489   6.275   2.517  12.209
 4692TIP3   OH235490   6.876   2.216  12.969
 4692TIP3    H135491   6.836   2.228  13.055
 4692TIP3    H235492   6.806   2.179  12.915
 4693TIP3   OH235493   6.243   2.574  12.043
 4693TIP3    H135494   6.189   2.545  11.969
 4693TIP3    H235495   6.320   2.613  12.002
 4694TIP3   OH235496   7.245   3.802  13.605
 4694TIP3    H135497   7.248   3.852  13.523
 4694TIP3    H235498   7.334   3.769  13.616
 4695TIP3   OH235499   6.025   3.053  13.546
 4695TIP3    H135500   6.090   3.041  13.615
 4695TIP3    H235501   5.941   3.046  13.590
 4696TIP3   OH235502   6.581   2.587  12.830
 4696TIP3    H135503   6.648   2.536  12.784
 4696TIP3    H235504   6.554   2.531  12.902
 4697TIP3   OH235505   6.066   2.195  12.485
 4697TIP3    H135506   6.014   2.119  12.509
 4697TIP3    H235507   6.103   2.172  12.399
 4698TIP3   OH235508   6.480   2.448  13.055
 4698TIP3    H135509   6.393   2.487  13.066
 4698TIP3    H235510   6.526   2.469  13.137
 4699TIP3   OH235511   6.508   3.023  12.242
 4699TIP3    H135512   6.438   2.981  12.192
 4699TIP3    H235513   6.467   3.044  12.326
 4700TIP3   OH235514   7.178   2.977  13.113
 4700TIP3    H135515   7.253   2.954  13.058
 4700TIP3    H235516   7.102   2.963  13.056
 4701TIP3   OH235517   6.887   2.289  12.099
 4701TIP3    H135518   6.797   2.286  12.067
 4701TIP3    H235519   6.897   2.378  12.131
 4702TIP3   OH235520   6.733   3.086  13.375
 4702TIP3    H135521   6.707   3.034  13.451
 4702TIP3    H235522   6.684   3.167  13.384
 4703TIP3   OH235523   6.956   2.518  12.247
 4703TIP3    H135524   7.043   2.497  12.281
 4703TIP3    H235525   6.967   2.605  12.207
 4704TIP3   OH235526   6.065   2.997  12.807
 4704TIP3    H135527   6.108   2.976  12.724
 4704TIP3    H235528   6.085   2.924  12.864
 4705TIP3   OH235529   6.726   3.170  12.172
 4705TIP3    H135530   6.694   3.261  12.177
 4705TIP3    H235531   6.649   3.117  12.194
 4706TIP3   OH235532   5.748   2.791  13.338
 4706TIP3    H135533   5.712   2.742  13.412
 4706TIP3    H235534   5.685   2.776  13.267
 4707TIP3   OH235535   6.468   2.784  13.566
 4707TIP3    H135536   6.400   2.746  13.510
 4707TIP3    H235537   6.547   2.734  13.546
 4708TIP3   OH235538   6.881   3.377  13.367
 4708TIP3    H135539   6.788   3.361  13.348
 4708TIP3    H235540   6.888   3.369  13.462
 4709TIP3   OH235541   6.970   2.924  12.923
 4709TIP3    H135542   6.878   2.910  12.901
 4709TIP3    H235543   7.016   2.852  12.880
 4710TIP3   OH235544   6.292   3.333  12.587
 4710TIP3    H135545   6.324   3.414  12.548
 4710TIP3    H235546   6.207   3.319  12.545
 4711TIP3   OH235547   5.862   2.776  12.043
 4711TIP3    H135548   5.909   2.845  12.090
 4711TIP3    H235549   5.771   2.784  12.071
 4712TIP3   OH235550   6.377   3.093  12.469
 4712TIP3    H135551   6.369   3.175  12.517
 4712TIP3    H235552   6.321   3.032  12.516
 4713TIP3   OH235553   6.484   3.509  13.161
 4713TIP3    H135554   6.542   3.583  13.145
 4713TIP3    H235555   6.538   3.446  13.209
 4714TIP3   OH235556   6.287   3.593  12.472
 4714TIP3    H135557   6.194   3.605  12.489
 4714TIP3    H235558   6.327   3.674  12.502
 4715TIP3   OH235559   6.796   3.120  13.101
 4715TIP3    H135560   6.779   3.098  13.193
 4715TIP3    H235561   6.860   3.055  13.072
 4716TIP3   OH235562   7.067   3.175  12.034
 4716TIP3    H135563   7.078   3.161  12.128
 4716TIP3    H235564   6.973   3.173  12.020
 4717TIP3   OH235565   7.086   3.555  13.339
 4717TIP3    H135566   7.012   3.495  13.327
 4717TIP3    H235567   7.077   3.618  13.267
 4718TIP3   OH235568   5.876   2.300  13.284
 4718TIP3    H135569   5.785   2.326  13.273
 4718TIP3    H235570   5.873   2.223  13.340
 4719TIP3   OH235571   7.139   3.107  12.297
 4719TIP3    H135572   7.121   3.018  12.326
 4719TIP3    H235573   7.235   3.111  12.291
 4720TIP3   OH235574   5.892   3.435  13.120
 4720TIP3    H135575   5.958   3.365  13.114
 4720TIP3    H235576   5.855   3.425  13.208
 4721TIP3   OH235577   6.444   3.305  11.885
 4721TIP3    H135578   6.449   3.222  11.838
 4721TIP3    H235579   6.400   3.284  11.967
 4722TIP3   OH235580   6.320   3.279  12.132
 4722TIP3    H135581   6.371   3.226  12.193
 4722TIP3    H235582   6.334   3.369  12.161
 4723TIP3   OH235583   5.966   2.990  12.195
 4723TIP3    H135584   5.895   3.038  12.237
 4723TIP3    H235585   6.011   3.056  12.142
 4724TIP3   OH235586   6.785   2.250  13.225
 4724TIP3    H135587   6.859   2.265  13.284
 4724TIP3    H235588   6.749   2.166  13.252
 4725TIP3   OH235589   6.838   2.185  12.351
 4725TIP3    H135590   6.857   2.219  12.264
 4725TIP3    H235591   6.885   2.244  12.410
 4726TIP3   OH235592   6.626   3.421  12.187
 4726TIP3    H135593   6.537   3.453  12.205
 4726TIP3    H235594   6.668   3.495  12.143
 4727TIP3   OH235595   6.541   2.416  12.407
 4727TIP3    H135596   6.615   2.477  12.413
 4727TIP3    H235597   6.534   2.377  12.494
 4728TIP3   OH235598   6.637   2.484  13.285
 4728TIP3    H135599   6.649   2.510  13.376
 4728TIP3    H235600   6.682   2.400  13.278
 4729TIP3   OH235601   6.614   2.077  12.461
 4729TIP3    H135602   6.589   2.147  12.520
 4729TIP3    H235603   6.696   2.108  12.421
 4730TIP3   OH235604   6.377   3.535  12.218
 4730TIP3    H135605   6.380   3.619  12.172
 4730TIP3    H235606   6.344   3.557  12.306
 4731TIP3   OH235607   6.216   2.234  12.163
 4731TIP3    H135608   6.210   2.318  12.209
 4731TIP3    H235609   6.303   2.201  12.186
 4732TIP3   OH235610   7.276   2.287  13.377
 4732TIP3    H135611   7.188   2.321  13.362
 4732TIP3    H235612   7.273   2.197  13.344
 4733TIP3   OH235613   7.074   2.690  12.810
 4733TIP3    H135614   7.001   2.636  12.780
 4733TIP3    H235615   7.120   2.634  12.873
 4734TIP3   OH235616   6.068   3.202  12.039
 4734TIP3    H135617   6.143   3.247  12.078
 4734TIP3    H235618   6.106   3.146  11.971
 4735TIP3   OH235619   5.849   2.504  11.974
 4735TIP3    H135620   5.865   2.596  11.997
 4735TIP3    H235621   5.802   2.507  11.891
 4736TIP3   OH235622   7.232   3.619  12.948
 4736TIP3    H135623   7.218   3.684  12.879
 4736TIP3    H235624   7.326   3.599  12.944
 4737TIP3   OH235625   5.959   1.997  12.823
 4737TIP3    H135626   5.950   1.988  12.728
 4737TIP3    H235627   5.923   1.916  12.858
 4738TIP3   OH235628   5.842   3.420  12.423
 4738TIP3    H135629   5.766   3.438  12.479
 4738TIP3    H235630   5.831   3.479  12.348
 4739TIP3   OH235631   5.800   3.680  13.611
 4739TIP3    H135632   5.869   3.651  13.671
 4739TIP3    H235633   5.763   3.599  13.576
 4740TIP3   OH235634   6.235   3.512  13.740
 4740TIP3    H135635   6.313   3.461  13.764
 4740TIP3    H235636   6.211   3.480  13.653
 4741TIP3   OH235637   6.649   3.489  11.871
 4741TIP3    H135638   6.582   3.421  11.880
 4741TIP3    H235639   6.726   3.443  11.838
 4742TIP3   OH235640   6.876   3.379  13.644
 4742TIP3    H135641   6.850   3.295  13.683
 4742TIP3    H235642   6.953   3.405  13.693
 4743TIP3   OH235643   7.098   3.432  11.929
 4743TIP3    H135644   7.114   3.343  11.959
 4743TIP3    H235645   7.158   3.444  11.855
 4744TIP3   OH235646   5.775   3.067  13.674
 4744TIP3    H135647   5.781   2.971  13.669
 4744TIP3    H235648   5.705   3.090  13.613
 4745TIP3   OH235649   6.202   3.023  11.885
 4745TIP3    H135650   6.228   2.971  11.962
 4745TIP3    H235651   6.284   3.035  11.837
 4746TIP3   OH235652   6.435   3.055  13.635
 4746TIP3    H135653   6.418   3.100  13.552
 4746TIP3    H235654   6.459   2.966  13.610
 4747TIP3   OH235655   6.803   3.162  11.909
 4747TIP3    H135656   6.762   3.156  11.996
 4747TIP3    H235657   6.786   3.077  11.869
 4748TIP3   OH235658   6.989   2.964  13.376
 4748TIP3    H135659   7.064   3.023  13.365
 4748TIP3    H235660   6.912   3.020  13.370
 4749TIP3   OH235661   5.863   2.808  13.655
 4749TIP3    H135662   5.923   2.750  13.609
 4749TIP3    H235663   5.872   2.784  13.747
 4750TIP3   OH235664   6.308   2.886  12.108
 4750TIP3    H135665   6.257   2.836  12.172
 4750TIP3    H235666   6.358   2.819  12.061
 4751TIP3   OH235667   6.274   2.673  13.391
 4751TIP3    H135668   6.192   2.722  13.381
 4751TIP3    H235669   6.330   2.706  13.322
 4752TIP3   OH235670   6.463   2.715  11.952
 4752TIP3    H135671   6.458   2.741  11.860
 4752TIP3    H235672   6.557   2.699  11.968
 4753TIP3   OH235673   6.780   2.912  13.686
 4753TIP3    H135674   6.868   2.886  13.657
 4753TIP3    H235675   6.748   2.837  13.736
 4754TIP3   OH235676   6.313   2.408  13.458
 4754TIP3    H135677   6.320   2.350  13.382
 4754TIP3    H235678   6.303   2.496  13.421
 4755TIP3   OH235679   6.340   2.249  13.222
 4755TIP3    H135680   6.393   2.291  13.155
 4755TIP3    H235681   6.252   2.244  13.184
 4756TIP3   OH235682   6.462   2.774  13.222
 4756TIP3    H135683   6.554   2.765  13.199
 4756TIP3    H235684   6.433   2.853  13.177
 4757TIP3   OH235685   6.921   2.545  13.693
 4757TIP3    H135686   6.928   2.449  13.695
 4757TIP3    H235687   7.002   2.574  13.652
 4758TIP3   OH235688   7.040   2.840  13.613
 4758TIP3    H135689   7.029   2.886  13.530
 4758TIP3    H235690   7.087   2.760  13.591
 4759TIP3   OH235691   6.148   2.467  13.680
 4759TIP3    H135692   6.071   2.412  13.669
 4759TIP3    H235693   6.196   2.459  13.598
 4760TIP3   OH235694   6.402   1.984  13.289
 4760TIP3    H135695   6.381   2.074  13.268
 4760TIP3    H235696   6.335   1.932  13.244
 4761TIP3   OH235697   6.537   2.374  13.619
 4761TIP3    H135698   6.500   2.345  13.702
 4761TIP3    H235699   6.463   2.378  13.560
 4762TIP3   OH235700   6.803   2.319  13.531
 4762TIP3    H135701   6.713   2.320  13.562
 4762TIP3    H235702   6.851   2.268  13.597
 4763TIP3   OH235703   6.962   2.212  13.730
 4763TIP3    H135704   6.964   2.118  13.716
 4763TIP3    H235705   6.941   2.222  13.823
 4764TIP3   OH235706   5.955   2.265  13.648
 4764TIP3    H135707   5.950   2.190  13.589
 4764TIP3    H235708   5.964   2.227  13.735
 4765TIP3   OH235709   6.390   1.900  13.550
 4765TIP3    H135710   6.449   1.824  13.545
 4765TIP3    H235711   6.386   1.933  13.461
 4766TIP3   OH235712   6.467   2.060  13.761
 4766TIP3    H135713   6.446   2.008  13.684
 4766TIP3    H235714   6.408   2.135  13.756
 4767TIP3   OH235715   6.446   3.779  12.100
 4767TIP3    H135716   6.535   3.745  12.086
 4767TIP3    H235717   6.432   3.840  12.028
 4768TIP3   OH235718   5.798   3.239  12.003
 4768TIP3    H135719   5.893   3.235  12.016
 4768TIP3    H235720   5.781   3.171  11.937
 4769TIP3   OH235721   5.666   3.744  12.533
 4769TIP3    H135722   5.611   3.712  12.462
 4769TIP3    H235723   5.685   3.667  12.586
 4770TIP3   OH235724   5.730   3.535  12.699
 4770TIP3    H135725   5.697   3.453  12.736
 4770TIP3    H235726   5.767   3.581  12.774
 4771TIP3   OH235727   7.251   3.345  13.232
 4771TIP3    H135728   7.207   3.424  13.262
 4771TIP3    H235729   7.219   3.333  13.142
 4772TIP3   OH235730   7.187   2.670  12.554
 4772TIP3    H135731   7.197   2.575  12.561
 4772TIP3    H235732   7.164   2.699  12.642
 4773TIP3   OH235733   5.730   2.879  12.947
 4773TIP3    H135734   5.738   2.859  12.853
 4773TIP3    H235735   5.813   2.849  12.985
 4774TIP3   OH235736   7.239   2.259  11.902
 4774TIP3    H135737   7.269   2.168  11.908
 4774TIP3    H235738   7.146   2.251  11.879
 4775TIP3   OH235739   7.204   2.418  12.362
 4775TIP3    H135740   7.259   2.377  12.429
 4775TIP3    H235741   7.247   2.394  12.280
 4776TIP3   OH235742   7.254   2.350  12.950
 4776TIP3    H135743   7.337   2.317  12.914
 4776TIP3    H235744   7.270   2.442  12.968
 4777TIP3   OH235745   7.255   2.613  13.255
 4777TIP3    H135746   7.163   2.637  13.244
 4777TIP3    H235747   7.286   2.597  13.166
 4778TIP3   OH235748   5.726   2.413  13.613
 4778TIP3    H135749   5.812   2.370  13.620
 4778TIP3    H235750   5.667   2.342  13.589
 4779TIP3   OH235751   7.239   2.117  12.470
 4779TIP3    H135752   7.285   2.035  12.488
 4779TIP3    H235753   7.162   2.091  12.419
 4780TIP3   OH235754   5.831   2.242  12.846
 4780TIP3    H135755   5.868   2.153  12.846
 4780TIP3    H235756   5.905   2.299  12.862
 4781TIP3   OH235757   5.646   2.518  12.934
 4781TIP3    H135758   5.709   2.511  12.863
 4781TIP3    H235759   5.675   2.595  12.984
 4782TIP3   OH235760   5.694   2.165  12.349
 4782TIP3    H135761   5.599   2.155  12.355
 4782TIP3    H235762   5.707   2.229  12.280
 4783TIP3   OH235763   7.121   3.626  12.602
 4783TIP3    H135764   7.197   3.568  12.604
 4783TIP3    H235765   7.148   3.704  12.650
 4784TIP3   OH235766   5.696   2.014  13.181
 4784TIP3    H135767   5.625   2.002  13.244
 4784TIP3    H235768   5.662   2.077  13.118
 4785TIP3   OH235769   5.899   3.383  13.591
 4785TIP3    H135770   5.810   3.393  13.557
 4785TIP3    H235771   5.893   3.311  13.654
 4786TIP3   OH235772   6.219   3.474  13.230
 4786TIP3    H135773   6.181   3.550  13.186
 4786TIP3    H235774   6.313   3.481  13.214
 4787TIP3   OH235775   6.605   3.607  13.504
 4787TIP3    H135776   6.613   3.574  13.594
 4787TIP3    H235777   6.692   3.640  13.483
 4788TIP3   OH235778   6.857   3.721  13.469
 4788TIP3    H135779   6.921   3.662  13.430
 4788TIP3    H235780   6.899   3.752  13.549
 4789TIP3   OH235781   5.959   3.865  13.240
 4789TIP3    H135782   5.869   3.870  13.208
 4789TIP3    H235783   5.951   3.872  13.335
 4790TIP3   OH235784   6.139   3.686  13.062
 4790TIP3    H135785   6.045   3.672  13.052
 4790TIP3    H235786   6.178   3.638  12.990
 4791TIP3   OH235787   6.604   3.750  13.094
 4791TIP3    H135788   6.596   3.781  13.003
 4791TIP3    H235789   6.650   3.820  13.139
 4792TIP3   OH235790   6.840   3.611  13.164
 4792TIP3    H135791   6.767   3.654  13.121
 4792TIP3    H235792   6.916   3.666  13.143
 4793TIP3   OH235793   7.075   3.750  13.132
 4793TIP3    H135794   7.102   3.841  13.124
 4793TIP3    H235795   7.132   3.703  13.071
 4794TIP3   OH235796   5.891   3.634  12.928
 4794TIP3    H135797   5.869   3.570  12.996
 4794TIP3    H235798   5.957   3.591  12.874
 4795TIP3   OH235799   6.098   3.507  12.811
 4795TIP3    H135800   6.084   3.416  12.838
 4795TIP3    H235801   6.194   3.516  12.809
 4796TIP3   OH235802   6.364   3.541  12.912
 4796TIP3    H135803   6.375   3.454  12.874
 4796TIP3    H235804   6.404   3.535  12.999
 4797TIP3   OH235805   6.674   2.100  12.809
 4797TIP3    H135806   6.608   2.032  12.824
 4797TIP3    H235807   6.746   2.056  12.765
 4798TIP3   OH235808   7.170   1.944  12.776
 4798TIP3    H135809   7.212   2.030  12.764
 4798TIP3    H235810   7.077   1.962  12.768
 4799TIP3   OH235811   5.924   1.965  12.551
 4799TIP3    H135812   5.832   1.950  12.529
 4799TIP3    H235813   5.967   1.881  12.536
 4800TIP3   OH235814   5.838   1.981  12.173
 4800TIP3    H135815   5.887   2.036  12.112
 4800TIP3    H235816   5.795   2.042  12.233
 4801TIP3   OH235817   6.404   1.931  12.574
 4801TIP3    H135818   6.475   1.979  12.530
 4801TIP3    H235819   6.428   1.934  12.667
 4802TIP3   OH235820   6.897   1.968  12.707
 4802TIP3    H135821   6.914   1.952  12.615
 4802TIP3    H235822   6.871   1.883  12.742
 4803TIP3   OH235823   7.042   1.996  12.330
 4803TIP3    H135824   6.959   2.042  12.319
 4803TIP3    H235825   7.019   1.904  12.317
 4804TIP3   OH235826   5.805   3.599  12.219
 4804TIP3    H135827   5.730   3.591  12.160
 4804TIP3    H235828   5.828   3.692  12.217
 4805TIP3   OH235829   6.017   2.124  11.995
 4805TIP3    H135830   6.067   2.066  11.938
 4805TIP3    H235831   6.082   2.160  12.056
 4806TIP3   OH235832   6.479   2.206  12.241
 4806TIP3    H135833   6.509   2.130  12.291
 4806TIP3    H235834   6.504   2.281  12.295
 4807TIP3   OH235835   6.696   3.669  12.069
 4807TIP3    H135836   6.790   3.682  12.059
 4807TIP3    H235837   6.671   3.619  11.991
 4808TIP3   OH235838   5.938   2.020  13.506
 4808TIP3    H135839   5.878   1.951  13.535
 4808TIP3    H235840   6.019   2.003  13.554
 4809TIP3   OH235841   6.144   1.958  13.681
 4809TIP3    H135842   6.227   1.932  13.642
 4809TIP3    H235843   6.109   1.877  13.720
 4810TIP3   OH235844   6.000   3.637  11.919
 4810TIP3    H135845   5.970   3.619  12.008
 4810TIP3    H235846   6.076   3.580  11.907
 4811TIP3   OH235847   6.984   1.935  13.697
 4811TIP3    H135848   6.972   1.879  13.774
 4811TIP3    H235849   7.078   1.933  13.680
 4812TIP3   OH235850   7.212   3.515  13.585
 4812TIP3    H135851   7.177   3.505  13.497
 4812TIP3    H235852   7.228   3.609  13.594
 4813TIP3   OH235853   1.184   4.792  12.542
 4813TIP3    H135854   1.170   4.887  12.540
 4813TIP3    H235855   1.119   4.757  12.481
 4814TIP3   OH235856   1.078   4.715  12.935
 4814TIP3    H135857   1.104   4.671  13.016
 4814TIP3    H235858   1.031   4.648  12.885
 4815TIP3   OH235859   0.307   4.639  13.042
 4815TIP3    H135860   0.313   4.569  13.106
 4815TIP3    H235861   0.398   4.659  13.019
 4816TIP3   OH235862   1.460   5.017  12.757
 4816TIP3    H135863   1.419   4.946  12.807
 4816TIP3    H235864   1.481   5.083  12.823
 4817TIP3   OH235865   0.409   5.119  12.863
 4817TIP3    H135866   0.388   5.029  12.838
 4817TIP3    H235867   0.503   5.116  12.883
 4818TIP3   OH235868   0.129   4.503  12.421
 4818TIP3    H135869   0.111   4.580  12.475
 4818TIP3    H235870   0.045   4.482  12.380
 4819TIP3   OH235871   0.153   4.695  12.685
 4819TIP3    H135872   0.184   4.611  12.718
 4819TIP3    H235873   0.228   4.754  12.693
 4820TIP3   OH235874   1.179   5.508  12.779
 4820TIP3    H135875   1.216   5.446  12.716
 4820TIP3    H235876   1.141   5.452  12.847
 4821TIP3   OH235877   0.914   4.968  12.947
 4821TIP3    H135878   0.955   4.892  12.904
 4821TIP3    H235879   0.982   5.002  13.004
 4822TIP3   OH235880   1.807   4.108  13.039
 4822TIP3    H135881   1.823   4.182  13.098
 4822TIP3    H235882   1.863   4.124  12.964
 4823TIP3   OH235883   1.231   4.383  12.956
 4823TIP3    H135884   1.249   4.289  12.967
 4823TIP3    H235885   1.217   4.394  12.862
 4824TIP3   OH235886   0.591   4.195  12.683
 4824TIP3    H135887   0.601   4.281  12.642
 4824TIP3    H235888   0.542   4.143  12.619
 4825TIP3   OH235889   1.353   4.228  12.527
 4825TIP3    H135890   1.394   4.196  12.607
 4825TIP3    H235891   1.424   4.265  12.475
 4826TIP3   OH235892   0.225   4.445  12.781
 4826TIP3    H135893   0.297   4.408  12.833
 4826TIP3    H235894   0.241   4.412  12.692
 4827TIP3   OH235895   0.705   4.591  12.742
 4827TIP3    H135896   0.791   4.559  12.765
 4827TIP3    H235897   0.672   4.528  12.677
 4828TIP3   OH235898   1.842   4.276  13.266
 4828TIP3    H135899   1.771   4.337  13.243
 4828TIP3    H235900   1.860   4.294  13.359
 4829TIP3   OH235901   0.434   4.117  13.116
 4829TIP3    H135902   0.412   4.172  13.040
 4829TIP3    H235903   0.362   4.132  13.178
 4830TIP3   OH235904   1.108   5.042  12.457
 4830TIP3    H135905   1.120   5.053  12.362
 4830TIP3    H235906   1.077   5.128  12.487
 4831TIP3   OH235907   0.697   4.882  13.094
 4831TIP3    H135908   0.643   4.953  13.129
 4831TIP3    H235909   0.767   4.926  13.046
 4832TIP3   OH235910   1.453   4.177  12.777
 4832TIP3    H135911   1.394   4.142  12.843
 4832TIP3    H235912   1.516   4.230  12.826
 4833TIP3   OH235913   0.425   4.277  12.888
 4833TIP3    H135914   0.482   4.333  12.942
 4833TIP3    H235915   0.482   4.243  12.820
 4834TIP3   OH235916   0.538   5.080  13.203
 4834TIP3    H135917   0.551   5.174  13.189
 4834TIP3    H235918   0.447   5.072  13.232
 4835TIP3   OH235919   0.108   5.049  12.270
 4835TIP3    H135920   0.106   5.079  12.179
 4835TIP3    H235921   0.140   5.124  12.319
 4836TIP3   OH235922   1.499   5.217  12.962
 4836TIP3    H135923   1.405   5.222  12.977
 4836TIP3    H235924   1.523   5.306  12.935
 4837TIP3   OH235925   1.554   4.006  13.126
 4837TIP3    H135926   1.484   4.048  13.076
 4837TIP3    H235927   1.635   4.033  13.083
 4838TIP3   OH235928   0.799   3.803  12.858
 4838TIP3    H135929   0.770   3.712  12.858
 4838TIP3    H235930   0.722   3.853  12.887
 4839TIP3   OH235931   1.300   5.369  12.572
 4839TIP3    H135932   1.340   5.284  12.552
 4839TIP3    H235933   1.374   5.429  12.577
 4840TIP3   OH235934   1.428   5.139  12.508
 4840TIP3    H135935   1.448   5.079  12.437
 4840TIP3    H235936   1.443   5.088  12.588
 4841TIP3   OH235937   1.612   5.000  13.320
 4841TIP3    H135938   1.600   4.947  13.241
 4841TIP3    H235939   1.621   5.089  13.288
 4842TIP3   OH235940   1.044   4.711  12.313
 4842TIP3    H135941   0.978   4.777  12.292
 4842TIP3    H235942   1.112   4.723  12.246
 4843TIP3   OH235943   1.075   4.587  11.973
 4843TIP3    H135944   1.131   4.613  12.047
 4843TIP3    H235945   1.127   4.523  11.925
 4844TIP3   OH235946   1.772   4.676  13.149
 4844TIP3    H135947   1.700   4.738  13.135
 4844TIP3    H235948   1.831   4.691  13.076
 4845TIP3   OH235949   1.403   4.732  12.388
 4845TIP3    H135950   1.334   4.754  12.452
 4845TIP3    H235951   1.468   4.684  12.439
 4846TIP3   OH235952   1.376   4.539  13.336
 4846TIP3    H135953   1.368   4.612  13.398
 4846TIP3    H235954   1.312   4.558  13.268
 4847TIP3   OH235955   0.553   4.774  12.585
 4847TIP3    H135956   0.529   4.738  12.499
 4847TIP3    H235957   0.612   4.709  12.623
 4848TIP3   OH235958   0.695   5.134  12.859
 4848TIP3    H135959   0.695   5.142  12.764
 4848TIP3    H235960   0.775   5.083  12.878
 4849TIP3   OH235961   0.564   4.687  12.958
 4849TIP3    H135962   0.618   4.663  12.882
 4849TIP3    H235963   0.615   4.754  13.003
 4850TIP3   OH235964   1.238   5.238  13.033
 4850TIP3    H135965   1.217   5.311  13.091
 4850TIP3    H235966   1.189   5.164  13.070
 4851TIP3   OH235967   0.695   5.112  13.429
 4851TIP3    H135968   0.637   5.178  13.468
 4851TIP3    H235969   0.650   5.085  13.349
 4852TIP3   OH235970   1.280   4.663  12.152
 4852TIP3    H135971   1.327   4.699  12.227
 4852TIP3    H235972   1.336   4.683  12.077
 4853TIP3   OH235973   0.382   4.715  13.373
 4853TIP3    H135974   0.391   4.787  13.435
 4853TIP3    H235975   0.326   4.750  13.303
 4854TIP3   OH235976   1.035   5.307  12.521
 4854TIP3    H135977   1.125   5.330  12.545
 4854TIP3    H235978   1.006   5.377  12.463
 4855TIP3   OH235979   0.508   5.302  13.502
 4855TIP3    H135980   0.512   5.355  13.423
 4855TIP3    H235981   0.414   5.292  13.519
 4856TIP3   OH235982   1.644   3.815  12.145
 4856TIP3    H135983   1.559   3.838  12.182
 4856TIP3    H235984   1.680   3.897  12.112
 4857TIP3   OH235985   0.467   4.690  12.329
 4857TIP3    H135986   0.415   4.759  12.289
 4857TIP3    H235987   0.416   4.610  12.316
 4858TIP3   OH235988   1.784   5.259  12.004
 4858TIP3    H135989   1.797   5.353  12.005
 4858TIP3    H235990   1.872   5.222  12.008
 4859TIP3   OH235991   0.183   4.861  13.232
 4859TIP3    H135992   0.149   4.853  13.143
 4859TIP3    H235993   0.122   4.809  13.286
 4860TIP3   OH235994   0.153   5.246  12.882
 4860TIP3    H135995   0.230   5.189  12.873
 4860TIP3    H235996   0.152   5.271  12.975
 4861TIP3   OH235997   1.864   5.313  13.521
 4861TIP3    H135998   1.855   5.219  13.503
 4861TIP3    H235999   1.776   5.340  13.548
 4862TIP3   OH236000   0.940   5.225  13.371
 4862TIP3    H136001   0.942   5.310  13.414
 4862TIP3    H236002   0.852   5.191  13.389
 4863TIP3   OH236003   0.964   5.594  12.341
 4863TIP3    H136004   1.011   5.577  12.259
 4863TIP3    H236005   1.017   5.662  12.384
 4864TIP3   OH236006   0.395   5.458  12.530
 4864TIP3    H136007   0.399   5.435  12.622
 4864TIP3    H236008   0.330   5.398  12.493
 4865TIP3   OH236009   1.368   5.569  12.040
 4865TIP3    H136010   1.395   5.484  12.006
 4865TIP3    H236011   1.337   5.550  12.129
 4866TIP3   OH236012   1.291   5.527  12.314
 4866TIP3    H136013   1.220   5.465  12.297
 4866TIP3    H236014   1.335   5.491  12.391
 4867TIP3   OH236015   1.549   4.423  13.541
 4867TIP3    H136016   1.496   4.460  13.471
 4867TIP3    H236017   1.561   4.331  13.516
 4868TIP3   OH236018   0.288   5.095  13.329
 4868TIP3    H136019   0.325   5.060  13.410
 4868TIP3    H236020   0.239   5.022  13.291
 4869TIP3   OH236021   0.553   3.919  12.948
 4869TIP3    H136022   0.479   3.910  12.889
 4869TIP3    H236023   0.528   3.990  13.008
 4870TIP3   OH236024   1.028   3.890  13.286
 4870TIP3    H136025   1.072   3.836  13.351
 4870TIP3    H236026   0.935   3.878  13.303
 4871TIP3   OH236027   1.321   4.264  13.361
 4871TIP3    H136028   1.261   4.257  13.436
 4871TIP3    H236029   1.328   4.357  13.344
 4872TIP3   OH236030   1.440   4.689  11.928
 4872TIP3    H136031   1.410   4.718  11.843
 4872TIP3    H236032   1.526   4.729  11.939
 4873TIP3   OH236033   0.981   4.121  12.014
 4873TIP3    H136034   0.923   4.118  12.090
 4873TIP3    H236035   0.944   4.057  11.954
 4874TIP3   OH236036   0.566   4.432  13.069
 4874TIP3    H136037   0.500   4.435  13.138
 4874TIP3    H236038   0.573   4.522  13.038
 4875TIP3   OH236039   0.579   4.436  12.553
 4875TIP3    H136040   0.484   4.424  12.554
 4875TIP3    H236041   0.605   4.419  12.462
 4876TIP3   OH236042   1.104   4.467  12.426
 4876TIP3    H136043   1.078   4.553  12.392
 4876TIP3    H236044   1.174   4.438  12.368
 4877TIP3   OH236045   1.018   4.483  13.543
 4877TIP3    H136046   0.971   4.409  13.581
 4877TIP3    H236047   1.103   4.482  13.587
 4878TIP3   OH236048   1.201   4.407  12.684
 4878TIP3    H136049   1.160   4.458  12.615
 4878TIP3    H236050   1.245   4.335  12.639
 4879TIP3   OH236051   0.344   4.440  13.237
 4879TIP3    H136052   0.343   4.498  13.313
 4879TIP3    H236053   0.303   4.359  13.267
 4880TIP3   OH236054   0.665   4.173  11.910
 4880TIP3    H136055   0.631   4.163  11.999
 4880TIP3    H236056   0.609   4.240  11.870
 4881TIP3   OH236057   0.021   4.225  12.599
 4881TIP3    H136058   0.084   4.206  12.668
 4881TIP3    H236059  -0.010   4.139  12.570
 4882TIP3   OH236060   0.047   4.255  12.136
 4882TIP3    H136061   0.113   4.315  12.100
 4882TIP3    H236062  -0.001   4.224  12.059
 4883TIP3   OH236063   1.162   4.554  13.153
 4883TIP3    H136064   1.193   4.498  13.083
 4883TIP3    H236065   1.091   4.504  13.194
 4884TIP3   OH236066   0.872   4.150  12.639
 4884TIP3    H136067   0.782   4.156  12.672
 4884TIP3    H236068   0.923   4.117  12.713
 4885TIP3   OH236069   0.320   4.346  12.542
 4885TIP3    H136070   0.255   4.384  12.483
 4885TIP3    H236071   0.339   4.260  12.504
 4886TIP3   OH236072   0.630   4.359  12.294
 4886TIP3    H136073   0.725   4.353  12.305
 4886TIP3    H236074   0.618   4.401  12.209
 4887TIP3   OH236075   1.254   4.106  12.969
 4887TIP3    H136076   1.207   4.113  13.052
 4887TIP3    H236077   1.191   4.064  12.909
 4888TIP3   OH236078   0.584   4.453  12.042
 4888TIP3    H136079   0.529   4.431  11.967
 4888TIP3    H236080   0.659   4.499  12.004
 4889TIP3   OH236081   1.607   5.668  13.613
 4889TIP3    H136082   1.625   5.705  13.526
 4889TIP3    H236083   1.682   5.696  13.666
 4890TIP3   OH236084   0.368   4.927  13.553
 4890TIP3    H136085   0.427   4.927  13.628
 4890TIP3    H236086   0.281   4.942  13.591
 4891TIP3   OH236087   0.941   4.475  12.838
 4891TIP3    H136088   1.011   4.428  12.793
 4891TIP3    H236089   0.911   4.414  12.906
 4892TIP3   OH236090   0.433   4.092  12.476
 4892TIP3    H136091   0.390   4.010  12.502
 4892TIP3    H236092   0.457   4.078  12.384
 4893TIP3   OH236093   0.822   4.329  13.056
 4893TIP3    H136094   0.739   4.374  13.064
 4893TIP3    H236095   0.873   4.360  13.131
 4894TIP3   OH236096   0.850   4.905  12.242
 4894TIP3    H136097   0.779   4.865  12.193
 4894TIP3    H236098   0.812   4.926  12.328
 4895TIP3   OH236099   1.576   4.859  13.086
 4895TIP3    H136100   1.638   4.912  13.035
 4895TIP3    H236101   1.503   4.843  13.027
 4896TIP3   OH236102   1.236   4.173  12.097
 4896TIP3    H136103   1.145   4.170  12.068
 4896TIP3    H236104   1.247   4.260  12.134
 4897TIP3   OH236105   1.012   4.947  13.375
 4897TIP3    H136106   1.039   4.925  13.464
 4897TIP3    H236107   0.985   5.039  13.380
 4898TIP3   OH236108   1.308   4.400  12.243
 4898TIP3    H136109   1.396   4.385  12.278
 4898TIP3    H236110   1.310   4.489  12.208
 4899TIP3   OH236111   0.386   4.844  12.790
 4899TIP3    H136112   0.440   4.835  12.711
 4899TIP3    H236113   0.431   4.794  12.857
 4900TIP3   OH236114   1.072   5.045  12.169
 4900TIP3    H136115   1.046   5.136  12.180
 4900TIP3    H236116   0.995   4.994  12.192
 4901TIP3   OH236117   0.043   4.689  13.393
 4901TIP3    H136118   0.087   4.665  13.474
 4901TIP3    H236119   0.024   4.606  13.349
 4902TIP3   OH236120   0.806   4.664  13.567
 4902TIP3    H136121   0.740   4.630  13.506
 4902TIP3    H236122   0.886   4.617  13.544
 4903TIP3   OH236123   1.222   5.210  13.381
 4903TIP3    H136124   1.131   5.218  13.355
 4903TIP3    H236125   1.223   5.235  13.473
 4904TIP3   OH236126   1.768   4.434  12.195
 4904TIP3    H136127   1.738   4.412  12.107
 4904TIP3    H236128   1.790   4.527  12.190
 4905TIP3   OH236129   1.839   5.039  13.477
 4905TIP3    H136130   1.747   5.032  13.452
 4905TIP3    H236131   1.887   5.012  13.398
 4906TIP3   OH236132   1.638   5.290  12.242
 4906TIP3    H136133   1.601   5.207  12.272
 4906TIP3    H236134   1.684   5.269  12.161
 4907TIP3   OH236135   1.364   4.790  12.910
 4907TIP3    H136136   1.269   4.782  12.902
 4907TIP3    H236137   1.398   4.714  12.862
 4908TIP3   OH236138   0.651   5.205  12.593
 4908TIP3    H136139   0.705   5.277  12.560
 4908TIP3    H236140   0.561   5.234  12.576
 4909TIP3   OH236141   0.176   4.698  12.019
 4909TIP3    H136142   0.233   4.751  12.076
 4909TIP3    H236143   0.088   4.729  12.038
 4910TIP3   OH236144   0.717   4.966  12.469
 4910TIP3    H136145   0.705   5.049  12.515
 4910TIP3    H236146   0.660   4.905  12.515
 4911TIP3   OH236147   0.827   5.397  13.151
 4911TIP3    H136148   0.881   5.474  13.133
 4911TIP3    H236149   0.883   5.340  13.203
 4912TIP3   OH236150   0.630   5.549  12.417
 4912TIP3    H136151   0.544   5.517  12.443
 4912TIP3    H236152   0.663   5.596  12.494
 4913TIP3   OH236153   1.125   4.998  13.128
 4913TIP3    H136154   1.090   4.973  13.213
 4913TIP3    H236155   1.196   4.936  13.112
 4914TIP3   OH236156   1.420   5.089  12.040
 4914TIP3    H136157   1.428   5.054  12.129
 4914TIP3    H236158   1.331   5.069  12.013
 4915TIP3   OH236159   1.433   5.423  13.345
 4915TIP3    H136160   1.350   5.381  13.324
 4915TIP3    H236161   1.439   5.497  13.284
 4916TIP3   OH236162   1.830   5.528  12.031
 4916TIP3    H136163   1.874   5.599  11.984
 4916TIP3    H236164   1.757   5.570  12.075
 4917TIP3   OH236165   0.232   4.178  13.313
 4917TIP3    H136166   0.137   4.190  13.322
 4917TIP3    H236167   0.251   4.098  13.362
 4918TIP3   OH236168   1.498   4.972  12.286
 4918TIP3    H136169   1.457   4.892  12.319
 4918TIP3    H236170   1.591   4.952  12.285
 4919TIP3   OH236171   0.179   5.323  13.158
 4919TIP3    H136172   0.235   5.265  13.209
 4919TIP3    H236173   0.197   5.411  13.192
 4920TIP3   OH236174   0.797   5.178  11.882
 4920TIP3    H136175   0.796   5.096  11.834
 4920TIP3    H236176   0.745   5.161  11.961
 4921TIP3   OH236177   0.668   5.147  12.128
 4921TIP3    H136178   0.724   5.094  12.185
 4921TIP3    H236179   0.685   5.237  12.155
 4922TIP3   OH236180   0.308   4.872  12.193
 4922TIP3    H136181   0.237   4.920  12.236
 4922TIP3    H236182   0.355   4.939  12.143
 4923TIP3   OH236183   1.123   4.138  13.213
 4923TIP3    H136184   1.200   4.155  13.267
 4923TIP3    H236185   1.092   4.052  13.242
 4924TIP3   OH236186   1.210   4.062  12.354
 4924TIP3    H136187   1.218   4.101  12.267
 4924TIP3    H236188   1.252   4.125  12.412
 4925TIP3   OH236189   0.981   5.297  12.209
 4925TIP3    H136190   0.890   5.326  12.216
 4925TIP3    H236191   1.026   5.368  12.163
 4926TIP3   OH236192   0.886   4.300  12.404
 4926TIP3    H136193   0.960   4.361  12.410
 4926TIP3    H236194   0.881   4.260  12.491
 4927TIP3   OH236195   0.987   4.380  13.275
 4927TIP3    H136196   0.996   4.401  13.368
 4927TIP3    H236197   1.027   4.293  13.266
 4928TIP3   OH236198   0.970   3.963  12.454
 4928TIP3    H136199   0.945   4.032  12.515
 4928TIP3    H236200   1.056   3.990  12.421
 4929TIP3   OH236201   0.726   5.404  12.201
 4929TIP3    H136202   0.740   5.477  12.140
 4929TIP3    H236203   0.688   5.445  12.279
 4930TIP3   OH236204   0.562   4.117  12.167
 4930TIP3    H136205   0.558   4.202  12.210
 4930TIP3    H236206   0.649   4.083  12.190
 4931TIP3   OH236207   1.574   4.175  13.404
 4931TIP3    H136208   1.481   4.189  13.387
 4931TIP3    H236209   1.610   4.151  13.318
 4932TIP3   OH236210   1.442   4.543  12.788
 4932TIP3    H136211   1.360   4.500  12.765
 4932TIP3    H236212   1.488   4.479  12.842
 4933TIP3   OH236213   0.411   5.081  12.038
 4933TIP3    H136214   0.484   5.128  12.078
 4933TIP3    H236215   0.452   5.027  11.970
 4934TIP3   OH236216   0.201   4.423  11.985
 4934TIP3    H136217   0.204   4.518  12.000
 4934TIP3    H236218   0.168   4.414  11.896
 4935TIP3   OH236219   1.575   5.487  12.950
 4935TIP3    H136220   1.559   5.557  12.887
 4935TIP3    H236221   1.670   5.484  12.960
 4936TIP3   OH236222   0.305   3.895  12.825
 4936TIP3    H136223   0.311   3.881  12.730
 4936TIP3    H236224   0.272   3.812  12.859
 4937TIP3   OH236225   0.187   5.293  12.423
 4937TIP3    H136226   0.120   5.299  12.491
 4937TIP3    H236227   0.161   5.358  12.357
 4938TIP3   OH236228   0.166   5.570  13.612
 4938TIP3    H136229   0.208   5.551  13.696
 4938TIP3    H236230   0.220   5.525  13.547
 4939TIP3   OH236231   0.558   5.425  13.746
 4939TIP3    H136232   0.648   5.400  13.768
 4939TIP3    H236233   0.543   5.387  13.660
 4940TIP3   OH236234   1.000   5.362  11.886
 4940TIP3    H136235   0.932   5.295  11.885
 4940TIP3    H236236   1.074   5.321  11.841
 4941TIP3   OH236237   1.218   5.262  13.653
 4941TIP3    H136238   1.208   5.179  13.700
 4941TIP3    H236239   1.295   5.303  13.692
 4942TIP3   OH236240   1.441   5.336  11.910
 4942TIP3    H136241   1.456   5.257  11.961
 4942TIP3    H236242   1.516   5.340  11.849
 4943TIP3   OH236243   0.096   4.940  13.625
 4943TIP3    H136244   0.100   4.844  13.619
 4943TIP3    H236245   0.041   4.967  13.552
 4944TIP3   OH236246   0.546   4.901  11.885
 4944TIP3    H136247   0.575   4.857  11.965
 4944TIP3    H236248   0.627   4.915  11.836
 4945TIP3   OH236249   0.774   4.940  13.629
 4945TIP3    H136250   0.755   4.988  13.549
 4945TIP3    H236251   0.799   4.853  13.600
 4946TIP3   OH236252   1.173   5.038  11.914
 4946TIP3    H136253   1.125   5.036  11.997
 4946TIP3    H236254   1.144   4.959  11.868
 4947TIP3   OH236255   1.347   4.960  13.399
 4947TIP3    H136256   1.436   4.981  13.373
 4947TIP3    H236257   1.298   5.041  13.384
 4948TIP3   OH236258   0.191   4.664  13.624
 4948TIP3    H136259   0.280   4.654  13.591
 4948TIP3    H236260   0.200   4.672  13.719
 4949TIP3   OH236261   0.646   4.771  12.113
 4949TIP3    H136262   0.596   4.724  12.180
 4949TIP3    H236263   0.694   4.702  12.066
 4950TIP3   OH236264   0.613   4.557  13.382
 4950TIP3    H136265   0.536   4.615  13.375
 4950TIP3    H236266   0.675   4.592  13.319
 4951TIP3   OH236267   0.797   4.601  11.952
 4951TIP3    H136268   0.792   4.628  11.860
 4951TIP3    H236269   0.890   4.592  11.969
 4952TIP3   OH236270   1.124   4.801  13.680
 4952TIP3    H136271   1.195   4.762  13.629
 4952TIP3    H236272   1.091   4.728  13.733
 4953TIP3   OH236273   1.698   4.796  11.893
 4953TIP3    H136274   1.689   4.777  11.800
 4953TIP3    H236275   1.685   4.890  11.900
 4954TIP3   OH236276   0.658   4.295  13.454
 4954TIP3    H136277   0.667   4.237  13.378
 4954TIP3    H236278   0.646   4.382  13.417
 4955TIP3   OH236279   0.688   4.134  13.222
 4955TIP3    H136280   0.741   4.179  13.157
 4955TIP3    H236281   0.600   4.132  13.183
 4956TIP3   OH236282   0.805   4.670  13.230
 4956TIP3    H136283   0.898   4.689  13.241
 4956TIP3    H236284   0.770   4.747  13.185
 4957TIP3   OH236285   1.256   4.446  13.702
 4957TIP3    H136286   1.252   4.356  13.671
 4957TIP3    H236287   1.349   4.470  13.694
 4958TIP3   OH236288   1.385   4.736  13.545
 4958TIP3    H136289   1.359   4.815  13.498
 4958TIP3    H236290   1.481   4.736  13.539
 4959TIP3   OH236291   0.494   4.352  13.676
 4959TIP3    H136292   0.415   4.299  13.661
 4959TIP3    H236293   0.543   4.347  13.594
 4960TIP3   OH236294   0.750   3.869  13.286
 4960TIP3    H136295   0.728   3.959  13.264
 4960TIP3    H236296   0.684   3.817  13.240
 4961TIP3   OH236297   0.879   4.258  13.620
 4961TIP3    H136298   0.837   4.231  13.702
 4961TIP3    H236299   0.806   4.265  13.558
 4962TIP3   OH236300   1.156   4.217  13.572
 4962TIP3    H136301   1.062   4.208  13.592
 4962TIP3    H236302   1.198   4.150  13.626
 4963TIP3   OH236303   1.318   4.070  13.741
 4963TIP3    H136304   1.315   3.976  13.725
 4963TIP3    H236305   1.292   4.080  13.833
 4964TIP3   OH236306   0.293   4.157  13.649
 4964TIP3    H136307   0.295   4.084  13.588
 4964TIP3    H236308   0.310   4.118  13.735
 4965TIP3   OH236309   0.744   3.786  13.546
 4965TIP3    H136310   0.799   3.708  13.541
 4965TIP3    H236311   0.740   3.818  13.456
 4966TIP3   OH236312   0.812   3.945  13.761
 4966TIP3    H136313   0.794   3.893  13.682
 4966TIP3    H236314   0.752   4.019  13.755
 4967TIP3   OH236315   0.768   5.660  12.091
 4967TIP3    H136316   0.857   5.671  12.058
 4967TIP3    H236317   0.713   5.701  12.024
 4968TIP3   OH236318   0.138   5.096  11.996
 4968TIP3    H136319   0.233   5.101  12.000
 4968TIP3    H236320   0.119   5.048  11.915
 4969TIP3   OH236321   0.074   5.637  12.484
 4969TIP3    H136322   0.062   5.597  12.398
 4969TIP3    H236323   0.068   5.565  12.546
 4970TIP3   OH236324   0.086   5.429  12.682
 4970TIP3    H136325   0.089   5.346  12.729
 4970TIP3    H236326   0.132   5.491  12.739
 4971TIP3   OH236327   1.842   5.489  13.018
 4971TIP3    H136328   1.847   5.511  13.111
 4971TIP3    H236329   1.914   5.537  12.978
 4972TIP3   OH236330   1.776   5.476  13.296
 4972TIP3    H136331   1.727   5.406  13.254
 4972TIP3    H236332   1.829   5.432  13.362
 4973TIP3   OH236333   1.648   5.050  13.782
 4973TIP3    H136334   1.562   5.064  13.822
 4973TIP3    H236335   1.699   5.127  13.808
 4974TIP3   OH236336   1.762   4.894  12.302
 4974TIP3    H136337   1.830   4.961  12.310
 4974TIP3    H236338   1.784   4.830  12.370
 4975TIP3   OH236339   1.813   4.688  12.477
 4975TIP3    H136340   1.731   4.654  12.513
 4975TIP3    H236341   1.868   4.705  12.554
 4976TIP3   OH236342   1.819   4.977  13.006
 4976TIP3    H136343   1.866   4.916  12.949
 4976TIP3    H236344   1.842   5.064  12.972
 4977TIP3   OH236345   1.616   5.256  13.215
 4977TIP3    H136346   1.544   5.306  13.252
 4977TIP3    H236347   1.590   5.240  13.124
 4978TIP3   OH236348   1.817   4.693  12.118
 4978TIP3    H136349   1.772   4.726  12.040
 4978TIP3    H236350   1.803   4.762  12.184
 4979TIP3   OH236351   1.683   4.403  11.934
 4979TIP3    H136352   1.611   4.460  11.909
 4979TIP3    H236353   1.660   4.318  11.895
 4980TIP3   OH236354   1.569   4.571  12.543
 4980TIP3    H136355   1.570   4.480  12.514
 4980TIP3    H236356   1.532   4.567  12.631
 4981TIP3   OH236357   0.089   4.779  12.961
 4981TIP3    H136358   0.088   4.797  12.867
 4981TIP3    H236359   0.175   4.740  12.978
 4982TIP3   OH236360   1.660   4.753  13.511
 4982TIP3    H136361   1.723   4.685  13.492
 4982TIP3    H236362   1.677   4.821  13.446
 4983TIP3   OH236363   1.807   4.517  13.504
 4983TIP3    H136364   1.718   4.485  13.520
 4983TIP3    H236365   1.864   4.445  13.532
 4984TIP3   OH236366   1.599   4.155  11.837
 4984TIP3    H136367   1.637   4.108  11.912
 4984TIP3    H236368   1.507   4.129  11.837
 4985TIP3   OH236369   1.565   4.326  12.366
 4985TIP3    H136370   1.594   4.234  12.370
 4985TIP3    H236371   1.633   4.370  12.316
 4986TIP3   OH236372   1.601   4.357  12.933
 4986TIP3    H136373   1.692   4.375  12.909
 4986TIP3    H236374   1.598   4.375  13.027
 4987TIP3   OH236375   1.626   4.447  13.202
 4987TIP3    H136376   1.544   4.482  13.236
 4987TIP3    H236377   1.679   4.524  13.182
 4988TIP3   OH236378   0.074   4.326  13.636
 4988TIP3    H136379   0.155   4.278  13.618
 4988TIP3    H236380   0.021   4.265  13.687
 4989TIP3   OH236381   1.858   3.863  13.722
 4989TIP3    H136382   1.924   3.805  13.683
 4989TIP3    H236383   1.845   3.932  13.658
 4990TIP3   OH236384   1.628   4.054  12.385
 4990TIP3    H136385   1.647   4.014  12.470
 4990TIP3    H236386   1.561   3.997  12.347
 4991TIP3   OH236387   0.182   4.141  12.831
 4991TIP3    H136388   0.216   4.051  12.832
 4991TIP3    H236389   0.260   4.196  12.844
 4992TIP3   OH236390   0.025   4.503  12.968
 4992TIP3    H136391   0.095   4.483  12.906
 4992TIP3    H236392   0.025   4.598  12.976
 4993TIP3   OH236393   1.782   4.039  13.528
 4993TIP3    H136394   1.704   4.094  13.523
 4993TIP3    H236395   1.773   3.978  13.455
 4994TIP3   OH236396   1.761   4.037  12.029
 4994TIP3    H136397   1.811   3.980  11.971
 4994TIP3    H236398   1.827   4.095  12.068
 4995TIP3   OH236399   0.131   4.037  12.285
 4995TIP3    H136400   0.059   4.033  12.348
 4995TIP3    H236401   0.113   4.115  12.232
 4996TIP3   OH236402   1.495   5.555  12.555
 4996TIP3    H136403   1.566   5.548  12.491
 4996TIP3    H236404   1.533   5.604  12.628
 4997TIP3   OH236405   0.055   3.908  13.218
 4997TIP3    H136406   0.023   3.975  13.278
 4997TIP3    H236407   0.007   3.924  13.136
 4998TIP3   OH236408   0.239   5.278  13.572
 4998TIP3    H136409   0.183   5.237  13.507
 4998TIP3    H236410   0.184   5.286  13.650
 4999TIP3   OH236411   0.562   5.350  13.211
 4999TIP3    H136412   0.517   5.425  13.171
 4999TIP3    H236413   0.655   5.371  13.201
 5000TIP3   OH236414   0.957   5.466  13.498
 5000TIP3    H136415   0.958   5.451  13.592
 5000TIP3    H236416   1.034   5.520  13.481
 5001TIP3   OH236417   1.183   5.617  13.472
 5001TIP3    H136418   1.251   5.581  13.415
 5001TIP3    H236419   1.231   5.649  13.549
 5002TIP3   OH236420   1.696   3.842  13.346
 5002TIP3    H136421   1.629   3.866  13.282
 5002TIP3    H236422   1.719   3.752  13.324
 5003TIP3   OH236423   0.213   5.581  13.262
 5003TIP3    H136424   0.173   5.668  13.256
 5003TIP3    H236425   0.300   5.597  13.298
 5004TIP3   OH236426   0.473   5.584  13.091
 5004TIP3    H136427   0.482   5.620  13.179
 5004TIP3    H236428   0.509   5.652  13.034
 5005TIP3   OH236429   0.987   5.608  13.070
 5005TIP3    H136430   0.935   5.641  12.996
 5005TIP3    H236431   0.994   5.683  13.129
 5006TIP3   OH236432   1.211   5.481  13.167
 5006TIP3    H136433   1.132   5.522  13.132
 5006TIP3    H236434   1.281   5.542  13.144
 5007TIP3   OH236435   1.455   5.626  13.156
 5007TIP3    H136436   1.472   5.719  13.137
 5007TIP3    H236437   1.494   5.579  13.083
 5008TIP3   OH236438   0.231   5.540  12.909
 5008TIP3    H136439   0.260   5.554  12.999
 5008TIP3    H236440   0.296   5.481  12.872
 5009TIP3   OH236441   0.433   5.389  12.794
 5009TIP3    H136442   0.419   5.298  12.820
 5009TIP3    H236443   0.516   5.413  12.834
 5010TIP3   OH236444   0.693   5.414  12.900
 5010TIP3    H136445   0.704   5.320  12.883
 5010TIP3    H236446   0.725   5.426  12.989
 5011TIP3   OH236447   1.036   3.991  12.806
 5011TIP3    H136448   0.973   3.921  12.822
 5011TIP3    H236449   1.109   3.949  12.760
 5012TIP3   OH236450   1.527   3.835  12.800
 5012TIP3    H136451   1.589   3.886  12.749
 5012TIP3    H236452   1.441   3.870  12.775
 5013TIP3   OH236453   1.712   3.927  12.618
 5013TIP3    H136454   1.776   3.861  12.592
 5013TIP3    H236455   1.764   4.005  12.637
 5014TIP3   OH236456   0.314   3.853  12.553
 5014TIP3    H136457   0.226   3.845  12.516
 5014TIP3    H236458   0.353   3.767  12.541
 5015TIP3   OH236459   0.225   3.826  12.138
 5015TIP3    H136460   0.274   3.874  12.071
 5015TIP3    H236461   0.192   3.894  12.198
 5016TIP3   OH236462   0.756   3.818  12.573
 5016TIP3    H136463   0.826   3.866  12.529
 5016TIP3    H236464   0.780   3.821  12.666
 5017TIP3   OH236465   1.258   3.863  12.701
 5017TIP3    H136466   1.289   3.845  12.612
 5017TIP3    H236467   1.236   3.777  12.736
 5018TIP3   OH236468   1.422   3.887  12.294
 5018TIP3    H136469   1.345   3.943  12.308
 5018TIP3    H236470   1.389   3.798  12.307
 5019TIP3   OH236471   0.111   5.486  12.242
 5019TIP3    H136472   0.074   5.444  12.165
 5019TIP3    H236473   0.160   5.561  12.208
 5020TIP3   OH236474   0.379   4.004  11.983
 5020TIP3    H136475   0.438   3.958  11.923
 5020TIP3    H236476   0.437   4.040  12.050
 5021TIP3   OH236477   0.826   4.088  12.242
 5021TIP3    H136478   0.860   4.015  12.293
 5021TIP3    H236479   0.847   4.166  12.294
 5022TIP3   OH236480   1.064   5.530  12.091
 5022TIP3    H136481   1.080   5.618  12.055
 5022TIP3    H236482   1.045   5.477  12.014
 5023TIP3   OH236483   1.693   5.530  12.364
 5023TIP3    H136484   1.679   5.443  12.327
 5023TIP3    H236485   1.682   5.589  12.289
 5024TIP3   OH236486   0.299   3.918  13.503
 5024TIP3    H136487   0.246   3.844  13.533
 5024TIP3    H236488   0.384   3.906  13.545
 5025TIP3   OH236489   0.507   3.851  13.671
 5025TIP3    H136490   0.589   3.823  13.631
 5025TIP3    H236491   0.474   3.773  13.715
 5026TIP3   OH236492   0.303   5.493  11.947
 5026TIP3    H136493   0.312   5.553  12.021
 5026TIP3    H236494   0.393   5.463  11.930
 5027TIP3   OH236495   1.337   3.800  13.688
 5027TIP3    H136496   1.329   3.750  13.770
 5027TIP3    H236497   1.429   3.790  13.664
 5028TIP3   OH236498   1.602   5.396  13.568
 5028TIP3    H136499   1.545   5.390  13.491
 5028TIP3    H236500   1.604   5.490  13.588
 5029TIP3   OH236501   3.078   4.809  12.536
 5029TIP3    H136502   3.068   4.903  12.525
 5029TIP3    H236503   3.009   4.771  12.482
 5030TIP3   OH236504   2.975   4.707  12.933
 5030TIP3    H136505   2.995   4.661  13.014
 5030TIP3    H236506   2.920   4.647  12.883
 5031TIP3   OH236507   2.181   4.653  13.071
 5031TIP3    H136508   2.191   4.576  13.126
 5031TIP3    H236509   2.269   4.671  13.038
 5032TIP3   OH236510   3.354   5.009  12.760
 5032TIP3    H136511   3.304   4.944  12.810
 5032TIP3    H236512   3.372   5.079  12.823
 5033TIP3   OH236513   2.317   5.148  12.911
 5033TIP3    H136514   2.282   5.061  12.892
 5033TIP3    H236515   2.412   5.139  12.902
 5034TIP3   OH236516   1.964   4.449  12.406
 5034TIP3    H136517   1.948   4.540  12.433
 5034TIP3    H236518   1.896   4.432  12.340
 5035TIP3   OH236519   2.007   4.703  12.677
 5035TIP3    H136520   2.054   4.621  12.693
 5035TIP3    H236521   2.062   4.751  12.615
 5036TIP3   OH236522   3.081   5.514  12.788
 5036TIP3    H136523   3.127   5.471  12.716
 5036TIP3    H236524   3.007   5.457  12.807
 5037TIP3   OH236525   2.796   4.968  12.937
 5037TIP3    H136526   2.835   4.898  12.885
 5037TIP3    H236527   2.865   4.994  12.998
 5038TIP3   OH236528   3.695   4.111  13.029
 5038TIP3    H136529   3.713   4.174  13.099
 5038TIP3    H236530   3.768   4.122  12.968
 5039TIP3   OH236531   3.133   4.383  12.953
 5039TIP3    H136532   3.144   4.288  12.964
 5039TIP3    H236533   3.108   4.394  12.862
 5040TIP3   OH236534   2.466   4.192  12.680
 5040TIP3    H136535   2.472   4.277  12.637
 5040TIP3    H236536   2.413   4.138  12.621
 5041TIP3   OH236537   3.238   4.234  12.525
 5041TIP3    H136538   3.286   4.198  12.600
 5041TIP3    H236539   3.306   4.273  12.470
 5042TIP3   OH236540   2.103   4.446  12.761
 5042TIP3    H136541   2.170   4.407  12.818
 5042TIP3    H236542   2.124   4.414  12.674
 5043TIP3   OH236543   2.570   4.581  12.748
 5043TIP3    H136544   2.659   4.552  12.763
 5043TIP3    H236545   2.538   4.526  12.676
 5044TIP3   OH236546   3.728   4.275  13.256
 5044TIP3    H136547   3.648   4.325  13.238
 5044TIP3    H236548   3.734   4.274  13.351
 5045TIP3   OH236549   2.319   4.115  13.106
 5045TIP3    H136550   2.298   4.171  13.032
 5045TIP3    H236551   2.247   4.128  13.168
 5046TIP3   OH236552   3.051   5.065  12.437
 5046TIP3    H136553   3.029   5.059  12.344
 5046TIP3    H236554   3.005   5.143  12.468
 5047TIP3   OH236555   2.582   4.882  13.090
 5047TIP3    H136556   2.529   4.954  13.124
 5047TIP3    H236557   2.648   4.924  13.035
 5048TIP3   OH236558   3.360   4.171  12.762
 5048TIP3    H136559   3.304   4.117  12.818
 5048TIP3    H236560   3.404   4.231  12.822
 5049TIP3   OH236561   2.297   4.279  12.885
 5049TIP3    H136562   2.355   4.335  12.936
 5049TIP3    H236563   2.353   4.244  12.816
 5050TIP3   OH236564   2.434   5.087  13.204
 5050TIP3    H136565   2.438   5.179  13.179
 5050TIP3    H236566   2.342   5.072  13.227
 5051TIP3   OH236567   1.987   5.058  12.316
 5051TIP3    H136568   2.019   5.068  12.226
 5051TIP3    H236569   2.048   4.997  12.357
 5052TIP3   OH236570   3.391   5.212  12.957
 5052TIP3    H136571   3.299   5.214  12.981
 5052TIP3    H236572   3.411   5.302  12.929
 5053TIP3   OH236573   3.426   4.053  13.121
 5053TIP3    H136574   3.353   4.073  13.062
 5053TIP3    H236575   3.504   4.065  13.067
 5054TIP3   OH236576   2.688   3.829  12.850
 5054TIP3    H136577   2.665   3.737  12.853
 5054TIP3    H236578   2.610   3.875  12.881
 5055TIP3   OH236579   3.209   5.388  12.572
 5055TIP3    H136580   3.247   5.301  12.556
 5055TIP3    H236581   3.285   5.446  12.578
 5056TIP3   OH236582   3.311   5.140  12.517
 5056TIP3    H136583   3.232   5.099  12.480
 5056TIP3    H236584   3.332   5.087  12.594
 5057TIP3   OH236585   3.499   4.999  13.318
 5057TIP3    H136586   3.485   4.945  13.241
 5057TIP3    H236587   3.506   5.088  13.284
 5058TIP3   OH236588   2.934   4.711  12.319
 5058TIP3    H136589   2.863   4.771  12.295
 5058TIP3    H236590   2.998   4.720  12.248
 5059TIP3   OH236591   2.960   4.590  11.971
 5059TIP3    H136592   3.013   4.617  12.046
 5059TIP3    H236593   3.016   4.529  11.922
 5060TIP3   OH236594   3.661   4.663  13.123
 5060TIP3    H136595   3.587   4.723  13.120
 5060TIP3    H236596   3.727   4.702  13.066
 5061TIP3   OH236597   3.296   4.737  12.393
 5061TIP3    H136598   3.220   4.760  12.446
 5061TIP3    H236599   3.367   4.725  12.457
 5062TIP3   OH236600   3.266   4.543  13.335
 5062TIP3    H136601   3.256   4.615  13.397
 5062TIP3    H236602   3.201   4.561  13.267
 5063TIP3   OH236603   2.442   4.826  12.623
 5063TIP3    H136604   2.368   4.822  12.562
 5063TIP3    H236605   2.471   4.736  12.631
 5064TIP3   OH236606   2.589   5.148  12.845
 5064TIP3    H136607   2.578   5.153  12.750
 5064TIP3    H236608   2.662   5.088  12.857
 5065TIP3   OH236609   2.438   4.682  12.966
 5065TIP3    H136610   2.485   4.658  12.886
 5065TIP3    H236611   2.490   4.753  13.004
 5066TIP3   OH236612   3.140   5.226  13.051
 5066TIP3    H136613   3.106   5.303  13.097
 5066TIP3    H236614   3.081   5.155  13.077
 5067TIP3   OH236615   2.587   5.114  13.430
 5067TIP3    H136616   2.525   5.176  13.470
 5067TIP3    H236617   2.544   5.088  13.348
 5068TIP3   OH236618   3.163   4.666  12.156
 5068TIP3    H136619   3.215   4.701  12.229
 5068TIP3    H236620   3.214   4.688  12.078
 5069TIP3   OH236621   2.245   4.683  13.411
 5069TIP3    H136622   2.260   4.773  13.442
 5069TIP3    H236623   2.158   4.686  13.370
 5070TIP3   OH236624   2.948   5.314  12.506
 5070TIP3    H136625   3.033   5.350  12.532
 5070TIP3    H236626   2.907   5.384  12.456
 5071TIP3   OH236627   2.390   5.295  13.500
 5071TIP3    H136628   2.395   5.325  13.409
 5071TIP3    H236629   2.297   5.283  13.516
 5072TIP3   OH236630   3.530   3.809  12.153
 5072TIP3    H136631   3.443   3.835  12.185
 5072TIP3    H236632   3.569   3.891  12.122
 5073TIP3   OH236633   2.384   4.646  12.283
 5073TIP3    H136634   2.332   4.707  12.335
 5073TIP3    H236635   2.328   4.568  12.276
 5074TIP3   OH236636   3.669   5.252  12.007
 5074TIP3    H136637   3.686   5.346  12.003
 5074TIP3    H236638   3.756   5.212  12.004
 5075TIP3   OH236639   1.955   4.945  13.249
 5075TIP3    H136640   1.909   4.958  13.166
 5075TIP3    H236641   1.972   4.851  13.252
 5076TIP3   OH236642   1.925   5.227  12.938
 5076TIP3    H136643   2.018   5.232  12.957
 5076TIP3    H236644   1.888   5.309  12.970
 5077TIP3   OH236645   3.749   5.315  13.520
 5077TIP3    H136646   3.739   5.221  13.504
 5077TIP3    H236647   3.661   5.344  13.546
 5078TIP3   OH236648   2.828   5.236  13.379
 5078TIP3    H136649   2.824   5.322  13.422
 5078TIP3    H236650   2.742   5.197  13.394
 5079TIP3   OH236651   2.891   5.553  12.367
 5079TIP3    H136652   2.891   5.566  12.273
 5079TIP3    H236653   2.931   5.632  12.403
 5080TIP3   OH236654   2.247   5.491  12.560
 5080TIP3    H136655   2.267   5.453  12.645
 5080TIP3    H236656   2.188   5.428  12.519
 5081TIP3   OH236657   3.199   5.543  12.043
 5081TIP3    H136658   3.247   5.470  12.004
 5081TIP3    H236659   3.207   5.530  12.137
 5082TIP3   OH236660   3.197   5.527  12.320
 5082TIP3    H136661   3.145   5.597  12.358
 5082TIP3    H236662   3.201   5.460  12.388
 5083TIP3   OH236663   3.441   4.418  13.534
 5083TIP3    H136664   3.383   4.454  13.467
 5083TIP3    H236665   3.447   4.325  13.513
 5084TIP3   OH236666   2.180   5.091  13.314
 5084TIP3    H136667   2.202   5.049  13.397
 5084TIP3    H236668   2.102   5.046  13.284
 5085TIP3   OH236669   2.434   3.921  12.941
 5085TIP3    H136670   2.360   3.908  12.881
 5085TIP3    H236671   2.406   3.991  12.999
 5086TIP3   OH236672   2.895   3.917  13.302
 5086TIP3    H136673   2.941   3.854  13.358
 5086TIP3    H236674   2.803   3.895  13.312
 5087TIP3   OH236675   3.208   4.271  13.375
 5087TIP3    H136676   3.145   4.262  13.446
 5087TIP3    H236677   3.208   4.364  13.354
 5088TIP3   OH236678   3.312   4.707  11.933
 5088TIP3    H136679   3.288   4.726  11.842
 5088TIP3    H236680   3.403   4.733  11.940
 5089TIP3   OH236681   2.854   4.128  12.005
 5089TIP3    H136682   2.803   4.122  12.085
 5089TIP3    H236683   2.818   4.059  11.949
 5090TIP3   OH236684   2.448   4.426  13.067
 5090TIP3    H136685   2.381   4.427  13.136
 5090TIP3    H236686   2.451   4.517  13.036
 5091TIP3   OH236687   2.451   4.431  12.547
 5091TIP3    H136688   2.355   4.424  12.544
 5091TIP3    H236689   2.479   4.421  12.456
 5092TIP3   OH236690   2.989   4.466  12.428
 5092TIP3    H136691   2.963   4.552  12.395
 5092TIP3    H236692   3.057   4.436  12.367
 5093TIP3   OH236693   2.902   4.485  13.546
 5093TIP3    H136694   2.853   4.410  13.581
 5093TIP3    H236695   2.987   4.481  13.590
 5094TIP3   OH236696   3.086   4.408  12.682
 5094TIP3    H136697   3.040   4.455  12.613
 5094TIP3    H236698   3.130   4.336  12.638
 5095TIP3   OH236699   2.234   4.433  13.241
 5095TIP3    H136700   2.226   4.484  13.321
 5095TIP3    H236701   2.189   4.351  13.259
 5096TIP3   OH236702   2.532   4.176  11.911
 5096TIP3    H136703   2.501   4.141  11.994
 5096TIP3    H236704   2.513   4.270  11.916
 5097TIP3   OH236705   1.887   4.131  12.640
 5097TIP3    H136706   1.943   4.145  12.717
 5097TIP3    H236707   1.945   4.143  12.565
 5098TIP3   OH236708   1.940   4.220  12.144
 5098TIP3    H136709   2.011   4.262  12.095
 5098TIP3    H236710   1.884   4.293  12.172
 5099TIP3   OH236711   3.054   4.549  13.152
 5099TIP3    H136712   3.087   4.492  13.083
 5099TIP3    H236713   2.982   4.500  13.192
 5100TIP3   OH236714   2.753   4.153  12.642
 5100TIP3    H136715   2.662   4.156  12.673
 5100TIP3    H236716   2.802   4.118  12.716
 5101TIP3   OH236717   2.189   4.342  12.524
 5101TIP3    H136718   2.115   4.370  12.469
 5101TIP3    H236719   2.210   4.254  12.492
 5102TIP3   OH236720   2.513   4.351  12.286
 5102TIP3    H136721   2.606   4.351  12.307
 5102TIP3    H236722   2.507   4.395  12.201
 5103TIP3   OH236723   3.144   4.106  12.969
 5103TIP3    H136724   3.098   4.113  13.053
 5103TIP3    H236725   3.081   4.063  12.911
 5104TIP3   OH236726   2.479   4.431  12.020
 5104TIP3    H136727   2.409   4.444  11.956
 5104TIP3    H236728   2.548   4.492  11.991
 5105TIP3   OH236729   3.492   5.671  13.612
 5105TIP3    H136730   3.511   5.704  13.525
 5105TIP3    H236731   3.567   5.698  13.665
 5106TIP3   OH236732   2.246   4.930  13.549
 5106TIP3    H136733   2.313   4.929  13.618
 5106TIP3    H236734   2.164   4.942  13.596
 5107TIP3   OH236735   2.822   4.476  12.839
 5107TIP3    H136736   2.884   4.422  12.790
 5107TIP3    H236737   2.787   4.418  12.906
 5108TIP3   OH236738   2.295   4.079  12.485
 5108TIP3    H136739   2.243   4.002  12.508
 5108TIP3    H236740   2.338   4.055  12.403
 5109TIP3   OH236741   2.707   4.332  13.054
 5109TIP3    H136742   2.621   4.373  13.061
 5109TIP3    H236743   2.755   4.364  13.131
 5110TIP3   OH236744   2.739   4.895  12.250
 5110TIP3    H136745   2.665   4.863  12.198
 5110TIP3    H236746   2.700   4.923  12.333
 5111TIP3   OH236747   3.464   4.851  13.087
 5111TIP3    H136748   3.519   4.912  13.038
 5111TIP3    H236749   3.387   4.837  13.031
 5112TIP3   OH236750   3.108   4.167  12.103
 5112TIP3    H136751   3.020   4.169  12.065
 5112TIP3    H236752   3.125   4.258  12.130
 5113TIP3   OH236753   2.902   4.956  13.376
 5113TIP3    H136754   2.914   4.927  13.467
 5113TIP3    H236755   2.874   5.047  13.384
 5114TIP3   OH236756   3.189   4.402  12.238
 5114TIP3    H136757   3.281   4.391  12.264
 5114TIP3    H236758   3.186   4.490  12.200
 5115TIP3   OH236759   2.277   4.886  12.842
 5115TIP3    H136760   2.313   4.885  12.754
 5115TIP3    H236761   2.311   4.808  12.884
 5116TIP3   OH236762   2.950   5.049  12.173
 5116TIP3    H136763   2.918   5.139  12.175
 5116TIP3    H236764   2.874   4.995  12.195
 5117TIP3   OH236765   1.976   4.670  13.339
 5117TIP3    H136766   1.938   4.625  13.415
 5117TIP3    H236767   1.913   4.655  13.269
 5118TIP3   OH236768   2.691   4.667  13.570
 5118TIP3    H136769   2.623   4.632  13.511
 5118TIP3    H236770   2.770   4.619  13.545
 5119TIP3   OH236771   3.110   5.214  13.382
 5119TIP3    H136772   3.018   5.222  13.357
 5119TIP3    H236773   3.112   5.235  13.475
 5120TIP3   OH236774   3.659   4.439  12.199
 5120TIP3    H136775   3.615   4.416  12.118
 5120TIP3    H236776   3.688   4.530  12.186
 5121TIP3   OH236777   3.722   5.042  13.480
 5121TIP3    H136778   3.630   5.034  13.454
 5121TIP3    H236779   3.771   5.016  13.401
 5122TIP3   OH236780   3.545   5.282  12.259
 5122TIP3    H136781   3.478   5.217  12.283
 5122TIP3    H236782   3.572   5.257  12.171
 5123TIP3   OH236783   3.249   4.786  12.912
 5123TIP3    H136784   3.154   4.777  12.909
 5123TIP3    H236785   3.282   4.714  12.859
 5124TIP3   OH236786   2.517   5.212  12.582
 5124TIP3    H136787   2.535   5.299  12.545
 5124TIP3    H236788   2.426   5.196  12.560
 5125TIP3   OH236789   2.072   4.672  12.008
 5125TIP3    H136790   2.121   4.744  12.047
 5125TIP3    H236791   1.986   4.676  12.052
 5126TIP3   OH236792   2.625   4.978  12.480
 5126TIP3    H136793   2.607   5.067  12.511
 5126TIP3    H236794   2.565   4.923  12.531
 5127TIP3   OH236795   2.716   5.386  13.156
 5127TIP3    H136796   2.771   5.461  13.132
 5127TIP3    H236797   2.774   5.329  13.206
 5128TIP3   OH236798   2.507   5.468  12.472
 5128TIP3    H136799   2.414   5.484  12.487
 5128TIP3    H236800   2.551   5.544  12.508
 5129TIP3   OH236801   3.004   4.991  13.123
 5129TIP3    H136802   2.971   4.972  13.210
 5129TIP3    H236803   3.069   4.922  13.105
 5130TIP3   OH236804   3.301   5.103  12.029
 5130TIP3    H136805   3.319   5.053  12.108
 5130TIP3    H236806   3.213   5.076  12.003
 5131TIP3   OH236807   3.319   5.423  13.343
 5131TIP3    H136808   3.237   5.379  13.323
 5131TIP3    H236809   3.322   5.497  13.282
 5132TIP3   OH236810   3.731   5.521  12.021
 5132TIP3    H136811   3.764   5.583  11.956
 5132TIP3    H236812   3.660   5.567  12.066
 5133TIP3   OH236813   2.107   4.179  13.278
 5133TIP3    H136814   2.018   4.207  13.258
 5133TIP3    H236815   2.096   4.095  13.323
 5134TIP3   OH236816   3.391   4.953  12.239
 5134TIP3    H136817   3.350   4.887  12.295
 5134TIP3    H236818   3.485   4.944  12.256
 5135TIP3   OH236819   2.117   5.365  13.151
 5135TIP3    H136820   2.148   5.283  13.191
 5135TIP3    H236821   2.140   5.433  13.215
 5136TIP3   OH236822   2.687   5.189  11.885
 5136TIP3    H136823   2.687   5.103  11.843
 5136TIP3    H236824   2.641   5.176  11.967
 5137TIP3   OH236825   2.555   5.167  12.128
 5137TIP3    H136826   2.599   5.116  12.195
 5137TIP3    H236827   2.563   5.258  12.156
 5138TIP3   OH236828   2.180   4.882  12.140
 5138TIP3    H136829   2.190   4.865  12.234
 5138TIP3    H236830   2.233   4.961  12.125
 5139TIP3   OH236831   3.015   4.145  13.215
 5139TIP3    H136832   3.091   4.157  13.273
 5139TIP3    H236833   2.974   4.065  13.246
 5140TIP3   OH236834   3.093   4.061  12.358
 5140TIP3    H136835   3.097   4.099  12.270
 5140TIP3    H236836   3.135   4.126  12.414
 5141TIP3   OH236837   2.845   5.298  12.185
 5141TIP3    H136838   2.759   5.334  12.207
 5141TIP3    H236839   2.899   5.374  12.164
 5142TIP3   OH236840   2.767   4.301  12.405
 5142TIP3    H136841   2.842   4.361  12.411
 5142TIP3    H236842   2.761   4.262  12.492
 5143TIP3   OH236843   2.873   4.383  13.273
 5143TIP3    H136844   2.877   4.401  13.367
 5143TIP3    H236845   2.913   4.296  13.264
 5144TIP3   OH236846   2.853   3.965  12.456
 5144TIP3    H136847   2.828   4.034  12.518
 5144TIP3    H236848   2.940   3.991  12.425
 5145TIP3   OH236849   2.598   5.419  12.215
 5145TIP3    H136850   2.605   5.503  12.170
 5145TIP3    H236851   2.568   5.442  12.303
 5146TIP3   OH236852   2.449   4.104  12.169
 5146TIP3    H136853   2.444   4.191  12.209
 5146TIP3    H236854   2.537   4.073  12.190
 5147TIP3   OH236855   3.455   4.159  13.384
 5147TIP3    H136856   3.364   4.189  13.385
 5147TIP3    H236857   3.466   4.117  13.299
 5148TIP3   OH236858   3.324   4.543  12.775
 5148TIP3    H136859   3.237   4.513  12.746
 5148TIP3    H236860   3.349   4.479  12.842
 5149TIP3   OH236861   2.301   5.112  12.032
 5149TIP3    H136862   2.375   5.155  12.074
 5149TIP3    H236863   2.339   5.052  11.968
 5150TIP3   OH236864   2.090   4.395  11.997
 5150TIP3    H136865   2.096   4.486  12.024
 5150TIP3    H236866   2.080   4.398  11.902
 5151TIP3   OH236867   3.458   5.483  12.950
 5151TIP3    H136868   3.438   5.552  12.887
 5151TIP3    H236869   3.554   5.485  12.957
 5152TIP3   OH236870   2.182   3.888  12.824
 5152TIP3    H136871   2.174   3.879  12.729
 5152TIP3    H236872   2.149   3.804  12.858
 5153TIP3   OH236873   2.091   5.314  12.421
 5153TIP3    H136874   2.042   5.234  12.403
 5153TIP3    H236875   2.078   5.368  12.343
 5154TIP3   OH236876   2.031   5.569  13.611
 5154TIP3    H136877   2.099   5.542  13.672
 5154TIP3    H236878   2.001   5.487  13.571
 5155TIP3   OH236879   2.458   5.387  13.750
 5155TIP3    H136880   2.545   5.351  13.765
 5155TIP3    H236881   2.436   5.359  13.661
 5156TIP3   OH236882   2.881   5.382  11.869
 5156TIP3    H136883   2.817   5.313  11.882
 5156TIP3    H236884   2.959   5.336  11.836
 5157TIP3   OH236885   3.104   5.260  13.654
 5157TIP3    H136886   3.095   5.177  13.700
 5157TIP3    H236887   3.181   5.302  13.693
 5158TIP3   OH236888   3.329   5.346  11.905
 5158TIP3    H136889   3.338   5.263  11.953
 5158TIP3    H236890   3.402   5.345  11.842
 5159TIP3   OH236891   1.999   4.937  13.680
 5159TIP3    H136892   1.997   4.842  13.670
 5159TIP3    H236893   1.933   4.969  13.618
 5160TIP3   OH236894   2.431   4.919  11.888
 5160TIP3    H136895   2.456   4.873  11.967
 5160TIP3    H236896   2.513   4.931  11.840
 5161TIP3   OH236897   2.662   4.941  13.629
 5161TIP3    H136898   2.643   4.988  13.547
 5161TIP3    H236899   2.683   4.852  13.602
 5162TIP3   OH236900   3.055   5.041  11.917
 5162TIP3    H136901   3.007   5.039  12.000
 5162TIP3    H236902   3.028   4.961  11.872
 5163TIP3   OH236903   3.235   4.961  13.403
 5163TIP3    H136904   3.323   4.984  13.375
 5163TIP3    H236905   3.183   5.039  13.385
 5164TIP3   OH236906   2.074   4.667  13.654
 5164TIP3    H136907   2.151   4.655  13.599
 5164TIP3    H236908   2.107   4.663  13.743
 5165TIP3   OH236909   2.539   4.777  12.100
 5165TIP3    H136910   2.484   4.731  12.163
 5165TIP3    H236911   2.585   4.708  12.053
 5166TIP3   OH236912   2.499   4.556  13.394
 5166TIP3    H136913   2.417   4.605  13.388
 5166TIP3    H236914   2.554   4.593  13.325
 5167TIP3   OH236915   2.679   4.599  11.936
 5167TIP3    H136916   2.679   4.631  11.846
 5167TIP3    H236917   2.772   4.591  11.957
 5168TIP3   OH236918   3.010   4.799  13.686
 5168TIP3    H136919   3.078   4.761  13.630
 5168TIP3    H236920   2.974   4.726  13.734
 5169TIP3   OH236921   3.578   4.783  11.902
 5169TIP3    H136922   3.579   4.763  11.808
 5169TIP3    H236923   3.569   4.878  11.906
 5170TIP3   OH236924   2.540   4.292  13.457
 5170TIP3    H136925   2.546   4.236  13.380
 5170TIP3    H236926   2.529   4.380  13.421
 5171TIP3   OH236927   2.568   4.139  13.221
 5171TIP3    H136928   2.623   4.181  13.155
 5171TIP3    H236929   2.482   4.133  13.179
 5172TIP3   OH236930   2.683   4.670  13.230
 5172TIP3    H136931   2.778   4.681  13.227
 5172TIP3    H236932   2.648   4.745  13.182
 5173TIP3   OH236933   3.140   4.441  13.706
 5173TIP3    H136934   3.124   4.352  13.674
 5173TIP3    H236935   3.234   4.454  13.697
 5174TIP3   OH236936   3.273   4.736  13.547
 5174TIP3    H136937   3.247   4.816  13.501
 5174TIP3    H236938   3.368   4.735  13.541
 5175TIP3   OH236939   2.373   4.346  13.680
 5175TIP3    H136940   2.293   4.295  13.663
 5175TIP3    H236941   2.421   4.343  13.597
 5176TIP3   OH236942   2.620   3.873  13.293
 5176TIP3    H136943   2.600   3.963  13.267
 5176TIP3    H236944   2.558   3.820  13.242
 5177TIP3   OH236945   2.761   4.260  13.620
 5177TIP3    H136946   2.720   4.231  13.702
 5177TIP3    H236947   2.689   4.264  13.557
 5178TIP3   OH236948   3.038   4.218  13.580
 5178TIP3    H136949   2.944   4.206  13.595
 5178TIP3    H236950   3.080   4.147  13.627
 5179TIP3   OH236951   3.207   4.066  13.739
 5179TIP3    H136952   3.203   3.972  13.720
 5179TIP3    H236953   3.179   4.073  13.830
 5180TIP3   OH236954   2.164   4.158  13.647
 5180TIP3    H136955   2.167   4.083  13.587
 5180TIP3    H236956   2.179   4.120  13.733
 5181TIP3   OH236957   2.613   3.784  13.551
 5181TIP3    H136958   2.671   3.708  13.548
 5181TIP3    H236959   2.610   3.816  13.461
 5182TIP3   OH236960   2.693   3.944  13.760
 5182TIP3    H136961   2.673   3.891  13.683
 5182TIP3    H236962   2.635   4.019  13.754
 5183TIP3   OH236963   2.666   5.649  12.078
 5183TIP3    H136964   2.758   5.625  12.085
 5183TIP3    H236965   2.663   5.719  12.013
 5184TIP3   OH236966   2.031   5.139  11.996
 5184TIP3    H136967   2.124   5.141  12.018
 5184TIP3    H236968   2.022   5.061  11.940
 5185TIP3   OH236969   1.893   5.632  12.525
 5185TIP3    H136970   1.836   5.594  12.458
 5185TIP3    H236971   1.909   5.561  12.586
 5186TIP3   OH236972   1.932   5.442  12.716
 5186TIP3    H136973   1.912   5.350  12.733
 5186TIP3    H236974   1.996   5.465  12.784
 5187TIP3   OH236975   3.726   5.493  13.013
 5187TIP3    H136976   3.724   5.509  13.108
 5187TIP3    H236977   3.798   5.548  12.981
 5188TIP3   OH236978   3.664   5.474  13.291
 5188TIP3    H136979   3.610   5.404  13.253
 5188TIP3    H236980   3.715   5.430  13.359
 5189TIP3   OH236981   3.535   5.052  13.780
 5189TIP3    H136982   3.448   5.066  13.817
 5189TIP3    H236983   3.585   5.129  13.808
 5190TIP3   OH236984   3.659   4.898  12.301
 5190TIP3    H136985   3.729   4.963  12.300
 5190TIP3    H236986   3.677   4.845  12.379
 5191TIP3   OH236987   3.706   4.714  12.506
 5191TIP3    H136988   3.634   4.668  12.549
 5191TIP3    H236989   3.770   4.731  12.575
 5192TIP3   OH236990   3.698   4.988  13.015
 5192TIP3    H136991   3.752   4.927  12.965
 5192TIP3    H236992   3.718   5.074  12.978
 5193TIP3   OH236993   3.501   5.256  13.212
 5193TIP3    H136994   3.428   5.305  13.249
 5193TIP3    H236995   3.476   5.240  13.121
 5194TIP3   OH236996   3.720   4.697  12.122
 5194TIP3    H136997   3.674   4.716  12.040
 5194TIP3    H236998   3.696   4.769  12.180
 5195TIP3   OH236999   3.547   4.402  11.957
 5195TIP3    H137000   3.539   4.462  11.883
 5195TIP3    H237001   3.520   4.317  11.922
 5196TIP3   OH237002   3.531   4.502  12.599
 5196TIP3    H137003   3.491   4.458  12.524
 5196TIP3    H237004   3.457   4.524  12.656
 5197TIP3   OH237005   1.948   4.722  12.945
 5197TIP3    H137006   1.964   4.728  12.851
 5197TIP3    H237007   2.035   4.710  12.983
 5198TIP3   OH237008   3.549   4.752  13.513
 5198TIP3    H137009   3.611   4.681  13.495
 5198TIP3    H237010   3.567   4.818  13.447
 5199TIP3   OH237011   3.696   4.516  13.501
 5199TIP3    H137012   3.607   4.483  13.514
 5199TIP3    H237013   3.753   4.444  13.526
 5200TIP3   OH237014   3.469   4.158  11.869
 5200TIP3    H137015   3.511   4.094  11.928
 5200TIP3    H237016   3.381   4.124  11.855
 5201TIP3   OH237017   3.459   4.335  12.373
 5201TIP3    H137018   3.476   4.240  12.371
 5201TIP3    H237019   3.520   4.372  12.310
 5202TIP3   OH237020   3.475   4.354  12.935
 5202TIP3    H137021   3.567   4.374  12.920
 5202TIP3    H237022   3.462   4.367  13.029
 5203TIP3   OH237023   3.507   4.445  13.200
 5203TIP3    H137024   3.425   4.478  13.239
 5203TIP3    H237025   3.558   4.524  13.181
 5204TIP3   OH237026   1.932   4.274  13.547
 5204TIP3    H137027   2.019   4.249  13.578
 5204TIP3    H237028   1.880   4.194  13.552
 5205TIP3   OH237029   3.745   3.871  13.720
 5205TIP3    H137030   3.809   3.811  13.682
 5205TIP3    H237031   3.731   3.937  13.652
 5206TIP3   OH237032   3.497   4.059  12.390
 5206TIP3    H137033   3.514   4.016  12.474
 5206TIP3    H237034   3.433   4.002  12.347
 5207TIP3   OH237035   2.049   4.130  12.868
 5207TIP3    H137036   2.090   4.044  12.860
 5207TIP3    H237037   2.122   4.191  12.874
 5208TIP3   OH237038   1.866   4.440  12.914
 5208TIP3    H137039   1.937   4.420  12.853
 5208TIP3    H237040   1.881   4.531  12.939
 5209TIP3   OH237041   3.668   4.038  13.515
 5209TIP3    H137042   3.588   4.090  13.500
 5209TIP3    H237043   3.662   3.967  13.451
 5210TIP3   OH237044   3.660   4.026  12.046
 5210TIP3    H137045   3.702   3.975  11.978
 5210TIP3    H237046   3.723   4.095  12.068
 5211TIP3   OH237047   1.916   4.023  12.330
 5211TIP3    H137048   1.822   4.028  12.349
 5211TIP3    H237049   1.933   4.098  12.273
 5212TIP3   OH237050   3.430   5.544  12.573
 5212TIP3    H137051   3.489   5.538  12.498
 5212TIP3    H237052   3.451   5.627  12.615
 5213TIP3   OH237053   1.928   3.917  13.199
 5213TIP3    H137054   1.850   3.890  13.248
 5213TIP3    H237055   1.895   3.974  13.130
 5214TIP3   OH237056   2.129   5.270  13.595
 5214TIP3    H137057   2.042   5.276  13.554
 5214TIP3    H237058   2.111   5.239  13.684
 5215TIP3   OH237059   2.453   5.368  13.237
 5215TIP3    H137060   2.423   5.454  13.207
 5215TIP3    H237061   2.546   5.366  13.214
 5216TIP3   OH237062   2.825   5.481  13.512
 5216TIP3    H137063   2.840   5.455  13.603
 5216TIP3    H237064   2.903   5.532  13.489
 5217TIP3   OH237065   3.058   5.621  13.465
 5217TIP3    H137066   3.120   5.580  13.405
 5217TIP3    H237067   3.112   5.648  13.539
 5218TIP3   OH237068   3.597   3.815  13.361
 5218TIP3    H137069   3.518   3.815  13.306
 5218TIP3    H237070   3.636   3.729  13.345
 5219TIP3   OH237071   2.153   5.652  13.258
 5219TIP3    H137072   2.076   5.690  13.216
 5219TIP3    H237073   2.165   5.704  13.338
 5220TIP3   OH237074   2.411   5.629  13.162
 5220TIP3    H137075   2.319   5.641  13.187
 5220TIP3    H237076   2.418   5.673  13.077
 5221TIP3   OH237077   2.864   5.604  13.068
 5221TIP3    H137078   2.816   5.636  12.992
 5221TIP3    H237079   2.877   5.682  13.122
 5222TIP3   OH237080   3.093   5.482  13.165
 5222TIP3    H137081   3.013   5.518  13.126
 5222TIP3    H237082   3.164   5.535  13.128
 5223TIP3   OH237083   3.348   5.630  13.156
 5223TIP3    H137084   3.358   5.722  13.132
 5223TIP3    H237085   3.384   5.581  13.082
 5224TIP3   OH237086   2.110   5.517  12.921
 5224TIP3    H137087   2.110   5.470  13.004
 5224TIP3    H237088   2.188   5.486  12.875
 5225TIP3   OH237089   2.327   5.401  12.810
 5225TIP3    H137090   2.316   5.311  12.841
 5225TIP3    H237091   2.418   5.423  12.833
 5226TIP3   OH237092   2.592   5.419  12.906
 5226TIP3    H137093   2.599   5.331  12.870
 5226TIP3    H237094   2.625   5.411  12.996
 5227TIP3   OH237095   2.926   3.990  12.806
 5227TIP3    H137096   2.855   3.927  12.821
 5227TIP3    H237097   2.995   3.938  12.762
 5228TIP3   OH237098   3.410   3.847  12.810
 5228TIP3    H137099   3.464   3.897  12.749
 5228TIP3    H237100   3.321   3.855  12.776
 5229TIP3   OH237101   3.594   3.944  12.624
 5229TIP3    H137102   3.661   3.880  12.596
 5229TIP3    H237103   3.645   4.021  12.650
 5230TIP3   OH237104   2.151   3.849  12.551
 5230TIP3    H137105   2.059   3.833  12.530
 5230TIP3    H237106   2.193   3.763  12.541
 5231TIP3   OH237107   2.036   3.851  12.141
 5231TIP3    H137108   2.102   3.905  12.097
 5231TIP3    H237109   2.001   3.907  12.210
 5232TIP3   OH237110   2.637   3.823  12.568
 5232TIP3    H137111   2.709   3.869  12.525
 5232TIP3    H237112   2.657   3.829  12.662
 5233TIP3   OH237113   3.144   3.838  12.708
 5233TIP3    H137114   3.170   3.810  12.620
 5233TIP3    H237115   3.107   3.760  12.748
 5234TIP3   OH237116   3.302   3.885  12.293
 5234TIP3    H137117   3.224   3.940  12.308
 5234TIP3    H237118   3.271   3.796  12.307
 5235TIP3   OH237119   2.052   5.479  12.197
 5235TIP3    H137120   1.970   5.470  12.150
 5235TIP3    H237121   2.066   5.573  12.204
 5236TIP3   OH237122   2.248   3.993  12.007
 5236TIP3    H137123   2.300   3.939  11.948
 5236TIP3    H237124   2.312   4.029  12.069
 5237TIP3   OH237125   2.716   4.088  12.241
 5237TIP3    H137126   2.750   4.017  12.294
 5237TIP3    H237127   2.732   4.167  12.292
 5238TIP3   OH237128   2.924   5.551  12.081
 5238TIP3    H137129   3.017   5.572  12.070
 5238TIP3    H237130   2.902   5.501  12.002
 5239TIP3   OH237131   3.604   5.529  12.358
 5239TIP3    H137132   3.586   5.440  12.328
 5239TIP3    H237133   3.590   5.584  12.282
 5240TIP3   OH237134   2.164   3.909  13.507
 5240TIP3    H137135   2.108   3.837  13.536
 5240TIP3    H237136   2.247   3.894  13.553
 5241TIP3   OH237137   2.372   3.847  13.680
 5241TIP3    H137138   2.455   3.822  13.639
 5241TIP3    H237139   2.340   3.767  13.721
 5242TIP3   OH237140   2.204   5.509  11.925
 5242TIP3    H137141   2.180   5.500  12.017
 5242TIP3    H237142   2.288   5.463  11.918
 5243TIP3   OH237143   3.223   3.797  13.682
 5243TIP3    H137144   3.211   3.747  13.763
 5243TIP3    H237145   3.316   3.786  13.660
 5244TIP3   OH237146   3.487   5.399  13.565
 5244TIP3    H137147   3.430   5.392  13.489
 5244TIP3    H237148   3.487   5.492  13.587
 5245TIP3   OH237149   4.962   4.798  12.541
 5245TIP3    H137150   4.948   4.893  12.535
 5245TIP3    H237151   4.897   4.760  12.481
 5246TIP3   OH237152   4.844   4.740  12.895
 5246TIP3    H137153   4.835   4.691  12.976
 5246TIP3    H237154   4.809   4.682  12.827
 5247TIP3   OH237155   4.065   4.639  13.056
 5247TIP3    H137156   4.076   4.572  13.124
 5247TIP3    H237157   4.155   4.663  13.032
 5248TIP3   OH237158   5.236   5.017  12.760
 5248TIP3    H137159   5.187   4.948  12.805
 5248TIP3    H237160   5.250   5.084  12.828
 5249TIP3   OH237161   4.201   5.124  12.878
 5249TIP3    H137162   4.170   5.037  12.853
 5249TIP3    H237163   4.296   5.115  12.881
 5250TIP3   OH237164   3.795   4.455  12.447
 5250TIP3    H137165   3.788   4.551  12.443
 5250TIP3    H237166   3.758   4.425  12.364
 5251TIP3   OH237167   3.916   4.699  12.691
 5251TIP3    H137168   3.955   4.613  12.701
 5251TIP3    H237169   3.990   4.760  12.693
 5252TIP3   OH237170   4.959   5.507  12.784
 5252TIP3    H137171   4.998   5.455  12.713
 5252TIP3    H237172   4.920   5.442  12.843
 5253TIP3   OH237173   4.685   4.973  12.939
 5253TIP3    H137174   4.728   4.898  12.897
 5253TIP3    H237175   4.752   5.010  12.996
 5254TIP3   OH237176   5.579   4.102  13.029
 5254TIP3    H137177   5.589   4.179  13.086
 5254TIP3    H237178   5.631   4.123  12.951
 5255TIP3   OH237179   4.989   4.401  12.980
 5255TIP3    H137180   5.010   4.308  12.992
 5255TIP3    H237181   4.981   4.412  12.885
 5256TIP3   OH237182   4.345   4.190  12.684
 5256TIP3    H137183   4.354   4.274  12.639
 5256TIP3    H237184   4.301   4.133  12.621
 5257TIP3   OH237185   5.123   4.231  12.531
 5257TIP3    H137186   5.167   4.196  12.608
 5257TIP3    H237187   5.194   4.268  12.477
 5258TIP3   OH237188   3.972   4.424  12.736
 5258TIP3    H137189   4.036   4.390  12.798
 5258TIP3    H237190   4.004   4.395  12.651
 5259TIP3   OH237191   4.458   4.586  12.739
 5259TIP3    H137192   4.544   4.551  12.762
 5259TIP3    H237193   4.422   4.523  12.676
 5260TIP3   OH237194   5.588   4.264  13.268
 5260TIP3    H137195   5.544   4.342  13.236
 5260TIP3    H237196   5.520   4.216  13.315
 5261TIP3   OH237197   4.209   4.114  13.102
 5261TIP3    H137198   4.186   4.173  13.030
 5261TIP3    H237199   4.138   4.123  13.165
 5262TIP3   OH237200   4.899   5.049  12.451
 5262TIP3    H137201   4.895   5.054  12.355
 5262TIP3    H237202   4.867   5.135  12.480
 5263TIP3   OH237203   4.473   4.879  13.091
 5263TIP3    H137204   4.423   4.952  13.128
 5263TIP3    H237205   4.543   4.921  13.041
 5264TIP3   OH237206   5.227   4.172  12.777
 5264TIP3    H137207   5.161   4.144  12.841
 5264TIP3    H237208   5.287   4.228  12.826
 5265TIP3   OH237209   4.171   4.281  12.880
 5265TIP3    H137210   4.227   4.339  12.932
 5265TIP3    H237211   4.230   4.242  12.815
 5266TIP3   OH237212   4.325   5.087  13.204
 5266TIP3    H137213   4.330   5.180  13.185
 5266TIP3    H237214   4.233   5.073  13.229
 5267TIP3   OH237215   3.885   5.064  12.279
 5267TIP3    H137216   3.878   5.100  12.191
 5267TIP3    H237217   3.908   5.139  12.334
 5268TIP3   OH237218   5.268   5.223  12.962
 5268TIP3    H137219   5.174   5.229  12.980
 5268TIP3    H237220   5.292   5.311  12.933
 5269TIP3   OH237221   5.313   4.019  13.110
 5269TIP3    H137222   5.243   4.053  13.054
 5269TIP3    H237223   5.394   4.040  13.063
 5270TIP3   OH237224   4.570   3.801  12.858
 5270TIP3    H137225   4.542   3.709  12.856
 5270TIP3    H237226   4.491   3.849  12.885
 5271TIP3   OH237227   5.090   5.386  12.569
 5271TIP3    H137228   5.127   5.300  12.553
 5271TIP3    H237229   5.165   5.444  12.579
 5272TIP3   OH237230   5.211   5.150  12.514
 5272TIP3    H137231   5.219   5.090  12.441
 5272TIP3    H237232   5.221   5.094  12.592
 5273TIP3   OH237233   5.386   4.999  13.318
 5273TIP3    H137234   5.367   4.946  13.240
 5273TIP3    H237235   5.397   5.088  13.284
 5274TIP3   OH237236   4.817   4.710  12.320
 5274TIP3    H137237   4.751   4.774  12.295
 5274TIP3    H237238   4.882   4.715  12.250
 5275TIP3   OH237239   4.845   4.584  11.982
 5275TIP3    H137240   4.903   4.611  12.053
 5275TIP3    H237241   4.898   4.524  11.929
 5276TIP3   OH237242   5.542   4.686  13.148
 5276TIP3    H137243   5.467   4.744  13.134
 5276TIP3    H237244   5.602   4.705  13.076
 5277TIP3   OH237245   5.182   4.744  12.388
 5277TIP3    H137246   5.113   4.764  12.451
 5277TIP3    H237247   5.245   4.692  12.438
 5278TIP3   OH237248   5.162   4.548  13.318
 5278TIP3    H137249   5.091   4.578  13.375
 5278TIP3    H237250   5.144   4.591  13.234
 5279TIP3   OH237251   4.323   4.782  12.584
 5279TIP3    H137252   4.298   4.747  12.499
 5279TIP3    H237253   4.379   4.715  12.623
 5280TIP3   OH237254   4.479   5.142  12.843
 5280TIP3    H137255   4.478   5.151  12.747
 5280TIP3    H237256   4.554   5.086  12.861
 5281TIP3   OH237257   4.324   4.690  12.959
 5281TIP3    H137258   4.376   4.663  12.883
 5281TIP3    H237259   4.379   4.754  13.004
 5282TIP3   OH237260   5.009   5.251  13.042
 5282TIP3    H137261   4.985   5.312  13.110
 5282TIP3    H237262   4.966   5.169  13.067
 5283TIP3   OH237263   4.482   5.121  13.429
 5283TIP3    H137264   4.419   5.181  13.468
 5283TIP3    H237265   4.441   5.092  13.348
 5284TIP3   OH237266   5.048   4.665  12.160
 5284TIP3    H137267   5.098   4.701  12.233
 5284TIP3    H237268   5.101   4.687  12.082
 5285TIP3   OH237269   4.136   4.705  13.404
 5285TIP3    H137270   4.142   4.794  13.439
 5285TIP3    H237271   4.048   4.701  13.365
 5286TIP3   OH237272   4.827   5.314  12.508
 5286TIP3    H137273   4.914   5.344  12.531
 5286TIP3    H237274   4.793   5.382  12.450
 5287TIP3   OH237275   4.277   5.296  13.498
 5287TIP3    H137276   4.281   5.325  13.407
 5287TIP3    H237277   4.183   5.284  13.515
 5288TIP3   OH237278   5.418   3.813  12.152
 5288TIP3    H137279   5.331   3.837  12.185
 5288TIP3    H237280   5.453   3.895  12.117
 5289TIP3   OH237281   4.237   4.694  12.330
 5289TIP3    H137282   4.185   4.766  12.292
 5289TIP3    H237283   4.202   4.615  12.288
 5290TIP3   OH237284   5.557   5.258  12.009
 5290TIP3    H137285   5.571   5.352  12.007
 5290TIP3    H237286   5.644   5.220  12.005
 5291TIP3   OH237287   3.842   4.952  13.253
 5291TIP3    H137288   3.792   4.963  13.173
 5291TIP3    H237289   3.852   4.857  13.263
 5292TIP3   OH237290   3.804   5.236  12.938
 5292TIP3    H137291   3.892   5.243  12.976
 5292TIP3    H237292   3.760   5.317  12.963
 5293TIP3   OH237293   5.635   5.321  13.518
 5293TIP3    H137294   5.627   5.227  13.499
 5293TIP3    H237295   5.547   5.347  13.546
 5294TIP3   OH237296   4.716   5.261  13.367
 5294TIP3    H137297   4.703   5.337  13.423
 5294TIP3    H237298   4.643   5.202  13.388
 5295TIP3   OH237299   4.804   5.585  12.358
 5295TIP3    H137300   4.780   5.585  12.266
 5295TIP3    H237301   4.767   5.667  12.392
 5296TIP3   OH237302   4.141   5.477  12.548
 5296TIP3    H137303   4.156   5.442  12.636
 5296TIP3    H237304   4.082   5.414  12.506
 5297TIP3   OH237305   5.089   5.546  12.043
 5297TIP3    H137306   5.136   5.473  12.003
 5297TIP3    H237307   5.100   5.533  12.137
 5298TIP3   OH237308   5.069   5.529  12.322
 5298TIP3    H137309   4.976   5.544  12.335
 5298TIP3    H237310   5.093   5.466  12.390
 5299TIP3   OH237311   5.341   4.430  13.529
 5299TIP3    H137312   5.277   4.484  13.483
 5299TIP3    H237313   5.318   4.340  13.506
 5300TIP3   OH237314   4.069   5.098  13.311
 5300TIP3    H137315   4.091   5.060  13.396
 5300TIP3    H237316   3.990   5.052  13.284
 5301TIP3   OH237317   4.319   3.910  12.941
 5301TIP3    H137318   4.244   3.899  12.883
 5301TIP3    H237319   4.296   3.984  12.997
 5302TIP3   OH237320   4.795   3.898  13.283
 5302TIP3    H137321   4.839   3.844  13.349
 5302TIP3    H237322   4.701   3.885  13.300
 5303TIP3   OH237323   5.114   4.275  13.379
 5303TIP3    H137324   5.048   4.267  13.447
 5303TIP3    H237325   5.106   4.365  13.348
 5304TIP3   OH237326   5.203   4.711  11.942
 5304TIP3    H137327   5.173   4.726  11.853
 5304TIP3    H237328   5.295   4.738  11.942
 5305TIP3   OH237329   4.753   4.115  12.014
 5305TIP3    H137330   4.692   4.116  12.087
 5305TIP3    H237331   4.715   4.053  11.952
 5306TIP3   OH237332   4.327   4.429  13.054
 5306TIP3    H137333   4.265   4.430  13.127
 5306TIP3    H237334   4.335   4.521  13.028
 5307TIP3   OH237335   4.328   4.428  12.549
 5307TIP3    H137336   4.234   4.417  12.537
 5307TIP3    H237337   4.365   4.416  12.462
 5308TIP3   OH237338   4.877   4.467  12.436
 5308TIP3    H137339   4.850   4.551  12.400
 5308TIP3    H237340   4.945   4.436  12.376
 5309TIP3   OH237341   4.804   4.462  13.692
 5309TIP3    H137342   4.748   4.388  13.668
 5309TIP3    H237343   4.828   4.501  13.609
 5310TIP3   OH237344   4.974   4.408  12.696
 5310TIP3    H137345   4.932   4.456  12.625
 5310TIP3    H237346   5.016   4.334  12.653
 5311TIP3   OH237347   4.118   4.428  13.234
 5311TIP3    H137348   4.159   4.456  13.316
 5311TIP3    H237349   4.075   4.345  13.256
 5312TIP3   OH237350   4.440   4.175  11.911
 5312TIP3    H137351   4.401   4.162  11.997
 5312TIP3    H237352   4.381   4.235  11.866
 5313TIP3   OH237353   3.772   4.175  12.646
 5313TIP3    H137354   3.838   4.137  12.704
 5313TIP3    H237355   3.793   4.140  12.560
 5314TIP3   OH237356   3.834   4.224  12.148
 5314TIP3    H137357   3.902   4.260  12.090
 5314TIP3    H237358   3.773   4.297  12.160
 5315TIP3   OH237359   4.837   4.592  13.122
 5315TIP3    H137360   4.887   4.518  13.087
 5315TIP3    H237361   4.858   4.592  13.215
 5316TIP3   OH237362   4.637   4.150  12.643
 5316TIP3    H137363   4.549   4.154  12.678
 5316TIP3    H237364   4.691   4.118  12.715
 5317TIP3   OH237365   4.070   4.327  12.503
 5317TIP3    H137366   4.004   4.338  12.435
 5317TIP3    H237367   4.107   4.240  12.488
 5318TIP3   OH237368   4.401   4.362  12.294
 5318TIP3    H137369   4.496   4.353  12.305
 5318TIP3    H237370   4.390   4.402  12.208
 5319TIP3   OH237371   5.029   4.116  12.971
 5319TIP3    H137372   4.987   4.120  13.056
 5319TIP3    H237373   4.964   4.075  12.913
 5320TIP3   OH237374   4.351   4.457  12.043
 5320TIP3    H137375   4.299   4.428  11.968
 5320TIP3    H237376   4.427   4.501  12.004
 5321TIP3   OH237377   5.377   5.671  13.610
 5321TIP3    H137378   5.393   5.703  13.522
 5321TIP3    H237379   5.452   5.701  13.661
 5322TIP3   OH237380   4.131   4.945  13.549
 5322TIP3    H137381   4.198   4.937  13.617
 5322TIP3    H237382   4.049   4.951  13.597
 5323TIP3   OH237383   4.696   4.469  12.826
 5323TIP3    H137384   4.771   4.422  12.791
 5323TIP3    H237385   4.670   4.418  12.903
 5324TIP3   OH237386   4.186   4.075  12.478
 5324TIP3    H137387   4.134   3.999  12.503
 5324TIP3    H237388   4.227   4.051  12.395
 5325TIP3   OH237389   4.588   4.330  13.053
 5325TIP3    H137390   4.502   4.372  13.058
 5325TIP3    H237391   4.631   4.353  13.135
 5326TIP3   OH237392   4.625   4.902  12.246
 5326TIP3    H137393   4.554   4.867  12.193
 5326TIP3    H237394   4.584   4.927  12.329
 5327TIP3   OH237395   5.340   4.860  13.084
 5327TIP3    H137396   5.398   4.917  13.032
 5327TIP3    H237397   5.266   4.841  13.026
 5328TIP3   OH237398   5.005   4.165  12.105
 5328TIP3    H137399   4.916   4.161  12.069
 5328TIP3    H237400   5.015   4.256  12.132
 5329TIP3   OH237401   4.810   4.910  13.352
 5329TIP3    H137402   4.834   4.819  13.369
 5329TIP3    H237403   4.792   4.947  13.439
 5330TIP3   OH237404   5.075   4.400  12.246
 5330TIP3    H137405   5.166   4.386  12.273
 5330TIP3    H237406   5.076   4.488  12.207
 5331TIP3   OH237407   4.155   4.849  12.791
 5331TIP3    H137408   4.210   4.842  12.713
 5331TIP3    H237409   4.201   4.799  12.858
 5332TIP3   OH237410   4.838   5.057  12.174
 5332TIP3    H137411   4.805   5.147  12.180
 5332TIP3    H237412   4.762   5.003  12.195
 5333TIP3   OH237413   3.858   4.683  13.336
 5333TIP3    H137414   3.832   4.637  13.416
 5333TIP3    H237415   3.801   4.648  13.268
 5334TIP3   OH237416   4.589   4.678  13.551
 5334TIP3    H137417   4.529   4.641  13.487
 5334TIP3    H237418   4.676   4.661  13.514
 5335TIP3   OH237419   4.995   5.222  13.377
 5335TIP3    H137420   4.903   5.225  13.350
 5335TIP3    H237421   4.992   5.234  13.472
 5336TIP3   OH237422   5.539   4.438  12.191
 5336TIP3    H137423   5.497   4.417  12.108
 5336TIP3    H237424   5.565   4.530  12.182
 5337TIP3   OH237425   5.613   5.050  13.475
 5337TIP3    H137426   5.521   5.033  13.458
 5337TIP3    H237427   5.658   5.020  13.397
 5338TIP3   OH237428   5.418   5.279  12.251
 5338TIP3    H137429   5.362   5.204  12.270
 5338TIP3    H237430   5.456   5.259  12.166
 5339TIP3   OH237431   5.129   4.786  12.909
 5339TIP3    H137432   5.035   4.781  12.895
 5339TIP3    H237433   5.165   4.711  12.862
 5340TIP3   OH237434   4.410   5.216  12.580
 5340TIP3    H137435   4.439   5.300  12.545
 5340TIP3    H237436   4.316   5.216  12.566
 5341TIP3   OH237437   3.987   4.667  12.048
 5341TIP3    H137438   4.029   4.742  12.091
 5341TIP3    H237439   3.894   4.676  12.069
 5342TIP3   OH237440   4.490   4.975  12.468
 5342TIP3    H137441   4.476   5.061  12.508
 5342TIP3    H237442   4.431   4.917  12.517
 5343TIP3   OH237443   4.602   5.391  13.149
 5343TIP3    H137444   4.660   5.463  13.125
 5343TIP3    H237445   4.653   5.337  13.209
 5344TIP3   OH237446   4.407   5.477  12.474
 5344TIP3    H137447   4.314   5.492  12.489
 5344TIP3    H237448   4.450   5.556  12.506
 5345TIP3   OH237449   4.902   5.004  13.112
 5345TIP3    H137450   4.867   4.978  13.197
 5345TIP3    H237451   4.953   4.928  13.084
 5346TIP3   OH237452   5.194   5.100  12.037
 5346TIP3    H137453   5.203   5.060  12.124
 5346TIP3    H237454   5.108   5.074  12.007
 5347TIP3   OH237455   5.208   5.412  13.348
 5347TIP3    H137456   5.127   5.363  13.338
 5347TIP3    H237457   5.200   5.485  13.287
 5348TIP3   OH237458   5.600   5.529  12.031
 5348TIP3    H137459   5.634   5.594  11.969
 5348TIP3    H237460   5.527   5.573  12.075
 5349TIP3   OH237461   3.995   4.175  13.276
 5349TIP3    H137462   3.905   4.203  13.258
 5349TIP3    H237463   3.985   4.094  13.326
 5350TIP3   OH237464   5.279   4.984  12.284
 5350TIP3    H137465   5.236   4.904  12.313
 5350TIP3    H237466   5.372   4.961  12.282
 5351TIP3   OH237467   4.003   5.358  13.143
 5351TIP3    H137468   4.034   5.279  13.188
 5351TIP3    H237469   4.020   5.429  13.205
 5352TIP3   OH237470   4.565   5.189  11.885
 5352TIP3    H137471   4.566   5.106  11.837
 5352TIP3    H237472   4.519   5.169  11.966
 5353TIP3   OH237473   4.435   5.167  12.130
 5353TIP3    H137474   4.484   5.118  12.195
 5353TIP3    H237475   4.445   5.259  12.156
 5354TIP3   OH237476   4.082   4.883  12.199
 5354TIP3    H137477   4.010   4.932  12.240
 5354TIP3    H237478   4.128   4.949  12.146
 5355TIP3   OH237479   4.910   4.143  13.219
 5355TIP3    H137480   4.978   4.157  13.285
 5355TIP3    H237481   4.868   4.061  13.245
 5356TIP3   OH237482   4.979   4.061  12.361
 5356TIP3    H137483   4.985   4.098  12.272
 5356TIP3    H237484   5.021   4.126  12.417
 5357TIP3   OH237485   4.737   5.309  12.192
 5357TIP3    H137486   4.648   5.341  12.207
 5357TIP3    H237487   4.782   5.381  12.150
 5358TIP3   OH237488   4.657   4.300  12.408
 5358TIP3    H137489   4.732   4.360  12.415
 5358TIP3    H237490   4.650   4.260  12.494
 5359TIP3   OH237491   4.720   4.353  13.294
 5359TIP3    H137492   4.766   4.421  13.343
 5359TIP3    H237493   4.787   4.287  13.275
 5360TIP3   OH237494   4.738   3.963  12.455
 5360TIP3    H137495   4.712   4.033  12.515
 5360TIP3    H237496   4.824   3.990  12.423
 5361TIP3   OH237497   4.488   5.422  12.216
 5361TIP3    H137498   4.493   5.506  12.171
 5361TIP3    H237499   4.457   5.444  12.304
 5362TIP3   OH237500   4.330   4.118  12.165
 5362TIP3    H137501   4.327   4.203  12.209
 5362TIP3    H237502   4.417   4.084  12.186
 5363TIP3   OH237503   5.352   4.143  13.355
 5363TIP3    H137504   5.267   4.185  13.369
 5363TIP3    H237505   5.341   4.094  13.274
 5364TIP3   OH237506   5.214   4.540  12.784
 5364TIP3    H137507   5.131   4.498  12.760
 5364TIP3    H237508   5.259   4.474  12.837
 5365TIP3   OH237509   4.182   5.089  12.039
 5365TIP3    H137510   4.255   5.138  12.076
 5365TIP3    H237511   4.220   5.036  11.970
 5366TIP3   OH237512   3.972   4.396  11.986
 5366TIP3    H137513   3.989   4.487  12.010
 5366TIP3    H237514   3.954   4.399  11.892
 5367TIP3   OH237515   5.344   5.494  12.948
 5367TIP3    H137516   5.326   5.568  12.890
 5367TIP3    H237517   5.440   5.491  12.954
 5368TIP3   OH237518   4.064   3.884  12.827
 5368TIP3    H137519   4.058   3.873  12.732
 5368TIP3    H237520   4.032   3.801  12.862
 5369TIP3   OH237521   3.950   5.303  12.428
 5369TIP3    H137522   3.887   5.333  12.493
 5369TIP3    H237523   3.939   5.364  12.355
 5370TIP3   OH237524   3.917   5.568  13.612
 5370TIP3    H137525   3.985   5.541  13.673
 5370TIP3    H237526   3.885   5.487  13.573
 5371TIP3   OH237527   4.346   5.386  13.748
 5371TIP3    H137528   4.430   5.343  13.763
 5371TIP3    H237529   4.322   5.361  13.658
 5372TIP3   OH237530   4.766   5.376  11.872
 5372TIP3    H137531   4.699   5.309  11.880
 5372TIP3    H237532   4.842   5.330  11.836
 5373TIP3   OH237533   4.985   5.258  13.653
 5373TIP3    H137534   4.978   5.173  13.694
 5373TIP3    H237535   5.064   5.297  13.691
 5374TIP3   OH237536   5.214   5.344  11.907
 5374TIP3    H137537   5.226   5.263  11.956
 5374TIP3    H237538   5.286   5.345  11.844
 5375TIP3   OH237539   3.884   4.941  13.681
 5375TIP3    H137540   3.887   4.846  13.668
 5375TIP3    H237541   3.817   4.971  13.620
 5376TIP3   OH237542   4.315   4.911  11.883
 5376TIP3    H137543   4.343   4.864  11.961
 5376TIP3    H237544   4.396   4.924  11.833
 5377TIP3   OH237545   4.548   4.946  13.630
 5377TIP3    H137546   4.533   4.994  13.548
 5377TIP3    H237547   4.572   4.858  13.602
 5378TIP3   OH237548   4.949   5.041  11.923
 5378TIP3    H137549   4.899   5.041  12.005
 5378TIP3    H237550   4.923   4.960  11.879
 5379TIP3   OH237551   5.127   4.956  13.420
 5379TIP3    H137552   5.214   4.978  13.389
 5379TIP3    H237553   5.071   5.026  13.388
 5380TIP3   OH237554   3.962   4.675  13.647
 5380TIP3    H137555   4.042   4.656  13.597
 5380TIP3    H237556   3.988   4.665  13.738
 5381TIP3   OH237557   4.421   4.776  12.107
 5381TIP3    H137558   4.372   4.726  12.172
 5381TIP3    H237559   4.470   4.710  12.058
 5382TIP3   OH237560   4.357   4.540  13.367
 5382TIP3    H137561   4.291   4.610  13.377
 5382TIP3    H237562   4.424   4.579  13.311
 5383TIP3   OH237563   4.568   4.600  11.952
 5383TIP3    H137564   4.564   4.627  11.861
 5383TIP3    H237565   4.661   4.589  11.970
 5384TIP3   OH237566   4.886   4.790  13.700
 5384TIP3    H137567   4.907   4.746  13.617
 5384TIP3    H237568   4.849   4.720  13.755
 5385TIP3   OH237569   5.467   4.788  11.894
 5385TIP3    H137570   5.462   4.768  11.801
 5385TIP3    H237571   5.459   4.883  11.899
 5386TIP3   OH237572   4.418   4.287  13.455
 5386TIP3    H137573   4.435   4.229  13.382
 5386TIP3    H237574   4.408   4.374  13.415
 5387TIP3   OH237575   4.457   4.131  13.222
 5387TIP3    H137576   4.514   4.177  13.161
 5387TIP3    H237577   4.372   4.128  13.178
 5388TIP3   OH237578   4.560   4.655  13.230
 5388TIP3    H137579   4.649   4.633  13.203
 5388TIP3    H237580   4.542   4.738  13.186
 5389TIP3   OH237581   5.056   4.403  13.808
 5389TIP3    H137582   4.983   4.397  13.746
 5389TIP3    H237583   5.122   4.455  13.763
 5390TIP3   OH237584   5.190   4.735  13.576
 5390TIP3    H137585   5.145   4.801  13.523
 5390TIP3    H237586   5.281   4.738  13.547
 5391TIP3   OH237587   4.256   4.347  13.678
 5391TIP3    H137588   4.178   4.294  13.663
 5391TIP3    H237589   4.306   4.340  13.596
 5392TIP3   OH237590   4.516   3.867  13.287
 5392TIP3    H137591   4.496   3.958  13.265
 5392TIP3    H237592   4.449   3.816  13.242
 5393TIP3   OH237593   4.650   4.247  13.617
 5393TIP3    H137594   4.592   4.218  13.687
 5393TIP3    H237595   4.592   4.261  13.542
 5394TIP3   OH237596   4.930   4.219  13.568
 5394TIP3    H137597   4.837   4.211  13.588
 5394TIP3    H237598   4.973   4.160  13.629
 5395TIP3   OH237599   5.102   4.064  13.735
 5395TIP3    H137600   5.091   3.971  13.718
 5395TIP3    H237601   5.069   4.076  13.825
 5396TIP3   OH237602   4.049   4.157  13.649
 5396TIP3    H137603   4.053   4.081  13.590
 5396TIP3    H237604   4.066   4.119  13.736
 5397TIP3   OH237605   4.500   3.785  13.548
 5397TIP3    H137606   4.557   3.708  13.544
 5397TIP3    H237607   4.499   3.819  13.458
 5398TIP3   OH237608   4.576   3.940  13.762
 5398TIP3    H137609   4.556   3.889  13.684
 5398TIP3    H237610   4.520   4.017  13.755
 5399TIP3   OH237611   4.563   5.663  12.099
 5399TIP3    H137612   4.652   5.631  12.085
 5399TIP3    H237613   4.547   5.724  12.027
 5400TIP3   OH237614   3.912   5.120  11.999
 5400TIP3    H137615   4.007   5.119  12.013
 5400TIP3    H237616   3.896   5.051  11.934
 5401TIP3   OH237617   3.788   5.629  12.533
 5401TIP3    H137618   3.733   5.600  12.461
 5401TIP3    H237619   3.803   5.550  12.586
 5402TIP3   OH237620   3.847   5.406  12.688
 5402TIP3    H137621   3.801   5.333  12.729
 5402TIP3    H237622   3.893   5.448  12.760
 5403TIP3   OH237623   5.614   5.492  13.008
 5403TIP3    H137624   5.616   5.506  13.103
 5403TIP3    H237625   5.692   5.536  12.975
 5404TIP3   OH237626   5.552   5.474  13.287
 5404TIP3    H137627   5.500   5.403  13.249
 5404TIP3    H237628   5.604   5.432  13.355
 5405TIP3   OH237629   5.430   5.064  13.777
 5405TIP3    H137630   5.340   5.072  13.810
 5405TIP3    H237631   5.475   5.141  13.811
 5406TIP3   OH237632   5.545   4.897  12.303
 5406TIP3    H137633   5.619   4.957  12.304
 5406TIP3    H237634   5.563   4.835  12.374
 5407TIP3   OH237635   5.592   4.693  12.487
 5407TIP3    H137636   5.506   4.658  12.512
 5407TIP3    H237637   5.639   4.702  12.570
 5408TIP3   OH237638   5.586   4.985  13.011
 5408TIP3    H137639   5.635   4.920  12.960
 5408TIP3    H237640   5.608   5.069  12.970
 5409TIP3   OH237641   5.392   5.256  13.211
 5409TIP3    H137642   5.319   5.303  13.252
 5409TIP3    H237643   5.363   5.240  13.121
 5410TIP3   OH237644   5.602   4.698  12.118
 5410TIP3    H137645   5.555   4.721  12.037
 5410TIP3    H237646   5.578   4.767  12.179
 5411TIP3   OH237647   5.437   4.399  11.940
 5411TIP3    H137648   5.412   4.462  11.873
 5411TIP3    H237649   5.415   4.313  11.903
 5412TIP3   OH237650   5.346   4.572  12.539
 5412TIP3    H137651   5.340   4.484  12.502
 5412TIP3    H237652   5.304   4.564  12.625
 5413TIP3   OH237653   3.846   4.759  12.950
 5413TIP3    H137654   3.861   4.751  12.856
 5413TIP3    H237655   3.929   4.731  12.990
 5414TIP3   OH237656   5.459   4.757  13.507
 5414TIP3    H137657   5.517   4.682  13.492
 5414TIP3    H237658   5.465   4.809  13.427
 5415TIP3   OH237659   5.600   4.516  13.505
 5415TIP3    H137660   5.511   4.481  13.510
 5415TIP3    H237661   5.654   4.450  13.549
 5416TIP3   OH237662   5.366   4.150  11.843
 5416TIP3    H137663   5.403   4.103  11.918
 5416TIP3    H237664   5.274   4.124  11.841
 5417TIP3   OH237665   5.339   4.330  12.369
 5417TIP3    H137666   5.365   4.238  12.372
 5417TIP3    H237667   5.405   4.372  12.313
 5418TIP3   OH237668   5.370   4.354  12.932
 5418TIP3    H137669   5.462   4.365  12.910
 5418TIP3    H237670   5.364   4.377  13.025
 5419TIP3   OH237671   5.401   4.454  13.192
 5419TIP3    H137672   5.323   4.479  13.243
 5419TIP3    H237673   5.448   4.535  13.178
 5420TIP3   OH237674   3.816   4.272  13.551
 5420TIP3    H137675   3.902   4.245  13.583
 5420TIP3    H237676   3.763   4.192  13.555
 5421TIP3   OH237677   5.634   3.867  13.721
 5421TIP3    H137678   5.693   3.803  13.681
 5421TIP3    H237679   5.627   3.937  13.655
 5422TIP3   OH237680   5.398   4.056  12.386
 5422TIP3    H137681   5.413   4.014  12.471
 5422TIP3    H237682   5.332   4.002  12.344
 5423TIP3   OH237683   3.935   4.123  12.872
 5423TIP3    H137684   3.973   4.035  12.866
 5423TIP3    H237685   4.010   4.181  12.878
 5424TIP3   OH237686   3.735   4.457  12.897
 5424TIP3    H137687   3.831   4.450  12.896
 5424TIP3    H237688   3.717   4.521  12.966
 5425TIP3   OH237689   5.562   4.067  13.545
 5425TIP3    H137690   5.488   4.102  13.595
 5425TIP3    H237691   5.524   4.038  13.463
 5426TIP3   OH237692   5.537   4.032  12.033
 5426TIP3    H137693   5.586   3.976  11.973
 5426TIP3    H237694   5.601   4.095  12.065
 5427TIP3   OH237695   3.781   4.096  12.385
 5427TIP3    H137696   3.690   4.069  12.368
 5427TIP3    H237697   3.810   4.133  12.302
 5428TIP3   OH237698   5.297   5.564  12.568
 5428TIP3    H137699   5.352   5.541  12.493
 5428TIP3    H237700   5.342   5.637  12.610
 5429TIP3   OH237701   3.803   3.916  13.198
 5429TIP3    H137702   3.728   3.881  13.246
 5429TIP3    H237703   3.765   3.968  13.127
 5430TIP3   OH237704   4.014   5.271  13.593
 5430TIP3    H137705   3.927   5.278  13.553
 5430TIP3    H237706   3.998   5.235  13.680
 5431TIP3   OH237707   4.341   5.367  13.233
 5431TIP3    H137708   4.309   5.453  13.206
 5431TIP3    H237709   4.434   5.367  13.210
 5432TIP3   OH237710   4.704   5.487  13.531
 5432TIP3    H137711   4.724   5.457  13.620
 5432TIP3    H237712   4.783   5.534  13.504
 5433TIP3   OH237713   4.936   5.618  13.464
 5433TIP3    H137714   4.987   5.572  13.397
 5433TIP3    H237715   5.000   5.640  13.532
 5434TIP3   OH237716   5.466   3.835  13.348
 5434TIP3    H137717   5.386   3.845  13.295
 5434TIP3    H237718   5.494   3.745  13.331
 5435TIP3   OH237719   4.036   5.653  13.254
 5435TIP3    H137720   3.959   5.691  13.214
 5435TIP3    H237721   4.048   5.702  13.335
 5436TIP3   OH237722   4.295   5.628  13.161
 5436TIP3    H137723   4.203   5.641  13.186
 5436TIP3    H237724   4.303   5.673  13.077
 5437TIP3   OH237725   4.754   5.607  13.064
 5437TIP3    H137726   4.705   5.638  12.988
 5437TIP3    H237727   4.762   5.684  13.120
 5438TIP3   OH237728   4.979   5.500  13.188
 5438TIP3    H137729   4.902   5.529  13.138
 5438TIP3    H237730   5.051   5.551  13.152
 5439TIP3   OH237731   5.228   5.627  13.158
 5439TIP3    H137732   5.244   5.719  13.136
 5439TIP3    H237733   5.266   5.578  13.085
 5440TIP3   OH237734   3.998   5.511  12.910
 5440TIP3    H137735   3.994   5.464  12.993
 5440TIP3    H237736   4.075   5.476  12.866
 5441TIP3   OH237737   4.212   5.387  12.801
 5441TIP3    H137738   4.201   5.296  12.828
 5441TIP3    H237739   4.301   5.409  12.829
 5442TIP3   OH237740   4.476   5.417  12.901
 5442TIP3    H137741   4.485   5.328  12.868
 5442TIP3    H237742   4.510   5.413  12.991
 5443TIP3   OH237743   4.810   3.994  12.807
 5443TIP3    H137744   4.748   3.923  12.823
 5443TIP3    H237745   4.884   3.951  12.763
 5444TIP3   OH237746   5.298   3.842  12.814
 5444TIP3    H137747   5.356   3.891  12.756
 5444TIP3    H237748   5.210   3.866  12.784
 5445TIP3   OH237749   5.477   3.925  12.621
 5445TIP3    H137750   5.543   3.863  12.591
 5445TIP3    H237751   5.525   4.006  12.638
 5446TIP3   OH237752   4.037   3.851  12.553
 5446TIP3    H137753   3.945   3.834  12.530
 5446TIP3    H237754   4.081   3.768  12.539
 5447TIP3   OH237755   3.965   3.862  12.155
 5447TIP3    H137756   4.021   3.906  12.090
 5447TIP3    H237757   3.910   3.932  12.189
 5448TIP3   OH237758   4.523   3.821  12.573
 5448TIP3    H137759   4.594   3.866  12.528
 5448TIP3    H237760   4.549   3.822  12.665
 5449TIP3   OH237761   5.034   3.864  12.705
 5449TIP3    H137762   5.057   3.849  12.613
 5449TIP3    H237763   5.010   3.777  12.738
 5450TIP3   OH237764   5.192   3.889  12.296
 5450TIP3    H137765   5.115   3.944  12.308
 5450TIP3    H237766   5.160   3.799  12.307
 5451TIP3   OH237767   3.924   5.482  12.221
 5451TIP3    H137768   3.853   5.475  12.157
 5451TIP3    H237769   3.947   5.575  12.221
 5452TIP3   OH237770   4.137   4.011  11.987
 5452TIP3    H137771   4.187   3.956  11.927
 5452TIP3    H237772   4.201   4.045  12.049
 5453TIP3   OH237773   4.594   4.091  12.241
 5453TIP3    H137774   4.627   4.015  12.289
 5453TIP3    H237775   4.618   4.166  12.295
 5454TIP3   OH237776   4.814   5.554  12.071
 5454TIP3    H137777   4.907   5.572  12.061
 5454TIP3    H237778   4.790   5.503  11.994
 5455TIP3   OH237779   5.473   5.523  12.360
 5455TIP3    H137780   5.457   5.435  12.327
 5455TIP3    H237781   5.457   5.580  12.286
 5456TIP3   OH237782   4.048   3.910  13.508
 5456TIP3    H137783   3.991   3.839  13.537
 5456TIP3    H237784   4.131   3.894  13.553
 5457TIP3   OH237785   4.256   3.845  13.680
 5457TIP3    H137786   4.339   3.819  13.640
 5457TIP3    H237787   4.223   3.765  13.720
 5458TIP3   OH237788   4.111   5.521  11.918
 5458TIP3    H137789   4.087   5.516  12.011
 5458TIP3    H237790   4.188   5.464  11.911
 5459TIP3   OH237791   5.108   3.792  13.683
 5459TIP3    H137792   5.098   3.745  13.766
 5459TIP3    H237793   5.201   3.785  13.663
 5460TIP3   OH237794   5.373   5.398  13.571
 5460TIP3    H137795   5.318   5.388  13.493
 5460TIP3    H237796   5.373   5.493  13.588
 5461TIP3   OH237797   6.836   4.803  12.542
 5461TIP3    H137798   6.824   4.897  12.536
 5461TIP3    H237799   6.775   4.767  12.477
 5462TIP3   OH237800   6.699   4.722  12.922
 5462TIP3    H137801   6.723   4.676  13.003
 5462TIP3    H237802   6.661   4.654  12.867
 5463TIP3   OH237803   5.957   4.654  13.060
 5463TIP3    H137804   5.965   4.580  13.121
 5463TIP3    H237805   6.047   4.669  13.030
 5464TIP3   OH237806   7.108   5.009  12.766
 5464TIP3    H137807   7.055   4.944  12.814
 5464TIP3    H237808   7.130   5.075  12.832
 5465TIP3   OH237809   6.086   5.132  12.886
 5465TIP3    H137810   6.057   5.044  12.860
 5465TIP3    H237811   6.181   5.126  12.888
 5466TIP3   OH237812   5.735   4.462  12.405
 5466TIP3    H137813   5.699   4.546  12.434
 5466TIP3    H237814   5.676   4.433  12.335
 5467TIP3   OH237815   5.782   4.694  12.693
 5467TIP3    H137816   5.815   4.606  12.710
 5467TIP3    H237817   5.860   4.745  12.671
 5468TIP3   OH237818   6.824   5.487  12.804
 5468TIP3    H137819   6.845   5.430  12.729
 5468TIP3    H237820   6.814   5.426  12.877
 5469TIP3   OH237821   6.565   4.969  12.944
 5469TIP3    H137822   6.602   4.888  12.910
 5469TIP3    H237823   6.635   5.008  12.996
 5470TIP3   OH237824   6.871   4.377  12.955
 5470TIP3    H137825   6.886   4.283  12.962
 5470TIP3    H237826   6.869   4.394  12.861
 5471TIP3   OH237827   6.235   4.168  12.699
 5471TIP3    H137828   6.247   4.255  12.661
 5471TIP3    H237829   6.185   4.119  12.633
 5472TIP3   OH237830   6.991   4.223  12.529
 5472TIP3    H137831   7.035   4.174  12.598
 5472TIP3    H237832   7.062   4.254  12.473
 5473TIP3   OH237833   5.870   4.441  12.766
 5473TIP3    H137834   5.936   4.401  12.823
 5473TIP3    H237835   5.888   4.406  12.679
 5474TIP3   OH237836   6.346   4.582  12.737
 5474TIP3    H137837   6.435   4.552  12.756
 5474TIP3    H237838   6.312   4.517  12.676
 5475TIP3   OH237839   6.069   4.127  13.132
 5475TIP3    H137840   6.052   4.175  13.051
 5475TIP3    H237841   5.996   4.150  13.190
 5476TIP3   OH237842   6.776   5.055  12.451
 5476TIP3    H137843   6.784   5.059  12.355
 5476TIP3    H237844   6.727   5.134  12.474
 5477TIP3   OH237845   6.350   4.880  13.091
 5477TIP3    H137846   6.300   4.953  13.128
 5477TIP3    H237847   6.420   4.922  13.041
 5478TIP3   OH237848   7.081   4.115  12.768
 5478TIP3    H137849   7.008   4.101  12.829
 5478TIP3    H237850   7.144   4.167  12.817
 5479TIP3   OH237851   6.063   4.275  12.895
 5479TIP3    H137852   6.121   4.333  12.945
 5479TIP3    H237853   6.119   4.241  12.824
 5480TIP3   OH237854   6.205   5.088  13.205
 5480TIP3    H137855   6.213   5.181  13.184
 5480TIP3    H237856   6.113   5.077  13.228
 5481TIP3   OH237857   5.772   5.062  12.279
 5481TIP3    H137858   5.765   5.099  12.191
 5481TIP3    H237859   5.796   5.136  12.335
 5482TIP3   OH237860   7.127   5.213  12.963
 5482TIP3    H137861   7.033   5.230  12.965
 5482TIP3    H237862   7.166   5.296  12.935
 5483TIP3   OH237863   7.136   4.033  13.079
 5483TIP3    H137864   7.046   4.042  13.047
 5483TIP3    H237865   7.185   4.100  13.032
 5484TIP3   OH237866   6.460   3.806  12.848
 5484TIP3    H137867   6.437   3.713  12.854
 5484TIP3    H237868   6.378   3.852  12.870
 5485TIP3   OH237869   6.921   5.346  12.585
 5485TIP3    H137870   6.963   5.262  12.567
 5485TIP3    H237871   6.993   5.408  12.595
 5486TIP3   OH237872   7.102   5.151  12.525
 5486TIP3    H137873   7.104   5.094  12.447
 5486TIP3    H237874   7.109   5.090  12.599
 5487TIP3   OH237875   7.249   4.995  13.381
 5487TIP3    H137876   7.252   4.934  13.307
 5487TIP3    H237877   7.243   5.081  13.340
 5488TIP3   OH237878   6.705   4.717  12.310
 5488TIP3    H137879   6.638   4.781  12.287
 5488TIP3    H237880   6.771   4.725  12.241
 5489TIP3   OH237881   6.744   4.578  11.971
 5489TIP3    H137882   6.801   4.606  12.043
 5489TIP3    H237883   6.800   4.522  11.918
 5490TIP3   OH237884   7.058   4.734  12.394
 5490TIP3    H137885   6.988   4.764  12.453
 5490TIP3    H237886   7.107   4.671  12.445
 5491TIP3   OH237887   7.004   4.558  13.284
 5491TIP3    H137888   7.029   4.649  13.301
 5491TIP3    H237889   6.925   4.565  13.231
 5492TIP3   OH237890   6.208   4.783  12.590
 5492TIP3    H137891   6.184   4.750  12.504
 5492TIP3    H237892   6.265   4.715  12.627
 5493TIP3   OH237893   6.363   5.144  12.846
 5493TIP3    H137894   6.362   5.153  12.751
 5493TIP3    H237895   6.438   5.088  12.865
 5494TIP3   OH237896   6.215   4.680  12.961
 5494TIP3    H137897   6.265   4.657  12.882
 5494TIP3    H237898   6.267   4.749  13.002
 5495TIP3   OH237899   6.858   5.255  13.006
 5495TIP3    H137900   6.857   5.319  13.077
 5495TIP3    H237901   6.828   5.173  13.046
 5496TIP3   OH237902   6.358   5.117  13.434
 5496TIP3    H137903   6.296   5.179  13.471
 5496TIP3    H237904   6.318   5.089  13.352
 5497TIP3   OH237905   6.945   4.668  12.154
 5497TIP3    H137906   6.984   4.697  12.236
 5497TIP3    H237907   7.001   4.705  12.086
 5498TIP3   OH237908   6.019   4.684  13.403
 5498TIP3    H137909   6.036   4.773  13.435
 5498TIP3    H237910   5.931   4.690  13.365
 5499TIP3   OH237911   6.664   5.309  12.501
 5499TIP3    H137912   6.750   5.325  12.539
 5499TIP3    H237913   6.647   5.386  12.447
 5500TIP3   OH237914   6.160   5.300  13.495
 5500TIP3    H137915   6.166   5.328  13.404
 5500TIP3    H237916   6.066   5.288  13.511
 5501TIP3   OH237917   6.123   4.697  12.336
 5501TIP3    H137918   6.074   4.767  12.294
 5501TIP3    H237919   6.078   4.617  12.309
 5502TIP3   OH237920   5.727   4.946  13.250
 5502TIP3    H137921   5.676   4.959  13.170
 5502TIP3    H237922   5.741   4.852  13.255
 5503TIP3   OH237923   5.695   5.231  12.927
 5503TIP3    H137924   5.786   5.233  12.957
 5503TIP3    H237925   5.656   5.311  12.962
 5504TIP3   OH237926   6.595   5.244  13.373
 5504TIP3    H137927   6.593   5.326  13.421
 5504TIP3    H237928   6.513   5.201  13.396
 5505TIP3   OH237929   6.682   5.577  12.362
 5505TIP3    H137930   6.664   5.583  12.268
 5505TIP3    H237931   6.650   5.660  12.397
 5506TIP3   OH237932   6.023   5.479  12.548
 5506TIP3    H137933   6.042   5.444  12.635
 5506TIP3    H237934   5.968   5.412  12.507
 5507TIP3   OH237935   6.972   5.525  12.040
 5507TIP3    H137936   7.019   5.450  12.004
 5507TIP3    H237937   6.979   5.514  12.135
 5508TIP3   OH237938   6.945   5.505  12.316
 5508TIP3    H137939   6.853   5.518  12.339
 5508TIP3    H237940   6.978   5.445  12.383
 5509TIP3   OH237941   7.161   4.480  13.546
 5509TIP3    H137942   7.171   4.470  13.451
 5509TIP3    H237943   7.241   4.440  13.582
 5510TIP3   OH237944   5.951   5.095  13.313
 5510TIP3    H137945   5.976   5.051  13.394
 5510TIP3    H237946   5.873   5.048  13.284
 5511TIP3   OH237947   6.222   3.959  12.906
 5511TIP3    H137948   6.138   3.929  12.871
 5511TIP3    H237949   6.245   4.033  12.850
 5512TIP3   OH237950   6.696   3.890  13.321
 5512TIP3    H137951   6.763   3.830  13.354
 5512TIP3    H237952   6.630   3.893  13.390
 5513TIP3   OH237953   6.993   4.276  13.361
 5513TIP3    H137954   6.931   4.267  13.433
 5513TIP3    H237955   6.993   4.370  13.341
 5514TIP3   OH237956   7.114   4.786  11.974
 5514TIP3    H137957   7.091   4.770  11.883
 5514TIP3    H237958   7.115   4.882  11.982
 5515TIP3   OH237959   6.635   4.120  12.009
 5515TIP3    H137960   6.576   4.120  12.084
 5515TIP3    H237961   6.599   4.054  11.949
 5516TIP3   OH237962   6.218   4.425  13.070
 5516TIP3    H137963   6.151   4.430  13.139
 5516TIP3    H237964   6.224   4.515  13.037
 5517TIP3   OH237965   6.220   4.406  12.563
 5517TIP3    H137966   6.125   4.402  12.555
 5517TIP3    H237967   6.252   4.399  12.473
 5518TIP3   OH237968   6.758   4.472  12.426
 5518TIP3    H137969   6.735   4.558  12.391
 5518TIP3    H237970   6.828   4.441  12.368
 5519TIP3   OH237971   6.678   4.483  13.542
 5519TIP3    H137972   6.634   4.408  13.583
 5519TIP3    H237973   6.765   4.484  13.582
 5520TIP3   OH237974   6.861   4.416  12.684
 5520TIP3    H137975   6.823   4.472  12.616
 5520TIP3    H237976   6.903   4.344  12.636
 5521TIP3   OH237977   6.003   4.442  13.242
 5521TIP3    H137978   6.000   4.502  13.317
 5521TIP3    H237979   5.949   4.368  13.268
 5522TIP3   OH237980   6.324   4.173  11.911
 5522TIP3    H137981   6.288   4.161  11.999
 5522TIP3    H237982   6.267   4.239  11.871
 5523TIP3   OH237983   5.648   4.133  12.633
 5523TIP3    H137984   5.718   4.143  12.698
 5523TIP3    H237985   5.695   4.126  12.550
 5524TIP3   OH237986   5.712   4.226  12.135
 5524TIP3    H137987   5.779   4.266  12.080
 5524TIP3    H237988   5.652   4.297  12.156
 5525TIP3   OH237989   6.771   4.556  13.133
 5525TIP3    H137990   6.810   4.496  13.069
 5525TIP3    H237991   6.714   4.500  13.186
 5526TIP3   OH237992   6.524   4.150  12.639
 5526TIP3    H137993   6.435   4.151  12.673
 5526TIP3    H237994   6.577   4.117  12.712
 5527TIP3   OH237995   5.953   4.340  12.526
 5527TIP3    H137996   5.881   4.374  12.472
 5527TIP3    H237997   5.971   4.253  12.490
 5528TIP3   OH237998   6.285   4.362  12.298
 5528TIP3    H137999   6.380   4.355  12.310
 5528TIP3    H238000   6.276   4.405  12.213
 5529TIP3   OH238001   6.880   4.097  12.970
 5529TIP3    H138002   6.840   4.111  13.056
 5529TIP3    H238003   6.810   4.062  12.916
 5530TIP3   OH238004   6.248   4.458  12.043
 5530TIP3    H138005   6.193   4.433  11.969
 5530TIP3    H238006   6.324   4.501  12.003
 5531TIP3   OH238007   7.236   5.718  13.603
 5531TIP3    H138008   7.263   5.787  13.542
 5531TIP3    H238009   7.315   5.666  13.616
 5532TIP3   OH238010   6.022   4.931  13.542
 5532TIP3    H138011   6.089   4.931  13.611
 5532TIP3    H238012   5.940   4.941  13.589
 5533TIP3   OH238013   6.590   4.473  12.823
 5533TIP3    H138014   6.666   4.435  12.779
 5533TIP3    H238015   6.572   4.412  12.895
 5534TIP3   OH238016   6.075   4.074  12.490
 5534TIP3    H138017   6.019   3.999  12.508
 5534TIP3    H238018   6.109   4.057  12.402
 5535TIP3   OH238019   6.482   4.330  13.059
 5535TIP3    H138020   6.401   4.380  13.064
 5535TIP3    H238021   6.532   4.358  13.135
 5536TIP3   OH238022   6.508   4.905  12.243
 5536TIP3    H138023   6.437   4.868  12.192
 5536TIP3    H238024   6.468   4.928  12.327
 5537TIP3   OH238025   7.185   4.846  13.132
 5537TIP3    H138026   7.255   4.831  13.068
 5537TIP3    H238027   7.106   4.850  13.078
 5538TIP3   OH238028   6.887   4.173  12.097
 5538TIP3    H138029   6.797   4.173  12.064
 5538TIP3    H238030   6.901   4.262  12.130
 5539TIP3   OH238031   6.667   4.944  13.362
 5539TIP3    H138032   6.726   4.920  13.433
 5539TIP3    H238033   6.653   5.038  13.374
 5540TIP3   OH238034   6.959   4.402  12.243
 5540TIP3    H138035   7.045   4.382  12.280
 5540TIP3    H238036   6.968   4.488  12.204
 5541TIP3   OH238037   6.052   4.864  12.802
 5541TIP3    H138038   6.102   4.851  12.721
 5541TIP3    H238039   6.089   4.802  12.864
 5542TIP3   OH238040   6.724   5.056  12.171
 5542TIP3    H138041   6.693   5.146  12.175
 5542TIP3    H238042   6.648   5.003  12.194
 5543TIP3   OH238043   5.751   4.670  13.331
 5543TIP3    H138044   5.717   4.622  13.406
 5543TIP3    H238045   5.684   4.657  13.263
 5544TIP3   OH238046   6.460   4.654  13.586
 5544TIP3    H138047   6.398   4.624  13.519
 5544TIP3    H238048   6.543   4.616  13.559
 5545TIP3   OH238049   6.866   5.177  13.390
 5545TIP3    H138050   6.783   5.212  13.358
 5545TIP3    H238051   6.881   5.221  13.473
 5546TIP3   OH238052   6.972   4.812  12.941
 5546TIP3    H138053   6.880   4.802  12.916
 5546TIP3    H238054   7.017   4.740  12.897
 5547TIP3   OH238055   6.301   5.215  12.583
 5547TIP3    H138056   6.336   5.297  12.548
 5547TIP3    H238057   6.208   5.217  12.560
 5548TIP3   OH238058   5.867   4.673  12.040
 5548TIP3    H138059   5.912   4.743  12.088
 5548TIP3    H238060   5.776   4.679  12.068
 5549TIP3   OH238061   6.376   4.973  12.469
 5549TIP3    H138062   6.367   5.059  12.510
 5549TIP3    H238063   6.318   4.916  12.520
 5550TIP3   OH238064   6.487   5.388  13.152
 5550TIP3    H138065   6.545   5.462  13.128
 5550TIP3    H238066   6.542   5.331  13.205
 5551TIP3   OH238067   6.290   5.476  12.472
 5551TIP3    H138068   6.197   5.492  12.488
 5551TIP3    H238069   6.334   5.554  12.505
 5552TIP3   OH238070   6.786   5.003  13.112
 5552TIP3    H138071   6.755   4.973  13.197
 5552TIP3    H238072   6.860   4.946  13.091
 5553TIP3   OH238073   7.071   5.057  12.031
 5553TIP3    H138074   7.079   5.045  12.125
 5553TIP3    H238075   6.976   5.060  12.015
 5554TIP3   OH238076   7.067   5.466  13.376
 5554TIP3    H138077   7.045   5.385  13.331
 5554TIP3    H238078   7.090   5.527  13.306
 5555TIP3   OH238079   5.857   4.202  13.301
 5555TIP3    H138080   5.767   4.231  13.285
 5555TIP3    H238081   5.847   4.122  13.352
 5556TIP3   OH238082   7.137   4.986  12.296
 5556TIP3    H138083   7.121   4.896  12.326
 5556TIP3    H238084   7.233   4.993  12.292
 5557TIP3   OH238085   5.885   5.367  13.146
 5557TIP3    H138086   5.917   5.287  13.189
 5557TIP3    H238087   5.908   5.437  13.206
 5558TIP3   OH238088   6.449   5.193  11.886
 5558TIP3    H138089   6.452   5.109  11.840
 5558TIP3    H238090   6.404   5.173  11.969
 5559TIP3   OH238091   6.321   5.165  12.132
 5559TIP3    H138092   6.374   5.115  12.194
 5559TIP3    H238093   6.331   5.256  12.159
 5560TIP3   OH238094   5.968   4.881  12.197
 5560TIP3    H138095   5.897   4.929  12.240
 5560TIP3    H238096   6.014   4.948  12.146
 5561TIP3   OH238097   6.789   4.134  13.226
 5561TIP3    H138098   6.866   4.162  13.275
 5561TIP3    H238099   6.762   4.053  13.268
 5562TIP3   OH238100   6.841   4.071  12.349
 5562TIP3    H138101   6.859   4.105  12.262
 5562TIP3    H238102   6.887   4.129  12.409
 5563TIP3   OH238103   6.621   5.305  12.183
 5563TIP3    H138104   6.533   5.338  12.204
 5563TIP3    H238105   6.667   5.380  12.146
 5564TIP3   OH238106   6.542   4.302  12.404
 5564TIP3    H138107   6.616   4.363  12.407
 5564TIP3    H238108   6.540   4.263  12.491
 5565TIP3   OH238109   6.637   4.371  13.285
 5565TIP3    H138110   6.652   4.405  13.373
 5565TIP3    H238111   6.686   4.289  13.282
 5566TIP3   OH238112   6.616   3.961  12.453
 5566TIP3    H138113   6.589   4.031  12.513
 5566TIP3    H238114   6.698   3.991  12.416
 5567TIP3   OH238115   6.372   5.419  12.217
 5567TIP3    H138116   6.378   5.503  12.171
 5567TIP3    H238117   6.343   5.442  12.305
 5568TIP3   OH238118   6.218   4.119  12.169
 5568TIP3    H138119   6.214   4.205  12.212
 5568TIP3    H238120   6.306   4.087  12.189
 5569TIP3   OH238121   7.236   4.128  13.334
 5569TIP3    H138122   7.171   4.181  13.379
 5569TIP3    H238123   7.202   4.118  13.245
 5570TIP3   OH238124   7.074   4.582  12.822
 5570TIP3    H138125   7.008   4.530  12.776
 5570TIP3    H238126   7.122   4.518  12.875
 5571TIP3   OH238127   6.068   5.090  12.040
 5571TIP3    H138128   6.141   5.137  12.078
 5571TIP3    H238129   6.107   5.036  11.971
 5572TIP3   OH238130   5.852   4.401  11.977
 5572TIP3    H138131   5.873   4.488  12.011
 5572TIP3    H238132   5.827   4.417  11.886
 5573TIP3   OH238133   7.240   5.514  12.952
 5573TIP3    H138134   7.220   5.577  12.884
 5573TIP3    H238135   7.335   5.503  12.947
 5574TIP3   OH238136   5.969   3.885  12.828
 5574TIP3    H138137   5.956   3.878  12.734
 5574TIP3    H238138   5.929   3.806  12.864
 5575TIP3   OH238139   5.835   5.301  12.428
 5575TIP3    H138140   5.775   5.329  12.497
 5575TIP3    H238141   5.821   5.364  12.357
 5576TIP3   OH238142   5.802   5.568  13.614
 5576TIP3    H138143   5.873   5.538  13.672
 5576TIP3    H238144   5.770   5.487  13.572
 5577TIP3   OH238145   6.234   5.386  13.744
 5577TIP3    H138146   6.316   5.340  13.762
 5577TIP3    H238147   6.212   5.362  13.654
 5578TIP3   OH238148   6.651   5.379  11.869
 5578TIP3    H138149   6.586   5.310  11.880
 5578TIP3    H238150   6.728   5.334  11.835
 5579TIP3   OH238151   6.869   5.273  13.650
 5579TIP3    H138152   6.846   5.188  13.687
 5579TIP3    H238153   6.950   5.297  13.694
 5580TIP3   OH238154   7.103   5.315  11.922
 5580TIP3    H138155   7.120   5.226  11.954
 5580TIP3    H238156   7.164   5.326  11.849
 5581TIP3   OH238157   5.774   4.946  13.675
 5581TIP3    H138158   5.774   4.851  13.664
 5581TIP3    H238159   5.708   4.978  13.614
 5582TIP3   OH238160   6.200   4.910  11.884
 5582TIP3    H138161   6.228   4.862  11.962
 5582TIP3    H238162   6.281   4.926  11.835
 5583TIP3   OH238163   6.430   4.942  13.635
 5583TIP3    H138164   6.421   4.989  13.552
 5583TIP3    H238165   6.466   4.857  13.610
 5584TIP3   OH238166   6.809   5.048  11.911
 5584TIP3    H138167   6.766   5.045  11.996
 5584TIP3    H238168   6.786   4.964  11.870
 5585TIP3   OH238169   6.983   4.926  13.404
 5585TIP3    H138170   7.076   4.947  13.393
 5585TIP3    H238171   6.938   5.009  13.390
 5586TIP3   OH238172   5.849   4.682  13.642
 5586TIP3    H138173   5.922   4.656  13.587
 5586TIP3    H238174   5.881   4.670  13.732
 5587TIP3   OH238175   6.308   4.772  12.104
 5587TIP3    H138176   6.260   4.720  12.169
 5587TIP3    H238177   6.359   4.708  12.054
 5588TIP3   OH238178   6.278   4.556  13.390
 5588TIP3    H138179   6.197   4.607  13.383
 5588TIP3    H238180   6.336   4.593  13.324
 5589TIP3   OH238181   6.461   4.602  11.941
 5589TIP3    H138182   6.459   4.632  11.850
 5589TIP3    H238183   6.554   4.588  11.959
 5590TIP3   OH238184   6.776   4.794  13.695
 5590TIP3    H138185   6.860   4.770  13.657
 5590TIP3    H238186   6.747   4.716  13.742
 5591TIP3   OH238187   6.315   4.293  13.459
 5591TIP3    H138188   6.323   4.238  13.381
 5591TIP3    H238189   6.307   4.382  13.425
 5592TIP3   OH238190   6.338   4.134  13.204
 5592TIP3    H138191   6.397   4.188  13.149
 5592TIP3    H238192   6.250   4.160  13.176
 5593TIP3   OH238193   6.462   4.668  13.224
 5593TIP3    H138194   6.556   4.685  13.232
 5593TIP3    H238195   6.427   4.745  13.180
 5594TIP3   OH238196   6.917   4.443  13.693
 5594TIP3    H138197   6.930   4.349  13.687
 5594TIP3    H238198   6.996   4.481  13.655
 5595TIP3   OH238199   7.030   4.733  13.596
 5595TIP3    H138200   7.020   4.796  13.525
 5595TIP3    H238201   7.088   4.666  13.560
 5596TIP3   OH238202   6.142   4.351  13.680
 5596TIP3    H138203   6.069   4.291  13.663
 5596TIP3    H238204   6.193   4.350  13.599
 5597TIP3   OH238205   6.370   3.855  13.237
 5597TIP3    H138206   6.402   3.945  13.235
 5597TIP3    H238207   6.441   3.804  13.197
 5598TIP3   OH238208   6.539   4.259  13.623
 5598TIP3    H138209   6.501   4.233  13.707
 5598TIP3    H238210   6.464   4.266  13.564
 5599TIP3   OH238211   6.804   4.202  13.546
 5599TIP3    H138212   6.715   4.206  13.579
 5599TIP3    H238213   6.851   4.149  13.610
 5600TIP3   OH238214   6.969   4.084  13.735
 5600TIP3    H138215   6.966   3.989  13.725
 5600TIP3    H238216   6.942   4.099  13.826
 5601TIP3   OH238217   5.953   4.147  13.658
 5601TIP3    H138218   5.948   4.074  13.596
 5601TIP3    H238219   5.966   4.106  13.743
 5602TIP3   OH238220   6.402   3.800  13.522
 5602TIP3    H138221   6.461   3.724  13.521
 5602TIP3    H238222   6.373   3.809  13.431
 5603TIP3   OH238223   6.463   3.944  13.753
 5603TIP3    H138224   6.447   3.899  13.671
 5603TIP3    H238225   6.406   4.021  13.751
 5604TIP3   OH238226   6.443   5.657  12.094
 5604TIP3    H138227   6.534   5.629  12.084
 5604TIP3    H238228   6.430   5.721  12.023
 5605TIP3   OH238229   5.799   5.124  11.998
 5605TIP3    H138230   5.893   5.121  12.014
 5605TIP3    H238231   5.783   5.053  11.935
 5606TIP3   OH238232   5.663   5.623  12.533
 5606TIP3    H138233   5.610   5.591  12.460
 5606TIP3    H238234   5.684   5.544  12.583
 5607TIP3   OH238235   5.731   5.403  12.686
 5607TIP3    H138236   5.691   5.327  12.730
 5607TIP3    H238237   5.779   5.448  12.755
 5608TIP3   OH238238   7.223   5.223  13.226
 5608TIP3    H138239   7.303   5.273  13.207
 5608TIP3    H238240   7.186   5.203  13.141
 5609TIP3   OH238241   7.180   4.552  12.559
 5609TIP3    H138242   7.220   4.467  12.577
 5609TIP3    H238243   7.175   4.595  12.645
 5610TIP3   OH238244   5.723   4.743  12.954
 5610TIP3    H138245   5.733   4.736  12.859
 5610TIP3    H238246   5.809   4.723  12.990
 5611TIP3   OH238247   7.237   4.147  11.901
 5611TIP3    H138248   7.270   4.057  11.910
 5611TIP3    H238249   7.145   4.137  11.878
 5612TIP3   OH238250   7.204   4.310  12.362
 5612TIP3    H138251   7.262   4.284  12.433
 5612TIP3    H238252   7.253   4.289  12.282
 5613TIP3   OH238253   7.257   4.237  12.943
 5613TIP3    H138254   7.339   4.205  12.905
 5613TIP3    H238255   7.273   4.330  12.961
 5614TIP3   OH238256   7.264   4.469  13.248
 5614TIP3    H138257   7.172   4.493  13.237
 5614TIP3    H238258   7.300   4.471  13.159
 5615TIP3   OH238259   5.725   4.293  13.624
 5615TIP3    H138260   5.809   4.247  13.623
 5615TIP3    H238261   5.661   4.228  13.595
 5616TIP3   OH238262   7.238   3.993  12.481
 5616TIP3    H138263   7.286   3.911  12.491
 5616TIP3    H238264   7.162   3.970  12.427
 5617TIP3   OH238265   5.825   4.125  12.853
 5617TIP3    H138266   5.867   4.039  12.850
 5617TIP3    H238267   5.896   4.187  12.868
 5618TIP3   OH238268   5.640   4.420  12.928
 5618TIP3    H138269   5.708   4.409  12.861
 5618TIP3    H238270   5.654   4.508  12.962
 5619TIP3   OH238271   5.693   4.060  12.352
 5619TIP3    H138272   5.598   4.048  12.356
 5619TIP3    H238273   5.706   4.122  12.281
 5620TIP3   OH238274   7.132   5.508  12.605
 5620TIP3    H138275   7.210   5.456  12.621
 5620TIP3    H238276   7.146   5.590  12.653
 5621TIP3   OH238277   5.692   3.900  13.182
 5621TIP3    H138278   5.620   3.883  13.243
 5621TIP3    H238279   5.657   3.965  13.121
 5622TIP3   OH238280   5.899   5.274  13.592
 5622TIP3    H138281   5.813   5.279  13.550
 5622TIP3    H238282   5.882   5.231  13.676
 5623TIP3   OH238283   6.226   5.368  13.232
 5623TIP3    H138284   6.197   5.455  13.204
 5623TIP3    H238285   6.319   5.366  13.210
 5624TIP3   OH238286   6.601   5.484  13.519
 5624TIP3    H138287   6.617   5.455  13.609
 5624TIP3    H238288   6.682   5.527  13.493
 5625TIP3   OH238289   6.840   5.613  13.470
 5625TIP3    H138290   6.908   5.559  13.430
 5625TIP3    H238291   6.882   5.650  13.548
 5626TIP3   OH238292   5.922   5.650  13.256
 5626TIP3    H138293   5.845   5.692  13.216
 5626TIP3    H238294   5.937   5.700  13.337
 5627TIP3   OH238295   6.181   5.630  13.161
 5627TIP3    H138296   6.089   5.642  13.185
 5627TIP3    H238297   6.191   5.674  13.077
 5628TIP3   OH238298   6.633   5.608  13.068
 5628TIP3    H138299   6.591   5.642  12.989
 5628TIP3    H238300   6.647   5.686  13.123
 5629TIP3   OH238301   6.861   5.480  13.160
 5629TIP3    H138302   6.786   5.527  13.123
 5629TIP3    H238303   6.933   5.543  13.152
 5630TIP3   OH238304   7.102   5.639  13.154
 5630TIP3    H138305   7.100   5.729  13.122
 5630TIP3    H238306   7.147   5.590  13.086
 5631TIP3   OH238307   5.881   5.513  12.910
 5631TIP3    H138308   5.882   5.467  12.994
 5631TIP3    H238309   5.959   5.481  12.865
 5632TIP3   OH238310   6.098   5.392  12.801
 5632TIP3    H138311   6.087   5.301  12.829
 5632TIP3    H238312   6.186   5.415  12.829
 5633TIP3   OH238313   6.360   5.420  12.903
 5633TIP3    H138314   6.371   5.331  12.869
 5633TIP3    H238315   6.396   5.416  12.992
 5634TIP3   OH238316   6.679   3.983  12.811
 5634TIP3    H138317   6.609   3.917  12.816
 5634TIP3    H238318   6.751   3.938  12.767
 5635TIP3   OH238319   7.172   3.835  12.777
 5635TIP3    H138320   7.212   3.918  12.751
 5635TIP3    H238321   7.078   3.852  12.774
 5636TIP3   OH238322   5.925   3.850  12.559
 5636TIP3    H138323   5.833   3.839  12.533
 5636TIP3    H238324   5.965   3.765  12.542
 5637TIP3   OH238325   5.838   3.869  12.179
 5637TIP3    H138326   5.890   3.921  12.117
 5637TIP3    H238327   5.796   3.933  12.235
 5638TIP3   OH238328   6.402   3.822  12.570
 5638TIP3    H138329   6.470   3.865  12.518
 5638TIP3    H238330   6.439   3.816  12.658
 5639TIP3   OH238331   6.892   3.836  12.716
 5639TIP3    H138332   6.916   3.818  12.625
 5639TIP3    H238333   6.872   3.749  12.753
 5640TIP3   OH238334   7.044   3.879  12.329
 5640TIP3    H138335   6.963   3.928  12.315
 5640TIP3    H238336   7.020   3.788  12.315
 5641TIP3   OH238337   5.797   5.486  12.228
 5641TIP3    H138338   5.725   5.481  12.165
 5641TIP3    H238339   5.826   5.577  12.224
 5642TIP3   OH238340   6.022   4.004  12.005
 5642TIP3    H138341   6.071   3.947  11.945
 5642TIP3    H238342   6.088   4.040  12.064
 5643TIP3   OH238343   6.482   4.093  12.238
 5643TIP3    H138344   6.516   4.018  12.287
 5643TIP3    H238345   6.506   4.169  12.290
 5644TIP3   OH238346   6.698   5.554  12.073
 5644TIP3    H138347   6.792   5.567  12.063
 5644TIP3    H238348   6.673   5.505  11.994
 5645TIP3   OH238349   5.936   3.904  13.515
 5645TIP3    H138350   5.877   3.833  13.538
 5645TIP3    H238351   6.016   3.886  13.566
 5646TIP3   OH238352   6.144   3.844  13.687
 5646TIP3    H138353   6.229   3.816  13.651
 5646TIP3    H238354   6.107   3.765  13.726
 5647TIP3   OH238355   5.994   5.518  11.917
 5647TIP3    H138356   5.977   5.521  12.011
 5647TIP3    H238357   6.072   5.464  11.909
 5648TIP3   OH238358   6.986   3.809  13.703
 5648TIP3    H138359   6.978   3.754  13.781
 5648TIP3    H238360   7.078   3.800  13.677
 5649TIP3   OH238361   7.240   5.385  13.587
 5649TIP3    H138362   7.182   5.405  13.514
 5649TIP3    H238363   7.308   5.452  13.583
 5650TIP3   OH238364   1.187   6.679  12.544
 5650TIP3    H138365   1.177   6.774  12.534
 5650TIP3    H238366   1.121   6.642  12.487
 5651TIP3   OH238367   1.095   6.618  12.950
 5651TIP3    H138368   1.129   6.565  13.022
 5651TIP3    H238369   1.051   6.555  12.893
 5652TIP3   OH238370   0.304   6.551  13.076
 5652TIP3    H138371   0.301   6.469  13.123
 5652TIP3    H238372   0.391   6.554  13.036
 5653TIP3   OH238373   1.463   6.902  12.747
 5653TIP3    H138374   1.428   6.826  12.795
 5653TIP3    H238375   1.484   6.965  12.815
 5654TIP3   OH238376   0.422   6.988  12.917
 5654TIP3    H138377   0.390   6.906  12.877
 5654TIP3    H238378   0.515   6.991  12.896
 5655TIP3   OH238379   0.123   6.396  12.411
 5655TIP3    H138380   0.108   6.474  12.464
 5655TIP3    H238381   0.037   6.373  12.375
 5656TIP3   OH238382   0.144   6.583  12.687
 5656TIP3    H138383   0.180   6.498  12.714
 5656TIP3    H238384   0.220   6.640  12.676
 5657TIP3   OH238385   0.909   6.852  12.947
 5657TIP3    H138386   0.943   6.778  12.897
 5657TIP3    H238387   0.984   6.884  12.997
 5658TIP3   OH238388   1.812   5.988  13.038
 5658TIP3    H138389   1.826   6.066  13.092
 5658TIP3    H238390   1.863   6.005  12.958
 5659TIP3   OH238391   1.257   6.272  12.954
 5659TIP3    H138392   1.262   6.177  12.965
 5659TIP3    H238393   1.217   6.284  12.867
 5660TIP3   OH238394   0.505   6.017  12.711
 5660TIP3    H138395   0.586   6.066  12.726
 5660TIP3    H238396   0.487   6.028  12.618
 5661TIP3   OH238397   1.360   6.116  12.529
 5661TIP3    H138398   1.400   6.080  12.607
 5661TIP3    H238399   1.433   6.151  12.478
 5662TIP3   OH238400   0.230   6.338  12.779
 5662TIP3    H138401   0.298   6.301  12.835
 5662TIP3    H238402   0.246   6.301  12.692
 5663TIP3   OH238403   0.664   6.472  12.728
 5663TIP3    H138404   0.710   6.400  12.771
 5663TIP3    H238405   0.626   6.433  12.650
 5664TIP3   OH238406   1.844   6.162  13.266
 5664TIP3    H138407   1.771   6.217  13.238
 5664TIP3    H238408   1.851   6.177  13.360
 5665TIP3   OH238409   0.437   5.996  13.118
 5665TIP3    H138410   0.426   6.062  13.049
 5665TIP3    H238411   0.366   6.013  13.179
 5666TIP3   OH238412   1.133   6.930  12.449
 5666TIP3    H138413   1.133   6.938  12.354
 5666TIP3    H238414   1.099   7.014  12.480
 5667TIP3   OH238415   0.702   6.753  13.100
 5667TIP3    H138416   0.643   6.823  13.129
 5667TIP3    H238417   0.768   6.798  13.047
 5668TIP3   OH238418   1.460   6.056  12.775
 5668TIP3    H138419   1.394   6.026  12.837
 5668TIP3    H238420   1.517   6.113  12.826
 5669TIP3   OH238421   0.412   6.181  12.912
 5669TIP3    H138422   0.483   6.227  12.958
 5669TIP3    H238423   0.457   6.132  12.843
 5670TIP3   OH238424   0.519   6.952  13.184
 5670TIP3    H138425   0.487   6.973  13.096
 5670TIP3    H238426   0.444   6.966  13.241
 5671TIP3   OH238427   0.104   6.927  12.264
 5671TIP3    H138428   0.104   6.955  12.173
 5671TIP3    H238429   0.135   7.004  12.313
 5672TIP3   OH238430   1.501   7.109  12.941
 5672TIP3    H138431   1.410   7.115  12.971
 5672TIP3    H238432   1.516   7.190  12.893
 5673TIP3   OH238433   1.557   5.895  13.130
 5673TIP3    H138434   1.486   5.935  13.080
 5673TIP3    H238435   1.637   5.921  13.083
 5674TIP3   OH238436   0.810   5.688  12.870
 5674TIP3    H138437   0.772   5.602  12.854
 5674TIP3    H238438   0.736   5.742  12.897
 5675TIP3   OH238439   1.333   7.262  12.558
 5675TIP3    H138440   1.360   7.170  12.552
 5675TIP3    H238441   1.402   7.310  12.512
 5676TIP3   OH238442   1.458   7.026  12.497
 5676TIP3    H138443   1.458   6.963  12.425
 5676TIP3    H238444   1.460   6.972  12.576
 5677TIP3   OH238445   1.597   6.911  13.315
 5677TIP3    H138446   1.590   6.851  13.241
 5677TIP3    H238447   1.592   6.998  13.277
 5678TIP3   OH238448   1.040   6.601  12.318
 5678TIP3    H138449   0.979   6.670  12.294
 5678TIP3    H238450   1.108   6.605  12.251
 5679TIP3   OH238451   1.076   6.484  11.973
 5679TIP3    H138452   1.132   6.506  12.048
 5679TIP3    H238453   1.129   6.421  11.922
 5680TIP3   OH238454   1.768   6.563  13.155
 5680TIP3    H138455   1.694   6.623  13.145
 5680TIP3    H238456   1.825   6.581  13.080
 5681TIP3   OH238457   1.408   6.617  12.394
 5681TIP3    H138458   1.339   6.638  12.458
 5681TIP3    H238459   1.472   6.567  12.444
 5682TIP3   OH238460   1.394   6.429  13.335
 5682TIP3    H138461   1.381   6.500  13.398
 5682TIP3    H238462   1.334   6.449  13.263
 5683TIP3   OH238463   0.545   6.679  12.581
 5683TIP3    H138464   0.526   6.644  12.494
 5683TIP3    H238465   0.600   6.612  12.622
 5684TIP3   OH238466   0.686   6.992  12.854
 5684TIP3    H138467   0.697   7.023  12.764
 5684TIP3    H238468   0.769   6.950  12.876
 5685TIP3   OH238469   0.552   6.567  12.960
 5685TIP3    H138470   0.597   6.536  12.881
 5685TIP3    H238471   0.614   6.627  13.001
 5686TIP3   OH238472   1.262   7.112  13.077
 5686TIP3    H138473   1.243   7.130  13.169
 5686TIP3    H238474   1.219   7.028  13.060
 5687TIP3   OH238475   0.696   6.986  13.399
 5687TIP3    H138476   0.638   7.047  13.445
 5687TIP3    H238477   0.649   6.964  13.319
 5688TIP3   OH238478   1.273   6.552  12.165
 5688TIP3    H138479   1.320   6.585  12.241
 5688TIP3    H238480   1.331   6.570  12.091
 5689TIP3   OH238481   0.380   6.599  13.376
 5689TIP3    H138482   0.380   6.677  13.432
 5689TIP3    H238483   0.338   6.628  13.295
 5690TIP3   OH238484   1.064   7.192  12.514
 5690TIP3    H138485   1.153   7.223  12.531
 5690TIP3    H238486   1.033   7.249  12.444
 5691TIP3   OH238487   0.530   7.185  13.500
 5691TIP3    H138488   0.537   7.223  13.413
 5691TIP3    H238489   0.437   7.183  13.519
 5692TIP3   OH238490   1.649   5.696  12.150
 5692TIP3    H138491   1.558   5.716  12.173
 5692TIP3    H238492   1.685   5.779  12.121
 5693TIP3   OH238493   0.477   6.592  12.322
 5693TIP3    H138494   0.415   6.650  12.277
 5693TIP3    H238495   0.433   6.507  12.324
 5694TIP3   OH238496   1.774   7.174  11.969
 5694TIP3    H138497   1.754   7.218  12.052
 5694TIP3    H238498   1.849   7.119  11.988
 5695TIP3   OH238499   0.164   6.776  13.234
 5695TIP3    H138500   0.145   6.753  13.143
 5695TIP3    H238501   0.122   6.707  13.285
 5696TIP3   OH238502   0.161   7.176  12.925
 5696TIP3    H138503   0.215   7.098  12.922
 5696TIP3    H238504   0.071   7.144  12.920
 5697TIP3   OH238505   1.882   7.156  13.563
 5697TIP3    H138506   1.869   7.064  13.540
 5697TIP3    H238507   1.793   7.193  13.566
 5698TIP3   OH238508   0.948   7.096  13.400
 5698TIP3    H138509   0.930   7.168  13.462
 5698TIP3    H238510   0.863   7.055  13.387
 5699TIP3   OH238511   1.556   6.305  13.536
 5699TIP3    H138512   1.501   6.344  13.469
 5699TIP3    H238513   1.563   6.213  13.511
 5700TIP3   OH238514   0.298   6.976  13.357
 5700TIP3    H138515   0.332   6.923  13.428
 5700TIP3    H238516   0.240   6.917  13.308
 5701TIP3   OH238517   0.556   5.802  12.938
 5701TIP3    H138518   0.494   5.825  12.869
 5701TIP3    H238519   0.545   5.871  13.004
 5702TIP3   OH238520   1.034   5.776  13.293
 5702TIP3    H138521   1.069   5.722  13.363
 5702TIP3    H238522   0.939   5.765  13.300
 5703TIP3   OH238523   1.320   6.152  13.373
 5703TIP3    H138524   1.255   6.146  13.443
 5703TIP3    H238525   1.316   6.243  13.343
 5704TIP3   OH238526   1.445   6.592  11.962
 5704TIP3    H138527   1.414   6.663  11.906
 5704TIP3    H238528   1.540   6.598  11.958
 5705TIP3   OH238529   0.960   6.071  12.046
 5705TIP3    H138530   0.874   6.095  12.011
 5705TIP3    H238531   0.983   5.989  12.002
 5706TIP3   OH238532   0.554   6.323  13.105
 5706TIP3    H138533   0.475   6.334  13.159
 5706TIP3    H238534   0.566   6.407  13.063
 5707TIP3   OH238535   0.546   6.356  12.516
 5707TIP3    H138536   0.463   6.312  12.533
 5707TIP3    H238537   0.582   6.311  12.439
 5708TIP3   OH238538   1.098   6.349  12.419
 5708TIP3    H138539   1.072   6.435  12.387
 5708TIP3    H238540   1.171   6.323  12.363
 5709TIP3   OH238541   1.009   6.372  13.569
 5709TIP3    H138542   0.965   6.293  13.599
 5709TIP3    H238543   1.098   6.365  13.605
 5710TIP3   OH238544   1.204   6.298  12.675
 5710TIP3    H138545   1.161   6.339  12.600
 5710TIP3    H238546   1.250   6.223  12.637
 5711TIP3   OH238547   0.316   6.331  13.244
 5711TIP3    H138548   0.322   6.374  13.330
 5711TIP3    H238549   0.289   6.241  13.264
 5712TIP3   OH238550   0.696   6.095  11.939
 5712TIP3    H138551   0.643   6.073  12.016
 5712TIP3    H238552   0.640   6.153  11.888
 5713TIP3   OH238553   0.018   6.115  12.601
 5713TIP3    H138554   0.085   6.100  12.668
 5713TIP3    H238555  -0.011   6.027  12.576
 5714TIP3   OH238556   0.049   6.142  12.138
 5714TIP3    H138557   0.118   6.200  12.104
 5714TIP3    H238558  -0.002   6.118  12.061
 5715TIP3   OH238559   1.196   6.453  13.145
 5715TIP3    H138560   1.222   6.393  13.075
 5715TIP3    H238561   1.133   6.403  13.197
 5716TIP3   OH238562   0.909   6.025  12.635
 5716TIP3    H138563   0.849   6.080  12.685
 5716TIP3    H238564   0.968   5.988  12.701
 5717TIP3   OH238565   0.304   6.230  12.536
 5717TIP3    H138566   0.243   6.273  12.476
 5717TIP3    H238567   0.325   6.147  12.494
 5718TIP3   OH238568   0.630   6.229  12.286
 5718TIP3    H138569   0.723   6.229  12.305
 5718TIP3    H238570   0.621   6.283  12.207
 5719TIP3   OH238571   1.261   5.994  12.958
 5719TIP3    H138572   1.221   5.998  13.045
 5719TIP3    H238573   1.194   5.956  12.902
 5720TIP3   OH238574   0.578   6.352  12.046
 5720TIP3    H138575   0.525   6.327  11.971
 5720TIP3    H238576   0.656   6.394  12.008
 5721TIP3   OH238577   0.368   6.807  13.564
 5721TIP3    H138578   0.429   6.802  13.638
 5721TIP3    H238579   0.282   6.815  13.604
 5722TIP3   OH238580   0.985   6.385  12.842
 5722TIP3    H138581   1.043   6.350  12.774
 5722TIP3    H238582   0.911   6.325  12.843
 5723TIP3   OH238583   0.409   5.987  12.444
 5723TIP3    H138584   0.378   5.902  12.475
 5723TIP3    H238585   0.427   5.974  12.351
 5724TIP3   OH238586   0.837   6.173  13.121
 5724TIP3    H138587   0.803   6.163  13.032
 5724TIP3    H238588   0.862   6.266  13.126
 5725TIP3   OH238589   0.853   6.806  12.244
 5725TIP3    H138590   0.786   6.759  12.195
 5725TIP3    H238591   0.813   6.823  12.330
 5726TIP3   OH238592   1.570   6.748  13.093
 5726TIP3    H138593   1.634   6.797  13.041
 5726TIP3    H238594   1.501   6.726  13.031
 5727TIP3   OH238595   1.232   6.081  12.094
 5727TIP3    H138596   1.138   6.092  12.075
 5727TIP3    H238597   1.258   6.163  12.134
 5728TIP3   OH238598   1.051   6.836  13.366
 5728TIP3    H138599   1.052   6.786  13.447
 5728TIP3    H238600   1.014   6.921  13.390
 5729TIP3   OH238601   1.317   6.291  12.251
 5729TIP3    H138602   1.407   6.276  12.282
 5729TIP3    H238603   1.319   6.378  12.213
 5730TIP3   OH238604   0.387   6.736  12.798
 5730TIP3    H138605   0.437   6.733  12.716
 5730TIP3    H238606   0.433   6.676  12.857
 5731TIP3   OH238607   1.073   6.949  12.168
 5731TIP3    H138608   1.049   7.041  12.177
 5731TIP3    H238609   0.994   6.901  12.193
 5732TIP3   OH238610   0.054   6.588  13.397
 5732TIP3    H138611   0.100   6.554  13.474
 5732TIP3    H238612   0.025   6.511  13.349
 5733TIP3   OH238613   0.801   6.551  13.575
 5733TIP3    H138614   0.735   6.515  13.515
 5733TIP3    H238615   0.880   6.502  13.556
 5734TIP3   OH238616   1.223   7.118  13.349
 5734TIP3    H138617   1.128   7.105  13.352
 5734TIP3    H238618   1.251   7.115  13.440
 5735TIP3   OH238619   1.768   6.319  12.193
 5735TIP3    H138620   1.725   6.296  12.110
 5735TIP3    H238621   1.795   6.410  12.181
 5736TIP3   OH238622   1.820   6.891  13.476
 5736TIP3    H138623   1.733   6.909  13.440
 5736TIP3    H238624   1.875   6.876  13.399
 5737TIP3   OH238625   1.752   7.146  12.327
 5737TIP3    H138626   1.681   7.084  12.341
 5737TIP3    H238627   1.714   7.213  12.270
 5738TIP3   OH238628   1.377   6.674  12.899
 5738TIP3    H138629   1.282   6.667  12.895
 5738TIP3    H238630   1.409   6.596  12.854
 5739TIP3   OH238631   0.665   7.103  12.598
 5739TIP3    H138632   0.712   7.178  12.562
 5739TIP3    H238633   0.584   7.139  12.633
 5740TIP3   OH238634   0.178   6.579  12.013
 5740TIP3    H138635   0.234   6.633  12.068
 5740TIP3    H238636   0.089   6.611  12.031
 5741TIP3   OH238637   0.716   6.867  12.467
 5741TIP3    H138638   0.704   6.951  12.512
 5741TIP3    H238639   0.656   6.807  12.513
 5742TIP3   OH238640   0.829   7.245  13.095
 5742TIP3    H138641   0.893   7.313  13.116
 5742TIP3    H238642   0.868   7.165  13.129
 5743TIP3   OH238643   1.136   6.866  13.105
 5743TIP3    H138644   1.108   6.844  13.193
 5743TIP3    H238645   1.154   6.781  13.064
 5744TIP3   OH238646   1.417   7.000  12.047
 5744TIP3    H138647   1.436   6.948  12.125
 5744TIP3    H238648   1.388   6.936  11.982
 5745TIP3   OH238649   0.234   6.064  13.312
 5745TIP3    H138650   0.140   6.076  13.318
 5745TIP3    H238651   0.251   5.984  13.363
 5746TIP3   OH238652   1.504   6.850  12.278
 5746TIP3    H138653   1.462   6.770  12.310
 5746TIP3    H238654   1.597   6.829  12.275
 5747TIP3   OH238655   0.278   7.264  13.233
 5747TIP3    H138656   0.250   7.172  13.230
 5747TIP3    H238657   0.204   7.313  13.197
 5748TIP3   OH238658   0.807   7.080  11.898
 5748TIP3    H138659   0.868   7.013  11.869
 5748TIP3    H238660   0.762   7.041  11.973
 5749TIP3   OH238661   0.676   7.032  12.139
 5749TIP3    H138662   0.722   6.972  12.198
 5749TIP3    H238663   0.697   7.119  12.173
 5750TIP3   OH238664   0.307   6.758  12.182
 5750TIP3    H138665   0.235   6.804  12.226
 5750TIP3    H238666   0.355   6.826  12.135
 5751TIP3   OH238667   1.151   6.008  13.202
 5751TIP3    H138668   1.207   6.040  13.273
 5751TIP3    H238669   1.106   5.932  13.239
 5752TIP3   OH238670   1.226   5.957  12.341
 5752TIP3    H138671   1.227   5.999  12.255
 5752TIP3    H238672   1.264   6.022  12.400
 5753TIP3   OH238673   0.994   7.214  12.185
 5753TIP3    H138674   0.904   7.246  12.192
 5753TIP3    H238675   1.021   7.239  12.096
 5754TIP3   OH238676   0.884   6.169  12.396
 5754TIP3    H138677   0.955   6.233  12.395
 5754TIP3    H238678   0.888   6.131  12.484
 5755TIP3   OH238679   1.036   6.299  13.295
 5755TIP3    H138680   1.009   6.308  13.387
 5755TIP3    H238681   1.004   6.212  13.270
 5756TIP3   OH238682   1.016   5.837  12.466
 5756TIP3    H138683   0.986   5.911  12.518
 5756TIP3    H238684   1.092   5.871  12.418
 5757TIP3   OH238685   0.728  -0.007  12.207
 5757TIP3    H138686   0.686   0.045  12.138
 5757TIP3    H238687   0.701   0.035  12.289
 5758TIP3   OH238688   0.559   5.991  12.170
 5758TIP3    H138689   0.553   6.077  12.211
 5758TIP3    H238690   0.646   5.959  12.192
 5759TIP3   OH238691   1.571   6.055  13.398
 5759TIP3    H138692   1.478   6.077  13.389
 5759TIP3    H238693   1.596   6.021  13.312
 5760TIP3   OH238694   1.447   6.425  12.780
 5760TIP3    H138695   1.361   6.388  12.758
 5760TIP3    H238696   1.487   6.361  12.839
 5761TIP3   OH238697   0.416   6.973  12.038
 5761TIP3    H138698   0.487   7.019  12.083
 5761TIP3    H238699   0.461   6.918  11.973
 5762TIP3   OH238700   0.201   6.304  11.979
 5762TIP3    H138701   0.205   6.399  11.996
 5762TIP3    H238702   0.168   6.297  11.890
 5763TIP3   OH238703   0.292   5.791  12.806
 5763TIP3    H138704   0.315   5.776  12.714
 5763TIP3    H238705   0.272   5.703  12.840
 5764TIP3   OH238706   0.160   7.185  12.386
 5764TIP3    H138707   0.065   7.194  12.394
 5764TIP3    H238708   0.183   7.239  12.311
 5765TIP3   OH238709   0.615   7.243  13.754
 5765TIP3    H138710   0.687   7.184  13.777
 5765TIP3    H238711   0.574   7.204  13.677
 5766TIP3   OH238712   1.045   7.245  11.910
 5766TIP3    H138713   0.960   7.204  11.893
 5766TIP3    H238714   1.107   7.192  11.860
 5767TIP3   OH238715   1.264   7.120  13.620
 5767TIP3    H138716   1.219   7.049  13.666
 5767TIP3    H238717   1.337   7.143  13.678
 5768TIP3   OH238718   1.492   7.220  11.904
 5768TIP3    H138719   1.452   7.148  11.952
 5768TIP3    H238720   1.584   7.219  11.929
 5769TIP3   OH238721   0.096   6.818  13.629
 5769TIP3    H138722   0.092   6.723  13.615
 5769TIP3    H238723   0.042   6.855  13.558
 5770TIP3   OH238724   0.556   6.793  11.892
 5770TIP3    H138725   0.588   6.749  11.970
 5770TIP3    H238726   0.633   6.805  11.837
 5771TIP3   OH238727   0.772   6.823  13.615
 5771TIP3    H138728   0.753   6.861  13.529
 5771TIP3    H238729   0.794   6.732  13.596
 5772TIP3   OH238730   1.041   6.939  11.883
 5772TIP3    H138731   1.071   6.931  11.973
 5772TIP3    H238732   1.045   6.850  11.849
 5773TIP3   OH238733   1.347   6.824  13.407
 5773TIP3    H138734   1.430   6.862  13.377
 5773TIP3    H238735   1.280   6.873  13.360
 5774TIP3   OH238736   0.200   6.536  13.623
 5774TIP3    H138737   0.289   6.528  13.589
 5774TIP3    H238738   0.212   6.548  13.717
 5775TIP3   OH238739   0.658   6.663  12.115
 5775TIP3    H138740   0.605   6.621  12.182
 5775TIP3    H238741   0.701   6.591  12.070
 5776TIP3   OH238742   0.607   6.443  13.402
 5776TIP3    H138743   0.530   6.498  13.388
 5776TIP3    H238744   0.668   6.468  13.333
 5777TIP3   OH238745   0.798   6.485  11.953
 5777TIP3    H138746   0.793   6.509  11.860
 5777TIP3    H238747   0.892   6.479  11.971
 5778TIP3   OH238748   1.123   6.673  13.684
 5778TIP3    H138749   1.198   6.636  13.638
 5778TIP3    H238750   1.089   6.600  13.736
 5779TIP3   OH238751   1.707   6.659  11.904
 5779TIP3    H138752   1.700   6.633  11.812
 5779TIP3    H238753   1.701   6.754  11.903
 5780TIP3   OH238754   0.651   6.180  13.472
 5780TIP3    H138755   0.654   6.116  13.402
 5780TIP3    H238756   0.639   6.264  13.428
 5781TIP3   OH238757   0.673   6.008  13.259
 5781TIP3    H138758   0.732   6.062  13.207
 5781TIP3    H238759   0.592   6.003  13.207
 5782TIP3   OH238760   0.803   6.541  13.244
 5782TIP3    H138761   0.894   6.527  13.218
 5782TIP3    H238762   0.775   6.617  13.194
 5783TIP3   OH238763   1.257   6.330  13.708
 5783TIP3    H138764   1.246   6.242  13.673
 5783TIP3    H238765   1.348   6.352  13.692
 5784TIP3   OH238766   1.395   6.610  13.559
 5784TIP3    H138767   1.367   6.688  13.512
 5784TIP3    H238768   1.490   6.610  13.550
 5785TIP3   OH238769   0.487   6.240  13.688
 5785TIP3    H138770   0.412   6.182  13.672
 5785TIP3    H238771   0.538   6.235  13.607
 5786TIP3   OH238772   0.762   5.746  13.264
 5786TIP3    H138773   0.739   5.839  13.260
 5786TIP3    H238774   0.682   5.702  13.294
 5787TIP3   OH238775   0.876   6.140  13.628
 5787TIP3    H138776   0.834   6.110  13.708
 5787TIP3    H238777   0.805   6.146  13.564
 5788TIP3   OH238778   1.153   6.106  13.582
 5788TIP3    H138779   1.059   6.093  13.598
 5788TIP3    H238780   1.195   6.036  13.632
 5789TIP3   OH238781   1.325   5.958  13.744
 5789TIP3    H138782   1.319   5.864  13.728
 5789TIP3    H238783   1.297   5.969  13.834
 5790TIP3   OH238784   0.291   6.044  13.667
 5790TIP3    H138785   0.288   5.973  13.603
 5790TIP3    H238786   0.307   6.001  13.750
 5791TIP3   OH238787   0.763   5.661  13.559
 5791TIP3    H138788   0.819   5.596  13.516
 5791TIP3    H238789   0.684   5.664  13.504
 5792TIP3   OH238790   0.814   5.831  13.764
 5792TIP3    H138791   0.800   5.776  13.687
 5792TIP3    H238792   0.750   5.902  13.754
 5793TIP3   OH238793   0.139   6.970  11.994
 5793TIP3    H138794   0.233   6.986  11.994
 5793TIP3    H238795   0.122   6.924  11.911
 5794TIP3   OH238796   1.627   6.930  13.771
 5794TIP3    H138797   1.546   6.945  13.820
 5794TIP3    H238798   1.680   7.007  13.790
 5795TIP3   OH238799   1.771   6.774  12.306
 5795TIP3    H138800   1.846   6.833  12.305
 5795TIP3    H238801   1.789   6.713  12.377
 5796TIP3   OH238802   1.822   6.577  12.492
 5796TIP3    H138803   1.737   6.539  12.516
 5796TIP3    H238804   1.870   6.584  12.574
 5797TIP3   OH238805   1.813   6.857  13.014
 5797TIP3    H138806   1.859   6.788  12.967
 5797TIP3    H238807   1.854   6.938  12.983
 5798TIP3   OH238808   1.546   7.165  13.210
 5798TIP3    H138809   1.451   7.168  13.222
 5798TIP3    H238810   1.558   7.147  13.117
 5799TIP3   OH238811   1.839   6.576  12.125
 5799TIP3    H138812   1.795   6.597  12.043
 5799TIP3    H238813   1.812   6.645  12.186
 5800TIP3   OH238814   1.665   6.268  11.946
 5800TIP3    H138815   1.645   6.323  11.869
 5800TIP3    H238816   1.644   6.179  11.917
 5801TIP3   OH238817   1.579   6.451  12.540
 5801TIP3    H138818   1.576   6.363  12.503
 5801TIP3    H238819   1.538   6.443  12.626
 5802TIP3   OH238820   0.089   6.666  12.956
 5802TIP3    H138821   0.093   6.671  12.860
 5802TIP3    H238822   0.175   6.635  12.982
 5803TIP3   OH238823   1.669   6.634  13.522
 5803TIP3    H138824   1.728   6.562  13.500
 5803TIP3    H238825   1.709   6.711  13.484
 5804TIP3   OH238826   1.813   6.400  13.505
 5804TIP3    H138827   1.724   6.367  13.516
 5804TIP3    H238828   1.868   6.327  13.534
 5805TIP3   OH238829   1.593   6.018  11.851
 5805TIP3    H138830   1.628   5.972  11.927
 5805TIP3    H238831   1.500   5.996  11.850
 5806TIP3   OH238832   1.575   6.213  12.371
 5806TIP3    H138833   1.600   6.121  12.373
 5806TIP3    H238834   1.640   6.254  12.314
 5807TIP3   OH238835   1.600   6.238  12.934
 5807TIP3    H138836   1.692   6.252  12.913
 5807TIP3    H238837   1.593   6.259  13.027
 5808TIP3   OH238838   1.628   6.329  13.201
 5808TIP3    H138839   1.546   6.360  13.240
 5808TIP3    H238840   1.678   6.408  13.184
 5809TIP3   OH238841   0.054   6.169  13.607
 5809TIP3    H138842   0.141   6.133  13.621
 5809TIP3    H238843   0.024   6.130  13.525
 5810TIP3   OH238844   1.859   5.747  13.724
 5810TIP3    H138845   1.924   5.690  13.682
 5810TIP3    H238846   1.846   5.818  13.661
 5811TIP3   OH238847   1.629   5.939  12.385
 5811TIP3    H138848   1.645   5.899  12.470
 5811TIP3    H238849   1.564   5.883  12.343
 5812TIP3   OH238850   0.180   6.036  12.837
 5812TIP3    H138851   0.217   5.948  12.827
 5812TIP3    H238852   0.255   6.091  12.860
 5813TIP3   OH238853   0.029   6.387  12.971
 5813TIP3    H138854   0.098   6.367  12.908
 5813TIP3    H238855   0.028   6.483  12.976
 5814TIP3   OH238856   1.784   5.928  13.535
 5814TIP3    H138857   1.705   5.981  13.546
 5814TIP3    H238858   1.768   5.875  13.457
 5815TIP3   OH238859   1.769   5.917  12.044
 5815TIP3    H138860   1.820   5.862  11.986
 5815TIP3    H238861   1.831   5.983  12.075
 5816TIP3   OH238862   0.121   5.914  12.280
 5816TIP3    H138863   0.054   5.915  12.348
 5816TIP3    H238864   0.106   5.995  12.230
 5817TIP3   OH238865   7.327   5.803  13.242
 5817TIP3    H138866   7.270   5.726  13.246
 5817TIP3    H238867   7.302   5.846  13.160
 5818TIP3   OH238868   0.258   7.175  13.550
 5818TIP3    H138869   0.250   7.112  13.478
 5818TIP3    H238870   0.170   7.177  13.589
 5819TIP3   OH238871   0.556   7.277  13.241
 5819TIP3    H138872   0.463   7.280  13.219
 5819TIP3    H238873   0.599   7.250  13.160
 5820TIP3   OH238874   1.693   5.738  13.347
 5820TIP3    H138875   1.629   5.767  13.282
 5820TIP3    H238876   1.711   5.647  13.325
 5821TIP3   OH238877   0.460   7.214  12.746
 5821TIP3    H138878   0.428   7.143  12.801
 5821TIP3    H238879   0.497   7.278  12.808
 5822TIP3   OH238880   1.058   5.872  12.807
 5822TIP3    H138881   0.993   5.804  12.828
 5822TIP3    H238882   1.128   5.825  12.762
 5823TIP3   OH238883   1.531   5.711  12.799
 5823TIP3    H138884   1.594   5.763  12.749
 5823TIP3    H238885   1.446   5.748  12.777
 5824TIP3   OH238886   1.709   5.814  12.620
 5824TIP3    H138887   1.774   5.751  12.588
 5824TIP3    H238888   1.759   5.893  12.637
 5825TIP3   OH238889   0.327   5.732  12.535
 5825TIP3    H138890   0.235   5.724  12.507
 5825TIP3    H238891   0.363   5.644  12.525
 5826TIP3   OH238892   0.235   5.710  12.141
 5826TIP3    H138893   0.277   5.764  12.075
 5826TIP3    H238894   0.192   5.772  12.200
 5827TIP3   OH238895   0.752   5.760  12.549
 5827TIP3    H138896   0.845   5.779  12.559
 5827TIP3    H238897   0.709   5.810  12.619
 5828TIP3   OH238898   1.273   5.747  12.692
 5828TIP3    H138899   1.302   5.733  12.601
 5828TIP3    H238900   1.244   5.661  12.721
 5829TIP3   OH238901   1.423   5.772  12.294
 5829TIP3    H138902   1.350   5.834  12.301
 5829TIP3    H238903   1.381   5.686  12.297
 5830TIP3   OH238904   0.373   5.885  11.979
 5830TIP3    H138905   0.424   5.829  11.921
 5830TIP3    H238906   0.438   5.921  12.040
 5831TIP3   OH238907   0.818   5.939  12.253
 5831TIP3    H138908   0.884   5.948  12.184
 5831TIP3    H238909   0.832   6.015  12.310
 5832TIP3   OH238910   0.257   5.829  13.499
 5832TIP3    H138911   0.217   5.754  13.544
 5832TIP3    H238912   0.335   5.793  13.457
 5833TIP3   OH238913   0.495   5.715  13.714
 5833TIP3    H138914   0.495   5.724  13.619
 5833TIP3    H238915   0.534   5.629  13.730
 5834TIP3   OH238916   1.341   5.688  13.693
 5834TIP3    H138917   1.331   5.639  13.774
 5834TIP3    H238918   1.433   5.676  13.669
 5835TIP3   OH238919   1.628   7.260  13.549
 5835TIP3    H138920   1.548   7.213  13.527
 5835TIP3    H238921   1.639   7.325  13.480
 5836TIP3   OH238922   3.071   6.678  12.551
 5836TIP3    H138923   3.054   6.771  12.535
 5836TIP3    H238924   3.008   6.632  12.494
 5837TIP3   OH238925   2.972   6.604  12.941
 5837TIP3    H138926   2.994   6.551  13.018
 5837TIP3    H238927   2.925   6.544  12.883
 5838TIP3   OH238928   2.184   6.542  13.067
 5838TIP3    H138929   2.192   6.466  13.124
 5838TIP3    H238930   2.272   6.557  13.033
 5839TIP3   OH238931   3.370   6.883  12.758
 5839TIP3    H138932   3.315   6.818  12.803
 5839TIP3    H238933   3.379   6.955  12.820
 5840TIP3   OH238934   2.321   6.997  12.914
 5840TIP3    H138935   2.288   6.915  12.877
 5840TIP3    H238936   2.414   6.997  12.894
 5841TIP3   OH238937   1.962   6.346  12.404
 5841TIP3    H138938   1.927   6.430  12.433
 5841TIP3    H238939   1.901   6.317  12.336
 5842TIP3   OH238940   2.012   6.576  12.697
 5842TIP3    H138941   2.044   6.487  12.712
 5842TIP3    H238942   2.090   6.626  12.672
 5843TIP3   OH238943   2.801   6.853  12.944
 5843TIP3    H138944   2.836   6.781  12.892
 5843TIP3    H238945   2.874   6.880  13.000
 5844TIP3   OH238946   3.691   5.986  13.033
 5844TIP3    H138947   3.708   6.065  13.083
 5844TIP3    H238948   3.729   6.004  12.946
 5845TIP3   OH238949   3.131   6.267  12.970
 5845TIP3    H138950   3.152   6.173  12.969
 5845TIP3    H238951   3.105   6.286  12.880
 5846TIP3   OH238952   2.460   6.081  12.686
 5846TIP3    H138953   2.467   6.165  12.640
 5846TIP3    H238954   2.413   6.024  12.625
 5847TIP3   OH238955   3.231   6.128  12.594
 5847TIP3    H138956   3.297   6.069  12.630
 5847TIP3    H238957   3.197   6.084  12.516
 5848TIP3   OH238958   2.101   6.324  12.765
 5848TIP3    H138959   2.167   6.282  12.820
 5848TIP3    H238960   2.118   6.290  12.677
 5849TIP3   OH238961   2.576   6.472  12.742
 5849TIP3    H138962   2.665   6.441  12.762
 5849TIP3    H238963   2.543   6.410  12.677
 5850TIP3   OH238964   3.721   6.161  13.262
 5850TIP3    H138965   3.663   6.228  13.225
 5850TIP3    H238966   3.674   6.127  13.338
 5851TIP3   OH238967   2.320   5.997  13.108
 5851TIP3    H138968   2.301   6.052  13.032
 5851TIP3    H238969   2.247   6.011  13.168
 5852TIP3   OH238970   3.008   6.924  12.455
 5852TIP3    H138971   3.016   6.936  12.360
 5852TIP3    H238972   2.978   7.010  12.487
 5853TIP3   OH238973   2.589   6.758  13.092
 5853TIP3    H138974   2.532   6.829  13.124
 5853TIP3    H238975   2.656   6.803  13.041
 5854TIP3   OH238976   3.389   6.016  12.798
 5854TIP3    H138977   3.309   6.005  12.849
 5854TIP3    H238978   3.430   6.095  12.834
 5855TIP3   OH238979   2.295   6.164  12.890
 5855TIP3    H138980   2.354   6.220  12.941
 5855TIP3    H238981   2.350   6.129  12.819
 5856TIP3   OH238982   2.414   6.956  13.181
 5856TIP3    H138983   2.388   6.986  13.094
 5856TIP3    H238984   2.334   6.964  13.234
 5857TIP3   OH238985   1.998   6.935  12.277
 5857TIP3    H138986   1.984   6.967  12.188
 5857TIP3    H238987   2.012   7.014  12.329
 5858TIP3   OH238988   3.392   7.098  12.946
 5858TIP3    H138989   3.300   7.105  12.971
 5858TIP3    H238990   3.408   7.178  12.895
 5859TIP3   OH238991   3.430   5.906  13.126
 5859TIP3    H138992   3.357   5.939  13.074
 5859TIP3    H238993   3.507   5.926  13.073
 5860TIP3   OH238994   2.680   5.684  12.867
 5860TIP3    H138995   2.650   5.593  12.863
 5860TIP3    H238996   2.603   5.734  12.892
 5861TIP3   OH238997   3.209   7.256  12.577
 5861TIP3    H138998   3.253   7.171  12.569
 5861TIP3    H238999   3.235   7.303  12.497
 5862TIP3   OH239000   3.340   7.023  12.515
 5862TIP3    H139001   3.345   6.968  12.437
 5862TIP3    H239002   3.350   6.961  12.588
 5863TIP3   OH239003   3.488   6.908  13.316
 5863TIP3    H139004   3.477   6.849  13.241
 5863TIP3    H239005   3.479   6.996  13.280
 5864TIP3   OH239006   2.924   6.603  12.316
 5864TIP3    H139007   2.864   6.673  12.291
 5864TIP3    H239008   2.993   6.605  12.249
 5865TIP3   OH239009   2.962   6.463  11.980
 5865TIP3    H139010   3.017   6.491  12.054
 5865TIP3    H239011   3.017   6.402  11.931
 5866TIP3   OH239012   3.658   6.566  13.150
 5866TIP3    H139013   3.585   6.627  13.142
 5866TIP3    H239014   3.712   6.583  13.073
 5867TIP3   OH239015   3.290   6.623  12.394
 5867TIP3    H139016   3.220   6.640  12.458
 5867TIP3    H239017   3.350   6.565  12.440
 5868TIP3   OH239018   3.264   6.425  13.334
 5868TIP3    H139019   3.256   6.498  13.396
 5868TIP3    H239020   3.199   6.444  13.266
 5869TIP3   OH239021   2.435   6.666  12.587
 5869TIP3    H139022   2.411   6.632  12.501
 5869TIP3    H239023   2.491   6.599  12.625
 5870TIP3   OH239024   2.586   7.008  12.854
 5870TIP3    H139025   2.593   7.028  12.761
 5870TIP3    H239026   2.667   6.962  12.875
 5871TIP3   OH239027   2.440   6.569  12.959
 5871TIP3    H139028   2.489   6.542  12.882
 5871TIP3    H239029   2.496   6.634  13.002
 5872TIP3   OH239030   3.147   7.105  13.071
 5872TIP3    H139031   3.120   7.138  13.157
 5872TIP3    H239032   3.105   7.020  13.063
 5873TIP3   OH239033   2.580   6.984  13.405
 5873TIP3    H139034   2.521   7.046  13.448
 5873TIP3    H239035   2.536   6.964  13.322
 5874TIP3   OH239036   3.156   6.556  12.164
 5874TIP3    H139037   3.203   6.587  12.241
 5874TIP3    H239038   3.211   6.583  12.090
 5875TIP3   OH239039   2.247   6.575  13.410
 5875TIP3    H139040   2.260   6.664  13.443
 5875TIP3    H239041   2.160   6.576  13.371
 5876TIP3   OH239042   2.945   7.188  12.514
 5876TIP3    H139043   3.033   7.216  12.540
 5876TIP3    H239044   2.931   7.228  12.429
 5877TIP3   OH239045   2.399   7.174  13.494
 5877TIP3    H139046   2.400   7.212  13.406
 5877TIP3    H239047   2.306   7.167  13.516
 5878TIP3   OH239048   3.556   5.693  12.141
 5878TIP3    H139049   3.471   5.720  12.176
 5878TIP3    H239050   3.595   5.775  12.109
 5879TIP3   OH239051   2.356   6.581  12.331
 5879TIP3    H139052   2.303   6.649  12.289
 5879TIP3    H239053   2.313   6.499  12.306
 5880TIP3   OH239054   3.676   7.156  12.008
 5880TIP3    H139055   3.694   7.240  11.964
 5880TIP3    H239056   3.757   7.106  12.000
 5881TIP3   OH239057   1.962   6.830  13.251
 5881TIP3    H139058   1.911   6.841  13.171
 5881TIP3    H239059   1.976   6.736  13.258
 5882TIP3   OH239060   1.976   7.074  12.964
 5882TIP3    H139061   2.071   7.066  12.955
 5882TIP3    H239062   1.963   7.164  12.994
 5883TIP3   OH239063   3.768   7.159  13.564
 5883TIP3    H139064   3.756   7.067  13.540
 5883TIP3    H239065   3.680   7.195  13.565
 5884TIP3   OH239066   2.833   7.090  13.393
 5884TIP3    H139067   2.820   7.167  13.448
 5884TIP3    H239068   2.747   7.050  13.386
 5885TIP3   OH239069   3.445   6.302  13.527
 5885TIP3    H139070   3.387   6.344  13.463
 5885TIP3    H239071   3.452   6.211  13.496
 5886TIP3   OH239072   2.179   6.983  13.326
 5886TIP3    H139073   2.204   6.937  13.406
 5886TIP3    H239074   2.103   6.936  13.293
 5887TIP3   OH239075   2.434   5.796  12.945
 5887TIP3    H139076   2.362   5.786  12.883
 5887TIP3    H239077   2.408   5.870  13.000
 5888TIP3   OH239078   2.909   5.779  13.285
 5888TIP3    H139079   2.951   5.725  13.352
 5888TIP3    H239080   2.815   5.767  13.300
 5889TIP3   OH239081   3.209   6.150  13.370
 5889TIP3    H139082   3.146   6.143  13.441
 5889TIP3    H239083   3.210   6.243  13.347
 5890TIP3   OH239084   3.321   6.615  11.959
 5890TIP3    H139085   3.292   6.622  11.868
 5890TIP3    H239086   3.412   6.644  11.958
 5891TIP3   OH239087   2.866   6.009  12.019
 5891TIP3    H139088   2.811   6.001  12.097
 5891TIP3    H239089   2.831   5.945  11.958
 5892TIP3   OH239090   2.447   6.315  13.067
 5892TIP3    H139091   2.379   6.316  13.135
 5892TIP3    H239092   2.450   6.405  13.035
 5893TIP3   OH239093   2.444   6.320  12.552
 5893TIP3    H139094   2.349   6.307  12.545
 5893TIP3    H239095   2.476   6.304  12.463
 5894TIP3   OH239096   3.019   6.378  12.447
 5894TIP3    H139097   2.975   6.444  12.393
 5894TIP3    H239098   3.051   6.313  12.384
 5895TIP3   OH239099   2.901   6.367  13.544
 5895TIP3    H139100   2.854   6.292  13.581
 5895TIP3    H239101   2.985   6.367  13.589
 5896TIP3   OH239102   3.078   6.318  12.706
 5896TIP3    H139103   3.047   6.365  12.628
 5896TIP3    H239104   3.126   6.243  12.670
 5897TIP3   OH239105   2.231   6.323  13.238
 5897TIP3    H139106   2.224   6.370  13.321
 5897TIP3    H239107   2.188   6.239  13.253
 5898TIP3   OH239108   2.548   6.056  11.909
 5898TIP3    H139109   2.513   6.045  11.998
 5898TIP3    H239110   2.490   6.121  11.869
 5899TIP3   OH239111   1.884   6.019  12.634
 5899TIP3    H139112   1.951   6.028  12.701
 5899TIP3    H239113   1.932   6.006  12.552
 5900TIP3   OH239114   1.944   6.111  12.140
 5900TIP3    H139115   2.011   6.150  12.083
 5900TIP3    H239116   1.884   6.183  12.160
 5901TIP3   OH239117   3.047   6.441  13.156
 5901TIP3    H139118   3.083   6.383  13.089
 5901TIP3    H239119   2.977   6.390  13.197
 5902TIP3   OH239120   2.747   6.089  12.668
 5902TIP3    H139121   2.655   6.077  12.694
 5902TIP3    H239122   2.796   6.034  12.729
 5903TIP3   OH239123   2.184   6.230  12.522
 5903TIP3    H139124   2.110   6.258  12.468
 5903TIP3    H239125   2.205   6.142  12.491
 5904TIP3   OH239126   2.516   6.248  12.297
 5904TIP3    H139127   2.611   6.241  12.311
 5904TIP3    H239128   2.507   6.288  12.211
 5905TIP3   OH239129   3.167   5.984  12.975
 5905TIP3    H139130   3.096   5.994  13.038
 5905TIP3    H239131   3.133   5.924  12.909
 5906TIP3   OH239132   2.471   6.341  12.043
 5906TIP3    H139133   2.418   6.315  11.967
 5906TIP3    H239134   2.546   6.386  12.005
 5907TIP3   OH239135   2.248   6.822  13.552
 5907TIP3    H139136   2.314   6.817  13.621
 5907TIP3    H239137   2.165   6.828  13.599
 5908TIP3   OH239138   2.823   6.371  12.841
 5908TIP3    H139139   2.890   6.333  12.784
 5908TIP3    H239140   2.794   6.299  12.896
 5909TIP3   OH239141   2.298   5.970  12.483
 5909TIP3    H139142   2.243   5.895  12.506
 5909TIP3    H239143   2.340   5.945  12.401
 5910TIP3   OH239144   2.702   6.209  13.058
 5910TIP3    H139145   2.618   6.255  13.061
 5910TIP3    H239146   2.753   6.245  13.130
 5911TIP3   OH239147   2.739   6.808  12.239
 5911TIP3    H139148   2.672   6.760  12.190
 5911TIP3    H239149   2.700   6.823  12.325
 5912TIP3   OH239150   3.453   6.744  13.095
 5912TIP3    H139151   3.513   6.795  13.040
 5912TIP3    H239152   3.380   6.723  13.036
 5913TIP3   OH239153   3.130   6.086  12.039
 5913TIP3    H139154   3.035   6.073  12.042
 5913TIP3    H239155   3.146   6.162  12.095
 5914TIP3   OH239156   2.924   6.824  13.370
 5914TIP3    H139157   2.934   6.785  13.457
 5914TIP3    H239158   2.892   6.913  13.388
 5915TIP3   OH239159   3.209   6.282  12.216
 5915TIP3    H139160   3.293   6.272  12.261
 5915TIP3    H239161   3.203   6.376  12.197
 5916TIP3   OH239162   2.281   6.748  12.801
 5916TIP3    H139163   2.328   6.734  12.718
 5916TIP3    H239164   2.316   6.681  12.860
 5917TIP3   OH239165   2.970   6.947  12.169
 5917TIP3    H139166   2.945   7.039  12.182
 5917TIP3    H239167   2.890   6.898  12.191
 5918TIP3   OH239168   1.976   6.559  13.340
 5918TIP3    H139169   1.943   6.512  13.417
 5918TIP3    H239170   1.910   6.543  13.272
 5919TIP3   OH239171   2.689   6.545  13.570
 5919TIP3    H139172   2.622   6.510  13.512
 5919TIP3    H239173   2.769   6.498  13.546
 5920TIP3   OH239174   3.113   7.099  13.353
 5920TIP3    H139175   3.017   7.095  13.353
 5920TIP3    H239176   3.136   7.106  13.446
 5921TIP3   OH239177   3.671   6.326  12.185
 5921TIP3    H139178   3.627   6.300  12.105
 5921TIP3    H239179   3.693   6.419  12.172
 5922TIP3   OH239180   3.709   6.894  13.478
 5922TIP3    H139181   3.622   6.911  13.443
 5922TIP3    H239182   3.763   6.876  13.401
 5923TIP3   OH239183   3.642   7.130  12.290
 5923TIP3    H139184   3.551   7.112  12.316
 5923TIP3    H239185   3.637   7.143  12.195
 5924TIP3   OH239186   3.252   6.668  12.909
 5924TIP3    H139187   3.157   6.659  12.900
 5924TIP3    H239188   3.288   6.595  12.860
 5925TIP3   OH239189   2.549   7.099  12.593
 5925TIP3    H139190   2.596   7.174  12.558
 5925TIP3    H239191   2.464   7.135  12.621
 5926TIP3   OH239192   2.102   6.549  12.046
 5926TIP3    H139193   2.147   6.621  12.091
 5926TIP3    H239194   2.011   6.555  12.075
 5927TIP3   OH239195   2.599   6.860  12.465
 5927TIP3    H139196   2.588   6.944  12.509
 5927TIP3    H239197   2.542   6.800  12.513
 5928TIP3   OH239198   2.695   7.231  13.119
 5928TIP3    H139199   2.753   7.303  13.098
 5928TIP3    H239200   2.751   7.165  13.159
 5929TIP3   OH239201   3.022   6.861  13.113
 5929TIP3    H139202   2.992   6.840  13.201
 5929TIP3    H239203   3.056   6.778  13.079
 5930TIP3   OH239204   3.264   7.013  12.087
 5930TIP3    H139205   3.311   6.958  12.150
 5930TIP3    H239206   3.173   6.987  12.095
 5931TIP3   OH239207   2.108   6.069  13.276
 5931TIP3    H139208   2.019   6.099  13.257
 5931TIP3    H239209   2.096   5.991  13.329
 5932TIP3   OH239210   3.390   6.857  12.287
 5932TIP3    H139211   3.348   6.776  12.316
 5932TIP3    H239212   3.482   6.834  12.279
 5933TIP3   OH239213   2.162   7.242  13.149
 5933TIP3    H139214   2.145   7.168  13.207
 5933TIP3    H239215   2.090   7.302  13.166
 5934TIP3   OH239216   2.681   7.043  11.899
 5934TIP3    H139217   2.701   6.962  11.852
 5934TIP3    H239218   2.645   7.014  11.982
 5935TIP3   OH239219   2.550   7.033  12.144
 5935TIP3    H139220   2.596   6.974  12.203
 5935TIP3    H239221   2.570   7.121  12.177
 5936TIP3   OH239222   2.200   6.764  12.193
 5936TIP3    H139223   2.127   6.809  12.237
 5936TIP3    H239224   2.242   6.833  12.142
 5937TIP3   OH239225   3.007   6.028  13.214
 5937TIP3    H139226   3.087   6.039  13.266
 5937TIP3    H239227   2.974   5.941  13.239
 5938TIP3   OH239228   3.030   6.087  12.350
 5938TIP3    H139229   3.090   6.097  12.276
 5938TIP3    H239230   3.039   5.995  12.375
 5939TIP3   OH239231   2.876   7.205  12.211
 5939TIP3    H139232   2.786   7.233  12.225
 5939TIP3    H239233   2.895   7.231  12.121
 5940TIP3   OH239234   2.773   6.184  12.401
 5940TIP3    H139235   2.867   6.172  12.384
 5940TIP3    H239236   2.765   6.174  12.496
 5941TIP3   OH239237   2.871   6.269  13.273
 5941TIP3    H139238   2.877   6.285  13.367
 5941TIP3    H239239   2.909   6.182  13.261
 5942TIP3   OH239240   2.781   5.871  12.489
 5942TIP3    H139241   2.782   5.952  12.539
 5942TIP3    H239242   2.873   5.847  12.480
 5943TIP3   OH239243   2.612  -0.013  12.221
 5943TIP3    H139244   2.590   0.041  12.145
 5943TIP3    H239245   2.591   0.043  12.296
 5944TIP3   OH239246   2.442   6.006  12.165
 5944TIP3    H139247   2.438   6.090  12.210
 5944TIP3    H239248   2.529   5.971  12.186
 5945TIP3   OH239249   3.462   6.052  13.372
 5945TIP3    H139250   3.370   6.078  13.375
 5945TIP3    H239251   3.471   6.005  13.290
 5946TIP3   OH239252   3.331   6.429  12.780
 5946TIP3    H139253   3.245   6.395  12.755
 5946TIP3    H239254   3.370   6.359  12.832
 5947TIP3   OH239255   2.290   6.980  12.036
 5947TIP3    H139256   2.364   7.022  12.081
 5947TIP3    H239257   2.331   6.924  11.970
 5948TIP3   OH239258   2.079   6.281  11.974
 5948TIP3    H139259   2.104   6.367  12.007
 5948TIP3    H239260   2.038   6.299  11.889
 5949TIP3   OH239261   2.184   5.773  12.822
 5949TIP3    H139262   2.175   5.767  12.727
 5949TIP3    H239263   2.148   5.691  12.856
 5950TIP3   OH239264   2.014   7.206  12.380
 5950TIP3    H139265   1.921   7.186  12.374
 5950TIP3    H239266   2.032   7.262  12.304
 5951TIP3   OH239267   2.527   7.260  13.719
 5951TIP3    H139268   2.580   7.189  13.755
 5951TIP3    H239269   2.475   7.218  13.650
 5952TIP3   OH239270   2.874   7.239  11.938
 5952TIP3    H139271   2.806   7.173  11.923
 5952TIP3    H239272   2.936   7.227  11.866
 5953TIP3   OH239273   3.154   7.118  13.625
 5953TIP3    H139274   3.108   7.050  13.673
 5953TIP3    H239275   3.224   7.146  13.683
 5954TIP3   OH239276   3.375   7.247  11.990
 5954TIP3    H139277   3.337   7.164  12.018
 5954TIP3    H239278   3.418   7.227  11.907
 5955TIP3   OH239279   1.999   6.822  13.679
 5955TIP3    H139280   2.004   6.727  13.674
 5955TIP3    H239281   1.927   6.846  13.620
 5956TIP3   OH239282   2.429   6.797  11.888
 5956TIP3    H139283   2.454   6.748  11.966
 5956TIP3    H239284   2.510   6.805  11.837
 5957TIP3   OH239285   2.661   6.820  13.616
 5957TIP3    H139286   2.641   6.860  13.532
 5957TIP3    H239287   2.682   6.729  13.595
 5958TIP3   OH239288   2.964   6.914  11.887
 5958TIP3    H139289   2.972   6.910  11.983
 5958TIP3    H239290   2.981   6.824  11.858
 5959TIP3   OH239291   3.234   6.832  13.402
 5959TIP3    H139292   3.321   6.861  13.376
 5959TIP3    H239293   3.175   6.898  13.366
 5960TIP3   OH239294   2.078   6.557  13.655
 5960TIP3    H139295   2.156   6.536  13.605
 5960TIP3    H239296   2.105   6.548  13.747
 5961TIP3   OH239297   2.539   6.662  12.110
 5961TIP3    H139298   2.491   6.613  12.177
 5961TIP3    H239299   2.587   6.595  12.061
 5962TIP3   OH239300   2.496   6.438  13.395
 5962TIP3    H139301   2.415   6.489  13.389
 5962TIP3    H239302   2.553   6.474  13.327
 5963TIP3   OH239303   2.685   6.487  11.950
 5963TIP3    H139304   2.683   6.510  11.857
 5963TIP3    H239305   2.777   6.473  11.969
 5964TIP3   OH239306   3.005   6.676  13.679
 5964TIP3    H139307   3.080   6.637  13.634
 5964TIP3    H239308   2.972   6.606  13.734
 5965TIP3   OH239309   3.582   6.689  11.894
 5965TIP3    H139310   3.578   6.662  11.802
 5965TIP3    H239311   3.569   6.784  11.893
 5966TIP3   OH239312   2.544   6.174  13.456
 5966TIP3    H139313   2.549   6.118  13.379
 5966TIP3    H239314   2.531   6.262  13.421
 5967TIP3   OH239315   2.570   6.017  13.222
 5967TIP3    H139316   2.624   6.063  13.158
 5967TIP3    H239317   2.483   6.012  13.182
 5968TIP3   OH239318   2.685   6.546  13.234
 5968TIP3    H139319   2.780   6.545  13.223
 5968TIP3    H239320   2.656   6.623  13.185
 5969TIP3   OH239321   3.138   6.334  13.701
 5969TIP3    H139322   3.130   6.245  13.669
 5969TIP3    H239323   3.230   6.356  13.691
 5970TIP3   OH239324   3.276   6.613  13.552
 5970TIP3    H139325   3.248   6.692  13.505
 5970TIP3    H239326   3.372   6.613  13.544
 5971TIP3   OH239327   2.376   6.231  13.678
 5971TIP3    H139328   2.295   6.181  13.663
 5971TIP3    H239329   2.422   6.227  13.595
 5972TIP3   OH239330   2.629   5.754  13.289
 5972TIP3    H139331   2.610   5.845  13.266
 5972TIP3    H239332   2.563   5.703  13.242
 5973TIP3   OH239333   2.764   6.141  13.621
 5973TIP3    H139334   2.720   6.116  13.703
 5973TIP3    H239335   2.693   6.146  13.557
 5974TIP3   OH239336   3.042   6.103  13.580
 5974TIP3    H139337   2.949   6.093  13.596
 5974TIP3    H239338   3.084   6.035  13.632
 5975TIP3   OH239339   3.214   5.957  13.744
 5975TIP3    H139340   3.206   5.863  13.728
 5975TIP3    H239341   3.184   5.969  13.834
 5976TIP3   OH239342   2.169   6.041  13.648
 5976TIP3    H139343   2.170   5.965  13.590
 5976TIP3    H239344   2.181   6.005  13.735
 5977TIP3   OH239345   2.616   5.668  13.549
 5977TIP3    H139346   2.674   5.592  13.541
 5977TIP3    H239347   2.612   5.704  13.460
 5978TIP3   OH239348   2.694   5.828  13.760
 5978TIP3    H139349   2.672   5.777  13.682
 5978TIP3    H239350   2.636   5.903  13.757
 5979TIP3   OH239351   2.011   7.010  12.007
 5979TIP3    H139352   2.106   7.012  12.019
 5979TIP3    H239353   1.996   6.944  11.940
 5980TIP3   OH239354   3.516   6.929  13.771
 5980TIP3    H139355   3.434   6.943  13.818
 5980TIP3    H239356   3.568   7.007  13.789
 5981TIP3   OH239357   3.656   6.768  12.307
 5981TIP3    H139358   3.726   6.833  12.302
 5981TIP3    H239359   3.680   6.714  12.383
 5982TIP3   OH239360   3.699   6.579  12.523
 5982TIP3    H139361   3.618   6.529  12.511
 5982TIP3    H239362   3.680   6.638  12.596
 5983TIP3   OH239363   3.702   6.848  13.019
 5983TIP3    H139364   3.748   6.786  12.962
 5983TIP3    H239365   3.735   6.934  12.993
 5984TIP3   OH239366   3.428   7.160  13.215
 5984TIP3    H139367   3.334   7.162  13.227
 5984TIP3    H239368   3.440   7.144  13.121
 5985TIP3   OH239369   3.722   6.588  12.109
 5985TIP3    H139370   3.677   6.612  12.028
 5985TIP3    H239371   3.692   6.652  12.173
 5986TIP3   OH239372   3.561   6.279  11.941
 5986TIP3    H139373   3.536   6.343  11.874
 5986TIP3    H239374   3.537   6.194  11.904
 5987TIP3   OH239375   3.459   6.445  12.529
 5987TIP3    H139376   3.447   6.362  12.483
 5987TIP3    H239377   3.415   6.434  12.613
 5988TIP3   OH239378   1.947   6.618  12.957
 5988TIP3    H139379   1.960   6.612  12.863
 5988TIP3    H239380   2.034   6.602  12.995
 5989TIP3   OH239381   3.551   6.633  13.520
 5989TIP3    H139382   3.614   6.563  13.501
 5989TIP3    H239383   3.590   6.711  13.479
 5990TIP3   OH239384   3.702   6.401  13.510
 5990TIP3    H139385   3.613   6.367  13.514
 5990TIP3    H239386   3.757   6.330  13.541
 5991TIP3   OH239387   3.485   6.033  11.843
 5991TIP3    H139388   3.513   5.983  11.920
 5991TIP3    H239389   3.393   6.008  11.830
 5992TIP3   OH239390   3.460   6.227  12.350
 5992TIP3    H139391   3.477   6.134  12.366
 5992TIP3    H239392   3.533   6.256  12.296
 5993TIP3   OH239393   3.482   6.241  12.933
 5993TIP3    H139394   3.575   6.256  12.913
 5993TIP3    H239395   3.474   6.263  13.026
 5994TIP3   OH239396   3.510   6.338  13.197
 5994TIP3    H139397   3.426   6.369  13.232
 5994TIP3    H239398   3.560   6.417  13.181
 5995TIP3   OH239399   1.936   6.161  13.558
 5995TIP3    H139400   2.023   6.133  13.587
 5995TIP3    H239401   1.883   6.081  13.561
 5996TIP3   OH239402   3.745   5.749  13.720
 5996TIP3    H139403   3.809   5.690  13.680
 5996TIP3    H239404   3.736   5.820  13.658
 5997TIP3   OH239405   3.521   5.947  12.385
 5997TIP3    H139406   3.528   5.906  12.471
 5997TIP3    H239407   3.460   5.892  12.337
 5998TIP3   OH239408   2.052   6.013  12.861
 5998TIP3    H139409   2.092   5.927  12.854
 5998TIP3    H239410   2.125   6.073  12.872
 5999TIP3   OH239411   1.869   6.307  12.928
 5999TIP3    H139412   1.935   6.290  12.861
 5999TIP3    H239413   1.890   6.395  12.960
 6000TIP3   OH239414   3.675   5.939  13.536
 6000TIP3    H139415   3.596   5.981  13.570
 6000TIP3    H239416   3.647   5.893  13.458
 6001TIP3   OH239417   3.668   5.919  12.036
 6001TIP3    H139418   3.715   5.868  11.971
 6001TIP3    H239419   3.730   5.986  12.065
 6002TIP3   OH239420   1.923   5.939  12.351
 6002TIP3    H139421   1.828   5.929  12.355
 6002TIP3    H239422   1.938   6.003  12.282
 6003TIP3   OH239423   1.924   5.783  13.186
 6003TIP3    H139424   1.849   5.773  13.244
 6003TIP3    H239425   1.896   5.847  13.121
 6004TIP3   OH239426   2.150   7.186  13.626
 6004TIP3    H139427   2.064   7.182  13.584
 6004TIP3    H239428   2.138   7.143  13.710
 6005TIP3   OH239429   2.433   7.272  13.234
 6005TIP3    H139430   2.352   7.270  13.183
 6005TIP3    H239431   2.500   7.243  13.172
 6006TIP3   OH239432   3.577   5.735  13.348
 6006TIP3    H139433   3.508   5.758  13.286
 6006TIP3    H239434   3.599   5.644  13.326
 6007TIP3   OH239435   2.338   7.215  12.740
 6007TIP3    H139436   2.317   7.140  12.797
 6007TIP3    H239437   2.388   7.274  12.797
 6008TIP3   OH239438   2.882   5.888  12.806
 6008TIP3    H139439   2.824   5.813  12.817
 6008TIP3    H239440   2.963   5.852  12.771
 6009TIP3   OH239441   3.413   5.718  12.820
 6009TIP3    H139442   3.471   5.772  12.767
 6009TIP3    H239443   3.325   5.750  12.799
 6010TIP3   OH239444   3.590   5.804  12.620
 6010TIP3    H139445   3.660   5.747  12.590
 6010TIP3    H239446   3.634   5.887  12.641
 6011TIP3   OH239447   2.147   5.747  12.551
 6011TIP3    H139448   2.056   5.730  12.525
 6011TIP3    H239449   2.191   5.662  12.540
 6012TIP3   OH239450   2.059   5.752  12.167
 6012TIP3    H139451   2.111   5.808  12.110
 6012TIP3    H239452   2.021   5.813  12.231
 6013TIP3   OH239453   2.603   5.692  12.591
 6013TIP3    H139454   2.658   5.751  12.540
 6013TIP3    H239455   2.638   5.697  12.680
 6014TIP3   OH239456   3.141   5.781  12.760
 6014TIP3    H139457   3.136   5.793  12.665
 6014TIP3    H239458   3.122   5.688  12.773
 6015TIP3   OH239459   3.337   5.763  12.287
 6015TIP3    H139460   3.261   5.805  12.327
 6015TIP3    H239461   3.316   5.669  12.290
 6016TIP3   OH239462   2.246   5.895  11.995
 6016TIP3    H139463   2.297   5.836  11.939
 6016TIP3    H239464   2.309   5.931  12.056
 6017TIP3   OH239465   2.704   5.971  12.241
 6017TIP3    H139466   2.724   5.900  12.301
 6017TIP3    H239467   2.725   6.051  12.289
 6018TIP3   OH239468   2.162   5.794  13.508
 6018TIP3    H139469   2.105   5.723  13.535
 6018TIP3    H239470   2.244   5.778  13.554
 6019TIP3   OH239471   2.370   5.730  13.680
 6019TIP3    H139472   2.453   5.704  13.640
 6019TIP3    H239473   2.336   5.650  13.718
 6020TIP3   OH239474   3.222   5.686  13.686
 6020TIP3    H139475   3.213   5.638  13.769
 6020TIP3    H239476   3.315   5.676  13.663
 6021TIP3   OH239477   3.514   7.260  13.549
 6021TIP3    H139478   3.433   7.215  13.525
 6021TIP3    H239479   3.525   7.326  13.481
 6022TIP3   OH239480   4.928   6.668  12.551
 6022TIP3    H139481   4.918   6.763  12.549
 6022TIP3    H239482   4.890   6.637  12.469
 6023TIP3   OH239483   4.832   6.585  12.932
 6023TIP3    H139484   4.869   6.550  13.013
 6023TIP3    H239485   4.794   6.509  12.888
 6024TIP3   OH239486   4.085   6.556  13.055
 6024TIP3    H139487   4.081   6.475  13.105
 6024TIP3    H239488   4.174   6.589  13.071
 6025TIP3   OH239489   5.232   6.885  12.747
 6025TIP3    H139490   5.194   6.818  12.804
 6025TIP3    H239491   5.254   6.956  12.806
 6026TIP3   OH239492   4.227   6.991  12.932
 6026TIP3    H139493   4.191   6.909  12.899
 6026TIP3    H239494   4.318   6.990  12.903
 6027TIP3   OH239495   3.848   6.358  12.414
 6027TIP3    H139496   3.800   6.432  12.450
 6027TIP3    H239497   3.796   6.330  12.339
 6028TIP3   OH239498   3.943   6.581  12.692
 6028TIP3    H139499   3.958   6.488  12.711
 6028TIP3    H239500   3.895   6.581  12.609
 6029TIP3   OH239501   4.700   6.832  12.940
 6029TIP3    H139502   4.736   6.746  12.919
 6029TIP3    H239503   4.767   6.874  12.994
 6030TIP3   OH239504   5.581   5.991  13.036
 6030TIP3    H139505   5.595   6.068  13.091
 6030TIP3    H239506   5.636   6.006  12.959
 6031TIP3   OH239507   5.011   6.264  12.957
 6031TIP3    H139508   5.032   6.171  12.968
 6031TIP3    H239509   4.999   6.275  12.863
 6032TIP3   OH239510   4.354   6.082  12.674
 6032TIP3    H139511   4.354   6.168  12.632
 6032TIP3    H239512   4.303   6.027  12.614
 6033TIP3   OH239513   5.128   6.117  12.524
 6033TIP3    H139514   5.174   6.085  12.602
 6033TIP3    H239515   5.197   6.153  12.469
 6034TIP3   OH239516   3.985   6.318  12.766
 6034TIP3    H139517   4.050   6.275  12.821
 6034TIP3    H239518   3.999   6.283  12.679
 6035TIP3   OH239519   4.540   6.474  12.690
 6035TIP3    H139520   4.601   6.424  12.745
 6035TIP3    H239521   4.477   6.410  12.659
 6036TIP3   OH239522   5.614   6.163  13.266
 6036TIP3    H139523   5.541   6.220  13.242
 6036TIP3    H239524   5.630   6.182  13.359
 6037TIP3   OH239525   4.204   5.997  13.108
 6037TIP3    H139526   4.184   6.050  13.032
 6037TIP3    H239527   4.131   6.012  13.168
 6038TIP3   OH239528   4.849   6.914  12.465
 6038TIP3    H139529   4.876   6.926  12.373
 6038TIP3    H239530   4.843   7.003  12.499
 6039TIP3   OH239531   4.475   6.763  13.095
 6039TIP3    H139532   4.417   6.832  13.127
 6039TIP3    H239533   4.540   6.809  13.041
 6040TIP3   OH239534   5.238   6.063  12.768
 6040TIP3    H139535   5.192   6.009  12.833
 6040TIP3    H239536   5.297   6.118  12.820
 6041TIP3   OH239537   4.186   6.158  12.883
 6041TIP3    H139538   4.243   6.213  12.937
 6041TIP3    H239539   4.243   6.125  12.814
 6042TIP3   OH239540   4.298   6.953  13.193
 6042TIP3    H139541   4.273   6.979  13.104
 6042TIP3    H239542   4.218   6.963  13.244
 6043TIP3   OH239543   3.881   6.930  12.269
 6043TIP3    H139544   3.866   6.963  12.181
 6043TIP3    H239545   3.891   7.009  12.322
 6044TIP3   OH239546   5.269   7.098  12.928
 6044TIP3    H139547   5.178   7.108  12.958
 6044TIP3    H239548   5.288   7.180  12.881
 6045TIP3   OH239549   5.322   5.898  13.131
 6045TIP3    H139550   5.249   5.933  13.080
 6045TIP3    H239551   5.400   5.923  13.081
 6046TIP3   OH239552   4.571   5.686  12.859
 6046TIP3    H139553   4.541   5.595  12.854
 6046TIP3    H239554   4.493   5.735  12.886
 6047TIP3   OH239555   5.101   7.266  12.559
 6047TIP3    H139556   5.122   7.173  12.550
 6047TIP3    H239557   5.173   7.311  12.514
 6048TIP3   OH239558   5.185   7.012  12.504
 6048TIP3    H139559   5.214   6.959  12.429
 6048TIP3    H239560   5.206   6.959  12.581
 6049TIP3   OH239561   5.369   6.905  13.311
 6049TIP3    H139562   5.363   6.845  13.237
 6049TIP3    H239563   5.361   6.992  13.272
 6050TIP3   OH239564   4.807   6.603  12.313
 6050TIP3    H139565   4.749   6.671  12.279
 6050TIP3    H239566   4.876   6.596  12.248
 6051TIP3   OH239567   4.849   6.456  11.982
 6051TIP3    H139568   4.907   6.489  12.050
 6051TIP3    H239569   4.904   6.400  11.928
 6052TIP3   OH239570   5.536   6.561  13.160
 6052TIP3    H139571   5.465   6.623  13.147
 6052TIP3    H239572   5.595   6.575  13.086
 6053TIP3   OH239573   5.165   6.618  12.403
 6053TIP3    H139574   5.101   6.637  12.472
 6053TIP3    H239575   5.234   6.570  12.447
 6054TIP3   OH239576   5.148   6.424  13.335
 6054TIP3    H139577   5.141   6.498  13.395
 6054TIP3    H239578   5.085   6.444  13.265
 6055TIP3   OH239579   4.340   6.618  12.534
 6055TIP3    H139580   4.291   6.614  12.452
 6055TIP3    H239581   4.317   6.537  12.580
 6056TIP3   OH239582   4.485   6.989  12.849
 6056TIP3    H139583   4.492   7.028  12.762
 6056TIP3    H239584   4.570   6.949  12.865
 6057TIP3   OH239585   4.381   6.544  12.959
 6057TIP3    H139586   4.416   6.551  12.870
 6057TIP3    H239587   4.412   6.623  13.003
 6058TIP3   OH239588   5.029   7.108  13.063
 6058TIP3    H139589   5.002   7.145  13.146
 6058TIP3    H239590   4.987   7.022  13.060
 6059TIP3   OH239591   4.464   6.987  13.409
 6059TIP3    H139592   4.405   7.049  13.452
 6059TIP3    H239593   4.419   6.965  13.327
 6060TIP3   OH239594   5.040   6.552  12.165
 6060TIP3    H139595   5.090   6.584  12.240
 6060TIP3    H239596   5.092   6.577  12.089
 6061TIP3   OH239597   4.135   6.579  13.396
 6061TIP3    H139598   4.147   6.664  13.439
 6061TIP3    H239599   4.044   6.579  13.367
 6062TIP3   OH239600   4.835   7.182  12.523
 6062TIP3    H139601   4.922   7.220  12.538
 6062TIP3    H239602   4.797   7.235  12.453
 6063TIP3   OH239603   4.287   7.179  13.500
 6063TIP3    H139604   4.288   7.216  13.412
 6063TIP3    H239605   4.194   7.170  13.521
 6064TIP3   OH239606   5.416   5.696  12.153
 6064TIP3    H139607   5.331   5.723  12.187
 6064TIP3    H239608   5.455   5.776  12.120
 6065TIP3   OH239609   4.212   6.571  12.301
 6065TIP3    H139610   4.169   6.647  12.263
 6065TIP3    H239611   4.161   6.496  12.269
 6066TIP3   OH239612   5.537   7.141  11.983
 6066TIP3    H139613   5.527   7.221  12.035
 6066TIP3    H239614   5.629   7.118  11.993
 6067TIP3   OH239615   3.848   6.823  13.255
 6067TIP3    H139616   3.797   6.835  13.176
 6067TIP3    H239617   3.858   6.728  13.264
 6068TIP3   OH239618   3.836   7.081  12.968
 6068TIP3    H139619   3.930   7.099  12.958
 6068TIP3    H239620   3.793   7.164  12.947
 6069TIP3   OH239621   5.629   7.156  13.537
 6069TIP3    H139622   5.604   7.064  13.525
 6069TIP3    H239623   5.596   7.200  13.458
 6070TIP3   OH239624   4.714   7.093  13.377
 6070TIP3    H139625   4.706   7.170  13.434
 6070TIP3    H239626   4.627   7.054  13.377
 6071TIP3   OH239627   5.318   6.306  13.539
 6071TIP3    H139628   5.265   6.345  13.469
 6071TIP3    H239629   5.330   6.215  13.511
 6072TIP3   OH239630   4.064   6.975  13.334
 6072TIP3    H139631   4.088   6.927  13.414
 6072TIP3    H239632   3.987   6.929  13.301
 6073TIP3   OH239633   4.324   5.798  12.945
 6073TIP3    H139634   4.251   5.786  12.885
 6073TIP3    H239635   4.296   5.871  13.002
 6074TIP3   OH239636   4.790   5.778  13.286
 6074TIP3    H139637   4.832   5.723  13.351
 6074TIP3    H239638   4.696   5.765  13.300
 6075TIP3   OH239639   5.091   6.149  13.364
 6075TIP3    H139640   5.031   6.144  13.439
 6075TIP3    H239641   5.096   6.242  13.344
 6076TIP3   OH239642   5.195   6.604  11.950
 6076TIP3    H139643   5.169   6.616  11.859
 6076TIP3    H239644   5.289   6.625  11.951
 6077TIP3   OH239645   4.751   5.999  12.016
 6077TIP3    H139646   4.687   6.002  12.087
 6077TIP3    H239647   4.714   5.937  11.952
 6078TIP3   OH239648   4.335   6.302  13.067
 6078TIP3    H139649   4.263   6.312  13.130
 6078TIP3    H239650   4.350   6.390  13.033
 6079TIP3   OH239651   4.325   6.333  12.558
 6079TIP3    H139652   4.231   6.312  12.555
 6079TIP3    H239653   4.356   6.316  12.469
 6080TIP3   OH239654   4.880   6.355  12.426
 6080TIP3    H139655   4.853   6.437  12.385
 6080TIP3    H239656   4.950   6.322  12.369
 6081TIP3   OH239657   4.787   6.369  13.545
 6081TIP3    H139658   4.740   6.294  13.582
 6081TIP3    H239659   4.872   6.369  13.589
 6082TIP3   OH239660   4.981   6.291  12.684
 6082TIP3    H139661   4.937   6.342  12.616
 6082TIP3    H239662   5.024   6.220  12.636
 6083TIP3   OH239663   4.110   6.330  13.225
 6083TIP3    H139664   4.099   6.380  13.305
 6083TIP3    H239665   4.067   6.246  13.242
 6084TIP3   OH239666   4.441   6.060  11.911
 6084TIP3    H139667   4.400   6.048  11.997
 6084TIP3    H239668   4.383   6.120  11.865
 6085TIP3   OH239669   3.762   6.014  12.639
 6085TIP3    H139670   3.835   6.022  12.700
 6085TIP3    H239671   3.804   6.005  12.553
 6086TIP3   OH239672   3.842   6.112  12.141
 6086TIP3    H139673   3.908   6.151  12.084
 6086TIP3    H239674   3.781   6.183  12.159
 6087TIP3   OH239675   4.937   6.440  13.149
 6087TIP3    H139676   4.969   6.382  13.081
 6087TIP3    H239677   4.867   6.390  13.192
 6088TIP3   OH239678   4.639   6.043  12.643
 6088TIP3    H139679   4.548   6.045  12.671
 6088TIP3    H239680   4.686   6.003  12.716
 6089TIP3   OH239681   4.071   6.231  12.522
 6089TIP3    H139682   3.997   6.263  12.470
 6089TIP3    H239683   4.087   6.143  12.488
 6090TIP3   OH239684   4.402   6.260  12.306
 6090TIP3    H139685   4.496   6.242  12.311
 6090TIP3    H239686   4.389   6.294  12.218
 6091TIP3   OH239687   5.034   5.986  12.981
 6091TIP3    H139688   4.979   5.998  13.058
 6091TIP3    H239689   4.977   5.944  12.917
 6092TIP3   OH239690   4.354   6.339  12.048
 6092TIP3    H139691   4.299   6.311  11.975
 6092TIP3    H239692   4.430   6.379  12.007
 6093TIP3   OH239693   4.136   6.815  13.556
 6093TIP3    H139694   4.202   6.811  13.625
 6093TIP3    H239695   4.052   6.821  13.603
 6094TIP3   OH239696   4.720   6.338  12.844
 6094TIP3    H139697   4.790   6.285  12.806
 6094TIP3    H239698   4.684   6.283  12.914
 6095TIP3   OH239699   4.187   5.968  12.478
 6095TIP3    H139700   4.134   5.892  12.503
 6095TIP3    H239701   4.217   5.948  12.389
 6096TIP3   OH239702   4.595   6.211  13.061
 6096TIP3    H139703   4.508   6.252  13.066
 6096TIP3    H239704   4.642   6.246  13.136
 6097TIP3   OH239705   4.614   6.800  12.255
 6097TIP3    H139706   4.547   6.758  12.199
 6097TIP3    H239707   4.564   6.835  12.328
 6098TIP3   OH239708   5.340   6.743  13.090
 6098TIP3    H139709   5.404   6.792  13.039
 6098TIP3    H239710   5.269   6.723  13.029
 6099TIP3   OH239711   5.002   6.047  12.107
 6099TIP3    H139712   4.914   6.045  12.070
 6099TIP3    H239713   5.017   6.139  12.129
 6100TIP3   OH239714   4.796   6.822  13.367
 6100TIP3    H139715   4.814   6.791  13.456
 6100TIP3    H239716   4.768   6.912  13.378
 6101TIP3   OH239717   5.082   6.285  12.244
 6101TIP3    H139718   5.173   6.268  12.268
 6101TIP3    H239719   5.083   6.370  12.201
 6102TIP3   OH239720   4.157   6.743  12.835
 6102TIP3    H139721   4.121   6.723  12.748
 6102TIP3    H239722   4.127   6.670  12.890
 6103TIP3   OH239723   4.838   6.940  12.177
 6103TIP3    H139724   4.816   7.033  12.187
 6103TIP3    H239725   4.757   6.893  12.197
 6104TIP3   OH239726   3.864   6.550  13.336
 6104TIP3    H139727   3.829   6.505  13.413
 6104TIP3    H239728   3.797   6.537  13.268
 6105TIP3   OH239729   4.573   6.545  13.571
 6105TIP3    H139730   4.505   6.511  13.512
 6105TIP3    H239731   4.653   6.499  13.546
 6106TIP3   OH239732   4.993   7.083  13.348
 6106TIP3    H139733   4.898   7.089  13.343
 6106TIP3    H239734   5.014   7.096  13.440
 6107TIP3   OH239735   5.539   6.326  12.195
 6107TIP3    H139736   5.495   6.306  12.113
 6107TIP3    H239737   5.570   6.416  12.184
 6108TIP3   OH239738   5.586   6.884  13.472
 6108TIP3    H139739   5.502   6.899  13.430
 6108TIP3    H239740   5.647   6.869  13.400
 6109TIP3   OH239741   5.525   7.150  12.320
 6109TIP3    H139742   5.464   7.078  12.304
 6109TIP3    H239743   5.495   7.220  12.262
 6110TIP3   OH239744   5.132   6.668  12.910
 6110TIP3    H139745   5.038   6.662  12.893
 6110TIP3    H239746   5.169   6.592  12.865
 6111TIP3   OH239747   4.441   7.107  12.598
 6111TIP3    H139748   4.485   7.185  12.566
 6111TIP3    H239749   4.360   7.139  12.637
 6112TIP3   OH239750   3.991   6.554  12.052
 6112TIP3    H139751   4.029   6.636  12.085
 6112TIP3    H239752   3.898   6.562  12.068
 6113TIP3   OH239753   4.482   6.862  12.490
 6113TIP3    H139754   4.487   6.953  12.520
 6113TIP3    H239755   4.389   6.840  12.492
 6114TIP3   OH239756   4.590   7.227  13.113
 6114TIP3    H139757   4.642   7.306  13.098
 6114TIP3    H239758   4.645   7.174  13.171
 6115TIP3   OH239759   4.914   6.860  13.117
 6115TIP3    H139760   4.874   6.841  13.203
 6115TIP3    H239761   4.983   6.794  13.108
 6116TIP3   OH239762   5.188   6.983  12.050
 6116TIP3    H139763   5.198   6.935  12.132
 6116TIP3    H239764   5.104   6.954  12.015
 6117TIP3   OH239765   3.988   6.077  13.273
 6117TIP3    H139766   3.899   6.109  13.259
 6117TIP3    H239767   3.977   5.998  13.327
 6118TIP3   OH239768   5.271   6.848  12.288
 6118TIP3    H139769   5.232   6.766  12.320
 6118TIP3    H239770   5.365   6.829  12.283
 6119TIP3   OH239771   4.051   7.247  13.167
 6119TIP3    H139772   4.020   7.168  13.210
 6119TIP3    H239773   3.977   7.307  13.170
 6120TIP3   OH239774   4.589   7.055  11.871
 6120TIP3    H139775   4.587   6.975  11.818
 6120TIP3    H239776   4.552   7.029  11.955
 6121TIP3   OH239777   4.470   7.041  12.121
 6121TIP3    H139778   4.532   7.004  12.184
 6121TIP3    H239779   4.467   7.134  12.143
 6122TIP3   OH239780   4.090   6.780  12.180
 6122TIP3    H139781   4.015   6.823  12.222
 6122TIP3    H239782   4.131   6.849  12.128
 6123TIP3   OH239783   4.889   6.026  13.218
 6123TIP3    H139784   4.967   6.038  13.272
 6123TIP3    H239785   4.855   5.940  13.244
 6124TIP3   OH239786   4.979   5.946  12.362
 6124TIP3    H139787   4.984   5.981  12.273
 6124TIP3    H239788   5.024   6.011  12.416
 6125TIP3   OH239789   4.741   7.198  12.212
 6125TIP3    H139790   4.657   7.244  12.214
 6125TIP3    H239791   4.776   7.217  12.125
 6126TIP3   OH239792   4.661   6.187  12.407
 6126TIP3    H139793   4.738   6.243  12.411
 6126TIP3    H239794   4.655   6.147  12.494
 6127TIP3   OH239795   4.761   6.272  13.275
 6127TIP3    H139796   4.766   6.291  13.368
 6127TIP3    H239797   4.797   6.183  13.267
 6128TIP3   OH239798   4.737   5.851  12.457
 6128TIP3    H139799   4.712   5.923  12.516
 6128TIP3    H239800   4.823   5.878  12.422
 6129TIP3   OH239801   4.487   0.006  12.181
 6129TIP3    H139802   4.471   0.049  12.097
 6129TIP3    H239803   4.454   0.068  12.246
 6130TIP3   OH239804   4.326   6.011  12.165
 6130TIP3    H139805   4.317   6.097  12.207
 6130TIP3    H239806   4.413   5.982  12.189
 6131TIP3   OH239807   5.344   6.058  13.401
 6131TIP3    H139808   5.251   6.074  13.387
 6131TIP3    H239809   5.377   6.031  13.315
 6132TIP3   OH239810   5.216   6.426  12.785
 6132TIP3    H139811   5.135   6.382  12.758
 6132TIP3    H239812   5.261   6.362  12.839
 6133TIP3   OH239813   4.184   6.990  12.024
 6133TIP3    H139814   4.249   7.055  12.052
 6133TIP3    H239815   4.232   6.931  11.966
 6134TIP3   OH239816   3.975   6.286  11.977
 6134TIP3    H139817   3.993   6.375  12.010
 6134TIP3    H239818   3.938   6.299  11.890
 6135TIP3   OH239819   4.079   5.767  12.821
 6135TIP3    H139820   4.070   5.761  12.726
 6135TIP3    H239821   4.039   5.686  12.853
 6136TIP3   OH239822   3.894   7.189  12.380
 6136TIP3    H139823   3.801   7.174  12.365
 6136TIP3    H239824   3.920   7.253  12.313
 6137TIP3   OH239825   4.405   7.255  13.735
 6137TIP3    H139826   4.467   7.187  13.762
 6137TIP3    H239827   4.355   7.215  13.664
 6138TIP3   OH239828   4.803   7.226  11.950
 6138TIP3    H139829   4.740   7.175  11.900
 6138TIP3    H239830   4.836   7.291  11.888
 6139TIP3   OH239831   5.018   7.109  13.617
 6139TIP3    H139832   4.994   7.044  13.682
 6139TIP3    H239833   5.004   7.193  13.661
 6140TIP3   OH239834   5.229   7.223  11.919
 6140TIP3    H139835   5.229   7.148  11.978
 6140TIP3    H239836   5.320   7.227  11.887
 6141TIP3   OH239837   3.885   6.823  13.680
 6141TIP3    H139838   3.891   6.727  13.674
 6141TIP3    H239839   3.814   6.847  13.621
 6142TIP3   OH239840   4.328   6.800  11.893
 6142TIP3    H139841   4.361   6.751  11.969
 6142TIP3    H239842   4.404   6.807  11.835
 6143TIP3   OH239843   4.547   6.821  13.617
 6143TIP3    H139844   4.526   6.863  13.533
 6143TIP3    H239845   4.568   6.730  13.594
 6144TIP3   OH239846   4.949   6.918  11.918
 6144TIP3    H139847   4.896   6.924  11.997
 6144TIP3    H239848   4.922   6.837  11.876
 6145TIP3   OH239849   5.115   6.828  13.386
 6145TIP3    H139850   5.204   6.855  13.365
 6145TIP3    H239851   5.060   6.903  13.363
 6146TIP3   OH239852   3.968   6.560  13.656
 6146TIP3    H139853   4.046   6.525  13.612
 6146TIP3    H239854   3.986   6.548  13.750
 6147TIP3   OH239855   4.430   6.650  12.117
 6147TIP3    H139856   4.361   6.600  12.160
 6147TIP3    H239857   4.476   6.587  12.063
 6148TIP3   OH239858   4.383   6.440  13.390
 6148TIP3    H139859   4.302   6.491  13.382
 6148TIP3    H239860   4.441   6.478  13.325
 6149TIP3   OH239861   4.572   6.480  11.954
 6149TIP3    H139862   4.566   6.505  11.862
 6149TIP3    H239863   4.665   6.464  11.968
 6150TIP3   OH239864   4.894   6.681  13.683
 6150TIP3    H139865   4.967   6.643  13.634
 6150TIP3    H239866   4.859   6.608  13.735
 6151TIP3   OH239867   5.462   6.667  11.905
 6151TIP3    H139868   5.462   6.643  11.813
 6151TIP3    H239869   5.451   6.762  11.906
 6152TIP3   OH239870   4.432   6.178  13.454
 6152TIP3    H139871   4.435   6.121  13.378
 6152TIP3    H239872   4.417   6.265  13.419
 6153TIP3   OH239873   4.455   6.018  13.221
 6153TIP3    H139874   4.509   6.063  13.157
 6153TIP3    H239875   4.368   6.015  13.181
 6154TIP3   OH239876   4.576   6.554  13.238
 6154TIP3    H139877   4.671   6.565  13.239
 6154TIP3    H239878   4.543   6.628  13.188
 6155TIP3   OH239879   5.026   6.333  13.700
 6155TIP3    H139880   5.015   6.244  13.667
 6155TIP3    H239881   5.119   6.352  13.687
 6156TIP3   OH239882   5.160   6.618  13.549
 6156TIP3    H139883   5.132   6.694  13.498
 6156TIP3    H239884   5.256   6.619  13.543
 6157TIP3   OH239885   4.263   6.233  13.677
 6157TIP3    H139886   4.183   6.182  13.664
 6157TIP3    H239887   4.308   6.229  13.593
 6158TIP3   OH239888   4.512   5.754  13.289
 6158TIP3    H139889   4.493   5.845  13.266
 6158TIP3    H239890   4.446   5.703  13.243
 6159TIP3   OH239891   4.650   6.142  13.621
 6159TIP3    H139892   4.606   6.117  13.702
 6159TIP3    H239893   4.580   6.148  13.556
 6160TIP3   OH239894   4.928   6.104  13.578
 6160TIP3    H139895   4.834   6.094  13.595
 6160TIP3    H239896   4.970   6.036  13.630
 6161TIP3   OH239897   5.092   5.952  13.743
 6161TIP3    H139898   5.086   5.858  13.725
 6161TIP3    H239899   5.063   5.961  13.833
 6162TIP3   OH239900   4.062   6.038  13.646
 6162TIP3    H139901   4.060   5.962  13.588
 6162TIP3    H239902   4.071   6.000  13.734
 6163TIP3   OH239903   4.497   5.672  13.550
 6163TIP3    H139904   4.556   5.597  13.547
 6163TIP3    H239905   4.495   5.705  13.460
 6164TIP3   OH239906   4.578   5.829  13.761
 6164TIP3    H139907   4.555   5.779  13.683
 6164TIP3    H239908   4.521   5.906  13.758
 6165TIP3   OH239909   3.909   7.003  11.997
 6165TIP3    H139910   4.004   7.006  12.006
 6165TIP3    H239911   3.894   6.934  11.932
 6166TIP3   OH239912   5.428   6.948  13.796
 6166TIP3    H139913   5.339   6.965  13.826
 6166TIP3    H239914   5.479   7.023  13.828
 6167TIP3   OH239915   5.540   6.777  12.307
 6167TIP3    H139916   5.616   6.836  12.301
 6167TIP3    H239917   5.564   6.716  12.376
 6168TIP3   OH239918   5.596   6.577  12.491
 6168TIP3    H139919   5.511   6.543  12.519
 6168TIP3    H239920   5.645   6.588  12.573
 6169TIP3   OH239921   5.584   6.853  13.013
 6169TIP3    H139922   5.630   6.786  12.962
 6169TIP3    H239923   5.623   6.935  12.985
 6170TIP3   OH239924   5.321   7.150  13.197
 6170TIP3    H139925   5.227   7.164  13.202
 6170TIP3    H239926   5.339   7.136  13.104
 6171TIP3   OH239927   5.609   6.583  12.120
 6171TIP3    H139928   5.562   6.603  12.039
 6171TIP3    H239929   5.583   6.652  12.181
 6172TIP3   OH239930   5.427   6.290  11.951
 6172TIP3    H139931   5.413   6.351  11.878
 6172TIP3    H239932   5.405   6.204  11.915
 6173TIP3   OH239933   5.347   6.457  12.540
 6173TIP3    H139934   5.346   6.369  12.503
 6173TIP3    H239935   5.309   6.446  12.627
 6174TIP3   OH239936   3.839   6.608  12.945
 6174TIP3    H139937   3.862   6.609  12.852
 6174TIP3    H239938   3.923   6.596  12.990
 6175TIP3   OH239939   5.437   6.637  13.525
 6175TIP3    H139940   5.494   6.563  13.506
 6175TIP3    H239941   5.482   6.713  13.487
 6176TIP3   OH239942   5.577   6.401  13.510
 6176TIP3    H139943   5.488   6.367  13.521
 6176TIP3    H239944   5.634   6.328  13.535
 6177TIP3   OH239945   5.360   6.042  11.858
 6177TIP3    H139946   5.400   5.986  11.923
 6177TIP3    H239947   5.270   6.011  11.850
 6178TIP3   OH239948   5.343   6.215  12.368
 6178TIP3    H139949   5.371   6.124  12.372
 6178TIP3    H239950   5.409   6.258  12.314
 6179TIP3   OH239951   5.373   6.243  12.934
 6179TIP3    H139952   5.465   6.259  12.913
 6179TIP3    H239953   5.367   6.260  13.028
 6180TIP3   OH239954   5.395   6.329  13.205
 6180TIP3    H139955   5.311   6.362  13.238
 6180TIP3    H239956   5.447   6.407  13.188
 6181TIP3   OH239957   3.828   6.171  13.597
 6181TIP3    H139958   3.916   6.136  13.610
 6181TIP3    H239959   3.774   6.095  13.579
 6182TIP3   OH239960   5.631   5.750  13.720
 6182TIP3    H139961   5.696   5.693  13.679
 6182TIP3    H239962   5.617   5.820  13.656
 6183TIP3   OH239963   5.399   5.941  12.390
 6183TIP3    H139964   5.414   5.897  12.474
 6183TIP3    H239965   5.332   5.887  12.347
 6184TIP3   OH239966   3.947   6.009  12.849
 6184TIP3    H139967   3.985   5.921  12.846
 6184TIP3    H239968   4.021   6.067  12.863
 6185TIP3   OH239969   3.752   6.307  12.928
 6185TIP3    H139970   3.818   6.286  12.862
 6185TIP3    H239971   3.769   6.399  12.950
 6186TIP3   OH239972   5.552   5.925  13.528
 6186TIP3    H139973   5.474   5.980  13.525
 6186TIP3    H239974   5.542   5.866  13.453
 6187TIP3   OH239975   5.538   5.914  12.041
 6187TIP3    H139976   5.587   5.861  11.978
 6187TIP3    H239977   5.599   5.982  12.068
 6188TIP3   OH239978   3.808   5.948  12.358
 6188TIP3    H139979   3.712   5.941  12.360
 6188TIP3    H239980   3.826   6.008  12.286
 6189TIP3   OH239981   3.806   5.783  13.182
 6189TIP3    H139982   3.731   5.772  13.242
 6189TIP3    H239983   3.777   5.848  13.118
 6190TIP3   OH239984   4.037   7.187  13.630
 6190TIP3    H139985   3.952   7.185  13.586
 6190TIP3    H239986   4.021   7.142  13.713
 6191TIP3   OH239987   4.319   7.271  13.239
 6191TIP3    H139988   4.232   7.271  13.200
 6191TIP3    H239989   4.376   7.238  13.169
 6192TIP3   OH239990   5.464   5.732  13.344
 6192TIP3    H139991   5.397   5.759  13.281
 6192TIP3    H239992   5.484   5.641  13.320
 6193TIP3   OH239993   4.242   7.207  12.762
 6193TIP3    H139994   4.221   7.139  12.825
 6193TIP3    H239995   4.271   7.281  12.815
 6194TIP3   OH239996   4.800   5.877  12.808
 6194TIP3    H139997   4.739   5.805  12.822
 6194TIP3    H239998   4.874   5.836  12.763
 6195TIP3   OH239999   5.291   5.738  12.826
 6195TIP3    H140000   5.353   5.776  12.764
 6195TIP3    H240001   5.205   5.752  12.786
 6196TIP3   OH240002   5.473   5.800  12.625
 6196TIP3    H140003   5.540   5.740  12.593
 6196TIP3    H240004   5.520   5.881  12.643
 6197TIP3   OH240005   4.045   5.739  12.549
 6197TIP3    H140006   3.953   5.726  12.527
 6197TIP3    H240007   4.085   5.654  12.532
 6198TIP3   OH240008   3.964   5.752  12.182
 6198TIP3    H140009   4.007   5.805  12.114
 6198TIP3    H240010   3.915   5.816  12.234
 6199TIP3   OH240011   4.528   5.701  12.573
 6199TIP3    H140012   4.597   5.751  12.528
 6199TIP3    H240013   4.552   5.706  12.665
 6200TIP3   OH240014   5.032   5.757  12.707
 6200TIP3    H140015   5.050   5.747  12.613
 6200TIP3    H240016   5.008   5.669  12.736
 6201TIP3   OH240017   5.193   5.774  12.298
 6201TIP3    H140018   5.116   5.830  12.308
 6201TIP3    H240019   5.159   5.685  12.308
 6202TIP3   OH240020   4.130   5.897  11.992
 6202TIP3    H140021   4.181   5.842  11.932
 6202TIP3    H240022   4.195   5.933  12.052
 6203TIP3   OH240023   4.588   5.980  12.242
 6203TIP3    H140024   4.621   5.902  12.288
 6203TIP3    H240025   4.617   6.053  12.296
 6204TIP3   OH240026   4.049   5.791  13.506
 6204TIP3    H140027   3.991   5.720  13.535
 6204TIP3    H240028   4.130   5.775  13.554
 6205TIP3   OH240029   4.255   5.731  13.683
 6205TIP3    H140030   4.337   5.706  13.641
 6205TIP3    H240031   4.220   5.650  13.720
 6206TIP3   OH240032   5.109   5.681  13.686
 6206TIP3    H140033   5.102   5.634  13.769
 6206TIP3    H240034   5.201   5.672  13.661
 6207TIP3   OH240035   5.312   0.006  13.578
 6207TIP3    H140036   5.297  -0.067  13.517
 6207TIP3    H240037   5.367   0.067  13.530
 6208TIP3   OH240038   6.835   6.678  12.545
 6208TIP3    H140039   6.828   6.773  12.537
 6208TIP3    H240040   6.774   6.643  12.480
 6209TIP3   OH240041   6.694   6.600  12.915
 6209TIP3    H140042   6.717   6.557  12.997
 6209TIP3    H240043   6.658   6.530  12.861
 6210TIP3   OH240044   5.955   6.545  13.074
 6210TIP3    H140045   5.967   6.467  13.128
 6210TIP3    H240046   6.042   6.562  13.037
 6211TIP3   OH240047   7.109   6.896  12.764
 6211TIP3    H140048   7.055   6.834  12.813
 6211TIP3    H240049   7.130   6.965  12.828
 6212TIP3   OH240050   6.071   6.993  12.894
 6212TIP3    H140051   6.046   6.907  12.862
 6212TIP3    H240052   6.167   6.991  12.896
 6213TIP3   OH240053   5.730   6.342  12.409
 6213TIP3    H140054   5.699   6.428  12.436
 6213TIP3    H240055   5.672   6.318  12.336
 6214TIP3   OH240056   5.786   6.581  12.699
 6214TIP3    H140057   5.821   6.493  12.711
 6214TIP3    H240058   5.864   6.636  12.692
 6215TIP3   OH240059   6.563   6.848  12.945
 6215TIP3    H140060   6.594   6.768  12.903
 6215TIP3    H240061   6.637   6.876  12.999
 6216TIP3   OH240062   6.868   6.267  12.956
 6216TIP3    H140063   6.882   6.172  12.962
 6216TIP3    H240064   6.870   6.285  12.862
 6217TIP3   OH240065   6.234   6.075  12.678
 6217TIP3    H140066   6.241   6.161  12.637
 6217TIP3    H240067   6.183   6.022  12.617
 6218TIP3   OH240068   6.991   6.106  12.530
 6218TIP3    H140069   7.034   6.059  12.602
 6218TIP3    H240070   7.063   6.138  12.476
 6219TIP3   OH240071   5.873   6.324  12.765
 6219TIP3    H140072   5.941   6.284  12.819
 6219TIP3    H240073   5.890   6.292  12.676
 6220TIP3   OH240074   6.345   6.469  12.741
 6220TIP3    H140075   6.433   6.435  12.759
 6220TIP3    H240076   6.309   6.409  12.676
 6221TIP3   OH240077   6.093   5.999  13.107
 6221TIP3    H140078   6.075   6.054  13.031
 6221TIP3    H240079   6.020   6.015  13.167
 6222TIP3   OH240080   6.789   6.929  12.450
 6222TIP3    H140081   6.793   6.941  12.355
 6222TIP3    H240082   6.759   7.014  12.484
 6223TIP3   OH240083   6.352   6.756  13.096
 6223TIP3    H140084   6.300   6.828  13.132
 6223TIP3    H240085   6.421   6.800  13.045
 6224TIP3   OH240086   7.079   6.005  12.772
 6224TIP3    H140087   7.005   5.990  12.831
 6224TIP3    H240088   7.142   6.053  12.824
 6225TIP3   OH240089   6.070   6.162  12.885
 6225TIP3    H140090   6.128   6.219  12.935
 6225TIP3    H240091   6.125   6.127  12.815
 6226TIP3   OH240092   6.201   6.959  13.205
 6226TIP3    H140093   6.208   7.043  13.160
 6226TIP3    H240094   6.111   6.956  13.238
 6227TIP3   OH240095   5.767   6.935  12.270
 6227TIP3    H140096   5.760   6.967  12.180
 6227TIP3    H240097   5.783   7.013  12.323
 6228TIP3   OH240098   7.162   7.117  12.954
 6228TIP3    H140099   7.073   7.113  12.989
 6228TIP3    H240100   7.164   7.197  12.901
 6229TIP3   OH240101   7.124   5.911  13.072
 6229TIP3    H140102   7.035   5.929  13.044
 6229TIP3    H240103   7.175   5.985  13.040
 6230TIP3   OH240104   6.453   5.689  12.857
 6230TIP3    H140105   6.427   5.597  12.855
 6230TIP3    H240106   6.374   5.735  12.885
 6231TIP3   OH240107   6.995   7.256  12.560
 6231TIP3    H140108   7.026   7.166  12.545
 6231TIP3    H240109   7.074   7.310  12.557
 6232TIP3   OH240110   7.121   7.022  12.512
 6232TIP3    H140111   7.114   6.962  12.438
 6232TIP3    H240112   7.119   6.965  12.589
 6233TIP3   OH240113   7.256   6.908  13.385
 6233TIP3    H140114   7.289   6.846  13.320
 6233TIP3    H240115   7.249   6.991  13.338
 6234TIP3   OH240116   6.704   6.602  12.310
 6234TIP3    H140117   6.640   6.669  12.288
 6234TIP3    H240118   6.770   6.608  12.241
 6235TIP3   OH240119   6.745   6.455  11.978
 6235TIP3    H140120   6.803   6.484  12.048
 6235TIP3    H240121   6.800   6.399  11.923
 6236TIP3   OH240122   7.058   6.608  12.398
 6236TIP3    H140123   6.988   6.639  12.456
 6236TIP3    H240124   7.106   6.545  12.451
 6237TIP3   OH240125   6.998   6.458  13.283
 6237TIP3    H140126   7.018   6.550  13.298
 6237TIP3    H240127   6.918   6.459  13.230
 6238TIP3   OH240128   6.206   6.666  12.584
 6238TIP3    H140129   6.183   6.632  12.498
 6238TIP3    H240130   6.264   6.599  12.622
 6239TIP3   OH240131   6.348   7.004  12.858
 6239TIP3    H140132   6.355   7.023  12.764
 6239TIP3    H240133   6.428   6.956  12.878
 6240TIP3   OH240134   6.208   6.570  12.957
 6240TIP3    H140135   6.260   6.544  12.880
 6240TIP3    H240136   6.263   6.635  13.001
 6241TIP3   OH240137   6.919   7.098  13.081
 6241TIP3    H140138   6.926   7.103  13.176
 6241TIP3    H240139   6.864   7.022  13.065
 6242TIP3   OH240140   6.366   7.011  13.421
 6242TIP3    H140141   6.300   7.070  13.459
 6242TIP3    H240142   6.324   6.977  13.342
 6243TIP3   OH240143   6.945   6.550  12.156
 6243TIP3    H140144   6.984   6.577  12.239
 6243TIP3    H240145   7.001   6.589  12.089
 6244TIP3   OH240146   6.017   6.568  13.414
 6244TIP3    H140147   6.033   6.658  13.443
 6244TIP3    H240148   5.931   6.572  13.372
 6245TIP3   OH240149   6.726   7.189  12.519
 6245TIP3    H140150   6.816   7.218  12.535
 6245TIP3    H240151   6.693   7.250  12.453
 6246TIP3   OH240152   6.156   7.178  13.484
 6246TIP3    H140153   6.159   7.211  13.394
 6246TIP3    H240154   6.064   7.163  13.502
 6247TIP3   OH240155   6.127   6.581  12.327
 6247TIP3    H140156   6.078   6.653  12.288
 6247TIP3    H240157   6.081   6.502  12.298
 6248TIP3   OH240158   5.732   6.828  13.251
 6248TIP3    H140159   5.685   6.841  13.169
 6248TIP3    H240160   5.752   6.734  13.253
 6249TIP3   OH240161   5.748   7.068  12.966
 6249TIP3    H140162   5.840   7.055  12.945
 6249TIP3    H240163   5.743   7.157  13.001
 6250TIP3   OH240164   6.623   7.097  13.365
 6250TIP3    H140165   6.630   7.191  13.350
 6250TIP3    H240166   6.530   7.081  13.377
 6251TIP3   OH240167   7.165   6.368  13.547
 6251TIP3    H140168   7.181   6.365  13.453
 6251TIP3    H240169   7.234   6.313  13.585
 6252TIP3   OH240170   5.951   6.982  13.321
 6252TIP3    H140171   5.973   6.938  13.404
 6252TIP3    H240172   5.874   6.934  13.289
 6253TIP3   OH240173   6.205   5.797  12.944
 6253TIP3    H140174   6.132   5.789  12.883
 6253TIP3    H240175   6.182   5.872  12.999
 6254TIP3   OH240176   6.688   5.773  13.291
 6254TIP3    H140177   6.736   5.716  13.351
 6254TIP3    H240178   6.596   5.757  13.310
 6255TIP3   OH240179   7.002   6.166  13.351
 6255TIP3    H140180   6.940   6.156  13.424
 6255TIP3    H240181   7.000   6.259  13.330
 6256TIP3   OH240182   7.117   6.673  11.982
 6256TIP3    H140183   7.097   6.652  11.891
 6256TIP3    H240184   7.114   6.768  11.986
 6257TIP3   OH240185   6.635   6.000  12.013
 6257TIP3    H140186   6.575   6.000  12.088
 6257TIP3    H240187   6.598   5.937  11.952
 6258TIP3   OH240188   6.220   6.314  13.062
 6258TIP3    H140189   6.154   6.316  13.132
 6258TIP3    H240190   6.223   6.405  13.030
 6259TIP3   OH240191   6.215   6.316  12.551
 6259TIP3    H140192   6.120   6.306  12.544
 6259TIP3    H240193   6.247   6.303  12.462
 6260TIP3   OH240194   6.757   6.356  12.425
 6260TIP3    H140195   6.733   6.442  12.389
 6260TIP3    H240196   6.827   6.325  12.368
 6261TIP3   OH240197   6.679   6.368  13.546
 6261TIP3    H140198   6.637   6.291  13.586
 6261TIP3    H240199   6.768   6.367  13.580
 6262TIP3   OH240200   6.863   6.301  12.684
 6262TIP3    H140201   6.825   6.357  12.615
 6262TIP3    H240202   6.904   6.229  12.637
 6263TIP3   OH240203   6.007   6.322  13.238
 6263TIP3    H140204   6.005   6.370  13.322
 6263TIP3    H240205   5.963   6.239  13.257
 6264TIP3   OH240206   6.324   6.058  11.910
 6264TIP3    H140207   6.287   6.050  11.998
 6264TIP3    H240208   6.267   6.120  11.866
 6265TIP3   OH240209   5.645   6.008  12.640
 6265TIP3    H140210   5.713   6.026  12.704
 6265TIP3    H240211   5.690   6.008  12.556
 6266TIP3   OH240212   5.711   6.112  12.138
 6266TIP3    H140213   5.779   6.151  12.082
 6266TIP3    H240214   5.651   6.185  12.157
 6267TIP3   OH240215   6.764   6.443  13.134
 6267TIP3    H140216   6.805   6.385  13.069
 6267TIP3    H240217   6.708   6.384  13.185
 6268TIP3   OH240218   6.517   6.036  12.638
 6268TIP3    H140219   6.427   6.042  12.669
 6268TIP3    H240220   6.566   6.002  12.714
 6269TIP3   OH240221   5.954   6.228  12.523
 6269TIP3    H140222   5.880   6.257  12.469
 6269TIP3    H240223   5.975   6.141  12.489
 6270TIP3   OH240224   6.284   6.247  12.295
 6270TIP3    H140225   6.379   6.240  12.308
 6270TIP3    H240226   6.275   6.288  12.209
 6271TIP3   OH240227   6.873   5.988  12.971
 6271TIP3    H140228   6.831   6.003  13.056
 6271TIP3    H240229   6.803   5.951  12.916
 6272TIP3   OH240230   6.244   6.339  12.041
 6272TIP3    H140231   6.192   6.314  11.965
 6272TIP3    H240232   6.321   6.383  12.004
 6273TIP3   OH240233   6.017   6.816  13.550
 6273TIP3    H140234   6.085   6.816  13.617
 6273TIP3    H240235   5.935   6.828  13.599
 6274TIP3   OH240236   6.587   6.351  12.823
 6274TIP3    H140237   6.663   6.314  12.778
 6274TIP3    H240238   6.567   6.289  12.893
 6275TIP3   OH240239   6.067   5.967  12.477
 6275TIP3    H140240   6.015   5.890  12.499
 6275TIP3    H240241   6.103   5.948  12.391
 6276TIP3   OH240242   6.476   6.206  13.060
 6276TIP3    H140243   6.393   6.254  13.061
 6276TIP3    H240244   6.524   6.238  13.136
 6277TIP3   OH240245   6.512   6.800  12.244
 6277TIP3    H140246   6.443   6.757  12.193
 6277TIP3    H240247   6.471   6.819  12.328
 6278TIP3   OH240248   7.180   6.732  13.119
 6278TIP3    H140249   7.252   6.717  13.057
 6278TIP3    H240250   7.101   6.733  13.064
 6279TIP3   OH240251   6.888   6.055  12.099
 6279TIP3    H140252   6.798   6.055  12.067
 6279TIP3    H240253   6.902   6.144  12.131
 6280TIP3   OH240254   6.678   6.816  13.363
 6280TIP3    H140255   6.713   6.792  13.449
 6280TIP3    H240256   6.659   6.909  13.370
 6281TIP3   OH240257   6.959   6.284  12.245
 6281TIP3    H140258   7.045   6.265  12.283
 6281TIP3    H240259   6.969   6.371  12.205
 6282TIP3   OH240260   6.039   6.731  12.792
 6282TIP3    H140261   6.091   6.726  12.712
 6282TIP3    H240262   6.085   6.676  12.855
 6283TIP3   OH240263   6.731   6.947  12.165
 6283TIP3    H140264   6.706   7.038  12.180
 6283TIP3    H240265   6.654   6.896  12.191
 6284TIP3   OH240266   5.745   6.556  13.344
 6284TIP3    H140267   5.711   6.510  13.421
 6284TIP3    H240268   5.679   6.543  13.277
 6285TIP3   OH240269   6.465   6.545  13.573
 6285TIP3    H140270   6.402   6.512  13.510
 6285TIP3    H240271   6.548   6.504  13.548
 6286TIP3   OH240272   6.894   7.050  13.357
 6286TIP3    H140273   6.801   7.071  13.351
 6286TIP3    H240274   6.919   7.075  13.446
 6287TIP3   OH240275   6.964   6.697  12.936
 6287TIP3    H140276   6.875   6.685  12.905
 6287TIP3    H240277   7.013   6.623  12.899
 6288TIP3   OH240278   6.320   7.097  12.597
 6288TIP3    H140279   6.367   7.172  12.560
 6288TIP3    H240280   6.235   7.133  12.623
 6289TIP3   OH240281   5.876   6.552  12.047
 6289TIP3    H140282   5.919   6.626  12.090
 6289TIP3    H240283   5.784   6.561  12.071
 6290TIP3   OH240284   6.370   6.860  12.466
 6290TIP3    H140285   6.361   6.945  12.509
 6290TIP3    H240286   6.312   6.802  12.514
 6291TIP3   OH240287   6.461   7.226  13.105
 6291TIP3    H140288   6.505   7.298  13.059
 6291TIP3    H240289   6.532   7.164  13.124
 6292TIP3   OH240290   6.786   6.857  13.106
 6292TIP3    H140291   6.760   6.828  13.194
 6292TIP3    H240292   6.854   6.796  13.080
 6293TIP3   OH240293   7.060   6.944  12.037
 6293TIP3    H140294   7.076   6.922  12.128
 6293TIP3    H240295   6.965   6.948  12.029
 6294TIP3   OH240296   5.878   6.067  13.275
 6294TIP3    H140297   5.790   6.098  13.254
 6294TIP3    H240298   5.865   5.983  13.317
 6295TIP3   OH240299   7.138   6.853  12.288
 6295TIP3    H140300   7.124   6.765  12.321
 6295TIP3    H240301   7.234   6.863  12.284
 6296TIP3   OH240302   5.916   7.247  13.132
 6296TIP3    H140303   5.916   7.178  13.199
 6296TIP3    H240304   5.850   7.310  13.162
 6297TIP3   OH240305   6.465   7.054  11.882
 6297TIP3    H140306   6.469   6.973  11.831
 6297TIP3    H240307   6.429   7.027  11.967
 6298TIP3   OH240308   6.339   7.035  12.130
 6298TIP3    H140309   6.381   6.980  12.196
 6298TIP3    H240310   6.352   7.125  12.162
 6299TIP3   OH240311   5.975   6.769  12.193
 6299TIP3    H140312   5.902   6.814  12.234
 6299TIP3    H240313   6.019   6.837  12.141
 6300TIP3   OH240314   6.782   6.026  13.228
 6300TIP3    H140315   6.863   6.042  13.276
 6300TIP3    H240316   6.753   5.939  13.257
 6301TIP3   OH240317   6.844   5.951  12.351
 6301TIP3    H140318   6.860   5.987  12.264
 6301TIP3    H240319   6.889   6.011  12.411
 6302TIP3   OH240320   6.642   7.205  12.204
 6302TIP3    H140321   6.554   7.240  12.214
 6302TIP3    H240322   6.666   7.226  12.113
 6303TIP3   OH240323   6.541   6.186  12.403
 6303TIP3    H140324   6.615   6.247  12.408
 6303TIP3    H240325   6.536   6.148  12.491
 6304TIP3   OH240326   6.632   6.256  13.286
 6304TIP3    H140327   6.653   6.288  13.374
 6304TIP3    H240328   6.682   6.175  13.276
 6305TIP3   OH240329   6.616   5.846  12.456
 6305TIP3    H140330   6.589   5.916  12.515
 6305TIP3    H240331   6.699   5.877  12.418
 6306TIP3   OH240332   6.379  -0.006  12.211
 6306TIP3    H140333   6.354   0.053  12.140
 6306TIP3    H240334   6.352   0.039  12.291
 6307TIP3   OH240335   6.213   6.004  12.167
 6307TIP3    H140336   6.210   6.090  12.209
 6307TIP3    H240337   6.300   5.971  12.188
 6308TIP3   OH240338   7.262   6.050  13.376
 6308TIP3    H140339   7.177   6.087  13.355
 6308TIP3    H240340   7.265   5.967  13.329
 6309TIP3   OH240341   7.075   6.468  12.833
 6309TIP3    H140342   7.018   6.419  12.774
 6309TIP3    H240343   7.127   6.401  12.877
 6310TIP3   OH240344   6.070   6.981  12.034
 6310TIP3    H140345   6.142   7.030  12.073
 6310TIP3    H240346   6.111   6.925  11.968
 6311TIP3   OH240347   5.854   6.283  11.979
 6311TIP3    H140348   5.876   6.371  12.011
 6311TIP3    H240349   5.831   6.296  11.887
 6312TIP3   OH240350   5.955   5.773  12.821
 6312TIP3    H140351   5.948   5.767  12.726
 6312TIP3    H240352   5.919   5.690  12.853
 6313TIP3   OH240353   5.788   7.198  12.383
 6313TIP3    H140354   5.694   7.185  12.371
 6313TIP3    H240355   5.813   7.259  12.314
 6314TIP3   OH240356   6.231   7.211  13.748
 6314TIP3    H140357   6.325   7.192  13.755
 6314TIP3    H240358   6.210   7.193  13.657
 6315TIP3   OH240359   6.677   7.235  11.936
 6315TIP3    H140360   6.614   7.173  11.899
 6315TIP3    H240361   6.727   7.267  11.861
 6316TIP3   OH240362   6.932   7.102  13.624
 6316TIP3    H140363   6.876   7.043  13.675
 6316TIP3    H240364   7.017   7.098  13.668
 6317TIP3   OH240365   7.119   7.192  11.917
 6317TIP3    H140366   7.124   7.108  11.964
 6317TIP3    H240367   7.197   7.194  11.863
 6318TIP3   OH240368   5.765   6.814  13.677
 6318TIP3    H140369   5.772   6.719  13.669
 6318TIP3    H240370   5.695   6.838  13.616
 6319TIP3   OH240371   6.206   6.798  11.886
 6319TIP3    H140372   6.236   6.750  11.963
 6319TIP3    H240373   6.284   6.808  11.832
 6320TIP3   OH240374   6.432   6.826  13.621
 6320TIP3    H140375   6.422   6.874  13.539
 6320TIP3    H240376   6.460   6.738  13.595
 6321TIP3   OH240377   6.792   6.931  11.891
 6321TIP3    H140378   6.754   6.933  11.979
 6321TIP3    H240379   6.776   6.842  11.860
 6322TIP3   OH240380   7.002   6.787  13.390
 6322TIP3    H140381   7.092   6.817  13.379
 6322TIP3    H240382   6.948   6.862  13.366
 6323TIP3   OH240383   5.849   6.549  13.654
 6323TIP3    H140384   5.925   6.541  13.596
 6323TIP3    H240385   5.886   6.545  13.742
 6324TIP3   OH240386   6.314   6.660  12.108
 6324TIP3    H140387   6.263   6.612  12.173
 6324TIP3    H240388   6.363   6.592  12.061
 6325TIP3   OH240389   6.272   6.436  13.392
 6325TIP3    H140390   6.193   6.490  13.387
 6325TIP3    H240391   6.331   6.472  13.326
 6326TIP3   OH240392   6.464   6.481  11.954
 6326TIP3    H140393   6.460   6.508  11.863
 6326TIP3    H240394   6.557   6.466  11.971
 6327TIP3   OH240395   6.776   6.673  13.694
 6327TIP3    H140396   6.861   6.651  13.656
 6327TIP3    H240397   6.749   6.594  13.740
 6328TIP3   OH240398   6.316   6.173  13.458
 6328TIP3    H140399   6.324   6.117  13.381
 6328TIP3    H240400   6.307   6.262  13.422
 6329TIP3   OH240401   6.342   6.016  13.225
 6329TIP3    H140402   6.397   6.062  13.162
 6329TIP3    H240403   6.256   6.012  13.183
 6330TIP3   OH240404   6.463   6.549  13.236
 6330TIP3    H140405   6.558   6.560  13.233
 6330TIP3    H240406   6.428   6.624  13.187
 6331TIP3   OH240407   6.922   6.323  13.693
 6331TIP3    H140408   6.925   6.229  13.674
 6331TIP3    H240409   7.003   6.358  13.656
 6332TIP3   OH240410   7.033   6.613  13.601
 6332TIP3    H140411   7.026   6.672  13.525
 6332TIP3    H240412   7.085   6.540  13.569
 6333TIP3   OH240413   6.151   6.224  13.683
 6333TIP3    H140414   6.070   6.178  13.664
 6333TIP3    H240415   6.198   6.225  13.599
 6334TIP3   OH240416   6.403   5.752  13.291
 6334TIP3    H140417   6.386   5.843  13.268
 6334TIP3    H240418   6.338   5.702  13.243
 6335TIP3   OH240419   6.539   6.139  13.620
 6335TIP3    H140420   6.485   6.119  13.697
 6335TIP3    H240421   6.476   6.149  13.549
 6336TIP3   OH240422   6.813   6.097  13.542
 6336TIP3    H140423   6.721   6.089  13.568
 6336TIP3    H240424   6.860   6.038  13.601
 6337TIP3   OH240425   6.967   5.971  13.730
 6337TIP3    H140426   6.969   5.876  13.720
 6337TIP3    H240427   6.943   5.985  13.822
 6338TIP3   OH240428   5.935   6.042  13.646
 6338TIP3    H140429   5.939   5.968  13.586
 6338TIP3    H240430   5.948   6.003  13.733
 6339TIP3   OH240431   6.391   5.669  13.551
 6339TIP3    H140432   6.451   5.594  13.546
 6339TIP3    H240433   6.388   5.703  13.462
 6340TIP3   OH240434   6.461   5.826  13.766
 6340TIP3    H140435   6.447   5.774  13.687
 6340TIP3    H240436   6.410   5.905  13.751
 6341TIP3   OH240437   5.794   7.006  12.001
 6341TIP3    H140438   5.889   7.007  12.012
 6341TIP3    H240439   5.778   6.941  11.933
 6342TIP3   OH240440   7.257   7.136  13.227
 6342TIP3    H140441   7.281   7.228  13.221
 6342TIP3    H240442   7.224   7.114  13.139
 6343TIP3   OH240443   7.185   6.433  12.568
 6343TIP3    H140444   7.228   6.349  12.586
 6343TIP3    H240445   7.200   6.485  12.647
 6344TIP3   OH240446   5.716   6.605  12.960
 6344TIP3    H140447   5.731   6.606  12.866
 6344TIP3    H240448   5.803   6.594  12.999
 6345TIP3   OH240449   7.235   6.039  11.901
 6345TIP3    H140450   7.265   5.949  11.919
 6345TIP3    H240451   7.144   6.029  11.874
 6346TIP3   OH240452   7.204   6.197  12.363
 6346TIP3    H140453   7.260   6.173  12.437
 6346TIP3    H240454   7.256   6.176  12.285
 6347TIP3   OH240455   7.254   6.122  12.952
 6347TIP3    H140456   7.335   6.089  12.913
 6347TIP3    H240457   7.272   6.214  12.970
 6348TIP3   OH240458   7.260   6.373  13.258
 6348TIP3    H140459   7.169   6.396  13.240
 6348TIP3    H240460   7.300   6.363  13.171
 6349TIP3   OH240461   5.702   6.159  13.548
 6349TIP3    H140462   5.790   6.133  13.577
 6349TIP3    H240463   5.651   6.078  13.551
 6350TIP3   OH240464   7.239   5.875  12.487
 6350TIP3    H140465   7.288   5.794  12.497
 6350TIP3    H240466   7.164   5.852  12.432
 6351TIP3   OH240467   5.821   6.014  12.865
 6351TIP3    H140468   5.862   5.928  12.855
 6351TIP3    H240469   5.894   6.075  12.871
 6352TIP3   OH240470   5.640   6.319  12.924
 6352TIP3    H140471   5.708   6.297  12.861
 6352TIP3    H240472   5.658   6.409  12.951
 6353TIP3   OH240473   5.691   5.944  12.353
 6353TIP3    H140474   5.595   5.934  12.354
 6353TIP3    H240475   5.707   6.007  12.282
 6354TIP3   OH240476   5.697   5.793  13.191
 6354TIP3    H140477   5.618   5.774  13.243
 6354TIP3    H240478   5.667   5.855  13.125
 6355TIP3   OH240479   5.899   7.152  13.596
 6355TIP3    H140480   5.807   7.142  13.575
 6355TIP3    H240481   5.904   7.140  13.691
 6356TIP3   OH240482   6.208   7.255  13.212
 6356TIP3    H140483   6.139   7.278  13.150
 6356TIP3    H240484   6.286   7.246  13.159
 6357TIP3   OH240485   6.107   7.213  12.732
 6357TIP3    H140486   6.081   7.137  12.786
 6357TIP3    H240487   6.143   7.275  12.795
 6358TIP3   OH240488   6.672   5.873  12.813
 6358TIP3    H140489   6.605   5.805  12.824
 6358TIP3    H240490   6.744   5.829  12.768
 6359TIP3   OH240491   7.171   5.721  12.775
 6359TIP3    H140492   7.220   5.802  12.757
 6359TIP3    H240493   7.079   5.748  12.770
 6360TIP3   OH240494   5.923   5.738  12.549
 6360TIP3    H140495   5.831   5.725  12.524
 6360TIP3    H240496   5.965   5.653  12.533
 6361TIP3   OH240497   5.846   5.753  12.177
 6361TIP3    H140498   5.894   5.805  12.112
 6361TIP3    H240499   5.802   5.817  12.232
 6362TIP3   OH240500   6.408   5.700  12.573
 6362TIP3    H140501   6.476   5.749  12.526
 6362TIP3    H240502   6.433   5.707  12.665
 6363TIP3   OH240503   6.890   5.737  12.711
 6363TIP3    H140504   6.909   5.725  12.618
 6363TIP3    H240505   6.869   5.649  12.743
 6364TIP3   OH240506   7.049   5.763  12.329
 6364TIP3    H140507   6.970   5.815  12.316
 6364TIP3    H240508   7.022   5.673  12.313
 6365TIP3   OH240509   6.018   5.894  11.992
 6365TIP3    H140510   6.069   5.841  11.931
 6365TIP3    H240511   6.082   5.932  12.052
 6366TIP3   OH240512   6.477   5.975  12.241
 6366TIP3    H140513   6.512   5.902  12.292
 6366TIP3    H240514   6.501   6.053  12.291
 6367TIP3   OH240515   5.934   5.791  13.509
 6367TIP3    H140516   5.879   5.719  13.537
 6367TIP3    H240517   6.018   5.777  13.553
 6368TIP3   OH240518   6.146   5.732  13.680
 6368TIP3    H140519   6.229   5.708  13.638
 6368TIP3    H240520   6.113   5.650  13.716
 6369TIP3   OH240521   6.981   5.696  13.701
 6369TIP3    H140522   6.983   5.638  13.777
 6369TIP3    H240523   7.070   5.696  13.667
 6370TIP3   OH240524   7.259   7.247  13.585
 6370TIP3    H140525   7.229   7.210  13.502
 6370TIP3    H240526   7.270   7.340  13.567
 6371TIP3   OH240527   1.186   1.029  14.428
 6371TIP3    H140528   1.170   1.123  14.422
 6371TIP3    H240529   1.124   0.990  14.366
 6372TIP3   OH240530   1.074   0.945  14.822
 6372TIP3    H140531   1.100   0.898  14.901
 6372TIP3    H240532   1.033   0.879  14.767
 6373TIP3   OH240533   0.318   0.892  14.955
 6373TIP3    H140534   0.304   0.798  14.971
 6373TIP3    H240535   0.402   0.897  14.911
 6374TIP3   OH240536   1.466   1.244  14.647
 6374TIP3    H140537   1.420   1.172  14.691
 6374TIP3    H240538   1.479   1.309  14.716
 6375TIP3   OH240539   0.409   1.357  14.760
 6375TIP3    H140540   0.387   1.267  14.739
 6375TIP3    H240541   0.504   1.357  14.770
 6376TIP3   OH240542   0.124   0.732  14.298
 6376TIP3    H140543   0.116   0.820  14.262
 6376TIP3    H240544   0.058   0.681  14.251
 6377TIP3   OH240545   0.115   0.920  14.580
 6377TIP3    H140546   0.167   0.843  14.602
 6377TIP3    H240547   0.175   0.978  14.534
 6378TIP3   OH240548   1.188   1.730  14.670
 6378TIP3    H140549   1.229   1.683  14.597
 6378TIP3    H240550   1.143   1.661  14.719
 6379TIP3   OH240551   0.907   1.191  14.833
 6379TIP3    H140552   0.948   1.117  14.788
 6379TIP3    H240553   0.976   1.228  14.888
 6380TIP3   OH240554   1.828   0.333  14.929
 6380TIP3    H140555   1.840   0.400  14.997
 6380TIP3    H240556   1.882   0.362  14.856
 6381TIP3   OH240557   1.232   0.611  14.844
 6381TIP3    H140558   1.257   0.520  14.857
 6381TIP3    H240559   1.215   0.619  14.750
 6382TIP3   OH240560   0.567   0.423  14.566
 6382TIP3    H140561   0.581   0.508  14.523
 6382TIP3    H240562   0.519   0.371  14.502
 6383TIP3   OH240563   1.361   0.455  14.420
 6383TIP3    H140564   1.410   0.428  14.498
 6383TIP3    H240565   1.427   0.495  14.363
 6384TIP3   OH240566   0.243   0.687  14.663
 6384TIP3    H140567   0.305   0.636  14.715
 6384TIP3    H240568   0.253   0.655  14.574
 6385TIP3   OH240569   0.702   0.820  14.629
 6385TIP3    H140570   0.790   0.789  14.649
 6385TIP3    H240571   0.669   0.759  14.563
 6386TIP3   OH240572   1.850   0.503  15.152
 6386TIP3    H140573   1.770   0.552  15.134
 6386TIP3    H240574   1.863   0.511  15.247
 6387TIP3   OH240575   0.431   0.330  14.998
 6387TIP3    H140576   0.408   0.385  14.923
 6387TIP3    H240577   0.357   0.339  15.058
 6388TIP3   OH240578   1.116   1.279  14.342
 6388TIP3    H140579   1.119   1.284  14.247
 6388TIP3    H240580   1.088   1.367  14.370
 6389TIP3   OH240581   0.704   1.098  14.992
 6389TIP3    H140582   0.650   1.171  15.024
 6389TIP3    H240583   0.771   1.139  14.938
 6390TIP3   OH240584   1.467   0.399  14.664
 6390TIP3    H140585   1.408   0.377  14.736
 6390TIP3    H240586   1.532   0.457  14.703
 6391TIP3   OH240587   0.418   0.504  14.780
 6391TIP3    H140588   0.479   0.554  14.835
 6391TIP3    H240589   0.471   0.470  14.709
 6392TIP3   OH240590   0.551   1.309  15.094
 6392TIP3    H140591   0.560   1.401  15.069
 6392TIP3    H240592   0.462   1.302  15.129
 6393TIP3   OH240593   0.105   1.268  14.166
 6393TIP3    H140594   0.104   1.283  14.071
 6393TIP3    H240595   0.141   1.349  14.202
 6394TIP3   OH240596   1.499   1.453  14.849
 6394TIP3    H140597   1.405   1.453  14.866
 6394TIP3    H240598   1.517   1.542  14.819
 6395TIP3   OH240599   1.574   0.273  15.031
 6395TIP3    H140600   1.499   0.289  14.973
 6395TIP3    H240601   1.650   0.291  14.977
 6396TIP3   OH240602   0.771   0.050  14.725
 6396TIP3    H140603   0.794  -0.022  14.784
 6396TIP3    H240604   0.690   0.086  14.761
 6397TIP3   OH240605   1.322   1.618  14.454
 6397TIP3    H140606   1.359   1.532  14.438
 6397TIP3    H240607   1.398   1.676  14.463
 6398TIP3   OH240608   1.436   1.379  14.404
 6398TIP3    H140609   1.455   1.323  14.328
 6398TIP3    H240610   1.448   1.321  14.479
 6399TIP3   OH240611   1.609   1.227  15.204
 6399TIP3    H140612   1.593   1.171  15.127
 6399TIP3    H240613   1.619   1.315  15.167
 6400TIP3   OH240614   1.045   0.942  14.203
 6400TIP3    H140615   0.980   1.007  14.178
 6400TIP3    H240616   1.110   0.945  14.133
 6401TIP3   OH240617   1.085   0.805  13.858
 6401TIP3    H140618   1.142   0.836  13.929
 6401TIP3    H240619   1.138   0.742  13.810
 6402TIP3   OH240620   1.774   0.902  15.030
 6402TIP3    H140621   1.698   0.958  15.018
 6402TIP3    H240622   1.831   0.921  14.955
 6403TIP3   OH240623   1.408   0.978  14.273
 6403TIP3    H140624   1.339   0.996  14.337
 6403TIP3    H240625   1.472   0.925  14.322
 6404TIP3   OH240626   1.363   0.772  15.226
 6404TIP3    H140627   1.354   0.842  15.291
 6404TIP3    H240628   1.301   0.795  15.157
 6405TIP3   OH240629   0.548   1.012  14.478
 6405TIP3    H140630   0.522   0.977  14.392
 6405TIP3    H240631   0.609   0.946  14.512
 6406TIP3   OH240632   0.693   1.371  14.735
 6406TIP3    H140633   0.690   1.381  14.640
 6406TIP3    H240634   0.768   1.314  14.751
 6407TIP3   OH240635   0.567   0.908  14.849
 6407TIP3    H140636   0.617   0.884  14.771
 6407TIP3    H240637   0.621   0.973  14.893
 6408TIP3   OH240638   1.239   1.465  14.925
 6408TIP3    H140639   1.217   1.534  14.987
 6408TIP3    H240640   1.192   1.388  14.958
 6409TIP3   OH240641   0.700   1.354  15.322
 6409TIP3    H140642   0.637   1.413  15.362
 6409TIP3    H240643   0.658   1.325  15.241
 6410TIP3   OH240644   1.277   0.899  14.044
 6410TIP3    H140645   1.326   0.936  14.117
 6410TIP3    H240646   1.327   0.922  13.966
 6411TIP3   OH240647   0.378   0.960  15.216
 6411TIP3    H140648   0.347   1.045  15.249
 6411TIP3    H240649   0.344   0.956  15.127
 6412TIP3   OH240650   1.056   1.548  14.398
 6412TIP3    H140651   1.146   1.575  14.417
 6412TIP3    H240652   1.023   1.616  14.339
 6413TIP3   OH240653   0.488   1.533  15.389
 6413TIP3    H140654   0.500   1.554  15.296
 6413TIP3    H240655   0.394   1.520  15.399
 6414TIP3   OH240656   1.666   0.041  14.037
 6414TIP3    H140657   1.578   0.069  14.065
 6414TIP3    H240658   1.705   0.120  13.999
 6415TIP3   OH240659   0.460   0.920  14.229
 6415TIP3    H140660   0.415   0.990  14.182
 6415TIP3    H240661   0.427   0.839  14.189
 6416TIP3   OH240662   1.774   1.491  13.890
 6416TIP3    H140663   1.797   1.583  13.891
 6416TIP3    H240664   1.858   1.445  13.887
 6417TIP3   OH240665   0.170   1.129  15.115
 6417TIP3    H140666   0.134   1.114  15.027
 6417TIP3    H240667   0.123   1.068  15.171
 6418TIP3   OH240668   0.132   1.471  14.730
 6418TIP3    H140669   0.217   1.431  14.749
 6418TIP3    H240670   0.075   1.437  14.799
 6419TIP3   OH240671   1.859   1.536  15.411
 6419TIP3    H140672   1.850   1.441  15.397
 6419TIP3    H240673   1.775   1.562  15.449
 6420TIP3   OH240674   0.947   1.460  15.261
 6420TIP3    H140675   0.946   1.546  15.304
 6420TIP3    H240676   0.860   1.424  15.280
 6421TIP3   OH240677   1.030   1.811  14.245
 6421TIP3    H140678   1.007   1.811  14.152
 6421TIP3    H240679   0.996   1.894  14.278
 6422TIP3   OH240680   0.370   1.703  14.425
 6422TIP3    H140681   0.384   1.669  14.513
 6422TIP3    H240682   0.312   1.640  14.383
 6423TIP3   OH240683   1.317   1.774  13.927
 6423TIP3    H140684   1.364   1.701  13.886
 6423TIP3    H240685   1.328   1.760  14.021
 6424TIP3   OH240686   1.295   1.754  14.205
 6424TIP3    H140687   1.202   1.770  14.220
 6424TIP3    H240688   1.320   1.691  14.272
 6425TIP3   OH240689   1.574   0.659  15.379
 6425TIP3    H140690   1.493   0.688  15.338
 6425TIP3    H240691   1.579   0.566  15.358
 6426TIP3   OH240692   0.304   1.339  15.218
 6426TIP3    H140693   0.267   1.349  15.305
 6426TIP3    H240694   0.250   1.273  15.175
 6427TIP3   OH240695   0.516   0.115  14.834
 6427TIP3    H140696   0.434   0.121  14.785
 6427TIP3    H240697   0.509   0.183  14.901
 6428TIP3   OH240698   1.004   0.122  15.169
 6428TIP3    H140699   1.038   0.051  15.224
 6428TIP3    H240700   0.913   0.130  15.195
 6429TIP3   OH240701   1.318   0.496  15.242
 6429TIP3    H140702   1.249   0.484  15.307
 6429TIP3    H240703   1.323   0.591  15.230
 6430TIP3   OH240704   1.425   0.949  13.824
 6430TIP3    H140705   1.400   0.961  13.732
 6430TIP3    H240706   1.518   0.970  13.827
 6431TIP3   OH240707   0.975   0.371  13.923
 6431TIP3    H140708   0.917   0.347  13.996
 6431TIP3    H240709   0.952   0.309  13.854
 6432TIP3   OH240710   0.561   0.655  14.964
 6432TIP3    H140711   0.489   0.657  15.028
 6432TIP3    H240712   0.565   0.745  14.931
 6433TIP3   OH240713   0.577   0.667  14.439
 6433TIP3    H140714   0.482   0.658  14.435
 6433TIP3    H240715   0.607   0.653  14.349
 6434TIP3   OH240716   1.105   0.697  14.315
 6434TIP3    H140717   1.078   0.782  14.281
 6434TIP3    H240718   1.177   0.670  14.257
 6435TIP3   OH240719   1.039   0.716  15.440
 6435TIP3    H140720   0.983   0.646  15.474
 6435TIP3    H240721   1.126   0.696  15.474
 6436TIP3   OH240722   1.205   0.633  14.569
 6436TIP3    H140723   1.161   0.682  14.499
 6436TIP3    H240724   1.250   0.562  14.524
 6437TIP3   OH240725   0.318   0.646  15.110
 6437TIP3    H140726   0.248   0.696  15.151
 6437TIP3    H240727   0.298   0.554  15.131
 6438TIP3   OH240728   0.630   0.360  13.774
 6438TIP3    H140729   0.613   0.365  13.869
 6438TIP3    H240730   0.591   0.440  13.739
 6439TIP3   OH240731   0.058   0.401  14.450
 6439TIP3    H140732   0.094   0.399  14.538
 6439TIP3    H240733   0.109   0.336  14.401
 6440TIP3   OH240734   0.057   0.491  14.046
 6440TIP3    H140735   0.119   0.549  14.003
 6440TIP3    H240736   0.011   0.448  13.973
 6441TIP3   OH240737   1.150   0.782  15.038
 6441TIP3    H140738   1.188   0.727  14.969
 6441TIP3    H240739   1.089   0.725  15.084
 6442TIP3   OH240740   0.848   0.430  14.533
 6442TIP3    H140741   0.757   0.416  14.557
 6442TIP3    H240742   0.898   0.370  14.588
 6443TIP3   OH240743   0.318   0.580  14.422
 6443TIP3    H140744   0.252   0.619  14.365
 6443TIP3    H240745   0.331   0.492  14.387
 6444TIP3   OH240746   0.630   0.594  14.180
 6444TIP3    H140747   0.725   0.585  14.194
 6444TIP3    H240748   0.622   0.634  14.094
 6445TIP3   OH240749   1.285   0.332  14.860
 6445TIP3    H140750   1.223   0.333  14.933
 6445TIP3    H240751   1.253   0.262  14.802
 6446TIP3   OH240752   0.591   0.684  13.927
 6446TIP3    H140753   0.539   0.658  13.851
 6446TIP3    H240754   0.667   0.729  13.891
 6447TIP3   OH240755   1.595   1.901  15.503
 6447TIP3    H140756   1.618   1.935  15.416
 6447TIP3    H240757   1.668   1.925  15.559
 6448TIP3   OH240758   0.355   1.081  15.479
 6448TIP3    H140759   0.411   1.123  15.545
 6448TIP3    H240760   0.270   1.124  15.488
 6449TIP3   OH240761   0.941   0.708  14.722
 6449TIP3    H140762   1.000   0.657  14.666
 6449TIP3    H240763   0.910   0.646  14.787
 6450TIP3   OH240764   0.403   0.311  14.363
 6450TIP3    H140765   0.369   0.225  14.388
 6450TIP3    H240766   0.443   0.298  14.277
 6451TIP3   OH240767   0.823   0.565  14.939
 6451TIP3    H140768   0.738   0.606  14.954
 6451TIP3    H240769   0.875   0.587  15.017
 6452TIP3   OH240770   0.853   1.136  14.132
 6452TIP3    H140771   0.782   1.098  14.080
 6452TIP3    H240772   0.812   1.158  14.216
 6453TIP3   OH240773   1.568   1.080  14.974
 6453TIP3    H140774   1.626   1.134  14.921
 6453TIP3    H240775   1.494   1.059  14.916
 6454TIP3   OH240776   1.231   0.410  14.003
 6454TIP3    H140777   1.140   0.411  13.973
 6454TIP3    H240778   1.247   0.498  14.036
 6455TIP3   OH240779   1.017   1.177  15.264
 6455TIP3    H140780   1.060   1.148  15.345
 6455TIP3    H240781   0.998   1.269  15.279
 6456TIP3   OH240782   1.313   0.639  14.139
 6456TIP3    H140783   1.404   0.623  14.163
 6456TIP3    H240784   1.314   0.724  14.096
 6457TIP3   OH240785   0.397   1.085  14.695
 6457TIP3    H140786   0.438   1.074  14.610
 6457TIP3    H240787   0.447   1.029  14.754
 6458TIP3   OH240788   1.069   1.285  14.060
 6458TIP3    H140789   1.039   1.375  14.065
 6458TIP3    H240790   0.992   1.232  14.081
 6459TIP3   OH240791   0.068   0.939  15.287
 6459TIP3    H140792   0.118   0.893  15.355
 6459TIP3    H240793   0.027   0.869  15.235
 6460TIP3   OH240794   0.833   0.904  15.439
 6460TIP3    H140795   0.818   0.914  15.344
 6460TIP3    H240796   0.914   0.854  15.445
 6461TIP3   OH240797   1.228   1.448  15.257
 6461TIP3    H140798   1.135   1.451  15.235
 6461TIP3    H240799   1.231   1.468  15.350
 6462TIP3   OH240800   1.767   0.673  14.084
 6462TIP3    H140801   1.725   0.652  14.000
 6462TIP3    H240802   1.795   0.764  14.074
 6463TIP3   OH240803   1.836   1.263  15.359
 6463TIP3    H140804   1.744   1.256  15.334
 6463TIP3    H240805   1.884   1.237  15.280
 6464TIP3   OH240806   1.631   1.508  14.127
 6464TIP3    H140807   1.585   1.427  14.146
 6464TIP3    H240808   1.674   1.493  14.044
 6465TIP3   OH240809   1.360   1.016  14.793
 6465TIP3    H140810   1.266   1.007  14.783
 6465TIP3    H240811   1.396   0.941  14.745
 6466TIP3   OH240812   0.638   1.444  14.470
 6466TIP3    H140813   0.670   1.527  14.437
 6466TIP3    H240814   0.549   1.437  14.436
 6467TIP3   OH240815   0.178   0.934  13.903
 6467TIP3    H140816   0.235   0.990  13.956
 6467TIP3    H240817   0.095   0.982  13.898
 6468TIP3   OH240818   0.719   1.201  14.359
 6468TIP3    H140819   0.708   1.287  14.400
 6468TIP3    H240820   0.659   1.144  14.407
 6469TIP3   OH240821   0.832   1.615  15.039
 6469TIP3    H140822   0.888   1.689  15.014
 6469TIP3    H240823   0.891   1.555  15.085
 6470TIP3   OH240824   0.640   1.703  14.362
 6470TIP3    H140825   0.546   1.719  14.373
 6470TIP3    H240826   0.681   1.784  14.393
 6471TIP3   OH240827   1.121   1.225  15.011
 6471TIP3    H140828   1.088   1.199  15.097
 6471TIP3    H240829   1.181   1.154  14.987
 6472TIP3   OH240830   1.419   1.330  13.927
 6472TIP3    H140831   1.428   1.290  14.014
 6472TIP3    H240832   1.333   1.302  13.896
 6473TIP3   OH240833   1.439   1.650  15.228
 6473TIP3    H140834   1.357   1.604  15.210
 6473TIP3    H240835   1.438   1.724  15.168
 6474TIP3   OH240836   1.834   1.756  13.926
 6474TIP3    H140837   1.894   1.822  13.892
 6474TIP3    H240838   1.756   1.806  13.952
 6475TIP3   OH240839   0.226   0.387  15.189
 6475TIP3    H140840   0.131   0.393  15.193
 6475TIP3    H240841   0.248   0.312  15.244
 6476TIP3   OH240842   1.510   1.218  14.175
 6476TIP3    H140843   1.466   1.138  14.202
 6476TIP3    H240844   1.603   1.195  14.173
 6477TIP3   OH240845   0.243   1.594  15.026
 6477TIP3    H140846   0.254   1.508  15.066
 6477TIP3    H240847   0.246   1.655  15.100
 6478TIP3   OH240848   0.793   1.419  13.769
 6478TIP3    H140849   0.794   1.335  13.722
 6478TIP3    H240850   0.749   1.399  13.851
 6479TIP3   OH240851   0.672   1.395  14.017
 6479TIP3    H140852   0.727   1.348  14.079
 6479TIP3    H240853   0.681   1.487  14.043
 6480TIP3   OH240854   0.316   1.102  14.084
 6480TIP3    H140855   0.241   1.148  14.122
 6480TIP3    H240856   0.360   1.169  14.031
 6481TIP3   OH240857   1.125   0.360  15.087
 6481TIP3    H140858   1.198   0.378  15.145
 6481TIP3    H240859   1.088   0.277  15.119
 6482TIP3   OH240860   1.222   0.285  14.249
 6482TIP3    H140861   1.222   0.324  14.161
 6482TIP3    H240862   1.264   0.351  14.304
 6483TIP3   OH240863   0.969   1.536  14.079
 6483TIP3    H140864   0.881   1.570  14.094
 6483TIP3    H240865   1.015   1.608  14.036
 6484TIP3   OH240866   0.883   0.535  14.281
 6484TIP3    H140867   0.960   0.591  14.285
 6484TIP3    H240868   0.872   0.503  14.371
 6485TIP3   OH240869   0.988   0.598  15.163
 6485TIP3    H140870   1.002   0.610  15.257
 6485TIP3    H240871   1.028   0.514  15.143
 6486TIP3   OH240872   0.978   0.200  14.347
 6486TIP3    H140873   0.976   0.254  14.425
 6486TIP3    H240874   1.065   0.215  14.309
 6487TIP3   OH240875   0.722   1.652  14.104
 6487TIP3    H140876   0.723   1.735  14.057
 6487TIP3    H240877   0.690   1.674  14.191
 6488TIP3   OH240878   0.565   0.350  14.052
 6488TIP3    H140879   0.557   0.438  14.089
 6488TIP3    H240880   0.651   0.320  14.080
 6489TIP3   OH240881   1.569   0.398  15.280
 6489TIP3    H140882   1.476   0.418  15.276
 6489TIP3    H240883   1.589   0.355  15.197
 6490TIP3   OH240884   1.441   0.773  14.667
 6490TIP3    H140885   1.359   0.729  14.646
 6490TIP3    H240886   1.490   0.710  14.721
 6491TIP3   OH240887   0.414   1.316  13.934
 6491TIP3    H140888   0.486   1.369  13.967
 6491TIP3    H240889   0.452   1.267  13.861
 6492TIP3   OH240890   0.185   0.657  13.872
 6492TIP3    H140891   0.190   0.752  13.885
 6492TIP3    H240892   0.158   0.647  13.781
 6493TIP3   OH240893   1.579   1.727  14.841
 6493TIP3    H140894   1.562   1.800  14.780
 6493TIP3    H240895   1.674   1.720  14.843
 6494TIP3   OH240896   0.265   0.131  14.709
 6494TIP3    H140897   0.276   0.114  14.616
 6494TIP3    H240898   0.230   0.049  14.745
 6495TIP3   OH240899   0.181   1.525  14.303
 6495TIP3    H140900   0.100   1.519  14.354
 6495TIP3    H240901   0.161   1.588  14.234
 6496TIP3   OH240902   0.185   1.807  15.530
 6496TIP3    H140903   0.240   1.800  15.607
 6496TIP3    H240904   0.178   1.718  15.497
 6497TIP3   OH240905   0.572   1.643  15.627
 6497TIP3    H140906   0.646   1.587  15.650
 6497TIP3    H240907   0.542   1.609  15.542
 6498TIP3   OH240908   0.995   1.604  13.758
 6498TIP3    H140909   0.927   1.538  13.766
 6498TIP3    H240910   1.071   1.558  13.723
 6499TIP3   OH240911   1.218   1.493  15.528
 6499TIP3    H140912   1.202   1.407  15.566
 6499TIP3    H240913   1.296   1.525  15.574
 6500TIP3   OH240914   1.442   1.571  13.793
 6500TIP3    H140915   1.453   1.492  13.844
 6500TIP3    H240916   1.516   1.571  13.733
 6501TIP3   OH240917   0.085   1.168  15.492
 6501TIP3    H140918   0.055   1.077  15.489
 6501TIP3    H240919   0.037   1.211  15.421
 6502TIP3   OH240920   0.545   1.139  13.773
 6502TIP3    H140921   0.576   1.093  13.852
 6502TIP3    H240922   0.625   1.152  13.721
 6503TIP3   OH240923   0.770   1.173  15.520
 6503TIP3    H140924   0.759   1.221  15.438
 6503TIP3    H240925   0.811   1.091  15.495
 6504TIP3   OH240926   1.175   1.268  13.806
 6504TIP3    H140927   1.127   1.266  13.889
 6504TIP3    H240928   1.150   1.187  13.762
 6505TIP3   OH240929   1.346   1.194  15.293
 6505TIP3    H140930   1.437   1.208  15.266
 6505TIP3    H240931   1.301   1.275  15.269
 6506TIP3   OH240932   0.204   0.818  15.495
 6506TIP3    H140933   0.160   0.733  15.498
 6506TIP3    H240934   0.187   0.858  15.579
 6507TIP3   OH240935   0.655   1.001  13.993
 6507TIP3    H140936   0.605   0.946  14.053
 6507TIP3    H240937   0.708   0.940  13.942
 6508TIP3   OH240938   0.586   0.791  15.258
 6508TIP3    H140939   0.523   0.842  15.207
 6508TIP3    H240940   0.672   0.820  15.226
 6509TIP3   OH240941   0.807   0.829  13.839
 6509TIP3    H140942   0.802   0.856  13.747
 6509TIP3    H240943   0.900   0.814  13.855
 6510TIP3   OH240944   1.118   1.013  15.558
 6510TIP3    H140945   1.197   0.980  15.515
 6510TIP3    H240946   1.086   0.938  15.608
 6511TIP3   OH240947   1.690   1.019  13.787
 6511TIP3    H140948   1.692   0.996  13.694
 6511TIP3    H240949   1.683   1.114  13.789
 6512TIP3   OH240950   0.650   0.531  15.344
 6512TIP3    H140951   0.665   0.468  15.274
 6512TIP3    H240952   0.642   0.615  15.298
 6513TIP3   OH240953   0.679   0.379  15.109
 6513TIP3    H140954   0.736   0.416  15.041
 6513TIP3    H240955   0.594   0.368  15.065
 6514TIP3   OH240956   0.813   0.906  15.160
 6514TIP3    H140957   0.902   0.890  15.131
 6514TIP3    H240958   0.782   0.977  15.104
 6515TIP3   OH240959   1.263   0.638  15.617
 6515TIP3    H140960   1.270   0.543  15.606
 6515TIP3    H240961   1.352   0.666  15.637
 6516TIP3   OH240962   1.371   0.968  15.445
 6516TIP3    H140963   1.355   1.049  15.396
 6516TIP3    H240964   1.467   0.960  15.448
 6517TIP3   OH240965   0.464   0.649  15.509
 6517TIP3    H140966   0.402   0.577  15.519
 6517TIP3    H240967   0.536   0.611  15.459
 6518TIP3   OH240968   0.730   0.134  15.222
 6518TIP3    H140969   0.713   0.220  15.185
 6518TIP3    H240970   0.674   0.074  15.173
 6519TIP3   OH240971   0.876   0.509  15.520
 6519TIP3    H140972   0.861   0.473  15.608
 6519TIP3    H240973   0.791   0.501  15.477
 6520TIP3   OH240974   1.116   0.433  15.410
 6520TIP3    H140975   1.028   0.441  15.446
 6520TIP3    H240976   1.168   0.391  15.479
 6521TIP3   OH240977   1.270   0.348  15.618
 6521TIP3    H140978   1.291   0.257  15.596
 6521TIP3    H240979   1.288   0.354  15.712
 6522TIP3   OH240980   0.313   0.416  15.525
 6522TIP3    H140981   0.304   0.349  15.457
 6522TIP3    H240982   0.301   0.369  15.607
 6523TIP3   OH240983   0.763   0.036  15.475
 6523TIP3    H140984   0.839  -0.021  15.464
 6523TIP3    H240985   0.747   0.073  15.388
 6524TIP3   OH240986   0.820   0.207  15.700
 6524TIP3    H140987   0.840   0.134  15.642
 6524TIP3    H240988   0.749   0.254  15.655
 6525TIP3   OH240989   0.793   1.896  13.987
 6525TIP3    H140990   0.881   1.862  13.972
 6525TIP3    H240991   0.778   1.956  13.914
 6526TIP3   OH240992   0.137   1.270  13.894
 6526TIP3    H140993   0.222   1.313  13.886
 6526TIP3    H240994   0.111   1.252  13.803
 6527TIP3   OH240995   0.051   1.875  14.362
 6527TIP3    H140996   0.068   1.831  14.279
 6527TIP3    H240997   0.069   1.809  14.429
 6528TIP3   OH240998   0.083   1.694  14.569
 6528TIP3    H140999   0.080   1.603  14.597
 6528TIP3    H241000   0.134   1.739  14.637
 6529TIP3   OH241001   1.862   1.730  14.889
 6529TIP3    H141002   1.866   1.812  14.938
 6529TIP3    H241003   1.904   1.750  14.805
 6530TIP3   OH241004   1.782   1.700  15.195
 6530TIP3    H141005   1.736   1.635  15.142
 6530TIP3    H241006   1.819   1.651  15.268
 6531TIP3   OH241007   1.623   1.290  15.693
 6531TIP3    H141008   1.543   1.307  15.743
 6531TIP3    H241009   1.675   1.370  15.703
 6532TIP3   OH241010   1.773   1.130  14.193
 6532TIP3    H141011   1.851   1.186  14.189
 6532TIP3    H241012   1.793   1.067  14.262
 6533TIP3   OH241013   1.819   0.925  14.375
 6533TIP3    H141014   1.732   0.890  14.399
 6533TIP3    H241015   1.865   0.933  14.459
 6534TIP3   OH241016   1.801   1.208  14.891
 6534TIP3    H141017   1.853   1.138  14.852
 6534TIP3    H241018   1.824   1.286  14.840
 6535TIP3   OH241019   1.623   1.485  15.097
 6535TIP3    H141020   1.553   1.535  15.140
 6535TIP3    H241021   1.590   1.470  15.008
 6536TIP3   OH241022   1.830   0.931  14.007
 6536TIP3    H141023   1.783   0.953  13.927
 6536TIP3    H241024   1.808   1.002  14.068
 6537TIP3   OH241025   1.661   0.640  13.837
 6537TIP3    H141026   1.650   0.699  13.763
 6537TIP3    H241027   1.644   0.553  13.801
 6538TIP3   OH241028   1.572   0.805  14.423
 6538TIP3    H141029   1.570   0.717  14.386
 6538TIP3    H241030   1.531   0.797  14.509
 6539TIP3   OH241031   0.096   1.027  14.848
 6539TIP3    H141032   0.089   1.028  14.753
 6539TIP3    H241033   0.187   1.002  14.865
 6540TIP3   OH241034   1.648   0.991  15.422
 6540TIP3    H141035   1.711   0.919  15.409
 6540TIP3    H241036   1.664   1.051  15.349
 6541TIP3   OH241037   1.815   0.776  15.397
 6541TIP3    H141038   1.728   0.735  15.394
 6541TIP3    H241039   1.874   0.704  15.419
 6542TIP3   OH241040   1.602   0.392  13.740
 6542TIP3    H141041   1.644   0.330  13.799
 6542TIP3    H241042   1.510   0.365  13.737
 6543TIP3   OH241043   1.571   0.562  14.257
 6543TIP3    H141044   1.596   0.470  14.259
 6543TIP3    H241045   1.637   0.604  14.203
 6544TIP3   OH241046   1.603   0.591  14.809
 6544TIP3    H141047   1.695   0.607  14.789
 6544TIP3    H241048   1.597   0.604  14.904
 6545TIP3   OH241049   1.629   0.670  15.076
 6545TIP3    H141050   1.552   0.701  15.123
 6545TIP3    H241051   1.682   0.748  15.063
 6546TIP3   OH241052   0.086   0.574  15.525
 6546TIP3    H141053   0.158   0.519  15.493
 6546TIP3    H241054   0.029   0.513  15.573
 6547TIP3   OH241055   1.893   0.108  15.618
 6547TIP3    H141056   1.863   0.019  15.601
 6547TIP3    H241057   1.851   0.161  15.550
 6548TIP3   OH241058   1.619   0.287  14.275
 6548TIP3    H141059   1.632   0.243  14.359
 6548TIP3    H241060   1.559   0.230  14.227
 6549TIP3   OH241061   0.170   0.385  14.711
 6549TIP3    H141062   0.192   0.292  14.719
 6549TIP3    H241063   0.252   0.431  14.732
 6550TIP3   OH241064   0.064   0.744  14.871
 6550TIP3    H141065   0.124   0.727  14.798
 6550TIP3    H241066   0.049   0.839  14.868
 6551TIP3   OH241067   1.746   0.226  15.411
 6551TIP3    H141068   1.698   0.306  15.388
 6551TIP3    H241069   1.750   0.175  15.330
 6552TIP3   OH241070   1.782   0.259  13.920
 6552TIP3    H141071   1.834   0.210  13.857
 6552TIP3    H241072   1.843   0.326  13.953
 6553TIP3   OH241073   0.027   0.256  14.185
 6553TIP3    H141074  -0.050   0.222  14.139
 6553TIP3    H241075   0.051   0.335  14.136
 6554TIP3   OH241076   1.528   1.800  14.454
 6554TIP3    H141077   1.576   1.769  14.377
 6554TIP3    H241078   1.575   1.880  14.480
 6555TIP3   OH241079   0.021   0.099  15.107
 6555TIP3    H141080   0.013   0.170  15.171
 6555TIP3    H241081  -0.018   0.135  15.027
 6556TIP3   OH241082   0.204   1.509  15.479
 6556TIP3    H141083   0.113   1.522  15.450
 6556TIP3    H241084   0.195   1.468  15.565
 6557TIP3   OH241085   0.573   1.587  15.124
 6557TIP3    H141086   0.537   1.669  15.090
 6557TIP3    H241087   0.666   1.591  15.103
 6558TIP3   OH241088   0.957   1.702  15.395
 6558TIP3    H141089   0.972   1.674  15.485
 6558TIP3    H241090   1.036   1.752  15.373
 6559TIP3   OH241091   1.183   1.851  15.354
 6559TIP3    H141092   1.248   1.809  15.298
 6559TIP3    H241093   1.231   1.876  15.433
 6560TIP3   OH241094   1.707   0.078  15.183
 6560TIP3    H141095   1.645   0.132  15.134
 6560TIP3    H241096   1.677  -0.012  15.168
 6561TIP3   OH241097   0.285   1.870  15.141
 6561TIP3    H141098   0.210   1.909  15.097
 6561TIP3    H241099   0.295   1.921  15.222
 6562TIP3   OH241100   0.539   1.849  15.040
 6562TIP3    H141101   0.447   1.857  15.067
 6562TIP3    H241102   0.544   1.897  14.957
 6563TIP3   OH241103   0.981   1.832  14.950
 6563TIP3    H141104   0.933   1.864  14.873
 6563TIP3    H241105   0.996   1.910  15.003
 6564TIP3   OH241106   1.209   1.715  15.056
 6564TIP3    H141107   1.131   1.750  15.012
 6564TIP3    H241108   1.280   1.773  15.029
 6565TIP3   OH241109   1.456   1.863  15.047
 6565TIP3    H141110   1.466   1.956  15.025
 6565TIP3    H241111   1.496   1.817  14.973
 6566TIP3   OH241112   0.232   1.754  14.803
 6566TIP3    H141113   0.228   1.706  14.885
 6566TIP3    H241114   0.302   1.712  14.753
 6567TIP3   OH241115   0.437   1.623  14.682
 6567TIP3    H141116   0.423   1.531  14.706
 6567TIP3    H241117   0.526   1.642  14.712
 6568TIP3   OH241118   0.699   1.647  14.790
 6568TIP3    H141119   0.708   1.558  14.758
 6568TIP3    H241120   0.733   1.644  14.880
 6569TIP3   OH241121   0.978   0.228  14.656
 6569TIP3    H141122   0.920   0.158  14.687
 6569TIP3    H241123   1.066   0.189  14.660
 6570TIP3   OH241124   1.516   0.038  14.689
 6570TIP3    H141125   1.586   0.071  14.633
 6570TIP3    H241126   1.457   0.112  14.702
 6571TIP3   OH241127   1.692   0.138  14.502
 6571TIP3    H141128   1.753   0.074  14.465
 6571TIP3    H241129   1.746   0.213  14.525
 6572TIP3   OH241130   0.304   0.061  14.443
 6572TIP3    H141131   0.257   0.003  14.383
 6572TIP3    H241132   0.368   0.005  14.486
 6573TIP3   OH241133   0.213   0.076  14.093
 6573TIP3    H141134   0.255   0.120  14.019
 6573TIP3    H241135   0.151   0.141  14.127
 6574TIP3   OH241136   0.758   0.052  14.436
 6574TIP3    H141137   0.839   0.090  14.401
 6574TIP3    H241138   0.768   0.058  14.531
 6575TIP3   OH241139   1.247   0.159  14.633
 6575TIP3    H141140   1.276   0.218  14.563
 6575TIP3    H241141   1.258   0.071  14.596
 6576TIP3   OH241142   1.427   0.110  14.170
 6576TIP3    H141143   1.352   0.166  14.190
 6576TIP3    H241144   1.394   0.021  14.179
 6577TIP3   OH241145   0.110   1.730  14.133
 6577TIP3    H141146   0.080   1.699  14.047
 6577TIP3    H241147   0.166   1.805  14.113
 6578TIP3   OH241148   0.338   0.251  13.914
 6578TIP3    H141149   0.377   0.206  13.840
 6578TIP3    H241150   0.412   0.288  13.962
 6579TIP3   OH241151   0.819   0.304  14.147
 6579TIP3    H141152   0.868   0.242  14.200
 6579TIP3    H241153   0.838   0.389  14.185
 6580TIP3   OH241154   1.042   1.783  13.958
 6580TIP3    H141155   1.136   1.800  13.947
 6580TIP3    H241156   1.018   1.732  13.880
 6581TIP3   OH241157   1.688   1.753  14.236
 6581TIP3    H141158   1.672   1.665  14.202
 6581TIP3    H241159   1.678   1.810  14.161
 6582TIP3   OH241160   0.269   0.175  15.370
 6582TIP3    H141161   0.228   0.089  15.358
 6582TIP3    H241162   0.344   0.159  15.427
 6583TIP3   OH241163   0.467   0.129  15.549
 6583TIP3    H141164   0.550   0.175  15.533
 6583TIP3    H241165   0.494   0.044  15.583
 6584TIP3   OH241166   0.348   1.784  13.772
 6584TIP3    H141167   0.268   1.748  13.810
 6584TIP3    H241168   0.415   1.716  13.787
 6585TIP3   OH241169   1.335   0.086  15.563
 6585TIP3    H141170   1.369   0.024  15.628
 6585TIP3    H241171   1.345   0.041  15.479
 6586TIP3   OH241172   1.599   1.627  15.458
 6586TIP3    H141173   1.544   1.622  15.380
 6586TIP3    H241174   1.598   1.720  15.482
 6587TIP3   OH241175   3.078   1.025  14.431
 6587TIP3    H141176   3.065   1.119  14.420
 6587TIP3    H241177   3.014   0.985  14.372
 6588TIP3   OH241178   2.971   0.943  14.824
 6588TIP3    H141179   2.994   0.893  14.902
 6588TIP3    H241180   2.922   0.882  14.769
 6589TIP3   OH241181   2.179   0.877  14.950
 6589TIP3    H141182   2.188   0.805  15.011
 6589TIP3    H241183   2.267   0.894  14.918
 6590TIP3   OH241184   3.351   1.245  14.648
 6590TIP3    H141185   3.306   1.173  14.692
 6590TIP3    H241186   3.364   1.310  14.717
 6591TIP3   OH241187   2.311   1.329  14.839
 6591TIP3    H141188   2.293   1.251  14.787
 6591TIP3    H241189   2.399   1.356  14.812
 6592TIP3   OH241190   1.958   0.691  14.298
 6592TIP3    H141191   1.924   0.776  14.324
 6592TIP3    H241192   1.902   0.663  14.225
 6593TIP3   OH241193   2.008   0.926  14.580
 6593TIP3    H141194   2.042   0.838  14.599
 6593TIP3    H241195   2.083   0.973  14.542
 6594TIP3   OH241196   3.075   1.726  14.680
 6594TIP3    H141197   3.116   1.679  14.608
 6594TIP3    H241198   3.041   1.657  14.738
 6595TIP3   OH241199   2.794   1.205  14.821
 6595TIP3    H141200   2.830   1.135  14.766
 6595TIP3    H241201   2.867   1.232  14.876
 6596TIP3   OH241202   3.719   0.327  14.927
 6596TIP3    H141203   3.723   0.399  14.990
 6596TIP3    H241204   3.771   0.357  14.853
 6597TIP3   OH241205   3.126   0.610  14.845
 6597TIP3    H141206   3.146   0.517  14.856
 6597TIP3    H241207   3.106   0.619  14.752
 6598TIP3   OH241208   2.457   0.425  14.567
 6598TIP3    H141209   2.463   0.510  14.524
 6598TIP3    H241210   2.406   0.371  14.507
 6599TIP3   OH241211   3.248   0.454  14.419
 6599TIP3    H141212   3.296   0.431  14.498
 6599TIP3    H241213   3.313   0.496  14.363
 6600TIP3   OH241214   2.107   0.678  14.649
 6600TIP3    H141215   2.173   0.637  14.705
 6600TIP3    H241216   2.125   0.643  14.562
 6601TIP3   OH241217   2.575   0.817  14.629
 6601TIP3    H141218   2.663   0.786  14.648
 6601TIP3    H241219   2.541   0.756  14.564
 6602TIP3   OH241220   3.715   0.498  15.149
 6602TIP3    H141221   3.658   0.566  15.116
 6602TIP3    H241222   3.672   0.466  15.228
 6603TIP3   OH241223   2.326   0.333  14.992
 6603TIP3    H141224   2.300   0.386  14.917
 6603TIP3    H241225   2.254   0.342  15.054
 6604TIP3   OH241226   3.022   1.273  14.333
 6604TIP3    H141227   3.007   1.278  14.239
 6604TIP3    H241228   2.986   1.355  14.367
 6605TIP3   OH241229   2.589   1.105  14.974
 6605TIP3    H141230   2.549   1.176  15.023
 6605TIP3    H241231   2.655   1.148  14.920
 6606TIP3   OH241232   3.352   0.407  14.664
 6606TIP3    H141233   3.296   0.375  14.735
 6606TIP3    H241234   3.416   0.463  14.707
 6607TIP3   OH241235   2.296   0.509  14.777
 6607TIP3    H141236   2.355   0.561  14.830
 6607TIP3    H241237   2.351   0.473  14.707
 6608TIP3   OH241238   2.465   1.304  15.126
 6608TIP3    H141239   2.460   1.397  15.106
 6608TIP3    H241240   2.374   1.275  15.132
 6609TIP3   OH241241   2.009   1.271  14.156
 6609TIP3    H141242   1.995   1.310  14.069
 6609TIP3    H241243   2.087   1.316  14.190
 6610TIP3   OH241244   3.378   1.453  14.848
 6610TIP3    H141245   3.284   1.458  14.860
 6610TIP3    H241246   3.404   1.541  14.818
 6611TIP3   OH241247   3.455   0.282  15.023
 6611TIP3    H141248   3.378   0.291  14.967
 6611TIP3    H241249   3.529   0.294  14.963
 6612TIP3   OH241250   2.665   0.058  14.719
 6612TIP3    H141251   2.695   0.001  14.789
 6612TIP3    H241252   2.581   0.093  14.750
 6613TIP3   OH241253   3.209   1.617  14.465
 6613TIP3    H141254   3.243   1.529  14.447
 6613TIP3    H241255   3.287   1.673  14.466
 6614TIP3   OH241256   3.325   1.380  14.405
 6614TIP3    H141257   3.331   1.321  14.330
 6614TIP3    H241258   3.335   1.323  14.481
 6615TIP3   OH241259   3.488   1.237  15.201
 6615TIP3    H141260   3.477   1.180  15.125
 6615TIP3    H241261   3.499   1.324  15.165
 6616TIP3   OH241262   2.934   0.935  14.210
 6616TIP3    H141263   2.865   0.998  14.190
 6616TIP3    H241264   2.995   0.941  14.136
 6617TIP3   OH241265   2.969   0.808  13.856
 6617TIP3    H141266   3.026   0.837  13.928
 6617TIP3    H241267   3.022   0.744  13.809
 6618TIP3   OH241268   3.659   0.913  15.043
 6618TIP3    H141269   3.584   0.971  15.030
 6618TIP3    H241270   3.715   0.929  14.967
 6619TIP3   OH241271   3.296   0.980  14.271
 6619TIP3    H141272   3.226   0.997  14.334
 6619TIP3    H241273   3.359   0.927  14.320
 6620TIP3   OH241274   3.262   0.777  15.223
 6620TIP3    H141275   3.251   0.850  15.284
 6620TIP3    H241276   3.198   0.794  15.154
 6621TIP3   OH241277   2.430   1.013  14.473
 6621TIP3    H141278   2.407   0.981  14.386
 6621TIP3    H241279   2.488   0.945  14.508
 6622TIP3   OH241280   2.574   1.378  14.727
 6622TIP3    H141281   2.560   1.379  14.632
 6622TIP3    H241282   2.649   1.320  14.740
 6623TIP3   OH241283   2.438   0.911  14.848
 6623TIP3    H141284   2.488   0.885  14.770
 6623TIP3    H241285   2.492   0.978  14.889
 6624TIP3   OH241286   3.115   1.475  14.914
 6624TIP3    H141287   3.097   1.538  14.984
 6624TIP3    H241288   3.076   1.393  14.944
 6625TIP3   OH241289   2.591   1.338  15.372
 6625TIP3    H141290   2.523   1.403  15.389
 6625TIP3    H241291   2.566   1.298  15.289
 6626TIP3   OH241292   3.163   0.896  14.043
 6626TIP3    H141293   3.212   0.935  14.116
 6626TIP3    H241294   3.213   0.921  13.965
 6627TIP3   OH241295   2.259   0.939  15.269
 6627TIP3    H141296   2.259   1.016  15.325
 6627TIP3    H241297   2.169   0.933  15.236
 6628TIP3   OH241298   2.942   1.531  14.403
 6628TIP3    H141299   3.027   1.570  14.422
 6628TIP3    H241300   2.907   1.582  14.330
 6629TIP3   OH241301   2.388   1.524  15.386
 6629TIP3    H141302   2.392   1.551  15.294
 6629TIP3    H241303   2.294   1.515  15.404
 6630TIP3   OH241304   3.554   0.038  14.044
 6630TIP3    H141305   3.467   0.067  14.071
 6630TIP3    H241306   3.595   0.116  14.007
 6631TIP3   OH241307   2.357   0.925  14.216
 6631TIP3    H141308   2.309   0.995  14.172
 6631TIP3    H241309   2.313   0.845  14.189
 6632TIP3   OH241310   3.669   1.487  13.904
 6632TIP3    H141311   3.689   1.580  13.898
 6632TIP3    H241312   3.754   1.443  13.897
 6633TIP3   OH241313   1.951   1.176  15.124
 6633TIP3    H141314   1.891   1.180  15.049
 6633TIP3    H241315   1.961   1.083  15.142
 6634TIP3   OH241316   1.958   1.455  14.826
 6634TIP3    H141317   1.969   1.471  14.732
 6634TIP3    H241318   1.897   1.524  14.855
 6635TIP3   OH241319   3.746   1.527  15.402
 6635TIP3    H141320   3.732   1.433  15.391
 6635TIP3    H241321   3.662   1.560  15.435
 6636TIP3   OH241322   2.827   1.463  15.276
 6636TIP3    H141323   2.825   1.553  15.309
 6636TIP3    H241324   2.743   1.426  15.305
 6637TIP3   OH241325   2.908   1.827  14.249
 6637TIP3    H141326   2.866   1.818  14.164
 6637TIP3    H241327   2.874   1.909  14.284
 6638TIP3   OH241328   2.258   1.746  14.442
 6638TIP3    H141329   2.291   1.700  14.519
 6638TIP3    H241330   2.201   1.683  14.398
 6639TIP3   OH241331   3.200   1.749  13.963
 6639TIP3    H141332   3.239   1.673  13.919
 6639TIP3    H241333   3.200   1.725  14.056
 6640TIP3   OH241334   3.168   1.758  14.232
 6640TIP3    H141335   3.074   1.775  14.241
 6640TIP3    H241336   3.190   1.701  14.305
 6641TIP3   OH241337   3.433   0.654  15.422
 6641TIP3    H141338   3.375   0.688  15.354
 6641TIP3    H241339   3.445   0.562  15.401
 6642TIP3   OH241340   2.188   1.296  15.175
 6642TIP3    H141341   2.215   1.278  15.265
 6642TIP3    H241342   2.107   1.246  15.164
 6643TIP3   OH241343   2.415   0.122  14.828
 6643TIP3    H141344   2.333   0.131  14.779
 6643TIP3    H241345   2.408   0.186  14.898
 6644TIP3   OH241346   2.907   0.122  15.183
 6644TIP3    H141347   2.939   0.063  15.252
 6644TIP3    H241348   2.812   0.127  15.197
 6645TIP3   OH241349   3.209   0.502  15.255
 6645TIP3    H141350   3.139   0.487  15.319
 6645TIP3    H241351   3.205   0.596  15.238
 6646TIP3   OH241352   3.310   0.952  13.824
 6646TIP3    H141353   3.287   0.962  13.732
 6646TIP3    H241354   3.404   0.973  13.827
 6647TIP3   OH241355   2.867   0.369  13.923
 6647TIP3    H141356   2.803   0.349  13.991
 6647TIP3    H241357   2.843   0.312  13.850
 6648TIP3   OH241358   2.448   0.657  14.957
 6648TIP3    H141359   2.378   0.656  15.023
 6648TIP3    H241360   2.448   0.748  14.924
 6649TIP3   OH241361   2.445   0.665  14.437
 6649TIP3    H141362   2.350   0.656  14.431
 6649TIP3    H241363   2.477   0.651  14.348
 6650TIP3   OH241364   2.993   0.691  14.318
 6650TIP3    H141365   2.965   0.777  14.286
 6650TIP3    H241366   3.064   0.665  14.259
 6651TIP3   OH241367   2.915   0.710  15.436
 6651TIP3    H141368   2.859   0.639  15.468
 6651TIP3    H241369   3.000   0.694  15.477
 6652TIP3   OH241370   3.097   0.634  14.571
 6652TIP3    H141371   3.050   0.683  14.503
 6652TIP3    H241372   3.139   0.562  14.525
 6653TIP3   OH241373   2.228   0.659  15.122
 6653TIP3    H141374   2.234   0.695  15.210
 6653TIP3    H241375   2.188   0.572  15.134
 6654TIP3   OH241376   2.534   0.366  13.786
 6654TIP3    H141377   2.503   0.363  13.876
 6654TIP3    H241378   2.483   0.436  13.745
 6655TIP3   OH241379   1.867   0.341  14.529
 6655TIP3    H141380   1.929   0.374  14.594
 6655TIP3    H241381   1.913   0.347  14.446
 6656TIP3   OH241382   1.941   0.458  14.039
 6656TIP3    H141383   2.013   0.494  13.987
 6656TIP3    H241384   1.881   0.532  14.051
 6657TIP3   OH241385   3.047   0.780  15.040
 6657TIP3    H141386   3.081   0.724  14.970
 6657TIP3    H241387   2.981   0.727  15.084
 6658TIP3   OH241388   2.741   0.410  14.527
 6658TIP3    H141389   2.649   0.406  14.553
 6658TIP3    H241390   2.788   0.361  14.594
 6659TIP3   OH241391   2.185   0.577  14.408
 6659TIP3    H141392   2.109   0.606  14.356
 6659TIP3    H241393   2.201   0.488  14.378
 6660TIP3   OH241394   2.516   0.591  14.184
 6660TIP3    H141395   2.611   0.584  14.196
 6660TIP3    H241396   2.506   0.631  14.097
 6661TIP3   OH241397   3.176   0.329  14.864
 6661TIP3    H141398   3.115   0.334  14.937
 6661TIP3    H241399   3.139   0.262  14.806
 6662TIP3   OH241400   2.479   0.677  13.929
 6662TIP3    H141401   2.428   0.650  13.853
 6662TIP3    H241402   2.552   0.727  13.893
 6663TIP3   OH241403   3.483   1.902  15.495
 6663TIP3    H141404   3.508   1.935  15.408
 6663TIP3    H241405   3.557   1.925  15.551
 6664TIP3   OH241406   2.244   1.183  15.431
 6664TIP3    H141407   2.306   1.181  15.503
 6664TIP3    H241408   2.158   1.176  15.472
 6665TIP3   OH241409   2.820   0.709  14.724
 6665TIP3    H141410   2.876   0.652  14.671
 6665TIP3    H241411   2.787   0.653  14.794
 6666TIP3   OH241412   2.289   0.310  14.370
 6666TIP3    H141413   2.244   0.229  14.395
 6666TIP3    H241414   2.320   0.294  14.281
 6667TIP3   OH241415   2.709   0.570  14.943
 6667TIP3    H141416   2.623   0.609  14.954
 6667TIP3    H241417   2.758   0.596  15.021
 6668TIP3   OH241418   2.741   1.124  14.150
 6668TIP3    H141419   2.668   1.103  14.092
 6668TIP3    H241420   2.700   1.157  14.230
 6669TIP3   OH241421   3.459   1.089  14.971
 6669TIP3    H141422   3.517   1.143  14.918
 6669TIP3    H241423   3.386   1.068  14.912
 6670TIP3   OH241424   3.121   0.407  14.005
 6670TIP3    H141425   3.031   0.406  13.974
 6670TIP3    H241426   3.135   0.496  14.036
 6671TIP3   OH241427   2.905   1.184  15.246
 6671TIP3    H141428   2.930   1.144  15.330
 6671TIP3    H241429   2.881   1.274  15.268
 6672TIP3   OH241430   3.199   0.638  14.138
 6672TIP3    H141431   3.291   0.625  14.162
 6672TIP3    H241432   3.197   0.723  14.096
 6673TIP3   OH241433   2.287   1.098  14.694
 6673TIP3    H141434   2.327   1.087  14.607
 6673TIP3    H241435   2.321   1.024  14.745
 6674TIP3   OH241436   2.942   1.288  14.060
 6674TIP3    H141437   2.911   1.378  14.071
 6674TIP3    H241438   2.867   1.234  14.085
 6675TIP3   OH241439   1.978   0.918  15.221
 6675TIP3    H141440   1.946   0.881  15.303
 6675TIP3    H241441   1.916   0.888  15.155
 6676TIP3   OH241442   2.692   0.886  15.450
 6676TIP3    H141443   2.629   0.853  15.387
 6676TIP3    H241444   2.774   0.841  15.427
 6677TIP3   OH241445   3.111   1.449  15.262
 6677TIP3    H141446   3.017   1.454  15.243
 6677TIP3    H241447   3.116   1.459  15.357
 6678TIP3   OH241448   3.656   0.672  14.084
 6678TIP3    H141449   3.614   0.650  14.001
 6678TIP3    H241450   3.684   0.763  14.073
 6679TIP3   OH241451   3.710   1.250  15.359
 6679TIP3    H141452   3.622   1.255  15.324
 6679TIP3    H241453   3.765   1.226  15.284
 6680TIP3   OH241454   3.511   1.507  14.135
 6680TIP3    H141455   3.467   1.425  14.157
 6680TIP3    H241456   3.560   1.487  14.055
 6681TIP3   OH241457   3.250   1.016  14.792
 6681TIP3    H141458   3.155   1.005  14.786
 6681TIP3    H241459   3.286   0.942  14.744
 6682TIP3   OH241460   2.484   1.456  14.467
 6682TIP3    H141461   2.521   1.534  14.427
 6682TIP3    H241462   2.420   1.424  14.403
 6683TIP3   OH241463   2.090   0.891  13.918
 6683TIP3    H141464   2.140   0.960  13.962
 6683TIP3    H241465   2.000   0.903  13.949
 6684TIP3   OH241466   2.610   1.208  14.377
 6684TIP3    H141467   2.574   1.295  14.390
 6684TIP3    H241468   2.541   1.149  14.409
 6685TIP3   OH241469   2.712   1.612  15.041
 6685TIP3    H141470   2.768   1.687  15.019
 6685TIP3    H241471   2.771   1.550  15.083
 6686TIP3   OH241472   2.522   1.714  14.355
 6686TIP3    H141473   2.429   1.735  14.364
 6686TIP3    H241474   2.567   1.791  14.388
 6687TIP3   OH241475   3.014   1.228  14.996
 6687TIP3    H141476   2.979   1.203  15.082
 6687TIP3    H241477   3.064   1.151  14.968
 6688TIP3   OH241478   3.297   1.340  13.926
 6688TIP3    H141479   3.311   1.297  14.010
 6688TIP3    H241480   3.213   1.306  13.895
 6689TIP3   OH241481   3.319   1.652  15.229
 6689TIP3    H141482   3.238   1.604  15.214
 6689TIP3    H241483   3.317   1.724  15.166
 6690TIP3   OH241484   3.708   1.761  13.953
 6690TIP3    H141485   3.786   1.812  13.931
 6690TIP3    H241486   3.635   1.812  13.920
 6691TIP3   OH241487   2.116   0.403  15.163
 6691TIP3    H141488   2.023   0.425  15.153
 6691TIP3    H241489   2.116   0.333  15.228
 6692TIP3   OH241490   3.394   1.220  14.167
 6692TIP3    H141491   3.347   1.142  14.196
 6692TIP3    H241492   3.486   1.195  14.166
 6693TIP3   OH241493   2.087   1.628  15.037
 6693TIP3    H141494   1.995   1.648  15.019
 6693TIP3    H241495   2.119   1.701  15.090
 6694TIP3   OH241496   2.678   1.417  13.784
 6694TIP3    H141497   2.681   1.334  13.735
 6694TIP3    H241498   2.636   1.394  13.867
 6695TIP3   OH241499   2.545   1.394  14.028
 6695TIP3    H141500   2.486   1.365  14.097
 6695TIP3    H241501   2.561   1.486  14.046
 6696TIP3   OH241502   2.205   1.095  14.061
 6696TIP3    H141503   2.138   1.141  14.112
 6696TIP3    H241504   2.250   1.164  14.013
 6697TIP3   OH241505   3.022   0.360  15.094
 6697TIP3    H141506   3.091   0.380  15.157
 6697TIP3    H241507   2.983   0.278  15.126
 6698TIP3   OH241508   3.109   0.285  14.251
 6698TIP3    H141509   3.107   0.323  14.163
 6698TIP3    H241510   3.149   0.352  14.306
 6699TIP3   OH241511   2.860   1.548  14.095
 6699TIP3    H141512   2.766   1.565  14.102
 6699TIP3    H241513   2.893   1.619  14.040
 6700TIP3   OH241514   2.772   0.530  14.281
 6700TIP3    H141515   2.848   0.588  14.288
 6700TIP3    H241516   2.759   0.497  14.370
 6701TIP3   OH241517   2.880   0.602  15.163
 6701TIP3    H141518   2.887   0.615  15.258
 6701TIP3    H241519   2.917   0.515  15.149
 6702TIP3   OH241520   2.860   0.205  14.349
 6702TIP3    H141521   2.843   0.277  14.410
 6702TIP3    H241522   2.948   0.223  14.316
 6703TIP3   OH241523   2.606   1.654  14.098
 6703TIP3    H141524   2.608   1.740  14.055
 6703TIP3    H241525   2.570   1.672  14.185
 6704TIP3   OH241526   2.446   0.347  14.053
 6704TIP3    H141527   2.436   0.435  14.089
 6704TIP3    H241528   2.534   0.320  14.081
 6705TIP3   OH241529   3.461   0.408  15.271
 6705TIP3    H141530   3.369   0.431  15.275
 6705TIP3    H241531   3.472   0.367  15.185
 6706TIP3   OH241532   3.332   0.771  14.668
 6706TIP3    H141533   3.248   0.730  14.647
 6706TIP3    H241534   3.376   0.707  14.723
 6707TIP3   OH241535   2.267   1.344  13.920
 6707TIP3    H141536   2.296   1.379  14.004
 6707TIP3    H241537   2.347   1.314  13.877
 6708TIP3   OH241538   2.093   0.619  13.883
 6708TIP3    H141539   2.101   0.713  13.898
 6708TIP3    H241540   2.088   0.611  13.788
 6709TIP3   OH241541   3.459   1.723  14.834
 6709TIP3    H141542   3.443   1.796  14.774
 6709TIP3    H241543   3.554   1.719  14.844
 6710TIP3   OH241544   2.162   0.139  14.716
 6710TIP3    H141545   2.161   0.121  14.622
 6710TIP3    H241546   2.124   0.061  14.756
 6711TIP3   OH241547   2.074   1.561  14.363
 6711TIP3    H141548   2.039   1.605  14.286
 6711TIP3    H241549   2.134   1.495  14.328
 6712TIP3   OH241550   2.032   1.816  15.516
 6712TIP3    H141551   2.093   1.794  15.587
 6712TIP3    H241552   1.998   1.731  15.487
 6713TIP3   OH241553   2.446   1.621  15.637
 6713TIP3    H141554   2.538   1.595  15.646
 6713TIP3    H241555   2.422   1.594  15.549
 6714TIP3   OH241556   2.883   1.599  13.756
 6714TIP3    H141557   2.814   1.534  13.771
 6714TIP3    H241558   2.956   1.548  13.720
 6715TIP3   OH241559   3.108   1.471  15.539
 6715TIP3    H141560   3.096   1.390  15.588
 6715TIP3    H241561   3.189   1.508  15.574
 6716TIP3   OH241562   3.323   1.576  13.787
 6716TIP3    H141563   3.332   1.496  13.838
 6716TIP3    H241564   3.397   1.573  13.726
 6717TIP3   OH241565   1.998   1.168  15.566
 6717TIP3    H141566   2.008   1.074  15.552
 6717TIP3    H241567   1.930   1.194  15.504
 6718TIP3   OH241568   2.439   1.165  13.783
 6718TIP3    H141569   2.464   1.114  13.861
 6718TIP3    H241570   2.519   1.169  13.731
 6719TIP3   OH241571   2.658   1.138  15.565
 6719TIP3    H141572   2.652   1.191  15.485
 6719TIP3    H241573   2.681   1.051  15.533
 6720TIP3   OH241574   3.054   1.268  13.809
 6720TIP3    H141575   3.004   1.266  13.890
 6720TIP3    H241576   3.031   1.186  13.765
 6721TIP3   OH241577   3.232   1.192  15.299
 6721TIP3    H141578   3.322   1.208  15.268
 6721TIP3    H241579   3.183   1.268  15.270
 6722TIP3   OH241580   2.088   0.910  15.520
 6722TIP3    H141581   2.133   0.838  15.476
 6722TIP3    H241582   2.103   0.893  15.613
 6723TIP3   OH241583   2.538   1.010  13.995
 6723TIP3    H141584   2.489   0.961  14.062
 6723TIP3    H241585   2.587   0.943  13.948
 6724TIP3   OH241586   2.497   0.790  15.265
 6724TIP3    H141587   2.419   0.845  15.259
 6724TIP3    H241588   2.556   0.825  15.198
 6725TIP3   OH241589   2.688   0.832  13.840
 6725TIP3    H141590   2.683   0.859  13.749
 6725TIP3    H241591   2.782   0.817  13.855
 6726TIP3   OH241592   3.011   1.024  15.570
 6726TIP3    H141593   3.086   0.987  15.522
 6726TIP3    H241594   2.972   0.949  15.614
 6727TIP3   OH241595   3.577   1.020  13.792
 6727TIP3    H141596   3.578   0.998  13.699
 6727TIP3    H241597   3.570   1.115  13.794
 6728TIP3   OH241598   2.551   0.528  15.326
 6728TIP3    H141599   2.557   0.470  15.250
 6728TIP3    H241600   2.534   0.614  15.289
 6729TIP3   OH241601   2.576   0.365  15.099
 6729TIP3    H141602   2.629   0.409  15.033
 6729TIP3    H241603   2.489   0.358  15.060
 6730TIP3   OH241604   2.693   0.890  15.107
 6730TIP3    H141605   2.788   0.892  15.099
 6730TIP3    H241606   2.663   0.967  15.060
 6731TIP3   OH241607   3.139   0.655  15.612
 6731TIP3    H141608   3.144   0.590  15.683
 6731TIP3    H241609   3.228   0.659  15.576
 6732TIP3   OH241610   3.270   0.971  15.454
 6732TIP3    H141611   3.249   1.050  15.404
 6732TIP3    H241612   3.365   0.965  15.449
 6733TIP3   OH241613   2.405   0.601  15.552
 6733TIP3    H141614   2.317   0.563  15.546
 6733TIP3    H241615   2.445   0.581  15.467
 6734TIP3   OH241616   2.631   0.109  15.198
 6734TIP3    H141617   2.609   0.198  15.170
 6734TIP3    H241618   2.562   0.054  15.160
 6735TIP3   OH241619   2.756   0.501  15.507
 6735TIP3    H141620   2.712   0.471  15.587
 6735TIP3    H241621   2.686   0.503  15.441
 6736TIP3   OH241622   3.012   0.425  15.421
 6736TIP3    H141623   2.925   0.430  15.461
 6736TIP3    H241624   3.067   0.387  15.489
 6737TIP3   OH241625   3.210   0.332  15.604
 6737TIP3    H141626   3.189   0.238  15.609
 6737TIP3    H241627   3.185   0.367  15.689
 6738TIP3   OH241628   2.179   0.442  15.508
 6738TIP3    H141629   2.170   0.362  15.455
 6738TIP3    H241630   2.165   0.412  15.598
 6739TIP3   OH241631   2.650   0.054  15.467
 6739TIP3    H141632   2.726  -0.003  15.475
 6739TIP3    H241633   2.640   0.068  15.373
 6740TIP3   OH241634   2.740   0.212  15.674
 6740TIP3    H141635   2.720   0.154  15.600
 6740TIP3    H241636   2.669   0.276  15.675
 6741TIP3   OH241637   2.682   1.902  13.987
 6741TIP3    H141638   2.768   1.864  13.969
 6741TIP3    H241639   2.665   1.961  13.913
 6742TIP3   OH241640   2.002   1.341  13.879
 6742TIP3    H141641   2.097   1.347  13.892
 6742TIP3    H241642   1.991   1.272  13.813
 6743TIP3   OH241643   1.881   1.839  14.423
 6743TIP3    H141644   1.841   1.811  14.340
 6743TIP3    H241645   1.895   1.758  14.471
 6744TIP3   OH241646   1.967   1.629  14.603
 6744TIP3    H141647   1.996   1.593  14.520
 6744TIP3    H241648   2.039   1.684  14.632
 6745TIP3   OH241649   3.727   1.723  14.897
 6745TIP3    H141650   3.735   1.735  14.991
 6745TIP3    H241651   3.805   1.765  14.861
 6746TIP3   OH241652   3.670   1.698  15.178
 6746TIP3    H141653   3.619   1.628  15.138
 6746TIP3    H241654   3.720   1.656  15.248
 6747TIP3   OH241655   3.515   1.289  15.696
 6747TIP3    H141656   3.433   1.303  15.743
 6747TIP3    H241657   3.566   1.369  15.709
 6748TIP3   OH241658   3.655   1.127  14.191
 6748TIP3    H141659   3.731   1.185  14.191
 6748TIP3    H241660   3.673   1.064  14.261
 6749TIP3   OH241661   3.703   0.924  14.374
 6749TIP3    H141662   3.616   0.890  14.397
 6749TIP3    H241663   3.747   0.934  14.459
 6750TIP3   OH241664   3.702   1.213  14.895
 6750TIP3    H141665   3.749   1.148  14.842
 6750TIP3    H241666   3.727   1.297  14.855
 6751TIP3   OH241667   3.503   1.490  15.095
 6751TIP3    H141668   3.431   1.539  15.136
 6751TIP3    H241669   3.473   1.474  15.005
 6752TIP3   OH241670   3.721   0.930  14.007
 6752TIP3    H141671   3.674   0.950  13.926
 6752TIP3    H241672   3.695   1.000  14.067
 6753TIP3   OH241673   3.552   0.635  13.837
 6753TIP3    H141674   3.539   0.695  13.764
 6753TIP3    H241675   3.533   0.549  13.801
 6754TIP3   OH241676   3.457   0.805  14.422
 6754TIP3    H141677   3.453   0.717  14.384
 6754TIP3    H241678   3.416   0.797  14.508
 6755TIP3   OH241679   1.955   0.989  14.840
 6755TIP3    H141680   1.963   0.971  14.747
 6755TIP3    H241681   2.037   0.957  14.878
 6756TIP3   OH241682   3.549   0.982  15.426
 6756TIP3    H141683   3.607   0.909  15.406
 6756TIP3    H241684   3.581   1.054  15.371
 6757TIP3   OH241685   3.690   0.749  15.390
 6757TIP3    H141686   3.601   0.716  15.394
 6757TIP3    H241687   3.744   0.676  15.421
 6758TIP3   OH241688   3.487   0.389  13.743
 6758TIP3    H141689   3.521   0.320  13.800
 6758TIP3    H241690   3.394   0.369  13.735
 6759TIP3   OH241691   3.458   0.563  14.257
 6759TIP3    H141692   3.482   0.471  14.257
 6759TIP3    H241693   3.524   0.605  14.202
 6760TIP3   OH241694   3.493   0.588  14.817
 6760TIP3    H141695   3.585   0.606  14.799
 6760TIP3    H241696   3.483   0.607  14.911
 6761TIP3   OH241697   3.511   0.682  15.082
 6761TIP3    H141698   3.428   0.711  15.120
 6761TIP3    H241699   3.562   0.762  15.070
 6762TIP3   OH241700   1.932   0.529  15.422
 6762TIP3    H141701   2.024   0.504  15.435
 6762TIP3    H241702   1.892   0.517  15.508
 6763TIP3   OH241703   3.782   0.105  15.607
 6763TIP3    H141704   3.747   0.016  15.603
 6763TIP3    H241705   3.743   0.149  15.532
 6764TIP3   OH241706   3.504   0.287  14.272
 6764TIP3    H141707   3.514   0.245  14.358
 6764TIP3    H241708   3.442   0.231  14.225
 6765TIP3   OH241709   2.042   0.382  14.749
 6765TIP3    H141710   2.079   0.294  14.741
 6765TIP3    H241711   2.118   0.439  14.759
 6766TIP3   OH241712   1.870   0.658  14.802
 6766TIP3    H141713   1.938   0.653  14.735
 6766TIP3    H241714   1.914   0.695  14.878
 6767TIP3   OH241715   3.674   0.260  15.404
 6767TIP3    H141716   3.597   0.307  15.436
 6767TIP3    H241717   3.642   0.208  15.330
 6768TIP3   OH241718   3.677   0.253  13.931
 6768TIP3    H141719   3.724   0.207  13.862
 6768TIP3    H241720   3.735   0.325  13.956
 6769TIP3   OH241721   1.906   0.284  14.243
 6769TIP3    H141722   1.810   0.279  14.243
 6769TIP3    H241723   1.927   0.348  14.176
 6770TIP3   OH241724   3.415   1.797  14.431
 6770TIP3    H141725   3.467   1.781  14.352
 6770TIP3    H241726   3.467   1.859  14.482
 6771TIP3   OH241727   1.938   0.092  15.033
 6771TIP3    H141728   1.867   0.078  15.096
 6771TIP3    H241729   1.912   0.172  14.986
 6772TIP3   OH241730   2.127   1.503  15.473
 6772TIP3    H141731   2.037   1.513  15.441
 6772TIP3    H241732   2.118   1.455  15.555
 6773TIP3   OH241733   2.449   1.585  15.115
 6773TIP3    H141734   2.416   1.672  15.091
 6773TIP3    H241735   2.541   1.587  15.092
 6774TIP3   OH241736   2.834   1.716  15.396
 6774TIP3    H141737   2.853   1.689  15.486
 6774TIP3    H241738   2.912   1.764  15.368
 6775TIP3   OH241739   3.067   1.853  15.352
 6775TIP3    H141740   3.130   1.809  15.295
 6775TIP3    H241741   3.117   1.876  15.430
 6776TIP3   OH241742   3.564   0.089  15.187
 6776TIP3    H141743   3.520   0.155  15.134
 6776TIP3    H241744   3.529   0.006  15.155
 6777TIP3   OH241745   2.142   1.885  15.131
 6777TIP3    H141746   2.063   1.921  15.090
 6777TIP3    H241747   2.150   1.934  15.213
 6778TIP3   OH241748   2.404   1.850  15.047
 6778TIP3    H141749   2.313   1.869  15.071
 6778TIP3    H241750   2.416   1.895  14.963
 6779TIP3   OH241751   2.859   1.831  14.955
 6779TIP3    H141752   2.818   1.864  14.875
 6779TIP3    H241753   2.874   1.909  15.009
 6780TIP3   OH241754   3.088   1.716  15.061
 6780TIP3    H141755   3.011   1.751  15.016
 6780TIP3    H241756   3.161   1.771  15.031
 6781TIP3   OH241757   3.334   1.856  15.039
 6781TIP3    H141758   3.353   1.948  15.021
 6781TIP3    H241759   3.374   1.808  14.966
 6782TIP3   OH241760   2.149   1.753  14.782
 6782TIP3    H141761   2.139   1.716  14.869
 6782TIP3    H241762   2.222   1.704  14.743
 6783TIP3   OH241763   2.351   1.611  14.667
 6783TIP3    H141764   2.376   1.537  14.611
 6783TIP3    H241765   2.433   1.638  14.708
 6784TIP3   OH241766   2.600   1.652  14.786
 6784TIP3    H141767   2.609   1.564  14.749
 6784TIP3    H241768   2.630   1.643  14.876
 6785TIP3   OH241769   2.879   0.233  14.682
 6785TIP3    H141770   2.813   0.166  14.699
 6785TIP3    H241771   2.960   0.184  14.668
 6786TIP3   OH241772   3.407   0.054  14.714
 6786TIP3    H141773   3.464   0.083  14.643
 6786TIP3    H241774   3.322   0.096  14.696
 6787TIP3   OH241775   3.566   0.139  14.501
 6787TIP3    H141776   3.625   0.072  14.467
 6787TIP3    H241777   3.623   0.212  14.525
 6788TIP3   OH241778   2.176   0.062  14.448
 6788TIP3    H141779   2.121   0.012  14.388
 6788TIP3    H241780   2.236  -0.002  14.484
 6789TIP3   OH241781   2.069   0.104  14.096
 6789TIP3    H141782   2.107   0.154  14.024
 6789TIP3    H241783   2.013   0.166  14.142
 6790TIP3   OH241784   2.649   0.047  14.435
 6790TIP3    H141785   2.727   0.091  14.402
 6790TIP3    H241786   2.657   0.054  14.531
 6791TIP3   OH241787   3.147   0.153  14.628
 6791TIP3    H141788   3.163   0.223  14.564
 6791TIP3    H241789   3.155   0.072  14.578
 6792TIP3   OH241790   3.307   0.104  14.177
 6792TIP3    H141791   3.235   0.164  14.198
 6792TIP3    H241792   3.264   0.027  14.139
 6793TIP3   OH241793   2.000   1.714  14.149
 6793TIP3    H141794   1.930   1.696  14.086
 6793TIP3    H241795   2.037   1.798  14.122
 6794TIP3   OH241796   2.211   0.267  13.909
 6794TIP3    H141797   2.245   0.216  13.835
 6794TIP3    H241798   2.289   0.294  13.957
 6795TIP3   OH241799   2.703   0.303  14.141
 6795TIP3    H141800   2.752   0.240  14.195
 6795TIP3    H241801   2.722   0.388  14.181
 6796TIP3   OH241802   2.925   1.782  13.950
 6796TIP3    H141803   3.021   1.784  13.952
 6796TIP3    H241804   2.904   1.731  13.873
 6797TIP3   OH241805   3.586   1.760  14.208
 6797TIP3    H141806   3.551   1.671  14.198
 6797TIP3    H241807   3.646   1.770  14.134
 6798TIP3   OH241808   2.123   0.208  15.367
 6798TIP3    H141809   2.045   0.154  15.381
 6798TIP3    H241810   2.191   0.166  15.420
 6799TIP3   OH241811   2.320   0.126  15.545
 6799TIP3    H141812   2.411   0.145  15.525
 6799TIP3    H241813   2.318   0.033  15.567
 6800TIP3   OH241814   2.231   1.752  13.804
 6800TIP3    H141815   2.208   1.747  13.897
 6800TIP3    H241816   2.307   1.695  13.795
 6801TIP3   OH241817   3.170   0.062  15.634
 6801TIP3    H141818   3.126   0.027  15.712
 6801TIP3    H241819   3.261   0.035  15.644
 6802TIP3   OH241820   3.490   1.630  15.448
 6802TIP3    H141821   3.433   1.625  15.371
 6802TIP3    H241822   3.492   1.723  15.471
 6803TIP3   OH241823   4.956   1.024  14.427
 6803TIP3    H141824   4.944   1.119  14.424
 6803TIP3    H241825   4.893   0.989  14.364
 6804TIP3   OH241826   4.858   0.946  14.810
 6804TIP3    H141827   4.876   0.902  14.893
 6804TIP3    H241828   4.807   0.882  14.760
 6805TIP3   OH241829   4.075   0.891  14.947
 6805TIP3    H141830   4.077   0.814  15.004
 6805TIP3    H241831   4.166   0.905  14.921
 6806TIP3   OH241832   5.244   1.241  14.644
 6806TIP3    H141833   5.193   1.176  14.692
 6806TIP3    H241834   5.258   1.312  14.707
 6807TIP3   OH241835   4.197   1.364  14.773
 6807TIP3    H141836   4.168   1.276  14.747
 6807TIP3    H241837   4.293   1.357  14.776
 6808TIP3   OH241838   3.845   0.691  14.299
 6808TIP3    H141839   3.809   0.776  14.325
 6808TIP3    H241840   3.790   0.664  14.225
 6809TIP3   OH241841   3.894   0.926  14.578
 6809TIP3    H141842   3.930   0.839  14.594
 6809TIP3    H241843   3.966   0.977  14.541
 6810TIP3   OH241844   4.963   1.736  14.666
 6810TIP3    H141845   5.002   1.678  14.601
 6810TIP3    H241846   4.885   1.689  14.697
 6811TIP3   OH241847   4.683   1.193  14.829
 6811TIP3    H141848   4.727   1.125  14.776
 6811TIP3    H241849   4.750   1.222  14.891
 6812TIP3   OH241850   5.597   0.337  14.930
 6812TIP3    H141851   5.607   0.415  14.985
 6812TIP3    H241852   5.651   0.355  14.853
 6813TIP3   OH241853   4.996   0.605  14.846
 6813TIP3    H141854   5.027   0.515  14.854
 6813TIP3    H241855   4.983   0.618  14.752
 6814TIP3   OH241856   4.352   0.426  14.568
 6814TIP3    H141857   4.354   0.512  14.526
 6814TIP3    H241858   4.302   0.371  14.507
 6815TIP3   OH241859   5.141   0.462  14.418
 6815TIP3    H141860   5.188   0.443  14.499
 6815TIP3    H241861   5.199   0.520  14.369
 6816TIP3   OH241862   3.993   0.678  14.648
 6816TIP3    H141863   4.057   0.633  14.703
 6816TIP3    H241864   4.010   0.644  14.560
 6817TIP3   OH241865   4.465   0.817  14.624
 6817TIP3    H141866   4.556   0.790  14.636
 6817TIP3    H241867   4.430   0.757  14.559
 6818TIP3   OH241868   5.616   0.525  15.136
 6818TIP3    H141869   5.536   0.573  15.116
 6818TIP3    H241870   5.633   0.545  15.228
 6819TIP3   OH241871   4.198   0.333  15.001
 6819TIP3    H141872   4.172   0.378  14.921
 6819TIP3    H241873   4.124   0.345  15.060
 6820TIP3   OH241874   4.894   1.277  14.341
 6820TIP3    H141875   4.893   1.282  14.246
 6820TIP3    H241876   4.862   1.363  14.370
 6821TIP3   OH241877   4.471   1.104  14.982
 6821TIP3    H141878   4.417   1.175  15.017
 6821TIP3    H241879   4.538   1.147  14.929
 6822TIP3   OH241880   5.242   0.402  14.661
 6822TIP3    H141881   5.185   0.373  14.733
 6822TIP3    H241882   5.307   0.457  14.704
 6823TIP3   OH241883   4.177   0.500  14.773
 6823TIP3    H141884   4.233   0.555  14.828
 6823TIP3    H241885   4.235   0.468  14.703
 6824TIP3   OH241886   4.318   1.311  15.089
 6824TIP3    H141887   4.326   1.405  15.069
 6824TIP3    H241888   4.226   1.299  15.113
 6825TIP3   OH241889   3.885   1.282  14.173
 6825TIP3    H141890   3.882   1.318  14.084
 6825TIP3    H241891   3.913   1.356  14.227
 6826TIP3   OH241892   5.276   1.446  14.843
 6826TIP3    H141893   5.183   1.445  14.866
 6826TIP3    H241894   5.293   1.536  14.815
 6827TIP3   OH241895   5.343   0.282  15.029
 6827TIP3    H141896   5.269   0.294  14.969
 6827TIP3    H241897   5.420   0.298  14.974
 6828TIP3   OH241898   4.553   0.042  14.728
 6828TIP3    H141899   4.542  -0.052  14.739
 6828TIP3    H241900   4.470   0.079  14.759
 6829TIP3   OH241901   5.087   1.605  14.455
 6829TIP3    H141902   5.126   1.519  14.437
 6829TIP3    H241903   5.162   1.664  14.463
 6830TIP3   OH241904   5.213   1.373  14.398
 6830TIP3    H141905   5.226   1.315  14.323
 6830TIP3    H241906   5.226   1.316  14.474
 6831TIP3   OH241907   5.377   1.233  15.205
 6831TIP3    H141908   5.366   1.179  15.127
 6831TIP3    H241909   5.383   1.323  15.172
 6832TIP3   OH241910   4.814   0.940  14.203
 6832TIP3    H141911   4.748   1.005  14.181
 6832TIP3    H241912   4.877   0.946  14.131
 6833TIP3   OH241913   4.852   0.804  13.859
 6833TIP3    H141914   4.910   0.837  13.928
 6833TIP3    H241915   4.906   0.744  13.808
 6834TIP3   OH241916   5.539   0.910  15.042
 6834TIP3    H141917   5.467   0.972  15.027
 6834TIP3    H241918   5.598   0.923  14.967
 6835TIP3   OH241919   5.176   0.974  14.272
 6835TIP3    H141920   5.106   0.995  14.334
 6835TIP3    H241921   5.243   0.930  14.324
 6836TIP3   OH241922   5.146   0.768  15.225
 6836TIP3    H141923   5.138   0.838  15.289
 6836TIP3    H241924   5.087   0.795  15.154
 6837TIP3   OH241925   4.313   1.011  14.476
 6837TIP3    H141926   4.288   0.978  14.389
 6837TIP3    H241927   4.372   0.944  14.511
 6838TIP3   OH241928   4.476   1.371  14.733
 6838TIP3    H141929   4.471   1.381  14.638
 6838TIP3    H241930   4.552   1.315  14.748
 6839TIP3   OH241931   4.333   0.907  14.849
 6839TIP3    H141932   4.381   0.887  14.769
 6839TIP3    H241933   4.382   0.980  14.888
 6840TIP3   OH241934   5.024   1.452  14.936
 6840TIP3    H141935   4.992   1.533  14.978
 6840TIP3    H241936   4.963   1.385  14.967
 6841TIP3   OH241937   4.470   1.342  15.317
 6841TIP3    H141938   4.410   1.404  15.357
 6841TIP3    H241939   4.427   1.316  15.235
 6842TIP3   OH241940   5.046   0.895  14.042
 6842TIP3    H141941   5.094   0.933  14.115
 6842TIP3    H241942   5.097   0.920  13.964
 6843TIP3   OH241943   4.142   0.923  15.297
 6843TIP3    H141944   4.150   1.013  15.329
 6843TIP3    H241945   4.057   0.920  15.255
 6844TIP3   OH241946   4.823   1.543  14.398
 6844TIP3    H141947   4.914   1.569  14.417
 6844TIP3    H241948   4.791   1.613  14.340
 6845TIP3   OH241949   4.273   1.525  15.383
 6845TIP3    H141950   4.277   1.555  15.292
 6845TIP3    H241951   4.179   1.518  15.402
 6846TIP3   OH241952   5.389   0.115  14.051
 6846TIP3    H141953   5.349   0.063  13.981
 6846TIP3    H241954   5.457   0.166  14.007
 6847TIP3   OH241955   4.232   0.925  14.220
 6847TIP3    H141956   4.186   0.998  14.179
 6847TIP3    H241957   4.185   0.847  14.190
 6848TIP3   OH241958   5.556   1.487  13.897
 6848TIP3    H141959   5.572   1.581  13.892
 6848TIP3    H241960   5.643   1.448  13.892
 6849TIP3   OH241961   3.840   1.166  15.134
 6849TIP3    H141962   3.790   1.186  15.055
 6849TIP3    H241963   3.856   1.072  15.130
 6850TIP3   OH241964   3.818   1.456  14.812
 6850TIP3    H141965   3.912   1.454  14.832
 6850TIP3    H241966   3.786   1.535  14.856
 6851TIP3   OH241967   5.632   1.538  15.409
 6851TIP3    H141968   5.621   1.444  15.395
 6851TIP3    H241969   5.546   1.569  15.438
 6852TIP3   OH241970   4.712   1.463  15.265
 6852TIP3    H141971   4.708   1.550  15.306
 6852TIP3    H241972   4.626   1.425  15.280
 6853TIP3   OH241973   4.806   1.807  14.249
 6853TIP3    H141974   4.790   1.809  14.155
 6853TIP3    H241975   4.770   1.890  14.281
 6854TIP3   OH241976   4.133   1.712  14.435
 6854TIP3    H141977   4.157   1.679  14.521
 6854TIP3    H241978   4.084   1.641  14.394
 6855TIP3   OH241979   5.098   1.773  13.929
 6855TIP3    H141980   5.143   1.699  13.889
 6855TIP3    H241981   5.107   1.759  14.023
 6856TIP3   OH241982   5.073   1.754  14.207
 6856TIP3    H141983   4.979   1.769  14.220
 6856TIP3    H241984   5.098   1.693  14.276
 6857TIP3   OH241985   5.330   0.654  15.421
 6857TIP3    H141986   5.267   0.690  15.359
 6857TIP3    H241987   5.339   0.562  15.395
 6858TIP3   OH241988   4.064   1.318  15.196
 6858TIP3    H141989   4.085   1.280  15.281
 6858TIP3    H241990   3.985   1.272  15.168
 6859TIP3   OH241991   4.303   0.129  14.817
 6859TIP3    H141992   4.223   0.150  14.767
 6859TIP3    H241993   4.286   0.164  14.904
 6860TIP3   OH241994   4.783   0.110  15.176
 6860TIP3    H141995   4.817   0.041  15.233
 6860TIP3    H241996   4.688   0.104  15.185
 6861TIP3   OH241997   5.070   0.498  15.219
 6861TIP3    H141998   5.029   0.481  15.304
 6861TIP3    H241999   5.099   0.590  15.223
 6862TIP3   OH242000   5.198   0.948  13.826
 6862TIP3    H142001   5.171   0.963  13.735
 6862TIP3    H242002   5.291   0.967  13.826
 6863TIP3   OH242003   4.757   0.359  13.923
 6863TIP3    H142004   4.688   0.345  13.988
 6863TIP3    H242005   4.732   0.302  13.850
 6864TIP3   OH242006   4.319   0.653  14.952
 6864TIP3    H142007   4.250   0.655  15.018
 6864TIP3    H242008   4.322   0.743  14.917
 6865TIP3   OH242009   4.335   0.664  14.436
 6865TIP3    H142010   4.239   0.656  14.428
 6865TIP3    H242011   4.367   0.649  14.347
 6866TIP3   OH242012   4.883   0.697  14.312
 6866TIP3    H142013   4.852   0.782  14.279
 6866TIP3    H242014   4.953   0.673  14.251
 6867TIP3   OH242015   4.800   0.723  15.462
 6867TIP3    H142016   4.746   0.650  15.491
 6867TIP3    H242017   4.885   0.709  15.504
 6868TIP3   OH242018   4.974   0.638  14.571
 6868TIP3    H142019   4.938   0.695  14.502
 6868TIP3    H242020   5.015   0.566  14.523
 6869TIP3   OH242021   4.100   0.667  15.120
 6869TIP3    H142022   4.054   0.721  15.184
 6869TIP3    H242023   4.062   0.580  15.130
 6870TIP3   OH242024   4.434   0.372  13.789
 6870TIP3    H142025   4.397   0.367  13.877
 6870TIP3    H242026   4.380   0.437  13.744
 6871TIP3   OH242027   3.747   0.337  14.529
 6871TIP3    H142028   3.808   0.374  14.593
 6871TIP3    H242029   3.790   0.348  14.445
 6872TIP3   OH242030   3.833   0.460  14.043
 6872TIP3    H142031   3.903   0.497  13.989
 6872TIP3    H242032   3.771   0.532  14.053
 6873TIP3   OH242033   4.932   0.790  15.034
 6873TIP3    H142034   4.961   0.729  14.967
 6873TIP3    H242035   4.869   0.741  15.086
 6874TIP3   OH242036   4.633   0.406  14.530
 6874TIP3    H142037   4.539   0.405  14.549
 6874TIP3    H242038   4.673   0.358  14.602
 6875TIP3   OH242039   4.072   0.580  14.406
 6875TIP3    H142040   3.997   0.609  14.356
 6875TIP3    H242041   4.090   0.491  14.373
 6876TIP3   OH242042   4.411   0.592  14.183
 6876TIP3    H142043   4.506   0.585  14.190
 6876TIP3    H242044   4.395   0.631  14.097
 6877TIP3   OH242045   5.051   0.327  14.855
 6877TIP3    H142046   4.976   0.323  14.915
 6877TIP3    H242047   5.031   0.261  14.788
 6878TIP3   OH242048   4.362   0.675  13.930
 6878TIP3    H142049   4.311   0.647  13.855
 6878TIP3    H242050   4.435   0.724  13.893
 6879TIP3   OH242051   5.368   1.901  15.497
 6879TIP3    H142052   5.390   1.939  15.412
 6879TIP3    H242053   5.441   1.926  15.554
 6880TIP3   OH242054   4.122   1.168  15.431
 6880TIP3    H142055   4.190   1.169  15.498
 6880TIP3    H242056   4.040   1.177  15.479
 6881TIP3   OH242057   4.719   0.714  14.704
 6881TIP3    H142058   4.787   0.674  14.651
 6881TIP3    H242059   4.698   0.648  14.770
 6882TIP3   OH242060   4.190   0.316  14.367
 6882TIP3    H142061   4.139   0.238  14.390
 6882TIP3    H242062   4.215   0.302  14.275
 6883TIP3   OH242063   4.589   0.624  14.978
 6883TIP3    H142064   4.496   0.625  14.958
 6883TIP3    H242065   4.609   0.713  15.007
 6884TIP3   OH242066   4.621   1.134  14.136
 6884TIP3    H142067   4.550   1.095  14.085
 6884TIP3    H242068   4.581   1.156  14.220
 6885TIP3   OH242069   5.345   1.091  14.972
 6885TIP3    H142070   5.403   1.147  14.920
 6885TIP3    H242071   5.272   1.072  14.914
 6886TIP3   OH242072   5.010   0.397  14.007
 6886TIP3    H142073   4.921   0.397  13.973
 6886TIP3    H242074   5.027   0.489  14.028
 6887TIP3   OH242075   4.778   1.171  15.269
 6887TIP3    H142076   4.809   1.148  15.356
 6887TIP3    H242077   4.754   1.264  15.276
 6888TIP3   OH242078   5.089   0.637  14.133
 6888TIP3    H142079   5.183   0.630  14.150
 6888TIP3    H242080   5.079   0.721  14.088
 6889TIP3   OH242081   4.163   1.099  14.690
 6889TIP3    H142082   4.212   1.082  14.609
 6889TIP3    H242083   4.186   1.026  14.748
 6890TIP3   OH242084   4.840   1.280  14.061
 6890TIP3    H142085   4.811   1.371  14.066
 6890TIP3    H242086   4.761   1.230  14.083
 6891TIP3   OH242087   3.877   0.874  15.217
 6891TIP3    H142088   3.837   0.845  15.299
 6891TIP3    H242089   3.806   0.870  15.153
 6892TIP3   OH242090   4.574   0.894  15.465
 6892TIP3    H142091   4.516   0.858  15.399
 6892TIP3    H242092   4.659   0.853  15.448
 6893TIP3   OH242093   4.991   1.431  15.271
 6893TIP3    H142094   4.898   1.446  15.251
 6893TIP3    H242095   5.000   1.461  15.361
 6894TIP3   OH242096   5.547   0.680  14.089
 6894TIP3    H142097   5.501   0.658  14.008
 6894TIP3    H242098   5.577   0.770  14.075
 6895TIP3   OH242099   5.601   1.263  15.363
 6895TIP3    H142100   5.511   1.265  15.331
 6895TIP3    H242101   5.653   1.239  15.286
 6896TIP3   OH242102   5.423   1.511  14.140
 6896TIP3    H142103   5.362   1.439  14.156
 6896TIP3    H242104   5.460   1.493  14.054
 6897TIP3   OH242105   5.137   1.017  14.796
 6897TIP3    H142106   5.042   1.010  14.788
 6897TIP3    H242107   5.171   0.943  14.745
 6898TIP3   OH242108   4.409   1.442  14.470
 6898TIP3    H142109   4.438   1.527  14.436
 6898TIP3    H242110   4.315   1.439  14.449
 6899TIP3   OH242111   3.986   0.899  13.930
 6899TIP3    H142112   4.029   0.973  13.973
 6899TIP3    H242113   3.894   0.908  13.953
 6900TIP3   OH242114   4.491   1.198  14.365
 6900TIP3    H142115   4.478   1.286  14.400
 6900TIP3    H242116   4.426   1.144  14.410
 6901TIP3   OH242117   4.601   1.619  15.038
 6901TIP3    H142118   4.654   1.695  15.015
 6901TIP3    H242119   4.660   1.563  15.088
 6902TIP3   OH242120   4.403   1.703  14.365
 6902TIP3    H142121   4.310   1.724  14.373
 6902TIP3    H242122   4.448   1.782  14.395
 6903TIP3   OH242123   4.887   1.219  15.017
 6903TIP3    H142124   4.854   1.196  15.104
 6903TIP3    H242125   4.964   1.163  15.005
 6904TIP3   OH242126   5.192   1.329  13.924
 6904TIP3    H142127   5.200   1.289  14.011
 6904TIP3    H242128   5.106   1.302  13.893
 6905TIP3   OH242129   5.200   1.658  15.223
 6905TIP3    H142130   5.116   1.620  15.197
 6905TIP3    H242131   5.211   1.734  15.166
 6906TIP3   OH242132   5.601   1.758  13.917
 6906TIP3    H142133   5.632   1.823  13.853
 6906TIP3    H242134   5.528   1.802  13.961
 6907TIP3   OH242135   3.986   0.416  15.165
 6907TIP3    H142136   3.894   0.442  15.157
 6907TIP3    H242137   3.985   0.344  15.227
 6908TIP3   OH242138   5.278   1.213  14.170
 6908TIP3    H142139   5.235   1.132  14.197
 6908TIP3    H242140   5.371   1.191  14.166
 6909TIP3   OH242141   3.995   1.605  15.032
 6909TIP3    H142142   4.026   1.528  15.080
 6909TIP3    H242143   4.014   1.679  15.089
 6910TIP3   OH242144   4.555   1.422  13.762
 6910TIP3    H142145   4.562   1.338  13.716
 6910TIP3    H242146   4.515   1.400  13.846
 6911TIP3   OH242147   4.442   1.384  14.013
 6911TIP3    H142148   4.494   1.329  14.071
 6911TIP3    H242149   4.453   1.473  14.047
 6912TIP3   OH242150   4.085   1.113  14.082
 6912TIP3    H142151   4.012   1.157  14.124
 6912TIP3    H242152   4.126   1.180  14.028
 6913TIP3   OH242153   4.854   0.359  15.098
 6913TIP3    H142154   4.939   0.385  15.132
 6913TIP3    H242155   4.844   0.267  15.124
 6914TIP3   OH242156   4.998   0.291  14.258
 6914TIP3    H142157   4.995   0.321  14.167
 6914TIP3    H242158   5.035   0.364  14.307
 6915TIP3   OH242159   4.744   1.532  14.079
 6915TIP3    H142160   4.656   1.562  14.099
 6915TIP3    H242161   4.787   1.609  14.042
 6916TIP3   OH242162   4.670   0.523  14.282
 6916TIP3    H142163   4.742   0.586  14.286
 6916TIP3    H242164   4.655   0.498  14.373
 6917TIP3   OH242165   4.798   0.625  15.211
 6917TIP3    H142166   4.795   0.671  15.294
 6917TIP3    H242167   4.875   0.568  15.217
 6918TIP3   OH242168   4.750   0.209  14.355
 6918TIP3    H142169   4.724   0.287  14.405
 6918TIP3    H242170   4.835   0.232  14.318
 6919TIP3   OH242171   4.492   1.633  14.112
 6919TIP3    H142172   4.487   1.708  14.054
 6919TIP3    H242173   4.458   1.665  14.196
 6920TIP3   OH242174   4.332   0.347  14.054
 6920TIP3    H142175   4.322   0.437  14.087
 6920TIP3    H242176   4.420   0.321  14.082
 6921TIP3   OH242177   5.331   0.412  15.276
 6921TIP3    H142178   5.237   0.423  15.264
 6921TIP3    H242179   5.362   0.374  15.194
 6922TIP3   OH242180   5.216   0.769  14.670
 6922TIP3    H142181   5.131   0.729  14.651
 6922TIP3    H242182   5.261   0.705  14.725
 6923TIP3   OH242183   4.182   1.323  13.927
 6923TIP3    H142184   4.258   1.367  13.965
 6923TIP3    H242185   4.217   1.272  13.855
 6924TIP3   OH242186   3.981   0.626  13.883
 6924TIP3    H142187   3.991   0.719  13.902
 6924TIP3    H242188   3.968   0.621  13.789
 6925TIP3   OH242189   5.342   1.719  14.835
 6925TIP3    H142190   5.324   1.789  14.772
 6925TIP3    H242191   5.437   1.718  14.843
 6926TIP3   OH242192   4.053   0.143  14.703
 6926TIP3    H142193   4.052   0.129  14.608
 6926TIP3    H242194   4.015   0.062  14.739
 6927TIP3   OH242195   3.959   1.508  14.339
 6927TIP3    H142196   3.903   1.537  14.412
 6927TIP3    H242197   3.938   1.569  14.268
 6928TIP3   OH242198   3.929   1.813  15.523
 6928TIP3    H142199   3.992   1.795  15.593
 6928TIP3    H242200   3.911   1.727  15.485
 6929TIP3   OH242201   4.346   1.621  15.631
 6929TIP3    H142202   4.424   1.569  15.650
 6929TIP3    H242203   4.320   1.594  15.542
 6930TIP3   OH242204   4.761   1.610  13.759
 6930TIP3    H142205   4.694   1.542  13.768
 6930TIP3    H242206   4.838   1.563  13.729
 6931TIP3   OH242207   5.007   1.490  15.543
 6931TIP3    H142208   4.992   1.405  15.583
 6931TIP3    H242209   5.087   1.522  15.585
 6932TIP3   OH242210   5.216   1.569  13.790
 6932TIP3    H142211   5.227   1.487  13.838
 6932TIP3    H242212   5.287   1.570  13.726
 6933TIP3   OH242213   3.876   1.168  15.566
 6933TIP3    H142214   3.882   1.073  15.554
 6933TIP3    H242215   3.809   1.196  15.504
 6934TIP3   OH242216   4.318   1.144  13.772
 6934TIP3    H142217   4.346   1.098  13.851
 6934TIP3    H242218   4.399   1.155  13.721
 6935TIP3   OH242219   4.543   1.172  15.520
 6935TIP3    H142220   4.528   1.216  15.437
 6935TIP3    H242221   4.568   1.082  15.496
 6936TIP3   OH242222   4.947   1.269  13.807
 6936TIP3    H142223   4.898   1.266  13.890
 6936TIP3    H242224   4.922   1.188  13.763
 6937TIP3   OH242225   5.112   1.182  15.277
 6937TIP3    H142226   5.202   1.206  15.255
 6937TIP3    H242227   5.062   1.264  15.267
 6938TIP3   OH242228   3.956   0.905  15.521
 6938TIP3    H142229   4.034   0.893  15.467
 6938TIP3    H242230   3.985   0.890  15.611
 6939TIP3   OH242231   4.422   1.003  13.996
 6939TIP3    H142232   4.368   0.952  14.056
 6939TIP3    H242233   4.471   0.937  13.946
 6940TIP3   OH242234   4.393   0.789  15.276
 6940TIP3    H142235   4.309   0.834  15.272
 6940TIP3    H242236   4.443   0.826  15.202
 6941TIP3   OH242237   4.573   0.827  13.842
 6941TIP3    H142238   4.566   0.853  13.750
 6941TIP3    H242239   4.666   0.813  13.857
 6942TIP3   OH242240   4.886   1.022  15.554
 6942TIP3    H142241   4.959   0.980  15.510
 6942TIP3    H242242   4.851   0.955  15.612
 6943TIP3   OH242243   5.464   1.015  13.784
 6943TIP3    H142244   5.464   0.993  13.691
 6943TIP3    H242245   5.458   1.111  13.787
 6944TIP3   OH242246   4.468   0.523  15.292
 6944TIP3    H142247   4.386   0.475  15.301
 6944TIP3    H242248   4.441   0.615  15.288
 6945TIP3   OH242249   4.468   0.344  15.037
 6945TIP3    H142250   4.488   0.358  14.944
 6945TIP3    H242251   4.373   0.343  15.041
 6946TIP3   OH242252   4.591   0.884  15.095
 6946TIP3    H142253   4.673   0.920  15.128
 6946TIP3    H242254   4.547   0.957  15.053
 6947TIP3   OH242255   5.025   0.665  15.616
 6947TIP3    H142256   5.038   0.594  15.679
 6947TIP3    H242257   5.111   0.707  15.609
 6948TIP3   OH242258   5.147   0.963  15.431
 6948TIP3    H142259   5.118   1.041  15.382
 6948TIP3    H242260   5.242   0.969  15.431
 6949TIP3   OH242261   4.276   0.609  15.568
 6949TIP3    H142262   4.195   0.561  15.548
 6949TIP3    H242263   4.277   0.682  15.506
 6950TIP3   OH242264   4.506   0.132  15.215
 6950TIP3    H142265   4.489   0.205  15.156
 6950TIP3    H242266   4.442   0.065  15.190
 6951TIP3   OH242267   4.651   0.498  15.505
 6951TIP3    H142268   4.622   0.443  15.578
 6951TIP3    H242269   4.575   0.503  15.447
 6952TIP3   OH242270   4.912   0.434  15.424
 6952TIP3    H142271   4.827   0.439  15.467
 6952TIP3    H242272   4.971   0.403  15.493
 6953TIP3   OH242273   5.110   0.344  15.605
 6953TIP3    H142274   5.086   0.252  15.601
 6953TIP3    H242275   5.078   0.373  15.691
 6954TIP3   OH242276   4.068   0.441  15.508
 6954TIP3    H142277   4.057   0.369  15.446
 6954TIP3    H242278   4.066   0.400  15.594
 6955TIP3   OH242279   4.622   0.011  15.432
 6955TIP3    H142280   4.551  -0.015  15.491
 6955TIP3    H242281   4.579   0.060  15.362
 6956TIP3   OH242282   4.635   0.225  15.629
 6956TIP3    H142283   4.637   0.151  15.569
 6956TIP3    H242284   4.545   0.256  15.627
 6957TIP3   OH242285   4.485   1.836  13.927
 6957TIP3    H142286   4.534   1.906  13.884
 6957TIP3    H242287   4.398   1.873  13.942
 6958TIP3   OH242288   3.904   1.341  13.899
 6958TIP3    H142289   3.999   1.355  13.899
 6958TIP3    H242290   3.890   1.280  13.826
 6959TIP3   OH242291   3.767   1.847  14.414
 6959TIP3    H142292   3.726   1.814  14.334
 6959TIP3    H242293   3.791   1.768  14.463
 6960TIP3   OH242294   3.841   1.627  14.572
 6960TIP3    H142295   3.802   1.555  14.621
 6960TIP3    H242296   3.891   1.677  14.638
 6961TIP3   OH242297   5.610   1.723  14.899
 6961TIP3    H142298   5.611   1.735  14.994
 6961TIP3    H242299   5.684   1.775  14.868
 6962TIP3   OH242300   5.553   1.698  15.178
 6962TIP3    H142301   5.499   1.627  15.142
 6962TIP3    H242302   5.602   1.656  15.249
 6963TIP3   OH242303   5.398   1.276  15.713
 6963TIP3    H142304   5.312   1.291  15.753
 6963TIP3    H242305   5.442   1.361  15.718
 6964TIP3   OH242306   5.543   1.129  14.188
 6964TIP3    H142307   5.617   1.190  14.187
 6964TIP3    H242308   5.564   1.068  14.258
 6965TIP3   OH242309   5.592   0.929  14.375
 6965TIP3    H142310   5.504   0.900  14.399
 6965TIP3    H242311   5.637   0.940  14.458
 6966TIP3   OH242312   5.589   1.214  14.894
 6966TIP3    H142313   5.631   1.156  14.830
 6966TIP3    H242314   5.607   1.302  14.862
 6967TIP3   OH242315   5.384   1.488  15.098
 6967TIP3    H142316   5.311   1.538  15.134
 6967TIP3    H242317   5.360   1.472  15.007
 6968TIP3   OH242318   5.610   0.934  14.003
 6968TIP3    H142319   5.563   0.951  13.921
 6968TIP3    H242320   5.583   1.005  14.061
 6969TIP3   OH242321   5.425   0.643  13.852
 6969TIP3    H142322   5.428   0.690  13.769
 6969TIP3    H242323   5.394   0.555  13.829
 6970TIP3   OH242324   5.346   0.818  14.430
 6970TIP3    H142325   5.344   0.731  14.390
 6970TIP3    H242326   5.304   0.806  14.515
 6971TIP3   OH242327   3.834   0.962  14.841
 6971TIP3    H142328   3.846   0.961  14.746
 6971TIP3    H242329   3.923   0.949  14.876
 6972TIP3   OH242330   5.419   1.000  15.412
 6972TIP3    H142331   5.483   0.932  15.392
 6972TIP3    H242332   5.438   1.070  15.350
 6973TIP3   OH242333   5.574   0.775  15.397
 6973TIP3    H142334   5.487   0.735  15.408
 6973TIP3    H242335   5.635   0.703  15.412
 6974TIP3   OH242336   5.345   0.392  13.789
 6974TIP3    H142337   5.412   0.325  13.776
 6974TIP3    H242338   5.274   0.367  13.730
 6975TIP3   OH242339   5.352   0.582  14.266
 6975TIP3    H142340   5.382   0.492  14.265
 6975TIP3    H242341   5.413   0.630  14.210
 6976TIP3   OH242342   5.375   0.585  14.819
 6976TIP3    H142343   5.466   0.606  14.798
 6976TIP3    H242344   5.367   0.605  14.912
 6977TIP3   OH242345   5.389   0.681  15.082
 6977TIP3    H142346   5.309   0.712  15.123
 6977TIP3    H242347   5.442   0.760  15.068
 6978TIP3   OH242348   3.805   0.511  15.466
 6978TIP3    H142349   3.898   0.491  15.473
 6978TIP3    H242350   3.763   0.425  15.458
 6979TIP3   OH242351   5.647   0.039  15.605
 6979TIP3    H142352   5.677  -0.051  15.597
 6979TIP3    H242353   5.559   0.038  15.565
 6980TIP3   OH242354   5.376   0.299  14.265
 6980TIP3    H142355   5.298   0.299  14.320
 6980TIP3    H242356   5.345   0.271  14.179
 6981TIP3   OH242357   3.925   0.381  14.742
 6981TIP3    H142358   3.962   0.293  14.731
 6981TIP3    H242359   4.002   0.438  14.754
 6982TIP3   OH242360   3.758   0.667  14.808
 6982TIP3    H142361   3.827   0.648  14.745
 6982TIP3    H242362   3.774   0.758  14.834
 6983TIP3   OH242363   5.578   0.296  15.437
 6983TIP3    H142364   5.499   0.328  15.482
 6983TIP3    H242365   5.544   0.251  15.359
 6984TIP3   OH242366   5.587   0.250  13.928
 6984TIP3    H142367   5.631   0.193  13.865
 6984TIP3    H242368   5.648   0.322  13.942
 6985TIP3   OH242369   3.792   0.285  14.247
 6985TIP3    H142370   3.696   0.281  14.243
 6985TIP3    H242371   3.815   0.350  14.180
 6986TIP3   OH242372   5.292   1.779  14.453
 6986TIP3    H142373   5.357   1.772  14.383
 6986TIP3    H242374   5.328   1.846  14.512
 6987TIP3   OH242375   3.819   0.097  15.055
 6987TIP3    H142376   3.742   0.083  15.111
 6987TIP3    H242377   3.796   0.173  15.002
 6988TIP3   OH242378   4.011   1.512  15.478
 6988TIP3    H142379   3.922   1.510  15.443
 6988TIP3    H242380   4.002   1.478  15.568
 6989TIP3   OH242381   4.338   1.591  15.116
 6989TIP3    H142382   4.305   1.675  15.086
 6989TIP3    H242383   4.432   1.594  15.096
 6990TIP3   OH242384   4.717   1.708  15.397
 6990TIP3    H142385   4.733   1.682  15.487
 6990TIP3    H242386   4.794   1.760  15.373
 6991TIP3   OH242387   4.948   1.852  15.356
 6991TIP3    H142388   5.016   1.814  15.300
 6991TIP3    H242389   4.994   1.879  15.435
 6992TIP3   OH242390   5.448   0.088  15.194
 6992TIP3    H142391   5.406   0.157  15.143
 6992TIP3    H242392   5.419   0.006  15.154
 6993TIP3   OH242393   4.033   1.871  15.139
 6993TIP3    H142394   3.959   1.916  15.099
 6993TIP3    H242395   4.050   1.919  15.220
 6994TIP3   OH242396   4.292   1.850  15.037
 6994TIP3    H142397   4.201   1.866  15.063
 6994TIP3    H242398   4.303   1.901  14.957
 6995TIP3   OH242399   4.750   1.835  14.950
 6995TIP3    H142400   4.708   1.869  14.871
 6995TIP3    H242401   4.768   1.912  15.003
 6996TIP3   OH242402   4.979   1.709  15.044
 6996TIP3    H142403   4.898   1.746  15.008
 6996TIP3    H242404   5.048   1.767  15.012
 6997TIP3   OH242405   5.235   1.864  15.044
 6997TIP3    H142406   5.243   1.957  15.020
 6997TIP3    H242407   5.270   1.817  14.968
 6998TIP3   OH242408   3.992   1.741  14.791
 6998TIP3    H142409   3.994   1.699  14.877
 6998TIP3    H242410   4.071   1.710  14.748
 6999TIP3   OH242411   4.210   1.623  14.685
 6999TIP3    H142412   4.199   1.532  14.713
 6999TIP3    H242413   4.298   1.646  14.713
 7000TIP3   OH242414   4.470   1.645  14.789
 7000TIP3    H142415   4.480   1.555  14.760
 7000TIP3    H242416   4.505   1.646  14.878
 7001TIP3   OH242417   4.753   0.236  14.710
 7001TIP3    H142418   4.691   0.164  14.719
 7001TIP3    H242419   4.835   0.194  14.682
 7002TIP3   OH242420   5.291   0.049  14.694
 7002TIP3    H142421   5.351   0.071  14.622
 7002TIP3    H242422   5.213   0.102  14.677
 7003TIP3   OH242423   5.482   0.081  14.473
 7003TIP3    H142424   5.541   0.025  14.523
 7003TIP3    H242425   5.517   0.169  14.485
 7004TIP3   OH242426   4.048   0.084  14.434
 7004TIP3    H142427   3.978   0.074  14.369
 7004TIP3    H242428   4.088  -0.003  14.440
 7005TIP3   OH242429   3.955   0.101  14.100
 7005TIP3    H142430   3.997   0.146  14.027
 7005TIP3    H242431   3.891   0.163  14.134
 7006TIP3   OH242432   4.535   0.053  14.438
 7006TIP3    H142433   4.614   0.095  14.402
 7006TIP3    H242434   4.545   0.061  14.533
 7007TIP3   OH242435   5.020   0.166  14.627
 7007TIP3    H142436   5.030   0.228  14.555
 7007TIP3    H242437   5.025   0.080  14.585
 7008TIP3   OH242438   5.162   0.073  14.233
 7008TIP3    H142439   5.100   0.145  14.239
 7008TIP3    H242440   5.148   0.035  14.146
 7009TIP3   OH242441   3.892   1.688  14.152
 7009TIP3    H142442   3.833   1.673  14.078
 7009TIP3    H242443   3.927   1.776  14.136
 7010TIP3   OH242444   4.099   0.257  13.913
 7010TIP3    H142445   4.132   0.211  13.835
 7010TIP3    H242446   4.178   0.289  13.956
 7011TIP3   OH242447   4.589   0.302  14.141
 7011TIP3    H142448   4.637   0.236  14.191
 7011TIP3    H242449   4.612   0.385  14.182
 7012TIP3   OH242450   4.824   1.778  13.973
 7012TIP3    H142451   4.916   1.793  13.949
 7012TIP3    H242452   4.784   1.743  13.893
 7013TIP3   OH242453   5.478   1.756  14.249
 7013TIP3    H142454   5.462   1.668  14.217
 7013TIP3    H242455   5.460   1.813  14.174
 7014TIP3   OH242456   4.007   0.216  15.363
 7014TIP3    H142457   3.926   0.166  15.364
 7014TIP3    H242458   4.067   0.166  15.418
 7015TIP3   OH242459   4.167   0.090  15.558
 7015TIP3    H142460   4.257   0.062  15.576
 7015TIP3    H242461   4.117   0.009  15.552
 7016TIP3   OH242462   4.101   1.671  13.787
 7016TIP3    H142463   4.105   1.745  13.847
 7016TIP3    H242464   4.190   1.636  13.787
 7017TIP3   OH242465   5.060   0.078  15.582
 7017TIP3    H142466   5.116   0.030  15.644
 7017TIP3    H242467   5.037   0.014  15.516
 7018TIP3   OH242468   5.369   1.631  15.443
 7018TIP3    H142469   5.311   1.626  15.367
 7018TIP3    H242470   5.371   1.724  15.466
 7019TIP3   OH242471   6.825   1.030  14.426
 7019TIP3    H142472   6.816   1.126  14.425
 7019TIP3    H242473   6.767   1.000  14.356
 7020TIP3   OH242474   6.702   0.950  14.812
 7020TIP3    H142475   6.728   0.904  14.892
 7020TIP3    H242476   6.674   0.881  14.752
 7021TIP3   OH242477   5.971   0.906  14.940
 7021TIP3    H142478   5.973   0.823  14.988
 7021TIP3    H242479   6.040   0.959  14.981
 7022TIP3   OH242480   7.111   1.236  14.656
 7022TIP3    H142481   7.060   1.171  14.705
 7022TIP3    H242482   7.130   1.305  14.720
 7023TIP3   OH242483   6.093   1.360  14.772
 7023TIP3    H142484   6.065   1.271  14.750
 7023TIP3    H242485   6.189   1.355  14.772
 7024TIP3   OH242486   5.727   0.692  14.306
 7024TIP3    H142487   5.693   0.777  14.331
 7024TIP3    H242488   5.678   0.667  14.228
 7025TIP3   OH242489   5.782   0.928  14.577
 7025TIP3    H142490   5.815   0.839  14.591
 7025TIP3    H242491   5.853   0.973  14.532
 7026TIP3   OH242492   6.821   1.726  14.693
 7026TIP3    H142493   6.846   1.667  14.622
 7026TIP3    H242494   6.799   1.669  14.766
 7027TIP3   OH242495   6.567   1.195  14.831
 7027TIP3    H142496   6.604   1.113  14.798
 7027TIP3    H242497   6.637   1.234  14.882
 7028TIP3   OH242498   6.874   0.601  14.847
 7028TIP3    H142499   6.894   0.507  14.855
 7028TIP3    H242500   6.878   0.618  14.753
 7029TIP3   OH242501   6.188   0.410  14.573
 7029TIP3    H142502   6.205   0.488  14.520
 7029TIP3    H242503   6.145   0.349  14.512
 7030TIP3   OH242504   6.999   0.464  14.428
 7030TIP3    H142505   7.044   0.409  14.493
 7030TIP3    H242506   7.069   0.498  14.373
 7031TIP3   OH242507   5.872   0.675  14.644
 7031TIP3    H142508   5.934   0.633  14.703
 7031TIP3    H242509   5.892   0.639  14.558
 7032TIP3   OH242510   6.400   0.794  14.573
 7032TIP3    H142511   6.475   0.781  14.632
 7032TIP3    H242512   6.326   0.758  14.621
 7033TIP3   OH242513   6.091   0.342  15.000
 7033TIP3    H142514   6.066   0.394  14.924
 7033TIP3    H242515   6.018   0.351  15.061
 7034TIP3   OH242516   6.771   1.285  14.342
 7034TIP3    H142517   6.779   1.286  14.246
 7034TIP3    H242518   6.723   1.365  14.363
 7035TIP3   OH242519   6.357   1.114  14.990
 7035TIP3    H142520   6.302   1.186  15.021
 7035TIP3    H242521   6.424   1.157  14.937
 7036TIP3   OH242522   7.107   0.322  14.639
 7036TIP3    H142523   7.151   0.242  14.668
 7036TIP3    H242524   7.143   0.391  14.695
 7037TIP3   OH242525   6.048   0.510  14.784
 7037TIP3    H142526   6.112   0.564  14.830
 7037TIP3    H242527   6.098   0.469  14.714
 7038TIP3   OH242528   6.202   1.318  15.091
 7038TIP3    H142529   6.210   1.411  15.071
 7038TIP3    H242530   6.110   1.307  15.116
 7039TIP3   OH242531   5.772   1.290  14.166
 7039TIP3    H142532   5.766   1.325  14.077
 7039TIP3    H242533   5.795   1.366  14.219
 7040TIP3   OH242534   7.143   1.457  14.848
 7040TIP3    H142535   7.049   1.459  14.861
 7040TIP3    H242536   7.166   1.545  14.817
 7041TIP3   OH242537   7.171   0.304  14.964
 7041TIP3    H142538   7.079   0.295  14.940
 7041TIP3    H242539   7.203   0.377  14.911
 7042TIP3   OH242540   6.425   0.051  14.729
 7042TIP3    H142541   6.447  -0.032  14.772
 7042TIP3    H242542   6.349   0.083  14.777
 7043TIP3   OH242543   6.919   1.574  14.485
 7043TIP3    H142544   6.966   1.493  14.466
 7043TIP3    H242545   6.986   1.642  14.480
 7044TIP3   OH242546   7.096   1.380  14.415
 7044TIP3    H142547   7.101   1.325  14.336
 7044TIP3    H242548   7.107   1.318  14.487
 7045TIP3   OH242549   7.232   1.232  15.261
 7045TIP3    H142550   7.236   1.168  15.189
 7045TIP3    H242551   7.241   1.317  15.218
 7046TIP3   OH242552   6.699   0.958  14.189
 7046TIP3    H142553   6.633   1.023  14.164
 7046TIP3    H242554   6.764   0.961  14.119
 7047TIP3   OH242555   6.735   0.770  13.901
 7047TIP3    H142556   6.796   0.828  13.946
 7047TIP3    H242557   6.788   0.726  13.835
 7048TIP3   OH242558   7.055   0.959  14.293
 7048TIP3    H142559   6.980   0.992  14.343
 7048TIP3    H242560   7.101   0.901  14.355
 7049TIP3   OH242561   7.005   0.802  15.177
 7049TIP3    H142562   7.014   0.893  15.205
 7049TIP3    H242563   6.930   0.802  15.118
 7050TIP3   OH242564   6.205   0.987  14.489
 7050TIP3    H142565   6.166   0.968  14.404
 7050TIP3    H242566   6.282   0.930  14.493
 7051TIP3   OH242567   6.369   1.374  14.729
 7051TIP3    H142568   6.367   1.383  14.634
 7051TIP3    H242569   6.444   1.317  14.746
 7052TIP3   OH242570   6.270   0.911  14.829
 7052TIP3    H142571   6.292   0.948  14.743
 7052TIP3    H242572   6.298   0.978  14.891
 7053TIP3   OH242573   6.876   1.480  14.912
 7053TIP3    H142574   6.867   1.542  14.984
 7053TIP3    H242575   6.840   1.398  14.946
 7054TIP3   OH242576   6.358   1.338  15.317
 7054TIP3    H142577   6.299   1.401  15.360
 7054TIP3    H242578   6.314   1.315  15.236
 7055TIP3   OH242579   6.943   0.905  14.044
 7055TIP3    H142580   6.986   0.933  14.124
 7055TIP3    H242581   6.998   0.940  13.974
 7056TIP3   OH242582   6.024   0.931  15.264
 7056TIP3    H142583   6.033   1.016  15.307
 7056TIP3    H242584   5.931   0.926  15.241
 7057TIP3   OH242585   6.663   1.539  14.392
 7057TIP3    H142586   6.748   1.555  14.432
 7057TIP3    H242587   6.649   1.616  14.335
 7058TIP3   OH242588   6.160   1.521  15.383
 7058TIP3    H142589   6.165   1.553  15.293
 7058TIP3    H242590   6.067   1.511  15.401
 7059TIP3   OH242591   6.095   0.922  14.239
 7059TIP3    H142592   6.063   0.999  14.192
 7059TIP3    H242593   6.049   0.848  14.199
 7060TIP3   OH242594   5.723   1.175  15.135
 7060TIP3    H142595   5.675   1.189  15.054
 7060TIP3    H242596   5.735   1.080  15.140
 7061TIP3   OH242597   5.690   1.465  14.823
 7061TIP3    H142598   5.778   1.473  14.860
 7061TIP3    H242599   5.646   1.546  14.850
 7062TIP3   OH242600   6.601   1.459  15.266
 7062TIP3    H142601   6.596   1.546  15.306
 7062TIP3    H242602   6.515   1.420  15.283
 7063TIP3   OH242603   6.680   1.805  14.248
 7063TIP3    H142604   6.660   1.810  14.154
 7063TIP3    H242605   6.651   1.890  14.282
 7064TIP3   OH242606   6.024   1.706  14.432
 7064TIP3    H142607   6.041   1.672  14.520
 7064TIP3    H242608   5.967   1.641  14.391
 7065TIP3   OH242609   6.967   1.767  13.924
 7065TIP3    H142610   7.009   1.694  13.879
 7065TIP3    H242611   6.974   1.745  14.017
 7066TIP3   OH242612   6.938   1.722  14.197
 7066TIP3    H142613   6.848   1.744  14.223
 7066TIP3    H242614   6.960   1.646  14.251
 7067TIP3   OH242615   7.155   0.717  15.444
 7067TIP3    H142616   7.137   0.697  15.352
 7067TIP3    H242617   7.234   0.668  15.465
 7068TIP3   OH242618   5.948   1.321  15.196
 7068TIP3    H142619   5.964   1.289  15.285
 7068TIP3    H242620   5.868   1.277  15.168
 7069TIP3   OH242621   6.180   0.117  14.858
 7069TIP3    H142622   6.103   0.119  14.799
 7069TIP3    H242623   6.168   0.193  14.914
 7070TIP3   OH242624   6.669   0.122  15.169
 7070TIP3    H142625   6.715   0.058  15.223
 7070TIP3    H242626   6.579   0.120  15.200
 7071TIP3   OH242627   7.022   0.524  15.258
 7071TIP3    H142628   6.947   0.500  15.313
 7071TIP3    H242629   6.998   0.607  15.219
 7072TIP3   OH242630   7.119   1.022  13.868
 7072TIP3    H142631   7.097   1.004  13.777
 7072TIP3    H242632   7.118   1.118  13.874
 7073TIP3   OH242633   6.629   0.351  13.931
 7073TIP3    H142634   6.562   0.341  13.998
 7073TIP3    H242635   6.605   0.286  13.865
 7074TIP3   OH242636   6.220   0.665  14.937
 7074TIP3    H142637   6.153   0.675  15.005
 7074TIP3    H242638   6.234   0.753  14.904
 7075TIP3   OH242639   6.221   0.627  14.409
 7075TIP3    H142640   6.125   0.629  14.410
 7075TIP3    H242641   6.243   0.635  14.316
 7076TIP3   OH242642   6.754   0.720  14.307
 7076TIP3    H142643   6.733   0.805  14.270
 7076TIP3    H242644   6.832   0.692  14.258
 7077TIP3   OH242645   6.677   0.711  15.434
 7077TIP3    H142646   6.633   0.634  15.470
 7077TIP3    H242647   6.766   0.706  15.469
 7078TIP3   OH242648   6.838   0.638  14.572
 7078TIP3    H142649   6.821   0.704  14.506
 7078TIP3    H242650   6.891   0.572  14.528
 7079TIP3   OH242651   6.001   0.678  15.108
 7079TIP3    H142652   5.991   0.730  15.187
 7079TIP3    H242653   5.956   0.595  15.127
 7080TIP3   OH242654   6.310   0.396  13.783
 7080TIP3    H142655   6.257   0.380  13.861
 7080TIP3    H242656   6.265   0.467  13.737
 7081TIP3   OH242657   5.621   0.310  14.525
 7081TIP3    H142658   5.679   0.350  14.589
 7081TIP3    H242659   5.665   0.324  14.441
 7082TIP3   OH242660   5.725   0.465  14.052
 7082TIP3    H142661   5.793   0.499  13.993
 7082TIP3    H242662   5.661   0.536  14.057
 7083TIP3   OH242663   6.772   0.783  15.021
 7083TIP3    H142664   6.812   0.724  14.957
 7083TIP3    H242665   6.717   0.726  15.074
 7084TIP3   OH242666   6.463   0.460  14.559
 7084TIP3    H142667   6.379   0.422  14.585
 7084TIP3    H242668   6.528   0.393  14.582
 7085TIP3   OH242669   5.954   0.572  14.403
 7085TIP3    H142670   5.877   0.604  14.356
 7085TIP3    H242671   5.965   0.482  14.372
 7086TIP3   OH242672   6.366   0.633  14.179
 7086TIP3    H142673   6.447   0.601  14.139
 7086TIP3    H242674   6.313   0.663  14.105
 7087TIP3   OH242675   6.909   0.325  14.878
 7087TIP3    H142676   6.840   0.326  14.944
 7087TIP3    H242677   6.880   0.260  14.813
 7088TIP3   OH242678   6.241   0.688  13.946
 7088TIP3    H142679   6.184   0.667  13.871
 7088TIP3    H242680   6.319   0.727  13.907
 7089TIP3   OH242681   7.233   1.914  15.505
 7089TIP3    H142682   7.235   2.006  15.481
 7089TIP3    H242683   7.325   1.891  15.519
 7090TIP3   OH242684   6.002   1.149  15.436
 7090TIP3    H142685   6.072   1.158  15.500
 7090TIP3    H242686   5.922   1.170  15.484
 7091TIP3   OH242687   6.607   0.701  14.720
 7091TIP3    H142688   6.687   0.664  14.682
 7091TIP3    H242689   6.580   0.637  14.786
 7092TIP3   OH242690   6.051   0.310  14.347
 7092TIP3    H142691   6.012   0.227  14.373
 7092TIP3    H242692   6.083   0.296  14.258
 7093TIP3   OH242693   6.479   0.562  14.941
 7093TIP3    H142694   6.395   0.609  14.944
 7093TIP3    H242695   6.525   0.591  15.020
 7094TIP3   OH242696   6.499   1.147  14.129
 7094TIP3    H142697   6.430   1.104  14.078
 7094TIP3    H242698   6.459   1.161  14.215
 7095TIP3   OH242699   7.187   1.081  15.016
 7095TIP3    H142700   7.256   1.067  14.951
 7095TIP3    H242701   7.106   1.073  14.967
 7096TIP3   OH242702   6.887   0.402  14.002
 7096TIP3    H142703   6.797   0.398  13.970
 7096TIP3    H242704   6.903   0.495  14.018
 7097TIP3   OH242705   6.723   1.194  15.269
 7097TIP3    H142706   6.701   1.149  15.350
 7097TIP3    H242707   6.677   1.278  15.274
 7098TIP3   OH242708   6.962   0.642  14.142
 7098TIP3    H142709   7.052   0.625  14.170
 7098TIP3    H242710   6.967   0.722  14.091
 7099TIP3   OH242711   6.055   1.091  14.702
 7099TIP3    H142712   6.104   1.061  14.625
 7099TIP3    H242713   6.045   1.013  14.756
 7100TIP3   OH242714   6.726   1.283  14.061
 7100TIP3    H142715   6.699   1.375  14.063
 7100TIP3    H242716   6.647   1.233  14.081
 7101TIP3   OH242717   5.752   0.902  15.220
 7101TIP3    H142718   5.718   0.866  15.302
 7101TIP3    H242719   5.682   0.886  15.156
 7102TIP3   OH242720   6.460   0.886  15.467
 7102TIP3    H142721   6.399   0.856  15.400
 7102TIP3    H242722   6.543   0.844  15.445
 7103TIP3   OH242723   6.885   1.477  15.254
 7103TIP3    H142724   6.791   1.465  15.238
 7103TIP3    H242725   6.892   1.478  15.350
 7104TIP3   OH242726   6.973   1.033  14.836
 7104TIP3    H142727   6.884   1.023  14.804
 7104TIP3    H242728   7.019   0.954  14.805
 7105TIP3   OH242729   6.303   1.441  14.465
 7105TIP3    H142730   6.341   1.521  14.431
 7105TIP3    H242731   6.210   1.448  14.446
 7106TIP3   OH242732   5.875   0.890  13.931
 7106TIP3    H142733   5.917   0.966  13.972
 7106TIP3    H242734   5.782   0.901  13.950
 7107TIP3   OH242735   6.370   1.190  14.365
 7107TIP3    H142736   6.363   1.280  14.398
 7107TIP3    H242737   6.308   1.140  14.418
 7108TIP3   OH242738   6.488   1.614  15.039
 7108TIP3    H142739   6.543   1.688  15.016
 7108TIP3    H242740   6.546   1.555  15.088
 7109TIP3   OH242741   6.289   1.703  14.356
 7109TIP3    H142742   6.196   1.717  14.371
 7109TIP3    H242743   6.331   1.782  14.391
 7110TIP3   OH242744   6.789   1.228  14.998
 7110TIP3    H142745   6.770   1.205  15.089
 7110TIP3    H242746   6.855   1.164  14.971
 7111TIP3   OH242747   7.055   1.290  13.934
 7111TIP3    H142748   7.070   1.273  14.027
 7111TIP3    H242749   6.960   1.284  13.923
 7112TIP3   OH242750   7.095   1.658  15.227
 7112TIP3    H142751   7.015   1.606  15.215
 7112TIP3    H242752   7.086   1.729  15.164
 7113TIP3   OH242753   5.865   0.395  15.153
 7113TIP3    H142754   5.783   0.444  15.140
 7113TIP3    H242755   5.837   0.304  15.165
 7114TIP3   OH242756   7.135   1.212  14.193
 7114TIP3    H142757   7.121   1.121  14.220
 7114TIP3    H242758   7.229   1.221  14.184
 7115TIP3   OH242759   5.886   1.595  15.029
 7115TIP3    H142760   5.918   1.518  15.077
 7115TIP3    H242761   5.902   1.668  15.089
 7116TIP3   OH242762   6.444   1.423  13.770
 7116TIP3    H142763   6.449   1.340  13.722
 7116TIP3    H242764   6.399   1.399  13.852
 7117TIP3   OH242765   6.322   1.393  14.019
 7117TIP3    H142766   6.384   1.344  14.073
 7117TIP3    H242767   6.334   1.485  14.045
 7118TIP3   OH242768   5.970   1.111  14.082
 7118TIP3    H142769   5.897   1.159  14.122
 7118TIP3    H242770   6.015   1.177  14.029
 7119TIP3   OH242771   6.767   0.371  15.115
 7119TIP3    H142772   6.841   0.379  15.175
 7119TIP3    H242773   6.730   0.285  15.133
 7120TIP3   OH242774   6.826   0.332  14.259
 7120TIP3    H142775   6.858   0.349  14.170
 7120TIP3    H242776   6.890   0.374  14.316
 7121TIP3   OH242777   6.625   1.533  14.071
 7121TIP3    H142778   6.537   1.567  14.090
 7121TIP3    H242779   6.669   1.605  14.025
 7122TIP3   OH242780   6.606   0.500  14.274
 7122TIP3    H142781   6.666   0.575  14.269
 7122TIP3    H242782   6.662   0.424  14.280
 7123TIP3   OH242783   6.628   0.607  15.172
 7123TIP3    H142784   6.647   0.633  15.262
 7123TIP3    H242785   6.673   0.523  15.162
 7124TIP3   OH242786   6.611   0.193  14.348
 7124TIP3    H142787   6.620   0.211  14.442
 7124TIP3    H242788   6.696   0.217  14.311
 7125TIP3   OH242789   6.377   1.650  14.102
 7125TIP3    H142790   6.380   1.733  14.056
 7125TIP3    H242791   6.345   1.671  14.189
 7126TIP3   OH242792   6.200   0.365  14.048
 7126TIP3    H142793   6.198   0.460  14.053
 7126TIP3    H242794   6.287   0.340  14.079
 7127TIP3   OH242795   7.252   0.360  15.217
 7127TIP3    H142796   7.184   0.415  15.256
 7127TIP3    H242797   7.220   0.342  15.128
 7128TIP3   OH242798   7.084   0.801  14.737
 7128TIP3    H142799   7.100   0.802  14.642
 7128TIP3    H242800   7.098   0.710  14.763
 7129TIP3   OH242801   6.068   1.321  13.926
 7129TIP3    H142802   6.143   1.367  13.964
 7129TIP3    H242803   6.106   1.268  13.856
 7130TIP3   OH242804   5.864   0.613  13.874
 7130TIP3    H142805   5.875   0.708  13.881
 7130TIP3    H242806   5.839   0.599  13.783
 7131TIP3   OH242807   7.240   1.743  14.841
 7131TIP3    H142808   7.221   1.807  14.773
 7131TIP3    H242809   7.334   1.727  14.833
 7132TIP3   OH242810   5.932   0.134  14.722
 7132TIP3    H142811   5.937   0.118  14.628
 7132TIP3    H242812   5.897   0.053  14.759
 7133TIP3   OH242813   5.835   1.531  14.312
 7133TIP3    H142814   5.772   1.560  14.378
 7133TIP3    H242815   5.823   1.592  14.239
 7134TIP3   OH242816   5.807   1.815  15.523
 7134TIP3    H142817   5.871   1.793  15.591
 7134TIP3    H242818   5.776   1.731  15.491
 7135TIP3   OH242819   6.232   1.622  15.629
 7135TIP3    H142820   6.309   1.571  15.650
 7135TIP3    H242821   6.208   1.594  15.541
 7136TIP3   OH242822   6.651   1.603  13.758
 7136TIP3    H142823   6.584   1.536  13.766
 7136TIP3    H242824   6.728   1.557  13.724
 7137TIP3   OH242825   6.885   1.492  15.531
 7137TIP3    H142826   6.861   1.406  15.568
 7137TIP3    H242827   6.961   1.519  15.582
 7138TIP3   OH242828   7.085   1.541  13.816
 7138TIP3    H142829   7.091   1.453  13.853
 7138TIP3    H242830   7.175   1.575  13.820
 7139TIP3   OH242831   5.756   1.159  15.568
 7139TIP3    H142832   5.736   1.065  15.564
 7139TIP3    H242833   5.695   1.199  15.507
 7140TIP3   OH242834   6.199   1.142  13.769
 7140TIP3    H142835   6.229   1.092  13.845
 7140TIP3    H242836   6.278   1.156  13.717
 7141TIP3   OH242837   6.428   1.166  15.521
 7141TIP3    H142838   6.414   1.209  15.437
 7141TIP3    H242839   6.454   1.076  15.498
 7142TIP3   OH242840   6.789   1.273  13.791
 7142TIP3    H142841   6.753   1.270  13.880
 7142TIP3    H242842   6.773   1.186  13.755
 7143TIP3   OH242843   6.990   1.092  15.286
 7143TIP3    H142844   7.062   1.153  15.273
 7143TIP3    H242845   6.911   1.144  15.272
 7144TIP3   OH242846   5.875   0.859  15.519
 7144TIP3    H142847   5.935   0.917  15.473
 7144TIP3    H242848   5.888   0.881  15.612
 7145TIP3   OH242849   6.310   1.000  13.989
 7145TIP3    H142850   6.248   0.941  14.033
 7145TIP3    H242851   6.368   0.941  13.940
 7146TIP3   OH242852   6.268   0.789  15.279
 7146TIP3    H142853   6.190   0.842  15.266
 7146TIP3    H242854   6.331   0.822  15.215
 7147TIP3   OH242855   6.464   0.817  13.852
 7147TIP3    H142856   6.460   0.845  13.761
 7147TIP3    H242857   6.556   0.799  13.868
 7148TIP3   OH242858   6.773   1.014  15.566
 7148TIP3    H142859   6.863   0.988  15.545
 7148TIP3    H242860   6.738   0.941  15.617
 7149TIP3   OH242861   6.313   0.526  15.348
 7149TIP3    H142862   6.325   0.469  15.272
 7149TIP3    H242863   6.308   0.615  15.312
 7150TIP3   OH242864   6.340   0.380  15.111
 7150TIP3    H142865   6.397   0.421  15.046
 7150TIP3    H242866   6.255   0.372  15.068
 7151TIP3   OH242867   6.461   0.898  15.124
 7151TIP3    H142868   6.554   0.891  15.103
 7151TIP3    H242869   6.432   0.977  15.079
 7152TIP3   OH242870   6.914   0.668  15.590
 7152TIP3    H142871   6.931   0.595  15.649
 7152TIP3    H242872   6.996   0.681  15.543
 7153TIP3   OH242873   7.047   0.962  15.519
 7153TIP3    H142874   7.035   1.011  15.438
 7153TIP3    H242875   7.087   0.879  15.491
 7154TIP3   OH242876   6.144   0.594  15.554
 7154TIP3    H142877   6.089   0.669  15.531
 7154TIP3    H242878   6.200   0.581  15.478
 7155TIP3   OH242879   6.392   0.133  15.223
 7155TIP3    H142880   6.378   0.221  15.189
 7155TIP3    H242881   6.334   0.077  15.172
 7156TIP3   OH242882   6.544   0.483  15.509
 7156TIP3    H142883   6.518   0.445  15.593
 7156TIP3    H242884   6.463   0.487  15.458
 7157TIP3   OH242885   6.806   0.433  15.405
 7157TIP3    H142886   6.719   0.433  15.443
 7157TIP3    H242887   6.864   0.402  15.474
 7158TIP3   OH242888   6.987   0.355  15.602
 7158TIP3    H142889   6.981   0.260  15.604
 7158TIP3    H242890   6.953   0.383  15.687
 7159TIP3   OH242891   5.916   0.410  15.516
 7159TIP3    H142892   5.977   0.367  15.456
 7159TIP3    H242893   5.972   0.469  15.568
 7160TIP3   OH242894   6.486   0.003  15.442
 7160TIP3    H142895   6.410  -0.029  15.489
 7160TIP3    H242896   6.449   0.055  15.370
 7161TIP3   OH242897   6.497   0.193  15.684
 7161TIP3    H142898   6.524   0.127  15.620
 7161TIP3    H242899   6.421   0.236  15.645
 7162TIP3   OH242900   6.443   1.893  13.984
 7162TIP3    H142901   6.532   1.861  13.972
 7162TIP3    H242902   6.430   1.955  13.912
 7163TIP3   OH242903   5.797   1.351  13.890
 7163TIP3    H142904   5.892   1.351  13.901
 7163TIP3    H242905   5.781   1.284  13.823
 7164TIP3   OH242906   5.668   1.856  14.420
 7164TIP3    H142907   5.613   1.826  14.348
 7164TIP3    H242908   5.686   1.778  14.471
 7165TIP3   OH242909   5.730   1.635  14.575
 7165TIP3    H142910   5.689   1.560  14.617
 7165TIP3    H242911   5.778   1.679  14.645
 7166TIP3   OH242912   7.249   1.456  15.110
 7166TIP3    H142913   7.204   1.533  15.144
 7166TIP3    H242914   7.220   1.449  15.020
 7167TIP3   OH242915   7.189   0.795  14.477
 7167TIP3    H142916   7.230   0.722  14.431
 7167TIP3    H242917   7.262   0.847  14.512
 7168TIP3   OH242918   5.719   0.946  14.841
 7168TIP3    H142919   5.730   0.952  14.746
 7168TIP3    H242920   5.809   0.941  14.875
 7169TIP3   OH242921   7.244   0.375  13.830
 7169TIP3    H142922   7.291   0.403  13.751
 7169TIP3    H242923   7.154   0.364  13.801
 7170TIP3   OH242924   7.215   0.546  14.270
 7170TIP3    H142925   7.265   0.495  14.334
 7170TIP3    H242926   7.253   0.522  14.185
 7171TIP3   OH242927   7.247   0.509  14.797
 7171TIP3    H142928   7.326   0.469  14.761
 7171TIP3    H242929   7.276   0.594  14.831
 7172TIP3   OH242930   7.278   0.731  15.136
 7172TIP3    H142931   7.183   0.745  15.130
 7172TIP3    H242932   7.307   0.724  15.045
 7173TIP3   OH242933   5.701   0.536  15.403
 7173TIP3    H142934   5.788   0.507  15.431
 7173TIP3    H242935   5.646   0.458  15.413
 7174TIP3   OH242936   7.159   0.128  14.380
 7174TIP3    H142937   7.224   0.197  14.374
 7174TIP3    H242938   7.128   0.116  14.290
 7175TIP3   OH242939   5.799   0.373  14.741
 7175TIP3    H142940   5.842   0.288  14.737
 7175TIP3    H242941   5.871   0.435  14.756
 7176TIP3   OH242942   5.636   0.671  14.800
 7176TIP3    H142943   5.706   0.651  14.738
 7176TIP3    H242944   5.653   0.761  14.828
 7177TIP3   OH242945   5.661   0.282  14.242
 7177TIP3    H142946   5.566   0.292  14.242
 7177TIP3    H242947   5.692   0.345  14.178
 7178TIP3   OH242948   7.104   1.767  14.461
 7178TIP3    H142949   7.153   1.778  14.379
 7178TIP3    H242950   7.165   1.794  14.529
 7179TIP3   OH242951   5.712   0.152  15.107
 7179TIP3    H142952   5.634   0.119  15.150
 7179TIP3    H242953   5.680   0.204  15.034
 7180TIP3   OH242954   5.900   1.493  15.476
 7180TIP3    H142955   5.810   1.506  15.446
 7180TIP3    H242956   5.892   1.483  15.571
 7181TIP3   OH242957   6.226   1.596  15.119
 7181TIP3    H142958   6.195   1.683  15.092
 7181TIP3    H242959   6.319   1.595  15.098
 7182TIP3   OH242960   6.597   1.708  15.394
 7182TIP3    H142961   6.613   1.681  15.484
 7182TIP3    H242962   6.675   1.759  15.370
 7183TIP3   OH242963   6.827   1.852  15.352
 7183TIP3    H142964   6.893   1.804  15.301
 7183TIP3    H242965   6.873   1.877  15.433
 7184TIP3   OH242966   5.920   1.874  15.136
 7184TIP3    H142967   5.843   1.915  15.096
 7184TIP3    H242968   5.932   1.922  15.218
 7185TIP3   OH242969   6.181   1.858  15.047
 7185TIP3    H142970   6.089   1.868  15.070
 7185TIP3    H242971   6.190   1.902  14.963
 7186TIP3   OH242972   6.632   1.833  14.952
 7186TIP3    H142973   6.588   1.867  14.874
 7186TIP3    H242974   6.643   1.910  15.008
 7187TIP3   OH242975   6.861   1.722  15.055
 7187TIP3    H142976   6.783   1.759  15.013
 7187TIP3    H242977   6.932   1.782  15.032
 7188TIP3   OH242978   7.098   1.871  15.037
 7188TIP3    H142979   7.099   1.963  15.009
 7188TIP3    H242980   7.147   1.825  14.969
 7189TIP3   OH242981   5.882   1.742  14.794
 7189TIP3    H142982   5.880   1.697  14.879
 7189TIP3    H242983   5.960   1.708  14.750
 7190TIP3   OH242984   6.098   1.620  14.686
 7190TIP3    H142985   6.088   1.529  14.714
 7190TIP3    H242986   6.187   1.644  14.714
 7191TIP3   OH242987   6.361   1.649  14.789
 7191TIP3    H142988   6.373   1.561  14.754
 7191TIP3    H242989   6.394   1.643  14.879
 7192TIP3   OH242990   6.612   0.236  14.623
 7192TIP3    H142991   6.562   0.170  14.671
 7192TIP3    H242992   6.704   0.211  14.637
 7193TIP3   OH242993   7.207   0.054  14.683
 7193TIP3    H142994   7.290   0.008  14.694
 7193TIP3    H242995   7.187   0.044  14.590
 7194TIP3   OH242996   5.954   0.066  14.448
 7194TIP3    H142997   5.906   0.010  14.386
 7194TIP3    H242998   6.016   0.007  14.490
 7195TIP3   OH242999   5.820   0.086  14.101
 7195TIP3    H143000   5.876   0.126  14.035
 7195TIP3    H243001   5.767   0.158  14.134
 7196TIP3   OH243002   6.395   0.050  14.445
 7196TIP3    H143003   6.470   0.088  14.399
 7196TIP3    H243004   6.415   0.063  14.538
 7197TIP3   OH243005   6.875   0.165  14.642
 7197TIP3    H143006   6.950   0.222  14.626
 7197TIP3    H243007   6.896   0.084  14.597
 7198TIP3   OH243008   7.084   0.111  14.112
 7198TIP3    H143009   7.000   0.151  14.086
 7198TIP3    H243010   7.098   0.042  14.047
 7199TIP3   OH243011   5.800   1.713  14.109
 7199TIP3    H143012   5.728   1.708  14.047
 7199TIP3    H243013   5.828   1.804  14.107
 7200TIP3   OH243014   5.990   0.219  13.933
 7200TIP3    H143015   6.027   0.187  13.851
 7200TIP3    H243016   6.058   0.274  13.971
 7201TIP3   OH243017   6.450   0.308  14.148
 7201TIP3    H143018   6.491   0.232  14.190
 7201TIP3    H243019   6.488   0.384  14.194
 7202TIP3   OH243020   6.693   1.784  13.956
 7202TIP3    H143021   6.787   1.800  13.945
 7202TIP3    H243022   6.669   1.734  13.878
 7203TIP3   OH243023   5.887   0.126  15.426
 7203TIP3    H143024   5.873   0.031  15.421
 7203TIP3    H243025   5.980   0.135  15.448
 7204TIP3   OH243026   6.129   0.164  15.544
 7204TIP3    H143027   6.191   0.234  15.560
 7204TIP3    H243028   6.176   0.084  15.569
 7205TIP3   OH243029   6.000   1.750  13.805
 7205TIP3    H143030   5.976   1.741  13.897
 7205TIP3    H243031   6.076   1.693  13.795
 7206TIP3   OH243032   6.995   0.086  15.602
 7206TIP3    H143033   6.996   0.011  15.661
 7206TIP3    H243034   7.051   0.060  15.529
 7207TIP3   OH243035   7.239   1.629  15.462
 7207TIP3    H143036   7.193   1.617  15.379
 7207TIP3    H243037   7.234   1.723  15.479
 7208TIP3   OH243038   1.167   2.923  14.438
 7208TIP3    H143039   1.154   3.016  14.424
 7208TIP3    H243040   1.110   2.881  14.373
 7209TIP3   OH243041   1.077   2.837  14.827
 7209TIP3    H143042   1.105   2.781  14.900
 7209TIP3    H243043   1.036   2.776  14.765
 7210TIP3   OH243044   0.319   2.765  14.931
 7210TIP3    H143045   0.317   2.687  14.986
 7210TIP3    H243046   0.411   2.777  14.909
 7211TIP3   OH243047   1.451   3.140  14.645
 7211TIP3    H143048   1.414   3.063  14.687
 7211TIP3    H243049   1.474   3.198  14.718
 7212TIP3   OH243050   0.418   3.255  14.773
 7212TIP3    H143051   0.398   3.165  14.746
 7212TIP3    H243052   0.512   3.255  14.789
 7213TIP3   OH243053   0.128   2.609  14.302
 7213TIP3    H143054   0.056   2.650  14.350
 7213TIP3    H243055   0.084   2.556  14.235
 7214TIP3   OH243056   0.166   2.815  14.596
 7214TIP3    H143057   0.180   2.721  14.607
 7214TIP3    H243058   0.185   2.831  14.504
 7215TIP3   OH243059   1.195   3.619  14.684
 7215TIP3    H143060   1.234   3.568  14.613
 7215TIP3    H243061   1.123   3.565  14.716
 7216TIP3   OH243062   0.910   3.088  14.825
 7216TIP3    H143063   0.943   3.011  14.779
 7216TIP3    H243064   0.984   3.117  14.878
 7217TIP3   OH243065   1.808   2.213  14.926
 7217TIP3    H143066   1.821   2.286  14.986
 7217TIP3    H243067   1.866   2.232  14.852
 7218TIP3   OH243068   1.231   2.483  14.847
 7218TIP3    H143069   1.273   2.398  14.858
 7218TIP3    H243070   1.222   2.493  14.752
 7219TIP3   OH243071   0.590   2.309  14.567
 7219TIP3    H143072   0.603   2.395  14.526
 7219TIP3    H243073   0.544   2.258  14.501
 7220TIP3   OH243074   1.342   2.336  14.423
 7220TIP3    H143075   1.390   2.306  14.500
 7220TIP3    H243076   1.409   2.373  14.366
 7221TIP3   OH243077   0.208   2.547  14.660
 7221TIP3    H143078   0.288   2.512  14.700
 7221TIP3    H243079   0.209   2.510  14.571
 7222TIP3   OH243080   0.710   2.709  14.627
 7222TIP3    H143081   0.797   2.675  14.649
 7222TIP3    H243082   0.677   2.647  14.562
 7223TIP3   OH243083   1.841   2.386  15.147
 7223TIP3    H143084   1.776   2.450  15.116
 7223TIP3    H243085   1.815   2.367  15.237
 7224TIP3   OH243086   0.429   2.232  15.002
 7224TIP3    H143087   0.409   2.286  14.925
 7224TIP3    H243088   0.355   2.247  15.061
 7225TIP3   OH243089   1.115   3.173  14.340
 7225TIP3    H143090   1.117   3.175  14.244
 7225TIP3    H243091   1.084   3.260  14.365
 7226TIP3   OH243092   0.708   2.992  14.987
 7226TIP3    H143093   0.649   3.062  15.017
 7226TIP3    H243094   0.771   3.037  14.930
 7227TIP3   OH243095   1.472   2.277  14.656
 7227TIP3    H143096   1.503   2.196  14.696
 7227TIP3    H243097   1.521   2.347  14.700
 7228TIP3   OH243098   0.420   2.390  14.770
 7228TIP3    H143099   0.478   2.444  14.824
 7228TIP3    H243100   0.477   2.357  14.701
 7229TIP3   OH243101   0.551   3.195  15.089
 7229TIP3    H143102   0.557   3.290  15.077
 7229TIP3    H243103   0.461   3.180  15.118
 7230TIP3   OH243104   0.112   3.165  14.153
 7230TIP3    H143105   0.111   3.192  14.061
 7230TIP3    H243106   0.150   3.239  14.199
 7231TIP3   OH243107   1.494   3.337  14.852
 7231TIP3    H143108   1.401   3.341  14.876
 7231TIP3    H243109   1.515   3.426  14.824
 7232TIP3   OH243110   1.540   2.137  15.021
 7232TIP3    H143111   1.463   2.170  14.975
 7232TIP3    H243112   1.614   2.160  14.964
 7233TIP3   OH243113   0.800   1.914  14.745
 7233TIP3    H143114   0.767   1.824  14.740
 7233TIP3    H243115   0.724   1.965  14.772
 7234TIP3   OH243116   1.318   3.506  14.462
 7234TIP3    H143117   1.354   3.419  14.444
 7234TIP3    H243118   1.395   3.563  14.469
 7235TIP3   OH243119   1.437   3.272  14.401
 7235TIP3    H143120   1.452   3.214  14.326
 7235TIP3    H243121   1.443   3.216  14.478
 7236TIP3   OH243122   1.597   3.131  15.204
 7236TIP3    H143123   1.588   3.073  15.128
 7236TIP3    H243124   1.608   3.218  15.167
 7237TIP3   OH243125   1.044   2.832  14.203
 7237TIP3    H143126   0.979   2.896  14.174
 7237TIP3    H243127   1.111   2.832  14.135
 7238TIP3   OH243128   1.078   2.702  13.860
 7238TIP3    H143129   1.134   2.727  13.933
 7238TIP3    H243130   1.130   2.639  13.810
 7239TIP3   OH243131   1.773   2.793  15.033
 7239TIP3    H143132   1.701   2.854  15.017
 7239TIP3    H243133   1.828   2.800  14.954
 7240TIP3   OH243134   1.388   2.878  14.275
 7240TIP3    H143135   1.318   2.897  14.338
 7240TIP3    H243136   1.444   2.815  14.320
 7241TIP3   OH243137   1.379   2.665  15.211
 7241TIP3    H143138   1.372   2.745  15.263
 7241TIP3    H243139   1.315   2.676  15.141
 7242TIP3   OH243140   0.556   2.897  14.476
 7242TIP3    H143141   0.528   2.860  14.393
 7242TIP3    H243142   0.613   2.831  14.515
 7243TIP3   OH243143   0.704   3.270  14.737
 7243TIP3    H143144   0.694   3.271  14.642
 7243TIP3    H243145   0.774   3.208  14.754
 7244TIP3   OH243146   0.582   2.782  14.860
 7244TIP3    H143147   0.625   2.768  14.775
 7244TIP3    H243148   0.624   2.860  14.895
 7245TIP3   OH243149   1.242   3.354  14.959
 7245TIP3    H143150   1.230   3.372  15.052
 7245TIP3    H243151   1.202   3.268  14.946
 7246TIP3   OH243152   0.696   3.227  15.321
 7246TIP3    H143153   0.633   3.286  15.362
 7246TIP3    H243154   0.653   3.199  15.239
 7247TIP3   OH243155   1.272   2.785  14.043
 7247TIP3    H143156   1.320   2.821  14.118
 7247TIP3    H243157   1.325   2.809  13.968
 7248TIP3   OH243158   0.382   2.823  15.259
 7248TIP3    H143159   0.384   2.896  15.320
 7248TIP3    H243160   0.331   2.856  15.184
 7249TIP3   OH243161   1.054   3.442  14.399
 7249TIP3    H143162   1.144   3.466  14.420
 7249TIP3    H243163   1.025   3.507  14.335
 7250TIP3   OH243164   0.494   3.407  15.391
 7250TIP3    H143165   0.497   3.432  15.299
 7250TIP3    H243166   0.401   3.401  15.412
 7251TIP3   OH243167   1.642   1.929  14.025
 7251TIP3    H143168   1.557   1.953  14.061
 7251TIP3    H243169   1.681   2.011  13.996
 7252TIP3   OH243170   0.463   2.806  14.226
 7252TIP3    H143171   0.411   2.871  14.179
 7252TIP3    H243172   0.420   2.723  14.208
 7253TIP3   OH243173   1.785   3.370  13.899
 7253TIP3    H143174   1.803   3.464  13.893
 7253TIP3    H243175   1.871   3.329  13.894
 7254TIP3   OH243176   0.186   2.995  15.108
 7254TIP3    H143177   0.149   2.984  15.021
 7254TIP3    H243178   0.132   2.939  15.165
 7255TIP3   OH243179   0.119   3.348  14.727
 7255TIP3    H143180   0.198   3.307  14.762
 7255TIP3    H243181   0.047   3.310  14.778
 7256TIP3   OH243182   1.866   3.420  15.411
 7256TIP3    H143183   1.856   3.326  15.396
 7256TIP3    H243184   1.780   3.449  15.442
 7257TIP3   OH243185   0.932   3.352  15.260
 7257TIP3    H143186   0.929   3.437  15.304
 7257TIP3    H243187   0.848   3.311  15.281
 7258TIP3   OH243188   1.037   3.703  14.243
 7258TIP3    H143189   1.013   3.700  14.150
 7258TIP3    H243190   0.996   3.783  14.276
 7259TIP3   OH243191   0.375   3.584  14.426
 7259TIP3    H143192   0.389   3.553  14.515
 7259TIP3    H243193   0.317   3.520  14.386
 7260TIP3   OH243194   1.317   3.660  13.928
 7260TIP3    H143195   1.363   3.587  13.887
 7260TIP3    H243196   1.329   3.646  14.022
 7261TIP3   OH243197   1.302   3.642  14.207
 7261TIP3    H143198   1.208   3.658  14.221
 7261TIP3    H243199   1.324   3.573  14.269
 7262TIP3   OH243200   1.553   2.538  15.412
 7262TIP3    H143201   1.496   2.576  15.346
 7262TIP3    H243202   1.558   2.445  15.388
 7263TIP3   OH243203   0.307   3.213  15.212
 7263TIP3    H143204   0.326   3.177  15.299
 7263TIP3    H243205   0.250   3.148  15.171
 7264TIP3   OH243206   0.555   2.033  14.835
 7264TIP3    H143207   0.482   2.023  14.774
 7264TIP3    H243208   0.529   2.105  14.892
 7265TIP3   OH243209   1.031   2.003  15.168
 7265TIP3    H143210   1.076   1.951  15.235
 7265TIP3    H243211   0.938   1.987  15.184
 7266TIP3   OH243212   1.326   2.389  15.241
 7266TIP3    H143213   1.260   2.377  15.309
 7266TIP3    H243214   1.325   2.483  15.223
 7267TIP3   OH243215   1.423   2.844  13.826
 7267TIP3    H143216   1.401   2.850  13.733
 7267TIP3    H243217   1.517   2.861  13.829
 7268TIP3   OH243218   0.979   2.238  13.896
 7268TIP3    H143219   0.921   2.236  13.971
 7268TIP3    H243220   0.943   2.173  13.836
 7269TIP3   OH243221   0.562   2.532  14.964
 7269TIP3    H143222   0.491   2.538  15.027
 7269TIP3    H243223   0.574   2.622  14.932
 7270TIP3   OH243224   0.589   2.553  14.439
 7270TIP3    H143225   0.495   2.539  14.437
 7270TIP3    H243226   0.617   2.537  14.348
 7271TIP3   OH243227   1.110   2.586  14.314
 7271TIP3    H143228   1.084   2.671  14.278
 7271TIP3    H243229   1.180   2.556  14.257
 7272TIP3   OH243230   1.017   2.584  15.435
 7272TIP3    H143231   0.975   2.505  15.469
 7272TIP3    H243232   1.106   2.580  15.470
 7273TIP3   OH243233   1.204   2.526  14.573
 7273TIP3    H143234   1.167   2.577  14.500
 7273TIP3    H243235   1.247   2.452  14.531
 7274TIP3   OH243236   0.333   2.555  15.120
 7274TIP3    H143237   0.322   2.619  15.190
 7274TIP3    H243238   0.283   2.479  15.148
 7275TIP3   OH243239   0.667   2.291  13.802
 7275TIP3    H143240   0.627   2.277  13.888
 7275TIP3    H243241   0.609   2.356  13.760
 7276TIP3   OH243242   0.068   2.328  14.471
 7276TIP3    H143243   0.095   2.296  14.557
 7276TIP3    H243244   0.106   2.265  14.410
 7277TIP3   OH243245   0.045   2.367  14.032
 7277TIP3    H143246   0.104   2.425  13.983
 7277TIP3    H243247   0.000   2.316  13.965
 7278TIP3   OH243248   1.161   2.665  15.033
 7278TIP3    H143249   1.193   2.606  14.964
 7278TIP3    H243250   1.093   2.616  15.078
 7279TIP3   OH243251   0.871   2.269  14.523
 7279TIP3    H143252   0.781   2.273  14.556
 7279TIP3    H243253   0.921   2.230  14.595
 7280TIP3   OH243254   0.334   2.465  14.418
 7280TIP3    H143255   0.264   2.503  14.364
 7280TIP3    H243256   0.349   2.378  14.380
 7281TIP3   OH243257   0.636   2.480  14.178
 7281TIP3    H143258   0.731   2.470  14.186
 7281TIP3    H243259   0.623   2.521  14.093
 7282TIP3   OH243260   1.287   2.208  14.896
 7282TIP3    H143261   1.207   2.222  14.947
 7282TIP3    H243262   1.256   2.173  14.812
 7283TIP3   OH243263   0.584   2.580  13.929
 7283TIP3    H143264   0.532   2.551  13.855
 7283TIP3    H243265   0.662   2.620  13.890
 7284TIP3   OH243266   1.583   3.781  15.496
 7284TIP3    H143267   1.612   3.804  15.407
 7284TIP3    H243268   1.660   3.798  15.551
 7285TIP3   OH243269   0.361   3.039  15.436
 7285TIP3    H143270   0.416   3.041  15.513
 7285TIP3    H243271   0.272   3.049  15.470
 7286TIP3   OH243272   0.949   2.592  14.720
 7286TIP3    H143273   1.021   2.554  14.669
 7286TIP3    H243274   0.922   2.523  14.780
 7287TIP3   OH243275   0.440   2.204  14.357
 7287TIP3    H143276   0.393   2.124  14.381
 7287TIP3    H243277   0.464   2.190  14.265
 7288TIP3   OH243278   0.820   2.434  14.943
 7288TIP3    H143279   0.734   2.477  14.950
 7288TIP3    H243280   0.870   2.468  15.017
 7289TIP3   OH243281   0.848   3.027  14.127
 7289TIP3    H143282   0.778   2.982  14.078
 7289TIP3    H243283   0.810   3.045  14.212
 7290TIP3   OH243284   1.571   2.977  14.977
 7290TIP3    H143285   1.631   3.027  14.923
 7290TIP3    H243286   1.497   2.958  14.920
 7291TIP3   OH243287   1.232   2.279  13.990
 7291TIP3    H143288   1.143   2.281  13.955
 7291TIP3    H243289   1.248   2.369  14.020
 7292TIP3   OH243290   1.062   3.090  15.258
 7292TIP3    H143291   1.043   3.036  15.336
 7292TIP3    H243292   1.004   3.165  15.266
 7293TIP3   OH243293   1.311   2.512  14.131
 7293TIP3    H143294   1.398   2.487  14.164
 7293TIP3    H243295   1.324   2.598  14.092
 7294TIP3   OH243296   0.415   2.994  14.695
 7294TIP3    H143297   0.460   2.970  14.614
 7294TIP3    H243298   0.380   2.912  14.729
 7295TIP3   OH243299   1.068   3.172  14.058
 7295TIP3    H143300   1.037   3.263  14.064
 7295TIP3    H243301   0.990   3.120  14.078
 7296TIP3   OH243302   0.070   2.809  15.268
 7296TIP3    H143303   0.099   2.779  15.354
 7296TIP3    H243304   0.030   2.731  15.228
 7297TIP3   OH243305   0.810   2.777  15.453
 7297TIP3    H143306   0.748   2.748  15.386
 7297TIP3    H243307   0.890   2.728  15.434
 7298TIP3   OH243308   1.210   3.366  15.249
 7298TIP3    H143309   1.117   3.350  15.236
 7298TIP3    H243310   1.223   3.360  15.344
 7299TIP3   OH243311   1.802   2.559  14.030
 7299TIP3    H143312   1.738   2.543  13.960
 7299TIP3    H243313   1.813   2.654  14.031
 7300TIP3   OH243314   1.828   3.150  15.355
 7300TIP3    H143315   1.737   3.147  15.326
 7300TIP3    H243316   1.879   3.123  15.278
 7301TIP3   OH243317   1.642   3.387  14.137
 7301TIP3    H143318   1.591   3.308  14.156
 7301TIP3    H243319   1.684   3.370  14.053
 7302TIP3   OH243320   1.355   2.914  14.803
 7302TIP3    H143321   1.261   2.906  14.788
 7302TIP3    H243322   1.393   2.834  14.766
 7303TIP3   OH243323   0.639   3.329  14.471
 7303TIP3    H143324   0.667   3.413  14.433
 7303TIP3    H243325   0.547   3.322  14.447
 7304TIP3   OH243326   0.178   2.806  13.903
 7304TIP3    H143327   0.234   2.858  13.960
 7304TIP3    H243328   0.089   2.831  13.927
 7305TIP3   OH243329   0.719   3.089  14.356
 7305TIP3    H143330   0.707   3.173  14.401
 7305TIP3    H243331   0.664   3.028  14.404
 7306TIP3   OH243332   0.824   3.505  15.040
 7306TIP3    H143333   0.890   3.568  15.009
 7306TIP3    H243334   0.874   3.441  15.091
 7307TIP3   OH243335   0.641   3.588  14.356
 7307TIP3    H143336   0.547   3.600  14.372
 7307TIP3    H243337   0.681   3.669  14.389
 7308TIP3   OH243338   1.136   3.102  14.991
 7308TIP3    H143339   1.111   3.084  15.081
 7308TIP3    H243340   1.173   3.019  14.960
 7309TIP3   OH243341   1.418   3.217  13.926
 7309TIP3    H143342   1.429   3.176  14.012
 7309TIP3    H243343   1.333   3.185  13.895
 7310TIP3   OH243344   1.411   3.546  15.214
 7310TIP3    H143345   1.347   3.476  15.232
 7310TIP3    H243346   1.372   3.595  15.142
 7311TIP3   OH243347   1.831   3.643  13.916
 7311TIP3    H143348   1.861   3.705  13.849
 7311TIP3    H243349   1.757   3.688  13.958
 7312TIP3   OH243350   0.212   2.280  15.205
 7312TIP3    H143351   0.117   2.291  15.199
 7312TIP3    H243352   0.224   2.188  15.227
 7313TIP3   OH243353   1.506   3.108  14.175
 7313TIP3    H143354   1.457   3.031  14.204
 7313TIP3    H243355   1.598   3.080  14.175
 7314TIP3   OH243356   0.246   3.480  15.030
 7314TIP3    H143357   0.275   3.391  15.050
 7314TIP3    H243358   0.186   3.502  15.101
 7315TIP3   OH243359   0.791   3.301  13.772
 7315TIP3    H143360   0.794   3.219  13.724
 7315TIP3    H243361   0.748   3.279  13.855
 7316TIP3   OH243362   0.667   3.276  14.019
 7316TIP3    H143363   0.719   3.223  14.080
 7316TIP3    H243364   0.681   3.366  14.048
 7317TIP3   OH243365   0.309   2.983  14.077
 7317TIP3    H143366   0.237   3.031  14.118
 7317TIP3    H243367   0.358   3.049  14.028
 7318TIP3   OH243368   1.107   2.261  15.110
 7318TIP3    H143369   1.192   2.273  15.152
 7318TIP3    H243370   1.082   2.172  15.132
 7319TIP3   OH243371   1.209   2.170  14.244
 7319TIP3    H143372   1.216   2.209  14.156
 7319TIP3    H243373   1.249   2.235  14.302
 7320TIP3   OH243374   0.972   3.426  14.081
 7320TIP3    H143375   0.882   3.456  14.094
 7320TIP3    H243376   1.014   3.496  14.032
 7321TIP3   OH243377   0.892   2.417  14.289
 7321TIP3    H143378   0.967   2.476  14.295
 7321TIP3    H243379   0.886   2.378  14.376
 7322TIP3   OH243380   0.982   2.503  15.162
 7322TIP3    H143381   0.992   2.521  15.255
 7322TIP3    H243382   1.020   2.416  15.149
 7323TIP3   OH243383   0.968   2.077  14.340
 7323TIP3    H143384   0.944   2.148  14.399
 7323TIP3    H243385   1.054   2.103  14.306
 7324TIP3   OH243386   0.721   3.534  14.100
 7324TIP3    H143387   0.725   3.619  14.055
 7324TIP3    H243388   0.691   3.556  14.188
 7325TIP3   OH243389   0.562   2.234  14.063
 7325TIP3    H143390   0.562   2.321  14.103
 7325TIP3    H243391   0.649   2.199  14.079
 7326TIP3   OH243392   1.572   2.283  15.271
 7326TIP3    H143393   1.480   2.311  15.265
 7326TIP3    H243394   1.587   2.235  15.189
 7327TIP3   OH243395   1.428   2.670  14.699
 7327TIP3    H143396   1.355   2.623  14.657
 7327TIP3    H243397   1.483   2.600  14.736
 7328TIP3   OH243398   0.415   3.196  13.926
 7328TIP3    H143399   0.488   3.243  13.966
 7328TIP3    H243400   0.455   3.141  13.859
 7329TIP3   OH243401   0.184   2.530  13.866
 7329TIP3    H143402   0.193   2.625  13.874
 7329TIP3    H243403   0.158   2.517  13.775
 7330TIP3   OH243404   1.563   3.609  14.852
 7330TIP3    H143405   1.539   3.682  14.795
 7330TIP3    H243406   1.657   3.619  14.866
 7331TIP3   OH243407   0.308   2.006  14.712
 7331TIP3    H143408   0.310   1.993  14.617
 7331TIP3    H243409   0.274   1.923  14.747
 7332TIP3   OH243410   0.187   3.407  14.305
 7332TIP3    H143411   0.114   3.398  14.366
 7332TIP3    H243412   0.159   3.474  14.243
 7333TIP3   OH243413   0.189   3.705  15.506
 7333TIP3    H143414   0.244   3.693  15.583
 7333TIP3    H243415   0.171   3.615  15.476
 7334TIP3   OH243416   0.583   3.514  15.630
 7334TIP3    H143417   0.656   3.456  15.650
 7334TIP3    H243418   0.550   3.483  15.545
 7335TIP3   OH243419   0.993   3.488  13.762
 7335TIP3    H143420   0.926   3.420  13.769
 7335TIP3    H243421   1.069   3.442  13.726
 7336TIP3   OH243422   1.230   3.371  15.525
 7336TIP3    H143423   1.217   3.286  15.568
 7336TIP3    H243424   1.305   3.409  15.571
 7337TIP3   OH243425   1.440   3.458  13.794
 7337TIP3    H143426   1.449   3.376  13.843
 7337TIP3    H243427   1.512   3.456  13.730
 7338TIP3   OH243428   0.090   3.041  15.506
 7338TIP3    H143429   0.094   2.945  15.502
 7338TIP3    H243430   0.032   3.065  15.434
 7339TIP3   OH243431   0.547   3.016  13.773
 7339TIP3    H143432   0.575   2.967  13.851
 7339TIP3    H243433   0.628   3.029  13.723
 7340TIP3   OH243434   0.770   3.051  15.519
 7340TIP3    H143435   0.749   3.096  15.437
 7340TIP3    H243436   0.794   2.962  15.493
 7341TIP3   OH243437   1.173   3.155  13.804
 7341TIP3    H143438   1.126   3.151  13.887
 7341TIP3    H243439   1.150   3.073  13.759
 7342TIP3   OH243440   1.345   3.034  15.296
 7342TIP3    H143441   1.420   3.084  15.261
 7342TIP3    H243442   1.268   3.082  15.265
 7343TIP3   OH243443   0.183   2.768  15.517
 7343TIP3    H143444   0.275   2.754  15.493
 7343TIP3    H243445   0.183   2.773  15.612
 7344TIP3   OH243446   0.649   2.884  13.998
 7344TIP3    H143447   0.599   2.832  14.061
 7344TIP3    H243448   0.700   2.820  13.948
 7345TIP3   OH243449   0.603   2.655  15.287
 7345TIP3    H143450   0.526   2.711  15.277
 7345TIP3    H243451   0.665   2.688  15.222
 7346TIP3   OH243452   0.801   2.719  13.836
 7346TIP3    H143453   0.797   2.743  13.743
 7346TIP3    H243454   0.894   2.706  13.853
 7347TIP3   OH243455   1.123   2.901  15.564
 7347TIP3    H143456   1.203   2.861  15.529
 7347TIP3    H243457   1.082   2.831  15.615
 7348TIP3   OH243458   1.689   2.915  13.785
 7348TIP3    H143459   1.691   2.887  13.693
 7348TIP3    H243460   1.680   3.010  13.781
 7349TIP3   OH243461   0.673   2.390  15.340
 7349TIP3    H143462   0.675   2.335  15.261
 7349TIP3    H243463   0.651   2.477  15.307
 7350TIP3   OH243464   0.685   2.239  15.105
 7350TIP3    H143465   0.739   2.284  15.040
 7350TIP3    H243466   0.597   2.240  15.067
 7351TIP3   OH243467   0.792   2.776  15.135
 7351TIP3    H143468   0.879   2.756  15.100
 7351TIP3    H243469   0.763   2.853  15.086
 7352TIP3   OH243470   1.255   2.554  15.601
 7352TIP3    H143471   1.262   2.474  15.652
 7352TIP3    H243472   1.343   2.571  15.568
 7353TIP3   OH243473   1.391   2.843  15.477
 7353TIP3    H143474   1.366   2.915  15.420
 7353TIP3    H243475   1.486   2.835  15.467
 7354TIP3   OH243476   0.485   2.508  15.559
 7354TIP3    H143477   0.426   2.435  15.539
 7354TIP3    H243478   0.524   2.531  15.475
 7355TIP3   OH243479   0.752   1.977  15.168
 7355TIP3    H143480   0.731   2.068  15.144
 7355TIP3    H243481   0.688   1.924  15.120
 7356TIP3   OH243482   0.880   2.345  15.514
 7356TIP3    H143483   0.830   2.357  15.595
 7356TIP3    H243484   0.815   2.357  15.445
 7357TIP3   OH243485   1.146   2.317  15.428
 7357TIP3    H143486   1.059   2.305  15.466
 7357TIP3    H243487   1.204   2.265  15.483
 7358TIP3   OH243488   1.329   2.184  15.591
 7358TIP3    H143489   1.319   2.089  15.597
 7358TIP3    H243490   1.295   2.217  15.674
 7359TIP3   OH243491   0.361   2.256  15.527
 7359TIP3    H143492   0.330   2.218  15.445
 7359TIP3    H243493   0.300   2.224  15.593
 7360TIP3   OH243494   0.759   1.890  15.423
 7360TIP3    H143495   0.817   1.814  15.418
 7360TIP3    H243496   0.753   1.922  15.333
 7361TIP3   OH243497   0.773   2.072  15.627
 7361TIP3    H143498   0.778   2.005  15.558
 7361TIP3    H243499   0.830   2.143  15.595
 7362TIP3   OH243500   0.792   3.780  13.985
 7362TIP3    H143501   0.880   3.746  13.972
 7362TIP3    H243502   0.777   3.841  13.913
 7363TIP3   OH243503   0.141   3.211  13.881
 7363TIP3    H143504   0.236   3.215  13.884
 7363TIP3    H243505   0.121   3.160  13.803
 7364TIP3   OH243506   0.066   3.758  14.367
 7364TIP3    H143507   0.062   3.713  14.283
 7364TIP3    H243508   0.067   3.688  14.432
 7365TIP3   OH243509   0.083   3.563  14.564
 7365TIP3    H143510   0.084   3.475  14.603
 7365TIP3    H243511   0.131   3.617  14.626
 7366TIP3   OH243512   1.830   3.663  14.912
 7366TIP3    H143513   1.844   3.631  15.001
 7366TIP3    H243514   1.917   3.661  14.872
 7367TIP3   OH243515   1.813   3.565  15.177
 7367TIP3    H143516   1.749   3.503  15.141
 7367TIP3    H243517   1.844   3.524  15.257
 7368TIP3   OH243518   1.630   3.171  15.714
 7368TIP3    H143519   1.545   3.192  15.752
 7368TIP3    H243520   1.679   3.253  15.717
 7369TIP3   OH243521   1.767   3.018  14.197
 7369TIP3    H143522   1.847   3.072  14.197
 7369TIP3    H243523   1.779   2.958  14.270
 7370TIP3   OH243524   1.819   2.835  14.393
 7370TIP3    H143525   1.775   2.750  14.398
 7370TIP3    H243526   1.878   2.836  14.468
 7371TIP3   OH243527   1.807   3.098  14.890
 7371TIP3    H143528   1.856   3.027  14.850
 7371TIP3    H243529   1.829   3.175  14.838
 7372TIP3   OH243530   1.615   3.389  15.097
 7372TIP3    H143531   1.543   3.443  15.128
 7372TIP3    H243532   1.591   3.365  15.007
 7373TIP3   OH243533   1.836   2.832  14.002
 7373TIP3    H143534   1.786   2.853  13.923
 7373TIP3    H243535   1.805   2.894  14.068
 7374TIP3   OH243536   1.642   2.529  13.806
 7374TIP3    H143537   1.623   2.571  13.722
 7374TIP3    H243538   1.630   2.436  13.789
 7375TIP3   OH243539   1.517   2.701  14.436
 7375TIP3    H143540   1.591   2.640  14.436
 7375TIP3    H243541   1.492   2.708  14.528
 7376TIP3   OH243542   0.098   2.897  14.849
 7376TIP3    H143543   0.104   2.898  14.754
 7376TIP3    H243544   0.180   2.858  14.878
 7377TIP3   OH243545   1.665   2.864  15.425
 7377TIP3    H143546   1.724   2.792  15.406
 7377TIP3    H243547   1.678   2.926  15.353
 7378TIP3   OH243548   1.811   2.635  15.392
 7378TIP3    H143549   1.724   2.596  15.392
 7378TIP3    H243550   1.868   2.567  15.427
 7379TIP3   OH243551   1.593   2.270  13.729
 7379TIP3    H143552   1.636   2.221  13.800
 7379TIP3    H243553   1.502   2.238  13.731
 7380TIP3   OH243554   1.550   2.413  14.259
 7380TIP3    H143555   1.587   2.326  14.241
 7380TIP3    H243556   1.619   2.460  14.304
 7381TIP3   OH243557   1.590   2.471  14.820
 7381TIP3    H143558   1.680   2.488  14.790
 7381TIP3    H243559   1.593   2.487  14.915
 7382TIP3   OH243560   1.631   2.562  15.086
 7382TIP3    H143561   1.547   2.597  15.116
 7382TIP3    H243562   1.683   2.640  15.065
 7383TIP3   OH243563   0.087   2.437  15.504
 7383TIP3    H143564   0.120   2.414  15.417
 7383TIP3    H243565   0.040   2.359  15.533
 7384TIP3   OH243566   1.838   1.996  15.603
 7384TIP3    H143567   1.904   1.930  15.582
 7384TIP3    H243568   1.844   2.059  15.531
 7385TIP3   OH243569   1.639   2.146  14.266
 7385TIP3    H143570   1.651   2.110  14.354
 7385TIP3    H243571   1.567   2.094  14.229
 7386TIP3   OH243572   0.181   2.248  14.728
 7386TIP3    H143573   0.215   2.158  14.726
 7386TIP3    H243574   0.258   2.303  14.737
 7387TIP3   OH243575   0.026   2.620  14.858
 7387TIP3    H143576   0.089   2.596  14.790
 7387TIP3    H243577   0.030   2.716  14.861
 7388TIP3   OH243578   1.794   2.170  15.392
 7388TIP3    H143579   1.711   2.218  15.393
 7388TIP3    H243580   1.780   2.099  15.330
 7389TIP3   OH243581   1.764   2.152  13.917
 7389TIP3    H143582   1.815   2.096  13.858
 7389TIP3    H243583   1.829   2.211  13.955
 7390TIP3   OH243584   0.140   2.194  14.224
 7390TIP3    H143585   0.053   2.159  14.245
 7390TIP3    H243586   0.125   2.252  14.149
 7391TIP3   OH243587   1.529   3.682  14.458
 7391TIP3    H143588   1.575   3.651  14.380
 7391TIP3    H243589   1.588   3.748  14.495
 7392TIP3   OH243590   0.058   2.005  15.076
 7392TIP3    H143591  -0.016   1.954  15.109
 7392TIP3    H243592   0.019   2.066  15.014
 7393TIP3   OH243593   0.226   3.405  15.476
 7393TIP3    H143594   0.146   3.402  15.423
 7393TIP3    H243595   0.202   3.364  15.559
 7394TIP3   OH243596   0.563   3.468  15.122
 7394TIP3    H143597   0.514   3.543  15.088
 7394TIP3    H243598   0.654   3.486  15.100
 7395TIP3   OH243599   0.950   3.596  15.396
 7395TIP3    H143600   0.960   3.565  15.486
 7395TIP3    H243601   1.033   3.641  15.377
 7396TIP3   OH243602   1.187   3.731  15.353
 7396TIP3    H143603   1.259   3.686  15.309
 7396TIP3    H243604   1.225   3.763  15.435
 7397TIP3   OH243605   1.696   1.958  15.236
 7397TIP3    H143606   1.621   1.973  15.178
 7397TIP3    H243607   1.719   1.866  15.223
 7398TIP3   OH243608   0.298   3.790  15.135
 7398TIP3    H143609   0.211   3.815  15.103
 7398TIP3    H243610   0.303   3.829  15.222
 7399TIP3   OH243611   0.541   3.735  15.032
 7399TIP3    H143612   0.452   3.748  15.065
 7399TIP3    H243613   0.543   3.782  14.949
 7400TIP3   OH243614   0.987   3.707  14.940
 7400TIP3    H143615   0.931   3.743  14.871
 7400TIP3    H243616   0.990   3.775  15.007
 7401TIP3   OH243617   1.258   3.645  15.007
 7401TIP3    H143618   1.167   3.669  14.991
 7401TIP3    H243619   1.281   3.588  14.934
 7402TIP3   OH243620   1.517   3.828  15.033
 7402TIP3    H143621   1.526   3.878  14.952
 7402TIP3    H243622   1.495   3.739  15.005
 7403TIP3   OH243623   0.228   3.639  14.802
 7403TIP3    H143624   0.228   3.600  14.889
 7403TIP3    H243625   0.299   3.595  14.756
 7404TIP3   OH243626   0.438   3.512  14.683
 7404TIP3    H143627   0.422   3.422  14.711
 7404TIP3    H243628   0.526   3.532  14.714
 7405TIP3   OH243629   0.701   3.542  14.789
 7405TIP3    H143630   0.711   3.452  14.757
 7405TIP3    H243631   0.724   3.537  14.882
 7406TIP3   OH243632   1.021   2.104  14.689
 7406TIP3    H143633   0.963   2.029  14.705
 7406TIP3    H243634   1.102   2.065  14.655
 7407TIP3   OH243635   1.523   1.980  14.723
 7407TIP3    H143636   1.584   1.997  14.651
 7407TIP3    H243637   1.436   1.982  14.682
 7408TIP3   OH243638   1.699   2.020  14.514
 7408TIP3    H143639   1.766   1.960  14.480
 7408TIP3    H243640   1.747   2.100  14.535
 7409TIP3   OH243641   0.305   1.972  14.439
 7409TIP3    H143642   0.220   1.970  14.394
 7409TIP3    H243643   0.343   1.886  14.422
 7410TIP3   OH243644   0.243   1.966  14.094
 7410TIP3    H143645   0.279   1.992  14.009
 7410TIP3    H243646   0.218   2.048  14.136
 7411TIP3   OH243647   0.756   1.932  14.459
 7411TIP3    H143648   0.824   1.980  14.411
 7411TIP3    H243649   0.783   1.938  14.550
 7412TIP3   OH243650   1.263   1.983  14.607
 7412TIP3    H143651   1.278   1.980  14.512
 7412TIP3    H243652   1.237   1.894  14.630
 7413TIP3   OH243653   1.421   1.997  14.180
 7413TIP3    H143654   1.345   2.054  14.192
 7413TIP3    H243655   1.386   1.909  14.189
 7414TIP3   OH243656   0.100   3.606  14.133
 7414TIP3    H143657   0.055   3.565  14.059
 7414TIP3    H243658   0.148   3.679  14.094
 7415TIP3   OH243659   0.373   2.125  13.886
 7415TIP3    H143660   0.424   2.075  13.822
 7415TIP3    H243661   0.437   2.156  13.948
 7416TIP3   OH243662   0.828   2.207  14.126
 7416TIP3    H143663   0.861   2.130  14.174
 7416TIP3    H243664   0.853   2.282  14.180
 7417TIP3   OH243665   1.043   3.671  13.956
 7417TIP3    H143666   1.136   3.687  13.944
 7417TIP3    H243667   1.018   3.619  13.879
 7418TIP3   OH243668   1.696   3.632  14.245
 7418TIP3    H143669   1.681   3.543  14.212
 7418TIP3    H243670   1.682   3.688  14.168
 7419TIP3   OH243671   0.293   2.018  15.377
 7419TIP3    H143672   0.234   1.957  15.420
 7419TIP3    H243673   0.378   2.001  15.416
 7420TIP3   OH243674   0.514   1.946  15.531
 7420TIP3    H143675   0.593   1.912  15.488
 7420TIP3    H243676   0.482   1.872  15.584
 7421TIP3   OH243677   0.371   3.656  13.816
 7421TIP3    H143678   0.354   3.660  13.910
 7421TIP3    H243679   0.442   3.593  13.807
 7422TIP3   OH243680   1.330   1.907  15.588
 7422TIP3    H143681   1.320   1.857  15.669
 7422TIP3    H243682   1.422   1.897  15.565
 7423TIP3   OH243683   1.604   3.513  15.433
 7423TIP3    H143684   1.542   3.508  15.360
 7423TIP3    H243685   1.590   3.600  15.471
 7424TIP3   OH243686   3.074   2.914  14.429
 7424TIP3    H143687   3.058   3.009  14.424
 7424TIP3    H243688   3.010   2.876  14.369
 7425TIP3   OH243689   2.961   2.833  14.822
 7425TIP3    H143690   2.990   2.785  14.900
 7425TIP3    H243691   2.915   2.768  14.769
 7426TIP3   OH243692   2.189   2.779  14.947
 7426TIP3    H143693   2.189   2.699  15.000
 7426TIP3    H243694   2.279   2.785  14.914
 7427TIP3   OH243695   3.342   3.140  14.646
 7427TIP3    H143696   3.305   3.063  14.690
 7427TIP3    H243697   3.364   3.200  14.718
 7428TIP3   OH243698   2.351   3.250  14.816
 7428TIP3    H143699   2.316   3.170  14.777
 7428TIP3    H243700   2.441   3.254  14.786
 7429TIP3   OH243701   2.016   2.619  14.303
 7429TIP3    H143702   1.973   2.673  14.237
 7429TIP3    H243703   1.944   2.579  14.352
 7430TIP3   OH243704   2.035   2.812  14.579
 7430TIP3    H143705   2.051   2.721  14.604
 7430TIP3    H243706   2.080   2.822  14.495
 7431TIP3   OH243707   3.078   3.606  14.684
 7431TIP3    H143708   3.107   3.560  14.605
 7431TIP3    H243709   3.067   3.537  14.749
 7432TIP3   OH243710   2.801   3.085  14.828
 7432TIP3    H143711   2.837   3.008  14.785
 7432TIP3    H243712   2.872   3.117  14.884
 7433TIP3   OH243713   3.691   2.217  14.922
 7433TIP3    H143714   3.707   2.292  14.979
 7433TIP3    H243715   3.748   2.233  14.846
 7434TIP3   OH243716   3.121   2.496  14.841
 7434TIP3    H143717   3.139   2.403  14.851
 7434TIP3    H243718   3.105   2.508  14.748
 7435TIP3   OH243719   2.471   2.303  14.567
 7435TIP3    H143720   2.477   2.389  14.525
 7435TIP3    H243721   2.421   2.250  14.505
 7436TIP3   OH243722   3.241   2.349  14.411
 7436TIP3    H143723   3.285   2.316  14.489
 7436TIP3    H243724   3.311   2.384  14.356
 7437TIP3   OH243725   2.118   2.561  14.661
 7437TIP3    H143726   2.183   2.513  14.712
 7437TIP3    H243727   2.127   2.527  14.572
 7438TIP3   OH243728   2.580   2.708  14.625
 7438TIP3    H143729   2.667   2.675  14.646
 7438TIP3    H243730   2.546   2.645  14.561
 7439TIP3   OH243731   3.722   2.386  15.149
 7439TIP3    H143732   3.651   2.446  15.128
 7439TIP3    H243733   3.744   2.406  15.240
 7440TIP3   OH243734   2.320   2.223  14.996
 7440TIP3    H143735   2.300   2.275  14.917
 7440TIP3    H243736   2.247   2.240  15.054
 7441TIP3   OH243737   3.004   3.166  14.346
 7441TIP3    H143738   3.004   3.165  14.250
 7441TIP3    H243739   2.971   3.253  14.369
 7442TIP3   OH243740   2.593   2.987  14.980
 7442TIP3    H143741   2.544   3.059  15.019
 7442TIP3    H243742   2.661   3.030  14.928
 7443TIP3   OH243743   3.347   2.292  14.654
 7443TIP3    H143744   3.299   2.241  14.720
 7443TIP3    H243745   3.407   2.346  14.705
 7444TIP3   OH243746   2.303   2.385  14.773
 7444TIP3    H143747   2.364   2.440  14.824
 7444TIP3    H243748   2.356   2.351  14.702
 7445TIP3   OH243749   2.424   3.193  15.076
 7445TIP3    H143750   2.398   3.204  14.985
 7445TIP3    H243751   2.342   3.186  15.124
 7446TIP3   OH243752   2.002   3.173  14.166
 7446TIP3    H143753   1.994   3.204  14.076
 7446TIP3    H243754   2.033   3.250  14.215
 7447TIP3   OH243755   3.378   3.353  14.850
 7447TIP3    H143756   3.282   3.355  14.853
 7447TIP3    H243757   3.402   3.441  14.819
 7448TIP3   OH243758   3.436   2.122  15.011
 7448TIP3    H143759   3.365   2.162  14.961
 7448TIP3    H243760   3.516   2.147  14.965
 7449TIP3   OH243761   2.688   1.920  14.743
 7449TIP3    H143762   2.661   1.828  14.738
 7449TIP3    H243763   2.609   1.966  14.771
 7450TIP3   OH243764   3.195   3.501  14.455
 7450TIP3    H143765   3.232   3.414  14.438
 7450TIP3    H243766   3.272   3.558  14.463
 7451TIP3   OH243767   3.321   3.268  14.400
 7451TIP3    H143768   3.337   3.209  14.327
 7451TIP3    H243769   3.329   3.213  14.478
 7452TIP3   OH243770   3.483   3.125  15.201
 7452TIP3    H143771   3.477   3.066  15.125
 7452TIP3    H243772   3.499   3.211  15.164
 7453TIP3   OH243773   2.929   2.831  14.205
 7453TIP3    H143774   2.861   2.893  14.178
 7453TIP3    H243775   2.995   2.835  14.135
 7454TIP3   OH243776   2.964   2.698  13.860
 7454TIP3    H143777   3.019   2.725  13.933
 7454TIP3    H243778   3.019   2.639  13.809
 7455TIP3   OH243779   3.652   2.782  15.033
 7455TIP3    H143780   3.581   2.845  15.021
 7455TIP3    H243781   3.715   2.804  14.965
 7456TIP3   OH243782   3.295   2.861  14.275
 7456TIP3    H143783   3.226   2.879  14.339
 7456TIP3    H243784   3.359   2.808  14.322
 7457TIP3   OH243785   3.257   2.654  15.223
 7457TIP3    H143786   3.253   2.730  15.281
 7457TIP3    H243787   3.195   2.674  15.153
 7458TIP3   OH243788   2.433   2.906  14.485
 7458TIP3    H143789   2.400   2.869  14.403
 7458TIP3    H243790   2.487   2.837  14.522
 7459TIP3   OH243791   2.609   3.273  14.731
 7459TIP3    H143792   2.601   3.275  14.636
 7459TIP3    H243793   2.679   3.210  14.748
 7460TIP3   OH243794   2.450   2.786  14.855
 7460TIP3    H143795   2.492   2.769  14.771
 7460TIP3    H243796   2.500   2.858  14.892
 7461TIP3   OH243797   3.107   3.362  14.896
 7461TIP3    H143798   3.101   3.426  14.967
 7461TIP3    H243799   3.074   3.281  14.934
 7462TIP3   OH243800   2.582   3.241  15.308
 7462TIP3    H143801   2.518   3.297  15.353
 7462TIP3    H243802   2.536   3.212  15.229
 7463TIP3   OH243803   3.160   2.785  14.046
 7463TIP3    H143804   3.209   2.820  14.121
 7463TIP3    H243805   3.212   2.809  13.970
 7464TIP3   OH243806   2.248   2.808  15.289
 7464TIP3    H143807   2.259   2.897  15.323
 7464TIP3    H243808   2.162   2.809  15.247
 7465TIP3   OH243809   2.932   3.435  14.389
 7465TIP3    H143810   3.021   3.459  14.415
 7465TIP3    H243811   2.905   3.503  14.327
 7466TIP3   OH243812   2.382   3.419  15.389
 7466TIP3    H143813   2.374   3.439  15.296
 7466TIP3    H243814   2.292   3.404  15.418
 7467TIP3   OH243815   3.503   1.954  13.977
 7467TIP3    H143816   3.512   1.929  14.069
 7467TIP3    H243817   3.563   2.028  13.967
 7468TIP3   OH243818   2.329   2.811  14.245
 7468TIP3    H143819   2.287   2.877  14.190
 7468TIP3    H243820   2.283   2.729  14.224
 7469TIP3   OH243821   3.673   3.373  13.900
 7469TIP3    H143822   3.690   3.467  13.893
 7469TIP3    H243823   3.760   3.333  13.892
 7470TIP3   OH243824   1.955   3.064  15.128
 7470TIP3    H143825   1.903   3.071  15.048
 7470TIP3    H243826   1.968   2.970  15.140
 7471TIP3   OH243827   1.952   3.329  14.798
 7471TIP3    H143828   2.033   3.285  14.770
 7471TIP3    H243829   1.975   3.370  14.881
 7472TIP3   OH243830   3.741   3.404  15.393
 7472TIP3    H143831   3.729   3.309  15.392
 7472TIP3    H243832   3.659   3.438  15.427
 7473TIP3   OH243833   2.829   3.351  15.256
 7473TIP3    H143834   2.836   3.430  15.308
 7473TIP3    H243835   2.743   3.314  15.278
 7474TIP3   OH243836   2.917   3.695  14.239
 7474TIP3    H143837   2.902   3.692  14.144
 7474TIP3    H243838   2.879   3.779  14.266
 7475TIP3   OH243839   2.251   3.594  14.443
 7475TIP3    H143840   2.268   3.554  14.529
 7475TIP3    H243841   2.197   3.530  14.397
 7476TIP3   OH243842   3.204   3.662  13.927
 7476TIP3    H143843   3.249   3.589  13.885
 7476TIP3    H243844   3.212   3.646  14.020
 7477TIP3   OH243845   3.184   3.643  14.205
 7477TIP3    H143846   3.090   3.655  14.216
 7477TIP3    H243847   3.206   3.573  14.267
 7478TIP3   OH243848   3.422   2.531  15.424
 7478TIP3    H143849   3.369   2.570  15.354
 7478TIP3    H243850   3.435   2.440  15.395
 7479TIP3   OH243851   2.177   3.209  15.196
 7479TIP3    H143852   2.199   3.172  15.282
 7479TIP3    H243853   2.100   3.160  15.168
 7480TIP3   OH243854   2.437   2.024  14.834
 7480TIP3    H143855   2.367   2.019  14.768
 7480TIP3    H243856   2.411   2.096  14.891
 7481TIP3   OH243857   2.908   2.004  15.172
 7481TIP3    H143858   2.955   1.951  15.237
 7481TIP3    H243859   2.816   1.988  15.191
 7482TIP3   OH243860   3.203   2.376  15.243
 7482TIP3    H143861   3.146   2.370  15.320
 7482TIP3    H243862   3.210   2.470  15.226
 7483TIP3   OH243863   3.312   2.838  13.831
 7483TIP3    H143864   3.287   2.848  13.739
 7483TIP3    H243865   3.406   2.858  13.833
 7484TIP3   OH243866   2.865   2.234  13.900
 7484TIP3    H143867   2.803   2.233  13.973
 7484TIP3    H243868   2.827   2.172  13.837
 7485TIP3   OH243869   2.450   2.534  14.958
 7485TIP3    H143870   2.378   2.536  15.021
 7485TIP3    H243871   2.455   2.624  14.924
 7486TIP3   OH243872   2.458   2.547  14.440
 7486TIP3    H143873   2.363   2.532  14.438
 7486TIP3    H243874   2.486   2.533  14.349
 7487TIP3   OH243875   2.992   2.586  14.315
 7487TIP3    H143876   2.964   2.670  14.281
 7487TIP3    H243877   3.062   2.558  14.256
 7488TIP3   OH243878   2.904   2.596  15.423
 7488TIP3    H143879   2.858   2.521  15.463
 7488TIP3    H243880   2.991   2.594  15.465
 7489TIP3   OH243881   3.090   2.523  14.570
 7489TIP3    H143882   3.047   2.572  14.499
 7489TIP3    H243883   3.134   2.451  14.525
 7490TIP3   OH243884   2.227   2.552  15.117
 7490TIP3    H143885   2.220   2.598  15.201
 7490TIP3    H243886   2.183   2.468  15.133
 7491TIP3   OH243887   2.555   2.290  13.798
 7491TIP3    H143888   2.515   2.274  13.883
 7491TIP3    H243889   2.495   2.350  13.754
 7492TIP3   OH243890   1.851   2.236  14.564
 7492TIP3    H143891   1.925   2.256  14.621
 7492TIP3    H243892   1.828   2.320  14.524
 7493TIP3   OH243893   1.955   2.332  14.027
 7493TIP3    H143894   2.028   2.369  13.976
 7493TIP3    H243895   1.898   2.408  14.044
 7494TIP3   OH243896   3.047   2.669  15.035
 7494TIP3    H143897   3.081   2.613  14.966
 7494TIP3    H243898   2.977   2.617  15.076
 7495TIP3   OH243899   2.755   2.273  14.532
 7495TIP3    H143900   2.663   2.274  14.560
 7495TIP3    H243901   2.803   2.237  14.606
 7496TIP3   OH243902   2.202   2.456  14.420
 7496TIP3    H143903   2.138   2.497  14.362
 7496TIP3    H243904   2.214   2.368  14.385
 7497TIP3   OH243905   2.517   2.478  14.181
 7497TIP3    H143906   2.612   2.468  14.188
 7497TIP3    H243907   2.503   2.518  14.095
 7498TIP3   OH243908   3.137   2.219  14.862
 7498TIP3    H143909   3.084   2.229  14.941
 7498TIP3    H243910   3.077   2.179  14.799
 7499TIP3   OH243911   2.467   2.574  13.930
 7499TIP3    H143912   2.411   2.544  13.858
 7499TIP3    H243913   2.543   2.613  13.887
 7500TIP3   OH243914   3.501   3.777  15.508
 7500TIP3    H143915   3.520   3.809  15.420
 7500TIP3    H243916   3.577   3.803  15.560
 7501TIP3   OH243917   2.238   3.057  15.426
 7501TIP3    H143918   2.304   3.054  15.495
 7501TIP3    H243919   2.155   3.058  15.473
 7502TIP3   OH243920   2.823   2.595  14.723
 7502TIP3    H143921   2.888   2.546  14.673
 7502TIP3    H243922   2.791   2.532  14.788
 7503TIP3   OH243923   2.309   2.196  14.365
 7503TIP3    H143924   2.246   2.129  14.388
 7503TIP3    H243925   2.339   2.172  14.277
 7504TIP3   OH243926   2.708   2.443  14.937
 7504TIP3    H143927   2.621   2.482  14.946
 7504TIP3    H243928   2.757   2.474  15.013
 7505TIP3   OH243929   2.730   3.019  14.129
 7505TIP3    H143930   2.660   2.978  14.079
 7505TIP3    H243931   2.691   3.041  14.213
 7506TIP3   OH243932   3.460   2.972  14.972
 7506TIP3    H143933   3.521   3.024  14.921
 7506TIP3    H243934   3.388   2.952  14.912
 7507TIP3   OH243935   3.115   2.298  13.985
 7507TIP3    H143936   3.025   2.293  13.953
 7507TIP3    H243937   3.124   2.387  14.019
 7508TIP3   OH243938   2.904   3.068  15.252
 7508TIP3    H143939   2.938   3.036  15.335
 7508TIP3    H243940   2.881   3.160  15.269
 7509TIP3   OH243941   3.194   2.522  14.132
 7509TIP3    H143942   3.284   2.503  14.157
 7509TIP3    H243943   3.197   2.609  14.093
 7510TIP3   OH243944   2.292   3.013  14.699
 7510TIP3    H143945   2.338   2.986  14.620
 7510TIP3    H243946   2.250   2.934  14.731
 7511TIP3   OH243947   2.954   3.163  14.067
 7511TIP3    H143948   2.925   3.254  14.068
 7511TIP3    H243949   2.875   3.112  14.084
 7512TIP3   OH243950   1.975   2.796  15.223
 7512TIP3    H143951   1.944   2.750  15.301
 7512TIP3    H243952   1.911   2.775  15.156
 7513TIP3   OH243953   2.684   2.772  15.463
 7513TIP3    H143954   2.619   2.739  15.401
 7513TIP3    H243955   2.766   2.733  15.433
 7514TIP3   OH243956   3.112   3.334  15.251
 7514TIP3    H143957   3.020   3.340  15.228
 7514TIP3    H243958   3.116   3.355  15.344
 7515TIP3   OH243959   3.656   2.557  14.079
 7515TIP3    H143960   3.612   2.535  13.997
 7515TIP3    H243961   3.683   2.648  14.068
 7516TIP3   OH243962   3.699   3.122  15.368
 7516TIP3    H143963   3.611   3.135  15.332
 7516TIP3    H243964   3.755   3.110  15.291
 7517TIP3   OH243965   3.530   3.394  14.138
 7517TIP3    H143966   3.477   3.317  14.156
 7517TIP3    H243967   3.571   3.376  14.054
 7518TIP3   OH243968   3.250   2.904  14.790
 7518TIP3    H143969   3.156   2.895  14.781
 7518TIP3    H243970   3.286   2.828  14.744
 7519TIP3   OH243971   2.522   3.332  14.471
 7519TIP3    H143972   2.549   3.416  14.435
 7519TIP3    H243973   2.439   3.313  14.427
 7520TIP3   OH243974   2.096   2.777  13.929
 7520TIP3    H143975   2.143   2.847  13.976
 7520TIP3    H243976   2.005   2.791  13.953
 7521TIP3   OH243977   2.604   3.088  14.359
 7521TIP3    H143978   2.596   3.172  14.404
 7521TIP3    H243979   2.547   3.029  14.407
 7522TIP3   OH243980   2.714   3.537  15.062
 7522TIP3    H143981   2.783   3.592  15.025
 7522TIP3    H243982   2.760   3.463  15.102
 7523TIP3   OH243983   2.517   3.592  14.361
 7523TIP3    H143984   2.424   3.608  14.377
 7523TIP3    H243985   2.560   3.673  14.389
 7524TIP3   OH243986   3.017   3.117  15.003
 7524TIP3    H143987   2.981   3.092  15.088
 7524TIP3    H243988   3.077   3.045  14.981
 7525TIP3   OH243989   3.308   3.217  13.927
 7525TIP3    H143990   3.317   3.175  14.012
 7525TIP3    H243991   3.223   3.188  13.894
 7526TIP3   OH243992   3.317   3.542  15.233
 7526TIP3    H143993   3.238   3.493  15.209
 7526TIP3    H243994   3.320   3.615  15.171
 7527TIP3   OH243995   3.718   3.645  13.917
 7527TIP3    H143996   3.755   3.711  13.858
 7527TIP3    H243997   3.643   3.689  13.957
 7528TIP3   OH243998   2.105   2.298  15.162
 7528TIP3    H143999   2.017   2.330  15.144
 7528TIP3    H244000   2.092   2.220  15.217
 7529TIP3   OH244001   3.394   3.103  14.175
 7529TIP3    H144002   3.350   3.023  14.202
 7529TIP3    H244003   3.487   3.079  14.173
 7530TIP3   OH244004   2.096   3.441  15.028
 7530TIP3    H144005   2.134   3.361  15.064
 7530TIP3    H244006   2.069   3.491  15.105
 7531TIP3   OH244007   2.671   3.306  13.771
 7531TIP3    H144008   2.677   3.226  13.720
 7531TIP3    H244009   2.624   3.280  13.851
 7532TIP3   OH244010   2.548   3.281  14.021
 7532TIP3    H144011   2.605   3.228  14.077
 7532TIP3    H244012   2.565   3.371  14.048
 7533TIP3   OH244013   2.197   2.991  14.081
 7533TIP3    H144014   2.124   3.038  14.122
 7533TIP3    H244015   2.243   3.057  14.030
 7534TIP3   OH244016   2.996   2.255  15.104
 7534TIP3    H144017   3.078   2.268  15.153
 7534TIP3    H244018   2.968   2.167  15.129
 7535TIP3   OH244019   3.089   2.188  14.242
 7535TIP3    H144020   3.095   2.230  14.156
 7535TIP3    H244021   3.134   2.248  14.301
 7536TIP3   OH244022   2.852   3.414  14.060
 7536TIP3    H144023   2.772   3.459  14.085
 7536TIP3    H244024   2.873   3.447  13.973
 7537TIP3   OH244025   2.777   2.413  14.291
 7537TIP3    H144026   2.850   2.474  14.297
 7537TIP3    H244027   2.768   2.378  14.379
 7538TIP3   OH244028   2.869   2.499  15.156
 7538TIP3    H144029   2.878   2.520  15.249
 7538TIP3    H244030   2.907   2.411  15.148
 7539TIP3   OH244031   2.852   2.088  14.344
 7539TIP3    H144032   2.826   2.159  14.404
 7539TIP3    H244033   2.935   2.117  14.308
 7540TIP3   OH244034   2.610   3.538  14.104
 7540TIP3    H144035   2.613   3.622  14.059
 7540TIP3    H244036   2.577   3.559  14.192
 7541TIP3   OH244037   2.442   2.233  14.050
 7541TIP3    H144038   2.434   2.318  14.094
 7541TIP3    H244039   2.530   2.202  14.073
 7542TIP3   OH244040   3.457   2.287  15.284
 7542TIP3    H144041   3.364   2.300  15.265
 7542TIP3    H244042   3.496   2.265  15.200
 7543TIP3   OH244043   3.330   2.658  14.668
 7543TIP3    H144044   3.248   2.615  14.644
 7543TIP3    H244045   3.376   2.593  14.722
 7544TIP3   OH244046   2.297   3.204  13.927
 7544TIP3    H144047   2.372   3.249  13.965
 7544TIP3    H244048   2.334   3.149  13.858
 7545TIP3   OH244049   2.102   2.505  13.865
 7545TIP3    H144050   2.113   2.595  13.898
 7545TIP3    H244051   2.037   2.513  13.795
 7546TIP3   OH244052   3.465   3.634  14.836
 7546TIP3    H144053   3.442   3.708  14.780
 7546TIP3    H244054   3.558   3.645  14.853
 7547TIP3   OH244055   2.191   2.016  14.702
 7547TIP3    H144056   2.175   2.017  14.608
 7547TIP3    H244057   2.166   1.927  14.729
 7548TIP3   OH244058   2.073   3.422  14.310
 7548TIP3    H144059   1.994   3.434  14.362
 7548TIP3    H244060   2.061   3.480  14.235
 7549TIP3   OH244061   2.030   3.672  15.502
 7549TIP3    H144062   2.097   3.650  15.566
 7549TIP3    H244063   1.996   3.587  15.472
 7550TIP3   OH244064   2.469   3.518  15.629
 7550TIP3    H144065   2.541   3.459  15.651
 7550TIP3    H244066   2.441   3.491  15.542
 7551TIP3   OH244067   2.876   3.487  13.787
 7551TIP3    H144068   2.805   3.424  13.773
 7551TIP3    H244069   2.951   3.448  13.742
 7552TIP3   OH244070   3.104   3.378  15.523
 7552TIP3    H144071   3.086   3.293  15.561
 7552TIP3    H244072   3.183   3.409  15.569
 7553TIP3   OH244073   3.328   3.458  13.794
 7553TIP3    H144074   3.338   3.377  13.843
 7553TIP3    H244075   3.398   3.456  13.729
 7554TIP3   OH244076   1.992   3.044  15.554
 7554TIP3    H144077   1.997   2.949  15.543
 7554TIP3    H244078   1.923   3.072  15.494
 7555TIP3   OH244079   2.428   3.024  13.770
 7555TIP3    H144080   2.454   2.972  13.846
 7555TIP3    H244081   2.509   3.036  13.720
 7556TIP3   OH244082   2.650   3.055  15.511
 7556TIP3    H144083   2.642   3.099  15.426
 7556TIP3    H244084   2.679   2.966  15.490
 7557TIP3   OH244085   3.064   3.152  13.813
 7557TIP3    H144086   3.015   3.146  13.895
 7557TIP3    H244087   3.038   3.074  13.764
 7558TIP3   OH244088   3.227   3.078  15.291
 7558TIP3    H144089   3.317   3.094  15.264
 7558TIP3    H244090   3.180   3.158  15.267
 7559TIP3   OH244091   2.076   2.782  15.519
 7559TIP3    H144092   2.151   2.765  15.462
 7559TIP3    H244093   2.109   2.770  15.607
 7560TIP3   OH244094   2.532   2.881  13.992
 7560TIP3    H144095   2.477   2.824  14.047
 7560TIP3    H244096   2.585   2.821  13.940
 7561TIP3   OH244097   2.494   2.668  15.280
 7561TIP3    H144098   2.414   2.720  15.271
 7561TIP3    H244099   2.553   2.703  15.213
 7562TIP3   OH244100   2.685   2.714  13.834
 7562TIP3    H144101   2.681   2.739  13.742
 7562TIP3    H244102   2.778   2.702  13.852
 7563TIP3   OH244103   3.005   2.899  15.554
 7563TIP3    H144104   3.087   2.869  15.514
 7563TIP3    H244105   2.975   2.825  15.607
 7564TIP3   OH244106   3.577   2.906  13.784
 7564TIP3    H144107   3.577   2.884  13.691
 7564TIP3    H244108   3.570   3.002  13.786
 7565TIP3   OH244109   2.549   2.404  15.334
 7565TIP3    H144110   2.553   2.348  15.257
 7565TIP3    H244111   2.532   2.492  15.299
 7566TIP3   OH244112   2.573   2.245  15.102
 7566TIP3    H144113   2.627   2.289  15.036
 7566TIP3    H244114   2.486   2.242  15.064
 7567TIP3   OH244115   2.688   2.775  15.125
 7567TIP3    H144116   2.783   2.775  15.117
 7567TIP3    H244117   2.660   2.850  15.073
 7568TIP3   OH244118   3.152   2.535  15.605
 7568TIP3    H144119   3.137   2.454  15.558
 7568TIP3    H244120   3.245   2.553  15.595
 7569TIP3   OH244121   3.268   2.856  15.442
 7569TIP3    H144122   3.244   2.935  15.394
 7569TIP3    H244123   3.364   2.856  15.441
 7570TIP3   OH244124   2.388   2.455  15.564
 7570TIP3    H144125   2.307   2.407  15.546
 7570TIP3    H244126   2.434   2.457  15.480
 7571TIP3   OH244127   2.625   1.980  15.176
 7571TIP3    H144128   2.609   2.071  15.149
 7571TIP3    H244129   2.560   1.929  15.129
 7572TIP3   OH244130   2.766   2.369  15.499
 7572TIP3    H144131   2.715   2.347  15.577
 7572TIP3    H244132   2.701   2.377  15.429
 7573TIP3   OH244133   3.044   2.328  15.459
 7573TIP3    H144134   2.950   2.318  15.472
 7573TIP3    H244135   3.083   2.259  15.513
 7574TIP3   OH244136   3.186   2.173  15.638
 7574TIP3    H144137   3.191   2.080  15.617
 7574TIP3    H244138   3.169   2.176  15.732
 7575TIP3   OH244139   2.177   2.275  15.512
 7575TIP3    H144140   2.177   2.206  15.446
 7575TIP3    H244141   2.182   2.229  15.596
 7576TIP3   OH244142   2.626   1.898  15.436
 7576TIP3    H144143   2.686   1.824  15.427
 7576TIP3    H244144   2.617   1.933  15.348
 7577TIP3   OH244145   2.693   2.054  15.655
 7577TIP3    H144146   2.677   2.001  15.577
 7577TIP3    H244147   2.638   2.132  15.641
 7578TIP3   OH244148   2.674   3.785  13.990
 7578TIP3    H144149   2.765   3.760  13.979
 7578TIP3    H244150   2.655   3.841  13.914
 7579TIP3   OH244151   2.026   3.234  13.891
 7579TIP3    H144152   2.121   3.234  13.903
 7579TIP3    H244153   2.010   3.168  13.825
 7580TIP3   OH244154   1.881   3.740  14.419
 7580TIP3    H144155   1.833   3.703  14.346
 7580TIP3    H244156   1.905   3.664  14.473
 7581TIP3   OH244157   1.948   3.533  14.589
 7581TIP3    H144158   1.911   3.454  14.628
 7581TIP3    H244159   1.999   3.573  14.660
 7582TIP3   OH244160   3.726   3.697  14.920
 7582TIP3    H144161   3.729   3.649  15.002
 7582TIP3    H244162   3.808   3.674  14.876
 7583TIP3   OH244163   3.680   3.581  15.174
 7583TIP3    H144164   3.628   3.507  15.143
 7583TIP3    H244165   3.738   3.543  15.240
 7584TIP3   OH244166   3.506   3.174  15.711
 7584TIP3    H144167   3.425   3.187  15.759
 7584TIP3    H244168   3.556   3.255  15.724
 7585TIP3   OH244169   3.658   3.016  14.193
 7585TIP3    H144170   3.735   3.074  14.191
 7585TIP3    H244171   3.677   2.954  14.263
 7586TIP3   OH244172   3.706   2.817  14.379
 7586TIP3    H144173   3.622   2.778  14.404
 7586TIP3    H244174   3.757   2.817  14.461
 7587TIP3   OH244175   3.689   3.100  14.882
 7587TIP3    H144176   3.740   3.027  14.847
 7587TIP3    H244177   3.721   3.176  14.834
 7588TIP3   OH244178   3.503   3.379  15.097
 7588TIP3    H144179   3.432   3.426  15.140
 7588TIP3    H244180   3.471   3.364  15.008
 7589TIP3   OH244181   3.714   2.818  14.006
 7589TIP3    H144182   3.667   2.839  13.925
 7589TIP3    H244183   3.690   2.887  14.067
 7590TIP3   OH244184   3.537   2.534  13.835
 7590TIP3    H144185   3.532   2.589  13.757
 7590TIP3    H244186   3.520   2.445  13.803
 7591TIP3   OH244187   3.460   2.688  14.423
 7591TIP3    H144188   3.459   2.600  14.387
 7591TIP3    H244189   3.421   2.680  14.509
 7592TIP3   OH244190   1.958   2.877  14.836
 7592TIP3    H144191   1.969   2.857  14.743
 7592TIP3    H244192   2.038   2.844  14.877
 7593TIP3   OH244193   3.547   2.872  15.435
 7593TIP3    H144194   3.601   2.796  15.416
 7593TIP3    H244195   3.592   2.945  15.392
 7594TIP3   OH244196   3.676   2.635  15.407
 7594TIP3    H144197   3.590   2.593  15.408
 7594TIP3    H244198   3.738   2.564  15.424
 7595TIP3   OH244199   3.488   2.278  13.759
 7595TIP3    H144200   3.552   2.234  13.815
 7595TIP3    H244201   3.410   2.223  13.764
 7596TIP3   OH244202   3.454   2.442  14.248
 7596TIP3    H144203   3.477   2.349  14.248
 7596TIP3    H244204   3.522   2.484  14.196
 7597TIP3   OH244205   3.485   2.472  14.818
 7597TIP3    H144206   3.577   2.483  14.796
 7597TIP3    H244207   3.480   2.489  14.912
 7598TIP3   OH244208   3.507   2.557  15.090
 7598TIP3    H144209   3.425   2.593  15.123
 7598TIP3    H244210   3.561   2.633  15.069
 7599TIP3   OH244211   1.937   2.402  15.472
 7599TIP3    H144212   2.027   2.370  15.479
 7599TIP3    H244213   1.884   2.322  15.462
 7600TIP3   OH244214   3.726   1.984  15.604
 7600TIP3    H144215   3.796   1.922  15.585
 7600TIP3    H244216   3.731   2.049  15.534
 7601TIP3   OH244217   3.492   2.162  14.261
 7601TIP3    H144218   3.511   2.118  14.344
 7601TIP3    H244219   3.424   2.108  14.221
 7602TIP3   OH244220   2.049   2.244  14.771
 7602TIP3    H144221   2.091   2.161  14.750
 7602TIP3    H244222   2.120   2.308  14.766
 7603TIP3   OH244223   1.855   2.539  14.770
 7603TIP3    H144224   1.825   2.538  14.679
 7603TIP3    H244225   1.950   2.550  14.764
 7604TIP3   OH244226   3.671   2.157  15.398
 7604TIP3    H144227   3.592   2.210  15.389
 7604TIP3    H244228   3.662   2.089  15.332
 7605TIP3   OH244229   3.672   2.163  13.933
 7605TIP3    H144230   3.718   2.106  13.871
 7605TIP3    H244231   3.740   2.221  13.968
 7606TIP3   OH244232   1.917   2.123  14.199
 7606TIP3    H144233   1.824   2.131  14.223
 7606TIP3    H244234   1.937   2.204  14.152
 7607TIP3   OH244235   3.405   3.677  14.456
 7607TIP3    H144236   3.453   3.662  14.375
 7607TIP3    H244237   3.473   3.700  14.520
 7608TIP3   OH244238   1.898   1.976  15.035
 7608TIP3    H144239   1.835   1.976  15.107
 7608TIP3    H244240   1.876   2.054  14.984
 7609TIP3   OH244241   2.131   3.385  15.496
 7609TIP3    H144242   2.040   3.381  15.469
 7609TIP3    H244243   2.133   3.343  15.582
 7610TIP3   OH244244   2.425   3.475  15.124
 7610TIP3    H144245   2.379   3.521  15.054
 7610TIP3    H244246   2.453   3.392  15.084
 7611TIP3   OH244247   2.858   3.589  15.393
 7611TIP3    H144248   2.870   3.570  15.486
 7611TIP3    H244249   2.936   3.640  15.370
 7612TIP3   OH244250   3.089   3.730  15.340
 7612TIP3    H144251   3.163   3.675  15.314
 7612TIP3    H244252   3.113   3.765  15.425
 7613TIP3   OH244253   3.581   1.957  15.228
 7613TIP3    H144254   3.514   1.979  15.164
 7613TIP3    H244255   3.603   1.866  15.208
 7614TIP3   OH244256   2.140   3.790  15.132
 7614TIP3    H144257   2.062   3.835  15.100
 7614TIP3    H244258   2.151   3.821  15.222
 7615TIP3   OH244259   2.379   3.726  15.021
 7615TIP3    H144260   2.291   3.749  15.050
 7615TIP3    H244261   2.397   3.786  14.948
 7616TIP3   OH244262   2.878   3.724  14.955
 7616TIP3    H144263   2.851   3.764  14.873
 7616TIP3    H244264   2.892   3.797  15.015
 7617TIP3   OH244265   3.105   3.596  15.043
 7617TIP3    H144266   3.026   3.636  15.008
 7617TIP3    H244267   3.172   3.663  15.033
 7618TIP3   OH244268   3.345   3.754  15.053
 7618TIP3    H144269   3.356   3.847  15.032
 7618TIP3    H244270   3.385   3.708  14.979
 7619TIP3   OH244271   2.105   3.623  14.813
 7619TIP3    H144272   2.103   3.571  14.893
 7619TIP3    H244273   2.182   3.592  14.766
 7620TIP3   OH244274   2.325   3.506  14.703
 7620TIP3    H144275   2.323   3.415  14.733
 7620TIP3    H244276   2.416   3.534  14.718
 7621TIP3   OH244277   2.597   3.544  14.797
 7621TIP3    H144278   2.612   3.458  14.758
 7621TIP3    H244279   2.633   3.537  14.885
 7622TIP3   OH244280   2.921   2.105  14.696
 7622TIP3    H144281   2.856   2.036  14.708
 7622TIP3    H244282   2.993   2.063  14.649
 7623TIP3   OH244283   3.408   1.959  14.700
 7623TIP3    H144284   3.468   2.002  14.639
 7623TIP3    H244285   3.321   1.976  14.664
 7624TIP3   OH244286   3.584   2.035  14.497
 7624TIP3    H144287   3.653   1.974  14.470
 7624TIP3    H244288   3.630   2.115  14.520
 7625TIP3   OH244289   2.138   1.992  14.434
 7625TIP3    H144290   2.048   1.982  14.401
 7625TIP3    H244291   2.179   1.907  14.421
 7626TIP3   OH244292   2.063   1.957  14.032
 7626TIP3    H144293   2.115   2.017  13.978
 7626TIP3    H244294   2.014   2.014  14.091
 7627TIP3   OH244295   2.642   1.938  14.459
 7627TIP3    H144296   2.710   1.988  14.414
 7627TIP3    H244297   2.666   1.941  14.551
 7628TIP3   OH244298   3.144   1.974  14.590
 7628TIP3    H144299   3.163   1.957  14.498
 7628TIP3    H244300   3.120   1.889  14.627
 7629TIP3   OH244301   3.264   1.999  14.140
 7629TIP3    H144302   3.199   2.059  14.178
 7629TIP3    H244303   3.242   1.914  14.178
 7630TIP3   OH244304   2.030   3.603  14.110
 7630TIP3    H144305   1.958   3.595  14.046
 7630TIP3    H244306   2.058   3.694  14.102
 7631TIP3   OH244307   2.244   2.123  13.876
 7631TIP3    H144308   2.297   2.068  13.818
 7631TIP3    H244309   2.308   2.158  13.939
 7632TIP3   OH244310   2.706   2.207  14.125
 7632TIP3    H144311   2.736   2.130  14.173
 7632TIP3    H244312   2.732   2.281  14.180
 7633TIP3   OH244313   2.930   3.698  13.956
 7633TIP3    H144314   3.025   3.706  13.945
 7633TIP3    H244315   2.903   3.635  13.888
 7634TIP3   OH244316   3.581   3.639  14.247
 7634TIP3    H144317   3.567   3.550  14.215
 7634TIP3    H244318   3.568   3.695  14.170
 7635TIP3   OH244319   2.158   2.023  15.378
 7635TIP3    H144320   2.098   1.960  15.418
 7635TIP3    H244321   2.243   2.005  15.418
 7636TIP3   OH244322   2.369   1.949  15.543
 7636TIP3    H144323   2.456   1.924  15.511
 7636TIP3    H244324   2.339   1.872  15.591
 7637TIP3   OH244325   2.234   3.639  13.808
 7637TIP3    H144326   2.208   3.620  13.898
 7637TIP3    H244327   2.309   3.582  13.792
 7638TIP3   OH244328   3.221   1.905  15.584
 7638TIP3    H144329   3.217   1.854  15.665
 7638TIP3    H244330   3.313   1.899  15.557
 7639TIP3   OH244331   3.484   3.507  15.454
 7639TIP3    H144332   3.428   3.508  15.377
 7639TIP3    H244333   3.495   3.599  15.477
 7640TIP3   OH244334   4.962   2.923  14.428
 7640TIP3    H144335   4.950   3.017  14.413
 7640TIP3    H244336   4.896   2.881  14.373
 7641TIP3   OH244337   4.884   2.871  14.854
 7641TIP3    H144338   4.908   2.818  14.931
 7641TIP3    H244339   4.856   2.806  14.789
 7642TIP3   OH244340   4.056   2.779  14.968
 7642TIP3    H144341   4.059   2.700  15.023
 7642TIP3    H244342   4.143   2.784  14.929
 7643TIP3   OH244343   5.259   3.133  14.647
 7643TIP3    H144344   5.215   3.057  14.684
 7643TIP3    H244345   5.255   3.200  14.715
 7644TIP3   OH244346   4.180   3.246  14.754
 7644TIP3    H144347   4.159   3.155  14.731
 7644TIP3    H244348   4.274   3.245  14.773
 7645TIP3   OH244349   3.835   2.579  14.294
 7645TIP3    H144350   3.805   2.666  14.320
 7645TIP3    H244351   3.777   2.554  14.222
 7646TIP3   OH244352   3.899   2.801  14.585
 7646TIP3    H144353   3.928   2.712  14.600
 7646TIP3    H244354   3.979   2.850  14.567
 7647TIP3   OH244355   4.960   3.626  14.668
 7647TIP3    H144356   4.997   3.569  14.601
 7647TIP3    H244357   4.914   3.567  14.728
 7648TIP3   OH244358   4.673   3.096  14.821
 7648TIP3    H144359   4.714   3.022  14.776
 7648TIP3    H244360   4.743   3.132  14.875
 7649TIP3   OH244361   5.578   2.216  14.920
 7649TIP3    H144362   5.593   2.291  14.978
 7649TIP3    H244363   5.622   2.240  14.838
 7650TIP3   OH244364   5.044   2.505  14.874
 7650TIP3    H144365   5.048   2.410  14.863
 7650TIP3    H244366   4.971   2.532  14.817
 7651TIP3   OH244367   4.325   2.288  14.542
 7651TIP3    H144368   4.340   2.379  14.518
 7651TIP3    H244369   4.271   2.254  14.471
 7652TIP3   OH244370   5.138   2.324  14.407
 7652TIP3    H144371   5.177   2.294  14.489
 7652TIP3    H244372   5.211   2.363  14.358
 7653TIP3   OH244373   3.987   2.546  14.648
 7653TIP3    H144374   4.056   2.505  14.700
 7653TIP3    H244375   4.000   2.512  14.559
 7654TIP3   OH244376   4.422   2.704  14.618
 7654TIP3    H144377   4.484   2.645  14.661
 7654TIP3    H244378   4.379   2.649  14.553
 7655TIP3   OH244379   5.612   2.389  15.144
 7655TIP3    H144380   5.542   2.447  15.115
 7655TIP3    H244381   5.591   2.369  15.235
 7656TIP3   OH244382   4.193   2.217  14.993
 7656TIP3    H144383   4.186   2.277  14.919
 7656TIP3    H244384   4.121   2.242  15.052
 7657TIP3   OH244385   4.917   3.174  14.329
 7657TIP3    H144386   4.903   3.173  14.234
 7657TIP3    H244387   4.876   3.256  14.358
 7658TIP3   OH244388   4.475   2.981  14.975
 7658TIP3    H144389   4.420   3.050  15.013
 7658TIP3    H244390   4.538   3.028  14.921
 7659TIP3   OH244391   5.231   2.281  14.661
 7659TIP3    H144392   5.167   2.251  14.726
 7659TIP3    H244393   5.287   2.342  14.710
 7660TIP3   OH244394   4.178   2.375  14.763
 7660TIP3    H144395   4.230   2.431  14.819
 7660TIP3    H244396   4.239   2.342  14.697
 7661TIP3   OH244397   4.324   3.182  15.087
 7661TIP3    H144398   4.331   3.277  15.076
 7661TIP3    H244399   4.233   3.167  15.112
 7662TIP3   OH244400   3.887   3.178  14.164
 7662TIP3    H144401   3.881   3.213  14.075
 7662TIP3    H244402   3.915   3.252  14.217
 7663TIP3   OH244403   5.274   3.344  14.840
 7663TIP3    H144404   5.181   3.343  14.862
 7663TIP3    H244405   5.292   3.435  14.816
 7664TIP3   OH244406   5.315   2.138  15.012
 7664TIP3    H144407   5.242   2.173  14.961
 7664TIP3    H244408   5.393   2.160  14.962
 7665TIP3   OH244409   4.567   1.915  14.745
 7665TIP3    H144410   4.534   1.825  14.738
 7665TIP3    H244411   4.491   1.966  14.773
 7666TIP3   OH244412   5.093   3.502  14.455
 7666TIP3    H144413   5.130   3.415  14.440
 7666TIP3    H244414   5.169   3.559  14.467
 7667TIP3   OH244415   5.222   3.268  14.404
 7667TIP3    H144416   5.210   3.207  14.331
 7667TIP3    H244417   5.234   3.212  14.480
 7668TIP3   OH244418   5.367   3.123  15.210
 7668TIP3    H144419   5.353   3.063  15.137
 7668TIP3    H244420   5.376   3.209  15.169
 7669TIP3   OH244421   4.816   2.834  14.205
 7669TIP3    H144422   4.749   2.896  14.176
 7669TIP3    H244423   4.882   2.837  14.135
 7670TIP3   OH244424   4.850   2.702  13.867
 7670TIP3    H144425   4.907   2.726  13.940
 7670TIP3    H244426   4.903   2.643  13.814
 7671TIP3   OH244427   5.548   2.787  15.032
 7671TIP3    H144428   5.471   2.844  15.024
 7671TIP3    H244429   5.602   2.809  14.956
 7672TIP3   OH244430   5.181   2.859  14.279
 7672TIP3    H144431   5.112   2.879  14.342
 7672TIP3    H244432   5.243   2.803  14.327
 7673TIP3   OH244433   5.174   2.676  15.224
 7673TIP3    H144434   5.160   2.746  15.288
 7673TIP3    H244435   5.109   2.693  15.155
 7674TIP3   OH244436   4.324   2.914  14.465
 7674TIP3    H144437   4.299   2.876  14.381
 7674TIP3    H244438   4.370   2.844  14.511
 7675TIP3   OH244439   4.465   3.267  14.732
 7675TIP3    H144440   4.464   3.271  14.636
 7675TIP3    H244441   4.538   3.208  14.753
 7676TIP3   OH244442   4.308   2.799  14.851
 7676TIP3    H144443   4.352   2.763  14.774
 7676TIP3    H244444   4.372   2.857  14.891
 7677TIP3   OH244445   5.020   3.359  14.926
 7677TIP3    H144446   4.995   3.422  14.994
 7677TIP3    H244447   4.973   3.279  14.950
 7678TIP3   OH244448   4.463   3.232  15.320
 7678TIP3    H144449   4.400   3.293  15.357
 7678TIP3    H244450   4.424   3.203  15.238
 7679TIP3   OH244451   5.047   2.785  14.051
 7679TIP3    H144452   5.094   2.814  14.129
 7679TIP3    H244453   5.100   2.817  13.978
 7680TIP3   OH244454   4.141   2.818  15.291
 7680TIP3    H144455   4.147   2.906  15.330
 7680TIP3    H244456   4.070   2.826  15.227
 7681TIP3   OH244457   4.829   3.432  14.392
 7681TIP3    H144458   4.916   3.462  14.416
 7681TIP3    H244459   4.795   3.499  14.333
 7682TIP3   OH244460   4.258   3.404  15.409
 7682TIP3    H144461   4.235   3.464  15.338
 7682TIP3    H244462   4.174   3.372  15.442
 7683TIP3   OH244463   5.418   1.925  14.040
 7683TIP3    H144464   5.331   1.950  14.072
 7683TIP3    H244465   5.455   2.006  14.005
 7684TIP3   OH244466   4.245   2.816  14.214
 7684TIP3    H144467   4.185   2.877  14.171
 7684TIP3    H244468   4.209   2.729  14.196
 7685TIP3   OH244469   5.559   3.371  13.902
 7685TIP3    H144470   5.577   3.465  13.901
 7685TIP3    H244471   5.645   3.330  13.890
 7686TIP3   OH244472   3.823   3.072  15.131
 7686TIP3    H144473   3.776   3.078  15.048
 7686TIP3    H244474   3.835   2.978  15.144
 7687TIP3   OH244475   3.851   3.318  14.781
 7687TIP3    H144476   3.937   3.283  14.759
 7687TIP3    H244477   3.865   3.365  14.864
 7688TIP3   OH244478   5.633   3.414  15.400
 7688TIP3    H144479   5.621   3.320  15.393
 7688TIP3    H244480   5.550   3.446  15.437
 7689TIP3   OH244481   4.703   3.356  15.255
 7689TIP3    H144482   4.701   3.440  15.300
 7689TIP3    H244483   4.617   3.317  15.273
 7690TIP3   OH244484   4.807   3.704  14.242
 7690TIP3    H144485   4.779   3.701  14.150
 7690TIP3    H244486   4.769   3.785  14.275
 7691TIP3   OH244487   4.137   3.596  14.438
 7691TIP3    H144488   4.155   3.562  14.526
 7691TIP3    H244489   4.083   3.528  14.397
 7692TIP3   OH244490   5.088   3.660  13.929
 7692TIP3    H144491   5.134   3.586  13.889
 7692TIP3    H244492   5.098   3.646  14.024
 7693TIP3   OH244493   5.071   3.644  14.209
 7693TIP3    H144494   4.977   3.660  14.220
 7693TIP3    H244495   5.092   3.580  14.277
 7694TIP3   OH244496   5.328   2.538  15.420
 7694TIP3    H144497   5.271   2.576  15.353
 7694TIP3    H244498   5.326   2.444  15.402
 7695TIP3   OH244499   4.072   3.169  15.191
 7695TIP3    H144500   4.087   3.142  15.282
 7695TIP3    H244501   3.984   3.135  15.171
 7696TIP3   OH244502   4.319   2.023  14.825
 7696TIP3    H144503   4.246   2.019  14.765
 7696TIP3    H244504   4.303   2.102  14.877
 7697TIP3   OH244505   4.794   2.005  15.171
 7697TIP3    H144506   4.836   1.954  15.239
 7697TIP3    H244507   4.700   1.988  15.183
 7698TIP3   OH244508   5.109   2.397  15.268
 7698TIP3    H144509   5.034   2.381  15.324
 7698TIP3    H244510   5.092   2.483  15.230
 7699TIP3   OH244511   5.210   2.870  13.856
 7699TIP3    H144512   5.178   2.868  13.765
 7699TIP3    H244513   5.305   2.880  13.848
 7700TIP3   OH244514   4.747   2.225  13.897
 7700TIP3    H144515   4.689   2.223  13.973
 7700TIP3    H244516   4.714   2.155  13.840
 7701TIP3   OH244517   4.277   2.526  14.961
 7701TIP3    H144518   4.224   2.554  15.035
 7701TIP3    H244519   4.332   2.602  14.940
 7702TIP3   OH244520   4.302   2.546  14.433
 7702TIP3    H144521   4.211   2.520  14.421
 7702TIP3    H244522   4.342   2.535  14.346
 7703TIP3   OH244523   4.876   2.580  14.294
 7703TIP3    H144524   4.848   2.667  14.265
 7703TIP3    H244525   4.942   2.553  14.230
 7704TIP3   OH244526   4.794   2.597  15.448
 7704TIP3    H144527   4.742   2.522  15.477
 7704TIP3    H244528   4.881   2.580  15.485
 7705TIP3   OH244529   5.001   2.530  14.533
 7705TIP3    H144530   4.952   2.562  14.456
 7705TIP3    H244531   5.040   2.448  14.503
 7706TIP3   OH244532   4.075   2.563  15.146
 7706TIP3    H144533   4.091   2.595  15.235
 7706TIP3    H244534   4.048   2.472  15.157
 7707TIP3   OH244535   4.424   2.258  13.790
 7707TIP3    H144536   4.392   2.251  13.880
 7707TIP3    H244537   4.372   2.329  13.752
 7708TIP3   OH244538   3.758   2.240  14.531
 7708TIP3    H144539   3.827   2.253  14.596
 7708TIP3    H244540   3.804   2.234  14.448
 7709TIP3   OH244541   3.846   2.346  14.046
 7709TIP3    H144542   3.917   2.374  13.988
 7709TIP3    H244543   3.789   2.422  14.053
 7710TIP3   OH244544   4.964   2.695  15.048
 7710TIP3    H144545   5.000   2.636  14.981
 7710TIP3    H244546   4.897   2.643  15.092
 7711TIP3   OH244547   4.608   2.260  14.523
 7711TIP3    H144548   4.514   2.245  14.527
 7711TIP3    H244549   4.626   2.318  14.598
 7712TIP3   OH244550   4.050   2.446  14.401
 7712TIP3    H144551   3.977   2.479  14.350
 7712TIP3    H244552   4.071   2.361  14.362
 7713TIP3   OH244553   4.406   2.499  14.186
 7713TIP3    H144554   4.500   2.486  14.200
 7713TIP3    H244555   4.400   2.534  14.097
 7714TIP3   OH244556   5.047   2.224  14.874
 7714TIP3    H144557   5.000   2.240  14.956
 7714TIP3    H244558   4.985   2.178  14.818
 7715TIP3   OH244559   4.361   2.578  13.928
 7715TIP3    H144560   4.310   2.542  13.855
 7715TIP3    H244561   4.436   2.620  13.886
 7716TIP3   OH244562   5.367   3.786  15.500
 7716TIP3    H144563   5.393   3.815  15.413
 7716TIP3    H244564   5.441   3.810  15.556
 7717TIP3   OH244565   4.119   3.049  15.441
 7717TIP3    H144566   4.187   3.053  15.509
 7717TIP3    H244567   4.038   3.067  15.489
 7718TIP3   OH244568   4.839   2.628  14.733
 7718TIP3    H144569   4.877   2.595  14.651
 7718TIP3    H244570   4.755   2.583  14.740
 7719TIP3   OH244571   4.164   2.200  14.329
 7719TIP3    H144572   4.120   2.120  14.357
 7719TIP3    H244573   4.201   2.178  14.243
 7720TIP3   OH244574   4.572   2.414  15.054
 7720TIP3    H144575   4.561   2.426  14.960
 7720TIP3    H244576   4.655   2.457  15.075
 7721TIP3   OH244577   4.622   3.023  14.124
 7721TIP3    H144578   4.552   2.982  14.074
 7721TIP3    H244579   4.582   3.046  14.208
 7722TIP3   OH244580   5.345   2.967  14.984
 7722TIP3    H144581   5.403   3.023  14.931
 7722TIP3    H244582   5.274   2.944  14.924
 7723TIP3   OH244583   5.000   2.273  13.994
 7723TIP3    H144584   4.912   2.274  13.955
 7723TIP3    H244585   5.017   2.365  14.015
 7724TIP3   OH244586   4.831   3.097  15.255
 7724TIP3    H144587   4.791   3.035  15.316
 7724TIP3    H244588   4.778   3.176  15.262
 7725TIP3   OH244589   5.083   2.514  14.119
 7725TIP3    H144590   5.172   2.495  14.150
 7725TIP3    H244591   5.089   2.601  14.079
 7726TIP3   OH244592   4.161   2.977  14.681
 7726TIP3    H144593   4.214   2.965  14.602
 7726TIP3    H244594   4.198   2.916  14.744
 7727TIP3   OH244595   4.839   3.174  14.058
 7727TIP3    H144596   4.806   3.264  14.064
 7727TIP3    H244597   4.762   3.119  14.076
 7728TIP3   OH244598   3.850   2.818  15.239
 7728TIP3    H144599   3.847   2.776  15.324
 7728TIP3    H244600   3.785   2.771  15.186
 7729TIP3   OH244601   4.573   2.775  15.467
 7729TIP3    H144602   4.509   2.742  15.404
 7729TIP3    H244603   4.655   2.731  15.443
 7730TIP3   OH244604   4.992   3.371  15.255
 7730TIP3    H144605   4.900   3.355  15.232
 7730TIP3    H244606   4.994   3.363  15.350
 7731TIP3   OH244607   5.541   2.552  14.072
 7731TIP3    H144608   5.497   2.531  13.989
 7731TIP3    H244609   5.567   2.644  14.062
 7732TIP3   OH244610   5.596   3.139  15.359
 7732TIP3    H144611   5.505   3.141  15.328
 7732TIP3    H244612   5.647   3.119  15.280
 7733TIP3   OH244613   5.439   3.378  14.154
 7733TIP3    H144614   5.372   3.313  14.172
 7733TIP3    H244615   5.463   3.363  14.063
 7734TIP3   OH244616   5.160   2.904  14.786
 7734TIP3    H144617   5.065   2.901  14.794
 7734TIP3    H244618   5.183   2.823  14.739
 7735TIP3   OH244619   4.409   3.335  14.466
 7735TIP3    H144620   4.433   3.421  14.431
 7735TIP3    H244621   4.317   3.324  14.441
 7736TIP3   OH244622   3.976   2.790  13.918
 7736TIP3    H144623   4.023   2.856  13.969
 7736TIP3    H244624   3.885   2.795  13.949
 7737TIP3   OH244625   4.496   3.099  14.349
 7737TIP3    H144626   4.483   3.183  14.395
 7737TIP3    H244627   4.439   3.038  14.396
 7738TIP3   OH244628   4.600   3.523  15.028
 7738TIP3    H144629   4.666   3.589  15.009
 7738TIP3    H244630   4.645   3.459  15.083
 7739TIP3   OH244631   4.402   3.597  14.358
 7739TIP3    H144632   4.309   3.611  14.377
 7739TIP3    H244633   4.445   3.677  14.389
 7740TIP3   OH244634   4.898   3.118  14.988
 7740TIP3    H144635   4.879   3.098  15.080
 7740TIP3    H244636   4.908   3.032  14.947
 7741TIP3   OH244637   5.191   3.215  13.923
 7741TIP3    H144638   5.203   3.171  14.007
 7741TIP3    H244639   5.107   3.184  13.890
 7742TIP3   OH244640   5.209   3.536  15.232
 7742TIP3    H144641   5.129   3.484  15.228
 7742TIP3    H244642   5.195   3.607  15.169
 7743TIP3   OH244643   5.615   3.640  13.935
 7743TIP3    H144644   5.660   3.704  13.880
 7743TIP3    H244645   5.539   3.686  13.969
 7744TIP3   OH244646   3.987   2.288  15.172
 7744TIP3    H144647   3.898   2.311  15.148
 7744TIP3    H244648   3.980   2.198  15.206
 7745TIP3   OH244649   5.273   3.099  14.168
 7745TIP3    H144650   5.226   3.021  14.197
 7745TIP3    H244651   5.365   3.072  14.167
 7746TIP3   OH244652   3.947   3.443  15.018
 7746TIP3    H144653   3.973   3.357  15.051
 7746TIP3    H244654   3.979   3.505  15.083
 7747TIP3   OH244655   4.558   3.306  13.772
 7747TIP3    H144656   4.563   3.223  13.725
 7747TIP3    H244657   4.515   3.285  13.855
 7748TIP3   OH244658   4.434   3.280  14.020
 7748TIP3    H144659   4.483   3.226  14.082
 7748TIP3    H244660   4.448   3.370  14.049
 7749TIP3   OH244661   4.079   2.993  14.080
 7749TIP3    H144662   4.009   3.041  14.123
 7749TIP3    H244663   4.126   3.060  14.029
 7750TIP3   OH244664   4.907   2.252  15.113
 7750TIP3    H144665   4.972   2.251  15.183
 7750TIP3    H244666   4.857   2.171  15.124
 7751TIP3   OH244667   4.975   2.167  14.247
 7751TIP3    H144668   4.979   2.206  14.159
 7751TIP3    H244669   5.024   2.229  14.302
 7752TIP3   OH244670   4.739   3.426  14.079
 7752TIP3    H144671   4.650   3.456  14.095
 7752TIP3    H244672   4.781   3.498  14.032
 7753TIP3   OH244673   4.656   2.412  14.288
 7753TIP3    H144674   4.732   2.470  14.295
 7753TIP3    H244675   4.644   2.377  14.376
 7754TIP3   OH244676   4.808   2.512  15.172
 7754TIP3    H144677   4.797   2.522  15.267
 7754TIP3    H244678   4.833   2.421  15.159
 7755TIP3   OH244679   4.734   2.076  14.346
 7755TIP3    H144680   4.707   2.143  14.408
 7755TIP3    H244681   4.820   2.105  14.315
 7756TIP3   OH244682   4.489   3.536  14.105
 7756TIP3    H144683   4.494   3.620  14.059
 7756TIP3    H244684   4.457   3.558  14.192
 7757TIP3   OH244685   4.332   2.262  14.063
 7757TIP3    H144686   4.339   2.345  14.109
 7757TIP3    H244687   4.413   2.216  14.083
 7758TIP3   OH244688   5.347   2.275  15.268
 7758TIP3    H144689   5.259   2.312  15.270
 7758TIP3    H244690   5.353   2.231  15.183
 7759TIP3   OH244691   5.215   2.654  14.665
 7759TIP3    H144692   5.134   2.616  14.633
 7759TIP3    H244693   5.251   2.588  14.724
 7760TIP3   OH244694   4.183   3.203  13.925
 7760TIP3    H144695   4.258   3.248  13.964
 7760TIP3    H244696   4.221   3.147  13.857
 7761TIP3   OH244697   3.971   2.517  13.872
 7761TIP3    H144698   3.984   2.610  13.890
 7761TIP3    H244699   3.964   2.511  13.776
 7762TIP3   OH244700   5.347   3.615  14.834
 7762TIP3    H144701   5.327   3.689  14.776
 7762TIP3    H244702   5.442   3.618  14.845
 7763TIP3   OH244703   4.067   2.001  14.703
 7763TIP3    H144704   4.061   1.997  14.607
 7763TIP3    H244705   4.032   1.917  14.732
 7764TIP3   OH244706   3.954   3.420  14.313
 7764TIP3    H144707   3.884   3.441  14.374
 7764TIP3    H244708   3.942   3.480  14.240
 7765TIP3   OH244709   3.935   3.702  15.490
 7765TIP3    H144710   3.994   3.672  15.559
 7765TIP3    H244711   3.968   3.661  15.410
 7766TIP3   OH244712   4.356   3.506  15.644
 7766TIP3    H144713   4.433   3.451  15.659
 7766TIP3    H244714   4.323   3.478  15.558
 7767TIP3   OH244715   4.765   3.488  13.758
 7767TIP3    H144716   4.696   3.421  13.768
 7767TIP3    H244717   4.840   3.440  13.723
 7768TIP3   OH244718   4.992   3.372  15.531
 7768TIP3    H144719   4.984   3.285  15.571
 7768TIP3    H244720   5.070   3.409  15.571
 7769TIP3   OH244721   5.213   3.458  13.796
 7769TIP3    H144722   5.219   3.374  13.843
 7769TIP3    H244723   5.285   3.454  13.732
 7770TIP3   OH244724   3.868   3.037  15.571
 7770TIP3    H144725   3.881   2.944  15.551
 7770TIP3    H244726   3.804   3.067  15.507
 7771TIP3   OH244727   4.314   3.024  13.768
 7771TIP3    H144728   4.340   2.973  13.845
 7771TIP3    H244729   4.396   3.037  13.720
 7772TIP3   OH244730   4.538   3.054  15.520
 7772TIP3    H144731   4.519   3.098  15.437
 7772TIP3    H244732   4.560   2.964  15.494
 7773TIP3   OH244733   4.946   3.156  13.805
 7773TIP3    H144734   4.899   3.153  13.888
 7773TIP3    H244735   4.922   3.073  13.762
 7774TIP3   OH244736   5.107   3.036  15.304
 7774TIP3    H144737   5.177   3.091  15.268
 7774TIP3    H244738   5.026   3.077  15.275
 7775TIP3   OH244739   3.959   2.777  15.509
 7775TIP3    H144740   4.036   2.780  15.452
 7775TIP3    H244741   3.994   2.766  15.597
 7776TIP3   OH244742   4.419   2.891  13.991
 7776TIP3    H144743   4.372   2.843  14.059
 7776TIP3    H244744   4.468   2.823  13.944
 7777TIP3   OH244745   4.378   2.671  15.288
 7777TIP3    H144746   4.300   2.725  15.281
 7777TIP3    H244747   4.438   2.706  15.223
 7778TIP3   OH244748   4.572   2.722  13.830
 7778TIP3    H144749   4.570   2.747  13.738
 7778TIP3    H244750   4.665   2.708  13.848
 7779TIP3   OH244751   4.903   2.893  15.581
 7779TIP3    H144752   4.974   2.853  15.531
 7779TIP3    H244753   4.856   2.819  15.620
 7780TIP3   OH244754   5.475   2.914  13.782
 7780TIP3    H144755   5.469   2.886  13.691
 7780TIP3    H244756   5.464   3.009  13.779
 7781TIP3   OH244757   4.421   2.406  15.354
 7781TIP3    H144758   4.418   2.340  15.284
 7781TIP3    H244759   4.413   2.489  15.308
 7782TIP3   OH244760   4.419   2.215  15.148
 7782TIP3    H144761   4.477   2.279  15.106
 7782TIP3    H244762   4.340   2.216  15.093
 7783TIP3   OH244763   4.573   2.782  15.137
 7783TIP3    H144764   4.638   2.733  15.085
 7783TIP3    H244765   4.545   2.853  15.079
 7784TIP3   OH244766   5.026   2.543  15.604
 7784TIP3    H144767   5.035   2.462  15.654
 7784TIP3    H244768   5.114   2.561  15.570
 7785TIP3   OH244769   5.165   2.839  15.475
 7785TIP3    H144770   5.139   2.914  15.421
 7785TIP3    H244771   5.261   2.837  15.468
 7786TIP3   OH244772   4.258   2.462  15.573
 7786TIP3    H144773   4.181   2.411  15.548
 7786TIP3    H244774   4.311   2.466  15.493
 7787TIP3   OH244775   4.515   1.961  15.174
 7787TIP3    H144776   4.486   2.052  15.163
 7787TIP3    H244777   4.452   1.910  15.124
 7788TIP3   OH244778   4.645   2.375  15.512
 7788TIP3    H144779   4.597   2.348  15.590
 7788TIP3    H244780   4.578   2.381  15.444
 7789TIP3   OH244781   4.905   2.313  15.423
 7789TIP3    H144782   4.817   2.312  15.460
 7789TIP3    H244783   4.958   2.262  15.484
 7790TIP3   OH244784   5.094   2.188  15.594
 7790TIP3    H144785   5.085   2.093  15.596
 7790TIP3    H244786   5.057   2.217  15.678
 7791TIP3   OH244787   4.047   2.286  15.519
 7791TIP3    H144788   4.055   2.225  15.445
 7791TIP3    H244789   4.053   2.231  15.597
 7792TIP3   OH244790   4.513   1.899  15.440
 7792TIP3    H144791   4.569   1.822  15.434
 7792TIP3    H244792   4.506   1.930  15.350
 7793TIP3   OH244793   4.585   2.063  15.653
 7793TIP3    H144794   4.569   2.008  15.577
 7793TIP3    H244795   4.529   2.139  15.640
 7794TIP3   OH244796   4.563   3.779  13.989
 7794TIP3    H144797   4.651   3.746  13.973
 7794TIP3    H244798   4.546   3.839  13.915
 7795TIP3   OH244799   3.914   3.239  13.885
 7795TIP3    H144800   4.009   3.235  13.899
 7795TIP3    H244801   3.897   3.169  13.821
 7796TIP3   OH244802   3.770   3.745  14.420
 7796TIP3    H144803   3.717   3.710  14.348
 7796TIP3    H244804   3.792   3.668  14.472
 7797TIP3   OH244805   3.834   3.529  14.581
 7797TIP3    H144806   3.806   3.446  14.619
 7797TIP3    H244807   3.886   3.571  14.650
 7798TIP3   OH244808   5.616   3.625  14.903
 7798TIP3    H144809   5.605   3.597  14.994
 7798TIP3    H244810   5.661   3.709  14.908
 7799TIP3   OH244811   5.561   3.569  15.174
 7799TIP3    H144812   5.500   3.502  15.144
 7799TIP3    H244813   5.608   3.529  15.247
 7800TIP3   OH244814   5.404   3.174  15.701
 7800TIP3    H144815   5.320   3.193  15.744
 7800TIP3    H244816   5.455   3.255  15.712
 7801TIP3   OH244817   5.533   3.004  14.192
 7801TIP3    H144818   5.614   3.055  14.185
 7801TIP3    H244819   5.549   2.941  14.262
 7802TIP3   OH244820   5.585   2.809  14.378
 7802TIP3    H144821   5.501   2.768  14.398
 7802TIP3    H244822   5.633   2.808  14.461
 7803TIP3   OH244823   5.576   3.093  14.884
 7803TIP3    H144824   5.626   3.019  14.850
 7803TIP3    H244825   5.550   3.143  14.806
 7804TIP3   OH244826   5.385   3.373  15.092
 7804TIP3    H144827   5.314   3.421  15.135
 7804TIP3    H244828   5.353   3.358  15.003
 7805TIP3   OH244829   5.600   2.813  14.003
 7805TIP3    H144830   5.559   2.836  13.920
 7805TIP3    H244831   5.567   2.878  14.065
 7806TIP3   OH244832   5.431   2.520  13.824
 7806TIP3    H144833   5.407   2.577  13.750
 7806TIP3    H244834   5.414   2.431  13.792
 7807TIP3   OH244835   5.345   2.680  14.421
 7807TIP3    H144836   5.339   2.593  14.382
 7807TIP3    H244837   5.304   2.671  14.507
 7808TIP3   OH244838   3.832   2.867  14.842
 7808TIP3    H144839   3.846   2.849  14.749
 7808TIP3    H244840   3.915   2.848  14.884
 7809TIP3   OH244841   5.440   2.864  15.438
 7809TIP3    H144842   5.498   2.792  15.413
 7809TIP3    H244843   5.458   2.933  15.374
 7810TIP3   OH244844   5.583   2.636  15.388
 7810TIP3    H144845   5.496   2.598  15.392
 7810TIP3    H244846   5.641   2.567  15.421
 7811TIP3   OH244847   5.373   2.267  13.732
 7811TIP3    H144848   5.410   2.216  13.804
 7811TIP3    H244849   5.281   2.241  13.729
 7812TIP3   OH244850   5.347   2.442  14.250
 7812TIP3    H144851   5.373   2.350  14.252
 7812TIP3    H244852   5.411   2.484  14.193
 7813TIP3   OH244853   5.369   2.465  14.817
 7813TIP3    H144854   5.462   2.477  14.800
 7813TIP3    H244855   5.359   2.486  14.910
 7814TIP3   OH244856   5.399   2.559  15.084
 7814TIP3    H144857   5.319   2.592  15.124
 7814TIP3    H244858   5.451   2.638  15.067
 7815TIP3   OH244859   3.810   2.395  15.422
 7815TIP3    H144860   3.899   2.376  15.451
 7815TIP3    H244861   3.764   2.311  15.427
 7816TIP3   OH244862   5.609   1.992  15.604
 7816TIP3    H144863   5.679   1.930  15.584
 7816TIP3    H244864   5.614   2.057  15.533
 7817TIP3   OH244865   5.400   2.168  14.271
 7817TIP3    H144866   5.414   2.128  14.357
 7817TIP3    H244867   5.332   2.115  14.230
 7818TIP3   OH244868   3.933   2.237  14.755
 7818TIP3    H144869   3.973   2.151  14.745
 7818TIP3    H244870   4.007   2.298  14.759
 7819TIP3   OH244871   3.755   2.530  14.811
 7819TIP3    H144872   3.820   2.515  14.743
 7819TIP3    H244873   3.792   2.601  14.864
 7820TIP3   OH244874   5.566   2.166  15.394
 7820TIP3    H144875   5.484   2.215  15.392
 7820TIP3    H244876   5.555   2.097  15.329
 7821TIP3   OH244877   5.540   2.143  13.924
 7821TIP3    H144878   5.588   2.088  13.863
 7821TIP3    H244879   5.604   2.207  13.955
 7822TIP3   OH244880   3.804   2.175  14.254
 7822TIP3    H144881   3.710   2.165  14.240
 7822TIP3    H244882   3.832   2.237  14.186
 7823TIP3   OH244883   5.306   3.677  14.456
 7823TIP3    H144884   5.361   3.652  14.381
 7823TIP3    H244885   5.346   3.757  14.489
 7824TIP3   OH244886   3.812   2.019  15.073
 7824TIP3    H144887   3.735   2.001  15.126
 7824TIP3    H244888   3.781   2.080  15.006
 7825TIP3   OH244889   4.002   3.351  15.498
 7825TIP3    H144890   3.941   3.388  15.434
 7825TIP3    H244891   3.950   3.342  15.578
 7826TIP3   OH244892   4.333   3.452  15.105
 7826TIP3    H144893   4.264   3.512  15.132
 7826TIP3    H244894   4.407   3.508  15.082
 7827TIP3   OH244895   4.715   3.596  15.398
 7827TIP3    H144896   4.730   3.566  15.487
 7827TIP3    H244897   4.794   3.646  15.376
 7828TIP3   OH244898   4.949   3.736  15.355
 7828TIP3    H144899   5.009   3.681  15.304
 7828TIP3    H244900   5.000   3.761  15.432
 7829TIP3   OH244901   5.469   1.958  15.230
 7829TIP3    H144902   5.395   1.977  15.171
 7829TIP3    H244903   5.490   1.866  15.212
 7830TIP3   OH244904   4.055   3.900  15.081
 7830TIP3    H144905   3.960   3.911  15.075
 7830TIP3    H244906   4.066   3.820  15.131
 7831TIP3   OH244907   4.339   3.750  15.047
 7831TIP3    H144908   4.255   3.726  15.088
 7831TIP3    H244909   4.315   3.779  14.959
 7832TIP3   OH244910   4.764   3.731  14.942
 7832TIP3    H144911   4.705   3.763  14.873
 7832TIP3    H244912   4.769   3.804  15.003
 7833TIP3   OH244913   4.989   3.618  15.053
 7833TIP3    H144914   4.911   3.650  15.008
 7833TIP3    H244915   5.059   3.678  15.026
 7834TIP3   OH244916   5.241   3.757  15.048
 7834TIP3    H144917   5.252   3.848  15.020
 7834TIP3    H244918   5.273   3.705  14.974
 7835TIP3   OH244919   3.982   3.623  14.806
 7835TIP3    H144920   3.975   3.569  14.885
 7835TIP3    H244921   4.064   3.595  14.764
 7836TIP3   OH244922   4.205   3.514  14.694
 7836TIP3    H144923   4.194   3.421  14.714
 7836TIP3    H244924   4.294   3.534  14.721
 7837TIP3   OH244925   4.473   3.540  14.782
 7837TIP3    H144926   4.479   3.449  14.754
 7837TIP3    H244927   4.503   3.540  14.873
 7838TIP3   OH244928   4.852   2.091  14.737
 7838TIP3    H144929   4.762   2.071  14.710
 7838TIP3    H244930   4.906   2.055  14.666
 7839TIP3   OH244931   5.301   1.951  14.695
 7839TIP3    H144932   5.361   2.003  14.642
 7839TIP3    H244933   5.214   1.977  14.664
 7840TIP3   OH244934   5.481   2.041  14.507
 7840TIP3    H144935   5.548   1.979  14.478
 7840TIP3    H244936   5.528   2.122  14.524
 7841TIP3   OH244937   4.031   1.970  14.429
 7841TIP3    H144938   3.940   1.955  14.405
 7841TIP3    H244939   4.074   1.886  14.415
 7842TIP3   OH244940   3.903   1.952  14.064
 7842TIP3    H144941   3.991   1.951  14.027
 7842TIP3    H244942   3.902   2.031  14.119
 7843TIP3   OH244943   4.521   1.931  14.457
 7843TIP3    H144944   4.590   1.979  14.411
 7843TIP3    H244945   4.537   1.951  14.550
 7844TIP3   OH244946   5.048   1.978  14.575
 7844TIP3    H144947   5.058   1.964  14.480
 7844TIP3    H244948   5.020   1.892  14.608
 7845TIP3   OH244949   5.193   2.002  14.183
 7845TIP3    H144950   5.115   2.057  14.193
 7845TIP3    H244951   5.160   1.912  14.192
 7846TIP3   OH244952   3.915   3.601  14.111
 7846TIP3    H144953   3.842   3.592  14.050
 7846TIP3    H244954   3.943   3.692  14.102
 7847TIP3   OH244955   4.116   2.215  13.891
 7847TIP3    H144956   4.125   2.121  13.902
 7847TIP3    H244957   4.177   2.253  13.954
 7848TIP3   OH244958   4.595   2.199  14.128
 7848TIP3    H144959   4.628   2.127  14.183
 7848TIP3    H244960   4.617   2.278  14.177
 7849TIP3   OH244961   4.813   3.670  13.954
 7849TIP3    H144962   4.906   3.687  13.943
 7849TIP3    H244963   4.789   3.618  13.877
 7850TIP3   OH244964   5.483   3.631  14.249
 7850TIP3    H144965   5.467   3.542  14.217
 7850TIP3    H244966   5.463   3.687  14.174
 7851TIP3   OH244967   4.046   2.025  15.381
 7851TIP3    H144968   3.989   1.961  15.422
 7851TIP3    H244969   4.132   2.010  15.422
 7852TIP3   OH244970   4.256   1.948  15.548
 7852TIP3    H144971   4.343   1.928  15.514
 7852TIP3    H244972   4.230   1.870  15.597
 7853TIP3   OH244973   4.116   3.637  13.806
 7853TIP3    H144974   4.090   3.619  13.896
 7853TIP3    H244975   4.192   3.580  13.791
 7854TIP3   OH244976   5.103   1.909  15.585
 7854TIP3    H144977   5.095   1.860  15.667
 7854TIP3    H244978   5.195   1.901  15.561
 7855TIP3   OH244979   5.379   3.514  15.452
 7855TIP3    H144980   5.319   3.509  15.377
 7855TIP3    H244981   5.374   3.605  15.481
 7856TIP3   OH244982   6.837   2.924  14.426
 7856TIP3    H144983   6.821   3.019  14.418
 7856TIP3    H244984   6.778   2.885  14.362
 7857TIP3   OH244985   6.696   2.837  14.809
 7857TIP3    H144986   6.725   2.791  14.888
 7857TIP3    H244987   6.657   2.768  14.754
 7858TIP3   OH244988   5.952   2.770  14.947
 7858TIP3    H144989   5.958   2.695  15.007
 7858TIP3    H244990   6.042   2.784  14.918
 7859TIP3   OH244991   7.102   3.141  14.647
 7859TIP3    H144992   7.057   3.069  14.690
 7859TIP3    H244993   7.122   3.203  14.717
 7860TIP3   OH244994   6.061   3.236  14.702
 7860TIP3    H144995   6.040   3.143  14.696
 7860TIP3    H244996   6.151   3.239  14.735
 7861TIP3   OH244997   5.733   2.581  14.289
 7861TIP3    H144998   5.692   2.663  14.317
 7861TIP3    H244999   5.676   2.548  14.219
 7862TIP3   OH245000   5.778   2.798  14.579
 7862TIP3    H145001   5.804   2.708  14.600
 7862TIP3    H245002   5.857   2.838  14.544
 7863TIP3   OH245003   6.821   3.606  14.693
 7863TIP3    H145004   6.839   3.544  14.622
 7863TIP3    H245005   6.815   3.552  14.772
 7864TIP3   OH245006   6.560   3.090  14.826
 7864TIP3    H145007   6.595   3.008  14.792
 7864TIP3    H245008   6.631   3.125  14.881
 7865TIP3   OH245009   6.887   2.493  14.840
 7865TIP3    H145010   6.895   2.399  14.853
 7865TIP3    H245011   6.869   2.503  14.746
 7866TIP3   OH245012   6.235   2.305  14.566
 7866TIP3    H145013   6.241   2.390  14.522
 7866TIP3    H245014   6.185   2.251  14.506
 7867TIP3   OH245015   6.994   2.344  14.425
 7867TIP3    H145016   7.035   2.288  14.491
 7867TIP3    H245017   7.063   2.358  14.360
 7868TIP3   OH245018   5.870   2.550  14.652
 7868TIP3    H145019   5.937   2.508  14.707
 7868TIP3    H245020   5.887   2.516  14.564
 7869TIP3   OH245021   6.345   2.702  14.626
 7869TIP3    H145022   6.431   2.667  14.647
 7869TIP3    H245023   6.308   2.639  14.564
 7870TIP3   OH245024   6.092   2.227  14.993
 7870TIP3    H145025   6.071   2.282  14.917
 7870TIP3    H245026   6.019   2.240  15.053
 7871TIP3   OH245027   6.767   3.176  14.336
 7871TIP3    H145028   6.781   3.175  14.241
 7871TIP3    H245029   6.720   3.258  14.352
 7872TIP3   OH245030   6.351   2.996  14.979
 7872TIP3    H145031   6.299   3.068  15.015
 7872TIP3    H245032   6.420   3.040  14.929
 7873TIP3   OH245033   7.086   2.233  14.658
 7873TIP3    H145034   7.013   2.207  14.715
 7873TIP3    H245035   7.145   2.281  14.715
 7874TIP3   OH245036   6.071   2.391  14.772
 7874TIP3    H145037   6.129   2.448  14.823
 7874TIP3    H245038   6.127   2.356  14.702
 7875TIP3   OH245039   6.199   3.203  15.087
 7875TIP3    H145040   6.209   3.298  15.077
 7875TIP3    H245041   6.108   3.191  15.114
 7876TIP3   OH245042   5.756   3.164  14.149
 7876TIP3    H145043   5.760   3.185  14.055
 7876TIP3    H245044   5.730   3.246  14.191
 7877TIP3   OH245045   7.150   3.347  14.849
 7877TIP3    H145046   7.056   3.345  14.863
 7877TIP3    H245047   7.171   3.439  14.832
 7878TIP3   OH245048   7.131   2.154  14.977
 7878TIP3    H145049   7.041   2.165  14.947
 7878TIP3    H245050   7.180   2.224  14.933
 7879TIP3   OH245051   6.454   1.917  14.744
 7879TIP3    H145052   6.427   1.825  14.741
 7879TIP3    H245053   6.376   1.965  14.772
 7880TIP3   OH245054   6.910   3.457  14.477
 7880TIP3    H145055   6.954   3.375  14.456
 7880TIP3    H245056   6.982   3.521  14.484
 7881TIP3   OH245057   7.107   3.279  14.404
 7881TIP3    H145058   7.111   3.221  14.328
 7881TIP3    H245059   7.111   3.220  14.480
 7882TIP3   OH245060   7.230   3.108  15.245
 7882TIP3    H145061   7.229   3.054  15.167
 7882TIP3    H245062   7.251   3.196  15.214
 7883TIP3   OH245063   6.706   2.835  14.196
 7883TIP3    H145064   6.639   2.896  14.165
 7883TIP3    H245065   6.771   2.834  14.126
 7884TIP3   OH245066   6.748   2.690  13.858
 7884TIP3    H145067   6.808   2.716  13.928
 7884TIP3    H245068   6.799   2.630  13.804
 7885TIP3   OH245069   7.061   2.859  14.280
 7885TIP3    H145070   6.991   2.884  14.341
 7885TIP3    H245071   7.115   2.798  14.330
 7886TIP3   OH245072   6.999   2.692  15.182
 7886TIP3    H145073   7.009   2.782  15.213
 7886TIP3    H245074   6.925   2.695  15.122
 7887TIP3   OH245075   6.217   2.900  14.472
 7887TIP3    H145076   6.186   2.861  14.390
 7887TIP3    H245077   6.268   2.830  14.513
 7888TIP3   OH245078   6.342   3.269  14.732
 7888TIP3    H145079   6.346   3.280  14.637
 7888TIP3    H245080   6.417   3.213  14.753
 7889TIP3   OH245081   6.209   2.802  14.845
 7889TIP3    H145082   6.261   2.775  14.770
 7889TIP3    H245083   6.263   2.867  14.889
 7890TIP3   OH245084   6.882   3.358  14.906
 7890TIP3    H145085   6.867   3.424  14.973
 7890TIP3    H245086   6.843   3.279  14.941
 7891TIP3   OH245087   6.358   3.225  15.316
 7891TIP3    H145088   6.298   3.285  15.359
 7891TIP3    H245089   6.313   3.198  15.236
 7892TIP3   OH245090   6.945   2.784  14.042
 7892TIP3    H145091   6.985   2.813  14.124
 7892TIP3    H245092   7.001   2.820  13.974
 7893TIP3   OH245093   6.024   2.813  15.284
 7893TIP3    H145094   6.035   2.901  15.320
 7893TIP3    H245095   5.936   2.813  15.246
 7894TIP3   OH245096   6.655   3.430  14.385
 7894TIP3    H145097   6.740   3.441  14.428
 7894TIP3    H245098   6.644   3.509  14.332
 7895TIP3   OH245099   6.158   3.406  15.383
 7895TIP3    H145100   6.158   3.438  15.293
 7895TIP3    H245101   6.065   3.400  15.406
 7896TIP3   OH245102   6.117   2.807  14.229
 7896TIP3    H145103   6.066   2.872  14.180
 7896TIP3    H245104   6.082   2.723  14.201
 7897TIP3   OH245105   5.723   3.066  15.127
 7897TIP3    H145106   5.668   3.069  15.049
 7897TIP3    H245107   5.738   2.973  15.143
 7898TIP3   OH245108   5.759   3.332  14.806
 7898TIP3    H145109   5.768   3.262  14.871
 7898TIP3    H245110   5.725   3.406  14.856
 7899TIP3   OH245111   6.598   3.350  15.260
 7899TIP3    H145112   6.593   3.435  15.305
 7899TIP3    H245113   6.515   3.307  15.281
 7900TIP3   OH245114   6.679   3.690  14.247
 7900TIP3    H145115   6.661   3.695  14.153
 7900TIP3    H245116   6.649   3.774  14.281
 7901TIP3   OH245117   6.031   3.631  14.439
 7901TIP3    H145118   6.065   3.593  14.521
 7901TIP3    H245119   5.973   3.563  14.404
 7902TIP3   OH245120   6.968   3.648  13.928
 7902TIP3    H145121   7.011   3.571  13.891
 7902TIP3    H245122   6.976   3.636  14.023
 7903TIP3   OH245123   6.946   3.622  14.204
 7903TIP3    H145124   6.853   3.630  14.229
 7903TIP3    H245125   6.983   3.563  14.269
 7904TIP3   OH245126   7.161   2.597  15.450
 7904TIP3    H145127   7.155   2.578  15.357
 7904TIP3    H245128   7.244   2.557  15.477
 7905TIP3   OH245129   5.943   3.220  15.192
 7905TIP3    H145130   5.968   3.184  15.277
 7905TIP3    H245131   5.866   3.170  15.166
 7906TIP3   OH245132   6.207   2.027  14.831
 7906TIP3    H145133   6.134   2.016  14.770
 7906TIP3    H245134   6.181   2.100  14.887
 7907TIP3   OH245135   6.677   2.003  15.169
 7907TIP3    H145136   6.723   1.952  15.235
 7907TIP3    H245137   6.584   1.991  15.189
 7908TIP3   OH245138   7.006   2.417  15.259
 7908TIP3    H145139   6.936   2.394  15.320
 7908TIP3    H245140   6.987   2.507  15.233
 7909TIP3   OH245141   7.117   2.906  13.868
 7909TIP3    H145142   7.098   2.883  13.777
 7909TIP3    H245143   7.115   3.002  13.870
 7910TIP3   OH245144   6.636   2.233  13.900
 7910TIP3    H145145   6.575   2.232  13.974
 7910TIP3    H245146   6.600   2.170  13.839
 7911TIP3   OH245147   6.219   2.544  14.951
 7911TIP3    H145148   6.151   2.544  15.018
 7911TIP3    H245149   6.222   2.635  14.921
 7912TIP3   OH245150   6.213   2.548  14.439
 7912TIP3    H145151   6.118   2.534  14.433
 7912TIP3    H245152   6.245   2.533  14.350
 7913TIP3   OH245153   6.756   2.589  14.314
 7913TIP3    H145154   6.732   2.673  14.276
 7913TIP3    H245155   6.822   2.553  14.255
 7914TIP3   OH245156   6.678   2.591  15.426
 7914TIP3    H145157   6.632   2.516  15.467
 7914TIP3    H245158   6.765   2.590  15.466
 7915TIP3   OH245159   6.851   2.528  14.570
 7915TIP3    H145160   6.809   2.576  14.498
 7915TIP3    H245161   6.897   2.456  14.528
 7916TIP3   OH245162   6.000   2.551  15.119
 7916TIP3    H145163   6.001   2.594  15.204
 7916TIP3    H245164   5.957   2.467  15.135
 7917TIP3   OH245165   6.325   2.290  13.796
 7917TIP3    H145166   6.286   2.276  13.882
 7917TIP3    H245167   6.266   2.352  13.753
 7918TIP3   OH245168   5.651   2.250  14.520
 7918TIP3    H145169   5.722   2.257  14.585
 7918TIP3    H245170   5.697   2.237  14.437
 7919TIP3   OH245171   5.713   2.336  14.029
 7919TIP3    H145172   5.781   2.373  13.972
 7919TIP3    H245173   5.653   2.409  14.043
 7920TIP3   OH245174   6.776   2.670  15.015
 7920TIP3    H145175   6.820   2.612  14.953
 7920TIP3    H245176   6.721   2.612  15.068
 7921TIP3   OH245177   6.518   2.268  14.529
 7921TIP3    H145178   6.427   2.271  14.560
 7921TIP3    H245179   6.567   2.231  14.602
 7922TIP3   OH245180   5.953   2.459  14.408
 7922TIP3    H145181   5.879   2.489  14.354
 7922TIP3    H245182   5.972   2.371  14.375
 7923TIP3   OH245183   6.282   2.480  14.182
 7923TIP3    H145184   6.376   2.468  14.196
 7923TIP3    H245185   6.275   2.519  14.095
 7924TIP3   OH245186   6.879   2.214  14.862
 7924TIP3    H145187   6.837   2.227  14.947
 7924TIP3    H245188   6.811   2.177  14.807
 7925TIP3   OH245189   6.244   2.578  13.929
 7925TIP3    H145190   6.190   2.549  13.856
 7925TIP3    H245191   6.323   2.614  13.888
 7926TIP3   OH245192   7.241   3.813  15.473
 7926TIP3    H145193   7.256   3.894  15.424
 7926TIP3    H245194   7.328   3.786  15.502
 7927TIP3   OH245195   6.011   3.060  15.422
 7927TIP3    H145196   6.078   3.060  15.490
 7927TIP3    H245197   5.928   3.062  15.470
 7928TIP3   OH245198   6.584   2.588  14.716
 7928TIP3    H145199   6.653   2.542  14.668
 7928TIP3    H245200   6.558   2.527  14.785
 7929TIP3   OH245201   6.068   2.197  14.366
 7929TIP3    H145202   6.016   2.120  14.389
 7929TIP3    H245203   6.105   2.176  14.281
 7930TIP3   OH245204   6.478   2.445  14.940
 7930TIP3    H145205   6.393   2.487  14.948
 7930TIP3    H245206   6.525   2.471  15.019
 7931TIP3   OH245207   6.506   3.028  14.120
 7931TIP3    H145208   6.439   2.982  14.069
 7931TIP3    H245209   6.463   3.048  14.203
 7932TIP3   OH245210   7.184   2.979  14.997
 7932TIP3    H145211   7.257   2.956  14.940
 7932TIP3    H245212   7.106   2.965  14.942
 7933TIP3   OH245213   6.890   2.278  13.989
 7933TIP3    H145214   6.799   2.274  13.959
 7933TIP3    H245215   6.900   2.366  14.024
 7934TIP3   OH245216   6.727   3.079  15.272
 7934TIP3    H145217   6.711   3.033  15.354
 7934TIP3    H245218   6.683   3.164  15.282
 7935TIP3   OH245219   6.955   2.515  14.132
 7935TIP3    H145220   7.042   2.492  14.164
 7935TIP3    H245221   6.967   2.600  14.088
 7936TIP3   OH245222   6.041   2.966  14.672
 7936TIP3    H145223   6.099   2.949  14.598
 7936TIP3    H245224   6.071   2.906  14.740
 7937TIP3   OH245225   6.731   3.169  14.052
 7937TIP3    H145226   6.700   3.259  14.056
 7937TIP3    H245227   6.655   3.115  14.073
 7938TIP3   OH245228   5.749   2.801  15.223
 7938TIP3    H145229   5.724   2.757  15.305
 7938TIP3    H245230   5.682   2.774  15.160
 7939TIP3   OH245231   6.460   2.770  15.462
 7939TIP3    H145232   6.396   2.736  15.399
 7939TIP3    H245233   6.542   2.728  15.437
 7940TIP3   OH245234   6.881   3.366  15.249
 7940TIP3    H145235   6.787   3.357  15.234
 7940TIP3    H245236   6.891   3.362  15.344
 7941TIP3   OH245237   6.977   2.920  14.807
 7941TIP3    H145238   6.884   2.909  14.788
 7941TIP3    H245239   7.020   2.848  14.761
 7942TIP3   OH245240   6.295   3.344  14.470
 7942TIP3    H145241   6.318   3.430  14.435
 7942TIP3    H245242   6.278   3.290  14.392
 7943TIP3   OH245243   5.862   2.772  13.928
 7943TIP3    H145244   5.909   2.840  13.976
 7943TIP3    H245245   5.771   2.781  13.956
 7944TIP3   OH245246   6.370   3.097  14.347
 7944TIP3    H145247   6.416   3.143  14.418
 7944TIP3    H245248   6.319   3.030  14.392
 7945TIP3   OH245249   6.488   3.502  15.038
 7945TIP3    H145250   6.544   3.577  15.018
 7945TIP3    H245251   6.542   3.445  15.092
 7946TIP3   OH245252   6.293   3.600  14.353
 7946TIP3    H145253   6.201   3.624  14.366
 7946TIP3    H245254   6.342   3.675  14.388
 7947TIP3   OH245255   6.782   3.113  14.998
 7947TIP3    H145256   6.766   3.095  15.091
 7947TIP3    H245257   6.850   3.049  14.974
 7948TIP3   OH245258   7.059   3.177  13.928
 7948TIP3    H145259   7.083   3.161  14.019
 7948TIP3    H245260   6.963   3.175  13.928
 7949TIP3   OH245261   7.094   3.535  15.215
 7949TIP3    H145262   7.015   3.482  15.211
 7949TIP3    H245263   7.078   3.606  15.153
 7950TIP3   OH245264   5.876   2.297  15.159
 7950TIP3    H145265   5.788   2.330  15.143
 7950TIP3    H245266   5.862   2.214  15.206
 7951TIP3   OH245267   7.143   3.108  14.184
 7951TIP3    H145268   7.123   3.018  14.212
 7951TIP3    H245269   7.238   3.110  14.178
 7952TIP3   OH245270   5.886   3.481  15.043
 7952TIP3    H145271   5.911   3.403  15.093
 7952TIP3    H245272   5.899   3.554  15.104
 7953TIP3   OH245273   6.439   3.307  13.770
 7953TIP3    H145274   6.449   3.223  13.724
 7953TIP3    H245275   6.397   3.284  13.853
 7954TIP3   OH245276   6.321   3.277  14.021
 7954TIP3    H145277   6.380   3.224  14.074
 7954TIP3    H245278   6.338   3.367  14.049
 7955TIP3   OH245279   5.966   2.987  14.080
 7955TIP3    H145280   5.893   3.034  14.119
 7955TIP3    H245281   6.013   3.053  14.029
 7956TIP3   OH245282   6.782   2.251  15.117
 7956TIP3    H145283   6.842   2.265  15.190
 7956TIP3    H245284   6.741   2.167  15.136
 7957TIP3   OH245285   6.816   2.212  14.253
 7957TIP3    H145286   6.857   2.215  14.167
 7957TIP3    H245287   6.877   2.260  14.310
 7958TIP3   OH245288   6.625   3.417  14.066
 7958TIP3    H145289   6.538   3.450  14.088
 7958TIP3    H245290   6.670   3.491  14.026
 7959TIP3   OH245291   6.535   2.420  14.294
 7959TIP3    H145292   6.613   2.476  14.297
 7959TIP3    H245293   6.534   2.376  14.379
 7960TIP3   OH245294   6.636   2.489  15.165
 7960TIP3    H145295   6.649   2.518  15.256
 7960TIP3    H245296   6.681   2.405  15.161
 7961TIP3   OH245297   6.608   2.073  14.348
 7961TIP3    H145298   6.578   2.141  14.408
 7961TIP3    H245299   6.689   2.108  14.310
 7962TIP3   OH245300   6.378   3.535  14.101
 7962TIP3    H145301   6.382   3.618  14.053
 7962TIP3    H245302   6.349   3.559  14.189
 7963TIP3   OH245303   6.216   2.235  14.051
 7963TIP3    H145304   6.210   2.319  14.096
 7963TIP3    H245305   6.303   2.202  14.073
 7964TIP3   OH245306   7.238   2.271  15.216
 7964TIP3    H145307   7.166   2.329  15.241
 7964TIP3    H245308   7.203   2.218  15.144
 7965TIP3   OH245309   7.071   2.682  14.685
 7965TIP3    H145310   6.993   2.637  14.653
 7965TIP3    H245311   7.105   2.625  14.754
 7966TIP3   OH245312   6.069   3.201  13.927
 7966TIP3    H145313   6.145   3.244  13.966
 7966TIP3    H245314   6.106   3.146  13.858
 7967TIP3   OH245315   5.850   2.499  13.861
 7967TIP3    H145316   5.863   2.593  13.879
 7967TIP3    H245317   5.801   2.498  13.778
 7968TIP3   OH245318   7.235   3.619  14.834
 7968TIP3    H145319   7.216   3.684  14.766
 7968TIP3    H245320   7.329   3.606  14.829
 7969TIP3   OH245321   5.960   1.999  14.706
 7969TIP3    H145322   5.952   1.992  14.611
 7969TIP3    H245323   5.922   1.917  14.739
 7970TIP3   OH245324   5.851   3.424  14.379
 7970TIP3    H145325   5.762   3.458  14.388
 7970TIP3    H245326   5.873   3.437  14.287
 7971TIP3   OH245327   5.814   3.699  15.521
 7971TIP3    H145328   5.877   3.684  15.592
 7971TIP3    H245329   5.792   3.612  15.490
 7972TIP3   OH245330   6.234   3.514  15.627
 7972TIP3    H145331   6.311   3.463  15.649
 7972TIP3    H245332   6.208   3.482  15.540
 7973TIP3   OH245333   6.645   3.491  13.750
 7973TIP3    H145334   6.579   3.423  13.762
 7973TIP3    H245335   6.722   3.445  13.719
 7974TIP3   OH245336   6.889   3.370  15.524
 7974TIP3    H145337   6.853   3.288  15.560
 7974TIP3    H245338   6.971   3.382  15.571
 7975TIP3   OH245339   7.091   3.432  13.816
 7975TIP3    H145340   7.106   3.342  13.847
 7975TIP3    H245341   7.151   3.443  13.743
 7976TIP3   OH245342   5.766   3.041  15.555
 7976TIP3    H145343   5.772   2.947  15.541
 7976TIP3    H245344   5.696   3.070  15.497
 7977TIP3   OH245345   6.201   3.023  13.771
 7977TIP3    H145346   6.226   2.969  13.846
 7977TIP3    H245347   6.282   3.035  13.722
 7978TIP3   OH245348   6.430   3.053  15.522
 7978TIP3    H145349   6.416   3.099  15.439
 7978TIP3    H245350   6.455   2.964  15.497
 7979TIP3   OH245351   6.781   3.168  13.781
 7979TIP3    H145352   6.753   3.158  13.872
 7979TIP3    H245353   6.774   3.080  13.744
 7980TIP3   OH245354   6.992   2.965  15.276
 7980TIP3    H145355   7.065   3.025  15.264
 7980TIP3    H245356   6.914   3.021  15.269
 7981TIP3   OH245357   5.850   2.779  15.513
 7981TIP3    H145358   5.929   2.766  15.461
 7981TIP3    H245359   5.879   2.768  15.604
 7982TIP3   OH245360   6.310   2.882  13.990
 7982TIP3    H145361   6.258   2.826  14.048
 7982TIP3    H245362   6.363   2.820  13.939
 7983TIP3   OH245363   6.268   2.668  15.274
 7983TIP3    H145364   6.190   2.723  15.270
 7983TIP3    H245365   6.326   2.705  15.208
 7984TIP3   OH245366   6.467   2.714  13.835
 7984TIP3    H145367   6.462   2.739  13.743
 7984TIP3    H245368   6.560   2.697  13.851
 7985TIP3   OH245369   6.770   2.899  15.551
 7985TIP3    H145370   6.862   2.876  15.537
 7985TIP3    H245371   6.737   2.832  15.610
 7986TIP3   OH245372   6.318   2.406  15.341
 7986TIP3    H145373   6.325   2.349  15.265
 7986TIP3    H245374   6.305   2.493  15.304
 7987TIP3   OH245375   6.343   2.249  15.106
 7987TIP3    H145376   6.397   2.292  15.040
 7987TIP3    H245377   6.256   2.244  15.066
 7988TIP3   OH245378   6.456   2.779  15.113
 7988TIP3    H145379   6.550   2.778  15.100
 7988TIP3    H245380   6.426   2.858  15.068
 7989TIP3   OH245381   6.911   2.547  15.586
 7989TIP3    H145382   6.925   2.471  15.642
 7989TIP3    H245383   6.997   2.562  15.545
 7990TIP3   OH245384   7.043   2.840  15.513
 7990TIP3    H145385   7.035   2.888  15.431
 7990TIP3    H245386   7.088   2.759  15.489
 7991TIP3   OH245387   6.149   2.461  15.563
 7991TIP3    H145388   6.071   2.410  15.543
 7991TIP3    H245389   6.200   2.461  15.482
 7992TIP3   OH245390   6.398   1.984  15.177
 7992TIP3    H145391   6.379   2.075  15.153
 7992TIP3    H245392   6.331   1.933  15.131
 7993TIP3   OH245393   6.538   2.368  15.507
 7993TIP3    H145394   6.492   2.344  15.587
 7993TIP3    H245395   6.469   2.376  15.441
 7994TIP3   OH245396   6.804   2.305  15.410
 7994TIP3    H145397   6.718   2.310  15.451
 7994TIP3    H245398   6.859   2.261  15.475
 7995TIP3   OH245399   6.985   2.188  15.599
 7995TIP3    H145400   6.963   2.095  15.605
 7995TIP3    H245401   6.947   2.226  15.678
 7996TIP3   OH245402   5.946   2.274  15.513
 7996TIP3    H145403   5.948   2.205  15.446
 7996TIP3    H245404   5.949   2.226  15.596
 7997TIP3   OH245405   6.397   1.902  15.438
 7997TIP3    H145406   6.453   1.825  15.430
 7997TIP3    H245407   6.391   1.937  15.349
 7998TIP3   OH245408   6.471   2.063  15.653
 7998TIP3    H145409   6.453   2.009  15.576
 7998TIP3    H245410   6.414   2.139  15.642
 7999TIP3   OH245411   6.445   3.779  13.979
 7999TIP3    H145412   6.534   3.745  13.969
 7999TIP3    H245413   6.433   3.839  13.905
 8000TIP3   OH245414   5.799   3.234  13.886
 8000TIP3    H145415   5.894   3.235  13.898
 8000TIP3    H245416   5.783   3.170  13.817
 8001TIP3   OH245417   5.670   3.744  14.415
 8001TIP3    H145418   5.618   3.707  14.344
 8001TIP3    H245419   5.690   3.670  14.471
 8002TIP3   OH245420   5.720   3.548  14.610
 8002TIP3    H145421   5.631   3.534  14.642
 8002TIP3    H245422   5.764   3.596  14.680
 8003TIP3   OH245423   7.267   3.347  15.109
 8003TIP3    H145424   7.211   3.415  15.146
 8003TIP3    H245425   7.234   3.335  15.020
 8004TIP3   OH245426   7.194   2.671  14.433
 8004TIP3    H145427   7.175   2.578  14.419
 8004TIP3    H245428   7.165   2.688  14.523
 8005TIP3   OH245429   5.724   2.870  14.837
 8005TIP3    H145430   5.734   2.848  14.744
 8005TIP3    H245431   5.807   2.843  14.877
 8006TIP3   OH245432   7.233   2.227  13.826
 8006TIP3    H145433   7.274   2.153  13.781
 8006TIP3    H245434   7.149   2.239  13.781
 8007TIP3   OH245435   7.202   2.419  14.259
 8007TIP3    H145436   7.256   2.375  14.325
 8007TIP3    H245437   7.243   2.395  14.176
 8008TIP3   OH245438   7.257   2.353  14.838
 8008TIP3    H145439   7.338   2.319  14.799
 8008TIP3    H245440   7.275   2.446  14.853
 8009TIP3   OH245441   7.261   2.598  15.136
 8009TIP3    H145442   7.169   2.623  15.132
 8009TIP3    H245443   7.288   2.593  15.045
 8010TIP3   OH245444   5.707   2.400  15.463
 8010TIP3    H145445   5.797   2.369  15.474
 8010TIP3    H245446   5.655   2.320  15.457
 8011TIP3   OH245447   7.207   2.106  14.329
 8011TIP3    H145448   7.253   2.025  14.353
 8011TIP3    H245449   7.134   2.077  14.274
 8012TIP3   OH245450   5.830   2.241  14.737
 8012TIP3    H145451   5.868   2.154  14.733
 8012TIP3    H245452   5.905   2.299  14.750
 8013TIP3   OH245453   5.641   2.519  14.817
 8013TIP3    H145454   5.704   2.511  14.746
 8013TIP3    H245455   5.679   2.584  14.876
 8014TIP3   OH245456   5.692   2.170  14.243
 8014TIP3    H145457   5.597   2.158  14.244
 8014TIP3    H245458   5.708   2.232  14.172
 8015TIP3   OH245459   7.120   3.624  14.483
 8015TIP3    H145460   7.196   3.567  14.487
 8015TIP3    H245461   7.145   3.701  14.534
 8016TIP3   OH245462   5.693   2.010  15.064
 8016TIP3    H145463   5.618   1.996  15.122
 8016TIP3    H245464   5.663   2.075  15.001
 8017TIP3   OH245465   5.896   3.395  15.483
 8017TIP3    H145466   5.807   3.394  15.449
 8017TIP3    H245467   5.888   3.360  15.572
 8018TIP3   OH245468   6.224   3.479  15.114
 8018TIP3    H145469   6.195   3.566  15.090
 8018TIP3    H245470   6.319   3.479  15.096
 8019TIP3   OH245471   6.595   3.599  15.388
 8019TIP3    H145472   6.613   3.569  15.477
 8019TIP3    H245473   6.674   3.648  15.363
 8020TIP3   OH245474   6.829   3.736  15.337
 8020TIP3    H145475   6.892   3.676  15.297
 8020TIP3    H245476   6.874   3.771  15.414
 8021TIP3   OH245477   5.918   3.767  15.132
 8021TIP3    H145478   5.839   3.803  15.091
 8021TIP3    H245479   5.925   3.815  15.215
 8022TIP3   OH245480   6.178   3.741  15.044
 8022TIP3    H145481   6.087   3.753  15.069
 8022TIP3    H245482   6.186   3.789  14.961
 8023TIP3   OH245483   6.625   3.726  14.951
 8023TIP3    H145484   6.583   3.765  14.874
 8023TIP3    H245485   6.639   3.800  15.010
 8024TIP3   OH245486   6.848   3.596  15.039
 8024TIP3    H145487   6.772   3.643  15.005
 8024TIP3    H245488   6.921   3.657  15.027
 8025TIP3   OH245489   7.078   3.744  15.025
 8025TIP3    H145490   7.104   3.836  15.021
 8025TIP3    H245491   7.136   3.700  14.963
 8026TIP3   OH245492   5.902   3.630  14.804
 8026TIP3    H145493   5.889   3.588  14.889
 8026TIP3    H245494   5.986   3.595  14.773
 8027TIP3   OH245495   6.110   3.508  14.674
 8027TIP3    H145496   6.126   3.414  14.678
 8027TIP3    H245497   6.192   3.547  14.706
 8028TIP3   OH245498   6.363   3.545  14.790
 8028TIP3    H145499   6.371   3.455  14.758
 8028TIP3    H245500   6.397   3.542  14.879
 8029TIP3   OH245501   6.679   2.102  14.698
 8029TIP3    H145502   6.614   2.032  14.708
 8029TIP3    H245503   6.751   2.060  14.650
 8030TIP3   OH245504   7.177   1.950  14.670
 8030TIP3    H145505   7.215   2.032  14.637
 8030TIP3    H245506   7.083   1.959  14.654
 8031TIP3   OH245507   5.926   1.967  14.435
 8031TIP3    H145508   5.834   1.954  14.411
 8031TIP3    H245509   5.968   1.883  14.418
 8032TIP3   OH245510   5.848   1.981  14.067
 8032TIP3    H145511   5.894   2.032  14.002
 8032TIP3    H245512   5.802   2.045  14.121
 8033TIP3   OH245513   6.401   1.928  14.462
 8033TIP3    H145514   6.470   1.973  14.413
 8033TIP3    H245515   6.430   1.933  14.554
 8034TIP3   OH245516   6.902   1.969  14.596
 8034TIP3    H145517   6.927   1.954  14.505
 8034TIP3    H245518   6.875   1.883  14.628
 8035TIP3   OH245519   7.029   1.982  14.168
 8035TIP3    H145520   7.019   1.998  14.074
 8035TIP3    H245521   7.002   1.891  14.179
 8036TIP3   OH245522   5.809   3.575  14.140
 8036TIP3    H145523   5.735   3.567  14.079
 8036TIP3    H245524   5.838   3.665  14.130
 8037TIP3   OH245525   6.020   2.120  13.882
 8037TIP3    H145526   6.070   2.064  13.823
 8037TIP3    H245527   6.086   2.156  13.941
 8038TIP3   OH245528   6.479   2.208  14.128
 8038TIP3    H145529   6.513   2.132  14.176
 8038TIP3    H245530   6.506   2.283  14.180
 8039TIP3   OH245531   6.694   3.666  13.953
 8039TIP3    H145532   6.789   3.680  13.945
 8039TIP3    H245533   6.670   3.617  13.875
 8040TIP3   OH245534   5.935   2.020  15.381
 8040TIP3    H145535   5.874   1.959  15.421
 8040TIP3    H245536   6.019   2.002  15.424
 8041TIP3   OH245537   6.141   1.943  15.550
 8041TIP3    H145538   6.229   1.924  15.517
 8041TIP3    H245539   6.116   1.864  15.597
 8042TIP3   OH245540   6.000   3.638  13.804
 8042TIP3    H145541   5.974   3.624  13.895
 8042TIP3    H245542   6.075   3.580  13.791
 8043TIP3   OH245543   6.969   1.907  15.590
 8043TIP3    H145544   6.964   1.857  15.672
 8043TIP3    H245545   7.061   1.900  15.564
 8044TIP3   OH245546   7.259   3.525  15.437
 8044TIP3    H145547   7.206   3.512  15.359
 8044TIP3    H245548   7.242   3.615  15.463
 8045TIP3   OH245549   1.189   4.798  14.428
 8045TIP3    H145550   1.174   4.892  14.422
 8045TIP3    H245551   1.126   4.760  14.367
 8046TIP3   OH245552   1.091   4.712  14.823
 8046TIP3    H145553   1.112   4.662  14.902
 8046TIP3    H245554   1.037   4.653  14.771
 8047TIP3   OH245555   0.308   4.644  14.938
 8047TIP3    H145556   0.309   4.570  14.999
 8047TIP3    H245557   0.400   4.661  14.919
 8048TIP3   OH245558   1.475   5.013  14.646
 8048TIP3    H145559   1.420   4.948  14.690
 8048TIP3    H245560   1.487   5.082  14.711
 8049TIP3   OH245561   0.411   5.134  14.759
 8049TIP3    H145562   0.389   5.043  14.738
 8049TIP3    H245563   0.505   5.134  14.772
 8050TIP3   OH245564   0.124   4.493  14.302
 8050TIP3    H145565   0.074   4.558  14.352
 8050TIP3    H245566   0.059   4.450  14.247
 8051TIP3   OH245567   0.142   4.700  14.591
 8051TIP3    H145568   0.175   4.612  14.605
 8051TIP3    H245569   0.210   4.742  14.538
 8052TIP3   OH245570   1.186   5.507  14.664
 8052TIP3    H145571   1.228   5.456  14.595
 8052TIP3    H245572   1.131   5.445  14.711
 8053TIP3   OH245573   0.907   4.978  14.824
 8053TIP3    H145574   0.945   4.912  14.767
 8053TIP3    H245575   0.977   5.002  14.884
 8054TIP3   OH245576   1.805   4.120  14.912
 8054TIP3    H145577   1.829   4.202  14.954
 8054TIP3    H245578   1.865   4.113  14.837
 8055TIP3   OH245579   1.232   4.361  14.844
 8055TIP3    H145580   1.227   4.266  14.833
 8055TIP3    H245581   1.219   4.396  14.756
 8056TIP3   OH245582   0.591   4.197  14.565
 8056TIP3    H145583   0.598   4.283  14.524
 8056TIP3    H245584   0.542   4.144  14.503
 8057TIP3   OH245585   1.355   4.231  14.429
 8057TIP3    H145586   1.402   4.191  14.503
 8057TIP3    H245587   1.424   4.265  14.372
 8058TIP3   OH245588   0.221   4.443  14.662
 8058TIP3    H145589   0.291   4.404  14.714
 8058TIP3    H245590   0.236   4.410  14.574
 8059TIP3   OH245591   0.703   4.596  14.626
 8059TIP3    H145592   0.790   4.564  14.648
 8059TIP3    H245593   0.670   4.534  14.561
 8060TIP3   OH245594   1.833   4.295  15.146
 8060TIP3    H145595   1.783   4.363  15.102
 8060TIP3    H245596   1.771   4.255  15.207
 8061TIP3   OH245597   0.435   4.114  15.000
 8061TIP3    H145598   0.408   4.169  14.926
 8061TIP3    H245599   0.362   4.119  15.061
 8062TIP3   OH245600   1.121   5.049  14.342
 8062TIP3    H145601   1.121   5.053  14.246
 8062TIP3    H245602   1.090   5.135  14.370
 8063TIP3   OH245603   0.696   4.889  14.980
 8063TIP3    H145604   0.639   4.958  15.014
 8063TIP3    H245605   0.760   4.934  14.926
 8064TIP3   OH245606   1.488   4.157  14.671
 8064TIP3    H145607   1.559   4.099  14.642
 8064TIP3    H245608   1.533   4.235  14.703
 8065TIP3   OH245609   0.421   4.276  14.771
 8065TIP3    H145610   0.478   4.330  14.826
 8065TIP3    H245611   0.479   4.243  14.703
 8066TIP3   OH245612   0.537   5.088  15.094
 8066TIP3    H145613   0.543   5.182  15.080
 8066TIP3    H245614   0.445   5.073  15.117
 8067TIP3   OH245615   0.111   5.047  14.158
 8067TIP3    H145616   0.109   5.071  14.065
 8067TIP3    H245617   0.146   5.125  14.202
 8068TIP3   OH245618   1.506   5.215  14.850
 8068TIP3    H145619   1.413   5.217  14.869
 8068TIP3    H245620   1.526   5.304  14.820
 8069TIP3   OH245621   1.523   4.112  14.955
 8069TIP3    H145622   1.493   4.122  14.864
 8069TIP3    H245623   1.618   4.104  14.948
 8070TIP3   OH245624   0.795   3.803  14.745
 8070TIP3    H145625   0.765   3.712  14.743
 8070TIP3    H245626   0.718   3.853  14.772
 8071TIP3   OH245627   1.316   5.381  14.454
 8071TIP3    H145628   1.354   5.295  14.437
 8071TIP3    H245629   1.392   5.439  14.463
 8072TIP3   OH245630   1.440   5.146  14.400
 8072TIP3    H145631   1.455   5.090  14.324
 8072TIP3    H245632   1.455   5.089  14.476
 8073TIP3   OH245633   1.610   4.997  15.206
 8073TIP3    H145634   1.597   4.947  15.126
 8073TIP3    H245635   1.618   5.088  15.177
 8074TIP3   OH245636   1.046   4.713  14.204
 8074TIP3    H145637   0.979   4.777  14.181
 8074TIP3    H245638   1.110   4.718  14.133
 8075TIP3   OH245639   1.078   4.582  13.861
 8075TIP3    H145640   1.135   4.611  13.932
 8075TIP3    H245641   1.133   4.524  13.809
 8076TIP3   OH245642   1.761   4.678  15.032
 8076TIP3    H145643   1.693   4.742  15.012
 8076TIP3    H245644   1.827   4.691  14.965
 8077TIP3   OH245645   1.408   4.746  14.271
 8077TIP3    H145646   1.339   4.765  14.335
 8077TIP3    H245647   1.473   4.696  14.321
 8078TIP3   OH245648   1.379   4.534  15.220
 8078TIP3    H145649   1.368   4.602  15.286
 8078TIP3    H245650   1.314   4.554  15.153
 8079TIP3   OH245651   0.548   4.783  14.476
 8079TIP3    H145652   0.522   4.748  14.391
 8079TIP3    H245653   0.608   4.717  14.512
 8080TIP3   OH245654   0.695   5.151  14.734
 8080TIP3    H145655   0.690   5.158  14.639
 8080TIP3    H245656   0.770   5.095  14.751
 8081TIP3   OH245657   0.568   4.680  14.853
 8081TIP3    H145658   0.618   4.660  14.773
 8081TIP3    H245659   0.616   4.753  14.893
 8082TIP3   OH245660   1.249   5.229  14.929
 8082TIP3    H145661   1.219   5.305  14.980
 8082TIP3    H245662   1.194   5.157  14.959
 8083TIP3   OH245663   0.698   5.115  15.317
 8083TIP3    H145664   0.639   5.177  15.359
 8083TIP3    H245665   0.652   5.088  15.237
 8084TIP3   OH245666   1.277   4.664  14.043
 8084TIP3    H145667   1.326   4.702  14.116
 8084TIP3    H245668   1.328   4.688  13.965
 8085TIP3   OH245669   0.394   4.706  15.269
 8085TIP3    H145670   0.398   4.787  15.321
 8085TIP3    H245671   0.306   4.707  15.230
 8086TIP3   OH245672   1.052   5.315  14.396
 8086TIP3    H145673   1.141   5.342  14.416
 8086TIP3    H245674   1.019   5.382  14.336
 8087TIP3   OH245675   0.506   5.305  15.386
 8087TIP3    H145676   0.516   5.331  15.294
 8087TIP3    H245677   0.412   5.301  15.400
 8088TIP3   OH245678   1.645   3.810  14.039
 8088TIP3    H145679   1.559   3.837  14.069
 8088TIP3    H245680   1.685   3.889  14.005
 8089TIP3   OH245681   0.461   4.693  14.226
 8089TIP3    H145682   0.414   4.762  14.179
 8089TIP3    H245683   0.412   4.613  14.205
 8090TIP3   OH245684   1.786   5.259  13.895
 8090TIP3    H145685   1.801   5.353  13.891
 8090TIP3    H245686   1.873   5.220  13.889
 8091TIP3   OH245687   0.176   4.911  15.094
 8091TIP3    H145688   0.150   4.893  15.004
 8091TIP3    H245689   0.148   4.833  15.143
 8092TIP3   OH245690   0.138   5.236  14.736
 8092TIP3    H145691   0.224   5.197  14.749
 8092TIP3    H245692   0.088   5.211  14.814
 8093TIP3   OH245693   1.876   5.328  15.422
 8093TIP3    H145694   1.865   5.236  15.399
 8093TIP3    H245695   1.788   5.358  15.443
 8094TIP3   OH245696   0.942   5.234  15.266
 8094TIP3    H145697   0.938   5.321  15.306
 8094TIP3    H245698   0.855   5.197  15.281
 8095TIP3   OH245699   1.031   5.582  14.244
 8095TIP3    H145700   1.011   5.583  14.150
 8095TIP3    H245701   0.997   5.665  14.276
 8096TIP3   OH245702   0.371   5.477  14.427
 8096TIP3    H145703   0.388   5.443  14.515
 8096TIP3    H245704   0.317   5.409  14.385
 8097TIP3   OH245705   1.316   5.547  13.930
 8097TIP3    H145706   1.363   5.474  13.890
 8097TIP3    H245707   1.327   5.533  14.024
 8098TIP3   OH245708   1.298   5.529  14.208
 8098TIP3    H145709   1.204   5.544  14.221
 8098TIP3    H245710   1.322   5.467  14.277
 8099TIP3   OH245711   1.586   4.441  15.428
 8099TIP3    H145712   1.523   4.470  15.361
 8099TIP3    H245713   1.586   4.346  15.420
 8100TIP3   OH245714   0.284   5.113  15.240
 8100TIP3    H145715   0.321   5.054  15.306
 8100TIP3    H245716   0.232   5.056  15.183
 8101TIP3   OH245717   0.554   3.923  14.829
 8101TIP3    H145718   0.479   3.912  14.772
 8101TIP3    H245719   0.527   3.990  14.892
 8102TIP3   OH245720   1.015   3.860  15.167
 8102TIP3    H145721   1.062   3.811  15.235
 8102TIP3    H245722   0.922   3.848  15.189
 8103TIP3   OH245723   1.337   4.260  15.232
 8103TIP3    H145724   1.271   4.244  15.299
 8103TIP3    H245725   1.342   4.355  15.225
 8104TIP3   OH245726   1.427   4.717  13.825
 8104TIP3    H145727   1.400   4.730  13.734
 8104TIP3    H245728   1.520   4.739  13.826
 8105TIP3   OH245729   0.981   4.116  13.898
 8105TIP3    H145730   0.919   4.117  13.971
 8105TIP3    H245731   0.944   4.054  13.835
 8106TIP3   OH245732   0.565   4.425  14.956
 8106TIP3    H145733   0.496   4.424  15.023
 8106TIP3    H245734   0.569   4.515  14.927
 8107TIP3   OH245735   0.583   4.438  14.436
 8107TIP3    H145736   0.488   4.427  14.436
 8107TIP3    H245737   0.610   4.423  14.346
 8108TIP3   OH245738   1.108   4.469  14.316
 8108TIP3    H145739   1.079   4.553  14.281
 8108TIP3    H245740   1.176   4.440  14.255
 8109TIP3   OH245741   1.027   4.477  15.434
 8109TIP3    H145742   0.970   4.408  15.468
 8109TIP3    H245743   1.109   4.465  15.481
 8110TIP3   OH245744   1.206   4.414  14.574
 8110TIP3    H145745   1.162   4.467  14.507
 8110TIP3    H245746   1.246   4.342  14.525
 8111TIP3   OH245747   0.341   4.428  15.121
 8111TIP3    H145748   0.333   4.482  15.200
 8111TIP3    H245749   0.297   4.346  15.144
 8112TIP3   OH245750   0.667   4.175  13.796
 8112TIP3    H145751   0.630   4.164  13.883
 8112TIP3    H245752   0.611   4.239  13.753
 8113TIP3   OH245753   0.027   4.221  14.483
 8113TIP3    H145754   0.085   4.202  14.557
 8113TIP3    H245755  -0.006   4.136  14.455
 8114TIP3   OH245756   0.044   4.252  14.020
 8114TIP3    H145757   0.108   4.313  13.983
 8114TIP3    H245758  -0.001   4.216  13.944
 8115TIP3   OH245759   1.171   4.546  15.035
 8115TIP3    H145760   1.197   4.485  14.966
 8115TIP3    H245761   1.098   4.501  15.079
 8116TIP3   OH245762   0.869   4.160  14.531
 8116TIP3    H145763   0.776   4.165  14.555
 8116TIP3    H245764   0.911   4.115  14.605
 8117TIP3   OH245765   0.324   4.348  14.424
 8117TIP3    H145766   0.257   4.386  14.367
 8117TIP3    H245767   0.340   4.261  14.388
 8118TIP3   OH245768   0.635   4.363  14.177
 8118TIP3    H145769   0.730   4.353  14.183
 8118TIP3    H245770   0.620   4.404  14.092
 8119TIP3   OH245771   1.233   4.085  14.829
 8119TIP3    H145772   1.147   4.056  14.802
 8119TIP3    H245773   1.291   4.062  14.756
 8120TIP3   OH245774   0.584   4.457  13.926
 8120TIP3    H145775   0.530   4.432  13.851
 8120TIP3    H245776   0.660   4.501  13.888
 8121TIP3   OH245777   1.599   5.675  15.496
 8121TIP3    H145778   1.616   5.716  15.412
 8121TIP3    H245779   1.672   5.703  15.552
 8122TIP3   OH245780   0.360   4.932  15.435
 8122TIP3    H145781   0.420   4.930  15.510
 8122TIP3    H245782   0.272   4.933  15.474
 8123TIP3   OH245783   0.941   4.481  14.726
 8123TIP3    H145784   0.997   4.425  14.672
 8123TIP3    H245785   0.906   4.422  14.793
 8124TIP3   OH245786   0.433   4.090  14.361
 8124TIP3    H145787   0.390   4.009  14.388
 8124TIP3    H245788   0.453   4.077  14.268
 8125TIP3   OH245789   0.826   4.337  14.943
 8125TIP3    H145790   0.737   4.374  14.948
 8125TIP3    H245791   0.870   4.372  15.020
 8126TIP3   OH245792   0.851   4.904  14.134
 8126TIP3    H145793   0.780   4.866  14.083
 8126TIP3    H245794   0.811   4.927  14.218
 8127TIP3   OH245795   1.572   4.865  14.969
 8127TIP3    H145796   1.627   4.922  14.915
 8127TIP3    H245797   1.497   4.844  14.912
 8128TIP3   OH245798   1.231   4.162  13.995
 8128TIP3    H145799   1.143   4.160  13.955
 8128TIP3    H245800   1.245   4.255  14.015
 8129TIP3   OH245801   1.019   4.954  15.262
 8129TIP3    H145802   1.020   4.922  15.352
 8129TIP3    H245803   0.988   5.045  15.269
 8130TIP3   OH245804   1.308   4.401  14.132
 8130TIP3    H145805   1.400   4.387  14.154
 8130TIP3    H245806   1.306   4.487  14.089
 8131TIP3   OH245807   0.403   4.867  14.695
 8131TIP3    H145808   0.449   4.848  14.613
 8131TIP3    H245809   0.430   4.796  14.754
 8132TIP3   OH245810   1.068   5.054  14.062
 8132TIP3    H145811   1.037   5.145  14.065
 8132TIP3    H245812   0.990   5.002  14.082
 8133TIP3   OH245813   0.120   4.681  15.238
 8133TIP3    H145814   0.114   4.673  15.333
 8133TIP3    H245815   0.059   4.615  15.204
 8134TIP3   OH245816   0.805   4.661  15.453
 8134TIP3    H145817   0.739   4.626  15.394
 8134TIP3    H245818   0.886   4.616  15.429
 8135TIP3   OH245819   1.225   5.208  15.272
 8135TIP3    H145820   1.133   5.219  15.250
 8135TIP3    H245821   1.231   5.233  15.364
 8136TIP3   OH245822   1.768   4.440  14.085
 8136TIP3    H145823   1.724   4.418  14.003
 8136TIP3    H245824   1.797   4.530  14.073
 8137TIP3   OH245825   1.841   5.056  15.365
 8137TIP3    H145826   1.749   5.045  15.342
 8137TIP3    H245827   1.889   5.029  15.287
 8138TIP3   OH245828   1.650   5.278  14.138
 8138TIP3    H145829   1.590   5.205  14.151
 8138TIP3    H245830   1.689   5.262  14.052
 8139TIP3   OH245831   1.365   4.786  14.796
 8139TIP3    H145832   1.270   4.777  14.791
 8139TIP3    H245833   1.400   4.715  14.743
 8140TIP3   OH245834   0.640   5.214  14.468
 8140TIP3    H145835   0.671   5.298  14.434
 8140TIP3    H245836   0.549   5.209  14.439
 8141TIP3   OH245837   0.190   4.701  13.898
 8141TIP3    H145838   0.246   4.754  13.955
 8141TIP3    H245839   0.102   4.735  13.911
 8142TIP3   OH245840   0.722   4.971  14.363
 8142TIP3    H145841   0.710   5.057  14.401
 8142TIP3    H245842   0.660   4.915  14.409
 8143TIP3   OH245843   0.834   5.388  15.038
 8143TIP3    H145844   0.889   5.463  15.014
 8143TIP3    H245845   0.892   5.330  15.087
 8144TIP3   OH245846   0.641   5.474  14.361
 8144TIP3    H145847   0.547   5.491  14.373
 8144TIP3    H245848   0.684   5.553  14.393
 8145TIP3   OH245849   1.118   4.994  15.007
 8145TIP3    H145850   1.088   4.973  15.096
 8145TIP3    H245851   1.176   4.921  14.983
 8146TIP3   OH245852   1.423   5.103  13.926
 8146TIP3    H145853   1.429   5.062  14.012
 8146TIP3    H245854   1.337   5.076  13.893
 8147TIP3   OH245855   1.433   5.420  15.227
 8147TIP3    H145856   1.350   5.377  15.209
 8147TIP3    H245857   1.436   5.493  15.165
 8148TIP3   OH245858   1.831   5.531  13.916
 8148TIP3    H145859   1.861   5.595  13.851
 8148TIP3    H245860   1.758   5.575  13.960
 8149TIP3   OH245861   0.228   4.162  15.190
 8149TIP3    H145862   0.133   4.169  15.195
 8149TIP3    H245863   0.249   4.085  15.244
 8150TIP3   OH245864   1.508   4.986  14.172
 8150TIP3    H145865   1.464   4.906  14.198
 8150TIP3    H245866   1.601   4.963  14.168
 8151TIP3   OH245867   0.230   5.390  15.029
 8151TIP3    H145868   0.218   5.311  15.083
 8151TIP3    H245869   0.247   5.459  15.093
 8152TIP3   OH245870   0.805   5.183  13.772
 8152TIP3    H145871   0.801   5.101  13.723
 8152TIP3    H245872   0.749   5.168  13.848
 8153TIP3   OH245873   0.664   5.165  14.013
 8153TIP3    H145874   0.721   5.115  14.071
 8153TIP3    H245875   0.676   5.256  14.040
 8154TIP3   OH245876   0.314   4.875  14.079
 8154TIP3    H145877   0.241   4.920  14.121
 8154TIP3    H245878   0.359   4.942  14.028
 8155TIP3   OH245879   1.096   4.116  15.155
 8155TIP3    H145880   1.101   4.129  15.249
 8155TIP3    H245881   1.051   4.033  15.144
 8156TIP3   OH245882   1.207   4.065  14.251
 8156TIP3    H145883   1.211   4.100  14.162
 8156TIP3    H245884   1.249   4.132  14.305
 8157TIP3   OH245885   0.968   5.307  14.077
 8157TIP3    H145886   0.880   5.340  14.092
 8157TIP3    H245887   1.013   5.378  14.030
 8158TIP3   OH245888   0.894   4.295  14.289
 8158TIP3    H145889   0.967   4.357  14.294
 8158TIP3    H245890   0.884   4.263  14.378
 8159TIP3   OH245891   0.990   4.389  15.166
 8159TIP3    H145892   0.993   4.418  15.258
 8159TIP3    H245893   1.011   4.295  15.170
 8160TIP3   OH245894   0.967   3.967  14.346
 8160TIP3    H145895   0.939   4.041  14.401
 8160TIP3    H245896   1.051   3.994  14.311
 8161TIP3   OH245897   0.718   5.418  14.102
 8161TIP3    H145898   0.723   5.502  14.055
 8161TIP3    H245899   0.690   5.442  14.191
 8162TIP3   OH245900   0.558   4.120  14.052
 8162TIP3    H145901   0.555   4.206  14.094
 8162TIP3    H245902   0.645   4.086  14.073
 8163TIP3   OH245903   1.596   4.182  15.253
 8163TIP3    H145904   1.505   4.207  15.264
 8163TIP3    H245905   1.602   4.151  15.162
 8164TIP3   OH245906   1.441   4.546  14.663
 8164TIP3    H145907   1.359   4.504  14.639
 8164TIP3    H245908   1.487   4.480  14.715
 8165TIP3   OH245909   0.410   5.086  13.925
 8165TIP3    H145910   0.481   5.138  13.961
 8165TIP3    H245911   0.452   5.033  13.857
 8166TIP3   OH245912   0.196   4.424  13.873
 8166TIP3    H145913   0.206   4.518  13.884
 8166TIP3    H245914   0.167   4.413  13.782
 8167TIP3   OH245915   1.571   5.487  14.830
 8167TIP3    H145916   1.551   5.559  14.771
 8167TIP3    H245917   1.666   5.489  14.838
 8168TIP3   OH245918   0.305   3.893  14.712
 8168TIP3    H145919   0.309   3.877  14.618
 8168TIP3    H245920   0.272   3.811  14.749
 8169TIP3   OH245921   0.188   5.294  14.304
 8169TIP3    H145922   0.116   5.297  14.367
 8169TIP3    H245923   0.165   5.361  14.239
 8170TIP3   OH245924   0.191   5.574  15.518
 8170TIP3    H145925   0.244   5.571  15.598
 8170TIP3    H245926   0.197   5.486  15.482
 8171TIP3   OH245927   0.578   5.394  15.637
 8171TIP3    H145928   0.653   5.339  15.655
 8171TIP3    H245929   0.551   5.371  15.548
 8172TIP3   OH245930   0.993   5.381  13.758
 8172TIP3    H145931   0.928   5.311  13.765
 8172TIP3    H245932   1.070   5.339  13.721
 8173TIP3   OH245933   1.238   5.259  15.547
 8173TIP3    H145934   1.223   5.173  15.586
 8173TIP3    H245935   1.318   5.291  15.588
 8174TIP3   OH245936   1.443   5.346  13.794
 8174TIP3    H145937   1.455   5.264  13.842
 8174TIP3    H245938   1.512   5.347  13.729
 8175TIP3   OH245939   0.090   4.940  15.518
 8175TIP3    H145940   0.098   4.844  15.517
 8175TIP3    H245941   0.033   4.960  15.444
 8176TIP3   OH245942   0.545   4.906  13.773
 8176TIP3    H145943   0.575   4.860  13.851
 8176TIP3    H245944   0.624   4.920  13.721
 8177TIP3   OH245945   0.773   4.938  15.515
 8177TIP3    H145946   0.752   4.982  15.433
 8177TIP3    H245947   0.791   4.847  15.490
 8178TIP3   OH245948   1.180   5.039  13.810
 8178TIP3    H145949   1.128   5.038  13.890
 8178TIP3    H245950   1.153   4.960  13.763
 8179TIP3   OH245951   1.347   4.953  15.297
 8179TIP3    H145952   1.431   4.981  15.260
 8179TIP3    H245953   1.289   5.027  15.280
 8180TIP3   OH245954   0.173   4.669  15.510
 8180TIP3    H145955   0.255   4.624  15.491
 8180TIP3    H245956   0.162   4.661  15.605
 8181TIP3   OH245957   0.650   4.771  13.997
 8181TIP3    H145958   0.599   4.718  14.058
 8181TIP3    H245959   0.700   4.707  13.946
 8182TIP3   OH245960   0.623   4.555  15.265
 8182TIP3    H145961   0.544   4.608  15.263
 8182TIP3    H245962   0.681   4.595  15.200
 8183TIP3   OH245963   0.800   4.601  13.837
 8183TIP3    H145964   0.795   4.628  13.745
 8183TIP3    H245965   0.893   4.589  13.853
 8184TIP3   OH245966   1.117   4.789  15.565
 8184TIP3    H145967   1.174   4.738  15.508
 8184TIP3    H245968   1.079   4.725  15.625
 8185TIP3   OH245969   1.694   4.785  13.784
 8185TIP3    H145970   1.694   4.765  13.691
 8185TIP3    H245971   1.687   4.880  13.789
 8186TIP3   OH245972   0.672   4.295  15.333
 8186TIP3    H145973   0.671   4.236  15.257
 8186TIP3    H245974   0.654   4.381  15.296
 8187TIP3   OH245975   0.689   4.132  15.102
 8187TIP3    H145976   0.739   4.179  15.035
 8187TIP3    H245977   0.600   4.128  15.068
 8188TIP3   OH245978   0.809   4.676  15.109
 8188TIP3    H145979   0.903   4.696  15.109
 8188TIP3    H245980   0.768   4.751  15.066
 8189TIP3   OH245981   1.241   4.417  15.612
 8189TIP3    H145982   1.241   4.347  15.677
 8189TIP3    H245983   1.333   4.442  15.603
 8190TIP3   OH245984   1.391   4.723  15.432
 8190TIP3    H145985   1.360   4.804  15.389
 8190TIP3    H245986   1.486   4.726  15.420
 8191TIP3   OH245987   0.509   4.356  15.557
 8191TIP3    H145988   0.427   4.309  15.543
 8191TIP3    H245989   0.555   4.348  15.473
 8192TIP3   OH245990   0.740   3.864  15.175
 8192TIP3    H145991   0.719   3.954  15.150
 8192TIP3    H245992   0.676   3.811  15.128
 8193TIP3   OH245993   0.882   4.257  15.506
 8193TIP3    H145994   0.838   4.232  15.587
 8193TIP3    H245995   0.812   4.263  15.441
 8194TIP3   OH245996   1.140   4.182  15.414
 8194TIP3    H145997   1.056   4.199  15.459
 8194TIP3    H245998   1.197   4.148  15.483
 8195TIP3   OH245999   1.327   4.083  15.599
 8195TIP3    H146000   1.316   3.988  15.601
 8195TIP3    H246001   1.294   4.113  15.684
 8196TIP3   OH246002   0.300   4.177  15.512
 8196TIP3    H146003   0.298   4.104  15.450
 8196TIP3    H246004   0.302   4.135  15.598
 8197TIP3   OH246005   0.754   3.793  15.439
 8197TIP3    H146006   0.807   3.714  15.430
 8197TIP3    H246007   0.740   3.822  15.349
 8198TIP3   OH246008   0.819   3.954  15.657
 8198TIP3    H146009   0.803   3.899  15.580
 8198TIP3    H246010   0.759   4.027  15.647
 8199TIP3   OH246011   0.782   5.655  13.977
 8199TIP3    H146012   0.874   5.631  13.967
 8199TIP3    H246013   0.766   5.719  13.907
 8200TIP3   OH246014   0.134   5.080  13.884
 8200TIP3    H146015   0.228   5.096  13.883
 8200TIP3    H246016   0.115   5.041  13.799
 8201TIP3   OH246017   0.058   5.642  14.363
 8201TIP3    H146018   0.065   5.600  14.277
 8201TIP3    H246019   0.065   5.570  14.425
 8202TIP3   OH246020   0.077   5.438  14.557
 8202TIP3    H146021   0.079   5.351  14.598
 8202TIP3    H246022   0.126   5.494  14.616
 8203TIP3   OH246023   1.839   5.498  14.894
 8203TIP3    H146024   1.836   5.520  14.987
 8203TIP3    H246025   1.911   5.550  14.859
 8204TIP3   OH246026   1.772   5.481  15.172
 8204TIP3    H146027   1.724   5.405  15.139
 8204TIP3    H246028   1.832   5.445  15.238
 8205TIP3   OH246029   1.648   5.009  15.748
 8205TIP3    H146030   1.556   5.022  15.770
 8205TIP3    H246031   1.683   5.098  15.740
 8206TIP3   OH246032   1.773   4.897  14.189
 8206TIP3    H146033   1.846   4.959  14.187
 8206TIP3    H246034   1.794   4.837  14.260
 8207TIP3   OH246035   1.822   4.697  14.377
 8207TIP3    H146036   1.734   4.662  14.396
 8207TIP3    H246037   1.864   4.704  14.463
 8208TIP3   OH246038   1.820   4.985  14.891
 8208TIP3    H146039   1.858   4.931  14.822
 8208TIP3    H246040   1.837   5.075  14.864
 8209TIP3   OH246041   1.617   5.252  15.105
 8209TIP3    H146042   1.544   5.303  15.141
 8209TIP3    H246043   1.592   5.237  15.014
 8210TIP3   OH246044   1.833   4.698  14.005
 8210TIP3    H146045   1.788   4.717  13.923
 8210TIP3    H246046   1.808   4.769  14.064
 8211TIP3   OH246047   1.657   4.405  13.841
 8211TIP3    H146048   1.647   4.465  13.767
 8211TIP3    H246049   1.634   4.319  13.805
 8212TIP3   OH246050   1.576   4.576  14.421
 8212TIP3    H146051   1.569   4.488  14.383
 8212TIP3    H246052   1.532   4.569  14.506
 8213TIP3   OH246053   0.093   4.784  14.849
 8213TIP3    H146054   0.096   4.785  14.754
 8213TIP3    H246055   0.175   4.743  14.876
 8214TIP3   OH246056   1.658   4.780  15.372
 8214TIP3    H146057   1.742   4.751  15.335
 8214TIP3    H246058   1.633   4.855  15.319
 8215TIP3   OH246059   1.848   4.517  15.474
 8215TIP3    H146060   1.754   4.503  15.457
 8215TIP3    H246061   1.884   4.429  15.481
 8216TIP3   OH246062   1.586   4.159  13.751
 8216TIP3    H146063   1.627   4.096  13.810
 8216TIP3    H246064   1.497   4.125  13.738
 8217TIP3   OH246065   1.572   4.329  14.265
 8217TIP3    H146066   1.596   4.236  14.266
 8217TIP3    H246067   1.636   4.370  14.208
 8218TIP3   OH246068   1.606   4.366  14.803
 8218TIP3    H146069   1.699   4.384  14.788
 8218TIP3    H246070   1.593   4.384  14.896
 8219TIP3   OH246071   1.611   4.453  15.070
 8219TIP3    H146072   1.531   4.483  15.114
 8219TIP3    H246073   1.661   4.533  15.053
 8220TIP3   OH246074   0.073   4.330  15.525
 8220TIP3    H146075   0.152   4.285  15.496
 8220TIP3    H246076   0.022   4.262  15.569
 8221TIP3   OH246077   1.835   3.847  15.583
 8221TIP3    H146078   1.899   3.778  15.567
 8221TIP3    H246079   1.843   3.906  15.508
 8222TIP3   OH246080   1.617   4.053  14.287
 8222TIP3    H146081   1.637   3.999  14.363
 8222TIP3    H246082   1.554   4.001  14.237
 8223TIP3   OH246083   0.181   4.138  14.718
 8223TIP3    H146084   0.213   4.048  14.720
 8223TIP3    H246085   0.259   4.192  14.732
 8224TIP3   OH246086   0.021   4.507  14.851
 8224TIP3    H146087   0.089   4.486  14.787
 8224TIP3    H246088   0.026   4.602  14.861
 8225TIP3   OH246089   1.786   4.033  15.386
 8225TIP3    H146090   1.707   4.086  15.379
 8225TIP3    H246091   1.773   3.961  15.324
 8226TIP3   OH246092   1.772   4.026  13.929
 8226TIP3    H146093   1.817   3.975  13.862
 8226TIP3    H246094   1.834   4.095  13.953
 8227TIP3   OH246095   0.140   4.041  14.173
 8227TIP3    H146096   0.066   4.034  14.233
 8227TIP3    H246097   0.119   4.116  14.117
 8228TIP3   OH246098   1.522   5.556  14.452
 8228TIP3    H146099   1.583   5.541  14.380
 8228TIP3    H246100   1.562   5.627  14.502
 8229TIP3   OH246101   0.055   3.904  15.088
 8229TIP3    H146102   0.026   3.965  15.155
 8229TIP3    H246103   0.003   3.927  15.011
 8230TIP3   OH246104   0.231   5.300  15.455
 8230TIP3    H146105   0.212   5.243  15.381
 8230TIP3    H246106   0.193   5.256  15.530
 8231TIP3   OH246107   0.574   5.362  15.121
 8231TIP3    H146108   0.540   5.447  15.091
 8231TIP3    H246109   0.666   5.364  15.098
 8232TIP3   OH246110   0.946   5.479  15.396
 8232TIP3    H146111   0.960   5.453  15.487
 8232TIP3    H246112   1.023   5.531  15.374
 8233TIP3   OH246113   1.176   5.623  15.356
 8233TIP3    H146114   1.243   5.587  15.298
 8233TIP3    H246115   1.225   5.651  15.434
 8234TIP3   OH246116   1.704   3.817  15.233
 8234TIP3    H146117   1.633   3.823  15.169
 8234TIP3    H246118   1.741   3.729  15.220
 8235TIP3   OH246119   0.277   5.645  15.147
 8235TIP3    H146120   0.198   5.688  15.114
 8235TIP3    H246121   0.297   5.692  15.228
 8236TIP3   OH246122   0.533   5.625  15.045
 8236TIP3    H146123   0.441   5.634  15.070
 8236TIP3    H246124   0.540   5.673  14.962
 8237TIP3   OH246125   0.980   5.606  14.951
 8237TIP3    H146126   0.933   5.641  14.876
 8237TIP3    H246127   0.995   5.681  15.008
 8238TIP3   OH246128   1.204   5.478  15.052
 8238TIP3    H146129   1.127   5.519  15.012
 8238TIP3    H246130   1.277   5.535  15.027
 8239TIP3   OH246131   1.449   5.621  15.037
 8239TIP3    H146132   1.470   5.713  15.022
 8239TIP3    H246133   1.487   5.575  14.962
 8240TIP3   OH246134   0.222   5.526  14.791
 8240TIP3    H146135   0.218   5.484  14.877
 8240TIP3    H246136   0.295   5.483  14.747
 8241TIP3   OH246137   0.437   5.398  14.682
 8241TIP3    H146138   0.423   5.307  14.708
 8241TIP3    H246139   0.525   5.419  14.715
 8242TIP3   OH246140   0.699   5.424  14.792
 8242TIP3    H146141   0.706   5.334  14.759
 8242TIP3    H246142   0.733   5.420  14.881
 8243TIP3   OH246143   1.010   3.981  14.699
 8243TIP3    H146144   0.942   3.916  14.714
 8243TIP3    H246145   1.078   3.934  14.651
 8244TIP3   OH246146   1.518   3.860  14.733
 8244TIP3    H146147   1.584   3.873  14.666
 8244TIP3    H246148   1.434   3.862  14.686
 8245TIP3   OH246149   1.699   3.914  14.526
 8245TIP3    H146150   1.763   3.852  14.490
 8245TIP3    H246151   1.749   3.994  14.539
 8246TIP3   OH246152   0.313   3.853  14.440
 8246TIP3    H146153   0.225   3.846  14.402
 8246TIP3    H246154   0.352   3.767  14.427
 8247TIP3   OH246155   0.224   3.826  14.026
 8247TIP3    H146156   0.272   3.872  13.956
 8247TIP3    H246157   0.195   3.895  14.085
 8248TIP3   OH246158   0.754   3.817  14.457
 8248TIP3    H146159   0.824   3.867  14.415
 8248TIP3    H246160   0.775   3.821  14.550
 8249TIP3   OH246161   1.263   3.871  14.605
 8249TIP3    H146162   1.275   3.859  14.510
 8249TIP3    H246163   1.240   3.783  14.637
 8250TIP3   OH246164   1.419   3.890  14.182
 8250TIP3    H146165   1.340   3.944  14.190
 8250TIP3    H246166   1.387   3.800  14.191
 8251TIP3   OH246167   0.114   5.495  14.129
 8251TIP3    H146168   0.094   5.450  14.047
 8251TIP3    H246169   0.158   5.576  14.101
 8252TIP3   OH246170   0.378   4.003  13.867
 8252TIP3    H146171   0.436   3.957  13.808
 8252TIP3    H246172   0.435   4.040  13.934
 8253TIP3   OH246173   0.822   4.089  14.124
 8253TIP3    H146174   0.852   4.011  14.171
 8253TIP3    H246175   0.849   4.163  14.178
 8254TIP3   OH246176   1.040   5.558  13.959
 8254TIP3    H146177   1.133   5.577  13.947
 8254TIP3    H246178   1.015   5.510  13.880
 8255TIP3   OH246179   1.704   5.523  14.247
 8255TIP3    H146180   1.688   5.435  14.213
 8255TIP3    H246181   1.687   5.581  14.173
 8256TIP3   OH246182   0.297   3.928  15.380
 8256TIP3    H146183   0.240   3.860  15.416
 8256TIP3    H246184   0.382   3.913  15.421
 8257TIP3   OH246185   0.501   3.842  15.547
 8257TIP3    H146186   0.588   3.816  15.516
 8257TIP3    H246187   0.470   3.766  15.596
 8258TIP3   OH246188   0.305   5.496  13.843
 8258TIP3    H146189   0.332   5.568  13.901
 8258TIP3    H246190   0.388   5.459  13.812
 8259TIP3   OH246191   1.325   3.804  15.589
 8259TIP3    H146192   1.316   3.756  15.671
 8259TIP3    H246193   1.416   3.790  15.563
 8260TIP3   OH246194   1.607   5.406  15.444
 8260TIP3    H146195   1.549   5.398  15.367
 8260TIP3    H246196   1.605   5.500  15.464
 8261TIP3   OH246197   3.085   4.797  14.423
 8261TIP3    H146198   3.068   4.891  14.420
 8261TIP3    H246199   3.018   4.759  14.367
 8262TIP3   OH246200   2.965   4.706  14.818
 8262TIP3    H146201   2.989   4.662  14.900
 8262TIP3    H246202   2.915   4.642  14.770
 8263TIP3   OH246203   2.199   4.676  15.002
 8263TIP3    H146204   2.198   4.583  15.028
 8263TIP3    H246205   2.276   4.684  14.946
 8264TIP3   OH246206   3.356   5.007  14.645
 8264TIP3    H146207   3.300   4.948  14.696
 8264TIP3    H246208   3.375   5.080  14.704
 8265TIP3   OH246209   2.320   5.133  14.780
 8265TIP3    H146210   2.289   5.047  14.752
 8265TIP3    H246211   2.416   5.127  14.775
 8266TIP3   OH246212   1.958   4.462  14.299
 8266TIP3    H146213   1.924   4.548  14.322
 8266TIP3    H246214   1.904   4.433  14.226
 8267TIP3   OH246215   2.013   4.689  14.586
 8267TIP3    H146216   2.045   4.599  14.595
 8267TIP3    H246217   2.082   4.734  14.538
 8268TIP3   OH246218   3.071   5.508  14.666
 8268TIP3    H146219   3.112   5.456  14.597
 8268TIP3    H246220   3.019   5.445  14.716
 8269TIP3   OH246221   2.798   4.958  14.830
 8269TIP3    H146222   2.839   4.886  14.783
 8269TIP3    H246223   2.867   4.991  14.888
 8270TIP3   OH246224   3.675   4.137  14.888
 8270TIP3    H146225   3.709   4.147  14.977
 8270TIP3    H246226   3.753   4.124  14.834
 8271TIP3   OH246227   3.135   4.380  14.836
 8271TIP3    H146228   3.146   4.287  14.853
 8271TIP3    H246229   3.103   4.386  14.746
 8272TIP3   OH246230   2.465   4.186  14.564
 8272TIP3    H146231   2.471   4.272  14.521
 8272TIP3    H246232   2.416   4.132  14.502
 8273TIP3   OH246233   3.242   4.243  14.409
 8273TIP3    H146234   3.290   4.205  14.483
 8273TIP3    H246235   3.309   4.268  14.347
 8274TIP3   OH246236   2.102   4.432  14.650
 8274TIP3    H146237   2.170   4.389  14.702
 8274TIP3    H246238   2.118   4.402  14.561
 8275TIP3   OH246239   2.570   4.584  14.631
 8275TIP3    H146240   2.659   4.554  14.648
 8275TIP3    H246241   2.536   4.524  14.566
 8276TIP3   OH246242   3.711   4.256  15.144
 8276TIP3    H146243   3.641   4.320  15.128
 8276TIP3    H246244   3.697   4.226  15.234
 8277TIP3   OH246245   2.319   4.115  15.001
 8277TIP3    H146246   2.294   4.168  14.925
 8277TIP3    H246247   2.243   4.119  15.059
 8278TIP3   OH246248   3.013   5.048  14.341
 8278TIP3    H146249   3.007   5.052  14.246
 8278TIP3    H246250   2.980   5.133  14.371
 8279TIP3   OH246251   2.586   4.872  14.986
 8279TIP3    H146252   2.535   4.947  15.016
 8279TIP3    H246253   2.655   4.910  14.932
 8280TIP3   OH246254   3.365   4.170  14.643
 8280TIP3    H146255   3.352   4.077  14.663
 8280TIP3    H246256   3.387   4.210  14.728
 8281TIP3   OH246257   2.298   4.269  14.770
 8281TIP3    H146258   2.358   4.326  14.818
 8281TIP3    H246259   2.351   4.233  14.699
 8282TIP3   OH246260   2.437   5.085  15.087
 8282TIP3    H146261   2.448   5.177  15.061
 8282TIP3    H246262   2.344   5.076  15.105
 8283TIP3   OH246263   1.998   5.063  14.164
 8283TIP3    H146264   1.991   5.098  14.075
 8283TIP3    H246265   2.022   5.139  14.217
 8284TIP3   OH246266   3.386   5.217  14.839
 8284TIP3    H146267   3.293   5.219  14.859
 8284TIP3    H246268   3.407   5.307  14.813
 8285TIP3   OH246269   3.419   4.025  15.010
 8285TIP3    H146270   3.346   4.057  14.956
 8285TIP3    H246271   3.497   4.041  14.956
 8286TIP3   OH246272   2.688   3.811  14.742
 8286TIP3    H146273   2.666   3.718  14.742
 8286TIP3    H246274   2.605   3.856  14.760
 8287TIP3   OH246275   3.198   5.380  14.456
 8287TIP3    H146276   3.237   5.294  14.439
 8287TIP3    H246277   3.273   5.439  14.463
 8288TIP3   OH246278   3.326   5.148  14.403
 8288TIP3    H146279   3.341   5.094  14.326
 8288TIP3    H246280   3.338   5.088  14.477
 8289TIP3   OH246281   3.489   5.008  15.204
 8289TIP3    H146282   3.482   4.951  15.127
 8289TIP3    H246283   3.499   5.096  15.167
 8290TIP3   OH246284   2.933   4.715  14.204
 8290TIP3    H146285   2.865   4.779  14.181
 8290TIP3    H246286   2.995   4.719  14.131
 8291TIP3   OH246287   2.962   4.579  13.863
 8291TIP3    H146288   3.020   4.610  13.933
 8291TIP3    H246289   3.016   4.520  13.811
 8292TIP3   OH246290   3.660   4.673  15.025
 8292TIP3    H146291   3.588   4.735  15.017
 8292TIP3    H246292   3.723   4.699  14.958
 8293TIP3   OH246293   3.304   4.746  14.272
 8293TIP3    H146294   3.228   4.764  14.327
 8293TIP3    H246295   3.379   4.772  14.326
 8294TIP3   OH246296   3.260   4.546  15.231
 8294TIP3    H146297   3.251   4.617  15.294
 8294TIP3    H246298   3.196   4.566  15.163
 8295TIP3   OH246299   2.428   4.783  14.475
 8295TIP3    H146300   2.401   4.751  14.389
 8295TIP3    H246301   2.485   4.714  14.509
 8296TIP3   OH246302   2.595   5.143  14.731
 8296TIP3    H146303   2.590   5.152  14.635
 8296TIP3    H246304   2.670   5.085  14.745
 8297TIP3   OH246305   2.436   4.686  14.849
 8297TIP3    H146306   2.484   4.659  14.771
 8297TIP3    H246307   2.492   4.750  14.892
 8298TIP3   OH246308   3.130   5.230  14.924
 8298TIP3    H146309   3.104   5.305  14.976
 8298TIP3    H246310   3.077   5.158  14.958
 8299TIP3   OH246311   2.589   5.114  15.316
 8299TIP3    H146312   2.527   5.176  15.354
 8299TIP3    H246313   2.548   5.088  15.233
 8300TIP3   OH246314   3.163   4.668  14.042
 8300TIP3    H146315   3.216   4.700  14.115
 8300TIP3    H246316   3.212   4.692  13.964
 8301TIP3   OH246317   2.262   4.736  15.271
 8301TIP3    H146318   2.252   4.826  15.302
 8301TIP3    H246319   2.228   4.737  15.182
 8302TIP3   OH246320   2.936   5.311  14.397
 8302TIP3    H146321   3.025   5.341  14.419
 8302TIP3    H246322   2.902   5.378  14.337
 8303TIP3   OH246323   2.386   5.291  15.377
 8303TIP3    H146324   2.397   5.324  15.288
 8303TIP3    H246325   2.292   5.273  15.385
 8304TIP3   OH246326   3.531   3.812  14.038
 8304TIP3    H146327   3.443   3.837  14.067
 8304TIP3    H246328   3.569   3.893  14.004
 8305TIP3   OH246329   2.341   4.695  14.224
 8305TIP3    H146330   2.294   4.766  14.180
 8305TIP3    H246331   2.303   4.615  14.188
 8306TIP3   OH246332   3.672   5.260  13.896
 8306TIP3    H146333   3.687   5.355  13.891
 8306TIP3    H246334   3.759   5.221  13.890
 8307TIP3   OH246335   1.950   4.953  15.136
 8307TIP3    H146336   1.904   4.962  15.053
 8307TIP3    H246337   1.942   4.860  15.159
 8308TIP3   OH246338   1.918   5.238  14.826
 8308TIP3    H146339   2.007   5.247  14.859
 8308TIP3    H246340   1.875   5.321  14.850
 8309TIP3   OH246341   3.745   5.301  15.406
 8309TIP3    H146342   3.731   5.207  15.395
 8309TIP3    H246343   3.661   5.335  15.435
 8310TIP3   OH246344   2.830   5.238  15.266
 8310TIP3    H146345   2.825   5.325  15.306
 8310TIP3    H246346   2.744   5.199  15.282
 8311TIP3   OH246347   2.919   5.583  14.245
 8311TIP3    H146348   2.896   5.584  14.152
 8311TIP3    H246349   2.884   5.666  14.279
 8312TIP3   OH246350   2.254   5.478  14.431
 8312TIP3    H146351   2.269   5.443  14.519
 8312TIP3    H246352   2.197   5.414  14.389
 8313TIP3   OH246353   3.203   5.549  13.928
 8313TIP3    H146354   3.250   5.477  13.888
 8313TIP3    H246355   3.214   5.536  14.022
 8314TIP3   OH246356   3.184   5.529  14.206
 8314TIP3    H146357   3.091   5.544  14.221
 8314TIP3    H246358   3.210   5.467  14.275
 8315TIP3   OH246359   3.433   4.420  15.425
 8315TIP3    H146360   3.377   4.451  15.354
 8315TIP3    H246361   3.441   4.326  15.410
 8316TIP3   OH246362   2.178   5.099  15.185
 8316TIP3    H146363   2.192   5.059  15.271
 8316TIP3    H246364   2.099   5.058  15.151
 8317TIP3   OH246365   2.439   3.920  14.831
 8317TIP3    H146366   2.367   3.908  14.769
 8317TIP3    H246367   2.410   3.991  14.888
 8318TIP3   OH246368   2.929   3.886  15.177
 8318TIP3    H146369   2.991   3.837  15.232
 8318TIP3    H246370   2.848   3.887  15.228
 8319TIP3   OH246371   3.200   4.272  15.259
 8319TIP3    H146372   3.137   4.255  15.329
 8319TIP3    H246373   3.202   4.367  15.251
 8320TIP3   OH246374   3.315   4.725  13.828
 8320TIP3    H146375   3.286   4.732  13.737
 8320TIP3    H246376   3.408   4.744  13.825
 8321TIP3   OH246377   2.865   4.115  13.895
 8321TIP3    H146378   2.801   4.118  13.967
 8321TIP3    H246379   2.829   4.051  13.834
 8322TIP3   OH246380   2.449   4.427  14.942
 8322TIP3    H146381   2.381   4.424  15.009
 8322TIP3    H246382   2.449   4.517  14.911
 8323TIP3   OH246383   2.444   4.430  14.439
 8323TIP3    H146384   2.350   4.418  14.431
 8323TIP3    H246385   2.478   4.418  14.350
 8324TIP3   OH246386   2.990   4.469  14.310
 8324TIP3    H146387   2.963   4.553  14.274
 8324TIP3    H246388   3.058   4.438  14.250
 8325TIP3   OH246389   2.923   4.495  15.430
 8325TIP3    H146390   2.866   4.428  15.468
 8325TIP3    H246391   3.009   4.478  15.469
 8326TIP3   OH246392   3.079   4.409  14.565
 8326TIP3    H146393   3.035   4.453  14.493
 8326TIP3    H246394   3.128   4.338  14.523
 8327TIP3   OH246395   2.233   4.419  15.116
 8327TIP3    H146396   2.291   4.440  15.189
 8327TIP3    H246397   2.184   4.342  15.146
 8328TIP3   OH246398   2.553   4.176  13.797
 8328TIP3    H146399   2.513   4.163  13.883
 8328TIP3    H246400   2.494   4.236  13.752
 8329TIP3   OH246401   1.858   4.131  14.540
 8329TIP3    H146402   1.936   4.144  14.594
 8329TIP3    H246403   1.891   4.131  14.450
 8330TIP3   OH246404   1.943   4.225  14.029
 8330TIP3    H146405   2.012   4.263  13.973
 8330TIP3    H246406   1.882   4.298  14.044
 8331TIP3   OH246407   3.051   4.547  15.036
 8331TIP3    H146408   3.086   4.489  14.969
 8331TIP3    H246409   2.983   4.496  15.080
 8332TIP3   OH246410   2.756   4.158  14.530
 8332TIP3    H146411   2.665   4.155  14.560
 8332TIP3    H246412   2.806   4.118  14.602
 8333TIP3   OH246413   2.183   4.340  14.407
 8333TIP3    H146414   2.109   4.371  14.354
 8333TIP3    H246415   2.203   4.253  14.373
 8334TIP3   OH246416   2.514   4.364  14.182
 8334TIP3    H146417   2.609   4.352  14.190
 8334TIP3    H246418   2.502   4.403  14.096
 8335TIP3   OH246419   3.138   4.106  14.868
 8335TIP3    H146420   3.086   4.113  14.949
 8335TIP3    H246421   3.079   4.063  14.806
 8336TIP3   OH246422   2.466   4.458  13.930
 8336TIP3    H146423   2.413   4.429  13.855
 8336TIP3    H246424   2.542   4.499  13.890
 8337TIP3   OH246425   3.481   5.673  15.496
 8337TIP3    H146426   3.503   5.714  15.412
 8337TIP3    H246427   3.554   5.695  15.553
 8338TIP3   OH246428   2.225   4.974  15.436
 8338TIP3    H146429   2.293   4.948  15.499
 8338TIP3    H246430   2.201   5.063  15.462
 8339TIP3   OH246431   2.820   4.475  14.722
 8339TIP3    H146432   2.882   4.427  14.667
 8339TIP3    H246433   2.790   4.411  14.786
 8340TIP3   OH246434   2.297   4.077  14.365
 8340TIP3    H146435   2.243   4.002  14.387
 8340TIP3    H246436   2.332   4.057  14.278
 8341TIP3   OH246437   2.708   4.328  14.942
 8341TIP3    H146438   2.623   4.373  14.945
 8341TIP3    H246439   2.755   4.360  15.018
 8342TIP3   OH246440   2.736   4.904  14.135
 8342TIP3    H146441   2.665   4.866  14.083
 8342TIP3    H246442   2.695   4.926  14.218
 8343TIP3   OH246443   3.463   4.860  14.973
 8343TIP3    H146444   3.522   4.917  14.923
 8343TIP3    H246445   3.386   4.850  14.916
 8344TIP3   OH246446   3.114   4.162  13.991
 8344TIP3    H146447   3.027   4.156  13.951
 8344TIP3    H246448   3.127   4.255  14.008
 8345TIP3   OH246449   2.895   4.951  15.262
 8345TIP3    H146450   2.939   4.926  15.344
 8345TIP3    H246451   2.876   5.044  15.273
 8346TIP3   OH246452   3.193   4.404  14.126
 8346TIP3    H146453   3.286   4.385  14.138
 8346TIP3    H246454   3.191   4.489  14.083
 8347TIP3   OH246455   2.285   4.870  14.694
 8347TIP3    H146456   2.326   4.855  14.609
 8347TIP3    H246457   2.325   4.804  14.751
 8348TIP3   OH246458   2.952   5.055  14.064
 8348TIP3    H146459   2.922   5.146  14.068
 8348TIP3    H246460   2.875   5.002  14.083
 8349TIP3   OH246461   1.904   4.700  15.263
 8349TIP3    H146462   1.913   4.620  15.315
 8349TIP3    H246463   1.864   4.670  15.181
 8350TIP3   OH246464   2.707   4.669  15.447
 8350TIP3    H146465   2.677   4.673  15.356
 8350TIP3    H246466   2.790   4.622  15.443
 8351TIP3   OH246467   3.108   5.206  15.266
 8351TIP3    H146468   3.016   5.222  15.246
 8351TIP3    H246469   3.117   5.233  15.357
 8352TIP3   OH246470   3.660   4.440  14.073
 8352TIP3    H146471   3.615   4.420  13.991
 8352TIP3    H246472   3.688   4.531  14.063
 8353TIP3   OH246473   3.710   5.021  15.365
 8353TIP3    H146474   3.621   5.027  15.330
 8353TIP3    H246475   3.765   5.002  15.289
 8354TIP3   OH246476   3.535   5.280  14.138
 8354TIP3    H146477   3.474   5.207  14.151
 8354TIP3    H246478   3.574   5.264  14.052
 8355TIP3   OH246479   3.238   4.797  14.806
 8355TIP3    H146480   3.143   4.786  14.799
 8355TIP3    H246481   3.274   4.720  14.760
 8356TIP3   OH246482   2.524   5.214  14.468
 8356TIP3    H146483   2.555   5.298  14.434
 8356TIP3    H246484   2.431   5.211  14.445
 8357TIP3   OH246485   2.102   4.667  13.934
 8357TIP3    H146486   2.143   4.742  13.978
 8357TIP3    H246487   2.009   4.675  13.955
 8358TIP3   OH246488   2.607   4.970  14.364
 8358TIP3    H146489   2.593   5.058  14.400
 8358TIP3    H246490   2.543   4.915  14.409
 8359TIP3   OH246491   2.717   5.386  15.039
 8359TIP3    H146492   2.770   5.461  15.015
 8359TIP3    H246493   2.776   5.329  15.087
 8360TIP3   OH246494   2.522   5.475  14.362
 8360TIP3    H146495   2.428   5.492  14.375
 8360TIP3    H246496   2.566   5.554  14.393
 8361TIP3   OH246497   3.007   4.993  15.012
 8361TIP3    H146498   2.970   4.970  15.098
 8361TIP3    H246499   3.083   4.934  15.002
 8362TIP3   OH246500   3.307   5.106  13.919
 8362TIP3    H146501   3.313   5.070  14.007
 8362TIP3    H246502   3.222   5.078  13.887
 8363TIP3   OH246503   3.316   5.425  15.225
 8363TIP3    H146504   3.232   5.384  15.202
 8363TIP3    H246505   3.322   5.500  15.165
 8364TIP3   OH246506   3.716   5.532  13.915
 8364TIP3    H146507   3.746   5.596  13.850
 8364TIP3    H246508   3.644   5.575  13.960
 8365TIP3   OH246509   2.081   4.181  15.187
 8365TIP3    H146510   2.001   4.225  15.162
 8365TIP3    H246511   2.058   4.088  15.189
 8366TIP3   OH246512   3.394   4.996  14.168
 8366TIP3    H146513   3.346   4.914  14.176
 8366TIP3    H246514   3.486   4.971  14.165
 8367TIP3   OH246515   2.116   5.373  15.026
 8367TIP3    H146516   2.154   5.299  15.073
 8367TIP3    H246517   2.133   5.448  15.083
 8368TIP3   OH246518   2.682   5.187  13.770
 8368TIP3    H146519   2.682   5.105  13.721
 8368TIP3    H246520   2.632   5.168  13.849
 8369TIP3   OH246521   2.549   5.167  14.014
 8369TIP3    H146522   2.604   5.118  14.076
 8369TIP3    H246523   2.559   5.258  14.040
 8370TIP3   OH246524   2.197   4.884  14.084
 8370TIP3    H146525   2.124   4.932  14.124
 8370TIP3    H246526   2.242   4.949  14.030
 8371TIP3   OH246527   3.004   4.142  15.107
 8371TIP3    H146528   3.078   4.164  15.164
 8371TIP3    H246529   2.978   4.054  15.136
 8372TIP3   OH246530   3.090   4.066  14.247
 8372TIP3    H146531   3.095   4.099  14.157
 8372TIP3    H246532   3.134   4.132  14.300
 8373TIP3   OH246533   2.852   5.307  14.080
 8373TIP3    H146534   2.763   5.340  14.094
 8373TIP3    H246535   2.898   5.379  14.037
 8374TIP3   OH246536   2.773   4.298  14.290
 8374TIP3    H146537   2.847   4.358  14.293
 8374TIP3    H246538   2.768   4.261  14.378
 8375TIP3   OH246539   2.870   4.383  15.164
 8375TIP3    H146540   2.884   4.405  15.256
 8375TIP3    H246541   2.908   4.296  15.154
 8376TIP3   OH246542   2.850   3.966  14.339
 8376TIP3    H146543   2.825   4.038  14.397
 8376TIP3    H246544   2.936   3.991  14.305
 8377TIP3   OH246545   2.603   5.420  14.104
 8377TIP3    H146546   2.608   5.503  14.057
 8377TIP3    H246547   2.572   5.444  14.191
 8378TIP3   OH246548   2.439   4.120  14.052
 8378TIP3    H146549   2.436   4.206  14.094
 8378TIP3    H246550   2.527   4.087  14.071
 8379TIP3   OH246551   3.448   4.163  15.269
 8379TIP3    H146552   3.357   4.191  15.268
 8379TIP3    H246553   3.459   4.112  15.189
 8380TIP3   OH246554   3.318   4.529  14.692
 8380TIP3    H146555   3.246   4.525  14.630
 8380TIP3    H246556   3.286   4.484  14.770
 8381TIP3   OH246557   2.296   5.090  13.924
 8381TIP3    H146558   2.369   5.139  13.960
 8381TIP3    H246559   2.334   5.036  13.854
 8382TIP3   OH246560   2.086   4.396  13.870
 8382TIP3    H146561   2.104   4.486  13.897
 8382TIP3    H246562   2.065   4.403  13.776
 8383TIP3   OH246563   3.456   5.489  14.831
 8383TIP3    H146564   3.439   5.560  14.770
 8383TIP3    H246565   3.552   5.489  14.842
 8384TIP3   OH246566   2.186   3.883  14.713
 8384TIP3    H146567   2.177   3.875  14.618
 8384TIP3    H246568   2.149   3.801  14.747
 8385TIP3   OH246569   2.064   5.302  14.312
 8385TIP3    H146570   2.002   5.331  14.379
 8385TIP3    H246571   2.051   5.364  14.240
 8386TIP3   OH246572   2.022   5.576  15.514
 8386TIP3    H146573   2.085   5.545  15.579
 8386TIP3    H246574   1.981   5.497  15.481
 8387TIP3   OH246575   2.456   5.390  15.623
 8387TIP3    H146576   2.539   5.347  15.644
 8387TIP3    H246577   2.436   5.361  15.534
 8388TIP3   OH246578   2.879   5.377  13.760
 8388TIP3    H146579   2.813   5.309  13.767
 8388TIP3    H246580   2.955   5.333  13.722
 8389TIP3   OH246581   3.116   5.258  15.539
 8389TIP3    H146582   3.105   5.174  15.582
 8389TIP3    H246583   3.195   5.296  15.577
 8390TIP3   OH246584   3.329   5.349  13.792
 8390TIP3    H146585   3.341   5.266  13.838
 8390TIP3    H246586   3.399   5.349  13.726
 8391TIP3   OH246587   1.983   4.911  15.560
 8391TIP3    H146588   2.067   4.919  15.516
 8391TIP3    H246589   1.923   4.962  15.505
 8392TIP3   OH246590   2.430   4.910  13.770
 8392TIP3    H146591   2.459   4.863  13.847
 8392TIP3    H246592   2.510   4.923  13.718
 8393TIP3   OH246593   2.655   4.939  15.518
 8393TIP3    H146594   2.646   4.984  15.434
 8393TIP3    H246595   2.688   4.852  15.495
 8394TIP3   OH246596   3.063   5.039  13.811
 8394TIP3    H146597   3.012   5.038  13.892
 8394TIP3    H246598   3.038   4.959  13.765
 8395TIP3   OH246599   3.230   4.956  15.287
 8395TIP3    H146600   3.320   4.975  15.261
 8395TIP3    H246601   3.182   5.038  15.270
 8396TIP3   OH246602   2.155   4.642  15.507
 8396TIP3    H146603   2.183   4.665  15.418
 8396TIP3    H246604   2.236   4.624  15.554
 8397TIP3   OH246605   2.537   4.773  13.993
 8397TIP3    H146606   2.483   4.719  14.051
 8397TIP3    H246607   2.587   4.710  13.942
 8398TIP3   OH246608   2.453   4.537  15.246
 8398TIP3    H146609   2.395   4.611  15.263
 8398TIP3    H246610   2.532   4.576  15.210
 8399TIP3   OH246611   2.684   4.599  13.837
 8399TIP3    H146612   2.679   4.625  13.745
 8399TIP3    H246613   2.777   4.585  13.853
 8400TIP3   OH246614   3.015   4.789  15.571
 8400TIP3    H146615   3.089   4.754  15.521
 8400TIP3    H246616   2.981   4.714  15.620
 8401TIP3   OH246617   3.582   4.788  13.785
 8401TIP3    H146618   3.581   4.766  13.692
 8401TIP3    H246619   3.575   4.883  13.787
 8402TIP3   OH246620   2.528   4.295  15.352
 8402TIP3    H146621   2.546   4.232  15.282
 8402TIP3    H246622   2.512   4.378  15.307
 8403TIP3   OH246623   2.569   4.147  15.115
 8403TIP3    H146624   2.622   4.192  15.050
 8403TIP3    H246625   2.483   4.138  15.074
 8404TIP3   OH246626   2.674   4.678  15.164
 8404TIP3    H146627   2.767   4.668  15.144
 8404TIP3    H246628   2.644   4.748  15.106
 8405TIP3   OH246629   3.150   4.443  15.584
 8405TIP3    H146630   3.148   4.368  15.644
 8405TIP3    H246631   3.243   4.450  15.559
 8406TIP3   OH246632   3.270   4.741  15.448
 8406TIP3    H146633   3.249   4.819  15.397
 8406TIP3    H246634   3.366   4.739  15.449
 8407TIP3   OH246635   2.371   4.365  15.573
 8407TIP3    H146636   2.297   4.308  15.554
 8407TIP3    H246637   2.427   4.359  15.496
 8408TIP3   OH246638   2.633   3.876  15.092
 8408TIP3    H146639   2.618   3.965  15.124
 8408TIP3    H246640   2.645   3.885  14.998
 8409TIP3   OH246641   2.756   4.298  15.513
 8409TIP3    H146642   2.741   4.246  15.592
 8409TIP3    H246643   2.676   4.287  15.462
 8410TIP3   OH246644   3.000   4.199  15.423
 8410TIP3    H146645   2.915   4.232  15.453
 8410TIP3    H246646   3.004   4.109  15.457
 8411TIP3   OH246647   3.246   4.049  15.628
 8411TIP3    H146648   3.204   3.968  15.601
 8411TIP3    H246649   3.174   4.103  15.663
 8412TIP3   OH246650   2.200   4.150  15.525
 8412TIP3    H146651   2.187   4.099  15.445
 8412TIP3    H246652   2.235   4.087  15.588
 8413TIP3   OH246653   2.629   3.736  15.378
 8413TIP3    H146654   2.710   3.688  15.393
 8413TIP3    H246655   2.625   3.799  15.451
 8414TIP3   OH246656   2.611   3.913  15.612
 8414TIP3    H146657   2.705   3.914  15.598
 8414TIP3    H246658   2.588   4.005  15.625
 8415TIP3   OH246659   2.674   5.658  13.981
 8415TIP3    H146660   2.764   5.630  13.969
 8415TIP3    H246661   2.658   5.721  13.910
 8416TIP3   OH246662   2.026   5.122  13.884
 8416TIP3    H146663   2.121   5.120  13.898
 8416TIP3    H246664   2.010   5.053  13.820
 8417TIP3   OH246665   1.894   5.624  14.417
 8417TIP3    H146666   1.840   5.593  14.344
 8417TIP3    H246667   1.914   5.545  14.467
 8418TIP3   OH246668   1.959   5.403  14.571
 8418TIP3    H146669   1.916   5.330  14.616
 8418TIP3    H246670   2.006   5.449  14.641
 8419TIP3   OH246671   3.723   5.496  14.901
 8419TIP3    H146672   3.720   5.509  14.995
 8419TIP3    H246673   3.796   5.551  14.872
 8420TIP3   OH246674   3.661   5.475  15.177
 8420TIP3    H146675   3.610   5.402  15.142
 8420TIP3    H246676   3.712   5.436  15.249
 8421TIP3   OH246677   3.521   5.056  15.683
 8421TIP3    H146678   3.437   5.068  15.728
 8421TIP3    H246679   3.569   5.137  15.701
 8422TIP3   OH246680   3.654   4.898  14.193
 8422TIP3    H146681   3.727   4.959  14.189
 8422TIP3    H246682   3.677   4.837  14.263
 8423TIP3   OH246683   3.703   4.696  14.381
 8423TIP3    H146684   3.633   4.640  14.414
 8423TIP3    H246685   3.763   4.707  14.454
 8424TIP3   OH246686   3.697   4.991  14.896
 8424TIP3    H146687   3.752   4.927  14.851
 8424TIP3    H246688   3.722   5.075  14.858
 8425TIP3   OH246689   3.500   5.260  15.094
 8425TIP3    H146690   3.426   5.309  15.131
 8425TIP3    H246691   3.474   5.244  15.003
 8426TIP3   OH246692   3.719   4.701  14.006
 8426TIP3    H146693   3.674   4.721  13.924
 8426TIP3    H246694   3.693   4.772  14.065
 8427TIP3   OH246695   3.541   4.407  13.833
 8427TIP3    H146696   3.531   4.463  13.756
 8427TIP3    H246697   3.517   4.320  13.802
 8428TIP3   OH246698   3.486   4.514  14.441
 8428TIP3    H146699   3.489   4.452  14.368
 8428TIP3    H246700   3.402   4.558  14.432
 8429TIP3   OH246701   1.961   4.709  14.853
 8429TIP3    H146702   1.978   4.716  14.759
 8429TIP3    H246703   2.047   4.716  14.894
 8430TIP3   OH246704   3.550   4.754  15.439
 8430TIP3    H146705   3.606   4.680  15.416
 8430TIP3    H246706   3.585   4.828  15.390
 8431TIP3   OH246707   3.689   4.523  15.394
 8431TIP3    H146708   3.602   4.484  15.398
 8431TIP3    H246709   3.749   4.453  15.421
 8432TIP3   OH246710   3.470   4.160  13.749
 8432TIP3    H146711   3.514   4.097  13.807
 8432TIP3    H246712   3.383   4.123  13.735
 8433TIP3   OH246713   3.464   4.326  14.241
 8433TIP3    H146714   3.484   4.233  14.247
 8433TIP3    H246715   3.529   4.360  14.179
 8434TIP3   OH246716   3.480   4.315  14.849
 8434TIP3    H146717   3.550   4.252  14.861
 8434TIP3    H246718   3.473   4.360  14.933
 8435TIP3   OH246719   3.502   4.453  15.087
 8435TIP3    H146720   3.425   4.488  15.131
 8435TIP3    H246721   3.558   4.529  15.073
 8436TIP3   OH246722   1.935   4.249  15.462
 8436TIP3    H146723   2.003   4.252  15.394
 8436TIP3    H246724   1.879   4.176  15.436
 8437TIP3   OH246725   3.746   3.873  15.599
 8437TIP3    H146726   3.811   3.808  15.570
 8437TIP3    H246727   3.747   3.940  15.531
 8438TIP3   OH246728   3.501   4.056  14.279
 8438TIP3    H146729   3.520   4.011  14.361
 8438TIP3    H246730   3.438   3.999  14.235
 8439TIP3   OH246731   2.050   4.122  14.755
 8439TIP3    H146732   2.090   4.035  14.743
 8439TIP3    H246733   2.124   4.182  14.756
 8440TIP3   OH246734   1.874   4.436  14.816
 8440TIP3    H146735   1.941   4.413  14.751
 8440TIP3    H246736   1.892   4.528  14.837
 8441TIP3   OH246737   3.675   4.053  15.397
 8441TIP3    H146738   3.590   4.095  15.406
 8441TIP3    H246739   3.660   3.982  15.335
 8442TIP3   OH246740   3.655   4.029  13.927
 8442TIP3    H146741   3.700   3.977  13.860
 8442TIP3    H246742   3.720   4.094  13.954
 8443TIP3   OH246743   1.904   4.089  14.265
 8443TIP3    H146744   1.812   4.067  14.250
 8443TIP3    H246745   1.931   4.137  14.186
 8444TIP3   OH246746   3.403   5.555  14.450
 8444TIP3    H146747   3.468   5.545  14.381
 8444TIP3    H246748   3.441   5.620  14.510
 8445TIP3   OH246749   1.919   3.948  15.099
 8445TIP3    H146750   1.846   3.897  15.134
 8445TIP3    H246751   1.882   3.995  15.024
 8446TIP3   OH246752   2.133   5.225  15.496
 8446TIP3    H146753   2.048   5.260  15.467
 8446TIP3    H246754   2.148   5.267  15.581
 8447TIP3   OH246755   2.456   5.368  15.120
 8447TIP3    H146756   2.425   5.454  15.092
 8447TIP3    H246757   2.549   5.368  15.098
 8448TIP3   OH246758   2.830   5.484  15.397
 8448TIP3    H146759   2.846   5.457  15.488
 8448TIP3    H246760   2.908   5.534  15.373
 8449TIP3   OH246761   3.063   5.623  15.357
 8449TIP3    H146762   3.132   5.587  15.302
 8449TIP3    H246763   3.108   5.653  15.436
 8450TIP3   OH246764   3.582   3.831  15.240
 8450TIP3    H146765   3.502   3.832  15.188
 8450TIP3    H246766   3.619   3.745  15.225
 8451TIP3   OH246767   2.146   5.640  15.139
 8451TIP3    H146768   2.071   5.680  15.097
 8451TIP3    H246769   2.159   5.691  15.219
 8452TIP3   OH246770   2.408   5.628  15.047
 8452TIP3    H146771   2.316   5.640  15.070
 8452TIP3    H246772   2.418   5.674  14.963
 8453TIP3   OH246773   2.863   5.603  14.952
 8453TIP3    H146774   2.817   5.640  14.877
 8453TIP3    H246775   2.878   5.678  15.010
 8454TIP3   OH246776   3.090   5.477  15.048
 8454TIP3    H146777   3.012   5.518  15.010
 8454TIP3    H246778   3.162   5.537  15.025
 8455TIP3   OH246779   3.333   5.626  15.036
 8455TIP3    H146780   3.354   5.718  15.021
 8455TIP3    H246781   3.373   5.579  14.962
 8456TIP3   OH246782   2.108   5.516  14.789
 8456TIP3    H146783   2.106   5.471  14.874
 8456TIP3    H246784   2.187   5.482  14.746
 8457TIP3   OH246785   2.325   5.391  14.686
 8457TIP3    H146786   2.315   5.301  14.717
 8457TIP3    H246787   2.414   5.415  14.713
 8458TIP3   OH246788   2.589   5.419  14.788
 8458TIP3    H146789   2.599   5.330  14.755
 8458TIP3    H246790   2.623   5.415  14.878
 8459TIP3   OH246791   2.925   3.989  14.691
 8459TIP3    H146792   2.859   3.920  14.699
 8459TIP3    H246793   2.996   3.948  14.643
 8460TIP3   OH246794   3.400   3.872  14.700
 8460TIP3    H146795   3.465   3.893  14.633
 8460TIP3    H246796   3.319   3.859  14.651
 8461TIP3   OH246797   3.592   3.934  14.514
 8461TIP3    H146798   3.660   3.874  14.482
 8461TIP3    H246799   3.640   4.015  14.534
 8462TIP3   OH246800   2.146   3.851  14.441
 8462TIP3    H146801   2.056   3.838  14.413
 8462TIP3    H246802   2.189   3.767  14.426
 8463TIP3   OH246803   2.080   3.869  14.055
 8463TIP3    H146804   2.132   3.911  13.986
 8463TIP3    H246805   2.031   3.941  14.096
 8464TIP3   OH246806   2.638   3.821  14.456
 8464TIP3    H146807   2.706   3.865  14.405
 8464TIP3    H246808   2.671   3.822  14.546
 8465TIP3   OH246809   3.144   3.852  14.579
 8465TIP3    H146810   3.164   3.831  14.488
 8465TIP3    H246811   3.121   3.768  14.619
 8466TIP3   OH246812   3.303   3.889  14.180
 8466TIP3    H146813   3.224   3.944  14.189
 8466TIP3    H246814   3.271   3.800  14.188
 8467TIP3   OH246815   2.028   5.486  14.111
 8467TIP3    H146816   1.956   5.481  14.048
 8467TIP3    H246817   2.056   5.577  14.109
 8468TIP3   OH246818   2.247   4.009  13.875
 8468TIP3    H146819   2.298   3.955  13.814
 8468TIP3    H246820   2.312   4.045  13.935
 8469TIP3   OH246821   2.704   4.093  14.122
 8469TIP3    H146822   2.738   4.014  14.164
 8469TIP3    H246823   2.732   4.165  14.178
 8470TIP3   OH246824   2.928   5.554  13.960
 8470TIP3    H146825   3.021   5.574  13.947
 8470TIP3    H246826   2.904   5.504  13.882
 8471TIP3   OH246827   3.591   5.524  14.249
 8471TIP3    H146828   3.574   5.436  14.216
 8471TIP3    H246829   3.574   5.582  14.175
 8472TIP3   OH246830   2.145   3.897  15.390
 8472TIP3    H146831   2.088   3.826  15.420
 8472TIP3    H246832   2.228   3.882  15.435
 8473TIP3   OH246833   2.351   3.844  15.558
 8473TIP3    H146834   2.445   3.856  15.569
 8473TIP3    H246835   2.333   3.757  15.594
 8474TIP3   OH246836   2.226   5.521  13.803
 8474TIP3    H146837   2.204   5.520  13.897
 8474TIP3    H246838   2.302   5.464  13.795
 8475TIP3   OH246839   3.230   3.769  15.573
 8475TIP3    H146840   3.217   3.736  15.662
 8475TIP3    H246841   3.325   3.771  15.561
 8476TIP3   OH246842   3.487   5.403  15.445
 8476TIP3    H146843   3.430   5.398  15.368
 8476TIP3    H246844   3.489   5.496  15.466
 8477TIP3   OH246845   4.896   4.819  14.441
 8477TIP3    H146846   4.815   4.858  14.474
 8477TIP3    H246847   4.870   4.778  14.359
 8478TIP3   OH246848   4.850   4.718  14.816
 8478TIP3    H146849   4.866   4.666  14.895
 8478TIP3    H246850   4.805   4.659  14.756
 8479TIP3   OH246851   4.064   4.646  14.951
 8479TIP3    H146852   4.071   4.571  15.010
 8479TIP3    H246853   4.153   4.662  14.921
 8480TIP3   OH246854   5.168   4.993  14.654
 8480TIP3    H146855   5.164   4.921  14.717
 8480TIP3    H246856   5.208   5.065  14.703
 8481TIP3   OH246857   4.202   5.129  14.761
 8481TIP3    H146858   4.170   5.042  14.738
 8481TIP3    H246859   4.297   5.119  14.768
 8482TIP3   OH246860   3.840   4.457  14.296
 8482TIP3    H146861   3.812   4.547  14.314
 8482TIP3    H246862   3.787   4.430  14.221
 8483TIP3   OH246863   3.903   4.701  14.576
 8483TIP3    H146864   3.939   4.614  14.592
 8483TIP3    H246865   3.979   4.758  14.566
 8484TIP3   OH246866   4.950   5.524  14.655
 8484TIP3    H146867   4.993   5.450  14.611
 8484TIP3    H246868   4.897   5.483  14.723
 8485TIP3   OH246869   4.687   4.965  14.820
 8485TIP3    H146870   4.727   4.883  14.791
 8485TIP3    H246871   4.751   5.004  14.879
 8486TIP3   OH246872   5.578   4.103  14.917
 8486TIP3    H146873   5.593   4.173  14.981
 8486TIP3    H246874   5.637   4.124  14.845
 8487TIP3   OH246875   5.004   4.381  14.838
 8487TIP3    H146876   5.025   4.288  14.850
 8487TIP3    H246877   4.991   4.391  14.744
 8488TIP3   OH246878   4.350   4.192  14.570
 8488TIP3    H146879   4.353   4.277  14.525
 8488TIP3    H246880   4.299   4.136  14.512
 8489TIP3   OH246881   5.129   4.223  14.413
 8489TIP3    H146882   5.174   4.188  14.490
 8489TIP3    H246883   5.198   4.262  14.359
 8490TIP3   OH246884   3.994   4.447  14.644
 8490TIP3    H146885   4.055   4.402  14.702
 8490TIP3    H246886   4.013   4.412  14.557
 8491TIP3   OH246887   4.459   4.588  14.626
 8491TIP3    H146888   4.546   4.554  14.647
 8491TIP3    H246889   4.423   4.524  14.565
 8492TIP3   OH246890   5.604   4.261  15.148
 8492TIP3    H146891   5.538   4.325  15.123
 8492TIP3    H246892   5.565   4.214  15.222
 8493TIP3   OH246893   4.228   4.086  14.991
 8493TIP3    H146894   4.167   4.148  14.950
 8493TIP3    H246895   4.171   4.020  15.031
 8494TIP3   OH246896   4.938   5.089  14.318
 8494TIP3    H146897   4.911   5.072  14.228
 8494TIP3    H246898   4.889   5.168  14.343
 8495TIP3   OH246899   4.469   4.881  14.971
 8495TIP3    H146900   4.415   4.952  15.007
 8495TIP3    H246901   4.534   4.926  14.917
 8496TIP3   OH246902   5.237   4.169  14.656
 8496TIP3    H146903   5.179   4.130  14.722
 8496TIP3    H246904   5.296   4.225  14.707
 8497TIP3   OH246905   4.174   4.276  14.774
 8497TIP3    H146906   4.234   4.321  14.834
 8497TIP3    H246907   4.231   4.235  14.709
 8498TIP3   OH246908   4.320   5.086  15.085
 8498TIP3    H146909   4.326   5.180  15.070
 8498TIP3    H246910   4.228   5.071  15.109
 8499TIP3   OH246911   3.882   5.062  14.163
 8499TIP3    H146912   3.877   5.097  14.074
 8499TIP3    H246913   3.907   5.137  14.217
 8500TIP3   OH246914   5.266   5.216  14.829
 8500TIP3    H146915   5.173   5.218  14.854
 8500TIP3    H246916   5.289   5.308  14.813
 8501TIP3   OH246917   5.314   4.029  15.006
 8501TIP3    H146918   5.244   4.057  14.947
 8501TIP3    H246919   5.395   4.047  14.958
 8502TIP3   OH246920   4.574   3.802  14.737
 8502TIP3    H146921   4.549   3.709  14.736
 8502TIP3    H246922   4.493   3.848  14.762
 8503TIP3   OH246923   5.103   5.366  14.478
 8503TIP3    H146924   5.129   5.278  14.450
 8503TIP3    H246925   5.185   5.412  14.491
 8504TIP3   OH246926   5.237   5.136  14.383
 8504TIP3    H146927   5.242   5.111  14.290
 8504TIP3    H246928   5.328   5.154  14.407
 8505TIP3   OH246929   5.376   5.022  15.228
 8505TIP3    H146930   5.367   4.961  15.155
 8505TIP3    H246931   5.382   5.108  15.188
 8506TIP3   OH246932   4.818   4.721  14.195
 8506TIP3    H146933   4.747   4.783  14.173
 8506TIP3    H246934   4.848   4.689  14.110
 8507TIP3   OH246935   4.826   4.593  13.926
 8507TIP3    H146936   4.918   4.599  13.952
 8507TIP3    H246937   4.826   4.529  13.855
 8508TIP3   OH246938   5.536   4.667  15.019
 8508TIP3    H146939   5.472   4.738  15.016
 8508TIP3    H246940   5.604   4.695  14.957
 8509TIP3   OH246941   5.166   4.769  14.312
 8509TIP3    H146942   5.088   4.713  14.322
 8509TIP3    H246943   5.239   4.712  14.337
 8510TIP3   OH246944   5.150   4.566  15.165
 8510TIP3    H146945   5.177   4.657  15.155
 8510TIP3    H246946   5.069   4.560  15.114
 8511TIP3   OH246947   4.328   4.785  14.472
 8511TIP3    H146948   4.297   4.751  14.388
 8511TIP3    H246949   4.376   4.712  14.511
 8512TIP3   OH246950   4.482   5.146  14.727
 8512TIP3    H146951   4.474   5.153  14.631
 8512TIP3    H246952   4.556   5.086  14.740
 8513TIP3   OH246953   4.321   4.682  14.847
 8513TIP3    H146954   4.372   4.655  14.771
 8513TIP3    H246955   4.375   4.749  14.889
 8514TIP3   OH246956   5.012   5.230  14.918
 8514TIP3    H146957   4.989   5.305  14.972
 8514TIP3    H246958   4.963   5.157  14.956
 8515TIP3   OH246959   4.476   5.108  15.312
 8515TIP3    H146960   4.417   5.169  15.356
 8515TIP3    H246961   4.430   5.084  15.231
 8516TIP3   OH246962   5.069   4.663  14.039
 8516TIP3    H146963   5.107   4.711  14.113
 8516TIP3    H246964   5.112   4.699  13.962
 8517TIP3   OH246965   4.137   4.702  15.286
 8517TIP3    H146966   4.143   4.791  15.321
 8517TIP3    H246967   4.052   4.699  15.242
 8518TIP3   OH246968   4.826   5.329  14.386
 8518TIP3    H146969   4.897   5.379  14.428
 8518TIP3    H246970   4.788   5.391  14.323
 8519TIP3   OH246971   4.278   5.289  15.381
 8519TIP3    H146972   4.281   5.321  15.291
 8519TIP3    H246973   4.184   5.283  15.401
 8520TIP3   OH246974   5.420   3.806  14.043
 8520TIP3    H146975   5.332   3.830  14.073
 8520TIP3    H246976   5.456   3.887  14.008
 8521TIP3   OH246977   4.233   4.698  14.223
 8521TIP3    H146978   4.180   4.764  14.179
 8521TIP3    H246979   4.195   4.615  14.195
 8522TIP3   OH246980   5.567   5.266  13.906
 8522TIP3    H146981   5.581   5.360  13.892
 8522TIP3    H246982   5.652   5.226  13.890
 8523TIP3   OH246983   3.839   4.949  15.136
 8523TIP3    H146984   3.789   4.960  15.055
 8523TIP3    H246985   3.852   4.855  15.145
 8524TIP3   OH246986   3.807   5.240  14.820
 8524TIP3    H146987   3.893   5.244  14.863
 8524TIP3    H246988   3.762   5.319  14.849
 8525TIP3   OH246989   5.648   5.331  15.413
 8525TIP3    H146990   5.642   5.238  15.393
 8525TIP3    H246991   5.560   5.354  15.444
 8526TIP3   OH246992   4.720   5.230  15.265
 8526TIP3    H146993   4.715   5.316  15.307
 8526TIP3    H246994   4.634   5.191  15.280
 8527TIP3   OH246995   4.813   5.591  14.241
 8527TIP3    H146996   4.790   5.588  14.148
 8527TIP3    H246997   4.769   5.669  14.274
 8528TIP3   OH246998   4.141   5.477  14.431
 8528TIP3    H146999   4.155   5.443  14.519
 8528TIP3    H247000   4.083   5.413  14.390
 8529TIP3   OH247001   5.093   5.550  13.936
 8529TIP3    H147002   5.136   5.477  13.890
 8529TIP3    H247003   5.104   5.530  14.029
 8530TIP3   OH247004   5.077   5.522  14.220
 8530TIP3    H147005   4.983   5.544  14.225
 8530TIP3    H247006   5.087   5.446  14.278
 8531TIP3   OH247007   5.281   4.441  15.414
 8531TIP3    H147008   5.241   4.436  15.327
 8531TIP3    H247009   5.294   4.350  15.440
 8532TIP3   OH247010   4.065   5.097  15.191
 8532TIP3    H147011   4.086   5.062  15.277
 8532TIP3    H247012   3.985   5.051  15.165
 8533TIP3   OH247013   4.324   3.905  14.807
 8533TIP3    H147014   4.243   3.895  14.757
 8533TIP3    H247015   4.306   3.975  14.869
 8534TIP3   OH247016   4.806   3.891  15.169
 8534TIP3    H147017   4.850   3.837  15.234
 8534TIP3    H247018   4.712   3.881  15.189
 8535TIP3   OH247019   5.101   4.285  15.255
 8535TIP3    H147020   5.033   4.261  15.318
 8535TIP3    H247021   5.069   4.367  15.216
 8536TIP3   OH247022   5.213   4.775  13.845
 8536TIP3    H147023   5.178   4.765  13.756
 8536TIP3    H247024   5.308   4.780  13.833
 8537TIP3   OH247025   4.757   4.100  13.901
 8537TIP3    H147026   4.694   4.105  13.973
 8537TIP3    H247027   4.715   4.042  13.837
 8538TIP3   OH247028   4.331   4.424  14.955
 8538TIP3    H147029   4.263   4.420  15.022
 8538TIP3    H247030   4.328   4.514  14.922
 8539TIP3   OH247031   4.331   4.433  14.436
 8539TIP3    H147032   4.236   4.418  14.429
 8539TIP3    H247033   4.364   4.418  14.348
 8540TIP3   OH247034   4.871   4.481  14.326
 8540TIP3    H147035   4.841   4.559  14.280
 8540TIP3    H247036   4.947   4.451  14.275
 8541TIP3   OH247037   4.800   4.476  15.439
 8541TIP3    H147038   4.745   4.405  15.471
 8541TIP3    H247039   4.885   4.461  15.481
 8542TIP3   OH247040   4.986   4.406  14.565
 8542TIP3    H147041   4.935   4.448  14.496
 8542TIP3    H247042   5.028   4.331  14.521
 8543TIP3   OH247043   4.115   4.428  15.124
 8543TIP3    H147044   4.117   4.469  15.211
 8543TIP3    H247045   4.073   4.344  15.138
 8544TIP3   OH247046   4.439   4.176  13.790
 8544TIP3    H147047   4.403   4.163  13.877
 8544TIP3    H247048   4.379   4.237  13.747
 8545TIP3   OH247049   3.740   4.168  14.539
 8545TIP3    H147050   3.814   4.160  14.598
 8545TIP3    H247051   3.777   4.154  14.452
 8546TIP3   OH247052   3.831   4.221  14.030
 8546TIP3    H147053   3.901   4.256  13.975
 8546TIP3    H247054   3.771   4.295  14.042
 8547TIP3   OH247055   4.910   4.549  15.026
 8547TIP3    H147056   4.943   4.490  14.958
 8547TIP3    H247057   4.849   4.495  15.076
 8548TIP3   OH247058   4.640   4.163  14.533
 8548TIP3    H147059   4.548   4.160  14.562
 8548TIP3    H247060   4.688   4.118  14.601
 8549TIP3   OH247061   4.071   4.342  14.404
 8549TIP3    H147062   3.994   4.366  14.352
 8549TIP3    H247063   4.090   4.252  14.378
 8550TIP3   OH247064   4.402   4.367  14.179
 8550TIP3    H147065   4.496   4.354  14.187
 8550TIP3    H247066   4.390   4.405  14.092
 8551TIP3   OH247067   5.038   4.104  14.858
 8551TIP3    H147068   4.989   4.110  14.940
 8551TIP3    H247069   4.980   4.058  14.798
 8552TIP3   OH247070   4.350   4.461  13.926
 8552TIP3    H147071   4.296   4.429  13.854
 8552TIP3    H247072   4.422   4.506  13.883
 8553TIP3   OH247073   5.363   5.668  15.497
 8553TIP3    H147074   5.386   5.710  15.414
 8553TIP3    H247075   5.437   5.688  15.555
 8554TIP3   OH247076   4.120   4.946  15.428
 8554TIP3    H147077   4.189   4.944  15.494
 8554TIP3    H247078   4.039   4.952  15.478
 8555TIP3   OH247079   4.707   4.486  14.718
 8555TIP3    H147080   4.760   4.424  14.667
 8555TIP3    H247081   4.673   4.434  14.791
 8556TIP3   OH247082   4.180   4.079  14.372
 8556TIP3    H147083   4.126   4.004  14.397
 8556TIP3    H247084   4.222   4.052  14.290
 8557TIP3   OH247085   4.599   4.355  14.937
 8557TIP3    H147086   4.507   4.378  14.950
 8557TIP3    H247087   4.638   4.366  15.024
 8558TIP3   OH247088   4.617   4.910  14.137
 8558TIP3    H147089   4.546   4.870  14.087
 8558TIP3    H247090   4.580   4.927  14.223
 8559TIP3   OH247091   5.343   4.870  14.995
 8559TIP3    H147092   5.406   4.920  14.943
 8559TIP3    H247093   5.276   4.843  14.933
 8560TIP3   OH247094   5.004   4.184  13.975
 8560TIP3    H147095   4.915   4.162  13.945
 8560TIP3    H247096   5.027   4.263  13.926
 8561TIP3   OH247097   4.832   4.961  15.283
 8561TIP3    H147098   4.794   4.912  15.355
 8561TIP3    H247099   4.790   5.047  15.287
 8562TIP3   OH247100   5.096   4.429  14.183
 8562TIP3    H147101   5.178   4.381  14.176
 8562TIP3    H247102   5.091   4.481  14.103
 8563TIP3   OH247103   4.164   4.859  14.681
 8563TIP3    H147104   4.217   4.846  14.602
 8563TIP3    H247105   4.199   4.797  14.744
 8564TIP3   OH247106   4.837   5.054  14.062
 8564TIP3    H147107   4.805   5.144  14.062
 8564TIP3    H247108   4.760   5.000  14.079
 8565TIP3   OH247109   3.862   4.682  15.224
 8565TIP3    H147110   3.835   4.640  15.307
 8565TIP3    H247111   3.797   4.652  15.160
 8566TIP3   OH247112   4.578   4.657  15.459
 8566TIP3    H147113   4.513   4.622  15.398
 8566TIP3    H247114   4.659   4.610  15.437
 8567TIP3   OH247115   5.005   5.230  15.260
 8567TIP3    H147116   4.911   5.232  15.241
 8567TIP3    H247117   5.011   5.241  15.354
 8568TIP3   OH247118   5.536   4.431  14.078
 8568TIP3    H147119   5.494   4.415  13.993
 8568TIP3    H247120   5.563   4.523  14.074
 8569TIP3   OH247121   5.622   5.057  15.350
 8569TIP3    H147122   5.533   5.049  15.315
 8569TIP3    H247123   5.679   5.034  15.276
 8570TIP3   OH247124   5.405   5.252  14.126
 8570TIP3    H147125   5.347   5.177  14.110
 8570TIP3    H247126   5.462   5.255  14.050
 8571TIP3   OH247127   5.139   4.767  14.814
 8571TIP3    H147128   5.044   4.754  14.807
 8571TIP3    H247129   5.177   4.693  14.767
 8572TIP3   OH247130   4.410   5.209  14.462
 8572TIP3    H147131   4.433   5.295  14.427
 8572TIP3    H247132   4.315   5.204  14.450
 8573TIP3   OH247133   3.983   4.667  13.926
 8573TIP3    H147134   4.027   4.739  13.972
 8573TIP3    H247135   3.891   4.676  13.951
 8574TIP3   OH247136   4.520   4.966  14.386
 8574TIP3    H147137   4.491   5.054  14.409
 8574TIP3    H247138   4.452   4.909  14.420
 8575TIP3   OH247139   4.605   5.386  15.040
 8575TIP3    H147140   4.659   5.461  15.018
 8575TIP3    H247141   4.661   5.330  15.094
 8576TIP3   OH247142   4.408   5.473  14.361
 8576TIP3    H147143   4.315   5.488  14.375
 8576TIP3    H247144   4.451   5.552  14.392
 8577TIP3   OH247145   4.893   4.992  15.010
 8577TIP3    H147146   4.871   4.976  15.101
 8577TIP3    H247147   4.932   4.909  14.980
 8578TIP3   OH247148   5.194   5.102  13.912
 8578TIP3    H147149   5.205   5.047  13.989
 8578TIP3    H247150   5.112   5.072  13.872
 8579TIP3   OH247151   5.207   5.419  15.225
 8579TIP3    H147152   5.126   5.369  15.218
 8579TIP3    H247153   5.194   5.494  15.166
 8580TIP3   OH247154   5.603   5.539  13.913
 8580TIP3    H147155   5.631   5.598  13.842
 8580TIP3    H247156   5.529   5.584  13.954
 8581TIP3   OH247157   3.995   4.188  15.185
 8581TIP3    H147158   3.902   4.187  15.163
 8581TIP3    H247159   4.014   4.099  15.213
 8582TIP3   OH247160   5.280   4.985  14.155
 8582TIP3    H147161   5.239   4.904  14.185
 8582TIP3    H247162   5.373   4.963  14.149
 8583TIP3   OH247163   4.001   5.360  15.029
 8583TIP3    H147164   4.029   5.281  15.077
 8583TIP3    H247165   4.015   5.432  15.091
 8584TIP3   OH247166   4.564   5.191  13.772
 8584TIP3    H147167   4.566   5.110  13.721
 8584TIP3    H247168   4.513   5.169  13.850
 8585TIP3   OH247169   4.433   5.168  14.016
 8585TIP3    H147170   4.490   5.117  14.074
 8585TIP3    H247171   4.446   5.259  14.043
 8586TIP3   OH247172   4.080   4.880  14.082
 8586TIP3    H147173   4.008   4.929  14.123
 8586TIP3    H247174   4.125   4.946  14.029
 8587TIP3   OH247175   4.903   4.136  15.102
 8587TIP3    H147176   4.973   4.146  15.166
 8587TIP3    H247177   4.862   4.052  15.123
 8588TIP3   OH247178   4.978   4.074  14.230
 8588TIP3    H147179   4.984   4.116  14.144
 8588TIP3    H247180   5.023   4.133  14.289
 8589TIP3   OH247181   4.741   5.307  14.072
 8589TIP3    H147182   4.655   5.345  14.090
 8589TIP3    H247183   4.774   5.358  13.998
 8590TIP3   OH247184   4.659   4.301  14.292
 8590TIP3    H147185   4.734   4.361  14.299
 8590TIP3    H247186   4.651   4.263  14.380
 8591TIP3   OH247187   4.759   4.373  15.168
 8591TIP3    H147188   4.766   4.389  15.262
 8591TIP3    H247189   4.795   4.285  15.156
 8592TIP3   OH247190   4.744   3.971  14.341
 8592TIP3    H147191   4.720   4.041  14.401
 8592TIP3    H247192   4.826   3.999  14.301
 8593TIP3   OH247193   4.494   5.422  14.104
 8593TIP3    H147194   4.497   5.507  14.058
 8593TIP3    H247195   4.460   5.443  14.191
 8594TIP3   OH247196   4.331   4.123  14.045
 8594TIP3    H147197   4.324   4.206  14.091
 8594TIP3    H247198   4.417   4.089  14.068
 8595TIP3   OH247199   5.341   4.153  15.257
 8595TIP3    H147200   5.255   4.196  15.261
 8595TIP3    H247201   5.339   4.104  15.175
 8596TIP3   OH247202   5.217   4.540  14.666
 8596TIP3    H147203   5.138   4.494  14.638
 8596TIP3    H247204   5.266   4.475  14.716
 8597TIP3   OH247205   4.181   5.088  13.925
 8597TIP3    H147206   4.255   5.137  13.962
 8597TIP3    H247207   4.219   5.035  13.855
 8598TIP3   OH247208   3.969   4.394  13.869
 8598TIP3    H147209   3.988   4.485  13.893
 8598TIP3    H247210   3.948   4.397  13.776
 8599TIP3   OH247211   5.340   5.488  14.837
 8599TIP3    H147212   5.316   5.566  14.786
 8599TIP3    H247213   5.433   5.501  14.858
 8600TIP3   OH247214   4.060   3.886  14.712
 8600TIP3    H147215   4.052   3.873  14.617
 8600TIP3    H247216   4.027   3.804  14.749
 8601TIP3   OH247217   3.950   5.303  14.311
 8601TIP3    H147218   3.887   5.331  14.378
 8601TIP3    H247219   3.936   5.364  14.239
 8602TIP3   OH247220   3.928   5.584  15.520
 8602TIP3    H147221   3.990   5.565  15.591
 8602TIP3    H247222   3.906   5.498  15.484
 8603TIP3   OH247223   4.347   5.392  15.628
 8603TIP3    H147224   4.425   5.341  15.650
 8603TIP3    H247225   4.324   5.362  15.540
 8604TIP3   OH247226   4.769   5.373  13.777
 8604TIP3    H147227   4.698   5.308  13.774
 8604TIP3    H247228   4.842   5.330  13.732
 8605TIP3   OH247229   5.013   5.258  15.535
 8605TIP3    H147230   4.993   5.175  15.578
 8605TIP3    H247231   5.086   5.294  15.585
 8606TIP3   OH247232   5.211   5.349  13.793
 8606TIP3    H147233   5.221   5.264  13.836
 8606TIP3    H247234   5.279   5.350  13.725
 8607TIP3   OH247235   3.874   4.935  15.572
 8607TIP3    H147236   3.888   4.842  15.553
 8607TIP3    H247237   3.809   4.963  15.508
 8608TIP3   OH247238   4.315   4.911  13.768
 8608TIP3    H147239   4.343   4.862  13.845
 8608TIP3    H247240   4.395   4.923  13.717
 8609TIP3   OH247241   4.545   4.933  15.516
 8609TIP3    H147242   4.526   4.977  15.432
 8609TIP3    H247243   4.562   4.842  15.492
 8610TIP3   OH247244   4.950   5.034  13.806
 8610TIP3    H147245   4.901   5.031  13.889
 8610TIP3    H247246   4.930   4.951  13.763
 8611TIP3   OH247247   5.107   4.928  15.299
 8611TIP3    H147248   5.131   4.997  15.236
 8611TIP3    H247249   5.011   4.935  15.305
 8612TIP3   OH247250   3.964   4.680  15.518
 8612TIP3    H147251   4.036   4.660  15.457
 8612TIP3    H247252   3.999   4.656  15.604
 8613TIP3   OH247253   4.420   4.777  13.996
 8613TIP3    H147254   4.367   4.721  14.053
 8613TIP3    H247255   4.466   4.716  13.939
 8614TIP3   OH247256   4.381   4.561  15.278
 8614TIP3    H147257   4.300   4.612  15.274
 8614TIP3    H247258   4.437   4.598  15.211
 8615TIP3   OH247259   4.557   4.612  13.825
 8615TIP3    H147260   4.566   4.628  13.731
 8615TIP3    H247261   4.646   4.598  13.856
 8616TIP3   OH247262   4.891   4.780  15.563
 8616TIP3    H147263   4.975   4.736  15.554
 8616TIP3    H247264   4.839   4.721  15.618
 8617TIP3   OH247265   5.480   4.800  13.778
 8617TIP3    H147266   5.478   4.774  13.685
 8617TIP3    H247267   5.473   4.895  13.776
 8618TIP3   OH247268   4.431   4.298  15.341
 8618TIP3    H147269   4.436   4.239  15.265
 8618TIP3    H247270   4.414   4.384  15.303
 8619TIP3   OH247271   4.465   4.145  15.108
 8619TIP3    H147272   4.516   4.176  15.034
 8619TIP3    H247273   4.378   4.125  15.071
 8620TIP3   OH247274   4.569   4.672  15.118
 8620TIP3    H147275   4.656   4.654  15.083
 8620TIP3    H247276   4.538   4.748  15.068
 8621TIP3   OH247277   5.023   4.423  15.615
 8621TIP3    H147278   5.016   4.348  15.674
 8621TIP3    H247279   5.116   4.427  15.592
 8622TIP3   OH247280   5.179   4.717  15.474
 8622TIP3    H147281   5.127   4.746  15.398
 8622TIP3    H247282   5.210   4.630  15.450
 8623TIP3   OH247283   4.270   4.351  15.568
 8623TIP3    H147284   4.190   4.301  15.551
 8623TIP3    H247285   4.318   4.347  15.485
 8624TIP3   OH247286   4.532   3.882  15.183
 8624TIP3    H147287   4.505   3.971  15.161
 8624TIP3    H247288   4.471   3.826  15.136
 8625TIP3   OH247289   4.645   4.262  15.509
 8625TIP3    H147290   4.600   4.237  15.589
 8625TIP3    H247291   4.576   4.267  15.443
 8626TIP3   OH247292   4.907   4.194  15.418
 8626TIP3    H147293   4.820   4.193  15.457
 8626TIP3    H247294   4.962   4.145  15.479
 8627TIP3   OH247295   5.096   4.077  15.590
 8627TIP3    H147296   5.092   3.981  15.592
 8627TIP3    H247297   5.063   4.104  15.675
 8628TIP3   OH247298   4.054   4.182  15.538
 8628TIP3    H147299   4.053   4.122  15.464
 8628TIP3    H247300   4.062   4.125  15.615
 8629TIP3   OH247301   4.517   3.791  15.440
 8629TIP3    H147302   4.568   3.711  15.432
 8629TIP3    H247303   4.513   3.827  15.351
 8630TIP3   OH247304   4.582   3.952  15.655
 8630TIP3    H147305   4.567   3.895  15.580
 8630TIP3    H247306   4.525   4.026  15.641
 8631TIP3   OH247307   4.562   5.667  13.989
 8631TIP3    H147308   4.653   5.640  13.973
 8631TIP3    H247309   4.542   5.726  13.916
 8632TIP3   OH247310   3.912   5.124  13.885
 8632TIP3    H147311   4.007   5.121  13.899
 8632TIP3    H247312   3.895   5.055  13.820
 8633TIP3   OH247313   3.781   5.624  14.420
 8633TIP3    H147314   3.726   5.593  14.348
 8633TIP3    H247315   3.800   5.546  14.472
 8634TIP3   OH247316   3.847   5.405  14.576
 8634TIP3    H147317   3.809   5.329  14.620
 8634TIP3    H247318   3.894   5.452  14.646
 8635TIP3   OH247319   5.598   5.584  14.860
 8635TIP3    H147320   5.596   5.607  14.953
 8635TIP3    H247321   5.690   5.567  14.841
 8636TIP3   OH247322   5.538   5.493  15.154
 8636TIP3    H147323   5.496   5.412  15.125
 8636TIP3    H247324   5.602   5.464  15.220
 8637TIP3   OH247325   5.359   5.049  15.633
 8637TIP3    H147326   5.296   5.052  15.706
 8637TIP3    H247327   5.419   5.122  15.650
 8638TIP3   OH247328   5.545   4.919  14.174
 8638TIP3    H147329   5.627   4.968  14.170
 8638TIP3    H247330   5.554   4.864  14.252
 8639TIP3   OH247331   5.564   4.741  14.376
 8639TIP3    H147332   5.500   4.672  14.394
 8639TIP3    H247333   5.645   4.694  14.357
 8640TIP3   OH247334   5.578   4.978  14.886
 8640TIP3    H147335   5.632   4.909  14.847
 8640TIP3    H247336   5.617   5.059  14.852
 8641TIP3   OH247337   5.385   5.258  15.089
 8641TIP3    H147338   5.316   5.312  15.128
 8641TIP3    H247339   5.354   5.241  15.000
 8642TIP3   OH247340   5.589   4.698  14.005
 8642TIP3    H147341   5.547   4.722  13.923
 8642TIP3    H247342   5.569   4.770  14.064
 8643TIP3   OH247343   5.435   4.396  13.825
 8643TIP3    H147344   5.419   4.456  13.752
 8643TIP3    H247345   5.413   4.310  13.791
 8644TIP3   OH247346   5.338   4.570  14.409
 8644TIP3    H147347   5.339   4.483  14.369
 8644TIP3    H247348   5.308   4.555  14.498
 8645TIP3   OH247349   3.842   4.760  14.840
 8645TIP3    H147350   3.853   4.745  14.746
 8645TIP3    H247351   3.925   4.730  14.879
 8646TIP3   OH247352   5.479   4.781  15.409
 8646TIP3    H147353   5.487   4.690  15.437
 8646TIP3    H247354   5.550   4.793  15.346
 8647TIP3   OH247355   5.537   4.523  15.475
 8647TIP3    H147356   5.458   4.483  15.439
 8647TIP3    H247357   5.603   4.455  15.470
 8648TIP3   OH247358   5.368   4.145  13.727
 8648TIP3    H147359   5.400   4.096  13.803
 8648TIP3    H247360   5.275   4.123  13.721
 8649TIP3   OH247361   5.351   4.321  14.259
 8649TIP3    H147362   5.376   4.228  14.263
 8649TIP3    H247363   5.411   4.359  14.195
 8650TIP3   OH247364   5.372   4.356  14.812
 8650TIP3    H147365   5.464   4.367  14.790
 8650TIP3    H247366   5.368   4.367  14.907
 8651TIP3   OH247367   5.397   4.440  15.080
 8651TIP3    H147368   5.312   4.473  15.106
 8651TIP3    H247369   5.448   4.518  15.058
 8652TIP3   OH247370   3.812   4.288  15.462
 8652TIP3    H147371   3.902   4.263  15.479
 8652TIP3    H247372   3.764   4.206  15.453
 8653TIP3   OH247373   5.612   3.876  15.593
 8653TIP3    H147374   5.681   3.811  15.581
 8653TIP3    H247375   5.627   3.940  15.523
 8654TIP3   OH247376   5.403   4.049  14.271
 8654TIP3    H147377   5.418   4.007  14.356
 8654TIP3    H247378   5.334   3.997  14.231
 8655TIP3   OH247379   3.929   4.128  14.748
 8655TIP3    H147380   3.968   4.040  14.743
 8655TIP3    H247381   4.003   4.187  14.760
 8656TIP3   OH247382   3.738   4.467  14.751
 8656TIP3    H147383   3.823   4.454  14.709
 8656TIP3    H247384   3.759   4.487  14.842
 8657TIP3   OH247385   5.566   4.055  15.379
 8657TIP3    H147386   5.480   4.096  15.378
 8657TIP3    H247387   5.556   3.977  15.324
 8658TIP3   OH247388   5.534   4.026  13.922
 8658TIP3    H147389   5.582   3.973  13.859
 8658TIP3    H247390   5.598   4.089  13.955
 8659TIP3   OH247391   3.788   4.092  14.271
 8659TIP3    H147392   3.698   4.066  14.254
 8659TIP3    H247393   3.816   4.135  14.190
 8660TIP3   OH247394   5.332   5.533  14.472
 8660TIP3    H147395   5.364   5.524  14.383
 8660TIP3    H247396   5.263   5.599  14.466
 8661TIP3   OH247397   3.783   3.929  15.070
 8661TIP3    H147398   3.720   3.906  15.138
 8661TIP3    H247399   3.761   3.873  14.996
 8662TIP3   OH247400   4.015   5.281  15.473
 8662TIP3    H147401   3.924   5.281  15.442
 8662TIP3    H247402   4.008   5.258  15.565
 8663TIP3   OH247403   4.341   5.364  15.116
 8663TIP3    H147404   4.308   5.450  15.090
 8663TIP3    H247405   4.435   5.366  15.096
 8664TIP3   OH247406   4.720   5.479  15.391
 8664TIP3    H147407   4.731   5.450  15.482
 8664TIP3    H247408   4.798   5.531  15.373
 8665TIP3   OH247409   4.952   5.624  15.362
 8665TIP3    H147410   5.025   5.580  15.317
 8665TIP3    H247411   4.991   5.657  15.443
 8666TIP3   OH247412   5.472   3.827  15.231
 8666TIP3    H147413   5.390   3.830  15.182
 8666TIP3    H247414   5.502   3.737  15.220
 8667TIP3   OH247415   4.036   5.647  15.136
 8667TIP3    H147416   3.959   5.686  15.095
 8667TIP3    H247417   4.046   5.696  15.218
 8668TIP3   OH247418   4.296   5.627  15.046
 8668TIP3    H147419   4.205   5.637  15.073
 8668TIP3    H247420   4.302   5.674  14.963
 8669TIP3   OH247421   4.749   5.606  14.950
 8669TIP3    H147422   4.694   5.645  14.882
 8669TIP3    H247423   4.762   5.677  15.013
 8670TIP3   OH247424   4.973   5.476  15.040
 8670TIP3    H147425   4.895   5.520  15.007
 8670TIP3    H247426   5.042   5.542  15.032
 8671TIP3   OH247427   5.207   5.628  15.040
 8671TIP3    H147428   5.235   5.719  15.028
 8671TIP3    H247429   5.253   5.579  14.972
 8672TIP3   OH247430   3.998   5.514  14.796
 8672TIP3    H147431   3.994   5.467  14.880
 8672TIP3    H247432   4.075   5.479  14.753
 8673TIP3   OH247433   4.213   5.392  14.686
 8673TIP3    H147434   4.201   5.300  14.712
 8673TIP3    H247435   4.301   5.413  14.716
 8674TIP3   OH247436   4.478   5.419  14.790
 8674TIP3    H147437   4.485   5.330  14.757
 8674TIP3    H247438   4.509   5.414  14.880
 8675TIP3   OH247439   4.797   3.990  14.690
 8675TIP3    H147440   4.735   3.919  14.705
 8675TIP3    H247441   4.872   3.948  14.648
 8676TIP3   OH247442   5.295   3.857  14.711
 8676TIP3    H147443   5.355   3.898  14.650
 8676TIP3    H247444   5.208   3.872  14.674
 8677TIP3   OH247445   5.479   3.920  14.507
 8677TIP3    H147446   5.548   3.862  14.475
 8677TIP3    H247447   5.524   4.002  14.526
 8678TIP3   OH247448   4.032   3.851  14.438
 8678TIP3    H147449   3.941   3.835  14.414
 8678TIP3    H247450   4.076   3.767  14.424
 8679TIP3   OH247451   3.960   3.866  14.047
 8679TIP3    H147452   4.014   3.910  13.981
 8679TIP3    H247453   3.919   3.937  14.096
 8680TIP3   OH247454   4.526   3.825  14.453
 8680TIP3    H147455   4.599   3.870  14.412
 8680TIP3    H247456   4.548   3.822  14.546
 8681TIP3   OH247457   5.035   3.875  14.594
 8681TIP3    H147458   5.048   3.865  14.500
 8681TIP3    H247459   5.010   3.787  14.624
 8682TIP3   OH247460   5.191   3.891  14.182
 8682TIP3    H147461   5.114   3.948  14.185
 8682TIP3    H247462   5.155   3.803  14.192
 8683TIP3   OH247463   3.915   5.485  14.108
 8683TIP3    H147464   3.843   5.481  14.046
 8683TIP3    H247465   3.943   5.577  14.108
 8684TIP3   OH247466   4.135   4.010  13.876
 8684TIP3    H147467   4.184   3.954  13.816
 8684TIP3    H247468   4.200   4.046  13.935
 8685TIP3   OH247469   4.592   4.092  14.126
 8685TIP3    H147470   4.624   4.015  14.173
 8685TIP3    H247471   4.620   4.166  14.179
 8686TIP3   OH247472   4.817   5.573  13.955
 8686TIP3    H147473   4.912   5.587  13.945
 8686TIP3    H247474   4.793   5.518  13.881
 8687TIP3   OH247475   5.455   5.503  14.231
 8687TIP3    H147476   5.437   5.417  14.193
 8687TIP3    H247477   5.442   5.564  14.159
 8688TIP3   OH247478   4.050   3.953  15.387
 8688TIP3    H147479   3.996   3.875  15.377
 8688TIP3    H247480   4.134   3.920  15.420
 8689TIP3   OH247481   4.260   3.847  15.544
 8689TIP3    H147482   4.344   3.820  15.506
 8689TIP3    H247483   4.223   3.766  15.579
 8690TIP3   OH247484   4.113   5.520  13.803
 8690TIP3    H147485   4.089   5.514  13.896
 8690TIP3    H247486   4.190   5.463  13.795
 8691TIP3   OH247487   5.103   3.799  15.585
 8691TIP3    H147488   5.093   3.750  15.666
 8691TIP3    H247489   5.195   3.788  15.561
 8692TIP3   OH247490   5.374   5.398  15.448
 8692TIP3    H147491   5.317   5.395  15.371
 8692TIP3    H247492   5.374   5.490  15.474
 8693TIP3   OH247493   6.835   4.802  14.427
 8693TIP3    H147494   6.820   4.897  14.422
 8693TIP3    H247495   6.775   4.765  14.362
 8694TIP3   OH247496   6.695   4.719  14.807
 8694TIP3    H147497   6.721   4.674  14.888
 8694TIP3    H247498   6.657   4.651  14.753
 8695TIP3   OH247499   5.966   4.675  14.993
 8695TIP3    H147500   5.971   4.586  15.027
 8695TIP3    H247501   6.046   4.685  14.941
 8696TIP3   OH247502   7.100   5.024  14.651
 8696TIP3    H147503   7.055   4.953  14.697
 8696TIP3    H247504   7.126   5.085  14.720
 8697TIP3   OH247505   6.073   5.138  14.769
 8697TIP3    H147506   6.053   5.050  14.738
 8697TIP3    H247507   6.168   5.136  14.784
 8698TIP3   OH247508   5.698   4.356  14.325
 8698TIP3    H147509   5.741   4.442  14.323
 8698TIP3    H247510   5.635   4.358  14.253
 8699TIP3   OH247511   5.845   4.699  14.599
 8699TIP3    H147512   5.855   4.606  14.618
 8699TIP3    H247513   5.839   4.703  14.503
 8700TIP3   OH247514   6.823   5.481  14.699
 8700TIP3    H147515   6.837   5.426  14.622
 8700TIP3    H247516   6.822   5.420  14.772
 8701TIP3   OH247517   6.563   4.969  14.830
 8701TIP3    H147518   6.598   4.887  14.795
 8701TIP3    H247519   6.635   5.007  14.880
 8702TIP3   OH247520   6.881   4.381  14.840
 8702TIP3    H147521   6.892   4.288  14.854
 8702TIP3    H247522   6.869   4.390  14.745
 8703TIP3   OH247523   6.240   4.196  14.567
 8703TIP3    H147524   6.242   4.282  14.524
 8703TIP3    H247525   6.196   4.139  14.505
 8704TIP3   OH247526   6.992   4.224  14.415
 8704TIP3    H147527   7.034   4.174  14.484
 8704TIP3    H247528   7.064   4.251  14.357
 8705TIP3   OH247529   5.874   4.431  14.651
 8705TIP3    H147530   5.942   4.389  14.705
 8705TIP3    H247531   5.891   4.400  14.562
 8706TIP3   OH247532   6.341   4.583  14.630
 8706TIP3    H147533   6.428   4.548  14.651
 8706TIP3    H247534   6.306   4.523  14.565
 8707TIP3   OH247535   6.091   4.111  14.996
 8707TIP3    H147536   6.068   4.166  14.920
 8707TIP3    H247537   6.018   4.122  15.056
 8708TIP3   OH247538   6.765   5.055  14.339
 8708TIP3    H147539   6.786   5.061  14.246
 8708TIP3    H247540   6.715   5.134  14.358
 8709TIP3   OH247541   6.358   4.876  14.989
 8709TIP3    H147542   6.304   4.950  15.019
 8709TIP3    H247543   6.425   4.916  14.934
 8710TIP3   OH247544   7.083   4.115  14.652
 8710TIP3    H147545   7.010   4.098  14.711
 8710TIP3    H247546   7.144   4.167  14.704
 8711TIP3   OH247547   6.068   4.273  14.772
 8711TIP3    H147548   6.126   4.327  14.825
 8711TIP3    H247549   6.124   4.238  14.703
 8712TIP3   OH247550   6.207   5.089  15.087
 8712TIP3    H147551   6.216   5.183  15.072
 8712TIP3    H247552   6.115   5.077  15.111
 8713TIP3   OH247553   5.783   5.065  14.147
 8713TIP3    H147554   5.777   5.095  14.056
 8713TIP3    H247555   5.833   5.133  14.191
 8714TIP3   OH247556   7.136   5.236  14.854
 8714TIP3    H147557   7.041   5.240  14.860
 8714TIP3    H247558   7.163   5.324  14.829
 8715TIP3   OH247559   7.135   4.036  14.967
 8715TIP3    H147560   7.044   4.044  14.937
 8715TIP3    H247561   7.181   4.107  14.922
 8716TIP3   OH247562   6.453   3.811  14.740
 8716TIP3    H147563   6.430   3.718  14.742
 8716TIP3    H247564   6.374   3.856  14.770
 8717TIP3   OH247565   6.907   5.344  14.473
 8717TIP3    H147566   6.953   5.263  14.453
 8717TIP3    H247567   6.977   5.409  14.483
 8718TIP3   OH247568   7.096   5.159  14.407
 8718TIP3    H147569   7.106   5.101  14.331
 8718TIP3    H247570   7.104   5.101  14.483
 8719TIP3   OH247571   7.232   4.986  15.257
 8719TIP3    H147572   7.239   4.930  15.180
 8719TIP3    H247573   7.245   5.075  15.224
 8720TIP3   OH247574   6.705   4.715  14.195
 8720TIP3    H147575   6.644   4.784  14.170
 8720TIP3    H247576   6.774   4.718  14.128
 8721TIP3   OH247577   6.736   4.568  13.865
 8721TIP3    H147578   6.796   4.601  13.933
 8721TIP3    H247579   6.792   4.515  13.808
 8722TIP3   OH247580   7.058   4.737  14.278
 8722TIP3    H147581   6.989   4.765  14.339
 8722TIP3    H247582   7.111   4.676  14.329
 8723TIP3   OH247583   6.996   4.576  15.178
 8723TIP3    H147584   7.005   4.665  15.211
 8723TIP3    H247585   6.920   4.579  15.120
 8724TIP3   OH247586   6.228   4.789  14.484
 8724TIP3    H147587   6.209   4.746  14.400
 8724TIP3    H247588   6.274   4.723  14.535
 8725TIP3   OH247589   6.358   5.150  14.739
 8725TIP3    H147590   6.357   5.155  14.643
 8725TIP3    H247591   6.431   5.091  14.759
 8726TIP3   OH247592   6.218   4.671  14.866
 8726TIP3    H147593   6.256   4.657  14.780
 8726TIP3    H247594   6.265   4.747  14.901
 8727TIP3   OH247595   6.863   5.263  14.901
 8727TIP3    H147596   6.858   5.320  14.978
 8727TIP3    H247597   6.834   5.177  14.933
 8728TIP3   OH247598   6.361   5.108  15.317
 8728TIP3    H147599   6.301   5.170  15.358
 8728TIP3    H247600   6.317   5.083  15.235
 8729TIP3   OH247601   6.940   4.670  14.040
 8729TIP3    H147602   6.983   4.699  14.120
 8729TIP3    H247603   6.993   4.707  13.969
 8730TIP3   OH247604   6.042   4.719  15.275
 8730TIP3    H147605   6.033   4.805  15.318
 8730TIP3    H247606   6.006   4.733  15.188
 8731TIP3   OH247607   6.650   5.312  14.385
 8731TIP3    H147608   6.736   5.323  14.426
 8731TIP3    H247609   6.642   5.388  14.327
 8732TIP3   OH247610   6.168   5.294  15.381
 8732TIP3    H147611   6.165   5.325  15.291
 8732TIP3    H247612   6.076   5.280  15.405
 8733TIP3   OH247613   6.133   4.704  14.207
 8733TIP3    H147614   6.105   4.784  14.163
 8733TIP3    H247615   6.060   4.680  14.263
 8734TIP3   OH247616   5.733   4.954  15.123
 8734TIP3    H147617   5.683   4.954  15.042
 8734TIP3    H247618   5.729   4.863  15.153
 8735TIP3   OH247619   5.757   5.200  14.816
 8735TIP3    H147620   5.842   5.164  14.789
 8735TIP3    H247621   5.777   5.251  14.895
 8736TIP3   OH247622   6.601   5.232  15.263
 8736TIP3    H147623   6.596   5.317  15.307
 8736TIP3    H247624   6.517   5.190  15.282
 8737TIP3   OH247625   6.672   5.571  14.248
 8737TIP3    H147626   6.667   5.581  14.152
 8737TIP3    H247627   6.670   5.661  14.281
 8738TIP3   OH247628   6.006   5.488  14.442
 8738TIP3    H147629   6.036   5.452  14.526
 8738TIP3    H247630   5.962   5.415  14.399
 8739TIP3   OH247631   6.972   5.533  13.932
 8739TIP3    H147632   7.016   5.460  13.888
 8739TIP3    H247633   6.974   5.508  14.025
 8740TIP3   OH247634   6.937   5.494  14.205
 8740TIP3    H147635   6.845   5.505  14.230
 8740TIP3    H247636   6.974   5.437  14.272
 8741TIP3   OH247637   7.162   4.484  15.442
 8741TIP3    H147638   7.165   4.471  15.347
 8741TIP3    H247639   7.240   4.440  15.475
 8742TIP3   OH247640   5.951   5.105  15.189
 8742TIP3    H147641   5.969   5.076  15.279
 8742TIP3    H247642   5.878   5.051  15.160
 8743TIP3   OH247643   6.204   3.915  14.829
 8743TIP3    H147644   6.129   3.907  14.771
 8743TIP3    H247645   6.182   3.986  14.889
 8744TIP3   OH247646   6.676   3.893  15.166
 8744TIP3    H147647   6.726   3.840  15.228
 8744TIP3    H247648   6.584   3.877  15.191
 8745TIP3   OH247649   7.011   4.292  15.251
 8745TIP3    H147650   6.942   4.272  15.315
 8745TIP3    H247651   6.997   4.384  15.229
 8746TIP3   OH247652   7.101   4.792  13.857
 8746TIP3    H147653   7.084   4.774  13.764
 8746TIP3    H247654   7.103   4.887  13.863
 8747TIP3   OH247655   6.631   4.120  13.897
 8747TIP3    H147656   6.574   4.114  13.974
 8747TIP3    H247657   6.596   4.054  13.837
 8748TIP3   OH247658   6.224   4.414  14.951
 8748TIP3    H147659   6.159   4.415  15.021
 8748TIP3    H247660   6.229   4.505  14.921
 8749TIP3   OH247661   6.210   4.435  14.432
 8749TIP3    H147662   6.116   4.418  14.428
 8749TIP3    H247663   6.240   4.424  14.341
 8750TIP3   OH247664   6.754   4.469  14.310
 8750TIP3    H147665   6.732   4.555  14.275
 8750TIP3    H247666   6.825   4.438  14.254
 8751TIP3   OH247667   6.685   4.479  15.434
 8751TIP3    H147668   6.635   4.406  15.469
 8751TIP3    H247669   6.772   4.470  15.472
 8752TIP3   OH247670   6.856   4.412  14.569
 8752TIP3    H147671   6.816   4.465  14.500
 8752TIP3    H247672   6.899   4.340  14.522
 8753TIP3   OH247673   5.999   4.426  15.117
 8753TIP3    H147674   6.052   4.447  15.194
 8753TIP3    H247675   5.955   4.344  15.140
 8754TIP3   OH247676   6.323   4.177  13.796
 8754TIP3    H147677   6.284   4.161  13.882
 8754TIP3    H247678   6.263   4.239  13.754
 8755TIP3   OH247679   5.636   4.143  14.531
 8755TIP3    H147680   5.701   4.151  14.600
 8755TIP3    H247681   5.661   4.209  14.466
 8756TIP3   OH247682   5.710   4.223  14.024
 8756TIP3    H147683   5.781   4.264  13.974
 8756TIP3    H247684   5.648   4.293  14.041
 8757TIP3   OH247685   6.768   4.554  15.017
 8757TIP3    H147686   6.813   4.498  14.954
 8757TIP3    H247687   6.718   4.494  15.073
 8758TIP3   OH247688   6.521   4.152  14.528
 8758TIP3    H147689   6.432   4.159  14.561
 8758TIP3    H247690   6.571   4.116  14.601
 8759TIP3   OH247691   5.960   4.312  14.418
 8759TIP3    H147692   5.876   4.316  14.371
 8759TIP3    H247693   5.997   4.228  14.393
 8760TIP3   OH247694   6.294   4.370  14.173
 8760TIP3    H147695   6.381   4.350  14.208
 8760TIP3    H247696   6.312   4.418  14.092
 8761TIP3   OH247697   6.881   4.101  14.854
 8761TIP3    H147698   6.843   4.112  14.942
 8761TIP3    H247699   6.810   4.064  14.802
 8762TIP3   OH247700   6.175   4.502  13.914
 8762TIP3    H147701   6.148   4.451  13.838
 8762TIP3    H247702   6.262   4.535  13.892
 8763TIP3   OH247703   7.247   5.689  15.495
 8763TIP3    H147704   7.258   5.779  15.463
 8763TIP3    H247705   7.336   5.657  15.508
 8764TIP3   OH247706   6.003   4.948  15.430
 8764TIP3    H147707   6.074   4.945  15.494
 8764TIP3    H247708   5.923   4.956  15.482
 8765TIP3   OH247709   6.584   4.470  14.714
 8765TIP3    H147710   6.657   4.426  14.671
 8765TIP3    H247711   6.560   4.411  14.786
 8766TIP3   OH247712   6.090   4.077  14.362
 8766TIP3    H147713   6.028   4.009  14.389
 8766TIP3    H247714   6.125   4.046  14.279
 8767TIP3   OH247715   6.486   4.326  14.940
 8767TIP3    H147716   6.399   4.364  14.949
 8767TIP3    H247717   6.530   4.349  15.022
 8768TIP3   OH247718   6.520   4.916  14.125
 8768TIP3    H147719   6.449   4.880  14.073
 8768TIP3    H247720   6.480   4.938  14.209
 8769TIP3   OH247721   7.179   4.851  15.007
 8769TIP3    H147722   7.254   4.834  14.950
 8769TIP3    H247723   7.103   4.844  14.949
 8770TIP3   OH247724   6.885   4.175  13.982
 8770TIP3    H147725   6.795   4.175  13.950
 8770TIP3    H247726   6.899   4.264  14.014
 8771TIP3   OH247727   6.731   4.966  15.265
 8771TIP3    H147728   6.708   4.919  15.345
 8771TIP3    H247729   6.686   5.050  15.272
 8772TIP3   OH247730   6.958   4.403  14.129
 8772TIP3    H147731   7.045   4.383  14.164
 8772TIP3    H247732   6.968   4.490  14.089
 8773TIP3   OH247733   6.039   4.887  14.668
 8773TIP3    H147734   6.109   4.861  14.608
 8773TIP3    H247735   5.969   4.824  14.651
 8774TIP3   OH247736   6.742   5.059  14.053
 8774TIP3    H147737   6.708   5.149  14.057
 8774TIP3    H247738   6.667   5.004  14.076
 8775TIP3   OH247739   5.706   4.719  15.262
 8775TIP3    H147740   5.758   4.685  15.335
 8775TIP3    H247741   5.686   4.642  15.208
 8776TIP3   OH247742   6.483   4.671  15.440
 8776TIP3    H147743   6.454   4.670  15.349
 8776TIP3    H247744   6.563   4.618  15.441
 8777TIP3   OH247745   6.882   5.252  15.248
 8777TIP3    H147746   6.789   5.242  15.232
 8777TIP3    H247747   6.890   5.252  15.344
 8778TIP3   OH247748   6.971   4.811  14.813
 8778TIP3    H147749   6.879   4.797  14.791
 8778TIP3    H247750   7.017   4.739  14.769
 8779TIP3   OH247751   6.308   5.219  14.471
 8779TIP3    H147752   6.347   5.299  14.438
 8779TIP3    H247753   6.220   5.217  14.433
 8780TIP3   OH247754   5.853   4.685  13.927
 8780TIP3    H147755   5.891   4.767  13.956
 8780TIP3    H247756   5.760   4.691  13.951
 8781TIP3   OH247757   6.379   4.979  14.348
 8781TIP3    H147758   6.377   5.062  14.395
 8781TIP3    H247759   6.331   4.919  14.404
 8782TIP3   OH247760   6.487   5.386  15.041
 8782TIP3    H147761   6.543   5.460  15.019
 8782TIP3    H247762   6.543   5.327  15.091
 8783TIP3   OH247763   6.278   5.492  14.357
 8783TIP3    H147764   6.185   5.504  14.377
 8783TIP3    H247765   6.321   5.571  14.389
 8784TIP3   OH247766   6.791   5.005  14.991
 8784TIP3    H147767   6.776   4.983  15.083
 8784TIP3    H247768   6.859   4.944  14.963
 8785TIP3   OH247769   7.057   5.062  13.931
 8785TIP3    H147770   7.085   5.046  14.021
 8785TIP3    H247771   6.962   5.067  13.936
 8786TIP3   OH247772   7.095   5.427  15.220
 8786TIP3    H147773   7.015   5.375  15.208
 8786TIP3    H247774   7.087   5.497  15.155
 8787TIP3   OH247775   5.875   4.177  15.167
 8787TIP3    H147776   5.785   4.208  15.155
 8787TIP3    H247777   5.867   4.101  15.224
 8788TIP3   OH247778   7.142   4.989  14.188
 8788TIP3    H147779   7.125   4.899  14.214
 8788TIP3    H247780   7.238   4.994  14.182
 8789TIP3   OH247781   5.870   5.355  15.034
 8789TIP3    H147782   5.906   5.279  15.080
 8789TIP3    H247783   5.887   5.429  15.092
 8790TIP3   OH247784   6.442   5.193  13.772
 8790TIP3    H147785   6.451   5.111  13.723
 8790TIP3    H247786   6.403   5.168  13.855
 8791TIP3   OH247787   6.324   5.168  14.025
 8791TIP3    H147788   6.386   5.120  14.080
 8791TIP3    H247789   6.338   5.260  14.048
 8792TIP3   OH247790   5.983   4.885  14.063
 8792TIP3    H147791   5.912   4.922  14.115
 8792TIP3    H247792   6.022   4.960  14.017
 8793TIP3   OH247793   6.787   4.136  15.109
 8793TIP3    H147794   6.850   4.152  15.180
 8793TIP3    H247795   6.745   4.053  15.133
 8794TIP3   OH247796   6.840   4.074  14.235
 8794TIP3    H147797   6.859   4.108  14.148
 8794TIP3    H247798   6.887   4.131  14.295
 8795TIP3   OH247799   6.621   5.302  14.066
 8795TIP3    H147800   6.539   5.343  14.090
 8795TIP3    H247801   6.663   5.365  14.007
 8796TIP3   OH247802   6.534   4.304  14.296
 8796TIP3    H147803   6.610   4.361  14.298
 8796TIP3    H247804   6.533   4.261  14.381
 8797TIP3   OH247805   6.637   4.371  15.172
 8797TIP3    H147806   6.652   4.398  15.262
 8797TIP3    H247807   6.683   4.287  15.164
 8798TIP3   OH247808   6.619   3.961  14.344
 8798TIP3    H147809   6.594   4.030  14.406
 8798TIP3    H247810   6.701   3.992  14.306
 8799TIP3   OH247811   6.376   5.427  14.105
 8799TIP3    H147812   6.383   5.511  14.061
 8799TIP3    H247813   6.344   5.449  14.193
 8800TIP3   OH247814   6.221   4.123  14.053
 8800TIP3    H147815   6.220   4.207  14.099
 8800TIP3    H247816   6.306   4.086  14.072
 8801TIP3   OH247817   7.243   4.127  15.212
 8801TIP3    H147818   7.186   4.189  15.257
 8801TIP3    H247819   7.196   4.104  15.132
 8802TIP3   OH247820   7.073   4.577  14.697
 8802TIP3    H147821   7.000   4.523  14.667
 8802TIP3    H247822   7.119   4.522  14.760
 8803TIP3   OH247823   6.074   5.103  13.921
 8803TIP3    H147824   6.150   5.145  13.962
 8803TIP3    H247825   6.111   5.047  13.853
 8804TIP3   OH247826   5.855   4.411  13.875
 8804TIP3    H147827   5.822   4.500  13.866
 8804TIP3    H247828   5.830   4.367  13.795
 8805TIP3   OH247829   7.232   5.509  14.828
 8805TIP3    H147830   7.214   5.575  14.760
 8805TIP3    H247831   7.327   5.497  14.825
 8806TIP3   OH247832   5.953   3.892  14.712
 8806TIP3    H147833   5.941   3.889  14.617
 8806TIP3    H247834   5.924   3.807  14.743
 8807TIP3   OH247835   5.842   5.308  14.307
 8807TIP3    H147836   5.754   5.273  14.326
 8807TIP3    H247837   5.828   5.368  14.234
 8808TIP3   OH247838   5.809   5.581  15.502
 8808TIP3    H147839   5.872   5.558  15.570
 8808TIP3    H247840   5.770   5.497  15.477
 8809TIP3   OH247841   6.237   5.398  15.628
 8809TIP3    H147842   6.312   5.343  15.652
 8809TIP3    H247843   6.213   5.368  15.541
 8810TIP3   OH247844   6.647   5.379  13.771
 8810TIP3    H147845   6.581   5.310  13.772
 8810TIP3    H247846   6.724   5.339  13.732
 8811TIP3   OH247847   6.880   5.267  15.525
 8811TIP3    H147848   6.859   5.180  15.560
 8811TIP3    H247849   6.957   5.295  15.575
 8812TIP3   OH247850   7.092   5.318  13.809
 8812TIP3    H147851   7.110   5.230  13.841
 8812TIP3    H247852   7.155   5.332  13.738
 8813TIP3   OH247853   5.750   4.918  15.557
 8813TIP3    H147854   5.768   4.829  15.527
 8813TIP3    H247855   5.701   4.958  15.485
 8814TIP3   OH247856   6.198   4.911  13.772
 8814TIP3    H147857   6.229   4.866  13.851
 8814TIP3    H247858   6.277   4.924  13.719
 8815TIP3   OH247859   6.427   4.938  15.524
 8815TIP3    H147860   6.413   4.983  15.441
 8815TIP3    H247861   6.457   4.851  15.499
 8816TIP3   OH247862   6.779   5.054  13.778
 8816TIP3    H147863   6.756   5.045  13.871
 8816TIP3    H247864   6.772   4.965  13.743
 8817TIP3   OH247865   6.991   4.846  15.281
 8817TIP3    H147866   7.065   4.904  15.266
 8817TIP3    H247867   6.914   4.901  15.268
 8818TIP3   OH247868   5.853   4.663  15.490
 8818TIP3    H147869   5.938   4.653  15.449
 8818TIP3    H247870   5.870   4.653  15.584
 8819TIP3   OH247871   6.314   4.783  13.996
 8819TIP3    H147872   6.274   4.735  14.069
 8819TIP3    H247873   6.366   4.716  13.950
 8820TIP3   OH247874   6.237   4.529  15.240
 8820TIP3    H147875   6.178   4.601  15.264
 8820TIP3    H247876   6.314   4.573  15.203
 8821TIP3   OH247877   6.444   4.587  13.854
 8821TIP3    H147878   6.441   4.612  13.761
 8821TIP3    H247879   6.537   4.570  13.871
 8822TIP3   OH247880   6.776   4.787  15.564
 8822TIP3    H147881   6.866   4.759  15.545
 8822TIP3    H247882   6.739   4.715  15.616
 8823TIP3   OH247883   6.311   4.286  15.343
 8823TIP3    H147884   6.325   4.225  15.270
 8823TIP3    H247885   6.294   4.371  15.300
 8824TIP3   OH247886   6.342   4.132  15.107
 8824TIP3    H147887   6.398   4.173  15.041
 8824TIP3    H247888   6.255   4.129  15.066
 8825TIP3   OH247889   6.455   4.674  15.154
 8825TIP3    H147890   6.543   4.656  15.121
 8825TIP3    H247891   6.422   4.745  15.098
 8826TIP3   OH247892   6.914   4.426  15.596
 8826TIP3    H147893   6.927   4.354  15.658
 8826TIP3    H247894   6.999   4.435  15.552
 8827TIP3   OH247895   7.046   4.723  15.520
 8827TIP3    H147896   7.035   4.769  15.437
 8827TIP3    H247897   7.087   4.640  15.495
 8828TIP3   OH247898   6.140   4.351  15.559
 8828TIP3    H147899   6.063   4.298  15.538
 8828TIP3    H247900   6.197   4.342  15.482
 8829TIP3   OH247901   6.396   3.867  15.175
 8829TIP3    H147902   6.377   3.957  15.153
 8829TIP3    H247903   6.329   3.815  15.130
 8830TIP3   OH247904   6.537   4.261  15.507
 8830TIP3    H147905   6.504   4.236  15.592
 8830TIP3    H247906   6.460   4.264  15.450
 8831TIP3   OH247907   6.800   4.197  15.403
 8831TIP3    H147908   6.714   4.201  15.445
 8831TIP3    H247909   6.857   4.159  15.470
 8832TIP3   OH247910   6.978   4.095  15.593
 8832TIP3    H147911   6.965   4.000  15.590
 8832TIP3    H247912   6.945   4.121  15.679
 8833TIP3   OH247913   5.934   4.166  15.515
 8833TIP3    H147914   5.937   4.095  15.450
 8833TIP3    H247915   5.944   4.122  15.599
 8834TIP3   OH247916   6.397   3.793  15.439
 8834TIP3    H147917   6.452   3.715  15.435
 8834TIP3    H247918   6.392   3.824  15.349
 8835TIP3   OH247919   6.465   3.955  15.655
 8835TIP3    H147920   6.450   3.901  15.577
 8835TIP3    H247921   6.409   4.032  15.642
 8836TIP3   OH247922   6.447   5.677  13.996
 8836TIP3    H147923   6.536   5.642  13.985
 8836TIP3    H247924   6.431   5.727  13.916
 8837TIP3   OH247925   5.806   5.131  13.875
 8837TIP3    H147926   5.901   5.130  13.886
 8837TIP3    H247927   5.789   5.062  13.811
 8838TIP3   OH247928   5.655   5.594  14.399
 8838TIP3    H147929   5.598   5.568  14.326
 8838TIP3    H247930   5.731   5.535  14.392
 8839TIP3   OH247931   5.669   5.414  14.636
 8839TIP3    H147932   5.665   5.324  14.669
 8839TIP3    H247933   5.750   5.449  14.673
 8840TIP3   OH247934   7.253   5.221  15.113
 8840TIP3    H147935   7.209   5.299  15.149
 8840TIP3    H247936   7.218   5.213  15.024
 8841TIP3   OH247937   7.187   4.556  14.441
 8841TIP3    H147938   7.204   4.463  14.452
 8841TIP3    H247939   7.165   4.587  14.529
 8842TIP3   OH247940   5.740   4.755  14.851
 8842TIP3    H147941   5.766   4.742  14.759
 8842TIP3    H247942   5.821   4.738  14.900
 8843TIP3   OH247943   7.238   4.139  13.787
 8843TIP3    H147944   7.271   4.049  13.783
 8843TIP3    H247945   7.146   4.133  13.762
 8844TIP3   OH247946   7.205   4.305  14.247
 8844TIP3    H147947   7.262   4.273  14.317
 8844TIP3    H247948   7.249   4.280  14.166
 8845TIP3   OH247949   7.255   4.240  14.828
 8845TIP3    H147950   7.338   4.207  14.792
 8845TIP3    H247951   7.272   4.332  14.845
 8846TIP3   OH247952   7.257   4.492  15.133
 8846TIP3    H147953   7.165   4.517  15.131
 8846TIP3    H247954   7.282   4.482  15.041
 8847TIP3   OH247955   5.692   4.294  15.473
 8847TIP3    H147956   5.783   4.267  15.482
 8847TIP3    H247957   5.644   4.213  15.455
 8848TIP3   OH247958   7.238   3.996  14.358
 8848TIP3    H147959   7.284   3.913  14.372
 8848TIP3    H247960   7.162   3.972  14.304
 8849TIP3   OH247961   5.816   4.130  14.752
 8849TIP3    H147962   5.856   4.044  14.744
 8849TIP3    H247963   5.890   4.190  14.760
 8850TIP3   OH247964   5.640   4.418  14.806
 8850TIP3    H147965   5.709   4.410  14.741
 8850TIP3    H247966   5.669   4.488  14.865
 8851TIP3   OH247967   5.689   4.017  14.206
 8851TIP3    H147968   5.596   4.023  14.230
 8851TIP3    H247969   5.705   4.096  14.153
 8852TIP3   OH247970   7.112   5.517  14.488
 8852TIP3    H147971   7.189   5.462  14.484
 8852TIP3    H247972   7.139   5.593  14.540
 8853TIP3   OH247973   5.680   3.877  15.041
 8853TIP3    H147974   5.611   3.866  15.107
 8853TIP3    H247975   5.652   3.953  14.989
 8854TIP3   OH247976   5.915   5.259  15.484
 8854TIP3    H147977   5.822   5.279  15.475
 8854TIP3    H247978   5.926   5.238  15.577
 8855TIP3   OH247979   6.223   5.366  15.113
 8855TIP3    H147980   6.195   5.455  15.089
 8855TIP3    H247981   6.317   5.366  15.096
 8856TIP3   OH247982   6.600   5.477  15.399
 8856TIP3    H147983   6.617   5.451  15.490
 8856TIP3    H247984   6.679   5.526  15.374
 8857TIP3   OH247985   6.832   5.618  15.350
 8857TIP3    H147986   6.891   5.568  15.294
 8857TIP3    H247987   6.885   5.644  15.425
 8858TIP3   OH247988   5.916   5.647  15.130
 8858TIP3    H147989   5.838   5.689  15.095
 8858TIP3    H247990   5.932   5.690  15.214
 8859TIP3   OH247991   6.179   5.630  15.045
 8859TIP3    H147992   6.087   5.640  15.069
 8859TIP3    H247993   6.188   5.676  14.962
 8860TIP3   OH247994   6.624   5.609  14.954
 8860TIP3    H147995   6.585   5.645  14.874
 8860TIP3    H247996   6.638   5.686  15.010
 8861TIP3   OH247997   6.849   5.492  15.058
 8861TIP3    H147998   6.774   5.532  15.013
 8861TIP3    H247999   6.923   5.549  15.035
 8862TIP3   OH248000   7.082   5.632  15.024
 8862TIP3    H148001   7.102   5.725  15.012
 8862TIP3    H248002   7.137   5.587  14.959
 8863TIP3   OH248003   5.874   5.514  14.800
 8863TIP3    H148004   5.872   5.471  14.885
 8863TIP3    H248005   5.954   5.482  14.758
 8864TIP3   OH248006   6.096   5.400  14.689
 8864TIP3    H148007   6.084   5.308  14.712
 8864TIP3    H248008   6.184   5.421  14.719
 8865TIP3   OH248009   6.359   5.423  14.793
 8865TIP3    H148010   6.368   5.334  14.760
 8865TIP3    H248011   6.394   5.419  14.882
 8866TIP3   OH248012   6.678   3.988  14.694
 8866TIP3    H148013   6.612   3.921  14.708
 8866TIP3    H248014   6.750   3.942  14.651
 8867TIP3   OH248015   7.169   3.832  14.662
 8867TIP3    H148016   7.209   3.917  14.642
 8867TIP3    H248017   7.075   3.848  14.658
 8868TIP3   OH248018   5.917   3.879  14.439
 8868TIP3    H148019   5.828   3.867  14.408
 8868TIP3    H248020   5.959   3.795  14.423
 8869TIP3   OH248021   5.854   3.841  14.068
 8869TIP3    H148022   5.897   3.899  14.006
 8869TIP3    H248023   5.796   3.898  14.119
 8870TIP3   OH248024   6.410   3.820  14.460
 8870TIP3    H148025   6.481   3.866  14.416
 8870TIP3    H248026   6.433   3.825  14.553
 8871TIP3   OH248027   6.894   3.848  14.592
 8871TIP3    H148028   6.918   3.831  14.501
 8871TIP3    H248029   6.869   3.763  14.628
 8872TIP3   OH248030   7.043   3.882  14.209
 8872TIP3    H148031   6.961   3.930  14.196
 8872TIP3    H248032   7.019   3.790  14.198
 8873TIP3   OH248033   5.785   5.495  14.120
 8873TIP3    H148034   5.721   5.491  14.049
 8873TIP3    H248035   5.823   5.582  14.112
 8874TIP3   OH248036   6.022   4.006  13.889
 8874TIP3    H148037   6.072   3.948  13.831
 8874TIP3    H248038   6.087   4.041  13.950
 8875TIP3   OH248039   6.482   4.090  14.129
 8875TIP3    H148040   6.516   4.015  14.179
 8875TIP3    H248041   6.507   4.166  14.182
 8876TIP3   OH248042   6.697   5.568  13.960
 8876TIP3    H148043   6.791   5.580  13.951
 8876TIP3    H248044   6.671   5.518  13.883
 8877TIP3   OH248045   5.930   3.911  15.379
 8877TIP3    H148046   5.873   3.845  15.420
 8877TIP3    H248047   6.016   3.896  15.418
 8878TIP3   OH248048   6.139   3.837  15.545
 8878TIP3    H148049   6.228   3.817  15.515
 8878TIP3    H248050   6.113   3.760  15.595
 8879TIP3   OH248051   6.004   5.520  13.801
 8879TIP3    H148052   5.988   5.514  13.895
 8879TIP3    H248053   6.080   5.463  13.786
 8880TIP3   OH248054   6.979   3.822  15.554
 8880TIP3    H148055   6.976   3.761  15.628
 8880TIP3    H248056   7.069   3.819  15.524
 8881TIP3   OH248057   7.201   5.407  15.475
 8881TIP3    H148058   7.170   5.392  15.385
 8881TIP3    H248059   7.228   5.498  15.477
 8882TIP3   OH248060   1.187   6.674  14.430
 8882TIP3    H148061   1.174   6.769  14.425
 8882TIP3    H248062   1.122   6.639  14.368
 8883TIP3   OH248063   1.082   6.585  14.807
 8883TIP3    H148064   1.101   6.547  14.892
 8883TIP3    H248065   1.030   6.519  14.762
 8884TIP3   OH248066   0.307   6.531  14.945
 8884TIP3    H148067   0.314   6.455  15.002
 8884TIP3    H248068   0.397   6.547  14.915
 8885TIP3   OH248069   1.457   6.903  14.640
 8885TIP3    H148070   1.414   6.830  14.686
 8885TIP3    H248071   1.477   6.967  14.709
 8886TIP3   OH248072   0.401   6.996  14.764
 8886TIP3    H148073   0.376   6.907  14.738
 8886TIP3    H248074   0.496   6.992  14.774
 8887TIP3   OH248075   0.129   6.377  14.297
 8887TIP3    H148076   0.113   6.470  14.280
 8887TIP3    H248077   0.057   6.332  14.251
 8888TIP3   OH248078   0.124   6.570  14.568
 8888TIP3    H148079   0.171   6.492  14.597
 8888TIP3    H248080   0.193   6.632  14.546
 8889TIP3   OH248081   0.901   6.843  14.823
 8889TIP3    H148082   0.931   6.777  14.760
 8889TIP3    H248083   0.977   6.859  14.878
 8890TIP3   OH248084   1.812   5.988  14.926
 8890TIP3    H148085   1.823   6.064  14.982
 8890TIP3    H248086   1.862   6.009  14.847
 8891TIP3   OH248087   1.232   6.268  14.840
 8891TIP3    H148088   1.250   6.175  14.850
 8891TIP3    H248089   1.216   6.280  14.747
 8892TIP3   OH248090   0.592   6.079  14.565
 8892TIP3    H148091   0.603   6.166  14.525
 8892TIP3    H248092   0.544   6.028  14.500
 8893TIP3   OH248093   1.355   6.115  14.416
 8893TIP3    H148094   1.400   6.082  14.494
 8893TIP3    H248095   1.425   6.153  14.362
 8894TIP3   OH248096   0.228   6.331  14.663
 8894TIP3    H148097   0.298   6.293  14.715
 8894TIP3    H248098   0.243   6.298  14.574
 8895TIP3   OH248099   0.703   6.478  14.629
 8895TIP3    H148100   0.790   6.445  14.652
 8895TIP3    H248101   0.671   6.417  14.563
 8896TIP3   OH248102   1.840   6.162  15.151
 8896TIP3    H148103   1.772   6.224  15.126
 8896TIP3    H248104   1.860   6.184  15.242
 8897TIP3   OH248105   0.434   6.003  15.001
 8897TIP3    H148106   0.413   6.059  14.925
 8897TIP3    H248107   0.362   6.020  15.062
 8898TIP3   OH248108   1.121   6.925  14.343
 8898TIP3    H148109   1.127   6.936  14.248
 8898TIP3    H248110   1.094   7.011  14.375
 8899TIP3   OH248111   0.695   6.762  14.987
 8899TIP3    H148112   0.643   6.834  15.022
 8899TIP3    H248113   0.762   6.803  14.933
 8900TIP3   OH248114   1.457   6.057  14.663
 8900TIP3    H148115   1.395   6.024  14.728
 8900TIP3    H248116   1.516   6.113  14.713
 8901TIP3   OH248117   0.427   6.163  14.772
 8901TIP3    H148118   0.485   6.217  14.825
 8901TIP3    H248119   0.483   6.129  14.702
 8902TIP3   OH248120   0.542   6.962  15.105
 8902TIP3    H148121   0.549   7.057  15.089
 8902TIP3    H248122   0.450   6.949  15.127
 8903TIP3   OH248123   0.103   6.922  14.157
 8903TIP3    H148124   0.103   6.943  14.064
 8903TIP3    H248125   0.133   7.001  14.200
 8904TIP3   OH248126   1.491   7.111  14.847
 8904TIP3    H148127   1.397   7.115  14.867
 8904TIP3    H248128   1.507   7.186  14.791
 8905TIP3   OH248129   1.556   5.884  15.011
 8905TIP3    H148130   1.484   5.927  14.965
 8905TIP3    H248131   1.635   5.914  14.966
 8906TIP3   OH248132   0.800   5.690  14.746
 8906TIP3    H148133   0.768   5.600  14.742
 8906TIP3    H248134   0.724   5.741  14.774
 8907TIP3   OH248135   1.336   7.259  14.456
 8907TIP3    H148136   1.354   7.170  14.426
 8907TIP3    H248137   1.419   7.290  14.492
 8908TIP3   OH248138   1.444   7.021  14.384
 8908TIP3    H148139   1.455   6.957  14.313
 8908TIP3    H248140   1.450   6.969  14.464
 8909TIP3   OH248141   1.619   6.861  15.209
 8909TIP3    H148142   1.601   6.813  15.128
 8909TIP3    H248143   1.627   6.952  15.181
 8910TIP3   OH248144   1.042   6.600  14.202
 8910TIP3    H148145   0.980   6.670  14.178
 8910TIP3    H248146   1.109   6.604  14.134
 8911TIP3   OH248147   1.077   6.459  13.872
 8911TIP3    H148148   1.135   6.491  13.941
 8911TIP3    H248149   1.133   6.402  13.819
 8912TIP3   OH248150   1.768   6.555  15.038
 8912TIP3    H148151   1.694   6.615  15.025
 8912TIP3    H248152   1.829   6.575  14.967
 8913TIP3   OH248153   1.407   6.614  14.279
 8913TIP3    H148154   1.339   6.635  14.342
 8913TIP3    H248155   1.473   6.566  14.330
 8914TIP3   OH248156   1.376   6.426  15.218
 8914TIP3    H148157   1.367   6.498  15.280
 8914TIP3    H248158   1.313   6.445  15.149
 8915TIP3   OH248159   0.545   6.664  14.475
 8915TIP3    H148160   0.523   6.629  14.389
 8915TIP3    H248161   0.609   6.602  14.511
 8916TIP3   OH248162   0.679   7.000  14.743
 8916TIP3    H148163   0.692   7.027  14.652
 8916TIP3    H248164   0.761   6.955  14.767
 8917TIP3   OH248165   0.561   6.570  14.845
 8917TIP3    H148166   0.614   6.547  14.769
 8917TIP3    H248167   0.612   6.637  14.890
 8918TIP3   OH248168   1.230   7.097  14.931
 8918TIP3    H148169   1.223   7.104  15.026
 8918TIP3    H248170   1.188   7.013  14.910
 8919TIP3   OH248171   0.718   6.997  15.320
 8919TIP3    H148172   0.655   7.058  15.358
 8919TIP3    H248173   0.675   6.963  15.242
 8920TIP3   OH248174   1.273   6.551  14.048
 8920TIP3    H148175   1.324   6.582  14.123
 8920TIP3    H248176   1.326   6.576  13.972
 8921TIP3   OH248177   0.385   6.602  15.256
 8921TIP3    H148178   0.387   6.675  15.317
 8921TIP3    H248179   0.331   6.633  15.183
 8922TIP3   OH248180   1.065   7.192  14.396
 8922TIP3    H148181   1.152   7.228  14.415
 8922TIP3    H248182   1.043   7.227  14.309
 8923TIP3   OH248183   0.510   7.173  15.358
 8923TIP3    H148184   0.514   7.210  15.270
 8923TIP3    H248185   0.422   7.194  15.389
 8924TIP3   OH248186   1.646   5.696  14.040
 8924TIP3    H148187   1.561   5.722  14.073
 8924TIP3    H248188   1.685   5.776  14.006
 8925TIP3   OH248189   0.466   6.576  14.221
 8925TIP3    H148190   0.417   6.645  14.176
 8925TIP3    H248191   0.430   6.494  14.186
 8926TIP3   OH248192   1.764   7.147  13.860
 8926TIP3    H148193   1.749   7.219  13.922
 8926TIP3    H248194   1.854   7.121  13.876
 8927TIP3   OH248195   0.183   6.769  15.116
 8927TIP3    H148196   0.152   6.756  15.027
 8927TIP3    H248197   0.130   6.710  15.170
 8928TIP3   OH248198   0.179   7.193  14.799
 8928TIP3    H148199   0.220   7.112  14.769
 8928TIP3    H248200   0.199   7.198  14.892
 8929TIP3   OH248201   1.889   7.166  15.433
 8929TIP3    H148202   1.873   7.074  15.412
 8929TIP3    H248203   1.801   7.203  15.447
 8930TIP3   OH248204   0.944   7.160  15.303
 8930TIP3    H148205   1.001   7.143  15.377
 8930TIP3    H248206   0.872   7.098  15.313
 8931TIP3   OH248207   1.549   6.310  15.430
 8931TIP3    H148208   1.492   6.349  15.363
 8931TIP3    H248209   1.560   6.219  15.402
 8932TIP3   OH248210   0.273   6.994  15.242
 8932TIP3    H148211   0.321   6.943  15.307
 8932TIP3    H248212   0.225   6.929  15.191
 8933TIP3   OH248213   0.553   5.804  14.836
 8933TIP3    H148214   0.480   5.795  14.775
 8933TIP3    H248215   0.528   5.877  14.893
 8934TIP3   OH248216   1.026   5.774  15.170
 8934TIP3    H148217   1.069   5.726  15.241
 8934TIP3    H248218   0.932   5.765  15.188
 8935TIP3   OH248219   1.325   6.152  15.241
 8935TIP3    H148220   1.260   6.140  15.310
 8935TIP3    H248221   1.329   6.247  15.228
 8936TIP3   OH248222   1.429   6.608  13.837
 8936TIP3    H148223   1.404   6.613  13.744
 8936TIP3    H248224   1.523   6.629  13.838
 8937TIP3   OH248225   0.982   6.002  13.903
 8937TIP3    H148226   0.919   6.003  13.974
 8937TIP3    H248227   0.945   5.941  13.839
 8938TIP3   OH248228   0.567   6.316  14.954
 8938TIP3    H148229   0.501   6.318  15.023
 8938TIP3    H248230   0.572   6.406  14.923
 8939TIP3   OH248231   0.585   6.322  14.438
 8939TIP3    H148232   0.490   6.311  14.437
 8939TIP3    H248233   0.612   6.308  14.348
 8940TIP3   OH248234   1.106   6.354  14.311
 8940TIP3    H148235   1.078   6.439  14.276
 8940TIP3    H248236   1.175   6.325  14.252
 8941TIP3   OH248237   1.028   6.356  15.425
 8941TIP3    H148238   0.979   6.284  15.464
 8941TIP3    H248239   1.114   6.353  15.466
 8942TIP3   OH248240   1.199   6.291  14.568
 8942TIP3    H148241   1.159   6.343  14.498
 8942TIP3    H248242   1.244   6.220  14.523
 8943TIP3   OH248243   0.345   6.319  15.123
 8943TIP3    H148244   0.348   6.374  15.201
 8943TIP3    H248245   0.303   6.238  15.151
 8944TIP3   OH248246   0.665   6.061  13.803
 8944TIP3    H148247   0.624   6.049  13.888
 8944TIP3    H248248   0.608   6.123  13.757
 8945TIP3   OH248249   0.056   6.094  14.472
 8945TIP3    H148250   0.099   6.079  14.557
 8945TIP3    H248251   0.089   6.025  14.415
 8946TIP3   OH248252   0.045   6.135  14.044
 8946TIP3    H148253   0.103   6.196  13.999
 8946TIP3    H248254  -0.003   6.091  13.974
 8947TIP3   OH248255   1.160   6.440  15.037
 8947TIP3    H148256   1.193   6.383  14.967
 8947TIP3    H248257   1.090   6.389  15.078
 8948TIP3   OH248258   0.873   6.037  14.526
 8948TIP3    H148259   0.782   6.042  14.558
 8948TIP3    H248260   0.922   6.004  14.601
 8949TIP3   OH248261   0.327   6.234  14.424
 8949TIP3    H148262   0.259   6.270  14.367
 8949TIP3    H248263   0.347   6.148  14.386
 8950TIP3   OH248264   0.633   6.252  14.178
 8950TIP3    H148265   0.728   6.243  14.185
 8950TIP3    H248266   0.620   6.293  14.092
 8951TIP3   OH248267   1.257   5.991  14.854
 8951TIP3    H148268   1.210   6.000  14.937
 8951TIP3    H248269   1.193   5.951  14.795
 8952TIP3   OH248270   0.579   6.350  13.929
 8952TIP3    H148271   0.529   6.320  13.854
 8952TIP3    H248272   0.658   6.389  13.891
 8953TIP3   OH248273   0.361   6.816  15.435
 8953TIP3    H148274   0.423   6.818  15.509
 8953TIP3    H248275   0.275   6.818  15.476
 8954TIP3   OH248276   0.938   6.354  14.719
 8954TIP3    H148277   1.007   6.309  14.670
 8954TIP3    H248278   0.911   6.290  14.786
 8955TIP3   OH248279   0.437   5.980  14.354
 8955TIP3    H148280   0.391   5.899  14.376
 8955TIP3    H248281   0.462   5.969  14.263
 8956TIP3   OH248282   0.822   6.208  14.942
 8956TIP3    H148283   0.739   6.256  14.948
 8956TIP3    H248284   0.874   6.241  15.016
 8957TIP3   OH248285   0.852   6.804  14.130
 8957TIP3    H148286   0.785   6.757  14.080
 8957TIP3    H248287   0.812   6.819  14.216
 8958TIP3   OH248288   1.568   6.731  14.970
 8958TIP3    H148289   1.630   6.787  14.922
 8958TIP3    H248290   1.495   6.719  14.909
 8959TIP3   OH248291   1.234   6.047  13.995
 8959TIP3    H148292   1.146   6.045  13.957
 8959TIP3    H248293   1.249   6.139  14.017
 8960TIP3   OH248294   1.034   6.800  15.251
 8960TIP3    H148295   1.051   6.767  15.339
 8960TIP3    H248296   1.077   6.885  15.248
 8961TIP3   OH248297   1.309   6.285  14.129
 8961TIP3    H148298   1.400   6.271  14.156
 8961TIP3    H248299   1.309   6.371  14.088
 8962TIP3   OH248300   0.378   6.727  14.684
 8962TIP3    H148301   0.429   6.721  14.603
 8962TIP3    H248302   0.427   6.675  14.747
 8963TIP3   OH248303   1.073   6.948  14.057
 8963TIP3    H148304   1.049   7.040  14.071
 8963TIP3    H248305   0.994   6.898  14.079
 8964TIP3   OH248306   0.060   6.580  15.268
 8964TIP3    H148307   0.096   6.551  15.352
 8964TIP3    H248308   0.029   6.499  15.227
 8965TIP3   OH248309   0.804   6.525  15.459
 8965TIP3    H148310   0.744   6.498  15.389
 8965TIP3    H248311   0.889   6.488  15.434
 8966TIP3   OH248312   1.174   7.040  15.202
 8966TIP3    H148313   1.097   7.094  15.222
 8966TIP3    H248314   1.247   7.088  15.240
 8967TIP3   OH248315   1.768   6.324  14.080
 8967TIP3    H148316   1.724   6.303  13.998
 8967TIP3    H248317   1.796   6.415  14.070
 8968TIP3   OH248318   1.842   6.900  15.374
 8968TIP3    H148319   1.750   6.901  15.350
 8968TIP3    H248320   1.888   6.880  15.293
 8969TIP3   OH248321   1.756   7.154  14.212
 8969TIP3    H148322   1.685   7.090  14.220
 8969TIP3    H248323   1.724   7.219  14.149
 8970TIP3   OH248324   1.355   6.672  14.786
 8970TIP3    H148325   1.261   6.660  14.774
 8970TIP3    H248326   1.395   6.598  14.740
 8971TIP3   OH248327   0.669   7.097  14.479
 8971TIP3    H148328   0.720   7.171  14.446
 8971TIP3    H248329   0.585   7.135  14.505
 8972TIP3   OH248330   0.194   6.583  13.896
 8972TIP3    H148331   0.248   6.638  13.953
 8972TIP3    H248332   0.107   6.624  13.900
 8973TIP3   OH248333   0.713   6.856  14.356
 8973TIP3    H148334   0.705   6.942  14.398
 8973TIP3    H248335   0.653   6.800  14.404
 8974TIP3   OH248336   0.825   7.246  14.996
 8974TIP3    H148337   0.894   7.313  15.000
 8974TIP3    H248338   0.852   7.180  15.060
 8975TIP3   OH248339   1.127   6.838  14.978
 8975TIP3    H148340   1.103   6.820  15.069
 8975TIP3    H248341   1.197   6.776  14.958
 8976TIP3   OH248342   1.412   6.981  13.937
 8976TIP3    H148343   1.430   6.934  14.019
 8976TIP3    H248344   1.324   6.951  13.911
 8977TIP3   OH248345   0.230   6.063  15.201
 8977TIP3    H148346   0.137   6.080  15.216
 8977TIP3    H248347   0.243   5.974  15.233
 8978TIP3   OH248348   1.504   6.847  14.168
 8978TIP3    H148349   1.465   6.765  14.200
 8978TIP3    H248350   1.598   6.829  14.165
 8979TIP3   OH248351   0.252   7.228  15.066
 8979TIP3    H148352   0.247   7.153  15.126
 8979TIP3    H248353   0.179   7.284  15.090
 8980TIP3   OH248354   0.813   7.052  13.767
 8980TIP3    H148355   0.813   6.971  13.715
 8980TIP3    H248356   0.778   7.025  13.852
 8981TIP3   OH248357   0.688   7.033  14.014
 8981TIP3    H148358   0.731   6.976  14.078
 8981TIP3    H248359   0.700   7.121  14.049
 8982TIP3   OH248360   0.315   6.759  14.077
 8982TIP3    H148361   0.242   6.804  14.118
 8982TIP3    H248362   0.361   6.827  14.028
 8983TIP3   OH248363   1.126   6.021  15.096
 8983TIP3    H148364   1.199   6.040  15.154
 8983TIP3    H248365   1.091   5.937  15.127
 8984TIP3   OH248366   1.209   5.946  14.249
 8984TIP3    H148367   1.214   5.982  14.161
 8984TIP3    H248368   1.252   6.011  14.304
 8985TIP3   OH248369   0.991   7.211  14.106
 8985TIP3    H148370   0.900   7.241  14.111
 8985TIP3    H248371   1.017   7.228  14.016
 8986TIP3   OH248372   0.888   6.186  14.290
 8986TIP3    H148373   0.963   6.246  14.294
 8986TIP3    H248374   0.884   6.147  14.377
 8987TIP3   OH248375   0.987   6.262  15.159
 8987TIP3    H148376   1.001   6.286  15.251
 8987TIP3    H248377   1.029   6.177  15.150
 8988TIP3   OH248378   0.968   5.848  14.341
 8988TIP3    H148379   0.941   5.919  14.399
 8988TIP3    H248380   1.053   5.875  14.307
 8989TIP3   OH248381   0.727  -0.007  14.091
 8989TIP3    H148382   0.709   0.046  14.013
 8989TIP3    H248383   0.698   0.048  14.164
 8990TIP3   OH248384   0.557   6.005  14.065
 8990TIP3    H148385   0.558   6.093  14.102
 8990TIP3    H248386   0.645   5.971  14.080
 8991TIP3   OH248387   1.576   6.066  15.292
 8991TIP3    H148388   1.484   6.079  15.272
 8991TIP3    H248389   1.619   6.062  15.207
 8992TIP3   OH248390   1.443   6.424  14.667
 8992TIP3    H148391   1.358   6.385  14.645
 8992TIP3    H248392   1.485   6.360  14.725
 8993TIP3   OH248393   0.415   6.973  13.923
 8993TIP3    H148394   0.484   7.029  13.959
 8993TIP3    H248395   0.461   6.917  13.860
 8994TIP3   OH248396   0.178   6.304  13.878
 8994TIP3    H148397   0.195   6.398  13.883
 8994TIP3    H248398   0.168   6.287  13.784
 8995TIP3   OH248399   0.306   5.779  14.710
 8995TIP3    H148400   0.311   5.767  14.615
 8995TIP3    H248401   0.271   5.696  14.743
 8996TIP3   OH248402   0.158   7.183  14.271
 8996TIP3    H148403   0.063   7.197  14.280
 8996TIP3    H248404   0.184   7.239  14.198
 8997TIP3   OH248405   0.590   7.219  15.663
 8997TIP3    H148406   0.635   7.152  15.713
 8997TIP3    H248407   0.648   7.239  15.590
 8998TIP3   OH248408   1.022   7.229  13.837
 8998TIP3    H148409   0.961   7.171  13.793
 8998TIP3    H248410   1.073   7.269  13.766
 8999TIP3   OH248411   1.140   7.118  15.488
 8999TIP3    H148412   1.150   7.044  15.549
 8999TIP3    H248413   1.228   7.136  15.457
 9000TIP3   OH248414   1.458   7.213  13.797
 9000TIP3    H148415   1.449   7.142  13.860
 9000TIP3    H248416   1.552   7.219  13.780
 9001TIP3   OH248417   0.091   6.818  15.514
 9001TIP3    H148418   0.099   6.723  15.508
 9001TIP3    H248419   0.034   6.842  15.441
 9002TIP3   OH248420   0.552   6.790  13.776
 9002TIP3    H148421   0.584   6.744  13.853
 9002TIP3    H248422   0.629   6.802  13.720
 9003TIP3   OH248423   0.771   6.803  15.514
 9003TIP3    H148424   0.768   6.854  15.433
 9003TIP3    H248425   0.799   6.715  15.486
 9004TIP3   OH248426   1.162   6.926  13.790
 9004TIP3    H148427   1.116   6.929  13.873
 9004TIP3    H248428   1.141   6.840  13.753
 9005TIP3   OH248429   1.346   6.822  15.267
 9005TIP3    H148430   1.436   6.852  15.258
 9005TIP3    H248431   1.292   6.897  15.241
 9006TIP3   OH248432   0.189   6.549  15.511
 9006TIP3    H148433   0.279   6.528  15.484
 9006TIP3    H248434   0.191   6.545  15.606
 9007TIP3   OH248435   0.658   6.657  13.999
 9007TIP3    H148436   0.607   6.606  14.062
 9007TIP3    H248437   0.707   6.592  13.949
 9008TIP3   OH248438   0.608   6.436  15.264
 9008TIP3    H148439   0.535   6.498  15.260
 9008TIP3    H248440   0.674   6.473  15.204
 9009TIP3   OH248441   0.802   6.483  13.842
 9009TIP3    H148442   0.797   6.508  13.750
 9009TIP3    H248443   0.895   6.467  13.858
 9010TIP3   OH248444   1.108   6.656  15.547
 9010TIP3    H148445   1.191   6.625  15.510
 9010TIP3    H248446   1.081   6.588  15.608
 9011TIP3   OH248447   1.696   6.671  13.792
 9011TIP3    H148448   1.695   6.646  13.700
 9011TIP3    H248449   1.682   6.766  13.791
 9012TIP3   OH248450   0.662   6.179  15.340
 9012TIP3    H148451   0.670   6.119  15.265
 9012TIP3    H248452   0.647   6.265  15.301
 9013TIP3   OH248453   0.687   6.017  15.109
 9013TIP3    H148454   0.741   6.063  15.045
 9013TIP3    H248455   0.600   6.016  15.070
 9014TIP3   OH248456   0.809   6.557  15.129
 9014TIP3    H148457   0.901   6.578  15.139
 9014TIP3    H248458   0.773   6.631  15.080
 9015TIP3   OH248459   1.257   6.323  15.589
 9015TIP3    H148460   1.284   6.236  15.619
 9015TIP3    H248461   1.339   6.373  15.585
 9016TIP3   OH248462   1.374   6.612  15.433
 9016TIP3    H148463   1.347   6.689  15.381
 9016TIP3    H248464   1.469   6.614  15.431
 9017TIP3   OH248465   0.496   6.238  15.562
 9017TIP3    H148466   0.422   6.179  15.544
 9017TIP3    H248467   0.546   6.240  15.481
 9018TIP3   OH248468   0.747   5.754  15.177
 9018TIP3    H148469   0.727   5.845  15.153
 9018TIP3    H248470   0.681   5.702  15.130
 9019TIP3   OH248471   0.879   6.140  15.508
 9019TIP3    H148472   0.831   6.115  15.586
 9019TIP3    H248473   0.812   6.150  15.440
 9020TIP3   OH248474   1.139   6.074  15.420
 9020TIP3    H148475   1.052   6.079  15.459
 9020TIP3    H248476   1.192   6.028  15.485
 9021TIP3   OH248477   1.326   5.961  15.599
 9021TIP3    H148478   1.314   5.866  15.600
 9021TIP3    H248479   1.289   5.990  15.683
 9022TIP3   OH248480   0.304   6.044  15.522
 9022TIP3    H148481   0.305   5.977  15.454
 9022TIP3    H248482   0.296   5.996  15.604
 9023TIP3   OH248483   0.748   5.674  15.439
 9023TIP3    H148484   0.801   5.595  15.429
 9023TIP3    H248485   0.740   5.709  15.350
 9024TIP3   OH248486   0.817   5.833  15.656
 9024TIP3    H148487   0.802   5.779  15.578
 9024TIP3    H248488   0.760   5.909  15.644
 9025TIP3   OH248489   0.137   6.949  13.886
 9025TIP3    H148490   0.229   6.974  13.881
 9025TIP3    H248491   0.117   6.915  13.799
 9026TIP3   OH248492   1.627   6.947  15.645
 9026TIP3    H148493   1.551   6.997  15.614
 9026TIP3    H248494   1.685   7.013  15.683
 9027TIP3   OH248495   1.772   6.777  14.192
 9027TIP3    H148496   1.847   6.837  14.189
 9027TIP3    H248497   1.794   6.716  14.263
 9028TIP3   OH248498   1.827   6.577  14.376
 9028TIP3    H148499   1.742   6.542  14.404
 9028TIP3    H248500   1.876   6.588  14.457
 9029TIP3   OH248501   1.810   6.851  14.901
 9029TIP3    H148502   1.861   6.787  14.850
 9029TIP3    H248503   1.847   6.936  14.876
 9030TIP3   OH248504   1.610   7.123  15.107
 9030TIP3    H148505   1.536   7.144  15.164
 9030TIP3    H248506   1.573   7.120  15.019
 9031TIP3   OH248507   1.837   6.581  14.007
 9031TIP3    H148508   1.791   6.604  13.926
 9031TIP3    H248509   1.812   6.650  14.069
 9032TIP3   OH248510   1.662   6.286  13.833
 9032TIP3    H148511   1.647   6.347  13.761
 9032TIP3    H248512   1.640   6.200  13.796
 9033TIP3   OH248513   1.581   6.454  14.429
 9033TIP3    H148514   1.575   6.367  14.390
 9033TIP3    H248515   1.538   6.446  14.514
 9034TIP3   OH248516   0.095   6.668  14.849
 9034TIP3    H148517   0.101   6.685  14.755
 9034TIP3    H248518   0.180   6.631  14.872
 9035TIP3   OH248519   1.644   6.641  15.402
 9035TIP3    H148520   1.714   6.579  15.380
 9035TIP3    H248521   1.653   6.711  15.338
 9036TIP3   OH248522   1.804   6.412  15.388
 9036TIP3    H148523   1.716   6.379  15.407
 9036TIP3    H248524   1.862   6.342  15.416
 9037TIP3   OH248525   1.593   6.039  13.738
 9037TIP3    H148526   1.630   5.984  13.807
 9037TIP3    H248527   1.501   6.012  13.732
 9038TIP3   OH248528   1.571   6.215  14.257
 9038TIP3    H148529   1.598   6.123  14.259
 9038TIP3    H248530   1.635   6.258  14.201
 9039TIP3   OH248531   1.598   6.239  14.822
 9039TIP3    H148532   1.689   6.255  14.799
 9039TIP3    H248533   1.592   6.261  14.915
 9040TIP3   OH248534   1.622   6.328  15.090
 9040TIP3    H148535   1.539   6.362  15.125
 9040TIP3    H248536   1.674   6.406  15.072
 9041TIP3   OH248537   0.084   6.210  15.507
 9041TIP3    H148538   0.167   6.167  15.488
 9041TIP3    H248539   0.026   6.139  15.536
 9042TIP3   OH248540   1.840   5.758  15.618
 9042TIP3    H148541   1.906   5.696  15.589
 9042TIP3    H248542   1.838   5.825  15.549
 9043TIP3   OH248543   1.629   5.941  14.275
 9043TIP3    H148544   1.643   5.898  14.359
 9043TIP3    H248545   1.562   5.888  14.232
 9044TIP3   OH248546   0.186   6.026  14.720
 9044TIP3    H148547   0.220   5.936  14.722
 9044TIP3    H248548   0.264   6.081  14.732
 9045TIP3   OH248549   0.022   6.395  14.843
 9045TIP3    H148550   0.092   6.370  14.782
 9045TIP3    H248551   0.036   6.488  14.859
 9046TIP3   OH248552   1.787   5.930  15.415
 9046TIP3    H148553   1.709   5.983  15.428
 9046TIP3    H248554   1.767   5.876  15.339
 9047TIP3   OH248555   1.768   5.913  13.926
 9047TIP3    H148556   1.816   5.861  13.862
 9047TIP3    H248557   1.829   5.981  13.954
 9048TIP3   OH248558   0.129   5.946  14.225
 9048TIP3    H148559   0.040   5.920  14.249
 9048TIP3    H248560   0.117   6.011  14.156
 9049TIP3   OH248561   0.058   5.803  15.101
 9049TIP3    H148562   0.020   5.862  15.166
 9049TIP3    H248563   0.001   5.814  15.024
 9050TIP3   OH248564   0.230   7.198  15.430
 9050TIP3    H148565   0.226   7.123  15.371
 9050TIP3    H248566   0.209   7.162  15.516
 9051TIP3   OH248567   0.554   7.245  15.088
 9051TIP3    H148568   0.475   7.266  15.038
 9051TIP3    H248569   0.625   7.249  15.023
 9052TIP3   OH248570   1.689   5.745  15.228
 9052TIP3    H148571   1.629   5.782  15.163
 9052TIP3    H248572   1.699   5.654  15.201
 9053TIP3   OH248573   0.461   7.220  14.616
 9053TIP3    H148574   0.429   7.144  14.663
 9053TIP3    H248575   0.515   7.267  14.680
 9054TIP3   OH248576   1.036   5.879  14.697
 9054TIP3    H148577   0.973   5.808  14.710
 9054TIP3    H248578   1.109   5.839  14.650
 9055TIP3   OH248579   1.522   5.726  14.704
 9055TIP3    H148580   1.584   5.772  14.648
 9055TIP3    H248581   1.436   5.755  14.673
 9056TIP3   OH248582   1.704   5.802  14.509
 9056TIP3    H148583   1.771   5.741  14.477
 9056TIP3    H248584   1.752   5.883  14.528
 9057TIP3   OH248585   0.307   5.745  14.437
 9057TIP3    H148586   0.221   5.741  14.395
 9057TIP3    H248587   0.345   5.659  14.423
 9058TIP3   OH248588   0.220   5.737  14.061
 9058TIP3    H148589   0.262   5.783  13.988
 9058TIP3    H248590   0.193   5.806  14.121
 9059TIP3   OH248591   0.757   5.701  14.460
 9059TIP3    H148592   0.824   5.750  14.412
 9059TIP3    H248593   0.782   5.710  14.552
 9060TIP3   OH248594   1.261   5.758  14.590
 9060TIP3    H148595   1.281   5.750  14.497
 9060TIP3    H248596   1.238   5.670  14.618
 9061TIP3   OH248597   1.423   5.774  14.184
 9061TIP3    H148598   1.346   5.831  14.194
 9061TIP3    H248599   1.388   5.686  14.194
 9062TIP3   OH248600   0.371   5.889  13.886
 9062TIP3    H148601   0.422   5.832  13.827
 9062TIP3    H248602   0.437   5.925  13.945
 9063TIP3   OH248603   0.822   5.975  14.129
 9063TIP3    H148604   0.859   5.901  14.177
 9063TIP3    H248605   0.847   6.052  14.180
 9064TIP3   OH248606   0.300   5.796  15.384
 9064TIP3    H148607   0.243   5.729  15.422
 9064TIP3    H248608   0.384   5.783  15.429
 9065TIP3   OH248609   0.500   5.722  15.559
 9065TIP3    H148610   0.585   5.700  15.523
 9065TIP3    H248611   0.476   5.645  15.611
 9066TIP3   OH248612   1.333   5.681  15.584
 9066TIP3    H148613   1.328   5.630  15.665
 9066TIP3    H248614   1.425   5.675  15.558
 9067TIP3   OH248615   1.647   7.282  15.494
 9067TIP3    H148616   1.575   7.250  15.438
 9067TIP3    H248617   1.658   7.373  15.469
 9068TIP3   OH248618   3.074   6.673  14.430
 9068TIP3    H148619   3.066   6.768  14.423
 9068TIP3    H248620   3.008   6.639  14.370
 9069TIP3   OH248621   2.971   6.596  14.816
 9069TIP3    H148622   2.992   6.551  14.898
 9069TIP3    H248623   2.920   6.533  14.766
 9070TIP3   OH248624   2.188   6.542  14.952
 9070TIP3    H148625   2.197   6.467  15.010
 9070TIP3    H248626   2.276   6.560  14.921
 9071TIP3   OH248627   3.352   6.896  14.633
 9071TIP3    H148628   3.307   6.827  14.682
 9071TIP3    H248629   3.371   6.963  14.699
 9072TIP3   OH248630   2.297   6.994  14.774
 9072TIP3    H148631   2.267   6.908  14.745
 9072TIP3    H248632   2.392   6.986  14.780
 9073TIP3   OH248633   1.961   6.343  14.293
 9073TIP3    H148634   1.929   6.428  14.322
 9073TIP3    H248635   1.902   6.317  14.222
 9074TIP3   OH248636   2.019   6.583  14.582
 9074TIP3    H148637   2.052   6.494  14.596
 9074TIP3    H248638   2.097   6.638  14.583
 9075TIP3   OH248639   2.804   6.848  14.835
 9075TIP3    H148640   2.840   6.777  14.783
 9075TIP3    H248641   2.876   6.874  14.893
 9076TIP3   OH248642   3.694   5.991  14.928
 9076TIP3    H148643   3.708   6.065  14.987
 9076TIP3    H248644   3.738   6.017  14.847
 9077TIP3   OH248645   3.119   6.270  14.840
 9077TIP3    H148646   3.135   6.176  14.851
 9077TIP3    H248647   3.103   6.281  14.747
 9078TIP3   OH248648   2.466   6.075  14.564
 9078TIP3    H148649   2.471   6.161  14.523
 9078TIP3    H248650   2.414   6.022  14.503
 9079TIP3   OH248651   3.241   6.114  14.416
 9079TIP3    H148652   3.285   6.081  14.494
 9079TIP3    H248653   3.311   6.151  14.363
 9080TIP3   OH248654   2.100   6.325  14.651
 9080TIP3    H148655   2.168   6.285  14.706
 9080TIP3    H248656   2.118   6.292  14.563
 9081TIP3   OH248657   2.579   6.472  14.624
 9081TIP3    H148658   2.667   6.440  14.645
 9081TIP3    H248659   2.545   6.410  14.561
 9082TIP3   OH248660   3.730   6.165  15.149
 9082TIP3    H148661   3.655   6.220  15.127
 9082TIP3    H248662   3.744   6.180  15.242
 9083TIP3   OH248663   2.321   5.999  14.992
 9083TIP3    H148664   2.302   6.054  14.917
 9083TIP3    H248665   2.249   6.014  15.053
 9084TIP3   OH248666   3.025   6.925  14.337
 9084TIP3    H148667   3.018   6.933  14.242
 9084TIP3    H248668   2.992   7.008  14.371
 9085TIP3   OH248669   2.584   6.762  14.980
 9085TIP3    H148670   2.530   6.834  15.014
 9085TIP3    H248671   2.652   6.805  14.928
 9086TIP3   OH248672   3.343   6.054  14.664
 9086TIP3    H148673   3.278   6.024  14.727
 9086TIP3    H248674   3.400   6.112  14.714
 9087TIP3   OH248675   2.300   6.162  14.771
 9087TIP3    H148676   2.357   6.220  14.821
 9087TIP3    H248677   2.355   6.128  14.701
 9088TIP3   OH248678   2.436   6.967  15.094
 9088TIP3    H148679   2.443   7.059  15.067
 9088TIP3    H248680   2.345   6.957  15.121
 9089TIP3   OH248681   1.999   6.937  14.157
 9089TIP3    H148682   1.987   6.971  14.068
 9089TIP3    H248683   2.013   7.015  14.210
 9090TIP3   OH248684   3.389   7.105  14.825
 9090TIP3    H148685   3.296   7.107  14.849
 9090TIP3    H248686   3.403   7.188  14.779
 9091TIP3   OH248687   3.440   5.891  15.013
 9091TIP3    H148688   3.369   5.933  14.965
 9091TIP3    H248689   3.520   5.919  14.968
 9092TIP3   OH248690   2.685   5.690  14.746
 9092TIP3    H148691   2.655   5.599  14.739
 9092TIP3    H248692   2.608   5.739  14.773
 9093TIP3   OH248693   3.220   7.265  14.440
 9093TIP3    H148694   3.250   7.174  14.436
 9093TIP3    H248695   3.285   7.313  14.389
 9094TIP3   OH248696   3.348   7.027  14.385
 9094TIP3    H148697   3.342   6.964  14.312
 9094TIP3    H248698   3.349   6.972  14.463
 9095TIP3   OH248699   3.487   6.909  15.198
 9095TIP3    H148700   3.477   6.853  15.121
 9095TIP3    H248701   3.478   6.998  15.164
 9096TIP3   OH248702   2.928   6.598  14.204
 9096TIP3    H148703   2.864   6.665  14.181
 9096TIP3    H248704   2.994   6.603  14.134
 9097TIP3   OH248705   2.959   6.463  13.865
 9097TIP3    H148706   3.016   6.492  13.937
 9097TIP3    H248707   3.015   6.406  13.812
 9098TIP3   OH248708   3.654   6.560  15.039
 9098TIP3    H148709   3.581   6.621  15.031
 9098TIP3    H248710   3.711   6.581  14.965
 9099TIP3   OH248711   3.292   6.612  14.276
 9099TIP3    H148712   3.223   6.634  14.339
 9099TIP3    H248713   3.357   6.565  14.327
 9100TIP3   OH248714   3.264   6.427  15.221
 9100TIP3    H148715   3.259   6.500  15.283
 9100TIP3    H248716   3.200   6.449  15.153
 9101TIP3   OH248717   2.436   6.666  14.470
 9101TIP3    H148718   2.413   6.631  14.384
 9101TIP3    H248719   2.493   6.599  14.508
 9102TIP3   OH248720   2.573   6.988  14.742
 9102TIP3    H148721   2.582   7.022  14.653
 9102TIP3    H248722   2.660   6.952  14.763
 9103TIP3   OH248723   2.443   6.571  14.843
 9103TIP3    H148724   2.494   6.546  14.766
 9103TIP3    H248725   2.495   6.638  14.887
 9104TIP3   OH248726   3.140   7.105  14.935
 9104TIP3    H148727   3.099   7.163  14.999
 9104TIP3    H248728   3.100   7.019  14.950
 9105TIP3   OH248729   2.601   6.996  15.313
 9105TIP3    H148730   2.540   7.057  15.356
 9105TIP3    H248731   2.556   6.969  15.233
 9106TIP3   OH248732   3.158   6.548  14.044
 9106TIP3    H148733   3.208   6.580  14.119
 9106TIP3    H248734   3.211   6.573  13.968
 9107TIP3   OH248735   2.248   6.575  15.294
 9107TIP3    H148736   2.260   6.664  15.327
 9107TIP3    H248737   2.162   6.577  15.253
 9108TIP3   OH248738   2.952   7.185  14.396
 9108TIP3    H148739   3.038   7.225  14.412
 9108TIP3    H248740   2.922   7.225  14.314
 9109TIP3   OH248741   2.393   7.166  15.372
 9109TIP3    H148742   2.372   7.200  15.285
 9109TIP3    H248743   2.308   7.160  15.416
 9110TIP3   OH248744   3.533   5.696  14.041
 9110TIP3    H148745   3.447   5.722  14.074
 9110TIP3    H248746   3.571   5.777  14.007
 9111TIP3   OH248747   2.357   6.582  14.211
 9111TIP3    H148748   2.305   6.653  14.174
 9111TIP3    H248749   2.309   6.502  14.187
 9112TIP3   OH248750   3.649   7.149  13.861
 9112TIP3    H148751   3.632   7.218  13.925
 9112TIP3    H248752   3.739   7.122  13.877
 9113TIP3   OH248753   1.959   6.827  15.138
 9113TIP3    H148754   1.905   6.840  15.060
 9113TIP3    H248755   1.974   6.733  15.143
 9114TIP3   OH248756   1.963   7.077  14.860
 9114TIP3    H148757   2.058   7.080  14.854
 9114TIP3    H248758   1.938   7.164  14.891
 9115TIP3   OH248759   3.781   7.138  15.417
 9115TIP3    H148760   3.755   7.047  15.406
 9115TIP3    H248761   3.698   7.186  15.425
 9116TIP3   OH248762   2.859   7.090  15.302
 9116TIP3    H148763   2.871   7.128  15.390
 9116TIP3    H248764   2.767   7.065  15.299
 9117TIP3   OH248765   3.441   6.305  15.423
 9117TIP3    H148766   3.382   6.344  15.359
 9117TIP3    H248767   3.449   6.213  15.396
 9118TIP3   OH248768   2.179   6.980  15.202
 9118TIP3    H148769   2.199   6.942  15.288
 9118TIP3    H248770   2.101   6.933  15.173
 9119TIP3   OH248771   2.435   5.797  14.831
 9119TIP3    H148772   2.363   5.789  14.769
 9119TIP3    H248773   2.411   5.872  14.886
 9120TIP3   OH248774   2.909   5.771  15.170
 9120TIP3    H148775   2.954   5.726  15.242
 9120TIP3    H248776   2.816   5.764  15.191
 9121TIP3   OH248777   3.206   6.155  15.242
 9121TIP3    H148778   3.141   6.142  15.311
 9121TIP3    H248779   3.210   6.250  15.231
 9122TIP3   OH248780   3.314   6.602  13.831
 9122TIP3    H148781   3.288   6.613  13.739
 9122TIP3    H248782   3.407   6.626  13.833
 9123TIP3   OH248783   2.867   5.997  13.899
 9123TIP3    H148784   2.805   5.999  13.971
 9123TIP3    H248785   2.828   5.936  13.836
 9124TIP3   OH248786   2.448   6.315  14.951
 9124TIP3    H148787   2.381   6.317  15.020
 9124TIP3    H248788   2.451   6.405  14.918
 9125TIP3   OH248789   2.447   6.316  14.437
 9125TIP3    H148790   2.352   6.308  14.432
 9125TIP3    H248791   2.477   6.302  14.348
 9126TIP3   OH248792   2.990   6.352  14.312
 9126TIP3    H148793   2.963   6.438  14.278
 9126TIP3    H248794   3.059   6.323  14.252
 9127TIP3   OH248795   2.913   6.352  15.425
 9127TIP3    H148796   2.861   6.281  15.464
 9127TIP3    H248797   2.997   6.349  15.471
 9128TIP3   OH248798   3.087   6.292  14.569
 9128TIP3    H148799   3.045   6.343  14.499
 9128TIP3    H248800   3.131   6.220  14.523
 9129TIP3   OH248801   2.233   6.322  15.124
 9129TIP3    H148802   2.221   6.375  15.203
 9129TIP3    H248803   2.187   6.241  15.142
 9130TIP3   OH248804   2.554   6.059  13.797
 9130TIP3    H148805   2.515   6.049  13.884
 9130TIP3    H248806   2.496   6.120  13.752
 9131TIP3   OH248807   1.876   6.009  14.526
 9131TIP3    H148808   1.944   6.028  14.591
 9131TIP3    H248809   1.922   6.011  14.442
 9132TIP3   OH248810   1.940   6.111  14.024
 9132TIP3    H148811   2.008   6.150  13.969
 9132TIP3    H248812   1.880   6.183  14.043
 9133TIP3   OH248813   3.048   6.439  15.039
 9133TIP3    H148814   3.080   6.383  14.969
 9133TIP3    H248815   2.978   6.388  15.080
 9134TIP3   OH248816   2.750   6.036  14.525
 9134TIP3    H148817   2.660   6.042  14.555
 9134TIP3    H248818   2.799   6.007  14.602
 9135TIP3   OH248819   2.184   6.230  14.409
 9135TIP3    H148820   2.111   6.260  14.356
 9135TIP3    H248821   2.205   6.143  14.375
 9136TIP3   OH248822   2.514   6.247  14.181
 9136TIP3    H148823   2.609   6.240  14.191
 9136TIP3    H248824   2.501   6.287  14.095
 9137TIP3   OH248825   3.141   5.992  14.852
 9137TIP3    H148826   3.097   5.999  14.937
 9137TIP3    H248827   3.076   5.953  14.794
 9138TIP3   OH248828   2.467   6.337  13.928
 9138TIP3    H148829   2.414   6.311  13.853
 9138TIP3    H248830   2.542   6.382  13.890
 9139TIP3   OH248831   2.235   6.818  15.435
 9139TIP3    H148832   2.305   6.828  15.500
 9139TIP3    H248833   2.154   6.829  15.485
 9140TIP3   OH248834   2.822   6.360  14.721
 9140TIP3    H148835   2.891   6.313  14.675
 9140TIP3    H248836   2.792   6.300  14.789
 9141TIP3   OH248837   2.299   5.968  14.363
 9141TIP3    H148838   2.245   5.891  14.384
 9141TIP3    H248839   2.331   5.951  14.275
 9142TIP3   OH248840   2.706   6.215  14.941
 9142TIP3    H148841   2.623   6.261  14.948
 9142TIP3    H248842   2.757   6.246  15.016
 9143TIP3   OH248843   2.738   6.795  14.132
 9143TIP3    H148844   2.669   6.754  14.080
 9143TIP3    H248845   2.696   6.816  14.215
 9144TIP3   OH248846   3.455   6.743  14.977
 9144TIP3    H148847   3.518   6.793  14.925
 9144TIP3    H248848   3.383   6.725  14.917
 9145TIP3   OH248849   3.118   6.046  13.992
 9145TIP3    H148850   3.030   6.044  13.955
 9145TIP3    H248851   3.131   6.138  14.017
 9146TIP3   OH248852   2.916   6.816  15.263
 9146TIP3    H148853   2.941   6.776  15.347
 9146TIP3    H248854   2.895   6.906  15.286
 9147TIP3   OH248855   3.192   6.284  14.128
 9147TIP3    H148856   3.283   6.271  14.156
 9147TIP3    H248857   3.192   6.370  14.088
 9148TIP3   OH248858   2.264   6.727  14.676
 9148TIP3    H148859   2.319   6.723  14.598
 9148TIP3    H248860   2.311   6.675  14.741
 9149TIP3   OH248861   2.954   6.948  14.060
 9149TIP3    H148862   2.928   7.039  14.074
 9149TIP3    H248863   2.876   6.897  14.082
 9150TIP3   OH248864   1.980   6.553  15.220
 9150TIP3    H148865   1.944   6.517  15.301
 9150TIP3    H248866   1.912   6.538  15.155
 9151TIP3   OH248867   2.687   6.522  15.464
 9151TIP3    H148868   2.625   6.493  15.398
 9151TIP3    H248869   2.771   6.487  15.436
 9152TIP3   OH248870   3.131   7.086  15.236
 9152TIP3    H148871   3.035   7.088  15.240
 9152TIP3    H248872   3.159   7.096  15.327
 9153TIP3   OH248873   3.654   6.322  14.079
 9153TIP3    H148874   3.611   6.300  13.997
 9153TIP3    H248875   3.680   6.414  14.069
 9154TIP3   OH248876   3.701   6.872  15.360
 9154TIP3    H148877   3.617   6.897  15.322
 9154TIP3    H248878   3.759   6.860  15.285
 9155TIP3   OH248879   3.638   7.149  14.220
 9155TIP3    H148880   3.563   7.093  14.240
 9155TIP3    H248881   3.605   7.212  14.156
 9156TIP3   OH248882   3.251   6.672  14.791
 9156TIP3    H148883   3.156   6.663  14.784
 9156TIP3    H248884   3.285   6.597  14.743
 9157TIP3   OH248885   2.549   7.098  14.482
 9157TIP3    H148886   2.598   7.174  14.451
 9157TIP3    H248887   2.464   7.133  14.508
 9158TIP3   OH248888   2.102   6.550  13.933
 9158TIP3    H148889   2.146   6.623  13.976
 9158TIP3    H248890   2.010   6.558  13.958
 9159TIP3   OH248891   2.598   6.861  14.353
 9159TIP3    H148892   2.588   6.946  14.397
 9159TIP3    H248893   2.540   6.802  14.401
 9160TIP3   OH248894   2.732   7.246  14.961
 9160TIP3    H148895   2.766   7.309  15.024
 9160TIP3    H248896   2.743   7.161  15.004
 9161TIP3   OH248897   3.021   6.863  15.010
 9161TIP3    H148898   2.986   6.844  15.097
 9161TIP3    H248899   3.081   6.791  14.991
 9162TIP3   OH248900   3.298   6.982  13.931
 9162TIP3    H148901   3.311   6.935  14.013
 9162TIP3    H248902   3.212   6.953  13.900
 9163TIP3   OH248903   2.105   6.063  15.160
 9163TIP3    H148904   2.017   6.095  15.141
 9163TIP3    H248905   2.091   5.982  15.208
 9164TIP3   OH248906   3.383   6.847  14.165
 9164TIP3    H148907   3.345   6.766  14.198
 9164TIP3    H248908   3.478   6.830  14.162
 9165TIP3   OH248909   2.164   7.237  15.048
 9165TIP3    H148910   2.138   7.162  15.101
 9165TIP3    H248911   2.088   7.296  15.050
 9166TIP3   OH248912   2.699   7.050  13.769
 9166TIP3    H148913   2.699   6.969  13.718
 9166TIP3    H248914   2.659   7.026  13.853
 9167TIP3   OH248915   2.565   7.037  14.013
 9167TIP3    H148916   2.599   6.981  14.083
 9167TIP3    H248917   2.579   7.126  14.046
 9168TIP3   OH248918   2.203   6.768  14.077
 9168TIP3    H148919   2.130   6.813  14.120
 9168TIP3    H248920   2.246   6.836  14.025
 9169TIP3   OH248921   3.013   6.017  15.094
 9169TIP3    H148922   3.083   6.039  15.156
 9169TIP3    H248923   2.978   5.934  15.127
 9170TIP3   OH248924   3.095   5.945  14.248
 9170TIP3    H148925   3.099   5.982  14.160
 9170TIP3    H248926   3.137   6.011  14.304
 9171TIP3   OH248927   2.873   7.212  14.103
 9171TIP3    H148928   2.783   7.243  14.108
 9171TIP3    H248929   2.899   7.228  14.012
 9172TIP3   OH248930   2.773   6.184  14.288
 9172TIP3    H148931   2.847   6.244  14.294
 9172TIP3    H248932   2.766   6.146  14.376
 9173TIP3   OH248933   2.874   6.262  15.159
 9173TIP3    H148934   2.886   6.285  15.251
 9173TIP3    H248935   2.915   6.175  15.151
 9174TIP3   OH248936   2.852   5.849  14.340
 9174TIP3    H148937   2.825   5.920  14.399
 9174TIP3    H248938   2.938   5.877  14.308
 9175TIP3   OH248939   2.608  -0.005  14.097
 9175TIP3    H148940   2.589   0.058  14.028
 9175TIP3    H248941   2.580   0.037  14.178
 9176TIP3   OH248942   2.442   6.003  14.053
 9176TIP3    H148943   2.439   6.090  14.095
 9176TIP3    H248944   2.530   5.971  14.073
 9177TIP3   OH248945   3.455   6.058  15.279
 9177TIP3    H148946   3.362   6.080  15.267
 9177TIP3    H248947   3.484   6.027  15.193
 9178TIP3   OH248948   3.329   6.424  14.667
 9178TIP3    H148949   3.244   6.387  14.645
 9178TIP3    H248950   3.370   6.360  14.725
 9179TIP3   OH248951   2.297   6.981  13.918
 9179TIP3    H148952   2.371   7.027  13.959
 9179TIP3    H248953   2.338   6.924  13.853
 9180TIP3   OH248954   2.082   6.281  13.864
 9180TIP3    H148955   2.103   6.369  13.894
 9180TIP3    H248956   2.048   6.293  13.775
 9181TIP3   OH248957   2.189   5.774  14.704
 9181TIP3    H148958   2.181   5.769  14.609
 9181TIP3    H248959   2.149   5.692  14.735
 9182TIP3   OH248960   2.020   7.201  14.268
 9182TIP3    H148961   1.926   7.188  14.259
 9182TIP3    H248962   2.043   7.263  14.199
 9183TIP3   OH248963   2.516   7.258  15.684
 9183TIP3    H148964   2.553   7.170  15.691
 9183TIP3    H248965   2.554   7.294  15.604
 9184TIP3   OH248966   2.909   7.228  13.834
 9184TIP3    H148967   2.847   7.169  13.793
 9184TIP3    H248968   2.938   7.286  13.764
 9185TIP3   OH248969   3.168   7.103  15.503
 9185TIP3    H148970   3.113   7.039  15.548
 9185TIP3    H248971   3.164   7.182  15.558
 9186TIP3   OH248972   3.346   7.219  13.802
 9186TIP3    H148973   3.337   7.144  13.861
 9186TIP3    H248974   3.440   7.222  13.781
 9187TIP3   OH248975   1.997   6.813  15.584
 9187TIP3    H148976   1.992   6.718  15.572
 9187TIP3    H248977   1.934   6.849  15.523
 9188TIP3   OH248978   2.434   6.798  13.770
 9188TIP3    H148979   2.463   6.750  13.847
 9188TIP3    H248980   2.513   6.806  13.716
 9189TIP3   OH248981   2.656   6.802  15.509
 9189TIP3    H148982   2.650   6.851  15.427
 9189TIP3    H248983   2.682   6.714  15.482
 9190TIP3   OH248984   3.056   6.923  13.798
 9190TIP3    H148985   3.005   6.929  13.879
 9190TIP3    H248986   3.029   6.840  13.758
 9191TIP3   OH248987   3.235   6.823  15.274
 9191TIP3    H148988   3.324   6.851  15.257
 9191TIP3    H248989   3.181   6.899  15.253
 9192TIP3   OH248990   2.080   6.536  15.532
 9192TIP3    H148991   2.154   6.543  15.473
 9192TIP3    H248992   2.118   6.540  15.620
 9193TIP3   OH248993   2.538   6.662  13.995
 9193TIP3    H148994   2.485   6.616  14.061
 9193TIP3    H248995   2.583   6.592  13.948
 9194TIP3   OH248996   2.497   6.436  15.274
 9194TIP3    H148997   2.418   6.489  15.272
 9194TIP3    H248998   2.555   6.476  15.209
 9195TIP3   OH248999   2.682   6.483  13.840
 9195TIP3    H149000   2.678   6.508  13.747
 9195TIP3    H249001   2.775   6.470  13.857
 9196TIP3   OH249002   2.993   6.656  15.533
 9196TIP3    H149003   3.080   6.623  15.509
 9196TIP3    H249004   2.962   6.597  15.601
 9197TIP3   OH249005   3.581   6.669  13.790
 9197TIP3    H149006   3.579   6.645  13.697
 9197TIP3    H249007   3.568   6.764  13.790
 9198TIP3   OH249008   2.549   6.174  15.336
 9198TIP3    H149009   2.556   6.119  15.259
 9198TIP3    H249010   2.535   6.262  15.302
 9199TIP3   OH249011   2.574   6.018  15.102
 9199TIP3    H149012   2.627   6.066  15.039
 9199TIP3    H249013   2.486   6.016  15.063
 9200TIP3   OH249014   2.689   6.553  15.122
 9200TIP3    H149015   2.783   6.570  15.128
 9200TIP3    H249016   2.654   6.627  15.072
 9201TIP3   OH249017   3.132   6.311  15.601
 9201TIP3    H149018   3.141   6.235  15.659
 9201TIP3    H249019   3.222   6.337  15.583
 9202TIP3   OH249020   3.275   6.613  15.437
 9202TIP3    H149021   3.248   6.689  15.386
 9202TIP3    H249022   3.371   6.615  15.435
 9203TIP3   OH249023   2.379   6.225  15.560
 9203TIP3    H149024   2.297   6.181  15.538
 9203TIP3    H249025   2.426   6.231  15.477
 9204TIP3   OH249026   2.627   5.755  15.176
 9204TIP3    H149027   2.612   5.846  15.151
 9204TIP3    H249028   2.560   5.706  15.129
 9205TIP3   OH249029   2.763   6.137  15.508
 9205TIP3    H149030   2.712   6.115  15.586
 9205TIP3    H249031   2.697   6.147  15.439
 9206TIP3   OH249032   3.020   6.066  15.415
 9206TIP3    H149033   2.935   6.075  15.459
 9206TIP3    H249034   3.077   6.029  15.482
 9207TIP3   OH249035   3.213   5.963  15.595
 9207TIP3    H149036   3.203   5.868  15.599
 9207TIP3    H249037   3.178   5.995  15.678
 9208TIP3   OH249038   2.164   6.046  15.513
 9208TIP3    H149039   2.167   5.976  15.448
 9208TIP3    H249040   2.170   6.002  15.598
 9209TIP3   OH249041   2.625   5.673  15.436
 9209TIP3    H149042   2.684   5.599  15.428
 9209TIP3    H249043   2.619   5.710  15.348
 9210TIP3   OH249044   2.700   5.829  15.655
 9210TIP3    H149045   2.683   5.779  15.575
 9210TIP3    H249046   2.646   5.908  15.646
 9211TIP3   OH249047   2.022   7.010  13.885
 9211TIP3    H149048   2.116   7.007  13.899
 9211TIP3    H249049   2.004   6.944  13.818
 9212TIP3   OH249050   3.524   6.935  15.676
 9212TIP3    H149051   3.440   6.950  15.720
 9212TIP3    H249052   3.569   7.019  15.681
 9213TIP3   OH249053   3.652   6.776  14.191
 9213TIP3    H149054   3.727   6.836  14.188
 9213TIP3    H249055   3.672   6.716  14.263
 9214TIP3   OH249056   3.705   6.577  14.377
 9214TIP3    H149057   3.619   6.541  14.399
 9214TIP3    H249058   3.750   6.587  14.461
 9215TIP3   OH249059   3.699   6.854  14.901
 9215TIP3    H149060   3.747   6.788  14.851
 9215TIP3    H249061   3.734   6.938  14.872
 9216TIP3   OH249062   3.430   7.162  15.095
 9216TIP3    H149063   3.337   7.156  15.117
 9216TIP3    H249064   3.434   7.145  15.001
 9217TIP3   OH249065   3.719   6.581  14.007
 9217TIP3    H149066   3.674   6.603  13.926
 9217TIP3    H249067   3.693   6.649  14.069
 9218TIP3   OH249068   3.550   6.279  13.832
 9218TIP3    H149069   3.537   6.344  13.763
 9218TIP3    H249070   3.530   6.195  13.790
 9219TIP3   OH249071   3.464   6.452  14.426
 9219TIP3    H149072   3.457   6.364  14.389
 9219TIP3    H249073   3.422   6.446  14.512
 9220TIP3   OH249074   1.948   6.608  14.843
 9220TIP3    H149075   1.962   6.609  14.749
 9220TIP3    H249076   2.036   6.597  14.880
 9221TIP3   OH249077   3.549   6.637  15.422
 9221TIP3    H149078   3.609   6.566  15.399
 9221TIP3    H249079   3.594   6.717  15.395
 9222TIP3   OH249080   3.695   6.407  15.389
 9222TIP3    H149081   3.607   6.372  15.401
 9222TIP3    H249082   3.754   6.336  15.415
 9223TIP3   OH249083   3.484   6.030  13.727
 9223TIP3    H149084   3.518   5.984  13.803
 9223TIP3    H249085   3.390   6.009  13.726
 9224TIP3   OH249086   3.456   6.214  14.256
 9224TIP3    H149087   3.483   6.122  14.258
 9224TIP3    H249088   3.521   6.257  14.201
 9225TIP3   OH249089   3.482   6.237  14.822
 9225TIP3    H149090   3.574   6.252  14.799
 9225TIP3    H249091   3.476   6.260  14.914
 9226TIP3   OH249092   3.508   6.330  15.087
 9226TIP3    H149093   3.426   6.362  15.125
 9226TIP3    H249094   3.560   6.409  15.072
 9227TIP3   OH249095   1.931   6.168  15.423
 9227TIP3    H149096   2.019   6.144  15.451
 9227TIP3    H249097   1.880   6.087  15.432
 9228TIP3   OH249098   3.724   5.750  15.605
 9228TIP3    H149099   3.795   5.689  15.586
 9228TIP3    H249100   3.731   5.817  15.537
 9229TIP3   OH249101   3.516   5.941  14.273
 9229TIP3    H149102   3.530   5.899  14.358
 9229TIP3    H249103   3.448   5.888  14.231
 9230TIP3   OH249104   2.053   6.013  14.748
 9230TIP3    H149105   2.095   5.928  14.738
 9230TIP3    H249106   2.125   6.076  14.755
 9231TIP3   OH249107   1.867   6.312  14.812
 9231TIP3    H149108   1.936   6.296  14.747
 9231TIP3    H249109   1.882   6.402  14.842
 9232TIP3   OH249110   3.678   5.937  15.413
 9232TIP3    H149111   3.600   5.982  15.446
 9232TIP3    H249112   3.647   5.887  15.338
 9233TIP3   OH249113   3.653   5.914  13.924
 9233TIP3    H149114   3.702   5.862  13.861
 9233TIP3    H249115   3.716   5.981  13.953
 9234TIP3   OH249116   1.921   5.942  14.238
 9234TIP3    H149117   1.825   5.933  14.241
 9234TIP3    H249118   1.936   6.005  14.168
 9235TIP3   OH249119   1.920   5.772  15.062
 9235TIP3    H149120   1.847   5.768  15.124
 9235TIP3    H249121   1.894   5.841  15.000
 9236TIP3   OH249122   2.152   7.167  15.507
 9236TIP3    H149123   2.066   7.172  15.466
 9236TIP3    H249124   2.134   7.157  15.601
 9237TIP3   OH249125   2.434   7.252  15.070
 9237TIP3    H149126   2.339   7.256  15.060
 9237TIP3    H249127   2.468   7.275  14.983
 9238TIP3   OH249128   3.578   5.742  15.230
 9238TIP3    H149129   3.514   5.772  15.164
 9238TIP3    H249130   3.593   5.650  15.208
 9239TIP3   OH249131   2.337   7.215  14.618
 9239TIP3    H149132   2.309   7.138  14.668
 9239TIP3    H249133   2.391   7.266  14.678
 9240TIP3   OH249134   2.920   5.881  14.696
 9240TIP3    H149135   2.857   5.810  14.710
 9240TIP3    H249136   2.993   5.840  14.649
 9241TIP3   OH249137   3.410   5.722  14.694
 9241TIP3    H149138   3.471   5.773  14.641
 9241TIP3    H249139   3.323   5.755  14.669
 9242TIP3   OH249140   3.592   5.807  14.507
 9242TIP3    H149141   3.659   5.746  14.477
 9242TIP3    H249142   3.640   5.888  14.525
 9243TIP3   OH249143   2.154   5.739  14.433
 9243TIP3    H149144   2.062   5.727  14.408
 9243TIP3    H249145   2.195   5.654  14.416
 9244TIP3   OH249146   2.079   5.753  14.069
 9244TIP3    H149147   2.123   5.805  14.002
 9244TIP3    H249148   2.031   5.817  14.121
 9245TIP3   OH249149   2.643   5.700  14.458
 9245TIP3    H149150   2.709   5.750  14.410
 9245TIP3    H249151   2.666   5.713  14.551
 9246TIP3   OH249152   3.145   5.759  14.589
 9246TIP3    H149153   3.164   5.749  14.496
 9246TIP3    H249154   3.122   5.670  14.618
 9247TIP3   OH249155   3.308   5.774  14.184
 9247TIP3    H149156   3.232   5.831  14.194
 9247TIP3    H249157   3.274   5.686  14.193
 9248TIP3   OH249158   2.246   5.894  13.880
 9248TIP3    H149159   2.297   5.840  13.819
 9248TIP3    H249160   2.311   5.930  13.939
 9249TIP3   OH249161   2.707   5.974  14.125
 9249TIP3    H149162   2.742   5.901  14.176
 9249TIP3    H249163   2.731   6.052  14.176
 9250TIP3   OH249164   2.160   5.787  15.384
 9250TIP3    H149165   2.097   5.726  15.422
 9250TIP3    H249166   2.242   5.769  15.430
 9251TIP3   OH249167   2.371   5.708  15.552
 9251TIP3    H149168   2.458   5.701  15.513
 9251TIP3    H249169   2.354   5.622  15.590
 9252TIP3   OH249170   3.216   5.684  15.585
 9252TIP3    H149171   3.210   5.636  15.667
 9252TIP3    H249172   3.308   5.677  15.559
 9253TIP3   OH249173   3.542   7.263  15.439
 9253TIP3    H149174   3.457   7.249  15.482
 9253TIP3    H249175   3.521   7.312  15.360
 9254TIP3   OH249176   4.963   6.674  14.432
 9254TIP3    H149177   4.956   6.769  14.423
 9254TIP3    H249178   4.898   6.640  14.371
 9255TIP3   OH249179   4.858   6.597  14.820
 9255TIP3    H149180   4.880   6.548  14.899
 9255TIP3    H249181   4.807   6.536  14.767
 9256TIP3   OH249182   4.079   6.540  14.941
 9256TIP3    H149183   4.079   6.466  15.002
 9256TIP3    H249184   4.172   6.554  14.920
 9257TIP3   OH249185   5.234   6.901  14.636
 9257TIP3    H149186   5.194   6.828  14.683
 9257TIP3    H249187   5.254   6.966  14.704
 9258TIP3   OH249188   4.224   6.998  14.808
 9258TIP3    H149189   4.189   6.918  14.769
 9258TIP3    H249190   4.316   7.000  14.782
 9259TIP3   OH249191   3.848   6.348  14.292
 9259TIP3    H149192   3.810   6.432  14.322
 9259TIP3    H249193   3.790   6.320  14.222
 9260TIP3   OH249194   3.896   6.576  14.580
 9260TIP3    H149195   3.929   6.488  14.597
 9260TIP3    H249196   3.969   6.622  14.539
 9261TIP3   OH249197   4.693   6.850  14.823
 9261TIP3    H149198   4.727   6.774  14.775
 9261TIP3    H249199   4.764   6.875  14.881
 9262TIP3   OH249200   5.575   5.994  14.928
 9262TIP3    H149201   5.590   6.062  14.993
 9262TIP3    H249202   5.627   6.021  14.852
 9263TIP3   OH249203   5.002   6.268  14.840
 9263TIP3    H149204   5.009   6.173  14.849
 9263TIP3    H249205   4.989   6.283  14.747
 9264TIP3   OH249206   4.346   6.077  14.561
 9264TIP3    H149207   4.349   6.163  14.519
 9264TIP3    H249208   4.293   6.024  14.501
 9265TIP3   OH249209   5.137   6.111  14.430
 9265TIP3    H149210   5.186   6.070  14.502
 9265TIP3    H249211   5.204   6.150  14.375
 9266TIP3   OH249212   3.987   6.325  14.650
 9266TIP3    H149213   4.052   6.283  14.706
 9266TIP3    H249214   4.006   6.291  14.562
 9267TIP3   OH249215   4.466   6.474  14.621
 9267TIP3    H149216   4.553   6.440  14.642
 9267TIP3    H249217   4.430   6.411  14.558
 9268TIP3   OH249218   5.612   6.158  15.149
 9268TIP3    H149219   5.541   6.219  15.131
 9268TIP3    H249220   5.634   6.173  15.241
 9269TIP3   OH249221   4.207   5.998  14.993
 9269TIP3    H149222   4.184   6.054  14.919
 9269TIP3    H249223   4.134   6.009  15.055
 9270TIP3   OH249224   4.921   6.926  14.337
 9270TIP3    H149225   4.908   6.931  14.242
 9270TIP3    H249226   4.875   7.002  14.371
 9271TIP3   OH249227   4.480   6.762  14.978
 9271TIP3    H149228   4.419   6.829  15.009
 9271TIP3    H249229   4.543   6.810  14.925
 9272TIP3   OH249230   5.246   6.022  14.676
 9272TIP3    H149231   5.165   6.011  14.727
 9272TIP3    H249232   5.292   6.094  14.720
 9273TIP3   OH249233   4.185   6.162  14.772
 9273TIP3    H149234   4.243   6.218  14.824
 9273TIP3    H249235   4.240   6.128  14.701
 9274TIP3   OH249236   4.294   6.948  15.069
 9274TIP3    H149237   4.267   6.974  14.981
 9274TIP3    H249238   4.216   6.959  15.122
 9275TIP3   OH249239   3.883   6.930  14.155
 9275TIP3    H149240   3.869   6.964  14.066
 9275TIP3    H249241   3.896   7.008  14.208
 9276TIP3   OH249242   5.267   7.109  14.822
 9276TIP3    H149243   5.177   7.116  14.854
 9276TIP3    H249244   5.282   7.190  14.773
 9277TIP3   OH249245   5.328   5.885  15.011
 9277TIP3    H149246   5.258   5.936  14.970
 9277TIP3    H249247   5.408   5.917  14.971
 9278TIP3   OH249248   4.564   5.693  14.750
 9278TIP3    H149249   4.537   5.601  14.745
 9278TIP3    H249250   4.485   5.739  14.778
 9279TIP3   OH249251   5.068   7.257  14.461
 9279TIP3    H149252   5.113   7.173  14.466
 9279TIP3    H249253   5.098   7.296  14.379
 9280TIP3   OH249254   5.237   7.047  14.400
 9280TIP3    H149255   5.237   6.987  14.324
 9280TIP3    H249256   5.238   6.989  14.476
 9281TIP3   OH249257   5.358   6.913  15.196
 9281TIP3    H149258   5.355   6.854  15.120
 9281TIP3    H249259   5.358   7.001  15.158
 9282TIP3   OH249260   4.817   6.598  14.206
 9282TIP3    H149261   4.750   6.663  14.183
 9282TIP3    H249262   4.880   6.602  14.135
 9283TIP3   OH249263   4.848   6.463  13.864
 9283TIP3    H149264   4.905   6.492  13.936
 9283TIP3    H249265   4.904   6.406  13.811
 9284TIP3   OH249266   5.538   6.555  15.036
 9284TIP3    H149267   5.467   6.618  15.029
 9284TIP3    H249268   5.599   6.580  14.966
 9285TIP3   OH249269   5.182   6.634  14.271
 9285TIP3    H149270   5.113   6.650  14.335
 9285TIP3    H249271   5.248   6.584  14.319
 9286TIP3   OH249272   5.149   6.428  15.225
 9286TIP3    H149273   5.144   6.501  15.287
 9286TIP3    H249274   5.085   6.449  15.157
 9287TIP3   OH249275   4.314   6.666  14.475
 9287TIP3    H149276   4.291   6.633  14.389
 9287TIP3    H249277   4.373   6.600  14.511
 9288TIP3   OH249278   4.487   7.019  14.734
 9288TIP3    H149279   4.487   7.031  14.639
 9288TIP3    H249280   4.564   6.965  14.751
 9289TIP3   OH249281   4.341   6.560  14.852
 9289TIP3    H149282   4.386   6.541  14.770
 9289TIP3    H249283   4.391   6.631  14.891
 9290TIP3   OH249284   5.031   7.110  14.961
 9290TIP3    H149285   5.013   7.130  15.053
 9290TIP3    H249286   4.987   7.026  14.945
 9291TIP3   OH249287   4.466   6.974  15.285
 9291TIP3    H149288   4.407   7.030  15.333
 9291TIP3    H249289   4.420   6.954  15.203
 9292TIP3   OH249290   5.047   6.549  14.045
 9292TIP3    H149291   5.097   6.586  14.118
 9292TIP3    H249292   5.097   6.573  13.967
 9293TIP3   OH249293   4.138   6.576  15.286
 9293TIP3    H149294   4.149   6.664  15.324
 9293TIP3    H249295   4.049   6.577  15.250
 9294TIP3   OH249296   4.809   7.171  14.396
 9294TIP3    H149297   4.890   7.213  14.423
 9294TIP3    H249298   4.789   7.211  14.311
 9295TIP3   OH249299   4.281   7.152  15.384
 9295TIP3    H149300   4.276   7.194  15.298
 9295TIP3    H249301   4.189   7.142  15.411
 9296TIP3   OH249302   5.416   5.697  14.041
 9296TIP3    H149303   5.331   5.727  14.074
 9296TIP3    H249304   5.458   5.777  14.008
 9297TIP3   OH249305   4.237   6.582  14.216
 9297TIP3    H149306   4.188   6.654  14.175
 9297TIP3    H249307   4.190   6.503  14.190
 9298TIP3   OH249308   5.575   7.152  13.917
 9298TIP3    H149309   5.586   7.232  13.866
 9298TIP3    H249310   5.658   7.105  13.906
 9299TIP3   OH249311   3.849   6.826  15.136
 9299TIP3    H149312   3.796   6.838  15.058
 9299TIP3    H249313   3.864   6.732  15.141
 9300TIP3   OH249314   3.841   7.084  14.853
 9300TIP3    H149315   3.935   7.099  14.866
 9300TIP3    H249316   3.802   7.171  14.864
 9301TIP3   OH249317   5.649   7.109  15.447
 9301TIP3    H149318   5.620   7.022  15.421
 9301TIP3    H249319   5.570   7.164  15.439
 9302TIP3   OH249320   4.710   7.099  15.278
 9302TIP3    H149321   4.692   7.169  15.340
 9302TIP3    H249322   4.627   7.053  15.269
 9303TIP3   OH249323   5.323   6.306  15.430
 9303TIP3    H149324   5.263   6.344  15.366
 9303TIP3    H249325   5.330   6.214  15.405
 9304TIP3   OH249326   4.062   6.983  15.213
 9304TIP3    H149327   4.086   6.937  15.293
 9304TIP3    H249328   3.985   6.937  15.180
 9305TIP3   OH249329   4.319   5.800  14.831
 9305TIP3    H149330   4.245   5.789  14.772
 9305TIP3    H249331   4.293   5.872  14.889
 9306TIP3   OH249332   4.797   5.767  15.172
 9306TIP3    H149333   4.842   5.723  15.244
 9306TIP3    H249334   4.705   5.761  15.194
 9307TIP3   OH249335   5.086   6.154  15.237
 9307TIP3    H149336   5.023   6.138  15.307
 9307TIP3    H249337   5.093   6.249  15.232
 9308TIP3   OH249338   5.198   6.607  13.830
 9308TIP3    H149339   5.173   6.616  13.738
 9308TIP3    H249340   5.290   6.632  13.832
 9309TIP3   OH249341   4.754   5.995  13.899
 9309TIP3    H149342   4.690   6.000  13.969
 9309TIP3    H249343   4.715   5.936  13.835
 9310TIP3   OH249344   4.337   6.306  14.956
 9310TIP3    H149345   4.267   6.308  15.022
 9310TIP3    H249346   4.342   6.396  14.925
 9311TIP3   OH249347   4.332   6.318  14.434
 9311TIP3    H149348   4.237   6.310  14.428
 9311TIP3    H249349   4.364   6.304  14.345
 9312TIP3   OH249350   4.879   6.352  14.314
 9312TIP3    H149351   4.850   6.437  14.281
 9312TIP3    H249352   4.947   6.324  14.252
 9313TIP3   OH249353   4.797   6.358  15.435
 9313TIP3    H149354   4.743   6.287  15.470
 9313TIP3    H249355   4.882   6.347  15.478
 9314TIP3   OH249356   4.978   6.293  14.569
 9314TIP3    H149357   4.935   6.342  14.499
 9314TIP3    H249358   5.023   6.222  14.524
 9315TIP3   OH249359   4.114   6.321  15.119
 9315TIP3    H149360   4.101   6.373  15.198
 9315TIP3    H249361   4.069   6.238  15.136
 9316TIP3   OH249362   4.441   6.063  13.797
 9316TIP3    H149363   4.399   6.050  13.883
 9316TIP3    H249364   4.383   6.123  13.751
 9317TIP3   OH249365   3.763   6.015  14.522
 9317TIP3    H149366   3.831   6.028  14.588
 9317TIP3    H249367   3.811   6.011  14.439
 9318TIP3   OH249368   3.828   6.110  14.025
 9318TIP3    H149369   3.894   6.149  13.968
 9318TIP3    H249370   3.767   6.182  14.043
 9319TIP3   OH249371   4.930   6.437  15.040
 9319TIP3    H149372   4.964   6.380  14.971
 9319TIP3    H249373   4.866   6.383  15.086
 9320TIP3   OH249374   4.624   6.047  14.532
 9320TIP3    H149375   4.531   6.052  14.552
 9320TIP3    H249376   4.665   6.020  14.615
 9321TIP3   OH249377   4.071   6.232  14.406
 9321TIP3    H149378   3.996   6.263  14.355
 9321TIP3    H249379   4.087   6.143  14.372
 9322TIP3   OH249380   4.406   6.248  14.180
 9322TIP3    H149381   4.501   6.238  14.182
 9322TIP3    H249382   4.389   6.288  14.095
 9323TIP3   OH249383   5.011   5.988  14.827
 9323TIP3    H149384   4.977   5.989  14.916
 9323TIP3    H249385   4.942   5.946  14.776
 9324TIP3   OH249386   4.351   6.339  13.929
 9324TIP3    H149387   4.297   6.313  13.854
 9324TIP3    H249388   4.426   6.382  13.890
 9325TIP3   OH249389   4.129   6.819  15.431
 9325TIP3    H149390   4.195   6.823  15.500
 9325TIP3    H249391   4.045   6.822  15.477
 9326TIP3   OH249392   4.708   6.365  14.723
 9326TIP3    H149393   4.776   6.314  14.679
 9326TIP3    H249394   4.677   6.308  14.794
 9327TIP3   OH249395   4.181   5.966  14.362
 9327TIP3    H149396   4.128   5.890  14.386
 9327TIP3    H249397   4.210   5.948  14.273
 9328TIP3   OH249398   4.600   6.221  14.943
 9328TIP3    H149399   4.513   6.260  14.953
 9328TIP3    H249400   4.647   6.247  15.022
 9329TIP3   OH249401   4.623   6.792  14.138
 9329TIP3    H149402   4.555   6.752  14.085
 9329TIP3    H249403   4.580   6.812  14.221
 9330TIP3   OH249404   5.345   6.746  14.975
 9330TIP3    H149405   5.408   6.797  14.924
 9330TIP3    H249406   5.275   6.727  14.913
 9331TIP3   OH249407   5.003   6.042  13.998
 9331TIP3    H149408   4.916   6.039  13.958
 9331TIP3    H249409   5.018   6.135  14.016
 9332TIP3   OH249410   4.829   6.841  15.261
 9332TIP3    H149411   4.824   6.791  15.343
 9332TIP3    H249412   4.780   6.921  15.280
 9333TIP3   OH249413   5.080   6.284  14.131
 9333TIP3    H149414   5.172   6.271  14.156
 9333TIP3    H249415   5.079   6.370  14.088
 9334TIP3   OH249416   4.172   6.755  14.694
 9334TIP3    H149417   4.217   6.735  14.613
 9334TIP3    H249418   4.181   6.675  14.747
 9335TIP3   OH249419   4.837   6.950  14.068
 9335TIP3    H149420   4.808   7.041  14.078
 9335TIP3    H249421   4.758   6.898  14.087
 9336TIP3   OH249422   3.868   6.553  15.219
 9336TIP3    H149423   3.834   6.516  15.300
 9336TIP3    H249424   3.798   6.539  15.155
 9337TIP3   OH249425   4.574   6.535  15.459
 9337TIP3    H149426   4.510   6.500  15.397
 9337TIP3    H249427   4.656   6.491  15.437
 9338TIP3   OH249428   4.987   7.123  15.230
 9338TIP3    H149429   4.894   7.105  15.241
 9338TIP3    H249430   5.023   7.119  15.319
 9339TIP3   OH249431   5.540   6.328  14.082
 9339TIP3    H149432   5.497   6.304  14.000
 9339TIP3    H249433   5.569   6.418  14.069
 9340TIP3   OH249434   5.573   6.858  15.354
 9340TIP3    H149435   5.490   6.883  15.312
 9340TIP3    H249436   5.635   6.852  15.281
 9341TIP3   OH249437   5.447   7.130  14.161
 9341TIP3    H149438   5.399   7.048  14.161
 9341TIP3    H249439   5.488   7.134  14.075
 9342TIP3   OH249440   5.138   6.674  14.789
 9342TIP3    H149441   5.044   6.663  14.781
 9342TIP3    H249442   5.175   6.599  14.743
 9343TIP3   OH249443   4.431   7.104  14.475
 9343TIP3    H149444   4.477   7.181  14.442
 9343TIP3    H249445   4.349   7.138  14.510
 9344TIP3   OH249446   3.984   6.549  13.933
 9344TIP3    H149447   4.028   6.622  13.975
 9344TIP3    H249448   3.892   6.557  13.959
 9345TIP3   OH249449   4.483   6.860  14.359
 9345TIP3    H149450   4.469   6.946  14.397
 9345TIP3    H249451   4.422   6.803  14.406
 9346TIP3   OH249452   4.582   7.214  15.016
 9346TIP3    H149453   4.636   7.268  14.957
 9346TIP3    H249454   4.646   7.162  15.065
 9347TIP3   OH249455   4.909   6.862  14.997
 9347TIP3    H149456   4.881   6.847  15.087
 9347TIP3    H249457   4.956   6.782  14.972
 9348TIP3   OH249458   5.192   7.003  13.923
 9348TIP3    H149459   5.199   6.953  14.005
 9348TIP3    H249460   5.109   6.973  13.885
 9349TIP3   OH249461   3.992   6.063  15.159
 9349TIP3    H149462   3.903   6.094  15.142
 9349TIP3    H249463   3.980   5.986  15.216
 9350TIP3   OH249464   5.288   6.874  14.169
 9350TIP3    H149465   5.236   6.798  14.196
 9350TIP3    H249466   5.378   6.841  14.166
 9351TIP3   OH249467   4.046   7.235  15.046
 9351TIP3    H149468   4.023   7.163  15.105
 9351TIP3    H249469   3.972   7.296  15.054
 9352TIP3   OH249470   4.589   7.051  13.770
 9352TIP3    H149471   4.588   6.971  13.717
 9352TIP3    H249472   4.548   7.025  13.853
 9353TIP3   OH249473   4.454   7.034  14.013
 9353TIP3    H149474   4.482   6.980  14.086
 9353TIP3    H249475   4.467   7.124  14.043
 9354TIP3   OH249476   4.089   6.767  14.075
 9354TIP3    H149477   4.015   6.811  14.116
 9354TIP3    H249478   4.131   6.835  14.022
 9355TIP3   OH249479   4.913   6.002  15.080
 9355TIP3    H149480   4.975   6.035  15.145
 9355TIP3    H249481   4.875   5.924  15.121
 9356TIP3   OH249482   4.984   5.948  14.257
 9356TIP3    H149483   4.985   5.982  14.167
 9356TIP3    H249484   5.028   6.015  14.308
 9357TIP3   OH249485   4.758   7.216  14.103
 9357TIP3    H149486   4.667   7.248  14.103
 9357TIP3    H249487   4.788   7.231  14.013
 9358TIP3   OH249488   4.669   6.173  14.289
 9358TIP3    H149489   4.740   6.237  14.295
 9358TIP3    H249490   4.652   6.148  14.380
 9359TIP3   OH249491   4.764   6.262  15.170
 9359TIP3    H149492   4.769   6.290  15.261
 9359TIP3    H249493   4.797   6.172  15.170
 9360TIP3   OH249494   4.744   5.856  14.362
 9360TIP3    H149495   4.708   5.933  14.405
 9360TIP3    H249496   4.825   5.887  14.321
 9361TIP3   OH249497   4.493  -0.004  14.080
 9361TIP3    H149498   4.471   0.044  14.000
 9361TIP3    H249499   4.454   0.049  14.150
 9362TIP3   OH249500   4.326   6.006  14.051
 9362TIP3    H149501   4.322   6.091  14.093
 9362TIP3    H249502   4.414   5.974  14.072
 9363TIP3   OH249503   5.338   6.068  15.284
 9363TIP3    H149504   5.245   6.081  15.265
 9363TIP3    H249505   5.377   6.047  15.199
 9364TIP3   OH249506   5.216   6.427  14.666
 9364TIP3    H149507   5.131   6.389  14.643
 9364TIP3    H249508   5.257   6.362  14.723
 9365TIP3   OH249509   4.181   6.982  13.915
 9365TIP3    H149510   4.253   7.032  13.954
 9365TIP3    H249511   4.224   6.924  13.852
 9366TIP3   OH249512   3.966   6.278  13.860
 9366TIP3    H149513   3.983   6.369  13.886
 9366TIP3    H249514   3.920   6.286  13.776
 9367TIP3   OH249515   4.075   5.770  14.706
 9367TIP3    H149516   4.065   5.763  14.611
 9367TIP3    H249517   4.036   5.689  14.740
 9368TIP3   OH249518   3.905   7.190  14.262
 9368TIP3    H149519   3.810   7.179  14.255
 9368TIP3    H249520   3.927   7.253  14.194
 9369TIP3   OH249521   4.410   7.257  15.599
 9369TIP3    H149522   4.463   7.189  15.641
 9369TIP3    H249523   4.362   7.210  15.530
 9370TIP3   OH249524   4.799   7.231  13.831
 9370TIP3    H149525   4.736   7.169  13.793
 9370TIP3    H249526   4.791   7.309  13.776
 9371TIP3   OH249527   5.058   7.113  15.495
 9371TIP3    H149528   5.004   7.046  15.537
 9371TIP3    H249529   5.129   7.128  15.558
 9372TIP3   OH249530   5.268   7.261  13.863
 9372TIP3    H149531   5.244   7.169  13.879
 9372TIP3    H249532   5.303   7.261  13.773
 9373TIP3   OH249533   3.885   6.810  15.560
 9373TIP3    H149534   3.888   6.714  15.558
 9373TIP3    H249535   3.810   6.832  15.504
 9374TIP3   OH249536   4.323   6.799  13.772
 9374TIP3    H149537   4.352   6.751  13.850
 9374TIP3    H249538   4.401   6.807  13.718
 9375TIP3   OH249539   4.547   6.813  15.500
 9375TIP3    H149540   4.525   6.850  15.415
 9375TIP3    H249541   4.566   6.721  15.482
 9376TIP3   OH249542   4.953   6.921  13.813
 9376TIP3    H149543   4.899   6.926  13.892
 9376TIP3    H249544   4.923   6.841  13.769
 9377TIP3   OH249545   5.117   6.804  15.286
 9377TIP3    H149546   5.194   6.854  15.258
 9377TIP3    H249547   5.043   6.858  15.259
 9378TIP3   OH249548   3.968   6.544  15.532
 9378TIP3    H149549   4.047   6.529  15.481
 9378TIP3    H249550   3.995   6.537  15.623
 9379TIP3   OH249551   4.425   6.660  13.997
 9379TIP3    H149552   4.370   6.613  14.059
 9379TIP3    H249553   4.470   6.591  13.948
 9380TIP3   OH249554   4.386   6.439  15.273
 9380TIP3    H149555   4.305   6.490  15.268
 9380TIP3    H249556   4.443   6.477  15.206
 9381TIP3   OH249557   4.569   6.482  13.840
 9381TIP3    H149558   4.563   6.507  13.748
 9381TIP3    H249559   4.662   6.469  13.856
 9382TIP3   OH249560   4.891   6.664  15.558
 9382TIP3    H149561   4.971   6.624  15.523
 9382TIP3    H249562   4.853   6.595  15.614
 9383TIP3   OH249563   5.463   6.680  13.795
 9383TIP3    H149564   5.462   6.659  13.701
 9383TIP3    H249565   5.460   6.775  13.798
 9384TIP3   OH249566   4.432   6.177  15.337
 9384TIP3    H149567   4.437   6.120  15.260
 9384TIP3    H249568   4.417   6.264  15.302
 9385TIP3   OH249569   4.459   6.019  15.102
 9385TIP3    H149570   4.511   6.066  15.037
 9385TIP3    H249571   4.371   6.016  15.065
 9386TIP3   OH249572   4.579   6.547  15.114
 9386TIP3    H149573   4.674   6.550  15.104
 9386TIP3    H249574   4.547   6.624  15.068
 9387TIP3   OH249575   5.018   6.300  15.611
 9387TIP3    H149576   5.019   6.231  15.677
 9387TIP3    H249577   5.110   6.313  15.588
 9388TIP3   OH249578   5.162   6.607  15.461
 9388TIP3    H149579   5.138   6.682  15.407
 9388TIP3    H249580   5.257   6.605  15.459
 9389TIP3   OH249581   4.265   6.232  15.562
 9389TIP3    H149582   4.184   6.185  15.544
 9389TIP3    H249583   4.313   6.229  15.479
 9390TIP3   OH249584   4.515   5.754  15.174
 9390TIP3    H149585   4.496   5.845  15.152
 9390TIP3    H249586   4.446   5.704  15.131
 9391TIP3   OH249587   4.644   6.144  15.511
 9391TIP3    H149588   4.600   6.118  15.591
 9391TIP3    H249589   4.574   6.150  15.445
 9392TIP3   OH249590   4.901   6.070  15.415
 9392TIP3    H149591   4.816   6.078  15.458
 9392TIP3    H249592   4.959   6.033  15.481
 9393TIP3   OH249593   5.092   5.969  15.600
 9393TIP3    H149594   5.085   5.873  15.605
 9393TIP3    H249595   5.062   5.999  15.686
 9394TIP3   OH249596   4.057   6.047  15.512
 9394TIP3    H149597   4.060   5.975  15.449
 9394TIP3    H249598   4.060   6.005  15.598
 9395TIP3   OH249599   4.516   5.674  15.438
 9395TIP3    H149600   4.572   5.597  15.429
 9395TIP3    H249601   4.508   5.709  15.349
 9396TIP3   OH249602   4.586   5.836  15.655
 9396TIP3    H149603   4.568   5.783  15.578
 9396TIP3    H249604   4.527   5.911  15.647
 9397TIP3   OH249605   3.905   7.010  13.886
 9397TIP3    H149606   4.000   7.006  13.898
 9397TIP3    H249607   3.888   6.944  13.818
 9398TIP3   OH249608   5.368   6.926  15.680
 9398TIP3    H149609   5.288   6.945  15.729
 9398TIP3    H249610   5.426   7.000  15.699
 9399TIP3   OH249611   5.548   6.781  14.190
 9399TIP3    H149612   5.625   6.837  14.185
 9399TIP3    H249613   5.566   6.721  14.262
 9400TIP3   OH249614   5.595   6.588  14.382
 9400TIP3    H149615   5.510   6.554  14.409
 9400TIP3    H249616   5.644   6.598  14.463
 9401TIP3   OH249617   5.583   6.866  14.895
 9401TIP3    H149618   5.632   6.794  14.854
 9401TIP3    H249619   5.625   6.945  14.861
 9402TIP3   OH249620   5.322   7.166  15.088
 9402TIP3    H149621   5.227   7.173  15.100
 9402TIP3    H249622   5.333   7.147  14.995
 9403TIP3   OH249623   5.610   6.584  14.005
 9403TIP3    H149624   5.563   6.606  13.925
 9403TIP3    H249625   5.586   6.653  14.066
 9404TIP3   OH249626   5.433   6.287  13.838
 9404TIP3    H149627   5.421   6.347  13.765
 9404TIP3    H249628   5.408   6.201  13.802
 9405TIP3   OH249629   5.348   6.464  14.424
 9405TIP3    H149630   5.343   6.376  14.387
 9405TIP3    H249631   5.306   6.456  14.510
 9406TIP3   OH249632   3.836   6.614  14.843
 9406TIP3    H149633   3.847   6.611  14.748
 9406TIP3    H249634   3.924   6.599  14.878
 9407TIP3   OH249635   5.438   6.629  15.441
 9407TIP3    H149636   5.494   6.557  15.410
 9407TIP3    H249637   5.479   6.708  15.406
 9408TIP3   OH249638   5.578   6.403  15.382
 9408TIP3    H149639   5.491   6.365  15.399
 9408TIP3    H249640   5.640   6.334  15.406
 9409TIP3   OH249641   5.357   6.041  13.749
 9409TIP3    H149642   5.396   5.979  13.811
 9409TIP3    H249643   5.268   6.010  13.737
 9410TIP3   OH249644   5.343   6.218  14.260
 9410TIP3    H149645   5.371   6.126  14.260
 9410TIP3    H249646   5.407   6.262  14.204
 9411TIP3   OH249647   5.364   6.235  14.817
 9411TIP3    H149648   5.455   6.248  14.794
 9411TIP3    H249649   5.358   6.258  14.910
 9412TIP3   OH249650   5.392   6.326  15.084
 9412TIP3    H149651   5.312   6.358  15.127
 9412TIP3    H249652   5.444   6.405  15.070
 9413TIP3   OH249653   3.826   6.168  15.424
 9413TIP3    H149654   3.913   6.143  15.454
 9413TIP3    H249655   3.773   6.088  15.431
 9414TIP3   OH249656   5.607   5.744  15.599
 9414TIP3    H149657   5.681   5.686  15.583
 9414TIP3    H249658   5.617   5.816  15.537
 9415TIP3   OH249659   5.399   5.943  14.283
 9415TIP3    H149660   5.415   5.904  14.368
 9415TIP3    H249661   5.332   5.887  14.243
 9416TIP3   OH249662   3.942   6.013  14.738
 9416TIP3    H149663   3.982   5.926  14.734
 9416TIP3    H249664   4.016   6.073  14.752
 9417TIP3   OH249665   3.752   6.306  14.809
 9417TIP3    H149666   3.821   6.294  14.744
 9417TIP3    H249667   3.767   6.393  14.846
 9418TIP3   OH249668   5.562   5.942  15.418
 9418TIP3    H149669   5.487   5.981  15.463
 9418TIP3    H249670   5.523   5.891  15.347
 9419TIP3   OH249671   5.546   5.911  13.930
 9419TIP3    H149672   5.592   5.863  13.861
 9419TIP3    H249673   5.606   5.982  13.954
 9420TIP3   OH249674   3.808   5.941  14.238
 9420TIP3    H149675   3.712   5.932  14.242
 9420TIP3    H249676   3.822   6.004  14.167
 9421TIP3   OH249677   3.805   5.774  15.060
 9421TIP3    H149678   3.736   5.769  15.125
 9421TIP3    H249679   3.777   5.844  15.000
 9422TIP3   OH249680   4.031   7.160  15.518
 9422TIP3    H149681   3.951   7.161  15.467
 9422TIP3    H249682   4.006   7.120  15.602
 9423TIP3   OH249683   4.312   7.260  15.126
 9423TIP3    H149684   4.226   7.255  15.085
 9423TIP3    H249685   4.372   7.219  15.063
 9424TIP3   OH249686   5.457   5.751  15.233
 9424TIP3    H149687   5.395   5.784  15.169
 9424TIP3    H249688   5.472   5.660  15.207
 9425TIP3   OH249689   4.229   7.212  14.633
 9425TIP3    H149690   4.207   7.139  14.691
 9425TIP3    H249691   4.261   7.280  14.691
 9426TIP3   OH249692   4.790   5.865  14.689
 9426TIP3    H149693   4.720   5.809  14.723
 9426TIP3    H249694   4.812   5.826  14.604
 9427TIP3   OH249695   5.322   5.725  14.702
 9427TIP3    H149696   5.345   5.818  14.700
 9427TIP3    H249697   5.244   5.719  14.646
 9428TIP3   OH249698   5.524   5.811  14.503
 9428TIP3    H149699   5.584   5.774  14.439
 9428TIP3    H249700   5.559   5.898  14.522
 9429TIP3   OH249701   4.040   5.737  14.434
 9429TIP3    H149702   3.948   5.724  14.411
 9429TIP3    H249703   4.081   5.652  14.417
 9430TIP3   OH249704   3.964   5.753  14.071
 9430TIP3    H149705   4.007   5.806  14.003
 9430TIP3    H249706   3.915   5.817  14.123
 9431TIP3   OH249707   4.531   5.698  14.459
 9431TIP3    H149708   4.599   5.753  14.420
 9431TIP3    H249709   4.539   5.713  14.553
 9432TIP3   OH249710   5.112   5.702  14.525
 9432TIP3    H149711   5.062   5.756  14.465
 9432TIP3    H249712   5.047   5.649  14.570
 9433TIP3   OH249713   5.195   5.771  14.196
 9433TIP3    H149714   5.119   5.829  14.201
 9433TIP3    H249715   5.159   5.683  14.201
 9434TIP3   OH249716   4.130   5.893  13.880
 9434TIP3    H149717   4.181   5.839  13.820
 9434TIP3    H249718   4.196   5.931  13.939
 9435TIP3   OH249719   4.590   5.972  14.122
 9435TIP3    H149720   4.617   5.891  14.167
 9435TIP3    H249721   4.621   6.042  14.180
 9436TIP3   OH249722   4.050   5.794  15.380
 9436TIP3    H149723   3.988   5.733  15.421
 9436TIP3    H249724   4.134   5.775  15.424
 9437TIP3   OH249725   4.256   5.715  15.549
 9437TIP3    H149726   4.344   5.694  15.519
 9437TIP3    H249727   4.228   5.637  15.598
 9438TIP3   OH249728   5.101   5.689  15.590
 9438TIP3    H149729   5.093   5.642  15.673
 9438TIP3    H249730   5.193   5.678  15.566
 9439TIP3   OH249731   5.425   7.280  15.446
 9439TIP3    H149732   5.333   7.255  15.456
 9439TIP3    H249733   5.428   7.326  15.362
 9440TIP3   OH249734   6.824   6.671  14.432
 9440TIP3    H149735   6.818   6.766  14.426
 9440TIP3    H249736   6.767   6.639  14.363
 9441TIP3   OH249737   6.701   6.610  14.793
 9441TIP3    H149738   6.714   6.555  14.870
 9441TIP3    H249739   6.704   6.549  14.719
 9442TIP3   OH249740   5.954   6.534  14.949
 9442TIP3    H149741   5.964   6.461  15.011
 9442TIP3    H249742   6.044   6.552  14.920
 9443TIP3   OH249743   7.108   6.896  14.654
 9443TIP3    H149744   7.059   6.829  14.703
 9443TIP3    H249745   7.124   6.966  14.718
 9444TIP3   OH249746   6.063   6.989  14.765
 9444TIP3    H149747   6.043   6.900  14.738
 9444TIP3    H249748   6.158   6.989  14.778
 9445TIP3   OH249749   5.719   6.353  14.299
 9445TIP3    H149750   5.690   6.440  14.327
 9445TIP3    H249751   5.663   6.332  14.225
 9446TIP3   OH249752   5.789   6.584  14.587
 9446TIP3    H149753   5.820   6.495  14.599
 9446TIP3    H249754   5.868   6.638  14.590
 9447TIP3   OH249755   6.564   6.853  14.833
 9447TIP3    H149756   6.595   6.773  14.789
 9447TIP3    H249757   6.638   6.882  14.886
 9448TIP3   OH249758   6.856   6.280  14.843
 9448TIP3    H149759   6.874   6.187  14.834
 9448TIP3    H249760   6.910   6.322  14.776
 9449TIP3   OH249761   6.200   6.068  14.553
 9449TIP3    H149762   6.213   6.158  14.521
 9449TIP3    H249763   6.146   6.026  14.487
 9450TIP3   OH249764   6.990   6.110  14.424
 9450TIP3    H149765   7.033   6.053  14.488
 9450TIP3    H249766   7.061   6.141  14.368
 9451TIP3   OH249767   5.868   6.322  14.642
 9451TIP3    H149768   5.935   6.285  14.700
 9451TIP3    H249769   5.890   6.288  14.556
 9452TIP3   OH249770   6.348   6.460  14.625
 9452TIP3    H149771   6.431   6.418  14.644
 9452TIP3    H249772   6.306   6.402  14.561
 9453TIP3   OH249773   6.093   5.995  14.990
 9453TIP3    H149774   6.071   6.057  14.921
 9453TIP3    H249775   6.023   6.005  15.055
 9454TIP3   OH249776   6.785   6.923  14.342
 9454TIP3    H149777   6.791   6.933  14.247
 9454TIP3    H249778   6.753   7.008  14.373
 9455TIP3   OH249779   6.351   6.761  14.980
 9455TIP3    H149780   6.296   6.832  15.013
 9455TIP3    H249781   6.420   6.805  14.929
 9456TIP3   OH249782   7.080   5.991  14.660
 9456TIP3    H149783   7.004   5.995  14.719
 9456TIP3    H249784   7.146   6.046  14.702
 9457TIP3   OH249785   6.063   6.166  14.774
 9457TIP3    H149786   6.123   6.221  14.823
 9457TIP3    H249787   6.117   6.127  14.705
 9458TIP3   OH249788   6.194   6.964  15.086
 9458TIP3    H149789   6.205   7.056  15.061
 9458TIP3    H249790   6.103   6.958  15.114
 9459TIP3   OH249791   5.776   6.934  14.155
 9459TIP3    H149792   5.772   6.963  14.064
 9459TIP3    H249793   5.809   7.011  14.203
 9460TIP3   OH249794   7.125   7.119  14.839
 9460TIP3    H149795   7.036   7.123  14.872
 9460TIP3    H249796   7.136   7.199  14.787
 9461TIP3   OH249797   7.134   5.906  14.955
 9461TIP3    H149798   7.043   5.921  14.928
 9461TIP3    H249799   7.184   5.976  14.912
 9462TIP3   OH249800   6.449   5.685  14.738
 9462TIP3    H149801   6.426   5.593  14.747
 9462TIP3    H249802   6.372   5.733  14.771
 9463TIP3   OH249803   6.965   7.263  14.472
 9463TIP3    H149804   7.003   7.177  14.456
 9463TIP3    H249805   7.029   7.324  14.434
 9464TIP3   OH249806   7.103   7.035  14.408
 9464TIP3    H149807   7.101   6.978  14.331
 9464TIP3    H249808   7.108   6.975  14.483
 9465TIP3   OH249809   7.231   6.894  15.248
 9465TIP3    H149810   7.237   6.835  15.173
 9465TIP3    H249811   7.237   6.982  15.210
 9466TIP3   OH249812   6.703   6.611  14.187
 9466TIP3    H149813   6.639   6.679  14.166
 9466TIP3    H249814   6.771   6.620  14.120
 9467TIP3   OH249815   6.746   6.447  13.866
 9467TIP3    H149816   6.805   6.480  13.934
 9467TIP3    H249817   6.803   6.395  13.809
 9468TIP3   OH249818   7.055   6.607  14.294
 9468TIP3    H149819   6.980   6.637  14.345
 9468TIP3    H249820   7.104   6.551  14.354
 9469TIP3   OH249821   6.996   6.458  15.174
 9469TIP3    H149822   7.011   6.547  15.205
 9469TIP3    H249823   6.918   6.465  15.119
 9470TIP3   OH249824   6.206   6.660  14.474
 9470TIP3    H149825   6.182   6.626  14.388
 9470TIP3    H249826   6.268   6.596  14.509
 9471TIP3   OH249827   6.345   7.010  14.745
 9471TIP3    H149828   6.353   7.030  14.652
 9471TIP3    H249829   6.426   6.964  14.767
 9472TIP3   OH249830   6.211   6.570  14.841
 9472TIP3    H149831   6.265   6.543  14.766
 9472TIP3    H249832   6.265   6.636  14.886
 9473TIP3   OH249833   6.880   7.120  14.960
 9473TIP3    H149834   6.890   7.136  15.054
 9473TIP3    H249835   6.843   7.031  14.955
 9474TIP3   OH249836   6.354   6.975  15.309
 9474TIP3    H149837   6.296   7.040  15.350
 9474TIP3    H249838   6.310   6.951  15.228
 9475TIP3   OH249839   6.947   6.550  14.043
 9475TIP3    H149840   6.988   6.576  14.126
 9475TIP3    H249841   7.000   6.592  13.976
 9476TIP3   OH249842   6.029   6.584  15.283
 9476TIP3    H149843   6.038   6.671  15.320
 9476TIP3    H249844   5.942   6.583  15.243
 9477TIP3   OH249845   6.709   7.185  14.387
 9477TIP3    H149846   6.793   7.224  14.413
 9477TIP3    H249847   6.696   7.214  14.297
 9478TIP3   OH249848   6.168   7.169  15.375
 9478TIP3    H149849   6.165   7.202  15.285
 9478TIP3    H249850   6.076   7.160  15.400
 9479TIP3   OH249851   6.118   6.572  14.220
 9479TIP3    H149852   6.080   6.651  14.181
 9479TIP3    H249853   6.072   6.500  14.178
 9480TIP3   OH249854   5.731   6.833  15.134
 9480TIP3    H149855   5.683   6.844  15.052
 9480TIP3    H249856   5.749   6.739  15.138
 9481TIP3   OH249857   5.765   7.064  14.822
 9481TIP3    H149858   5.849   7.039  14.785
 9481TIP3    H249859   5.787   7.125  14.892
 9482TIP3   OH249860   6.602   7.092  15.298
 9482TIP3    H149861   6.587   7.166  15.358
 9482TIP3    H249862   6.517   7.047  15.295
 9483TIP3   OH249863   7.168   6.368  15.431
 9483TIP3    H149864   7.171   6.359  15.336
 9483TIP3    H249865   7.248   6.325  15.462
 9484TIP3   OH249866   5.946   6.991  15.205
 9484TIP3    H149867   5.970   6.946  15.287
 9484TIP3    H249868   5.868   6.943  15.174
 9485TIP3   OH249869   6.204   5.797  14.826
 9485TIP3    H149870   6.129   5.791  14.768
 9485TIP3    H249871   6.183   5.870  14.885
 9486TIP3   OH249872   6.681   5.776  15.172
 9486TIP3    H149873   6.729   5.722  15.235
 9486TIP3    H249874   6.589   5.762  15.193
 9487TIP3   OH249875   6.995   6.166  15.247
 9487TIP3    H149876   6.928   6.153  15.314
 9487TIP3    H249877   6.990   6.259  15.225
 9488TIP3   OH249878   7.105   6.676  13.861
 9488TIP3    H149879   7.087   6.655  13.769
 9488TIP3    H249880   7.113   6.772  13.862
 9489TIP3   OH249881   6.607   6.003  13.931
 9489TIP3    H149882   6.541   6.067  13.903
 9489TIP3    H249883   6.594   5.928  13.874
 9490TIP3   OH249884   6.220   6.314  14.947
 9490TIP3    H149885   6.156   6.315  15.018
 9490TIP3    H249886   6.224   6.405  14.917
 9491TIP3   OH249887   6.208   6.313  14.435
 9491TIP3    H149888   6.113   6.317  14.423
 9491TIP3    H249889   6.243   6.304  14.347
 9492TIP3   OH249890   6.755   6.359  14.284
 9492TIP3    H149891   6.737   6.447  14.250
 9492TIP3    H249892   6.828   6.328  14.230
 9493TIP3   OH249893   6.679   6.364  15.424
 9493TIP3    H149894   6.635   6.291  15.466
 9493TIP3    H249895   6.767   6.364  15.461
 9494TIP3   OH249896   6.812   6.286  14.547
 9494TIP3    H149897   6.791   6.337  14.469
 9494TIP3    H249898   6.877   6.223  14.517
 9495TIP3   OH249899   6.005   6.316  15.122
 9495TIP3    H149900   6.015   6.358  15.207
 9495TIP3    H249901   5.963   6.232  15.142
 9496TIP3   OH249902   6.341   6.073  13.810
 9496TIP3    H149903   6.291   6.049  13.888
 9496TIP3    H249904   6.282   6.129  13.760
 9497TIP3   OH249905   5.653   6.043  14.533
 9497TIP3    H149906   5.711   6.049  14.608
 9497TIP3    H249907   5.699   6.089  14.463
 9498TIP3   OH249908   5.717   6.114  14.036
 9498TIP3    H149909   5.782   6.152  13.978
 9498TIP3    H249910   5.655   6.185  14.053
 9499TIP3   OH249911   6.752   6.451  15.021
 9499TIP3    H149912   6.795   6.393  14.958
 9499TIP3    H249913   6.704   6.391  15.079
 9500TIP3   OH249914   6.517   6.066  14.545
 9500TIP3    H149915   6.518   6.149  14.593
 9500TIP3    H249916   6.578   6.010  14.592
 9501TIP3   OH249917   5.941   6.229  14.389
 9501TIP3    H149918   5.866   6.279  14.355
 9501TIP3    H249919   5.960   6.165  14.322
 9502TIP3   OH249920   6.286   6.241  14.181
 9502TIP3    H149921   6.380   6.240  14.198
 9502TIP3    H249922   6.276   6.287  14.098
 9503TIP3   OH249923   6.874   5.994  14.847
 9503TIP3    H149924   6.837   6.007  14.934
 9503TIP3    H249925   6.802   5.960  14.795
 9504TIP3   OH249926   6.243   6.342  13.931
 9504TIP3    H149927   6.191   6.316  13.855
 9504TIP3    H249928   6.320   6.384  13.894
 9505TIP3   OH249929   6.010   6.827  15.428
 9505TIP3    H149930   6.077   6.826  15.496
 9505TIP3    H249931   5.927   6.829  15.476
 9506TIP3   OH249932   6.571   6.300  14.688
 9506TIP3    H149933   6.662   6.298  14.658
 9506TIP3    H249934   6.575   6.269  14.779
 9507TIP3   OH249935   6.146   5.922  14.327
 9507TIP3    H149936   6.077   5.861  14.353
 9507TIP3    H249937   6.138   5.927  14.232
 9508TIP3   OH249938   6.477   6.203  14.948
 9508TIP3    H149939   6.396   6.254  14.949
 9508TIP3    H249940   6.526   6.234  15.024
 9509TIP3   OH249941   6.505   6.806  14.127
 9509TIP3    H149942   6.438   6.763  14.075
 9509TIP3    H249943   6.464   6.820  14.213
 9510TIP3   OH249944   7.187   6.749  15.007
 9510TIP3    H149945   7.259   6.727  14.947
 9510TIP3    H249946   7.108   6.739  14.955
 9511TIP3   OH249947   6.881   6.044  13.981
 9511TIP3    H149948   6.786   6.047  13.967
 9511TIP3    H249949   6.904   6.131  14.013
 9512TIP3   OH249950   6.729   6.833  15.270
 9512TIP3    H149951   6.717   6.782  15.350
 9512TIP3    H249952   6.688   6.917  15.288
 9513TIP3   OH249953   6.965   6.279  14.118
 9513TIP3    H149954   7.049   6.262  14.161
 9513TIP3    H249955   6.975   6.365  14.077
 9514TIP3   OH249956   6.034   6.722  14.676
 9514TIP3    H149957   6.089   6.717  14.599
 9514TIP3    H249958   6.080   6.671  14.742
 9515TIP3   OH249959   6.727   6.951  14.063
 9515TIP3    H149960   6.704   7.043  14.076
 9515TIP3    H249961   6.647   6.903  14.083
 9516TIP3   OH249962   5.753   6.566  15.221
 9516TIP3    H149963   5.731   6.528  15.306
 9516TIP3    H249964   5.681   6.541  15.164
 9517TIP3   OH249965   6.460   6.535  15.452
 9517TIP3    H149966   6.398   6.499  15.388
 9517TIP3    H249967   6.543   6.494  15.429
 9518TIP3   OH249968   6.868   7.127  15.235
 9518TIP3    H149969   6.775   7.108  15.249
 9518TIP3    H249970   6.907   7.121  15.322
 9519TIP3   OH249971   6.971   6.689  14.829
 9519TIP3    H149972   6.881   6.687  14.797
 9519TIP3    H249973   7.010   6.607  14.798
 9520TIP3   OH249974   6.319   7.093  14.479
 9520TIP3    H149975   6.368   7.170  14.449
 9520TIP3    H249976   6.229   7.124  14.490
 9521TIP3   OH249977   5.879   6.548  13.936
 9521TIP3    H149978   5.923   6.623  13.976
 9521TIP3    H249979   5.786   6.561  13.957
 9522TIP3   OH249980   6.370   6.854  14.356
 9522TIP3    H149981   6.363   6.940  14.397
 9522TIP3    H249982   6.312   6.797  14.406
 9523TIP3   OH249983   6.501   7.227  15.005
 9523TIP3    H149984   6.565   7.298  14.997
 9523TIP3    H249985   6.550   7.154  15.043
 9524TIP3   OH249986   6.788   6.861  14.996
 9524TIP3    H149987   6.772   6.840  15.087
 9524TIP3    H249988   6.857   6.800  14.969
 9525TIP3   OH249989   7.067   6.954  13.919
 9525TIP3    H149990   7.071   6.929  14.011
 9525TIP3    H249991   6.974   6.947  13.896
 9526TIP3   OH249992   5.884   6.056  15.164
 9526TIP3    H149993   5.793   6.083  15.151
 9526TIP3    H249994   5.878   5.982  15.224
 9527TIP3   OH249995   7.132   6.860  14.183
 9527TIP3    H149996   7.119   6.771  14.215
 9527TIP3    H249997   7.227   6.869  14.175
 9528TIP3   OH249998   5.860   7.224  15.024
 9528TIP3    H149999   5.892   7.171  15.097
 9528TIP3    H250000   5.823   7.302  15.065
 9529TIP3   OH250001   6.479   7.063  13.766
 9529TIP3    H150002   6.476   6.981  13.716
 9529TIP3    H250003   6.433   7.043  13.848
 9530TIP3   OH250004   6.347   7.041  14.010
 9530TIP3    H150005   6.392   6.991  14.078
 9530TIP3    H250006   6.360   7.132  14.034
 9531TIP3   OH250007   5.983   6.767  14.077
 9531TIP3    H150008   5.910   6.813  14.118
 9531TIP3    H250009   6.029   6.834  14.026
 9532TIP3   OH250010   6.785   6.023  15.106
 9532TIP3    H150011   6.861   6.040  15.162
 9532TIP3    H250012   6.751   5.939  15.136
 9533TIP3   OH250013   6.809   5.993  14.248
 9533TIP3    H150014   6.851   5.990  14.162
 9533TIP3    H250015   6.871   6.038  14.304
 9534TIP3   OH250016   6.648   7.216  14.112
 9534TIP3    H150017   6.559   7.250  14.111
 9534TIP3    H250018   6.681   7.231  14.024
 9535TIP3   OH250019   6.539   6.193  14.293
 9535TIP3    H150020   6.613   6.250  14.274
 9535TIP3    H250021   6.555   6.161  14.382
 9536TIP3   OH250022   6.634   6.254  15.169
 9536TIP3    H150023   6.651   6.283  15.259
 9536TIP3    H250024   6.683   6.173  15.161
 9537TIP3   OH250025   6.649   5.824  14.380
 9537TIP3    H150026   6.692   5.836  14.464
 9537TIP3    H250027   6.697   5.881  14.320
 9538TIP3   OH250028   6.395   0.010  14.055
 9538TIP3    H150029   6.412   0.053  13.971
 9538TIP3    H250030   6.336   0.070  14.101
 9539TIP3   OH250031   6.209   6.001  14.054
 9539TIP3    H150032   6.210   6.091  14.087
 9539TIP3    H250033   6.292   5.963  14.085
 9540TIP3   OH250034   7.243   6.024  15.224
 9540TIP3    H150035   7.169   6.062  15.272
 9540TIP3    H250036   7.223   6.040  15.132
 9541TIP3   OH250037   7.068   6.444  14.731
 9541TIP3    H150038   7.085   6.448  14.637
 9541TIP3    H250039   7.153   6.421  14.770
 9542TIP3   OH250040   6.070   6.981  13.915
 9542TIP3    H150041   6.136   7.047  13.938
 9542TIP3    H250042   6.114   6.924  13.852
 9543TIP3   OH250043   5.858   6.279  13.871
 9543TIP3    H150044   5.876   6.369  13.898
 9543TIP3    H250045   5.836   6.285  13.778
 9544TIP3   OH250046   5.957   5.775  14.698
 9544TIP3    H150047   5.952   5.768  14.603
 9544TIP3    H250048   5.922   5.691  14.730
 9545TIP3   OH250049   5.815   7.186  14.274
 9545TIP3    H150050   5.719   7.180  14.278
 9545TIP3    H250051   5.832   7.250  14.205
 9546TIP3   OH250052   6.267   7.247  15.624
 9546TIP3    H150053   6.334   7.187  15.657
 9546TIP3    H250054   6.220   7.197  15.558
 9547TIP3   OH250055   6.696   7.232  13.848
 9547TIP3    H150056   6.632   7.180  13.799
 9547TIP3    H250057   6.751   7.273  13.781
 9548TIP3   OH250058   6.912   7.103  15.507
 9548TIP3    H150059   6.856   7.035  15.546
 9548TIP3    H250060   6.989   7.106  15.564
 9549TIP3   OH250061   7.129   7.216  13.842
 9549TIP3    H150062   7.128   7.125  13.872
 9549TIP3    H250063   7.195   7.218  13.773
 9550TIP3   OH250064   5.762   6.805  15.555
 9550TIP3    H150065   5.777   6.711  15.546
 9550TIP3    H250066   5.689   6.824  15.496
 9551TIP3   OH250067   6.204   6.794  13.768
 9551TIP3    H150068   6.236   6.749  13.846
 9551TIP3    H250069   6.282   6.809  13.715
 9552TIP3   OH250070   6.427   6.806  15.516
 9552TIP3    H150071   6.413   6.852  15.433
 9552TIP3    H250072   6.450   6.717  15.491
 9553TIP3   OH250073   6.812   6.925  13.797
 9553TIP3    H150074   6.764   6.932  13.879
 9553TIP3    H250075   6.787   6.840  13.760
 9554TIP3   OH250076   6.999   6.739  15.276
 9554TIP3    H150077   7.072   6.799  15.263
 9554TIP3    H250078   6.921   6.792  15.265
 9555TIP3   OH250079   5.852   6.545  15.512
 9555TIP3    H150080   5.932   6.532  15.461
 9555TIP3    H250081   5.880   6.539  15.603
 9556TIP3   OH250082   6.315   6.656  13.989
 9556TIP3    H150083   6.265   6.602  14.049
 9556TIP3    H250084   6.369   6.594  13.940
 9557TIP3   OH250085   6.269   6.436  15.260
 9557TIP3    H150086   6.195   6.496  15.261
 9557TIP3    H250087   6.331   6.475  15.198
 9558TIP3   OH250088   6.466   6.476  13.840
 9558TIP3    H150089   6.461   6.505  13.749
 9558TIP3    H250090   6.559   6.463  13.856
 9559TIP3   OH250091   6.777   6.661  15.558
 9559TIP3    H150092   6.868   6.640  15.540
 9559TIP3    H250093   6.746   6.588  15.611
 9560TIP3   OH250094   6.316   6.176  15.336
 9560TIP3    H150095   6.325   6.117  15.261
 9560TIP3    H250096   6.305   6.263  15.297
 9561TIP3   OH250097   6.342   6.013  15.107
 9561TIP3    H150098   6.397   6.061  15.045
 9561TIP3    H250099   6.256   6.010  15.065
 9562TIP3   OH250100   6.466   6.548  15.110
 9562TIP3    H150101   6.560   6.549  15.094
 9562TIP3    H250102   6.434   6.627  15.066
 9563TIP3   OH250103   6.921   6.319  15.567
 9563TIP3    H150104   6.932   6.224  15.570
 9563TIP3    H250105   7.003   6.351  15.530
 9564TIP3   OH250106   7.050   6.608  15.509
 9564TIP3    H150107   7.040   6.660  15.430
 9564TIP3    H250108   7.100   6.531  15.481
 9565TIP3   OH250109   6.153   6.232  15.558
 9565TIP3    H150110   6.073   6.182  15.541
 9565TIP3    H250111   6.203   6.226  15.476
 9566TIP3   OH250112   6.401   5.751  15.177
 9566TIP3    H150113   6.381   5.842  15.155
 9566TIP3    H250114   6.332   5.700  15.132
 9567TIP3   OH250115   6.536   6.143  15.503
 9567TIP3    H150116   6.489   6.120  15.584
 9567TIP3    H250117   6.467   6.150  15.437
 9568TIP3   OH250118   6.800   6.084  15.421
 9568TIP3    H150119   6.710   6.085  15.453
 9568TIP3    H250120   6.847   6.029  15.483
 9569TIP3   OH250121   6.965   5.962  15.606
 9569TIP3    H150122   6.963   5.867  15.597
 9569TIP3    H250123   6.939   5.978  15.697
 9570TIP3   OH250124   5.942   6.050  15.512
 9570TIP3    H150125   5.947   5.977  15.450
 9570TIP3    H250126   5.946   6.009  15.598
 9571TIP3   OH250127   6.402   5.675  15.440
 9571TIP3    H150128   6.457   5.596  15.434
 9571TIP3    H250129   6.396   5.707  15.350
 9572TIP3   OH250130   6.470   5.835  15.658
 9572TIP3    H150131   6.453   5.781  15.580
 9572TIP3    H250132   6.414   5.912  15.645
 9573TIP3   OH250133   5.799   6.994  13.885
 9573TIP3    H150134   5.894   6.997  13.892
 9573TIP3    H250135   5.782   6.930  13.816
 9574TIP3   OH250136   7.245   7.132  15.102
 9574TIP3    H150137   7.264   7.225  15.098
 9574TIP3    H250138   7.212   7.110  15.015
 9575TIP3   OH250139   7.193   6.447  14.480
 9575TIP3    H150140   7.227   6.366  14.443
 9575TIP3    H250141   7.271   6.496  14.507
 9576TIP3   OH250142   5.721   6.630  14.848
 9576TIP3    H150143   5.732   6.621  14.753
 9576TIP3    H250144   5.806   6.607  14.884
 9577TIP3   OH250145   7.229   6.038  13.820
 9577TIP3    H150146   7.278   6.080  13.749
 9577TIP3    H250147   7.147   6.011  13.779
 9578TIP3   OH250148   7.206   6.202  14.268
 9578TIP3    H150149   7.257   6.161  14.338
 9578TIP3    H250150   7.247   6.171  14.187
 9579TIP3   OH250151   7.259   6.120  14.833
 9579TIP3    H150152   7.342   6.089  14.795
 9579TIP3    H250153   7.271   6.214  14.843
 9580TIP3   OH250154   7.256   6.365  15.129
 9580TIP3    H150155   7.165   6.394  15.122
 9580TIP3    H250156   7.288   6.364  15.039
 9581TIP3   OH250157   5.713   6.168  15.415
 9581TIP3    H150158   5.800   6.145  15.450
 9581TIP3    H250159   5.660   6.089  15.428
 9582TIP3   OH250160   7.198   5.864  14.340
 9582TIP3    H150161   7.246   5.782  14.355
 9582TIP3    H250162   7.127   5.839  14.280
 9583TIP3   OH250163   5.823   6.015  14.749
 9583TIP3    H150164   5.865   5.930  14.740
 9583TIP3    H250165   5.895   6.076  14.765
 9584TIP3   OH250166   5.634   6.299  14.804
 9584TIP3    H150167   5.704   6.297  14.738
 9584TIP3    H250168   5.657   6.373  14.861
 9585TIP3   OH250169   5.685   5.924  14.229
 9585TIP3    H150170   5.590   5.927  14.239
 9585TIP3    H250171   5.705   5.994  14.168
 9586TIP3   OH250172   5.685   5.780  15.066
 9586TIP3    H150173   5.621   5.781  15.137
 9586TIP3    H250174   5.657   5.851  15.007
 9587TIP3   OH250175   5.916   7.156  15.491
 9587TIP3    H150176   5.827   7.128  15.473
 9587TIP3    H250177   5.937   7.119  15.577
 9588TIP3   OH250178   6.236   7.244  15.075
 9588TIP3    H150179   6.192   7.290  15.003
 9588TIP3    H250180   6.325   7.230  15.044
 9589TIP3   OH250181   6.105   7.214  14.615
 9589TIP3    H150182   6.079   7.137  14.665
 9589TIP3    H250183   6.181   7.249  14.661
 9590TIP3   OH250184   6.673   5.872  14.675
 9590TIP3    H150185   6.610   5.805  14.700
 9590TIP3    H250186   6.752   5.824  14.650
 9591TIP3   OH250187   7.186   5.725  14.652
 9591TIP3    H150188   7.254   5.781  14.613
 9591TIP3    H250189   7.110   5.782  14.662
 9592TIP3   OH250190   5.941   5.755  14.418
 9592TIP3    H150191   5.864   5.764  14.361
 9592TIP3    H250192   5.963   5.662  14.413
 9593TIP3   OH250193   5.862   5.755  14.079
 9593TIP3    H150194   5.901   5.801  14.005
 9593TIP3    H250195   5.798   5.817  14.114
 9594TIP3   OH250196   6.408   5.722  14.463
 9594TIP3    H150197   6.495   5.723  14.423
 9594TIP3    H250198   6.424   5.699  14.555
 9595TIP3   OH250199   6.880   5.727  14.584
 9595TIP3    H150200   6.939   5.711  14.510
 9595TIP3    H250201   6.870   5.641  14.625
 9596TIP3   OH250202   7.025   5.754  14.162
 9596TIP3    H150203   7.028   5.762  14.067
 9596TIP3    H250204   7.001   5.662  14.177
 9597TIP3   OH250205   6.015   5.889  13.877
 9597TIP3    H150206   6.065   5.837  13.814
 9597TIP3    H250207   6.081   5.928  13.934
 9598TIP3   OH250208   6.452   5.954  14.182
 9598TIP3    H150209   6.501   5.900  14.121
 9598TIP3    H250210   6.504   6.034  14.190
 9599TIP3   OH250211   5.934   5.797  15.374
 9599TIP3    H150212   5.873   5.735  15.413
 9599TIP3    H250213   6.018   5.779  15.417
 9600TIP3   OH250214   6.141   5.718  15.540
 9600TIP3    H150215   6.230   5.697  15.513
 9600TIP3    H250216   6.111   5.640  15.587
 9601TIP3   OH250217   6.987   5.683  15.583
 9601TIP3    H150218   6.991   5.627  15.661
 9601TIP3    H250219   7.076   5.680  15.548
 9602TIP3   OH250220   7.214  -0.003  15.447
 9602TIP3    H150221   7.214  -0.052  15.365
 9602TIP3    H250222   7.278   0.067  15.433
 9603TIP3   OH250223   1.055   0.787  15.734
 9603TIP3    H150224   1.104   0.809  15.813
 9603TIP3    H250225   1.110   0.724  15.688
 9604TIP3   OH250226   1.250   0.820  15.925
 9604TIP3    H150227   1.299   0.854  16.000
 9604TIP3    H250228   1.301   0.846  15.849
 9605TIP3   OH250229   1.649   0.041  15.911
 9605TIP3    H150230   1.569   0.089  15.933
 9605TIP3    H250231   1.715   0.109  15.899
 9606TIP3   OH250232   1.785   1.502  15.749
 9606TIP3    H150233   1.805   1.592  15.775
 9606TIP3    H250234   1.861   1.451  15.777
 9607TIP3   OH250235   1.301   1.760  15.829
 9607TIP3    H150236   1.346   1.688  15.784
 9607TIP3    H250237   1.348   1.770  15.911
 9608TIP3   OH250238   1.412   0.972  15.755
 9608TIP3    H150239   1.377   0.977  15.666
 9608TIP3    H250240   1.507   0.965  15.744
 9609TIP3   OH250241   0.972   0.403  15.817
 9609TIP3    H150242   0.974   0.374  15.909
 9609TIP3    H250243   0.934   0.330  15.770
 9610TIP3   OH250244   0.613   0.374  15.632
 9610TIP3    H150245   0.591   0.384  15.725
 9610TIP3    H250246   0.547   0.427  15.587
 9611TIP3   OH250247   0.103   0.505  15.980
 9611TIP3    H150248   0.145   0.542  15.903
 9611TIP3    H250249   0.059   0.426  15.947
 9612TIP3   OH250250   0.569   0.633  15.830
 9612TIP3    H150251   0.487   0.665  15.792
 9612TIP3    H250252   0.637   0.674  15.778
 9613TIP3   OH250253   1.239   0.460  15.888
 9613TIP3    H150254   1.149   0.443  15.859
 9613TIP3    H250255   1.257   0.549  15.858
 9614TIP3   OH250256   1.087   1.276  15.925
 9614TIP3    H150257   1.033   1.356  15.928
 9614TIP3    H250258   1.089   1.246  16.016
 9615TIP3   OH250259   1.797   0.693  15.971
 9615TIP3    H150260   1.813   0.633  15.898
 9615TIP3    H250261   1.833   0.777  15.942
 9616TIP3   OH250262   0.145   0.903  15.749
 9616TIP3    H150263   0.199   0.964  15.799
 9616TIP3    H250264   0.055   0.926  15.772
 9617TIP3   OH250265   1.400   1.330  15.850
 9617TIP3    H150266   1.389   1.327  15.945
 9617TIP3    H250267   1.318   1.295  15.816
 9618TIP3   OH250268   1.853   1.759  15.831
 9618TIP3    H150269   1.921   1.823  15.853
 9618TIP3    H250270   1.772   1.798  15.864
 9619TIP3   OH250271   0.772   1.425  15.654
 9619TIP3    H150272   0.779   1.340  15.610
 9619TIP3    H250273   0.729   1.405  15.738
 9620TIP3   OH250274   0.638   1.406  15.898
 9620TIP3    H150275   0.640   1.342  15.969
 9620TIP3    H250276   0.660   1.489  15.941
 9621TIP3   OH250277   0.279   1.072  15.914
 9621TIP3    H150278   0.265   1.030  15.999
 9621TIP3    H250279   0.349   1.136  15.929
 9622TIP3   OH250280   0.948   1.514  15.910
 9622TIP3    H150281   0.865   1.555  15.934
 9622TIP3    H250282   0.962   1.541  15.819
 9623TIP3   OH250283   0.717   1.657  15.982
 9623TIP3    H150284   0.711   1.738  15.931
 9623TIP3    H250285   0.724   1.687  16.073
 9624TIP3   OH250286   0.507   0.356  15.907
 9624TIP3    H150287   0.488   0.450  15.902
 9624TIP3    H250288   0.588   0.350  15.957
 9625TIP3   OH250289   0.392   1.333  15.794
 9625TIP3    H150290   0.464   1.383  15.833
 9625TIP3    H250291   0.435   1.265  15.742
 9626TIP3   OH250292   0.229   0.636  15.769
 9626TIP3    H150293   0.208   0.729  15.772
 9626TIP3    H250294   0.188   0.605  15.688
 9627TIP3   OH250295   0.989   1.592  15.645
 9627TIP3    H150296   0.920   1.527  15.633
 9627TIP3    H250297   1.067   1.550  15.609
 9628TIP3   OH250298   1.434   1.566  15.684
 9628TIP3    H150299   1.453   1.496  15.746
 9628TIP3    H250300   1.511   1.571  15.628
 9629TIP3   OH250301   0.544   1.142  15.669
 9629TIP3    H150302   0.573   1.084  15.740
 9629TIP3    H250303   0.622   1.159  15.617
 9630TIP3   OH250304   1.138   1.269  15.655
 9630TIP3    H150305   1.110   1.261  15.747
 9630TIP3    H250306   1.128   1.181  15.619
 9631TIP3   OH250307   0.655   0.971  15.857
 9631TIP3    H150308   0.688   0.930  15.937
 9631TIP3    H250309   0.696   0.921  15.786
 9632TIP3   OH250310   0.780   0.792  15.692
 9632TIP3    H150311   0.780   0.823  15.602
 9632TIP3    H250312   0.872   0.779  15.714
 9633TIP3   OH250313   1.681   1.029  15.694
 9633TIP3    H150314   1.678   0.999  15.603
 9633TIP3    H250315   1.666   1.123  15.688
 9634TIP3   OH250316   0.785   1.930  15.869
 9634TIP3    H150317   0.870   1.888  15.861
 9634TIP3    H250318   0.771   1.972  15.785
 9635TIP3   OH250319   0.131   1.365  15.712
 9635TIP3    H150320   0.217   1.350  15.751
 9635TIP3    H250321   0.112   1.284  15.664
 9636TIP3   OH250322   1.873   0.941  15.870
 9636TIP3    H150323   1.816   0.956  15.795
 9636TIP3    H250324   1.835   0.993  15.940
 9637TIP3   OH250325   1.528   0.673  15.707
 9637TIP3    H150326   1.618   0.701  15.695
 9637TIP3    H250327   1.533   0.577  15.707
 9638TIP3   OH250328   1.575   0.405  15.682
 9638TIP3    H150329   1.669   0.424  15.688
 9638TIP3    H250330   1.569   0.334  15.619
 9639TIP3   OH250331   1.843   0.234  15.854
 9639TIP3    H150332   1.867   0.186  15.775
 9639TIP3    H250333   1.845   0.326  15.827
 9640TIP3   OH250334   0.078   0.213  15.881
 9640TIP3    H150335   0.157   0.216  15.827
 9640TIP3    H250336   0.103   0.160  15.957
 9641TIP3   OH250337   0.315   0.244  15.745
 9641TIP3    H150338   0.362   0.188  15.683
 9641TIP3    H250339   0.382   0.273  15.807
 9642TIP3   OH250340   1.026   1.816  15.807
 9642TIP3    H150341   1.119   1.812  15.826
 9642TIP3    H250342   1.011   1.746  15.743
 9643TIP3   OH250343   0.369   1.794  15.740
 9643TIP3    H150344   0.357   1.781  15.835
 9643TIP3    H250345   0.435   1.729  15.716
 9644TIP3   OH250346   2.939   0.803  15.734
 9644TIP3    H150347   2.987   0.819  15.815
 9644TIP3    H250348   2.994   0.741  15.685
 9645TIP3   OH250349   3.135   0.839  15.923
 9645TIP3    H150350   3.186   0.873  15.996
 9645TIP3    H250351   3.187   0.859  15.846
 9646TIP3   OH250352   3.605   0.024  15.950
 9646TIP3    H150353   3.514   0.010  15.974
 9646TIP3    H250354   3.607   0.110  15.908
 9647TIP3   OH250355   3.666   1.505  15.761
 9647TIP3    H150356   3.687   1.595  15.788
 9647TIP3    H250357   3.747   1.456  15.775
 9648TIP3   OH250358   3.209   1.752  15.823
 9648TIP3    H150359   3.247   1.681  15.771
 9648TIP3    H250360   3.260   1.752  15.904
 9649TIP3   OH250361   3.309   0.960  15.746
 9649TIP3    H150362   3.276   0.966  15.657
 9649TIP3    H250363   3.404   0.974  15.738
 9650TIP3   OH250364   2.878   0.388  15.831
 9650TIP3    H150365   2.814   0.397  15.903
 9650TIP3    H250366   2.840   0.321  15.774
 9651TIP3   OH250367   2.550   0.406  15.675
 9651TIP3    H150368   2.498   0.378  15.751
 9651TIP3    H250369   2.498   0.476  15.636
 9652TIP3   OH250370   2.047   0.459  15.983
 9652TIP3    H150371   2.111   0.406  15.935
 9652TIP3    H250372   1.982   0.484  15.918
 9653TIP3   OH250373   2.444   0.672  15.876
 9653TIP3    H150374   2.358   0.646  15.845
 9653TIP3    H250375   2.499   0.674  15.798
 9654TIP3   OH250376   3.135   0.469  15.832
 9654TIP3    H150377   3.043   0.444  15.832
 9654TIP3    H250378   3.160   0.472  15.924
 9655TIP3   OH250379   2.852   1.246  15.922
 9655TIP3    H150380   2.851   1.341  15.922
 9655TIP3    H250381   2.901   1.222  16.000
 9656TIP3   OH250382   3.691   0.651  15.922
 9656TIP3    H150383   3.643   0.641  15.840
 9656TIP3    H250384   3.722   0.742  15.921
 9657TIP3   OH250385   2.129   0.893  15.789
 9657TIP3    H150386   2.182   0.951  15.843
 9657TIP3    H250387   2.039   0.904  15.821
 9658TIP3   OH250388   3.288   1.322  15.844
 9658TIP3    H150389   3.267   1.318  15.938
 9658TIP3    H250390   3.207   1.297  15.801
 9659TIP3   OH250391   3.734   1.760  15.850
 9659TIP3    H150392   3.800   1.829  15.850
 9659TIP3    H250393   3.651   1.806  15.865
 9660TIP3   OH250394   2.672   1.447  15.633
 9660TIP3    H150395   2.649   1.384  15.565
 9660TIP3    H250396   2.628   1.414  15.711
 9661TIP3   OH250397   2.562   1.379  15.881
 9661TIP3    H150398   2.524   1.336  15.957
 9661TIP3    H250399   2.573   1.471  15.908
 9662TIP3   OH250400   2.234   1.094  15.953
 9662TIP3    H150401   2.177   1.049  16.014
 9662TIP3    H250402   2.182   1.168  15.921
 9663TIP3   OH250403   2.847   1.518  15.902
 9663TIP3    H150404   2.765   1.561  15.927
 9663TIP3    H250405   2.870   1.557  15.818
 9664TIP3   OH250406   2.604   1.639  15.962
 9664TIP3    H150407   2.610   1.726  15.923
 9664TIP3    H250408   2.573   1.654  16.051
 9665TIP3   OH250409   2.419   0.318  15.899
 9665TIP3    H150410   2.475   0.376  15.951
 9665TIP3    H250411   2.451   0.230  15.916
 9666TIP3   OH250412   2.267   1.362  15.791
 9666TIP3    H150413   2.328   1.434  15.802
 9666TIP3    H250414   2.317   1.293  15.748
 9667TIP3   OH250415   2.180   0.625  15.772
 9667TIP3    H150416   2.162   0.719  15.774
 9667TIP3    H250417   2.096   0.585  15.748
 9668TIP3   OH250418   2.892   1.604  15.639
 9668TIP3    H150419   2.819   1.544  15.629
 9668TIP3    H250420   2.968   1.558  15.603
 9669TIP3   OH250421   3.333   1.564  15.668
 9669TIP3    H150422   3.369   1.502  15.732
 9669TIP3    H250423   3.403   1.576  15.604
 9670TIP3   OH250424   2.408   1.159  15.669
 9670TIP3    H150425   2.397   1.078  15.719
 9670TIP3    H250426   2.489   1.145  15.619
 9671TIP3   OH250427   3.046   1.259  15.707
 9671TIP3    H150428   2.977   1.250  15.772
 9671TIP3    H250429   3.040   1.180  15.653
 9672TIP3   OH250430   2.536   0.959  15.829
 9672TIP3    H150431   2.516   0.914  15.911
 9672TIP3    H250432   2.572   0.891  15.772
 9673TIP3   OH250433   2.668   0.763  15.702
 9673TIP3    H150434   2.658   0.781  15.608
 9673TIP3    H250435   2.762   0.764  15.717
 9674TIP3   OH250436   3.574   1.029  15.695
 9674TIP3    H150437   3.575   0.999  15.604
 9674TIP3    H250438   3.561   1.123  15.690
 9675TIP3   OH250439   2.688   1.894  15.883
 9675TIP3    H150440   2.779   1.867  15.870
 9675TIP3    H250441   2.669   1.951  15.808
 9676TIP3   OH250442   2.000   1.322  15.806
 9676TIP3    H150443   2.092   1.346  15.798
 9676TIP3    H250444   1.984   1.263  15.732
 9677TIP3   OH250445   3.750   0.916  15.874
 9677TIP3    H150446   3.693   0.941  15.801
 9677TIP3    H250447   3.728   0.978  15.943
 9678TIP3   OH250448   3.556   0.634  15.686
 9678TIP3    H150449   3.525   0.686  15.612
 9678TIP3    H250450   3.541   0.544  15.660
 9679TIP3   OH250451   3.490   0.379  15.602
 9679TIP3    H150452   3.522   0.326  15.675
 9679TIP3    H250453   3.396   0.359  15.598
 9680TIP3   OH250454   3.660   0.254  15.801
 9680TIP3    H150455   3.709   0.207  15.734
 9680TIP3    H250456   3.722   0.318  15.836
 9681TIP3   OH250457   2.095   0.129  15.944
 9681TIP3    H150458   2.125   0.169  15.862
 9681TIP3    H250459   2.000   0.142  15.943
 9682TIP3   OH250460   2.200   0.283  15.741
 9682TIP3    H150461   2.234   0.225  15.673
 9682TIP3    H250462   2.276   0.303  15.796
 9683TIP3   OH250463   2.938   1.811  15.816
 9683TIP3    H150464   3.033   1.805  15.832
 9683TIP3    H250465   2.923   1.753  15.742
 9684TIP3   OH250466   2.230   1.770  15.715
 9684TIP3    H150467   2.216   1.772  15.809
 9684TIP3    H250468   2.301   1.707  15.702
 9685TIP3   OH250469   4.833   0.813  15.751
 9685TIP3    H150470   4.886   0.837  15.827
 9685TIP3    H250471   4.886   0.749  15.703
 9686TIP3   OH250472   5.042   0.842  15.928
 9686TIP3    H150473   5.092   0.895  15.990
 9686TIP3    H250474   5.090   0.851  15.845
 9687TIP3   OH250475   5.445   0.044  15.917
 9687TIP3    H150476   5.353   0.039  15.943
 9687TIP3    H250477   5.460   0.137  15.900
 9688TIP3   OH250478   5.541   1.505  15.763
 9688TIP3    H150479   5.565   1.595  15.786
 9688TIP3    H250480   5.620   1.454  15.777
 9689TIP3   OH250481   5.090   1.755  15.821
 9689TIP3    H150482   5.140   1.683  15.782
 9689TIP3    H250483   5.126   1.763  15.909
 9690TIP3   OH250484   5.191   0.904  15.704
 9690TIP3    H150485   5.163   0.940  15.620
 9690TIP3    H250486   5.277   0.944  15.720
 9691TIP3   OH250487   4.765   0.389  15.804
 9691TIP3    H150488   4.714   0.384  15.885
 9691TIP3    H250489   4.725   0.324  15.747
 9692TIP3   OH250490   4.410   0.380  15.649
 9692TIP3    H150491   4.369   0.362  15.734
 9692TIP3    H250492   4.368   0.460  15.618
 9693TIP3   OH250493   3.845   0.423  15.912
 9693TIP3    H150494   3.918   0.456  15.859
 9693TIP3    H250495   3.792   0.500  15.930
 9694TIP3   OH250496   4.344   0.679  15.848
 9694TIP3    H150497   4.284   0.649  15.779
 9694TIP3    H250498   4.423   0.705  15.802
 9695TIP3   OH250499   5.019   0.474  15.828
 9695TIP3    H150500   4.927   0.449  15.821
 9695TIP3    H250501   5.033   0.488  15.922
 9696TIP3   OH250502   4.840   1.276  15.931
 9696TIP3    H150503   4.793   1.359  15.926
 9696TIP3    H250504   4.827   1.247  16.021
 9697TIP3   OH250505   5.605   0.666  15.938
 9697TIP3    H150506   5.557   0.646  15.857
 9697TIP3    H250507   5.621   0.760  15.934
 9698TIP3   OH250508   4.008   0.881  15.791
 9698TIP3    H150509   4.052   0.955  15.833
 9698TIP3    H250510   3.916   0.888  15.819
 9699TIP3   OH250511   5.167   1.262  15.869
 9699TIP3    H150512   5.139   1.303  15.951
 9699TIP3    H250513   5.091   1.271  15.811
 9700TIP3   OH250514   5.619   1.758  15.839
 9700TIP3    H150515   5.687   1.825  15.848
 9700TIP3    H250516   5.538   1.803  15.864
 9701TIP3   OH250517   4.558   1.419  15.652
 9701TIP3    H150518   4.558   1.333  15.608
 9701TIP3    H250519   4.512   1.403  15.734
 9702TIP3   OH250520   4.414   1.404  15.887
 9702TIP3    H150521   4.414   1.337  15.956
 9702TIP3    H250522   4.430   1.486  15.934
 9703TIP3   OH250523   4.088   1.102  15.925
 9703TIP3    H150524   4.088   1.115  16.020
 9703TIP3    H250525   4.112   1.188  15.889
 9704TIP3   OH250526   4.719   1.520  15.908
 9704TIP3    H150527   4.635   1.558  15.935
 9704TIP3    H250528   4.733   1.552  15.819
 9705TIP3   OH250529   4.486   1.653  15.980
 9705TIP3    H150530   4.483   1.728  15.921
 9705TIP3    H250531   4.486   1.692  16.068
 9706TIP3   OH250532   4.299   0.342  15.903
 9706TIP3    H150533   4.238   0.404  15.943
 9706TIP3    H250534   4.382   0.359  15.948
 9707TIP3   OH250535   4.162   1.338  15.791
 9707TIP3    H150536   4.235   1.390  15.825
 9707TIP3    H250537   4.202   1.280  15.726
 9708TIP3   OH250538   3.994   0.609  15.764
 9708TIP3    H150539   4.010   0.703  15.775
 9708TIP3    H250540   3.937   0.604  15.687
 9709TIP3   OH250541   4.769   1.593  15.641
 9709TIP3    H150542   4.701   1.527  15.630
 9709TIP3    H250543   4.848   1.553  15.606
 9710TIP3   OH250544   5.245   1.566  15.682
 9710TIP3    H150545   5.314   1.549  15.746
 9710TIP3    H250546   5.291   1.581  15.599
 9711TIP3   OH250547   4.300   1.153  15.644
 9711TIP3    H150548   4.314   1.092  15.717
 9711TIP3    H250549   4.386   1.164  15.605
 9712TIP3   OH250550   4.942   1.263  15.678
 9712TIP3    H150551   4.892   1.260  15.759
 9712TIP3    H250552   4.917   1.183  15.631
 9713TIP3   OH250553   4.372   0.974  15.844
 9713TIP3    H150554   4.314   0.903  15.872
 9713TIP3    H250555   4.448   0.930  15.806
 9714TIP3   OH250556   4.561   0.811  15.730
 9714TIP3    H150557   4.552   0.839  15.640
 9714TIP3    H250558   4.656   0.804  15.744
 9715TIP3   OH250559   5.449   1.016  15.684
 9715TIP3    H150560   5.444   1.002  15.589
 9715TIP3    H250561   5.437   1.110  15.695
 9716TIP3   OH250562   4.571   1.907  15.881
 9716TIP3    H150563   4.660   1.872  15.870
 9716TIP3    H250564   4.557   1.962  15.804
 9717TIP3   OH250565   3.890   1.339  15.791
 9717TIP3    H150566   3.985   1.349  15.792
 9717TIP3    H250567   3.874   1.273  15.722
 9718TIP3   OH250568   5.631   0.930  15.871
 9718TIP3    H150569   5.571   0.947  15.798
 9718TIP3    H250570   5.609   0.998  15.935
 9719TIP3   OH250571   5.465   0.629  15.707
 9719TIP3    H150572   5.424   0.694  15.650
 9719TIP3    H250573   5.440   0.545  15.669
 9720TIP3   OH250574   5.385   0.385  15.609
 9720TIP3    H150575   5.418   0.327  15.677
 9720TIP3    H250576   5.291   0.367  15.605
 9721TIP3   OH250577   5.578   0.262  15.778
 9721TIP3    H150578   5.619   0.181  15.810
 9721TIP3    H250579   5.626   0.332  15.823
 9722TIP3   OH250580   3.992   0.129  15.945
 9722TIP3    H150581   3.987   0.186  15.869
 9722TIP3    H250582   3.911   0.079  15.943
 9723TIP3   OH250583   4.086   0.285  15.730
 9723TIP3    H150584   4.107   0.211  15.673
 9723TIP3    H250585   4.159   0.288  15.792
 9724TIP3   OH250586   4.816   1.802  15.818
 9724TIP3    H150587   4.911   1.801  15.827
 9724TIP3    H250588   4.797   1.742  15.746
 9725TIP3   OH250589   4.125   1.762  15.716
 9725TIP3    H150590   4.115   1.764  15.811
 9725TIP3    H250591   4.197   1.701  15.701
 9726TIP3   OH250592   6.722   0.793  15.743
 9726TIP3    H150593   6.776   0.816  15.818
 9726TIP3    H250594   6.778   0.738  15.688
 9727TIP3   OH250595   6.919   0.860  15.924
 9727TIP3    H150596   6.969   0.896  15.997
 9727TIP3    H250597   6.969   0.883  15.846
 9728TIP3   OH250598   6.972   1.754  15.827
 9728TIP3    H150599   7.019   1.677  15.795
 9728TIP3    H250600   6.993   1.758  15.921
 9729TIP3   OH250601   7.117   1.022  15.780
 9729TIP3    H150602   7.097   1.002  15.689
 9729TIP3    H250603   7.096   1.115  15.790
 9730TIP3   OH250604   6.635   0.382  15.831
 9730TIP3    H150605   6.629   0.357  15.924
 9730TIP3    H250606   6.595   0.309  15.784
 9731TIP3   OH250607   6.278   0.367  15.647
 9731TIP3    H150608   6.250   0.365  15.738
 9731TIP3    H250609   6.243   0.449  15.613
 9732TIP3   OH250610   5.754   0.442  15.878
 9732TIP3    H150611   5.817   0.493  15.826
 9732TIP3    H250612   5.699   0.508  15.920
 9733TIP3   OH250613   6.227   0.645  15.823
 9733TIP3    H150614   6.179   0.635  15.741
 9733TIP3    H250615   6.310   0.684  15.797
 9734TIP3   OH250616   6.889   0.482  15.821
 9734TIP3    H150617   6.797   0.456  15.822
 9734TIP3    H250618   6.915   0.482  15.913
 9735TIP3   OH250619   6.740   1.282  15.924
 9735TIP3    H150620   6.688   1.362  15.922
 9735TIP3    H250621   6.729   1.248  16.013
 9736TIP3   OH250622   5.890   0.891  15.792
 9736TIP3    H150623   5.936   0.961  15.838
 9736TIP3    H250624   5.799   0.900  15.820
 9737TIP3   OH250625   7.037   1.280  15.856
 9737TIP3    H150626   7.029   1.290  15.950
 9737TIP3    H250627   6.947   1.288  15.823
 9738TIP3   OH250628   6.440   1.417  15.649
 9738TIP3    H150629   6.444   1.330  15.608
 9738TIP3    H250630   6.394   1.402  15.732
 9739TIP3   OH250631   6.294   1.407  15.884
 9739TIP3    H150632   6.296   1.342  15.954
 9739TIP3    H250633   6.312   1.490  15.929
 9740TIP3   OH250634   5.975   1.107  15.930
 9740TIP3    H150635   5.981   1.127  16.023
 9740TIP3    H250636   5.997   1.190  15.887
 9741TIP3   OH250637   6.602   1.517  15.904
 9741TIP3    H150638   6.520   1.556  15.932
 9741TIP3    H250639   6.615   1.549  15.815
 9742TIP3   OH250640   6.372   1.654  15.978
 9742TIP3    H150641   6.370   1.730  15.921
 9742TIP3    H250642   6.374   1.690  16.067
 9743TIP3   OH250643   6.128   0.361  15.897
 9743TIP3    H150644   6.100   0.452  15.895
 9743TIP3    H250645   6.209   0.361  15.947
 9744TIP3   OH250646   6.044   1.337  15.786
 9744TIP3    H150647   6.115   1.391  15.822
 9744TIP3    H250648   6.087   1.280  15.723
 9745TIP3   OH250649   5.883   0.625  15.720
 9745TIP3    H150650   5.905   0.710  15.760
 9745TIP3    H250651   5.823   0.647  15.649
 9746TIP3   OH250652   6.650   1.592  15.637
 9746TIP3    H150653   6.582   1.525  15.627
 9746TIP3    H250654   6.729   1.553  15.600
 9747TIP3   OH250655   7.107   1.541  15.698
 9747TIP3    H150656   7.131   1.453  15.728
 9747TIP3    H250657   7.169   1.560  15.627
 9748TIP3   OH250658   6.185   1.149  15.645
 9748TIP3    H150659   6.203   1.091  15.719
 9748TIP3    H250660   6.271   1.161  15.603
 9749TIP3   OH250661   6.793   1.271  15.656
 9749TIP3    H150662   6.758   1.266  15.744
 9749TIP3    H250663   6.780   1.184  15.619
 9750TIP3   OH250664   6.272   0.979  15.846
 9750TIP3    H150665   6.225   0.911  15.894
 9750TIP3    H250666   6.345   0.932  15.805
 9751TIP3   OH250667   6.450   0.799  15.733
 9751TIP3    H150668   6.438   0.828  15.642
 9751TIP3    H250669   6.544   0.787  15.743
 9752TIP3   OH250670   6.455   1.908  15.881
 9752TIP3    H150671   6.543   1.873  15.870
 9752TIP3    H250672   6.442   1.965  15.805
 9753TIP3   OH250673   5.770   1.338  15.792
 9753TIP3    H150674   5.865   1.351  15.792
 9753TIP3    H250675   5.755   1.271  15.726
 9754TIP3   OH250676   7.260   0.382  15.665
 9754TIP3    H150677   7.279   0.310  15.725
 9754TIP3    H250678   7.169   0.369  15.639
 9755TIP3   OH250679   5.750   0.111  15.937
 9755TIP3    H150680   5.829   0.129  15.885
 9755TIP3    H250681   5.784   0.084  16.023
 9756TIP3   OH250682   5.940   0.207  15.744
 9756TIP3    H150683   6.004   0.177  15.679
 9756TIP3    H250684   5.991   0.262  15.804
 9757TIP3   OH250685   6.697   1.800  15.816
 9757TIP3    H150686   6.792   1.799  15.825
 9757TIP3    H250687   6.679   1.740  15.743
 9758TIP3   OH250688   6.005   1.753  15.712
 9758TIP3    H150689   5.995   1.757  15.807
 9758TIP3    H250690   6.080   1.696  15.698
 9759TIP3   OH250691   1.055   2.682  15.739
 9759TIP3    H150692   1.104   2.700  15.819
 9759TIP3    H250693   1.113   2.628  15.687
 9760TIP3   OH250694   1.249   2.717  15.931
 9760TIP3    H150695   1.296   2.758  16.004
 9760TIP3    H250696   1.301   2.740  15.854
 9761TIP3   OH250697   1.637   1.909  15.932
 9761TIP3    H150698   1.614   1.922  16.024
 9761TIP3    H250699   1.667   1.995  15.902
 9762TIP3   OH250700   1.777   3.399  15.744
 9762TIP3    H150701   1.797   3.487  15.776
 9762TIP3    H250702   1.860   3.352  15.749
 9763TIP3   OH250703   1.318   3.655  15.829
 9763TIP3    H150704   1.365   3.582  15.788
 9763TIP3    H250705   1.344   3.653  15.921
 9764TIP3   OH250706   1.427   2.845  15.760
 9764TIP3    H150707   1.392   2.851  15.671
 9764TIP3    H250708   1.522   2.855  15.748
 9765TIP3   OH250709   0.972   2.245  15.833
 9765TIP3    H150710   0.966   2.245  15.929
 9765TIP3    H250711   0.939   2.159  15.806
 9766TIP3   OH250712   0.663   2.348  15.695
 9766TIP3    H150713   0.680   2.381  15.783
 9766TIP3    H250714   0.613   2.418  15.652
 9767TIP3   OH250715   0.066   2.292  15.868
 9767TIP3    H150716   0.114   2.366  15.830
 9767TIP3    H250717   0.034   2.324  15.951
 9768TIP3   OH250718   0.565   2.573  15.841
 9768TIP3    H150719   0.492   2.567  15.780
 9768TIP3    H250720   0.634   2.618  15.792
 9769TIP3   OH250721   1.226   2.341  15.794
 9769TIP3    H150722   1.134   2.316  15.802
 9769TIP3    H250723   1.254   2.359  15.884
 9770TIP3   OH250724   1.070   3.167  15.927
 9770TIP3    H150725   1.019   3.247  15.925
 9770TIP3    H250726   1.060   3.134  16.017
 9771TIP3   OH250727   1.810   2.533  15.920
 9771TIP3    H150728   1.761   2.525  15.839
 9771TIP3    H250729   1.843   2.623  15.920
 9772TIP3   OH250730   0.162   2.792  15.792
 9772TIP3    H150731   0.211   2.856  15.844
 9772TIP3    H250732   0.071   2.819  15.800
 9773TIP3   OH250733   1.391   3.222  15.839
 9773TIP3    H150734   1.369   3.211  15.932
 9773TIP3    H250735   1.315   3.189  15.792
 9774TIP3   OH250736   1.836   3.656  15.833
 9774TIP3    H150737   1.909   3.715  15.853
 9774TIP3    H250738   1.757   3.706  15.854
 9775TIP3   OH250739   0.787   3.300  15.650
 9775TIP3    H150740   0.787   3.215  15.608
 9775TIP3    H250741   0.739   3.286  15.732
 9776TIP3   OH250742   0.640   3.293  15.883
 9776TIP3    H150743   0.637   3.227  15.952
 9776TIP3    H250744   0.654   3.376  15.930
 9777TIP3   OH250745   0.252   3.010  15.935
 9777TIP3    H150746   0.203   3.057  16.002
 9777TIP3    H250747   0.305   3.078  15.892
 9778TIP3   OH250748   0.942   3.408  15.909
 9778TIP3    H150749   0.857   3.445  15.936
 9778TIP3    H250750   0.953   3.438  15.818
 9779TIP3   OH250751   0.709   3.541  15.984
 9779TIP3    H150752   0.715   3.621  15.932
 9779TIP3    H250753   0.703   3.571  16.074
 9780TIP3   OH250754   0.567   2.118  15.881
 9780TIP3    H150755   0.599   2.195  15.928
 9780TIP3    H250756   0.628   2.048  15.904
 9781TIP3   OH250757   0.386   3.209  15.796
 9781TIP3    H150758   0.455   3.266  15.831
 9781TIP3    H250759   0.430   3.151  15.735
 9782TIP3   OH250760   0.186   2.517  15.762
 9782TIP3    H150761   0.181   2.612  15.772
 9782TIP3    H250762   0.163   2.502  15.670
 9783TIP3   OH250763   0.997   3.474  15.638
 9783TIP3    H150764   0.927   3.409  15.630
 9783TIP3    H250765   1.074   3.431  15.601
 9784TIP3   OH250766   1.444   3.452  15.687
 9784TIP3    H150767   1.443   3.378  15.748
 9784TIP3    H250768   1.529   3.448  15.644
 9785TIP3   OH250769   0.532   3.027  15.655
 9785TIP3    H150770   0.555   2.972  15.730
 9785TIP3    H250771   0.615   3.040  15.609
 9786TIP3   OH250772   1.170   3.150  15.673
 9786TIP3    H150773   1.122   3.147  15.756
 9786TIP3    H250774   1.150   3.067  15.631
 9787TIP3   OH250775   0.642   2.871  15.858
 9787TIP3    H150776   0.655   2.821  15.939
 9787TIP3    H250777   0.697   2.827  15.793
 9788TIP3   OH250778   0.783   2.687  15.712
 9788TIP3    H150779   0.777   2.716  15.621
 9788TIP3    H250780   0.878   2.679  15.728
 9789TIP3   OH250781   1.689   2.911  15.695
 9789TIP3    H150782   1.690   2.886  15.602
 9789TIP3    H250783   1.676   3.006  15.693
 9790TIP3   OH250784   0.800   3.789  15.881
 9790TIP3    H150785   0.888   3.756  15.865
 9790TIP3    H250786   0.783   3.849  15.808
 9791TIP3   OH250787   0.129   3.256  15.689
 9791TIP3    H150788   0.208   3.239  15.741
 9791TIP3    H250789   0.111   3.173  15.645
 9792TIP3   OH250790   1.867   2.799  15.872
 9792TIP3    H150791   1.812   2.822  15.798
 9792TIP3    H250792   1.840   2.860  15.941
 9793TIP3   OH250793   1.667   2.526  15.689
 9793TIP3    H150794   1.643   2.572  15.608
 9793TIP3    H250795   1.644   2.435  15.672
 9794TIP3   OH250796   1.594   2.271  15.631
 9794TIP3    H150797   1.629   2.210  15.695
 9794TIP3    H250798   1.508   2.235  15.608
 9795TIP3   OH250799   1.760   2.134  15.824
 9795TIP3    H150800   1.791   2.077  15.754
 9795TIP3    H250801   1.833   2.193  15.841
 9796TIP3   OH250802   0.143   2.053  15.985
 9796TIP3    H150803   0.138   2.130  15.928
 9796TIP3    H250804   0.063   2.004  15.967
 9797TIP3   OH250805   0.335   2.076  15.741
 9797TIP3    H150806   0.317   1.982  15.735
 9797TIP3    H250807   0.384   2.085  15.823
 9798TIP3   OH250808   1.043   3.690  15.808
 9798TIP3    H150809   1.138   3.689  15.821
 9798TIP3    H250810   1.027   3.624  15.740
 9799TIP3   OH250811   0.367   3.663  15.718
 9799TIP3    H150812   0.353   3.663  15.812
 9799TIP3    H250813   0.436   3.598  15.704
 9800TIP3   OH250814   2.955   2.674  15.733
 9800TIP3    H150815   3.001   2.701  15.813
 9800TIP3    H250816   3.017   2.618  15.687
 9801TIP3   OH250817   3.144   2.722  15.926
 9801TIP3    H150818   3.199   2.756  15.997
 9801TIP3    H250819   3.191   2.747  15.846
 9802TIP3   OH250820   3.517   1.918  15.924
 9802TIP3    H150821   3.494   1.936  16.015
 9802TIP3    H250822   3.549   2.002  15.890
 9803TIP3   OH250823   3.658   3.393  15.777
 9803TIP3    H150824   3.684   3.481  15.803
 9803TIP3    H250825   3.740   3.343  15.774
 9804TIP3   OH250826   3.204   3.639  15.830
 9804TIP3    H150827   3.239   3.570  15.773
 9804TIP3    H250828   3.242   3.621  15.916
 9805TIP3   OH250829   3.298   2.831  15.728
 9805TIP3    H150830   3.276   2.846  15.635
 9805TIP3    H250831   3.391   2.849  15.734
 9806TIP3   OH250832   2.851   2.240  15.795
 9806TIP3    H150833   2.776   2.298  15.782
 9806TIP3    H250834   2.830   2.161  15.746
 9807TIP3   OH250835   2.575   2.305  15.694
 9807TIP3    H150836   2.522   2.270  15.765
 9807TIP3    H250837   2.516   2.362  15.645
 9808TIP3   OH250838   1.960   2.301  15.907
 9808TIP3    H150839   2.034   2.338  15.858
 9808TIP3    H250840   1.906   2.377  15.929
 9809TIP3   OH250841   2.446   2.574  15.833
 9809TIP3    H150842   2.391   2.537  15.764
 9809TIP3    H250843   2.530   2.591  15.791
 9810TIP3   OH250844   3.102   2.326  15.887
 9810TIP3    H150845   3.016   2.303  15.852
 9810TIP3    H250846   3.131   2.399  15.833
 9811TIP3   OH250847   2.976   3.164  15.922
 9811TIP3    H150848   2.920   3.242  15.921
 9811TIP3    H250849   2.969   3.131  16.012
 9812TIP3   OH250850   3.691   2.540  15.933
 9812TIP3    H150851   3.642   2.532  15.851
 9812TIP3    H250852   3.731   2.627  15.929
 9813TIP3   OH250853   2.126   2.773  15.789
 9813TIP3    H150854   2.164   2.853  15.826
 9813TIP3    H250855   2.034   2.776  15.815
 9814TIP3   OH250856   3.281   3.197  15.866
 9814TIP3    H150857   3.270   3.205  15.961
 9814TIP3    H250858   3.192   3.186  15.832
 9815TIP3   OH250859   3.739   3.649  15.873
 9815TIP3    H150860   3.806   3.716  15.861
 9815TIP3    H250861   3.656   3.698  15.877
 9816TIP3   OH250862   2.660   3.303  15.651
 9816TIP3    H150863   2.664   3.219  15.605
 9816TIP3    H250864   2.618   3.283  15.734
 9817TIP3   OH250865   2.520   3.289  15.894
 9817TIP3    H150866   2.516   3.224  15.964
 9817TIP3    H250867   2.540   3.372  15.938
 9818TIP3   OH250868   2.174   2.990  15.955
 9818TIP3    H150869   2.145   2.929  16.023
 9818TIP3    H250870   2.263   3.015  15.981
 9819TIP3   OH250871   2.828   3.395  15.908
 9819TIP3    H150872   2.745   3.435  15.933
 9819TIP3    H250873   2.848   3.431  15.821
 9820TIP3   OH250874   2.598   3.541  15.981
 9820TIP3    H150875   2.603   3.618  15.925
 9820TIP3    H250876   2.608   3.575  16.070
 9821TIP3   OH250877   2.403   2.226  15.900
 9821TIP3    H150878   2.337   2.288  15.929
 9821TIP3    H250879   2.479   2.241  15.957
 9822TIP3   OH250880   2.282   3.255  15.754
 9822TIP3    H150881   2.357   3.286  15.805
 9822TIP3    H250882   2.314   3.177  15.709
 9823TIP3   OH250883   2.111   2.496  15.772
 9823TIP3    H150884   2.131   2.590  15.777
 9823TIP3    H250885   2.062   2.487  15.690
 9824TIP3   OH250886   2.876   3.477  15.646
 9824TIP3    H150887   2.807   3.411  15.633
 9824TIP3    H250888   2.954   3.437  15.608
 9825TIP3   OH250889   3.326   3.448  15.674
 9825TIP3    H150890   3.368   3.388  15.736
 9825TIP3    H250891   3.392   3.460  15.605
 9826TIP3   OH250892   2.411   3.038  15.643
 9826TIP3    H150893   2.426   2.974  15.713
 9826TIP3    H250894   2.496   3.046  15.599
 9827TIP3   OH250895   3.018   3.156  15.650
 9827TIP3    H150896   2.993   3.147  15.742
 9827TIP3    H250897   3.010   3.068  15.614
 9828TIP3   OH250898   2.487   2.854  15.838
 9828TIP3    H150899   2.437   2.774  15.856
 9828TIP3    H250900   2.568   2.823  15.799
 9829TIP3   OH250901   2.682   2.690  15.727
 9829TIP3    H150902   2.669   2.717  15.636
 9829TIP3    H250903   2.776   2.678  15.736
 9830TIP3   OH250904   3.565   2.914  15.707
 9830TIP3    H150905   3.569   2.885  15.616
 9830TIP3    H250906   3.552   3.009  15.701
 9831TIP3   OH250907   2.666   3.804  15.868
 9831TIP3    H150908   2.756   3.772  15.863
 9831TIP3    H250909   2.645   3.829  15.778
 9832TIP3   OH250910   2.009   3.245  15.746
 9832TIP3    H150911   2.102   3.244  15.768
 9832TIP3    H250912   1.996   3.167  15.692
 9833TIP3   OH250913   3.758   2.799  15.869
 9833TIP3    H150914   3.694   2.824  15.802
 9833TIP3    H250915   3.749   2.866  15.937
 9834TIP3   OH250916   3.552   2.533  15.701
 9834TIP3    H150917   3.544   2.579  15.618
 9834TIP3    H250918   3.516   2.446  15.684
 9835TIP3   OH250919   3.454   2.284  15.653
 9835TIP3    H150920   3.509   2.224  15.704
 9835TIP3    H250921   3.374   2.234  15.636
 9836TIP3   OH250922   3.638   2.140  15.811
 9836TIP3    H150923   3.677   2.080  15.747
 9836TIP3    H250924   3.711   2.195  15.838
 9837TIP3   OH250925   2.043   1.970  15.900
 9837TIP3    H150926   2.093   2.005  15.826
 9837TIP3    H250927   2.028   2.046  15.956
 9838TIP3   OH250928   2.225   2.105  15.725
 9838TIP3    H150929   2.272   2.046  15.667
 9838TIP3    H250930   2.291   2.137  15.786
 9839TIP3   OH250931   2.914   3.684  15.837
 9839TIP3    H150932   3.008   3.700  15.841
 9839TIP3    H250933   2.901   3.635  15.756
 9840TIP3   OH250934   2.231   3.636  15.699
 9840TIP3    H150935   2.192   3.603  15.780
 9840TIP3    H250936   2.308   3.581  15.685
 9841TIP3   OH250937   4.828   2.666  15.752
 9841TIP3    H150938   4.884   2.686  15.827
 9841TIP3    H250939   4.883   2.613  15.695
 9842TIP3   OH250940   5.031   2.708  15.932
 9842TIP3    H150941   5.085   2.739  16.005
 9842TIP3    H250942   5.076   2.740  15.854
 9843TIP3   OH250943   5.405   1.910  15.925
 9843TIP3    H150944   5.362   1.928  16.009
 9843TIP3    H250945   5.433   1.996  15.894
 9844TIP3   OH250946   5.554   3.393  15.757
 9844TIP3    H150947   5.575   3.482  15.784
 9844TIP3    H250948   5.639   3.348  15.757
 9845TIP3   OH250949   5.085   3.648  15.823
 9845TIP3    H150950   5.129   3.577  15.776
 9845TIP3    H250951   5.131   3.653  15.907
 9846TIP3   OH250952   5.192   2.854  15.762
 9846TIP3    H150953   5.156   2.860  15.673
 9846TIP3    H250954   5.287   2.864  15.749
 9847TIP3   OH250955   4.723   2.232  15.838
 9847TIP3    H150956   4.640   2.279  15.850
 9847TIP3    H250957   4.701   2.160  15.778
 9848TIP3   OH250958   4.443   2.296  15.691
 9848TIP3    H150959   4.388   2.260  15.759
 9848TIP3    H250960   4.386   2.357  15.644
 9849TIP3   OH250961   3.834   2.303  15.915
 9849TIP3    H150962   3.914   2.338  15.875
 9849TIP3    H250963   3.782   2.381  15.937
 9850TIP3   OH250964   4.327   2.570  15.833
 9850TIP3    H150965   4.276   2.537  15.759
 9850TIP3    H250966   4.413   2.592  15.795
 9851TIP3   OH250967   4.983   2.325  15.806
 9851TIP3    H150968   4.893   2.296  15.815
 9851TIP3    H250969   5.011   2.347  15.895
 9852TIP3   OH250970   4.839   3.161  15.925
 9852TIP3    H150971   4.791   3.244  15.925
 9852TIP3    H250972   4.806   3.115  16.002
 9853TIP3   OH250973   5.570   2.532  15.924
 9853TIP3    H150974   5.522   2.525  15.841
 9853TIP3    H250975   5.608   2.620  15.922
 9854TIP3   OH250976   4.014   2.770  15.782
 9854TIP3    H150977   4.052   2.846  15.826
 9854TIP3    H250978   3.921   2.772  15.806
 9855TIP3   OH250979   5.171   3.222  15.835
 9855TIP3    H150980   5.144   3.213  15.927
 9855TIP3    H250981   5.096   3.190  15.785
 9856TIP3   OH250982   5.616   3.650  15.838
 9856TIP3    H150983   5.684   3.717  15.843
 9856TIP3    H250984   5.535   3.695  15.862
 9857TIP3   OH250985   4.557   3.299  15.658
 9857TIP3    H150986   4.557   3.216  15.609
 9857TIP3    H250987   4.510   3.279  15.739
 9858TIP3   OH250988   4.413   3.285  15.896
 9858TIP3    H150989   4.410   3.220  15.966
 9858TIP3    H250990   4.429   3.368  15.941
 9859TIP3   OH250991   4.073   2.996  15.930
 9859TIP3    H150992   4.131   2.990  16.005
 9859TIP3    H250993   4.098   3.077  15.886
 9860TIP3   OH250994   4.712   3.404  15.910
 9860TIP3    H150995   4.628   3.444  15.934
 9860TIP3    H250996   4.727   3.431  15.820
 9861TIP3   OH250997   4.480   3.541  15.983
 9861TIP3    H150998   4.479   3.615  15.922
 9861TIP3    H250999   4.482   3.582  16.070
 9862TIP3   OH251000   4.278   2.211  15.904
 9862TIP3    H151001   4.242   2.297  15.927
 9862TIP3    H251002   4.362   2.208  15.950
 9863TIP3   OH251003   4.160   3.224  15.799
 9863TIP3    H151004   4.235   3.273  15.833
 9863TIP3    H251005   4.197   3.169  15.730
 9864TIP3   OH251006   4.008   2.494  15.795
 9864TIP3    H151007   4.021   2.588  15.791
 9864TIP3    H251008   3.992   2.468  15.704
 9865TIP3   OH251009   4.764   3.476  15.642
 9865TIP3    H151010   4.695   3.410  15.632
 9865TIP3    H251011   4.842   3.436  15.604
 9866TIP3   OH251012   5.212   3.454  15.677
 9866TIP3    H151013   5.225   3.380  15.737
 9866TIP3    H251014   5.292   3.455  15.624
 9867TIP3   OH251015   4.299   3.042  15.651
 9867TIP3    H151016   4.314   2.975  15.719
 9867TIP3    H251017   4.383   3.050  15.607
 9868TIP3   OH251018   4.951   3.145  15.677
 9868TIP3    H151019   4.900   3.143  15.758
 9868TIP3    H251020   4.933   3.061  15.635
 9869TIP3   OH251021   4.366   2.854  15.844
 9869TIP3    H151022   4.311   2.777  15.860
 9869TIP3    H251023   4.446   2.819  15.805
 9870TIP3   OH251024   4.560   2.693  15.733
 9870TIP3    H151025   4.550   2.719  15.641
 9870TIP3    H251026   4.653   2.677  15.744
 9871TIP3   OH251027   5.459   2.915  15.708
 9871TIP3    H151028   5.462   2.882  15.618
 9871TIP3    H251029   5.448   3.009  15.699
 9872TIP3   OH251030   4.569   3.799  15.884
 9872TIP3    H151031   4.656   3.760  15.874
 9872TIP3    H251032   4.556   3.850  15.804
 9873TIP3   OH251033   3.888   3.236  15.765
 9873TIP3    H151034   3.983   3.242  15.777
 9873TIP3    H251035   3.875   3.161  15.707
 9874TIP3   OH251036   5.641   2.793  15.875
 9874TIP3    H151037   5.581   2.820  15.805
 9874TIP3    H251038   5.638   2.864  15.939
 9875TIP3   OH251039   5.435   2.525  15.688
 9875TIP3    H151040   5.411   2.571  15.607
 9875TIP3    H251041   5.414   2.433  15.670
 9876TIP3   OH251042   5.362   2.271  15.624
 9876TIP3    H151043   5.399   2.211  15.690
 9876TIP3    H251044   5.275   2.236  15.606
 9877TIP3   OH251045   5.523   2.136  15.818
 9877TIP3    H151046   5.560   2.078  15.751
 9877TIP3    H251047   5.595   2.194  15.842
 9878TIP3   OH251048   3.905   1.982  15.894
 9878TIP3    H151049   3.961   2.010  15.822
 9878TIP3    H251050   3.924   2.044  15.965
 9879TIP3   OH251051   4.099   2.104  15.721
 9879TIP3    H151052   4.148   2.044  15.665
 9879TIP3    H251053   4.162   2.133  15.787
 9880TIP3   OH251054   4.810   3.687  15.819
 9880TIP3    H151055   4.905   3.687  15.829
 9880TIP3    H251056   4.793   3.625  15.749
 9881TIP3   OH251057   4.127   3.651  15.691
 9881TIP3    H151058   4.099   3.646  15.783
 9881TIP3    H251059   4.202   3.591  15.686
 9882TIP3   OH251060   6.728   2.686  15.737
 9882TIP3    H151061   6.780   2.707  15.814
 9882TIP3    H251062   6.785   2.631  15.683
 9883TIP3   OH251063   6.920   2.740  15.929
 9883TIP3    H151064   6.960   2.775  16.008
 9883TIP3    H251065   6.974   2.772  15.857
 9884TIP3   OH251066   7.019   3.637  15.745
 9884TIP3    H151067   7.060   3.556  15.715
 9884TIP3    H251068   6.987   3.616  15.833
 9885TIP3   OH251069   7.105   2.891  15.777
 9885TIP3    H151070   7.091   2.874  15.684
 9885TIP3    H251071   7.088   2.984  15.788
 9886TIP3   OH251072   6.623   2.230  15.825
 9886TIP3    H151073   6.542   2.275  15.851
 9886TIP3    H251074   6.595   2.161  15.765
 9887TIP3   OH251075   6.328   2.294  15.685
 9887TIP3    H151076   6.275   2.263  15.758
 9887TIP3    H251077   6.272   2.356  15.639
 9888TIP3   OH251078   5.721   2.300  15.913
 9888TIP3    H151079   5.798   2.336  15.868
 9888TIP3    H251080   5.668   2.377  15.934
 9889TIP3   OH251081   6.218   2.568  15.826
 9889TIP3    H151082   6.168   2.539  15.750
 9889TIP3    H251083   6.305   2.588  15.792
 9890TIP3   OH251084   6.877   2.341  15.799
 9890TIP3    H151085   6.788   2.306  15.808
 9890TIP3    H251086   6.899   2.373  15.886
 9891TIP3   OH251087   6.759   3.141  15.906
 9891TIP3    H151088   6.708   3.221  15.911
 9891TIP3    H251089   6.754   3.104  15.994
 9892TIP3   OH251090   5.897   2.770  15.784
 9892TIP3    H151091   5.932   2.851  15.821
 9892TIP3    H251092   5.805   2.769  15.812
 9893TIP3   OH251093   7.037   3.144  15.856
 9893TIP3    H151094   7.061   3.184  15.939
 9893TIP3    H251095   6.942   3.154  15.850
 9894TIP3   OH251096   6.442   3.311  15.660
 9894TIP3    H151097   6.453   3.226  15.618
 9894TIP3    H251098   6.398   3.292  15.742
 9895TIP3   OH251099   6.302   3.295  15.901
 9895TIP3    H151100   6.308   3.241  15.979
 9895TIP3    H251101   6.318   3.385  15.932
 9896TIP3   OH251102   5.928   2.998  15.939
 9896TIP3    H151103   5.946   2.950  16.020
 9896TIP3    H251104   6.001   3.058  15.930
 9897TIP3   OH251105   6.627   3.377  15.904
 9897TIP3    H151106   6.579   3.420  15.834
 9897TIP3    H251107   6.710   3.424  15.909
 9898TIP3   OH251108   6.345   3.554  15.979
 9898TIP3    H151109   6.359   3.625  15.916
 9898TIP3    H251110   6.375   3.590  16.062
 9899TIP3   OH251111   6.164   2.215  15.903
 9899TIP3    H151112   6.129   2.302  15.923
 9899TIP3    H251113   6.247   2.211  15.950
 9900TIP3   OH251114   6.056   3.225  15.795
 9900TIP3    H151115   6.132   3.269  15.833
 9900TIP3    H251116   6.093   3.165  15.730
 9901TIP3   OH251117   5.877   2.495  15.780
 9901TIP3    H151118   5.902   2.587  15.780
 9901TIP3    H251119   5.830   2.482  15.697
 9902TIP3   OH251120   6.659   3.487  15.628
 9902TIP3    H151121   6.597   3.414  15.630
 9902TIP3    H251122   6.741   3.448  15.599
 9903TIP3   OH251123   7.131   3.399  15.656
 9903TIP3    H151124   7.176   3.333  15.709
 9903TIP3    H251125   7.197   3.425  15.591
 9904TIP3   OH251126   6.184   3.037  15.640
 9904TIP3    H151127   6.199   2.973  15.710
 9904TIP3    H251128   6.271   3.050  15.601
 9905TIP3   OH251129   6.754   3.160  15.630
 9905TIP3    H151130   6.749   3.152  15.725
 9905TIP3    H251131   6.753   3.070  15.598
 9906TIP3   OH251132   6.260   2.856  15.838
 9906TIP3    H151133   6.214   2.776  15.862
 9906TIP3    H251134   6.343   2.826  15.799
 9907TIP3   OH251135   6.455   2.690  15.730
 9907TIP3    H151136   6.443   2.715  15.638
 9907TIP3    H251137   6.550   2.682  15.739
 9908TIP3   OH251138   6.441   3.813  15.886
 9908TIP3    H151139   6.524   3.764  15.883
 9908TIP3    H251140   6.440   3.863  15.804
 9909TIP3   OH251141   5.788   3.244  15.745
 9909TIP3    H151142   5.878   3.240  15.775
 9909TIP3    H251143   5.776   3.165  15.691
 9910TIP3   OH251144   7.264   2.218  15.609
 9910TIP3    H151145   7.283   2.230  15.702
 9910TIP3    H251146   7.169   2.213  15.604
 9911TIP3   OH251147   5.797   1.975  15.898
 9911TIP3    H151148   5.851   2.006  15.825
 9911TIP3    H251149   5.798   2.047  15.961
 9912TIP3   OH251150   5.987   2.099  15.724
 9912TIP3    H151151   6.038   2.040  15.669
 9912TIP3    H251152   6.049   2.132  15.789
 9913TIP3   OH251153   6.672   3.673  15.840
 9913TIP3    H151154   6.752   3.650  15.886
 9913TIP3    H251155   6.677   3.627  15.757
 9914TIP3   OH251156   6.010   3.654  15.714
 9914TIP3    H151157   5.998   3.657  15.809
 9914TIP3    H251158   6.081   3.591  15.700
 9915TIP3   OH251159   1.063   4.579  15.748
 9915TIP3    H151160   1.118   4.598  15.824
 9915TIP3    H251161   1.112   4.512  15.699
 9916TIP3   OH251162   1.282   4.606  15.917
 9916TIP3    H151163   1.322   4.655  15.989
 9916TIP3    H251164   1.325   4.639  15.838
 9917TIP3   OH251165   1.652   3.845  15.931
 9917TIP3    H151166   1.576   3.812  15.979
 9917TIP3    H251167   1.691   3.909  15.990
 9918TIP3   OH251168   1.764   5.267  15.776
 9918TIP3    H151169   1.788   5.356  15.801
 9918TIP3    H251170   1.846   5.217  15.785
 9919TIP3   OH251171   1.326   5.524  15.820
 9919TIP3    H151172   1.377   5.452  15.783
 9919TIP3    H251173   1.350   5.525  15.913
 9920TIP3   OH251174   1.408   4.742  15.716
 9920TIP3    H151175   1.395   4.741  15.621
 9920TIP3    H251176   1.406   4.835  15.739
 9921TIP3   OH251177   0.967   4.123  15.832
 9921TIP3    H151178   0.887   4.164  15.865
 9921TIP3    H251179   0.936   4.055  15.772
 9922TIP3   OH251180   0.678   4.187  15.685
 9922TIP3    H151181   0.624   4.153  15.757
 9922TIP3    H251182   0.622   4.251  15.641
 9923TIP3   OH251183   0.095   4.281  15.970
 9923TIP3    H151184   0.141   4.315  15.893
 9923TIP3    H251185   0.043   4.208  15.937
 9924TIP3   OH251186   0.575   4.462  15.863
 9924TIP3    H151187   0.502   4.420  15.817
 9924TIP3    H251188   0.641   4.477  15.796
 9925TIP3   OH251189   1.224   4.224  15.816
 9925TIP3    H151190   1.135   4.190  15.823
 9925TIP3    H251191   1.251   4.241  15.907
 9926TIP3   OH251192   1.069   5.049  15.929
 9926TIP3    H151193   1.022   5.133  15.927
 9926TIP3    H251194   1.037   5.006  16.008
 9927TIP3   OH251195   1.872   4.428  15.932
 9927TIP3    H151196   1.800   4.395  15.877
 9927TIP3    H251197   1.852   4.521  15.943
 9928TIP3   OH251198   0.157   4.666  15.782
 9928TIP3    H151199   0.217   4.727  15.824
 9928TIP3    H251200   0.072   4.686  15.822
 9929TIP3   OH251201   1.393   5.009  15.856
 9929TIP3    H151202   1.369   5.052  15.939
 9929TIP3    H251203   1.320   5.028  15.797
 9930TIP3   OH251204   1.849   5.524  15.868
 9930TIP3    H151205   1.919   5.588  15.857
 9930TIP3    H251206   1.769   5.576  15.872
 9931TIP3   OH251207   0.789   5.185  15.651
 9931TIP3    H151208   0.788   5.101  15.606
 9931TIP3    H251209   0.741   5.170  15.732
 9932TIP3   OH251210   0.643   5.174  15.885
 9932TIP3    H151211   0.641   5.106  15.952
 9932TIP3    H251212   0.656   5.255  15.935
 9933TIP3   OH251213   0.306   4.852  15.911
 9933TIP3    H151214   0.294   4.849  16.006
 9933TIP3    H251215   0.335   4.942  15.894
 9934TIP3   OH251216   0.944   5.292  15.909
 9934TIP3    H151217   0.860   5.328  15.935
 9934TIP3    H251218   0.956   5.323  15.819
 9935TIP3   OH251219   0.710   5.425  15.982
 9935TIP3    H151220   0.715   5.500  15.922
 9935TIP3    H251221   0.715   5.463  16.069
 9936TIP3   OH251222   0.527   4.098  15.897
 9936TIP3    H151223   0.468   4.064  15.965
 9936TIP3    H251224   0.600   4.135  15.946
 9937TIP3   OH251225   0.388   5.100  15.798
 9937TIP3    H151226   0.460   5.155  15.830
 9937TIP3    H251227   0.429   5.042  15.734
 9938TIP3   OH251228   0.217   4.400  15.756
 9938TIP3    H151229   0.204   4.494  15.767
 9938TIP3    H251230   0.170   4.380  15.674
 9939TIP3   OH251231   0.997   5.363  15.641
 9939TIP3    H151232   0.929   5.296  15.630
 9939TIP3    H251233   1.076   5.322  15.605
 9940TIP3   OH251234   1.483   5.333  15.680
 9940TIP3    H151235   1.556   5.310  15.738
 9940TIP3    H251236   1.524   5.353  15.596
 9941TIP3   OH251237   0.532   4.923  15.648
 9941TIP3    H151238   0.547   4.860  15.719
 9941TIP3    H251239   0.618   4.931  15.606
 9942TIP3   OH251240   1.180   5.029  15.681
 9942TIP3    H151241   1.126   5.032  15.759
 9942TIP3    H251242   1.151   4.950  15.634
 9943TIP3   OH251243   0.608   4.745  15.844
 9943TIP3    H151244   0.552   4.674  15.874
 9943TIP3    H251245   0.682   4.702  15.802
 9944TIP3   OH251246   0.790   4.582  15.720
 9944TIP3    H151247   0.782   4.606  15.628
 9944TIP3    H251248   0.885   4.576  15.735
 9945TIP3   OH251249   1.730   4.766  15.639
 9945TIP3    H151250   1.691   4.762  15.552
 9945TIP3    H251251   1.701   4.851  15.674
 9946TIP3   OH251252   0.801   5.671  15.879
 9946TIP3    H151253   0.891   5.640  15.868
 9946TIP3    H251254   0.787   5.730  15.805
 9947TIP3   OH251255   0.114   5.094  15.791
 9947TIP3    H151256   0.209   5.105  15.790
 9947TIP3    H251257   0.095   5.040  15.714
 9948TIP3   OH251258   1.818   4.694  15.891
 9948TIP3    H151259   1.766   4.704  15.812
 9948TIP3    H251260   1.792   4.768  15.946
 9949TIP3   OH251261   1.683   4.399  15.731
 9949TIP3    H151262   1.647   4.467  15.673
 9949TIP3    H251263   1.655   4.317  15.691
 9950TIP3   OH251264   1.594   4.171  15.605
 9950TIP3    H151265   1.644   4.105  15.654
 9950TIP3    H251266   1.506   4.135  15.599
 9951TIP3   OH251267   1.838   4.055  15.754
 9951TIP3    H151268   1.827   3.972  15.708
 9951TIP3    H251269   1.847   4.030  15.846
 9952TIP3   OH251270   0.100   3.957  15.840
 9952TIP3    H151271   0.184   3.965  15.795
 9952TIP3    H251272   0.117   3.898  15.913
 9953TIP3   OH251273   0.346   4.000  15.717
 9953TIP3    H151274   0.397   3.939  15.664
 9953TIP3    H251275   0.408   4.035  15.780
 9954TIP3   OH251276   1.049   5.572  15.818
 9954TIP3    H151277   1.145   5.572  15.823
 9954TIP3    H251278   1.029   5.511  15.746
 9955TIP3   OH251279   0.365   5.544  15.732
 9955TIP3    H151280   0.346   5.541  15.826
 9955TIP3    H251281   0.433   5.479  15.719
 9956TIP3   OH251282   2.953   4.565  15.742
 9956TIP3    H151283   3.007   4.577  15.820
 9956TIP3    H251284   3.004   4.507  15.686
 9957TIP3   OH251285   3.146   4.600  15.936
 9957TIP3    H151286   3.204   4.631  16.007
 9957TIP3    H251287   3.193   4.623  15.856
 9958TIP3   OH251288   3.525   3.810  15.926
 9958TIP3    H151289   3.430   3.823  15.930
 9958TIP3    H251290   3.558   3.892  15.889
 9959TIP3   OH251291   3.658   5.272  15.773
 9959TIP3    H151292   3.679   5.364  15.792
 9959TIP3    H251293   3.740   5.226  15.786
 9960TIP3   OH251294   3.204   5.530  15.820
 9960TIP3    H151295   3.251   5.460  15.776
 9960TIP3    H251296   3.252   5.545  15.902
 9961TIP3   OH251297   3.299   4.723  15.744
 9961TIP3    H151298   3.270   4.733  15.653
 9961TIP3    H251299   3.393   4.740  15.741
 9962TIP3   OH251300   2.858   4.169  15.787
 9962TIP3    H151301   2.781   4.141  15.836
 9962TIP3    H251302   2.875   4.098  15.725
 9963TIP3   OH251303   2.546   4.173  15.681
 9963TIP3    H151304   2.502   4.146  15.762
 9963TIP3    H251305   2.491   4.244  15.647
 9964TIP3   OH251306   2.047   4.185  15.916
 9964TIP3    H151307   2.108   4.148  15.980
 9964TIP3    H251308   1.987   4.239  15.967
 9965TIP3   OH251309   2.446   4.476  15.821
 9965TIP3    H151310   2.400   4.435  15.747
 9965TIP3    H251311   2.533   4.494  15.787
 9966TIP3   OH251312   3.114   4.258  15.784
 9966TIP3    H151313   3.022   4.232  15.786
 9966TIP3    H251314   3.148   4.232  15.869
 9967TIP3   OH251315   2.936   5.035  15.938
 9967TIP3    H151316   2.907   5.126  15.932
 9967TIP3    H251317   2.855   4.984  15.936
 9968TIP3   OH251318   3.680   4.437  15.935
 9968TIP3    H151319   3.634   4.424  15.852
 9968TIP3    H251320   3.723   4.521  15.926
 9969TIP3   OH251321   2.082   4.686  15.805
 9969TIP3    H151322   2.143   4.751  15.840
 9969TIP3    H251323   2.009   4.686  15.868
 9970TIP3   OH251324   3.299   5.070  15.839
 9970TIP3    H151325   3.273   5.086  15.930
 9970TIP3    H251326   3.216   5.065  15.791
 9971TIP3   OH251327   3.726   5.529  15.841
 9971TIP3    H151328   3.798   5.590  15.854
 9971TIP3    H251329   3.648   5.576  15.870
 9972TIP3   OH251330   2.671   5.189  15.645
 9972TIP3    H151331   2.671   5.104  15.601
 9972TIP3    H251332   2.622   5.174  15.726
 9973TIP3   OH251333   2.524   5.176  15.879
 9973TIP3    H151334   2.528   5.110  15.949
 9973TIP3    H251335   2.542   5.259  15.923
 9974TIP3   OH251336   2.210   4.896  15.925
 9974TIP3    H151337   2.201   4.922  16.017
 9974TIP3    H251338   2.231   4.976  15.878
 9975TIP3   OH251339   2.833   5.284  15.904
 9975TIP3    H151340   2.753   5.329  15.932
 9975TIP3    H251341   2.853   5.322  15.818
 9976TIP3   OH251342   2.603   5.421  15.979
 9976TIP3    H151343   2.605   5.495  15.919
 9976TIP3    H251344   2.605   5.460  16.067
 9977TIP3   OH251345   2.441   4.011  15.892
 9977TIP3    H151346   2.479   4.078  15.949
 9977TIP3    H251347   2.505   3.940  15.893
 9978TIP3   OH251348   2.270   5.121  15.772
 9978TIP3    H151349   2.339   5.176  15.807
 9978TIP3    H251350   2.315   5.061  15.712
 9979TIP3   OH251351   2.046   4.418  15.719
 9979TIP3    H151352   2.107   4.491  15.730
 9979TIP3    H251353   1.989   4.423  15.796
 9980TIP3   OH251354   2.882   5.364  15.639
 9980TIP3    H151355   2.815   5.297  15.627
 9980TIP3    H251356   2.962   5.325  15.602
 9981TIP3   OH251357   3.346   5.341  15.675
 9981TIP3    H151358   3.402   5.300  15.740
 9981TIP3    H251359   3.403   5.357  15.600
 9982TIP3   OH251360   2.410   4.926  15.638
 9982TIP3    H151361   2.426   4.867  15.712
 9982TIP3    H251362   2.495   4.933  15.595
 9983TIP3   OH251363   3.062   5.035  15.688
 9983TIP3    H151364   3.012   5.027  15.769
 9983TIP3    H251365   3.045   4.953  15.641
 9984TIP3   OH251366   2.494   4.755  15.839
 9984TIP3    H151367   2.438   4.681  15.861
 9984TIP3    H251368   2.571   4.714  15.798
 9985TIP3   OH251369   2.682   4.589  15.721
 9985TIP3    H151370   2.672   4.610  15.628
 9985TIP3    H251371   2.776   4.572  15.732
 9986TIP3   OH251372   3.570   4.797  15.713
 9986TIP3    H151373   3.573   4.761  15.624
 9986TIP3    H251374   3.559   4.891  15.700
 9987TIP3   OH251375   2.681   5.668  15.877
 9987TIP3    H151376   2.771   5.638  15.869
 9987TIP3    H251377   2.670   5.729  15.803
 9988TIP3   OH251378   1.995   5.101  15.800
 9988TIP3    H151379   2.087   5.121  15.787
 9988TIP3    H251380   1.976   5.031  15.738
 9989TIP3   OH251381   3.767   4.695  15.876
 9989TIP3    H151382   3.700   4.714  15.810
 9989TIP3    H251383   3.795   4.781  15.908
 9990TIP3   OH251384   3.546   4.419  15.699
 9990TIP3    H151385   3.524   4.463  15.617
 9990TIP3    H251386   3.532   4.326  15.681
 9991TIP3   OH251387   3.494   4.161  15.628
 9991TIP3    H151388   3.543   4.105  15.688
 9991TIP3    H251389   3.408   4.120  15.621
 9992TIP3   OH251390   3.654   4.023  15.811
 9992TIP3    H151391   3.697   3.965  15.749
 9992TIP3    H251392   3.724   4.078  15.846
 9993TIP3   OH251393   2.023   3.851  15.911
 9993TIP3    H151394   2.078   3.904  15.852
 9993TIP3    H251395   2.086   3.803  15.964
 9994TIP3   OH251396   2.209   3.987  15.746
 9994TIP3    H151397   2.242   3.917  15.690
 9994TIP3    H251398   2.280   4.004  15.808
 9995TIP3   OH251399   2.929   5.565  15.827
 9995TIP3    H151400   3.024   5.570  15.835
 9995TIP3    H251401   2.914   5.511  15.749
 9996TIP3   OH251402   2.210   5.481  15.698
 9996TIP3    H151403   2.206   5.498  15.792
 9996TIP3    H251404   2.298   5.445  15.684
 9997TIP3   OH251405   4.830   4.571  15.747
 9997TIP3    H151406   4.882   4.591  15.824
 9997TIP3    H251407   4.883   4.510  15.696
 9998TIP3   OH251408   5.032   4.603  15.931
 9998TIP3    H151409   5.077   4.645  16.004
 9998TIP3    H251410   5.087   4.620  15.855
 9999TIP3   OH251411   5.408   3.812  15.921
 9999TIP3    H151412   5.371   3.833  16.007
 9999TIP3    H251413   5.433   3.897  15.885
10000TIP3   OH251414   5.531   5.248  15.728
10000TIP3    H151415   5.547   5.339  15.754
10000TIP3    H251416   5.612   5.202  15.748
10001TIP3   OH251417   5.085   5.537  15.825
10001TIP3    H151418   5.137   5.464  15.790
10001TIP3    H251419   5.119   5.551  15.913
10002TIP3   OH251420   5.210   4.710  15.751
10002TIP3    H151421   5.192   4.715  15.657
10002TIP3    H251422   5.305   4.722  15.757
10003TIP3   OH251423   4.734   4.112  15.830
10003TIP3    H151424   4.655   4.163  15.847
10003TIP3    H251425   4.706   4.043  15.770
10004TIP3   OH251426   4.451   4.193  15.699
10004TIP3    H151427   4.398   4.155  15.769
10004TIP3    H251428   4.390   4.250  15.651
10005TIP3   OH251429   3.830   4.198  15.929
10005TIP3    H151430   3.911   4.229  15.888
10005TIP3    H251431   3.777   4.277  15.941
10006TIP3   OH251432   4.341   4.456  15.860
10006TIP3    H151433   4.279   4.414  15.800
10006TIP3    H251434   4.416   4.478  15.804
10007TIP3   OH251435   4.988   4.217  15.806
10007TIP3    H151436   4.900   4.182  15.815
10007TIP3    H251437   5.021   4.224  15.895
10008TIP3   OH251438   4.853   5.051  15.922
10008TIP3    H151439   4.802   5.132  15.920
10008TIP3    H251440   4.851   5.024  16.014
10009TIP3   OH251441   5.579   4.424  15.948
10009TIP3    H151442   5.529   4.417  15.867
10009TIP3    H251443   5.616   4.512  15.946
10010TIP3   OH251444   4.022   4.649  15.788
10010TIP3    H151445   4.060   4.726  15.830
10010TIP3    H251446   3.929   4.652  15.812
10011TIP3   OH251447   5.186   5.040  15.853
10011TIP3    H151448   5.176   5.066  15.945
10011TIP3    H251449   5.097   5.044  15.818
10012TIP3   OH251450   5.589   5.509  15.811
10012TIP3    H151451   5.662   5.570  15.814
10012TIP3    H251452   5.515   5.557  15.849
10013TIP3   OH251453   4.559   5.184  15.648
10013TIP3    H151454   4.560   5.097  15.608
10013TIP3    H251455   4.513   5.171  15.731
10014TIP3   OH251456   4.410   5.175  15.883
10014TIP3    H151457   4.412   5.111  15.954
10014TIP3    H251458   4.428   5.259  15.927
10015TIP3   OH251459   4.076   4.880  15.928
10015TIP3    H151460   4.128   4.890  16.008
10015TIP3    H251461   4.094   4.958  15.877
10016TIP3   OH251462   4.720   5.289  15.904
10016TIP3    H151463   4.638   5.328  15.934
10016TIP3    H251464   4.735   5.329  15.818
10017TIP3   OH251465   4.488   5.423  15.979
10017TIP3    H151466   4.487   5.501  15.923
10017TIP3    H251467   4.489   5.457  16.068
10018TIP3   OH251468   4.307   4.073  15.902
10018TIP3    H151469   4.237   4.069  15.968
10018TIP3    H251470   4.379   4.023  15.941
10019TIP3   OH251471   4.157   5.107  15.785
10019TIP3    H151472   4.226   5.162  15.822
10019TIP3    H251473   4.201   5.052  15.721
10020TIP3   OH251474   4.007   4.376  15.798
10020TIP3    H151475   4.022   4.469  15.785
10020TIP3    H251476   3.992   4.341  15.710
10021TIP3   OH251477   4.770   5.360  15.633
10021TIP3    H151478   4.703   5.292  15.628
10021TIP3    H251479   4.850   5.318  15.600
10022TIP3   OH251480   5.235   5.340  15.688
10022TIP3    H151481   5.290   5.315  15.762
10022TIP3    H251482   5.296   5.354  15.616
10023TIP3   OH251483   4.300   4.924  15.640
10023TIP3    H151484   4.312   4.861  15.711
10023TIP3    H251485   4.387   4.933  15.600
10024TIP3   OH251486   4.935   5.033  15.662
10024TIP3    H151487   4.895   5.034  15.749
10024TIP3    H251488   4.911   4.948  15.625
10025TIP3   OH251489   4.367   4.742  15.838
10025TIP3    H151490   4.315   4.666  15.864
10025TIP3    H251491   4.447   4.705  15.801
10026TIP3   OH251492   4.558   4.578  15.727
10026TIP3    H151493   4.549   4.600  15.634
10026TIP3    H251494   4.653   4.569  15.740
10027TIP3   OH251495   5.473   4.804  15.701
10027TIP3    H151496   5.517   4.777  15.620
10027TIP3    H251497   5.454   4.897  15.688
10028TIP3   OH251498   4.569   5.676  15.880
10028TIP3    H151499   4.657   5.641  15.868
10028TIP3    H251500   4.556   5.735  15.806
10029TIP3   OH251501   3.884   5.103  15.796
10029TIP3    H151502   3.978   5.121  15.792
10029TIP3    H251503   3.868   5.042  15.724
10030TIP3   OH251504   5.636   4.689  15.890
10030TIP3    H151505   5.576   4.716  15.820
10030TIP3    H251506   5.621   4.751  15.961
10031TIP3   OH251507   5.441   4.422  15.717
10031TIP3    H151508   5.479   4.468  15.642
10031TIP3    H251509   5.410   4.339  15.681
10032TIP3   OH251510   5.357   4.185  15.607
10032TIP3    H151511   5.406   4.129  15.667
10032TIP3    H251512   5.274   4.138  15.594
10033TIP3   OH251513   5.516   4.038  15.792
10033TIP3    H151514   5.557   3.973  15.735
10033TIP3    H251515   5.589   4.084  15.833
10034TIP3   OH251516   3.916   3.869  15.889
10034TIP3    H151517   3.968   3.901  15.815
10034TIP3    H251518   3.951   3.915  15.965
10035TIP3   OH251519   4.109   3.992  15.726
10035TIP3    H151520   4.150   3.935  15.661
10035TIP3    H251521   4.180   4.018  15.785
10036TIP3   OH251522   4.810   5.569  15.813
10036TIP3    H151523   4.905   5.572  15.826
10036TIP3    H251524   4.798   5.511  15.737
10037TIP3   OH251525   4.122   5.525  15.711
10037TIP3    H151526   4.111   5.528  15.806
10037TIP3    H251527   4.197   5.468  15.698
10038TIP3   OH251528   6.723   4.568  15.736
10038TIP3    H151529   6.775   4.591  15.813
10038TIP3    H251530   6.777   4.507  15.687
10039TIP3   OH251531   6.916   4.635  15.921
10039TIP3    H151532   6.966   4.668  15.996
10039TIP3    H251533   6.969   4.659  15.845
10040TIP3   OH251534   7.003   5.551  15.854
10040TIP3    H151535   7.038   5.477  15.804
10040TIP3    H251536   6.955   5.510  15.927
10041TIP3   OH251537   7.116   4.795  15.781
10041TIP3    H151538   7.101   4.765  15.691
10041TIP3    H251539   7.112   4.890  15.776
10042TIP3   OH251540   6.632   4.133  15.803
10042TIP3    H151541   6.589   4.133  15.889
10042TIP3    H251542   6.589   4.063  15.755
10043TIP3   OH251543   6.317   4.181  15.681
10043TIP3    H151544   6.271   4.149  15.759
10043TIP3    H251545   6.257   4.245  15.643
10044TIP3   OH251546   5.716   4.186  15.912
10044TIP3    H151547   5.799   4.217  15.877
10044TIP3    H251548   5.670   4.265  15.940
10045TIP3   OH251549   6.220   4.474  15.838
10045TIP3    H151550   6.159   4.430  15.779
10045TIP3    H251551   6.300   4.484  15.787
10046TIP3   OH251552   6.888   4.230  15.816
10046TIP3    H151553   6.796   4.202  15.813
10046TIP3    H251554   6.912   4.226  15.909
10047TIP3   OH251555   6.740   5.058  15.918
10047TIP3    H151556   6.685   5.136  15.925
10047TIP3    H251557   6.723   5.009  15.998
10048TIP3   OH251558   5.879   4.664  15.765
10048TIP3    H151559   5.927   4.737  15.805
10048TIP3    H251560   5.793   4.667  15.806
10049TIP3   OH251561   7.031   5.081  15.856
10049TIP3    H151562   7.027   5.076  15.952
10049TIP3    H251563   6.940   5.072  15.828
10050TIP3   OH251564   6.440   5.188  15.658
10050TIP3    H151565   6.444   5.102  15.615
10050TIP3    H251566   6.388   5.171  15.737
10051TIP3   OH251567   6.283   5.175  15.886
10051TIP3    H151568   6.276   5.112  15.958
10051TIP3    H251569   6.302   5.259  15.929
10052TIP3   OH251570   5.955   4.862  15.941
10052TIP3    H151571   5.921   4.809  16.014
10052TIP3    H251572   6.038   4.897  15.973
10053TIP3   OH251573   6.602   5.296  15.919
10053TIP3    H151574   6.517   5.329  15.947
10053TIP3    H251575   6.610   5.321  15.827
10054TIP3   OH251576   6.363   5.423  15.978
10054TIP3    H151577   6.372   5.502  15.925
10054TIP3    H251578   6.346   5.456  16.066
10055TIP3   OH251579   6.200   4.027  15.901
10055TIP3    H151580   6.246   4.094  15.952
10055TIP3    H251581   6.258   3.951  15.904
10056TIP3   OH251582   6.038   5.142  15.744
10056TIP3    H151583   6.108   5.182  15.795
10056TIP3    H251584   6.077   5.063  15.707
10057TIP3   OH251585   5.880   4.390  15.790
10057TIP3    H151586   5.895   4.484  15.782
10057TIP3    H251587   5.844   4.363  15.706
10058TIP3   OH251588   6.651   5.361  15.647
10058TIP3    H151589   6.581   5.297  15.638
10058TIP3    H251590   6.727   5.320  15.605
10059TIP3   OH251591   7.088   5.333  15.713
10059TIP3    H151592   7.103   5.243  15.742
10059TIP3    H251593   7.146   5.344  15.637
10060TIP3   OH251594   6.181   4.925  15.644
10060TIP3    H151595   6.194   4.864  15.717
10060TIP3    H251596   6.267   4.934  15.604
10061TIP3   OH251597   6.786   5.046  15.648
10061TIP3    H151598   6.754   5.041  15.738
10061TIP3    H251599   6.777   4.957  15.613
10062TIP3   OH251600   6.270   4.748  15.840
10062TIP3    H151601   6.224   4.668  15.864
10062TIP3    H251602   6.348   4.718  15.795
10063TIP3   OH251603   6.450   4.581  15.711
10063TIP3    H151604   6.443   4.604  15.619
10063TIP3    H251605   6.544   4.568  15.725
10064TIP3   OH251606   6.456   5.671  15.881
10064TIP3    H151607   6.546   5.641  15.867
10064TIP3    H251608   6.439   5.731  15.809
10065TIP3   OH251609   5.765   5.100  15.769
10065TIP3    H151610   5.859   5.119  15.775
10065TIP3    H251611   5.759   5.028  15.706
10066TIP3   OH251612   7.255   4.125  15.655
10066TIP3    H151613   7.283   4.055  15.713
10066TIP3    H251614   7.163   4.106  15.636
10067TIP3   OH251615   5.787   3.869  15.886
10067TIP3    H151616   5.840   3.910  15.818
10067TIP3    H251617   5.836   3.883  15.967
10068TIP3   OH251618   5.990   3.996  15.724
10068TIP3    H151619   6.034   3.934  15.666
10068TIP3    H251620   6.054   4.015  15.793
10069TIP3   OH251621   6.705   5.579  15.812
10069TIP3    H151622   6.799   5.596  15.803
10069TIP3    H251623   6.687   5.510  15.747
10070TIP3   OH251624   6.003   5.530  15.698
10070TIP3    H151625   5.984   5.542  15.791
10070TIP3    H251626   6.079   5.472  15.696
10071TIP3   OH251627   1.065   6.445  15.743
10071TIP3    H151628   1.118   6.471  15.818
10071TIP3    H251629   1.122   6.390  15.690
10072TIP3   OH251630   1.268   6.494  15.926
10072TIP3    H151631   1.319   6.542  15.991
10072TIP3    H251632   1.312   6.513  15.843
10073TIP3   OH251633   1.633   5.681  15.926
10073TIP3    H151634   1.549   5.699  15.968
10073TIP3    H251635   1.665   5.768  15.899
10074TIP3   OH251636   1.782   7.136  15.768
10074TIP3    H151637   1.757   7.201  15.833
10074TIP3    H251638   1.867   7.104  15.797
10075TIP3   OH251639   1.408   6.574  15.706
10075TIP3    H151640   1.388   6.601  15.616
10075TIP3    H251641   1.483   6.629  15.731
10076TIP3   OH251642   0.953   6.001  15.841
10076TIP3    H151643   0.872   6.051  15.854
10076TIP3    H251644   0.929   5.932  15.779
10077TIP3   OH251645   0.673   6.064  15.681
10077TIP3    H151646   0.616   6.031  15.751
10077TIP3    H251647   0.620   6.128  15.635
10078TIP3   OH251648   0.022   6.091  15.876
10078TIP3    H151649   0.088   6.155  15.847
10078TIP3    H251650   0.011   6.109  15.970
10079TIP3   OH251651   0.560   6.332  15.822
10079TIP3    H151652   0.515   6.308  15.740
10079TIP3    H251653   0.647   6.359  15.794
10080TIP3   OH251654   1.217   6.084  15.817
10080TIP3    H151655   1.126   6.056  15.826
10080TIP3    H251656   1.233   6.138  15.894
10081TIP3   OH251657   1.047   6.939  15.924
10081TIP3    H151658   1.019   7.031  15.928
10081TIP3    H251659   1.066   6.916  16.014
10082TIP3   OH251660   1.820   6.316  15.935
10082TIP3    H151661   1.772   6.301  15.853
10082TIP3    H251662   1.846   6.408  15.931
10083TIP3   OH251663   0.169   6.564  15.786
10083TIP3    H151664   0.221   6.628  15.836
10083TIP3    H251665   0.079   6.595  15.796
10084TIP3   OH251666   1.385   6.874  15.906
10084TIP3    H151667   1.370   6.934  15.979
10084TIP3    H251668   1.345   6.917  15.831
10085TIP3   OH251669   0.822   7.035  15.655
10085TIP3    H151670   0.818   6.952  15.608
10085TIP3    H251671   0.782   7.017  15.740
10086TIP3   OH251672   0.665   7.041  15.881
10086TIP3    H151673   0.653   6.974  15.948
10086TIP3    H251674   0.679   7.122  15.930
10087TIP3   OH251675   0.280   6.772  15.926
10087TIP3    H151676   0.237   6.813  16.001
10087TIP3    H251677   0.329   6.842  15.884
10088TIP3   OH251678   0.969   7.207  15.937
10088TIP3    H151679   0.879   7.236  15.953
10088TIP3    H251680   0.986   7.233  15.846
10089TIP3   OH251681   0.710   0.004  15.952
10089TIP3    H151682   0.710   0.053  15.870
10089TIP3    H251683   0.681   0.067  16.018
10090TIP3   OH251684   0.507   6.008  15.900
10090TIP3    H151685   0.472   6.097  15.905
10090TIP3    H251686   0.590   6.011  15.948
10091TIP3   OH251687   0.383   6.993  15.786
10091TIP3    H151688   0.441   7.065  15.808
10091TIP3    H251689   0.437   6.935  15.731
10092TIP3   OH251690   0.195   6.290  15.786
10092TIP3    H151691   0.190   6.386  15.788
10092TIP3    H251692   0.180   6.268  15.694
10093TIP3   OH251693   0.982   7.253  15.668
10093TIP3    H151694   0.928   7.175  15.659
10093TIP3    H251695   1.059   7.236  15.614
10094TIP3   OH251696   1.490   7.209  15.710
10094TIP3    H151697   1.539   7.222  15.791
10094TIP3    H251698   1.552   7.228  15.640
10095TIP3   OH251699   0.534   6.808  15.650
10095TIP3    H151700   0.553   6.748  15.723
10095TIP3    H251701   0.616   6.815  15.603
10096TIP3   OH251702   1.141   6.909  15.663
10096TIP3    H151703   1.100   6.911  15.749
10096TIP3    H251704   1.120   6.822  15.629
10097TIP3   OH251705   0.605   6.625  15.846
10097TIP3    H151706   0.550   6.550  15.867
10097TIP3    H251707   0.681   6.587  15.803
10098TIP3   OH251708   0.793   6.460  15.729
10098TIP3    H151709   0.782   6.484  15.637
10098TIP3    H251710   0.887   6.450  15.741
10099TIP3   OH251711   1.682   6.684  15.676
10099TIP3    H151712   1.678   6.657  15.585
10099TIP3    H251713   1.670   6.779  15.674
10100TIP3   OH251714   0.108   7.006  15.731
10100TIP3    H151715   0.201   7.004  15.753
10100TIP3    H251716   0.097   6.935  15.668
10101TIP3   OH251717   1.855   6.585  15.870
10101TIP3    H151718   1.803   6.605  15.793
10101TIP3    H251719   1.832   6.654  15.933
10102TIP3   OH251720   1.673   6.284  15.710
10102TIP3    H151721   1.640   6.350  15.648
10102TIP3    H251722   1.649   6.200  15.670
10103TIP3   OH251723   1.595   6.035  15.621
10103TIP3    H151724   1.618   5.982  15.697
10103TIP3    H251725   1.505   6.011  15.601
10104TIP3   OH251726   1.763   5.905  15.836
10104TIP3    H151727   1.794   5.852  15.762
10104TIP3    H251728   1.827   5.975  15.844
10105TIP3   OH251729   0.041   5.773  15.933
10105TIP3    H151730   0.081   5.815  15.857
10105TIP3    H251731   0.112   5.768  15.997
10106TIP3   OH251732   0.320   5.872  15.737
10106TIP3    H151733   0.368   5.803  15.692
10106TIP3    H251734   0.383   5.908  15.800
10107TIP3   OH251735   2.943   6.453  15.744
10107TIP3    H151736   2.997   6.479  15.818
10107TIP3    H251737   2.999   6.397  15.691
10108TIP3   OH251738   3.151   6.497  15.925
10108TIP3    H151739   3.207   6.535  15.993
10108TIP3    H251740   3.187   6.532  15.843
10109TIP3   OH251741   3.516   5.687  15.936
10109TIP3    H151742   3.504   5.705  16.029
10109TIP3    H251743   3.546   5.771  15.899
10110TIP3   OH251744   3.668   7.163  15.740
10110TIP3    H151745   3.666   7.215  15.820
10110TIP3    H251746   3.752   7.118  15.742
10111TIP3   OH251747   3.263   6.632  15.717
10111TIP3    H151748   3.274   6.628  15.622
10111TIP3    H251749   3.288   6.721  15.740
10112TIP3   OH251750   2.843   6.001  15.835
10112TIP3    H151751   2.764   6.055  15.838
10112TIP3    H251752   2.822   5.929  15.776
10113TIP3   OH251753   2.559   6.061  15.685
10113TIP3    H151754   2.508   6.043  15.764
10113TIP3    H251755   2.505   6.121  15.634
10114TIP3   OH251756   1.962   6.078  15.902
10114TIP3    H151757   2.036   6.115  15.853
10114TIP3    H251758   1.913   6.155  15.933
10115TIP3   OH251759   2.443   6.310  15.825
10115TIP3    H151760   2.397   6.295  15.743
10115TIP3    H251761   2.527   6.348  15.799
10116TIP3   OH251762   3.103   6.102  15.805
10116TIP3    H151763   3.014   6.070  15.819
10116TIP3    H251764   3.133   6.130  15.892
10117TIP3   OH251765   2.935   6.916  15.890
10117TIP3    H151766   2.984   6.998  15.890
10117TIP3    H251767   2.902   6.908  15.979
10118TIP3   OH251768   3.709   6.306  15.928
10118TIP3    H151769   3.661   6.295  15.846
10118TIP3    H251770   3.734   6.398  15.930
10119TIP3   OH251771   2.123   6.540  15.810
10119TIP3    H151772   2.164   6.616  15.852
10119TIP3    H251773   2.029   6.551  15.825
10120TIP3   OH251774   3.301   6.938  15.846
10120TIP3    H151775   3.298   6.952  15.941
10120TIP3    H251776   3.225   6.985  15.812
10121TIP3   OH251777   2.684   7.030  15.663
10121TIP3    H151778   2.684   6.946  15.617
10121TIP3    H251779   2.651   7.009  15.751
10122TIP3   OH251780   2.556   7.054  15.910
10122TIP3    H151781   2.547   6.985  15.976
10122TIP3    H251782   2.633   7.103  15.937
10123TIP3   OH251783   2.197   6.768  15.940
10123TIP3    H151784   2.144   6.805  16.010
10123TIP3    H251785   2.235   6.844  15.895
10124TIP3   OH251786   2.781   7.218  15.919
10124TIP3    H151787   2.750   7.290  15.864
10124TIP3    H251788   2.870   7.200  15.887
10125TIP3   OH251789   2.523   0.072  15.932
10125TIP3    H151790   2.516   0.034  15.844
10125TIP3    H251791   2.514  -0.003  15.991
10126TIP3   OH251792   2.382   6.023  15.905
10126TIP3    H151793   2.350   6.113  15.897
10126TIP3    H251794   2.462   6.030  15.957
10127TIP3   OH251795   2.294   6.996  15.806
10127TIP3    H151796   2.366   7.047  15.844
10127TIP3    H251797   2.335   6.946  15.735
10128TIP3   OH251798   2.117   6.268  15.767
10128TIP3    H151799   2.133   6.360  15.784
10128TIP3    H251800   2.076   6.266  15.681
10129TIP3   OH251801   2.862   7.203  15.552
10129TIP3    H151802   2.808   7.138  15.597
10129TIP3    H251803   2.936   7.218  15.611
10130TIP3   OH251804   3.404   7.247  15.699
10130TIP3    H151805   3.362   7.194  15.768
10130TIP3    H251806   3.497   7.226  15.705
10131TIP3   OH251807   2.420   6.813  15.645
10131TIP3    H151808   2.437   6.753  15.718
10131TIP3    H251809   2.502   6.815  15.595
10132TIP3   OH251810   2.998   6.919  15.619
10132TIP3    H151811   2.965   6.916  15.708
10132TIP3    H251812   2.991   6.829  15.587
10133TIP3   OH251813   2.485   6.628  15.844
10133TIP3    H151814   2.415   6.565  15.862
10133TIP3    H251815   2.553   6.576  15.802
10134TIP3   OH251816   2.668   6.455  15.733
10134TIP3    H151817   2.659   6.479  15.640
10134TIP3    H251818   2.763   6.449  15.746
10135TIP3   OH251819   3.602   6.680  15.689
10135TIP3    H151820   3.577   6.646  15.603
10135TIP3    H251821   3.582   6.774  15.684
10136TIP3   OH251822   2.021   6.994  15.808
10136TIP3    H151823   2.115   7.006  15.804
10136TIP3    H251824   2.001   6.931  15.738
10137TIP3   OH251825   3.753   6.573  15.885
10137TIP3    H151826   3.703   6.600  15.808
10137TIP3    H251827   3.728   6.635  15.953
10138TIP3   OH251828   3.571   6.280  15.696
10138TIP3    H151829   3.534   6.342  15.633
10138TIP3    H251830   3.545   6.194  15.662
10139TIP3   OH251831   3.487   6.032  15.607
10139TIP3    H151832   3.517   5.981  15.683
10139TIP3    H251833   3.395   6.008  15.597
10140TIP3   OH251834   3.638   5.905  15.811
10140TIP3    H151835   3.675   5.843  15.748
10140TIP3    H251836   3.711   5.962  15.834
10141TIP3   OH251837   2.043   5.745  15.898
10141TIP3    H151838   2.098   5.780  15.828
10141TIP3    H251839   2.005   5.822  15.940
10142TIP3   OH251840   2.224   5.873  15.726
10142TIP3    H151841   2.282   5.820  15.672
10142TIP3    H251842   2.283   5.918  15.787
10143TIP3   OH251843   4.827   6.451  15.742
10143TIP3    H151844   4.881   6.471  15.818
10143TIP3    H251845   4.878   6.387  15.692
10144TIP3   OH251846   5.026   6.491  15.925
10144TIP3    H151847   5.088   6.494  15.998
10144TIP3    H251848   5.076   6.526  15.851
10145TIP3   OH251849   5.401   5.682  15.922
10145TIP3    H151850   5.390   5.691  16.017
10145TIP3    H251851   5.431   5.768  15.893
10146TIP3   OH251852   5.523   7.127  15.772
10146TIP3    H151853   5.524   7.207  15.824
10146TIP3    H251854   5.614   7.096  15.773
10147TIP3   OH251855   5.188   6.617  15.745
10147TIP3    H151856   5.162   6.622  15.654
10147TIP3    H251857   5.283   6.629  15.744
10148TIP3   OH251858   4.734   6.005  15.835
10148TIP3    H151859   4.652   6.043  15.868
10148TIP3    H251860   4.706   5.938  15.773
10149TIP3   OH251861   4.438   6.064  15.688
10149TIP3    H151862   4.386   6.037  15.764
10149TIP3    H251863   4.383   6.127  15.642
10150TIP3   OH251864   3.842   6.065  15.905
10150TIP3    H151865   3.918   6.099  15.858
10150TIP3    H251866   3.793   6.144  15.931
10151TIP3   OH251867   4.330   6.334  15.842
10151TIP3    H151868   4.271   6.307  15.772
10151TIP3    H251869   4.411   6.358  15.797
10152TIP3   OH251870   4.993   6.108  15.819
10152TIP3    H151871   4.904   6.075  15.828
10152TIP3    H251872   5.021   6.126  15.909
10153TIP3   OH251873   4.852   6.953  15.907
10153TIP3    H151874   4.812   7.039  15.923
10153TIP3    H251875   4.812   6.896  15.973
10154TIP3   OH251876   5.585   6.301  15.922
10154TIP3    H151877   5.539   6.289  15.839
10154TIP3    H251878   5.618   6.390  15.920
10155TIP3   OH251879   4.013   6.537  15.806
10155TIP3    H151880   4.054   6.612  15.850
10155TIP3    H251881   3.921   6.542  15.831
10156TIP3   OH251882   5.156   6.982  15.858
10156TIP3    H151883   5.146   6.978  15.953
10156TIP3    H251884   5.070   6.958  15.824
10157TIP3   OH251885   4.585   7.047  15.649
10157TIP3    H151886   4.584   6.963  15.602
10157TIP3    H251887   4.542   7.028  15.733
10158TIP3   OH251888   4.438   7.042  15.883
10158TIP3    H151889   4.430   6.975  15.950
10158TIP3    H251890   4.448   7.124  15.931
10159TIP3   OH251891   4.076   6.770  15.937
10159TIP3    H151892   4.014   6.803  16.002
10159TIP3    H251893   4.110   6.849  15.894
10160TIP3   OH251894   4.725   7.202  15.945
10160TIP3    H151895   4.636   7.235  15.951
10160TIP3    H251896   4.751   7.218  15.854
10161TIP3   OH251897   4.467   0.006  15.958
10161TIP3    H151898   4.432   0.058  15.885
10161TIP3    H251899   4.415   0.033  16.034
10162TIP3   OH251900   4.270   5.998  15.908
10162TIP3    H151901   4.222   6.077  15.930
10162TIP3    H251902   4.353   6.006  15.955
10163TIP3   OH251903   4.172   6.990  15.797
10163TIP3    H151904   4.246   7.039  15.836
10163TIP3    H251905   4.213   6.936  15.730
10164TIP3   OH251906   3.999   6.262  15.770
10164TIP3    H151907   4.018   6.354  15.788
10164TIP3    H251908   3.943   6.264  15.693
10165TIP3   OH251909   4.794   7.230  15.688
10165TIP3    H151910   4.734   7.167  15.648
10165TIP3    H251911   4.827   7.282  15.614
10166TIP3   OH251912   5.236   7.201  15.702
10166TIP3    H151913   5.206   7.139  15.768
10166TIP3    H251914   5.331   7.203  15.711
10167TIP3   OH251915   4.311   6.814  15.640
10167TIP3    H151916   4.323   6.752  15.712
10167TIP3    H251917   4.395   6.817  15.596
10168TIP3   OH251918   4.925   6.925  15.640
10168TIP3    H151919   4.882   6.934  15.725
10168TIP3    H251920   4.907   6.835  15.613
10169TIP3   OH251921   4.367   6.632  15.840
10169TIP3    H151922   4.301   6.567  15.867
10169TIP3    H251923   4.438   6.579  15.804
10170TIP3   OH251924   4.555   6.462  15.729
10170TIP3    H151925   4.544   6.486  15.637
10170TIP3    H251926   4.649   6.452  15.740
10171TIP3   OH251927   5.458   6.679  15.709
10171TIP3    H151928   5.462   6.641  15.621
10171TIP3    H251929   5.435   6.770  15.694
10172TIP3   OH251930   3.907   7.025  15.736
10172TIP3    H151931   3.993   7.012  15.776
10172TIP3    H251932   3.892   6.944  15.687
10173TIP3   OH251933   5.642   6.567  15.878
10173TIP3    H151934   5.582   6.593  15.808
10173TIP3    H251935   5.620   6.625  15.951
10174TIP3   OH251936   5.452   6.283  15.685
10174TIP3    H151937   5.411   6.328  15.611
10174TIP3    H251938   5.433   6.190  15.669
10175TIP3   OH251939   5.373   6.028  15.610
10175TIP3    H151940   5.407   5.979  15.684
10175TIP3    H251941   5.280   6.004  15.605
10176TIP3   OH251942   5.524   5.905  15.807
10176TIP3    H151943   5.567   5.840  15.752
10176TIP3    H251944   5.597   5.955  15.845
10177TIP3   OH251945   3.917   5.739  15.895
10177TIP3    H151946   3.969   5.777  15.825
10177TIP3    H251947   3.907   5.810  15.959
10178TIP3   OH251948   4.102   5.874  15.725
10178TIP3    H151949   4.155   5.816  15.670
10178TIP3    H251950   4.164   5.908  15.789
10179TIP3   OH251951   6.734   6.440  15.732
10179TIP3    H151952   6.784   6.463  15.811
10179TIP3    H251953   6.794   6.388  15.680
10180TIP3   OH251954   6.920   6.509  15.924
10180TIP3    H151955   6.965   6.544  16.001
10180TIP3    H251956   6.973   6.537  15.850
10181TIP3   OH251957   7.108   6.658  15.776
10181TIP3    H151958   7.096   6.644  15.682
10181TIP3    H251959   7.083   6.749  15.790
10182TIP3   OH251960   6.612   6.001  15.838
10182TIP3    H151961   6.535   6.058  15.847
10182TIP3    H251962   6.584   5.933  15.777
10183TIP3   OH251963   6.334   6.073  15.687
10183TIP3    H151964   6.279   6.036  15.756
10183TIP3    H251965   6.276   6.134  15.641
10184TIP3   OH251966   5.733   6.064  15.896
10184TIP3    H151967   5.813   6.104  15.862
10184TIP3    H251968   5.681   6.138  15.927
10185TIP3   OH251969   6.226   6.353  15.846
10185TIP3    H151970   6.164   6.304  15.793
10185TIP3    H251971   6.303   6.363  15.790
10186TIP3   OH251972   6.890   6.016  15.861
10186TIP3    H151973   6.794   6.014  15.858
10186TIP3    H251974   6.910   6.067  15.940
10187TIP3   OH251975   6.742   6.952  15.907
10187TIP3    H151976   6.705   7.040  15.918
10187TIP3    H251977   6.730   6.910  15.991
10188TIP3   OH251978   5.896   6.556  15.782
10188TIP3    H151979   5.935   6.635  15.820
10188TIP3    H251980   5.807   6.555  15.815
10189TIP3   OH251981   7.021   6.898  15.874
10189TIP3    H151982   7.034   6.929  15.963
10189TIP3    H251983   6.931   6.926  15.852
10190TIP3   OH251984   6.457   7.051  15.653
10190TIP3    H151985   6.472   6.968  15.609
10190TIP3    H251986   6.419   7.028  15.738
10191TIP3   OH251987   6.308   7.037  15.886
10191TIP3    H151988   6.291   6.975  15.957
10191TIP3    H251989   6.330   7.119  15.930
10192TIP3   OH251990   5.943   6.771  15.952
10192TIP3    H151991   5.914   6.708  16.019
10192TIP3    H251992   6.033   6.793  15.978
10193TIP3   OH251993   6.629   7.205  15.933
10193TIP3    H151994   6.537   7.232  15.942
10193TIP3    H251995   6.649   7.223  15.841
10194TIP3   OH251996   6.367  -0.003  15.954
10194TIP3    H151997   6.355   0.052  15.877
10194TIP3    H251998   6.330   0.048  16.026
10195TIP3   OH251999   6.178   5.976  15.895
10195TIP3    H152000   6.118   5.947  15.963
10195TIP3    H252001   6.254   6.011  15.942
10196TIP3   OH252002   6.051   7.034  15.735
10196TIP3    H152003   6.120   7.074  15.788
10196TIP3    H252004   6.090   6.951  15.705
10197TIP3   OH252005   5.884   6.280  15.784
10197TIP3    H152006   5.907   6.373  15.783
10197TIP3    H252007   5.831   6.267  15.705
10198TIP3   OH252008   6.686   7.227  15.669
10198TIP3    H152009   6.622   7.163  15.638
10198TIP3    H252010   6.757   7.223  15.606
10199TIP3   OH252011   7.136   7.147  15.671
10199TIP3    H152012   7.202   7.091  15.712
10199TIP3    H252013   7.184   7.196  15.604
10200TIP3   OH252014   6.185   6.810  15.644
10200TIP3    H152015   6.199   6.747  15.716
10200TIP3    H252016   6.270   6.816  15.602
10201TIP3   OH252017   6.749   6.923  15.628
10201TIP3    H152018   6.737   6.926  15.723
10201TIP3    H252019   6.751   6.830  15.607
10202TIP3   OH252020   6.266   6.629  15.838
10202TIP3    H152021   6.222   6.546  15.860
10202TIP3    H252022   6.348   6.602  15.797
10203TIP3   OH252023   6.459   6.464  15.722
10203TIP3    H152024   6.448   6.487  15.629
10203TIP3    H252025   6.553   6.449  15.732
10204TIP3   OH252026   5.774   7.006  15.755
10204TIP3    H152027   5.869   7.017  15.768
10204TIP3    H252028   5.766   6.933  15.694
10205TIP3   OH252029   7.243   6.008  15.623
10205TIP3    H152030   7.263   6.030  15.714
10205TIP3    H252031   7.148   6.000  15.620
10206TIP3   OH252032   5.784   5.715  15.857
10206TIP3    H152033   5.843   5.776  15.812
10206TIP3    H252034   5.788   5.742  15.949
10207TIP3   OH252035   5.989   5.875  15.719
10207TIP3    H152036   6.039   5.815  15.665
10207TIP3    H252037   6.052   5.911  15.782
10208TIP3   OH252038   1.195   1.022   0.649
10208TIP3    H152039   1.183   1.117   0.653
10208TIP3    H252040   1.124   0.991   0.593
10209TIP3   OH252041   1.053   0.939   1.024
10209TIP3    H152042   1.084   0.922   1.113
10209TIP3    H252043   1.012   0.857   0.997
10210TIP3   OH252044   0.293   0.887   1.186
10210TIP3    H152045   0.293   0.806   1.238
10210TIP3    H252046   0.361   0.941   1.226
10211TIP3   OH252047   1.454   1.236   0.842
10211TIP3    H152048   1.427   1.165   0.901
10211TIP3    H252049   1.465   1.311   0.900
10212TIP3   OH252050   0.410   1.340   0.983
10212TIP3    H152051   0.388   1.249   0.962
10212TIP3    H252052   0.504   1.339   1.000
10213TIP3   OH252053   0.131   0.758   0.539
10213TIP3    H152054   0.164   0.823   0.601
10213TIP3    H252055   0.036   0.758   0.553
10214TIP3   OH252056   0.209   0.912   0.753
10214TIP3    H152057   0.202   0.841   0.816
10214TIP3    H252058   0.269   0.975   0.794
10215TIP3   OH252059   1.187   1.714   0.924
10215TIP3    H152060   1.223   1.657   0.856
10215TIP3    H252061   1.181   1.657   1.001
10216TIP3   OH252062   0.900   1.188   1.039
10216TIP3    H152063   0.939   1.111   0.997
10216TIP3    H252064   0.963   1.212   1.108
10217TIP3   OH252065   1.827   0.334   1.153
10217TIP3    H152066   1.837   0.400   1.222
10217TIP3    H252067   1.880   0.367   1.081
10218TIP3   OH252068   1.227   0.608   1.072
10218TIP3    H152069   1.257   0.519   1.089
10218TIP3    H252070   1.210   0.610   0.978
10219TIP3   OH252071   0.578   0.425   0.803
10219TIP3    H152072   0.585   0.513   0.766
10219TIP3    H252073   0.528   0.376   0.739
10220TIP3   OH252074   1.357   0.454   0.646
10220TIP3    H152075   1.409   0.429   0.722
10220TIP3    H252076   1.419   0.499   0.588
10221TIP3   OH252077   0.220   0.674   0.899
10221TIP3    H152078   0.290   0.640   0.954
10221TIP3    H252079   0.239   0.640   0.811
10222TIP3   OH252080   0.718   0.828   0.839
10222TIP3    H152081   0.799   0.788   0.871
10222TIP3    H252082   0.678   0.761   0.783
10223TIP3   OH252083   1.845   0.499   1.377
10223TIP3    H152084   1.768   0.554   1.358
10223TIP3    H252085   1.859   0.509   1.471
10224TIP3   OH252086   0.428   0.346   1.240
10224TIP3    H152087   0.407   0.410   1.172
10224TIP3    H252088   0.360   0.358   1.307
10225TIP3   OH252089   1.154   1.286   0.545
10225TIP3    H152090   1.140   1.284   0.451
10225TIP3    H252091   1.105   1.363   0.575
10226TIP3   OH252092   0.701   1.106   1.210
10226TIP3    H152093   0.652   1.178   1.249
10226TIP3    H252094   0.769   1.148   1.158
10227TIP3   OH252095   1.476   0.389   0.882
10227TIP3    H152096   1.416   0.373   0.955
10227TIP3    H252097   1.543   0.448   0.917
10228TIP3   OH252098   0.417   0.509   1.012
10228TIP3    H152099   0.470   0.568   1.065
10228TIP3    H252100   0.478   0.475   0.946
10229TIP3   OH252101   0.553   1.312   1.316
10229TIP3    H152102   0.560   1.406   1.304
10229TIP3    H252103   0.464   1.299   1.350
10230TIP3   OH252104   0.105   1.283   0.382
10230TIP3    H152105   0.110   1.326   0.296
10230TIP3    H252106   0.134   1.349   0.444
10231TIP3   OH252107   1.479   1.477   0.987
10231TIP3    H152108   1.452   1.428   1.065
10231TIP3    H252109   1.509   1.561   1.021
10232TIP3   OH252110   1.563   0.284   1.241
10232TIP3    H152111   1.489   0.313   1.187
10232TIP3    H252112   1.640   0.306   1.189
10233TIP3   OH252113   0.779   0.068   0.943
10233TIP3    H152114   0.835   0.047   1.017
10233TIP3    H252115   0.733   0.148   0.969
10234TIP3   OH252116   1.307   1.606   0.689
10234TIP3    H152117   1.349   1.522   0.673
10234TIP3    H252118   1.379   1.668   0.695
10235TIP3   OH252119   1.415   1.367   0.606
10235TIP3    H152120   1.333   1.325   0.581
10235TIP3    H252121   1.445   1.318   0.683
10236TIP3   OH252122   1.625   1.214   1.452
10236TIP3    H152123   1.600   1.164   1.375
10236TIP3    H252124   1.623   1.305   1.424
10237TIP3   OH252125   1.048   0.937   0.425
10237TIP3    H152126   0.985   1.003   0.399
10237TIP3    H252127   1.120   0.947   0.363
10238TIP3   OH252128   1.044   0.802   0.115
10238TIP3    H152129   1.099   0.818   0.191
10238TIP3    H252130   1.106   0.795   0.042
10239TIP3   OH252131   1.788   0.884   1.252
10239TIP3    H152132   1.712   0.941   1.248
10239TIP3    H252133   1.847   0.917   1.184
10240TIP3   OH252134   1.416   0.974   0.495
10240TIP3    H152135   1.348   0.994   0.560
10240TIP3    H252136   1.482   0.925   0.545
10241TIP3   OH252137   1.371   0.767   1.448
10241TIP3    H152138   1.366   0.836   1.513
10241TIP3    H252139   1.309   0.794   1.379
10242TIP3   OH252140   0.568   1.018   0.700
10242TIP3    H152141   0.545   0.977   0.617
10242TIP3    H252142   0.627   0.955   0.743
10243TIP3   OH252143   0.695   1.369   0.959
10243TIP3    H152144   0.700   1.377   0.864
10243TIP3    H252145   0.768   1.312   0.982
10244TIP3   OH252146   0.575   0.919   1.058
10244TIP3    H152147   0.634   0.897   0.986
10244TIP3    H252148   0.623   0.982   1.110
10245TIP3   OH252149   1.187   1.555   1.160
10245TIP3    H152150   1.186   1.537   1.254
10245TIP3    H252151   1.227   1.477   1.122
10246TIP3   OH252152   0.697   1.347   1.552
10246TIP3    H152153   0.631   1.401   1.594
10246TIP3    H252154   0.655   1.316   1.472
10247TIP3   OH252155   1.279   0.909   0.268
10247TIP3    H152156   1.329   0.934   0.345
10247TIP3    H252157   1.326   0.950   0.195
10248TIP3   OH252158   0.397   0.945   1.486
10248TIP3    H152159   0.406   1.024   1.541
10248TIP3    H252160   0.303   0.932   1.478
10249TIP3   OH252161   1.051   1.540   0.606
10249TIP3    H152162   1.134   1.565   0.648
10249TIP3    H252163   1.020   1.621   0.564
10250TIP3   OH252164   0.485   1.519   1.617
10250TIP3    H152165   0.482   1.543   1.525
10250TIP3    H252166   0.393   1.509   1.642
10251TIP3   OH252167   1.670   0.033   0.238
10251TIP3    H152168   1.593   0.075   0.276
10251TIP3    H252169   1.724   0.105   0.205
10252TIP3   OH252170   0.478   0.926   0.442
10252TIP3    H152171   0.422   0.996   0.408
10252TIP3    H252172   0.418   0.852   0.453
10253TIP3   OH252173   1.755   1.503   0.123
10253TIP3    H152174   1.784   1.595   0.124
10253TIP3    H252175   1.837   1.453   0.116
10254TIP3   OH252176   0.135   1.131   1.342
10254TIP3    H152177   0.066   1.123   1.276
10254TIP3    H252178   0.138   1.045   1.385
10255TIP3   OH252179   0.120   1.458   0.956
10255TIP3    H152180   0.192   1.407   0.992
10255TIP3    H252181   0.043   1.429   1.006
10256TIP3   OH252182   1.877   1.552   1.647
10256TIP3    H152183   1.873   1.458   1.632
10256TIP3    H252184   1.790   1.575   1.680
10257TIP3   OH252185   0.934   1.472   1.494
10257TIP3    H152186   0.929   1.555   1.542
10257TIP3    H252187   0.853   1.427   1.515
10258TIP3   OH252188   1.019   1.813   0.472
10258TIP3    H152189   1.017   1.843   0.381
10258TIP3    H252190   1.001   1.891   0.524
10259TIP3   OH252191   0.384   1.678   0.665
10259TIP3    H152192   0.394   1.649   0.756
10259TIP3    H252193   0.323   1.616   0.626
10260TIP3   OH252194   1.324   1.772   0.156
10260TIP3    H152195   1.392   1.711   0.128
10260TIP3    H252196   1.325   1.765   0.252
10261TIP3   OH252197   1.290   1.760   0.433
10261TIP3    H152198   1.196   1.765   0.454
10261TIP3    H252199   1.327   1.705   0.501
10262TIP3   OH252200   1.557   0.646   1.652
10262TIP3    H152201   1.493   0.682   1.590
10262TIP3    H252202   1.568   0.555   1.625
10263TIP3   OH252203   0.308   1.325   1.434
10263TIP3    H152204   0.326   1.291   1.522
10263TIP3    H252205   0.242   1.265   1.399
10264TIP3   OH252206   0.526   0.140   1.083
10264TIP3    H152207   0.450   0.139   1.024
10264TIP3    H252208   0.504   0.207   1.148
10265TIP3   OH252209   1.005   0.109   1.396
10265TIP3    H152210   1.055   0.087   1.475
10265TIP3    H252211   0.915   0.121   1.427
10266TIP3   OH252212   1.310   0.494   1.465
10266TIP3    H152213   1.245   0.483   1.534
10266TIP3    H252214   1.320   0.589   1.455
10267TIP3   OH252215   1.423   0.999   0.049
10267TIP3    H152216   1.417   1.011  -0.046
10267TIP3    H252217   1.509   1.034   0.072
10268TIP3   OH252218   0.988   0.295   0.068
10268TIP3    H152219   0.931   0.310   0.144
10268TIP3    H252220   1.041   0.220   0.091
10269TIP3   OH252221   0.558   0.672   1.178
10269TIP3    H152222   0.495   0.676   1.251
10269TIP3    H252223   0.560   0.761   1.143
10270TIP3   OH252224   0.571   0.665   0.672
10270TIP3    H152225   0.476   0.655   0.671
10270TIP3    H252226   0.598   0.646   0.582
10271TIP3   OH252227   1.110   0.687   0.527
10271TIP3    H152228   1.086   0.775   0.500
10271TIP3    H252229   1.186   0.664   0.473
10272TIP3   OH252230   1.031   0.714   1.660
10272TIP3    H152231   0.976   0.648   1.701
10272TIP3    H252232   1.115   0.709   1.706
10273TIP3   OH252233   1.189   0.622   0.799
10273TIP3    H152234   1.152   0.681   0.734
10273TIP3    H252235   1.235   0.556   0.747
10274TIP3   OH252236   0.340   0.660   1.353
10274TIP3    H152237   0.357   0.708   1.435
10274TIP3    H252238   0.295   0.581   1.381
10275TIP3   OH252239   0.698   0.422   0.085
10275TIP3    H152240   0.645   0.436   0.164
10275TIP3    H252241   0.731   0.508   0.063
10276TIP3   OH252242   0.025   0.425   0.701
10276TIP3    H152243   0.087   0.413   0.774
10276TIP3    H252244  -0.006   0.337   0.682
10277TIP3   OH252245   0.097   0.493   0.273
10277TIP3    H152246   0.173   0.552   0.273
10277TIP3    H252247   0.078   0.481   0.180
10278TIP3   OH252248   1.144   0.787   1.261
10278TIP3    H152249   1.179   0.731   1.192
10278TIP3    H252250   1.082   0.732   1.309
10279TIP3   OH252251   0.848   0.402   0.727
10279TIP3    H152252   0.760   0.409   0.764
10279TIP3    H252253   0.902   0.368   0.799
10280TIP3   OH252254   0.311   0.578   0.654
10280TIP3    H152255   0.246   0.618   0.597
10280TIP3    H252256   0.322   0.490   0.619
10281TIP3   OH252257   0.629   0.587   0.416
10281TIP3    H152258   0.724   0.584   0.426
10281TIP3    H252259   0.615   0.632   0.333
10282TIP3   OH252260   1.302   0.327   1.082
10282TIP3    H152261   1.244   0.329   1.157
10282TIP3    H252262   1.262   0.264   1.022
10283TIP3   OH252263   0.559   0.674   0.169
10283TIP3    H152264   0.466   0.671   0.148
10283TIP3    H252265   0.599   0.716   0.092
10284TIP3   OH252266   1.607   1.903   1.739
10284TIP3    H152267   1.634   1.930   1.652
10284TIP3    H252268   1.681   1.926   1.795
10285TIP3   OH252269   0.372   1.163   1.665
10285TIP3    H152270   0.435   1.156   1.737
10285TIP3    H252271   0.287   1.172   1.707
10286TIP3   OH252272   0.932   0.689   0.951
10286TIP3    H152273   1.007   0.643   0.913
10286TIP3    H252274   0.906   0.635   1.026
10287TIP3   OH252275   0.426   0.313   0.599
10287TIP3    H152276   0.377   0.233   0.619
10287TIP3    H252277   0.460   0.299   0.511
10288TIP3   OH252278   0.818   0.566   1.185
10288TIP3    H152279   0.740   0.620   1.189
10288TIP3    H252280   0.872   0.597   1.258
10289TIP3   OH252281   0.868   1.135   0.346
10289TIP3    H152282   0.796   1.092   0.300
10289TIP3    H252283   0.830   1.165   0.428
10290TIP3   OH252284   1.591   1.068   1.217
10290TIP3    H152285   1.649   1.130   1.173
10290TIP3    H252286   1.504   1.090   1.185
10291TIP3   OH252287   1.227   0.406   0.232
10291TIP3    H152288   1.216   0.408   0.137
10291TIP3    H252289   1.261   0.493   0.254
10292TIP3   OH252290   1.021   1.187   1.512
10292TIP3    H152291   1.059   1.159   1.596
10292TIP3    H252292   1.004   1.280   1.524
10293TIP3   OH252293   1.327   0.639   0.354
10293TIP3    H152294   1.416   0.618   0.381
10293TIP3    H252295   1.334   0.725   0.311
10294TIP3   OH252296   0.387   1.064   0.906
10294TIP3    H152297   0.449   1.063   0.834
10294TIP3    H252298   0.429   1.010   0.974
10295TIP3   OH252299   1.089   1.282   0.258
10295TIP3    H152300   1.047   1.366   0.274
10295TIP3    H252301   1.022   1.217   0.280
10296TIP3   OH252302   0.127   0.896   1.485
10296TIP3    H152303   0.121   0.884   1.579
10296TIP3    H252304   0.068   0.830   1.448
10297TIP3   OH252305   0.814   0.897   1.682
10297TIP3    H152306   0.754   0.860   1.618
10297TIP3    H252307   0.899   0.856   1.663
10298TIP3   OH252308   1.203   1.536   1.491
10298TIP3    H152309   1.118   1.498   1.472
10298TIP3    H252310   1.219   1.516   1.583
10299TIP3   OH252311   1.781   0.672   0.316
10299TIP3    H152312   1.717   0.639   0.253
10299TIP3    H252313   1.800   0.761   0.286
10300TIP3   OH252314   1.852   1.278   1.598
10300TIP3    H152315   1.759   1.264   1.582
10300TIP3    H252316   1.895   1.249   1.518
10301TIP3   OH252317   1.635   1.528   0.382
10301TIP3    H152318   1.585   1.455   0.420
10301TIP3    H252319   1.662   1.496   0.296
10302TIP3   OH252320   1.368   1.009   0.989
10302TIP3    H152321   1.273   1.004   0.991
10302TIP3    H252322   1.396   0.926   0.949
10303TIP3   OH252323   0.650   1.447   0.688
10303TIP3    H152324   0.684   1.530   0.654
10303TIP3    H252325   0.556   1.451   0.672
10304TIP3   OH252326   0.197   0.933   0.145
10304TIP3    H152327   0.244   0.986   0.210
10304TIP3    H252328   0.106   0.936   0.173
10305TIP3   OH252329   0.729   1.207   0.569
10305TIP3    H152330   0.718   1.291   0.612
10305TIP3    H252331   0.677   1.146   0.622
10306TIP3   OH252332   0.824   1.619   1.270
10306TIP3    H152333   0.876   1.698   1.257
10306TIP3    H252334   0.881   1.561   1.321
10307TIP3   OH252335   0.637   1.724   0.568
10307TIP3    H152336   0.547   1.716   0.599
10307TIP3    H252337   0.667   1.808   0.605
10308TIP3   OH252338   1.080   1.199   1.241
10308TIP3    H152339   1.068   1.186   1.335
10308TIP3    H252340   1.172   1.224   1.231
10309TIP3   OH252341   1.366   1.322   0.138
10309TIP3    H152342   1.423   1.271   0.196
10309TIP3    H252343   1.278   1.311   0.176
10310TIP3   OH252344   1.441   1.665   1.474
10310TIP3    H152345   1.359   1.617   1.464
10310TIP3    H252346   1.436   1.735   1.408
10311TIP3   OH252347   1.840   1.768   0.165
10311TIP3    H152348   1.907   1.835   0.170
10311TIP3    H252349   1.758   1.815   0.178
10312TIP3   OH252350   0.229   0.399   1.428
10312TIP3    H152351   0.133   0.407   1.430
10312TIP3    H252352   0.248   0.328   1.490
10313TIP3   OH252353   1.520   1.170   0.318
10313TIP3    H152354   1.472   1.118   0.382
10313TIP3    H252355   1.611   1.166   0.347
10314TIP3   OH252356   0.227   1.595   1.281
10314TIP3    H152357   0.290   1.532   1.316
10314TIP3    H252358   0.141   1.558   1.301
10315TIP3   OH252359   0.658   1.412   0.254
10315TIP3    H152360   0.735   1.365   0.286
10315TIP3    H252361   0.677   1.504   0.272
10316TIP3   OH252362   0.314   1.113   0.317
10316TIP3    H152363   0.239   1.155   0.360
10316TIP3    H252364   0.361   1.185   0.275
10317TIP3   OH252365   1.144   0.339   1.300
10317TIP3    H152366   1.201   0.376   1.367
10317TIP3    H252367   1.100   0.266   1.343
10318TIP3   OH252368   1.215   0.284   0.475
10318TIP3    H152369   1.212   0.324   0.388
10318TIP3    H252370   1.259   0.349   0.530
10319TIP3   OH252371   0.942   1.507   0.299
10319TIP3    H152372   0.873   1.567   0.330
10319TIP3    H252373   0.994   1.561   0.239
10320TIP3   OH252374   0.887   0.531   0.488
10320TIP3    H152375   0.966   0.585   0.495
10320TIP3    H252376   0.875   0.494   0.576
10321TIP3   OH252377   0.987   0.609   1.405
10321TIP3    H152378   0.996   0.650   1.491
10321TIP3    H252379   1.023   0.521   1.416
10322TIP3   OH252380   0.981   0.188   0.578
10322TIP3    H152381   0.956   0.262   0.634
10322TIP3    H252382   1.067   0.212   0.543
10323TIP3   OH252383   0.717   1.676   0.311
10323TIP3    H152384   0.729   1.763   0.273
10323TIP3    H252385   0.689   1.693   0.401
10324TIP3   OH252386   0.553   0.337   0.332
10324TIP3    H152387   0.558   0.426   0.367
10324TIP3    H252388   0.643   0.305   0.335
10325TIP3   OH252389   1.564   0.401   1.501
10325TIP3    H152390   1.471   0.423   1.495
10325TIP3    H252391   1.588   0.372   1.413
10326TIP3   OH252392   1.445   0.750   0.881
10326TIP3    H152393   1.357   0.710   0.876
10326TIP3    H252394   1.491   0.696   0.945
10327TIP3   OH252395   0.410   1.336   0.171
10327TIP3    H152396   0.482   1.379   0.218
10327TIP3    H252397   0.454   1.279   0.108
10328TIP3   OH252398   0.287   0.669   0.121
10328TIP3    H152399   0.254   0.759   0.120
10328TIP3    H252400   0.226   0.621   0.065
10329TIP3   OH252401   1.572   1.735   1.072
10329TIP3    H152402   1.563   1.801   1.004
10329TIP3    H252403   1.666   1.724   1.083
10330TIP3   OH252404   0.284   0.102   0.920
10330TIP3    H152405   0.266   0.102   0.826
10330TIP3    H252406   0.222   0.038   0.956
10331TIP3   OH252407   0.190   1.511   0.544
10331TIP3    H152408   0.121   1.520   0.609
10331TIP3    H252409   0.163   1.570   0.473
10332TIP3   OH252410   0.192   1.823   1.693
10332TIP3    H152411   0.247   1.806   1.770
10332TIP3    H252412   0.157   1.737   1.670
10333TIP3   OH252413   0.579   1.631   1.852
10333TIP3    H152414   0.656   1.580   1.878
10333TIP3    H252415   0.551   1.593   1.769
10334TIP3   OH252416   1.078   1.645   0.110
10334TIP3    H152417   1.052   1.595   0.033
10334TIP3    H252418   1.172   1.660   0.098
10335TIP3   OH252419   1.220   1.500   1.764
10335TIP3    H152420   1.198   1.415   1.802
10335TIP3    H252421   1.298   1.528   1.811
10336TIP3   OH252422   1.480   1.568   0.064
10336TIP3    H152423   1.440   1.485   0.089
10336TIP3    H252424   1.574   1.551   0.064
10337TIP3   OH252425   0.109   1.166   1.762
10337TIP3    H152426   0.114   1.070   1.760
10337TIP3    H252427   0.041   1.188   1.699
10338TIP3   OH252428   0.559   1.157   0.034
10338TIP3    H152429   0.594   1.113   0.111
10338TIP3    H252430   0.589   1.104  -0.040
10339TIP3   OH252431   0.783   1.174   1.751
10339TIP3    H152432   0.768   1.220   1.668
10339TIP3    H252433   0.814   1.087   1.724
10340TIP3   OH252434   1.352   1.185   1.518
10340TIP3    H152435   1.445   1.209   1.521
10340TIP3    H252436   1.321   1.220   1.435
10341TIP3   OH252437   0.189   0.893   1.756
10341TIP3    H152438   0.275   0.853   1.744
10341TIP3    H252439   0.178   0.900   1.851
10342TIP3   OH252440   0.659   0.988   0.231
10342TIP3    H152441   0.607   0.958   0.306
10342TIP3    H252442   0.694   0.908   0.193
10343TIP3   OH252443   0.621   0.782   1.483
10343TIP3    H152444   0.549   0.845   1.483
10343TIP3    H252445   0.685   0.818   1.423
10344TIP3   OH252446   0.782   0.799   0.035
10344TIP3    H152447   0.798   0.747  -0.044
10344TIP3    H252448   0.868   0.806   0.076
10345TIP3   OH252449   1.116   1.025   1.785
10345TIP3    H152450   1.193   0.988   1.742
10345TIP3    H252451   1.087   0.957   1.846
10346TIP3   OH252452   1.689   1.104  16.008
10346TIP3    H152453   1.668   1.116  15.915
10346TIP3    H252454   1.697   1.193  16.042
10347TIP3   OH252455   0.656   0.527   1.575
10347TIP3    H152456   0.667   0.469   1.499
10347TIP3    H252457   0.648   0.615   1.537
10348TIP3   OH252458   0.685   0.371   1.341
10348TIP3    H152459   0.737   0.424   1.281
10348TIP3    H252460   0.597   0.371   1.304
10349TIP3   OH252461   0.820   0.891   1.335
10349TIP3    H152462   0.913   0.909   1.343
10349TIP3    H252463   0.784   0.970   1.295
10350TIP3   OH252464   1.260   0.658   1.820
10350TIP3    H152465   1.288   0.567   1.825
10350TIP3    H252466   1.341   0.709   1.829
10351TIP3   OH252467   1.385   0.957   1.658
10351TIP3    H152468   1.358   1.038   1.614
10351TIP3    H252469   1.481   0.959   1.653
10352TIP3   OH252470   0.491   0.595   1.788
10352TIP3    H152471   0.413   0.542   1.778
10352TIP3    H252472   0.541   0.581   1.708
10353TIP3   OH252473   0.731   0.116   1.435
10353TIP3    H152474   0.717   0.209   1.415
10353TIP3    H252475   0.672   0.069   1.376
10354TIP3   OH252476   0.877   0.504   1.742
10354TIP3    H152477   0.851   0.469   1.828
10354TIP3    H252478   0.795   0.507   1.692
10355TIP3   OH252479   1.118   0.415   1.638
10355TIP3    H152480   1.033   0.435   1.677
10355TIP3    H252481   1.173   0.389   1.713
10356TIP3   OH252482   1.316   0.370   1.848
10356TIP3    H152483   1.303   0.277   1.831
10356TIP3    H252484   1.294   0.381   1.940
10357TIP3   OH252485   0.295   0.403   1.767
10357TIP3    H152486   0.282   0.325   1.713
10357TIP3    H252487   0.295   0.371   1.857
10358TIP3   OH252488   0.753   0.017   1.694
10358TIP3    H152489   0.797  -0.067   1.682
10358TIP3    H252490   0.739   0.051   1.606
10359TIP3   OH252491   0.843   0.214   1.865
10359TIP3    H152492   0.822   0.141   1.806
10359TIP3    H252493   0.761   0.264   1.871
10360TIP3   OH252494   0.782   1.894   0.151
10360TIP3    H152495   0.873   1.910   0.175
10360TIP3    H252496   0.776   1.921   0.059
10361TIP3   OH252497   0.143   1.368   0.120
10361TIP3    H152498   0.238   1.366   0.135
10361TIP3    H252499   0.134   1.347   0.027
10362TIP3   OH252500   0.065   1.880   0.596
10362TIP3    H152501  -0.001   1.855   0.531
10362TIP3    H252502   0.068   1.805   0.655
10363TIP3   OH252503   0.092   1.670   0.791
10363TIP3    H152504   0.093   1.584   0.833
10363TIP3    H252505   0.133   1.729   0.854
10364TIP3   OH252506   1.840   1.723   1.135
10364TIP3    H152507   1.833   1.720   1.231
10364TIP3    H252508   1.914   1.781   1.119
10365TIP3   OH252509   1.788   1.686   1.408
10365TIP3    H152510   1.731   1.615   1.380
10365TIP3    H252511   1.834   1.651   1.484
10366TIP3   OH252512   1.631   1.288   1.889
10366TIP3    H152513   1.549   1.297   1.936
10366TIP3    H252514   1.685   1.361   1.920
10367TIP3   OH252515   1.780   1.122   0.411
10367TIP3    H152516   1.851   1.185   0.418
10367TIP3    H252517   1.791   1.063   0.485
10368TIP3   OH252518   1.827   0.929   0.604
10368TIP3    H152519   1.743   0.893   0.634
10368TIP3    H252520   1.878   0.941   0.685
10369TIP3   OH252521   1.814   1.215   1.131
10369TIP3    H152522   1.863   1.148   1.084
10369TIP3    H252523   1.833   1.296   1.085
10370TIP3   OH252524   1.607   1.480   1.353
10370TIP3    H152525   1.547   1.538   1.401
10370TIP3    H252526   1.549   1.431   1.294
10371TIP3   OH252527   1.812   0.936   0.212
10371TIP3    H152528   1.753   0.969   0.145
10371TIP3    H252529   1.800   0.995   0.287
10372TIP3   OH252530   1.595   0.603   0.129
10372TIP3    H152531   1.660   0.637   0.067
10372TIP3    H252532   1.544   0.541   0.077
10373TIP3   OH252533   1.580   0.803   0.646
10373TIP3    H152534   1.576   0.715   0.608
10373TIP3    H252535   1.537   0.794   0.731
10374TIP3   OH252536   0.098   1.006   1.036
10374TIP3    H152537   0.133   1.042   0.955
10374TIP3    H252538   0.175   0.977   1.085
10375TIP3   OH252539   1.659   0.985   1.625
10375TIP3    H152540   1.725   0.920   1.602
10375TIP3    H252541   1.669   1.054   1.560
10376TIP3   OH252542   1.809   0.749   1.609
10376TIP3    H152543   1.719   0.719   1.628
10376TIP3    H252544   1.864   0.675   1.633
10377TIP3   OH252545   1.573   0.560   0.487
10377TIP3    H152546   1.596   0.468   0.491
10377TIP3    H252547   1.644   0.600   0.438
10378TIP3   OH252548   1.599   0.577   1.046
10378TIP3    H152549   1.692   0.594   1.028
10378TIP3    H252550   1.590   0.598   1.139
10379TIP3   OH252551   1.622   0.668   1.312
10379TIP3    H152552   1.543   0.705   1.351
10379TIP3    H252553   1.679   0.744   1.296
10380TIP3   OH252554   0.078   0.569   1.740
10380TIP3    H152555   0.159   0.520   1.725
10380TIP3    H252556   0.022   0.508   1.787
10381TIP3   OH252557   1.912   0.097   1.829
10381TIP3    H152558   1.866   0.015   1.843
10381TIP3    H252559   1.858   0.145   1.766
10382TIP3   OH252560   1.623   0.288   0.504
10382TIP3    H152561   1.639   0.241   0.586
10382TIP3    H252562   1.563   0.232   0.455
10383TIP3   OH252563   0.188   0.366   0.934
10383TIP3    H152564   0.221   0.276   0.942
10383TIP3    H252565   0.262   0.421   0.959
10384TIP3   OH252566   0.015   0.744   1.071
10384TIP3    H152567   0.087   0.717   1.015
10384TIP3    H252568   0.025   0.839   1.080
10385TIP3   OH252569   1.764   0.250   1.653
10385TIP3    H152570   1.699   0.302   1.701
10385TIP3    H252571   1.732   0.250   1.562
10386TIP3   OH252572   1.812   0.252   0.139
10386TIP3    H152573   1.828   0.260   0.045
10386TIP3    H252574   1.866   0.320   0.178
10387TIP3   OH252575   0.115   0.260   0.440
10387TIP3    H152576   0.028   0.252   0.479
10387TIP3    H252577   0.110   0.338   0.385
10388TIP3   OH252578   1.491   1.804   0.665
10388TIP3    H152579   1.565   1.798   0.604
10388TIP3    H252580   1.528   1.841   0.745
10389TIP3   OH252581   0.031   0.093   1.326
10389TIP3    H152582   0.036   0.145   1.407
10389TIP3    H252583  -0.025   0.145   1.269
10390TIP3   OH252584   0.218   1.506   1.718
10390TIP3    H152585   0.127   1.524   1.693
10390TIP3    H252586   0.211   1.469   1.806
10391TIP3   OH252587   0.560   1.588   1.340
10391TIP3    H152588   0.529   1.669   1.299
10391TIP3    H252589   0.655   1.591   1.330
10392TIP3   OH252590   0.944   1.721   1.623
10392TIP3    H152591   0.952   1.688   1.713
10392TIP3    H252592   1.029   1.759   1.604
10393TIP3   OH252593   1.192   1.839   1.594
10393TIP3    H152594   1.249   1.772   1.558
10393TIP3    H252595   1.239   1.873   1.670
10394TIP3   OH252596   1.686   0.100   1.406
10394TIP3    H152597   1.637   0.161   1.351
10394TIP3    H252598   1.652   0.014   1.382
10395TIP3   OH252599   0.275   1.907   1.354
10395TIP3    H152600   0.194   1.957   1.338
10395TIP3    H252601   0.245   1.824   1.391
10396TIP3   OH252602   0.502   1.829   1.216
10396TIP3    H152603   0.407   1.826   1.204
10396TIP3    H252604   0.535   1.871   1.136
10397TIP3   OH252605   0.922   1.872   1.209
10397TIP3    H152606   0.970   1.872   1.127
10397TIP3    H252607   0.986   1.900   1.275
10398TIP3   OH252608   1.199   1.810   1.271
10398TIP3    H152609   1.198   1.729   1.221
10398TIP3    H252610   1.291   1.837   1.271
10399TIP3   OH252611   1.471   1.877   1.284
10399TIP3    H152612   1.487   1.968   1.259
10399TIP3    H252613   1.506   1.825   1.212
10400TIP3   OH252614   0.227   1.744   1.046
10400TIP3    H152615   0.218   1.700   1.131
10400TIP3    H252616   0.295   1.695   1.000
10401TIP3   OH252617   0.434   1.610   0.927
10401TIP3    H152618   0.420   1.518   0.947
10401TIP3    H252619   0.523   1.628   0.958
10402TIP3   OH252620   0.700   1.644   1.019
10402TIP3    H152621   0.711   1.552   0.992
10402TIP3    H252622   0.737   1.647   1.107
10403TIP3   OH252623   0.994   0.244   0.889
10403TIP3    H152624   0.949   0.159   0.890
10403TIP3    H252625   1.086   0.221   0.876
10404TIP3   OH252626   1.518   0.038   0.895
10404TIP3    H152627   1.591   0.062   0.837
10404TIP3    H252628   1.490   0.121   0.934
10405TIP3   OH252629   1.708   0.134   0.724
10405TIP3    H152630   1.775   0.081   0.682
10405TIP3    H252631   1.754   0.214   0.751
10406TIP3   OH252632   0.246   0.096   0.644
10406TIP3    H152633   0.198   0.149   0.579
10406TIP3    H252634   0.242   0.007   0.610
10407TIP3   OH252635   0.209   0.049   0.293
10407TIP3    H152636   0.274   0.084   0.232
10407TIP3    H252637   0.173   0.126   0.337
10408TIP3   OH252638   0.756   0.045   0.651
10408TIP3    H152639   0.837   0.088   0.626
10408TIP3    H252640   0.752   0.054   0.747
10409TIP3   OH252641   1.251   0.174   0.842
10409TIP3    H152642   1.305   0.233   0.789
10409TIP3    H252643   1.268   0.087   0.805
10410TIP3   OH252644   1.434   0.120   0.389
10410TIP3    H152645   1.357   0.173   0.408
10410TIP3    H252646   1.400   0.032   0.377
10411TIP3   OH252647   0.105   1.673   0.341
10411TIP3    H152648   0.053   1.635   0.271
10411TIP3    H252649   0.136   1.756   0.305
10412TIP3   OH252650   0.383   0.209   0.141
10412TIP3    H152651   0.412   0.249   0.059
10412TIP3    H252652   0.436   0.252   0.209
10413TIP3   OH252653   0.829   0.289   0.365
10413TIP3    H152654   0.888   0.241   0.422
10413TIP3    H252655   0.848   0.381   0.384
10414TIP3   OH252656   1.057   1.900   0.201
10414TIP3    H152657   1.151   1.918   0.201
10414TIP3    H252658   1.050   1.811   0.165
10415TIP3   OH252659   1.695   1.778   0.471
10415TIP3    H152660   1.678   1.688   0.446
10415TIP3    H252661   1.683   1.828   0.391
10416TIP3   OH252662   0.241   0.179   1.606
10416TIP3    H152663   0.166   0.121   1.620
10416TIP3    H252664   0.312   0.140   1.657
10417TIP3   OH252665   0.452   0.131   1.780
10417TIP3    H152666   0.530   0.185   1.768
10417TIP3    H252667   0.483   0.053   1.825
10418TIP3   OH252668   0.351   1.765   0.018
10418TIP3    H152669   0.304   1.809   0.089
10418TIP3    H252670   0.389   1.687   0.058
10419TIP3   OH252671   1.266   0.102   1.821
10419TIP3    H152672   1.183   0.054   1.827
10419TIP3    H252673   1.332   0.039   1.849
10420TIP3   OH252674   1.615   1.631   1.691
10420TIP3    H152675   1.552   1.629   1.619
10420TIP3    H252676   1.610   1.721   1.723
10421TIP3   OH252677   3.085   1.036   0.650
10421TIP3    H152678   3.069   1.130   0.641
10421TIP3    H252679   3.016   0.995   0.599
10422TIP3   OH252680   2.962   0.942   1.045
10422TIP3    H152681   2.989   0.902   1.128
10422TIP3    H252682   2.914   0.874   0.999
10423TIP3   OH252683   2.176   0.888   1.189
10423TIP3    H152684   2.181   0.808   1.241
10423TIP3    H252685   2.255   0.937   1.213
10424TIP3   OH252686   3.343   1.253   0.874
10424TIP3    H152687   3.307   1.177   0.919
10424TIP3    H252688   3.363   1.315   0.943
10425TIP3   OH252689   2.319   1.349   0.971
10425TIP3    H152690   2.284   1.261   0.958
10425TIP3    H252691   2.410   1.334   0.999
10426TIP3   OH252692   1.965   0.694   0.526
10426TIP3    H152693   1.931   0.778   0.558
10426TIP3    H252694   1.905   0.670   0.456
10427TIP3   OH252695   2.029   0.936   0.804
10427TIP3    H152696   2.055   0.846   0.825
10427TIP3    H252697   2.108   0.988   0.817
10428TIP3   OH252698   3.067   1.735   0.913
10428TIP3    H152699   3.104   1.673   0.850
10428TIP3    H252700   3.038   1.680   0.985
10429TIP3   OH252701   2.811   1.194   1.062
10429TIP3    H152702   2.848   1.113   1.028
10429TIP3    H252703   2.876   1.226   1.124
10430TIP3   OH252704   3.722   0.328   1.158
10430TIP3    H152705   3.728   0.397   1.224
10430TIP3    H252706   3.769   0.364   1.082
10431TIP3   OH252707   3.124   0.607   1.072
10431TIP3    H152708   3.148   0.515   1.086
10431TIP3    H252709   3.104   0.612   0.978
10432TIP3   OH252710   2.452   0.427   0.800
10432TIP3    H152711   2.458   0.513   0.758
10432TIP3    H252712   2.400   0.374   0.739
10433TIP3   OH252713   3.243   0.450   0.642
10433TIP3    H152714   3.289   0.428   0.723
10433TIP3    H252715   3.310   0.492   0.588
10434TIP3   OH252716   2.101   0.681   0.883
10434TIP3    H152717   2.166   0.643   0.941
10434TIP3    H252718   2.120   0.643   0.797
10435TIP3   OH252719   2.594   0.824   0.840
10435TIP3    H152720   2.676   0.785   0.868
10435TIP3    H252721   2.554   0.757   0.784
10436TIP3   OH252722   3.731   0.501   1.374
10436TIP3    H152723   3.655   0.556   1.355
10436TIP3    H252724   3.745   0.512   1.469
10437TIP3   OH252725   2.324   0.336   1.225
10437TIP3    H152726   2.299   0.392   1.152
10437TIP3    H252727   2.254   0.346   1.289
10438TIP3   OH252728   3.046   1.291   0.543
10438TIP3    H152729   3.025   1.289   0.450
10438TIP3    H252730   2.997   1.366   0.577
10439TIP3   OH252731   2.587   1.113   1.204
10439TIP3    H152732   2.534   1.184   1.241
10439TIP3    H252733   2.659   1.157   1.159
10440TIP3   OH252734   3.351   0.410   0.885
10440TIP3    H152735   3.297   0.378   0.958
10440TIP3    H252736   3.415   0.467   0.927
10441TIP3   OH252737   2.291   0.512   1.010
10441TIP3    H152738   2.348   0.568   1.062
10441TIP3    H252739   2.349   0.477   0.942
10442TIP3   OH252740   2.432   1.316   1.311
10442TIP3    H152741   2.439   1.411   1.302
10442TIP3    H252742   2.342   1.302   1.341
10443TIP3   OH252743   1.997   1.297   0.397
10443TIP3    H152744   1.989   1.342   0.313
10443TIP3    H252745   2.023   1.365   0.458
10444TIP3   OH252746   3.378   1.456   1.072
10444TIP3    H152747   3.283   1.455   1.089
10444TIP3    H252748   3.397   1.547   1.050
10445TIP3   OH252749   3.457   0.279   1.249
10445TIP3    H152750   3.382   0.293   1.192
10445TIP3    H252751   3.533   0.295   1.193
10446TIP3   OH252752   2.661   0.056   0.945
10446TIP3    H152753   2.691  -0.001   1.016
10446TIP3    H252754   2.579   0.093   0.977
10447TIP3   OH252755   3.200   1.609   0.698
10447TIP3    H152756   3.241   1.525   0.679
10447TIP3    H252757   3.272   1.672   0.701
10448TIP3   OH252758   3.304   1.367   0.625
10448TIP3    H152759   3.224   1.324   0.595
10448TIP3    H252760   3.328   1.320   0.705
10449TIP3   OH252761   3.491   1.245   1.426
10449TIP3    H152762   3.480   1.185   1.353
10449TIP3    H252763   3.504   1.331   1.386
10450TIP3   OH252764   2.940   0.939   0.432
10450TIP3    H152765   2.872   1.001   0.406
10450TIP3    H252766   3.006   0.945   0.363
10451TIP3   OH252767   2.943   0.797   0.119
10451TIP3    H152768   3.003   0.813   0.191
10451TIP3    H252769   2.999   0.790   0.042
10452TIP3   OH252770   3.653   0.898   1.262
10452TIP3    H152771   3.581   0.960   1.253
10452TIP3    H252772   3.717   0.926   1.196
10453TIP3   OH252773   3.303   0.975   0.497
10453TIP3    H152774   3.235   0.999   0.560
10453TIP3    H252775   3.367   0.926   0.548
10454TIP3   OH252776   3.262   0.764   1.452
10454TIP3    H152777   3.261   0.837   1.513
10454TIP3    H252778   3.198   0.788   1.384
10455TIP3   OH252779   2.455   1.019   0.696
10455TIP3    H152780   2.428   0.978   0.614
10455TIP3    H252781   2.509   0.953   0.740
10456TIP3   OH252782   2.609   1.372   0.960
10456TIP3    H152783   2.610   1.371   0.865
10456TIP3    H252784   2.681   1.315   0.986
10457TIP3   OH252785   2.457   0.917   1.063
10457TIP3    H152786   2.512   0.893   0.988
10457TIP3    H252787   2.507   0.984   1.109
10458TIP3   OH252788   3.116   1.464   1.141
10458TIP3    H152789   3.100   1.536   1.202
10458TIP3    H252790   3.074   1.388   1.183
10459TIP3   OH252791   2.595   1.333   1.537
10459TIP3    H152792   2.538   1.393   1.584
10459TIP3    H252793   2.545   1.308   1.459
10460TIP3   OH252794   3.171   0.898   0.270
10460TIP3    H152795   3.218   0.927   0.349
10460TIP3    H252796   3.219   0.938   0.198
10461TIP3   OH252797   2.262   0.937   1.499
10461TIP3    H152798   2.272   1.017   1.550
10461TIP3    H252799   2.169   0.933   1.477
10462TIP3   OH252800   2.945   1.537   0.620
10462TIP3    H152801   3.028   1.565   0.658
10462TIP3    H252802   2.909   1.617   0.580
10463TIP3   OH252803   2.407   1.518   1.608
10463TIP3    H152804   2.399   1.552   1.518
10463TIP3    H252805   2.316   1.507   1.637
10464TIP3   OH252806   3.558   0.049   0.258
10464TIP3    H152807   3.487   0.049   0.194
10464TIP3    H252808   3.615   0.121   0.231
10465TIP3   OH252809   2.365   0.927   0.440
10465TIP3    H152810   2.305   0.994   0.409
10465TIP3    H252811   2.314   0.846   0.438
10466TIP3   OH252812   3.641   1.481   0.126
10466TIP3    H152813   3.663   1.574   0.130
10466TIP3    H252814   3.725   1.437   0.114
10467TIP3   OH252815   1.959   1.174   1.369
10467TIP3    H152816   1.904   1.183   1.291
10467TIP3    H252817   1.969   1.079   1.379
10468TIP3   OH252818   1.923   1.468   1.040
10468TIP3    H152819   2.003   1.465   1.091
10468TIP3    H252820   1.875   1.543   1.075
10469TIP3   OH252821   3.749   1.526   1.630
10469TIP3    H152822   3.736   1.431   1.624
10469TIP3    H252823   3.664   1.559   1.662
10470TIP3   OH252824   2.827   1.471   1.485
10470TIP3    H152825   2.825   1.552   1.537
10470TIP3    H252826   2.745   1.427   1.508
10471TIP3   OH252827   2.911   1.801   0.498
10471TIP3    H152828   2.867   1.810   0.413
10471TIP3    H252829   2.891   1.883   0.544
10472TIP3   OH252830   2.259   1.702   0.664
10472TIP3    H152831   2.279   1.673   0.753
10472TIP3    H252832   2.203   1.634   0.628
10473TIP3   OH252833   3.209   1.768   0.168
10473TIP3    H152834   3.274   1.708   0.132
10473TIP3    H252835   3.217   1.758   0.263
10474TIP3   OH252836   3.180   1.771   0.443
10474TIP3    H152837   3.086   1.772   0.462
10474TIP3    H252838   3.218   1.717   0.512
10475TIP3   OH252839   3.439   0.640   1.647
10475TIP3    H152840   3.375   0.677   1.587
10475TIP3    H252841   3.450   0.549   1.619
10476TIP3   OH252842   2.180   1.327   1.421
10476TIP3    H152843   2.198   1.309   1.513
10476TIP3    H252844   2.103   1.275   1.401
10477TIP3   OH252845   2.415   0.126   1.057
10477TIP3    H152846   2.331   0.135   1.013
10477TIP3    H252847   2.412   0.190   1.128
10478TIP3   OH252848   2.888   0.129   1.415
10478TIP3    H152849   2.920   0.106   1.502
10478TIP3    H252850   2.793   0.138   1.426
10479TIP3   OH252851   3.200   0.492   1.475
10479TIP3    H152852   3.131   0.481   1.541
10479TIP3    H252853   3.206   0.587   1.463
10480TIP3   OH252854   3.317   0.998   0.056
10480TIP3    H152855   3.324   1.010  -0.039
10480TIP3    H252856   3.394   1.043   0.091
10481TIP3   OH252857   2.923   0.320   0.159
10481TIP3    H152858   2.832   0.327   0.187
10481TIP3    H252859   2.932   0.229   0.131
10482TIP3   OH252860   2.442   0.668   1.180
10482TIP3    H152861   2.374   0.670   1.249
10482TIP3    H252862   2.443   0.757   1.146
10483TIP3   OH252863   2.444   0.665   0.666
10483TIP3    H152864   2.349   0.653   0.662
10483TIP3    H252865   2.474   0.649   0.576
10484TIP3   OH252866   2.993   0.692   0.541
10484TIP3    H152867   2.968   0.779   0.510
10484TIP3    H252868   3.063   0.665   0.482
10485TIP3   OH252869   2.911   0.713   1.660
10485TIP3    H152870   2.858   0.644   1.700
10485TIP3    H252871   2.994   0.710   1.708
10486TIP3   OH252872   3.090   0.628   0.799
10486TIP3    H152873   3.043   0.677   0.731
10486TIP3    H252874   3.135   0.558   0.751
10487TIP3   OH252875   2.224   0.662   1.351
10487TIP3    H152876   2.219   0.710   1.434
10487TIP3    H252877   2.186   0.576   1.370
10488TIP3   OH252878   2.596   0.462   0.051
10488TIP3    H152879   2.554   0.424   0.128
10488TIP3    H252880   2.558   0.550   0.044
10489TIP3   OH252881   1.862   0.352   0.759
10489TIP3    H152882   1.925   0.380   0.825
10489TIP3    H252883   1.910   0.358   0.676
10490TIP3   OH252884   1.963   0.456   0.264
10490TIP3    H152885   2.024   0.468   0.190
10490TIP3    H252886   1.918   0.540   0.272
10491TIP3   OH252887   3.049   0.785   1.263
10491TIP3    H152888   3.082   0.725   1.196
10491TIP3    H252889   2.982   0.735   1.309
10492TIP3   OH252890   2.729   0.423   0.748
10492TIP3    H152891   2.639   0.416   0.779
10492TIP3    H252892   2.779   0.365   0.805
10493TIP3   OH252893   2.185   0.576   0.641
10493TIP3    H152894   2.110   0.607   0.590
10493TIP3    H252895   2.198   0.486   0.613
10494TIP3   OH252896   2.514   0.601   0.408
10494TIP3    H152897   2.609   0.593   0.418
10494TIP3    H252898   2.503   0.642   0.322
10495TIP3   OH252899   3.186   0.325   1.086
10495TIP3    H152900   3.127   0.328   1.161
10495TIP3    H252901   3.152   0.254   1.032
10496TIP3   OH252902   2.429   0.688   0.157
10496TIP3    H152903   2.334   0.676   0.165
10496TIP3    H252904   2.444   0.705   0.064
10497TIP3   OH252905   3.493   1.898   1.739
10497TIP3    H152906   3.520   1.934   1.654
10497TIP3    H252907   3.565   1.921   1.798
10498TIP3   OH252908   2.255   1.157   1.671
10498TIP3    H152909   2.322   1.167   1.740
10498TIP3    H252910   2.172   1.168   1.717
10499TIP3   OH252911   2.821   0.705   0.954
10499TIP3    H152912   2.882   0.646   0.910
10499TIP3    H252913   2.787   0.654   1.027
10500TIP3   OH252914   2.289   0.308   0.603
10500TIP3    H152915   2.242   0.230   0.633
10500TIP3    H252916   2.312   0.289   0.512
10501TIP3   OH252917   2.706   0.579   1.179
10501TIP3    H152918   2.621   0.623   1.186
10501TIP3    H252919   2.756   0.610   1.254
10502TIP3   OH252920   2.756   1.132   0.348
10502TIP3    H152921   2.686   1.083   0.305
10502TIP3    H252922   2.717   1.164   0.429
10503TIP3   OH252923   3.461   1.088   1.201
10503TIP3    H152924   3.522   1.141   1.150
10503TIP3    H252925   3.389   1.070   1.140
10504TIP3   OH252926   3.156   0.463   0.125
10504TIP3    H152927   3.073   0.416   0.132
10504TIP3    H252928   3.159   0.518   0.203
10505TIP3   OH252929   2.902   1.179   1.501
10505TIP3    H152930   2.920   1.142   1.587
10505TIP3    H252931   2.864   1.265   1.519
10506TIP3   OH252932   3.199   0.628   0.358
10506TIP3    H152933   3.288   0.610   0.390
10506TIP3    H252934   3.204   0.715   0.320
10507TIP3   OH252935   2.272   1.066   0.903
10507TIP3    H152936   2.333   1.062   0.829
10507TIP3    H252937   2.312   1.010   0.970
10508TIP3   OH252938   2.971   1.278   0.249
10508TIP3    H152939   2.932   1.364   0.267
10508TIP3    H252940   2.905   1.215   0.277
10509TIP3   OH252941   1.986   0.905   1.454
10509TIP3    H152942   1.957   0.865   1.536
10509TIP3    H252943   1.922   0.875   1.389
10510TIP3   OH252944   2.692   0.892   1.684
10510TIP3    H152945   2.626   0.854   1.626
10510TIP3    H252946   2.772   0.845   1.663
10511TIP3   OH252947   3.109   1.451   1.483
10511TIP3    H152948   3.015   1.453   1.465
10511TIP3    H252949   3.115   1.463   1.578
10512TIP3   OH252950   3.668   0.679   0.320
10512TIP3    H152951   3.608   0.644   0.254
10512TIP3    H252952   3.681   0.770   0.295
10513TIP3   OH252953   3.709   1.242   1.592
10513TIP3    H152954   3.620   1.253   1.558
10513TIP3    H252955   3.762   1.223   1.514
10514TIP3   OH252956   3.516   1.526   0.376
10514TIP3    H152957   3.470   1.451   0.414
10514TIP3    H252958   3.550   1.493   0.293
10515TIP3   OH252959   3.253   1.021   1.015
10515TIP3    H152960   3.158   1.013   1.015
10515TIP3    H252961   3.284   0.942   0.971
10516TIP3   OH252962   2.529   1.446   0.688
10516TIP3    H152963   2.545   1.531   0.647
10516TIP3    H252964   2.437   1.449   0.715
10517TIP3   OH252965   2.077   0.955   0.128
10517TIP3    H152966   2.116   0.994   0.206
10517TIP3    H252967   1.986   0.939   0.153
10518TIP3   OH252968   2.616   1.210   0.568
10518TIP3    H152969   2.596   1.295   0.608
10518TIP3    H252970   2.563   1.148   0.618
10519TIP3   OH252971   2.719   1.619   1.269
10519TIP3    H152972   2.780   1.691   1.250
10519TIP3    H252973   2.767   1.562   1.330
10520TIP3   OH252974   2.517   1.718   0.567
10520TIP3    H152975   2.425   1.722   0.593
10520TIP3    H252976   2.558   1.793   0.611
10521TIP3   OH252977   3.014   1.224   1.252
10521TIP3    H152978   2.974   1.209   1.337
10521TIP3    H252979   3.089   1.165   1.250
10522TIP3   OH252980   3.242   1.320   0.130
10522TIP3    H152981   3.300   1.272   0.189
10522TIP3    H252982   3.155   1.309   0.168
10523TIP3   OH252983   3.314   1.643   1.461
10523TIP3    H152984   3.236   1.589   1.451
10523TIP3    H252985   3.302   1.714   1.398
10524TIP3   OH252986   3.711   1.745   0.158
10524TIP3    H152987   3.758   1.783   0.084
10524TIP3    H252988   3.648   1.812   0.184
10525TIP3   OH252989   2.117   0.399   1.402
10525TIP3    H152990   2.025   0.421   1.388
10525TIP3    H252991   2.116   0.332   1.470
10526TIP3   OH252992   3.403   1.170   0.314
10526TIP3    H152993   3.355   1.118   0.379
10526TIP3    H252994   3.494   1.167   0.343
10527TIP3   OH252995   2.112   1.572   1.258
10527TIP3    H152996   2.141   1.491   1.300
10527TIP3    H252997   2.112   1.637   1.328
10528TIP3   OH252998   2.539   1.418   0.236
10528TIP3    H152999   2.603   1.361   0.279
10528TIP3    H253000   2.562   1.506   0.263
10529TIP3   OH253001   2.194   1.114   0.325
10529TIP3    H153002   2.122   1.157   0.372
10529TIP3    H253003   2.236   1.185   0.276
10530TIP3   OH253004   3.030   0.343   1.307
10530TIP3    H153005   3.089   0.376   1.375
10530TIP3    H253006   2.983   0.271   1.348
10531TIP3   OH253007   3.099   0.301   0.456
10531TIP3    H153008   3.086   0.352   0.376
10531TIP3    H253009   3.142   0.362   0.516
10532TIP3   OH253010   2.838   1.509   0.303
10532TIP3    H153011   2.761   1.560   0.330
10532TIP3    H253012   2.884   1.565   0.242
10533TIP3   OH253013   2.770   0.532   0.499
10533TIP3    H153014   2.847   0.589   0.510
10533TIP3    H253015   2.753   0.498   0.587
10534TIP3   OH253016   2.878   0.617   1.399
10534TIP3    H153017   2.884   0.649   1.489
10534TIP3    H253018   2.907   0.525   1.404
10535TIP3   OH253019   2.873   0.192   0.572
10535TIP3    H153020   2.869   0.242   0.654
10535TIP3    H253021   2.954   0.221   0.530
10536TIP3   OH253022   2.613   1.673   0.312
10536TIP3    H153023   2.622   1.759   0.271
10536TIP3    H253024   2.576   1.692   0.399
10537TIP3   OH253025   2.463   0.360   0.271
10537TIP3    H153026   2.445   0.438   0.323
10537TIP3    H253027   2.544   0.325   0.307
10538TIP3   OH253028   3.451   0.391   1.504
10538TIP3    H153029   3.358   0.416   1.501
10538TIP3    H253030   3.471   0.363   1.415
10539TIP3   OH253031   3.329   0.771   0.895
10539TIP3    H153032   3.244   0.729   0.880
10539TIP3    H253033   3.375   0.712   0.953
10540TIP3   OH253034   2.286   1.328   0.164
10540TIP3    H153035   2.352   1.379   0.210
10540TIP3    H253036   2.336   1.276   0.101
10541TIP3   OH253037   2.160   0.673   0.122
10541TIP3    H153038   2.116   0.755   0.101
10541TIP3    H253039   2.122   0.609   0.061
10542TIP3   OH253040   3.458   1.725   1.063
10542TIP3    H153041   3.447   1.797   1.001
10542TIP3    H253042   3.552   1.719   1.078
10543TIP3   OH253043   2.162   0.135   0.949
10543TIP3    H153044   2.158   0.116   0.856
10543TIP3    H253045   2.122   0.058   0.991
10544TIP3   OH253046   2.067   1.522   0.559
10544TIP3    H153047   2.012   1.551   0.631
10544TIP3    H253048   2.051   1.585   0.488
10545TIP3   OH253049   2.028   1.799   1.724
10545TIP3    H153050   2.089   1.776   1.794
10545TIP3    H253051   1.989   1.716   1.697
10546TIP3   OH253052   2.456   1.655   1.847
10546TIP3    H153053   2.521   1.608   1.899
10546TIP3    H253054   2.451   1.605   1.765
10547TIP3   OH253055   2.958   1.657   0.113
10547TIP3    H153056   2.939   1.609   0.033
10547TIP3    H253057   3.051   1.678   0.107
10548TIP3   OH253058   3.121   1.487   1.753
10548TIP3    H153059   3.099   1.408   1.804
10548TIP3    H253060   3.193   1.527   1.802
10549TIP3   OH253061   3.361   1.571   0.053
10549TIP3    H153062   3.320   1.487   0.076
10549TIP3    H253063   3.455   1.552   0.051
10550TIP3   OH253064   2.005   1.156   1.794
10550TIP3    H153065   1.995   1.062   1.782
10550TIP3    H253066   1.941   1.195   1.734
10551TIP3   OH253067   2.487   1.162   0.031
10551TIP3    H153068   2.511   1.112   0.109
10551TIP3    H253069   2.406   1.121   0.000
10552TIP3   OH253070   2.665   1.165   1.745
10552TIP3    H153071   2.645   1.207   1.662
10552TIP3    H253072   2.682   1.074   1.722
10553TIP3   OH253073   3.229   1.191   1.498
10553TIP3    H153074   3.319   1.217   1.481
10553TIP3    H253075   3.178   1.271   1.489
10554TIP3   OH253076   2.083   0.876   1.764
10554TIP3    H153077   2.174   0.880   1.734
10554TIP3    H253078   2.090   0.887   1.859
10555TIP3   OH253079   2.550   0.986   0.232
10555TIP3    H153080   2.494   0.952   0.303
10555TIP3    H253081   2.579   0.908   0.185
10556TIP3   OH253082   2.501   0.788   1.499
10556TIP3    H153083   2.423   0.843   1.495
10556TIP3    H253084   2.559   0.823   1.431
10557TIP3   OH253085   2.679   0.816   0.043
10557TIP3    H153086   2.675   0.748  -0.024
10557TIP3    H253087   2.768   0.809   0.079
10558TIP3   OH253088   2.996   1.037   1.784
10558TIP3    H153089   3.077   0.998   1.750
10558TIP3    H253090   2.962   0.972   1.845
10559TIP3   OH253091   3.591   1.112  16.011
10559TIP3    H153092   3.571   1.126  15.918
10559TIP3    H253093   3.602   1.201  16.046
10560TIP3   OH253094   2.538   0.526   1.569
10560TIP3    H153095   2.549   0.473   1.491
10560TIP3    H253096   2.528   0.616   1.536
10561TIP3   OH253097   2.573   0.377   1.334
10561TIP3    H153098   2.625   0.427   1.271
10561TIP3    H253099   2.487   0.370   1.293
10562TIP3   OH253100   2.689   0.893   1.334
10562TIP3    H153101   2.781   0.915   1.354
10562TIP3    H253102   2.655   0.971   1.290
10563TIP3   OH253103   3.145   0.672   1.824
10563TIP3    H153104   3.186   0.586   1.820
10563TIP3    H253105   3.217   0.732   1.846
10564TIP3   OH253106   3.286   0.969   1.644
10564TIP3    H153107   3.254   1.046   1.598
10564TIP3    H253108   3.381   0.976   1.639
10565TIP3   OH253109   2.377   0.579   1.791
10565TIP3    H153110   2.289   0.544   1.779
10565TIP3    H253111   2.418   0.573   1.705
10566TIP3   OH253112   2.612   0.126   1.446
10566TIP3    H153113   2.594   0.214   1.414
10566TIP3    H253114   2.548   0.071   1.402
10567TIP3   OH253115   2.757   0.501   1.739
10567TIP3    H153116   2.725   0.467   1.823
10567TIP3    H253117   2.678   0.506   1.684
10568TIP3   OH253118   3.003   0.415   1.643
10568TIP3    H153119   2.916   0.433   1.681
10568TIP3    H253120   3.056   0.388   1.717
10569TIP3   OH253121   3.201   0.348   1.837
10569TIP3    H153122   3.198   0.253   1.824
10569TIP3    H253123   3.177   0.360   1.929
10570TIP3   OH253124   2.148   0.424   1.777
10570TIP3    H153125   2.148   0.343   1.726
10570TIP3    H253126   2.148   0.395   1.868
10571TIP3   OH253127   2.728   0.001   1.659
10571TIP3    H153128   2.659  -0.033   1.716
10571TIP3    H253129   2.681   0.044   1.588
10572TIP3   OH253130   2.746   0.208   1.849
10572TIP3    H153131   2.739   0.141   1.781
10572TIP3    H253132   2.659   0.248   1.852
10573TIP3   OH253133   2.669   1.904   0.160
10573TIP3    H153134   2.696   1.994   0.177
10573TIP3    H253135   2.668   1.896   0.064
10574TIP3   OH253136   2.008   1.372   0.104
10574TIP3    H153137   2.102   1.366   0.123
10574TIP3    H253138   2.002   1.357   0.009
10575TIP3   OH253139   1.892   1.853   0.650
10575TIP3    H153140   1.833   1.824   0.582
10575TIP3    H253141   1.908   1.775   0.703
10576TIP3   OH253142   1.965   1.635   0.808
10576TIP3    H153143   1.928   1.559   0.852
10576TIP3    H253144   2.013   1.682   0.876
10577TIP3   OH253145   3.725   1.723   1.133
10577TIP3    H153146   3.720   1.727   1.228
10577TIP3    H253147   3.800   1.778   1.110
10578TIP3   OH253148   3.673   1.697   1.408
10578TIP3    H153149   3.615   1.629   1.373
10578TIP3    H253150   3.717   1.655   1.482
10579TIP3   OH253151   3.524   1.286   1.884
10579TIP3    H153152   3.438   1.296   1.925
10579TIP3    H253153   3.575   1.360   1.917
10580TIP3   OH253154   3.663   1.124   0.413
10580TIP3    H153155   3.735   1.187   0.418
10580TIP3    H253156   3.676   1.066   0.488
10581TIP3   OH253157   3.710   0.930   0.608
10581TIP3    H153158   3.627   0.893   0.637
10581TIP3    H253159   3.760   0.942   0.689
10582TIP3   OH253160   3.695   1.217   1.121
10582TIP3    H153161   3.748   1.149   1.079
10582TIP3    H253162   3.723   1.299   1.079
10583TIP3   OH253163   3.504   1.498   1.317
10583TIP3    H153164   3.431   1.539   1.363
10583TIP3    H253165   3.469   1.479   1.230
10584TIP3   OH253166   3.697   0.940   0.214
10584TIP3    H153167   3.649   0.981   0.142
10584TIP3    H253168   3.685   0.999   0.288
10585TIP3   OH253169   3.507   0.593   0.123
10585TIP3    H153170   3.563   0.609   0.048
10585TIP3    H253171   3.434   0.541   0.088
10586TIP3   OH253172   3.462   0.804   0.653
10586TIP3    H153173   3.457   0.714   0.620
10586TIP3    H253174   3.420   0.801   0.739
10587TIP3   OH253175   1.956   0.986   1.063
10587TIP3    H153176   1.968   0.975   0.969
10587TIP3    H253177   2.040   0.960   1.102
10588TIP3   OH253178   3.564   0.986   1.635
10588TIP3    H153179   3.617   0.910   1.613
10588TIP3    H253180   3.614   1.061   1.604
10589TIP3   OH253181   3.687   0.744   1.599
10589TIP3    H153182   3.599   0.710   1.617
10589TIP3    H253183   3.746   0.674   1.628
10590TIP3   OH253184   3.453   0.557   0.484
10590TIP3    H153185   3.478   0.464   0.485
10590TIP3    H253186   3.525   0.600   0.439
10591TIP3   OH253187   3.487   0.590   1.045
10591TIP3    H153188   3.580   0.604   1.028
10591TIP3    H253189   3.478   0.605   1.139
10592TIP3   OH253190   3.508   0.669   1.315
10592TIP3    H153191   3.428   0.700   1.356
10592TIP3    H253192   3.561   0.748   1.302
10593TIP3   OH253193   1.916   0.494   1.646
10593TIP3    H153194   2.000   0.485   1.691
10593TIP3    H253195   1.869   0.412   1.665
10594TIP3   OH253196   3.764   0.074   1.845
10594TIP3    H153197   3.774  -0.006   1.793
10594TIP3    H253198   3.733   0.139   1.782
10595TIP3   OH253199   3.508   0.282   0.497
10595TIP3    H153200   3.521   0.245   0.585
10595TIP3    H253201   3.450   0.220   0.453
10596TIP3   OH253202   2.043   0.380   0.971
10596TIP3    H153203   2.082   0.293   0.969
10596TIP3    H253204   2.117   0.439   0.987
10597TIP3   OH253205   1.864   0.648   1.038
10597TIP3    H153206   1.938   0.652   0.978
10597TIP3    H253207   1.881   0.718   1.102
10598TIP3   OH253208   3.652   0.246   1.660
10598TIP3    H153209   3.588   0.300   1.707
10598TIP3    H253210   3.622   0.246   1.569
10599TIP3   OH253211   3.710   0.263   0.156
10599TIP3    H153212   3.737   0.266   0.064
10599TIP3    H253213   3.759   0.335   0.197
10600TIP3   OH253214   1.909   0.291   0.475
10600TIP3    H153215   1.813   0.291   0.470
10600TIP3    H253216   1.936   0.351   0.406
10601TIP3   OH253217   3.382   1.808   0.668
10601TIP3    H153218   3.454   1.800   0.605
10601TIP3    H253219   3.422   1.847   0.745
10602TIP3   OH253220   1.929   0.092   1.262
10602TIP3    H153221   1.862   0.086   1.329
10602TIP3    H253222   1.908   0.171   1.213
10603TIP3   OH253223   2.157   1.482   1.714
10603TIP3    H153224   2.062   1.495   1.716
10603TIP3    H253225   2.180   1.460   1.805
10604TIP3   OH253226   2.453   1.591   1.336
10604TIP3    H153227   2.421   1.679   1.313
10604TIP3    H253228   2.548   1.596   1.322
10605TIP3   OH253229   2.835   1.714   1.619
10605TIP3    H153230   2.843   1.682   1.709
10605TIP3    H253231   2.916   1.762   1.603
10606TIP3   OH253232   3.074   1.849   1.583
10606TIP3    H153233   3.139   1.786   1.550
10606TIP3    H253234   3.113   1.883   1.664
10607TIP3   OH253235   3.562   0.083   1.414
10607TIP3    H153236   3.520   0.151   1.363
10607TIP3    H253237   3.525   0.001   1.380
10608TIP3   OH253238   2.155   1.905   1.360
10608TIP3    H153239   2.071   1.937   1.328
10608TIP3    H253240   2.162   1.941   1.448
10609TIP3   OH253241   2.409   1.856   1.271
10609TIP3    H153242   2.319   1.872   1.302
10609TIP3    H253243   2.413   1.902   1.187
10610TIP3   OH253244   2.868   1.839   1.179
10610TIP3    H153245   2.809   1.876   1.113
10610TIP3    H253246   2.875   1.907   1.246
10611TIP3   OH253247   3.097   1.711   1.265
10611TIP3    H153248   3.017   1.755   1.236
10611TIP3    H253249   3.165   1.779   1.259
10612TIP3   OH253250   3.336   1.860   1.272
10612TIP3    H153251   3.359   1.951   1.255
10612TIP3    H253252   3.377   1.811   1.201
10613TIP3   OH253253   2.122   1.738   1.029
10613TIP3    H153254   2.112   1.690   1.111
10613TIP3    H253255   2.200   1.701   0.988
10614TIP3   OH253256   2.336   1.615   0.913
10614TIP3    H153257   2.321   1.523   0.936
10614TIP3    H253258   2.421   1.635   0.952
10615TIP3   OH253259   2.595   1.645   1.021
10615TIP3    H153260   2.606   1.555   0.990
10615TIP3    H253261   2.626   1.643   1.111
10616TIP3   OH253262   2.872   0.222   0.866
10616TIP3    H153263   2.809   0.161   0.905
10616TIP3    H253264   2.957   0.184   0.884
10617TIP3   OH253265   3.410   0.051   0.940
10617TIP3    H153266   3.468   0.083   0.871
10617TIP3    H253267   3.327   0.098   0.926
10618TIP3   OH253268   3.572   0.146   0.734
10618TIP3    H153269   3.635   0.079   0.707
10618TIP3    H253270   3.626   0.222   0.756
10619TIP3   OH253271   2.172   0.063   0.680
10619TIP3    H153272   2.116   0.016   0.618
10619TIP3    H253273   2.233  -0.003   0.712
10620TIP3   OH253274   2.051   0.070   0.342
10620TIP3    H153275   2.117   0.105   0.282
10620TIP3    H253276   1.999   0.146   0.367
10621TIP3   OH253277   2.651   0.047   0.655
10621TIP3    H153278   2.729   0.096   0.629
10621TIP3    H253279   2.649   0.055   0.751
10622TIP3   OH253280   3.148   0.151   0.859
10622TIP3    H153281   3.172   0.220   0.796
10622TIP3    H253282   3.161   0.069   0.812
10623TIP3   OH253283   3.289   0.102   0.444
10623TIP3    H153284   3.219   0.167   0.442
10623TIP3    H253285   3.269   0.044   0.370
10624TIP3   OH253286   2.031   1.695   0.353
10624TIP3    H153287   1.955   1.683   0.297
10624TIP3    H253288   2.054   1.788   0.342
10625TIP3   OH253289   2.237   0.192   0.185
10625TIP3    H153290   2.208   0.179   0.094
10625TIP3    H253291   2.310   0.252   0.178
10626TIP3   OH253292   2.712   0.297   0.368
10626TIP3    H153293   2.765   0.241   0.425
10626TIP3    H253294   2.730   0.386   0.398
10627TIP3   OH253295   2.978   1.922   0.211
10627TIP3    H153296   3.064   1.882   0.199
10627TIP3    H253297   2.917   1.860   0.172
10628TIP3   OH253298   3.579   1.775   0.472
10628TIP3    H153299   3.562   1.685   0.444
10628TIP3    H253300   3.575   1.827   0.392
10629TIP3   OH253301   2.126   0.198   1.618
10629TIP3    H153302   2.054   0.143   1.649
10629TIP3    H253303   2.203   0.165   1.664
10630TIP3   OH253304   2.341   0.160   1.794
10630TIP3    H153305   2.402   0.233   1.804
10630TIP3    H253306   2.393   0.082   1.814
10631TIP3   OH253307   2.233   1.764   0.019
10631TIP3    H153308   2.162   1.828   0.028
10631TIP3    H253309   2.223   1.707   0.095
10632TIP3   OH253310   3.224   0.074   1.810
10632TIP3    H153311   3.256   0.040   1.894
10632TIP3    H253312   3.293   0.053   1.748
10633TIP3   OH253313   3.497   1.628   1.676
10633TIP3    H153314   3.431   1.622   1.607
10633TIP3    H253315   3.489   1.718   1.708
10634TIP3   OH253316   4.967   1.028   0.654
10634TIP3    H153317   4.954   1.123   0.648
10634TIP3    H253318   4.897   0.991   0.600
10635TIP3   OH253319   4.851   0.941   1.046
10635TIP3    H153320   4.874   0.900   1.129
10635TIP3    H253321   4.800   0.874   1.000
10636TIP3   OH253322   4.060   0.888   1.195
10636TIP3    H153323   4.063   0.804   1.241
10636TIP3    H253324   4.124   0.942   1.240
10637TIP3   OH253325   5.230   1.251   0.876
10637TIP3    H153326   5.191   1.177   0.923
10637TIP3    H253327   5.251   1.315   0.943
10638TIP3   OH253328   4.202   1.350   0.977
10638TIP3    H153329   4.169   1.261   0.962
10638TIP3    H253330   4.295   1.338   0.994
10639TIP3   OH253331   3.852   0.697   0.530
10639TIP3    H153332   3.821   0.780   0.564
10639TIP3    H253333   3.790   0.674   0.461
10640TIP3   OH253334   3.909   0.938   0.811
10640TIP3    H153335   3.938   0.848   0.830
10640TIP3    H253336   3.987   0.991   0.824
10641TIP3   OH253337   4.960   1.737   0.900
10641TIP3    H153338   4.996   1.680   0.832
10641TIP3    H253339   4.924   1.677   0.966
10642TIP3   OH253340   4.693   1.195   1.057
10642TIP3    H153341   4.730   1.116   1.020
10642TIP3    H253342   4.760   1.228   1.117
10643TIP3   OH253343   5.586   0.344   1.149
10643TIP3    H153344   5.600   0.407   1.219
10643TIP3    H253345   5.646   0.373   1.079
10644TIP3   OH253346   5.011   0.610   1.074
10644TIP3    H153347   5.030   0.517   1.086
10644TIP3    H253348   4.987   0.618   0.981
10645TIP3   OH253349   4.339   0.428   0.796
10645TIP3    H153350   4.341   0.515   0.756
10645TIP3    H253351   4.285   0.376   0.738
10646TIP3   OH253352   5.127   0.456   0.650
10646TIP3    H153353   5.177   0.430   0.727
10646TIP3    H253354   5.188   0.508   0.598
10647TIP3   OH253355   3.990   0.683   0.883
10647TIP3    H153356   4.054   0.645   0.941
10647TIP3    H253357   4.009   0.645   0.797
10648TIP3   OH253358   4.482   0.827   0.837
10648TIP3    H153359   4.563   0.786   0.867
10648TIP3    H253360   4.441   0.760   0.782
10649TIP3   OH253361   5.611   0.499   1.376
10649TIP3    H153362   5.534   0.555   1.362
10649TIP3    H253363   5.628   0.505   1.470
10650TIP3   OH253364   4.210   0.335   1.221
10650TIP3    H153365   4.185   0.393   1.149
10650TIP3    H253366   4.140   0.345   1.285
10651TIP3   OH253367   4.933   1.286   0.556
10651TIP3    H153368   4.915   1.283   0.462
10651TIP3    H253369   4.883   1.361   0.588
10652TIP3   OH253370   4.472   1.113   1.205
10652TIP3    H153371   4.418   1.183   1.242
10652TIP3    H253372   4.541   1.159   1.157
10653TIP3   OH253373   5.260   0.386   0.880
10653TIP3    H153374   5.191   0.367   0.945
10653TIP3    H253375   5.315   0.451   0.923
10654TIP3   OH253376   4.179   0.514   1.009
10654TIP3    H153377   4.235   0.570   1.062
10654TIP3    H253378   4.238   0.479   0.941
10655TIP3   OH253379   4.317   1.315   1.316
10655TIP3    H153380   4.322   1.410   1.305
10655TIP3    H253381   4.227   1.299   1.342
10656TIP3   OH253382   3.883   1.297   0.391
10656TIP3    H153383   3.875   1.339   0.306
10656TIP3    H253384   3.908   1.367   0.451
10657TIP3   OH253385   5.266   1.454   1.073
10657TIP3    H153386   5.172   1.456   1.089
10657TIP3    H253387   5.288   1.544   1.049
10658TIP3   OH253388   5.330   0.287   1.248
10658TIP3    H153389   5.255   0.315   1.196
10658TIP3    H253390   5.406   0.311   1.196
10659TIP3   OH253391   4.545   0.049   0.950
10659TIP3    H153392   4.580   0.000   1.025
10659TIP3    H253393   4.462   0.085   0.982
10660TIP3   OH253394   5.084   1.607   0.685
10660TIP3    H153395   5.126   1.523   0.669
10660TIP3    H253396   5.157   1.670   0.688
10661TIP3   OH253397   5.192   1.361   0.625
10661TIP3    H153398   5.109   1.322   0.600
10661TIP3    H253399   5.216   1.318   0.707
10662TIP3   OH253400   5.377   1.241   1.429
10662TIP3    H153401   5.367   1.182   1.354
10662TIP3    H253402   5.390   1.327   1.390
10663TIP3   OH253403   4.821   0.937   0.434
10663TIP3    H153404   4.753   1.000   0.411
10663TIP3    H253405   4.887   0.947   0.366
10664TIP3   OH253406   4.836   0.788   0.109
10664TIP3    H153407   4.885   0.814   0.187
10664TIP3    H253408   4.899   0.794   0.037
10665TIP3   OH253409   5.540   0.894   1.262
10665TIP3    H153410   5.468   0.956   1.254
10665TIP3    H253411   5.604   0.923   1.197
10666TIP3   OH253412   5.186   0.974   0.500
10666TIP3    H153413   5.117   0.997   0.563
10666TIP3    H253414   5.253   0.931   0.553
10667TIP3   OH253415   5.148   0.766   1.451
10667TIP3    H153416   5.145   0.838   1.514
10667TIP3    H253417   5.083   0.789   1.385
10668TIP3   OH253418   4.332   1.018   0.699
10668TIP3    H153419   4.308   0.980   0.615
10668TIP3    H253420   4.389   0.952   0.740
10669TIP3   OH253421   4.486   1.372   0.959
10669TIP3    H153422   4.485   1.379   0.864
10669TIP3    H253423   4.561   1.316   0.979
10670TIP3   OH253424   4.345   0.915   1.061
10670TIP3    H153425   4.400   0.895   0.986
10670TIP3    H253426   4.392   0.983   1.108
10671TIP3   OH253427   5.004   1.467   1.143
10671TIP3    H153428   4.986   1.537   1.205
10671TIP3    H253429   4.961   1.390   1.181
10672TIP3   OH253430   4.473   1.340   1.544
10672TIP3    H153431   4.411   1.398   1.588
10672TIP3    H253432   4.428   1.312   1.465
10673TIP3   OH253433   5.052   0.900   0.274
10673TIP3    H153434   5.099   0.930   0.351
10673TIP3    H253435   5.095   0.944   0.200
10674TIP3   OH253436   4.163   0.957   1.470
10674TIP3    H153437   4.171   1.028   1.534
10674TIP3    H253438   4.069   0.940   1.464
10675TIP3   OH253439   4.826   1.532   0.621
10675TIP3    H153440   4.910   1.568   0.650
10675TIP3    H253441   4.787   1.602   0.569
10676TIP3   OH253442   4.277   1.521   1.615
10676TIP3    H153443   4.277   1.552   1.525
10676TIP3    H253444   4.184   1.511   1.637
10677TIP3   OH253445   5.402   0.123   0.227
10677TIP3    H153446   5.341   0.074   0.170
10677TIP3    H253447   5.452   0.177   0.166
10678TIP3   OH253448   4.247   0.930   0.437
10678TIP3    H153449   4.192   1.000   0.402
10678TIP3    H253450   4.190   0.853   0.437
10679TIP3   OH253451   5.529   1.482   0.124
10679TIP3    H153452   5.549   1.575   0.128
10679TIP3    H253453   5.613   1.439   0.111
10680TIP3   OH253454   3.839   1.169   1.363
10680TIP3    H153455   3.786   1.176   1.284
10680TIP3    H253456   3.851   1.075   1.375
10681TIP3   OH253457   3.810   1.467   1.041
10681TIP3    H153458   3.894   1.465   1.086
10681TIP3    H253459   3.764   1.542   1.078
10682TIP3   OH253460   5.629   1.526   1.632
10682TIP3    H153461   5.617   1.431   1.625
10682TIP3    H253462   5.545   1.559   1.663
10683TIP3   OH253463   4.710   1.469   1.490
10683TIP3    H153464   4.709   1.553   1.536
10683TIP3    H253465   4.625   1.429   1.510
10684TIP3   OH253466   4.804   1.816   0.484
10684TIP3    H153467   4.789   1.835   0.391
10684TIP3    H253468   4.774   1.895   0.529
10685TIP3   OH253469   4.142   1.705   0.664
10685TIP3    H153470   4.160   1.672   0.752
10685TIP3    H253471   4.086   1.637   0.625
10686TIP3   OH253472   5.102   1.761   0.139
10686TIP3    H153473   5.171   1.697   0.118
10686TIP3    H253474   5.100   1.763   0.234
10687TIP3   OH253475   5.068   1.760   0.423
10687TIP3    H153476   4.976   1.772   0.445
10687TIP3    H253477   5.102   1.702   0.492
10688TIP3   OH253478   5.316   0.649   1.661
10688TIP3    H153479   5.261   0.680   1.589
10688TIP3    H253480   5.328   0.556   1.645
10689TIP3   OH253481   4.063   1.319   1.422
10689TIP3    H153482   4.087   1.285   1.509
10689TIP3    H253483   3.984   1.271   1.398
10690TIP3   OH253484   4.300   0.122   1.059
10690TIP3    H153485   4.214   0.128   1.016
10690TIP3    H253486   4.297   0.190   1.127
10691TIP3   OH253487   4.775   0.130   1.418
10691TIP3    H153488   4.808   0.102   1.503
10691TIP3    H253489   4.681   0.138   1.430
10692TIP3   OH253490   5.080   0.494   1.468
10692TIP3    H153491   5.013   0.482   1.535
10692TIP3    H253492   5.089   0.589   1.459
10693TIP3   OH253493   5.192   1.026   0.069
10693TIP3    H153494   5.181   1.094   0.003
10693TIP3    H253495   5.258   1.061   0.129
10694TIP3   OH253496   4.782   0.345   0.111
10694TIP3    H153497   4.688   0.365   0.108
10694TIP3    H253498   4.785   0.250   0.122
10695TIP3   OH253499   4.327   0.669   1.183
10695TIP3    H153500   4.260   0.670   1.251
10695TIP3    H253501   4.327   0.758   1.147
10696TIP3   OH253502   4.331   0.668   0.666
10696TIP3    H153503   4.236   0.658   0.663
10696TIP3    H253504   4.360   0.649   0.577
10697TIP3   OH253505   4.880   0.692   0.541
10697TIP3    H153506   4.852   0.779   0.512
10697TIP3    H253507   4.950   0.668   0.481
10698TIP3   OH253508   4.794   0.718   1.675
10698TIP3    H153509   4.738   0.647   1.708
10698TIP3    H253510   4.879   0.702   1.716
10699TIP3   OH253511   4.971   0.633   0.802
10699TIP3    H153512   4.926   0.686   0.737
10699TIP3    H253513   5.012   0.563   0.751
10700TIP3   OH253514   4.109   0.660   1.354
10700TIP3    H153515   4.101   0.703   1.439
10700TIP3    H253516   4.072   0.572   1.367
10701TIP3   OH253517   4.517   0.433   0.053
10701TIP3    H153518   4.458   0.412   0.125
10701TIP3    H253519   4.513   0.529   0.046
10702TIP3   OH253520   3.752   0.346   0.753
10702TIP3    H153521   3.815   0.375   0.819
10702TIP3    H253522   3.799   0.351   0.670
10703TIP3   OH253523   3.856   0.477   0.267
10703TIP3    H153524   3.931   0.513   0.219
10703TIP3    H253525   3.799   0.553   0.281
10704TIP3   OH253526   4.931   0.784   1.268
10704TIP3    H153527   4.964   0.725   1.200
10704TIP3    H253528   4.866   0.733   1.315
10705TIP3   OH253529   4.614   0.412   0.735
10705TIP3    H153530   4.522   0.416   0.763
10705TIP3    H253531   4.658   0.366   0.805
10706TIP3   OH253532   4.072   0.577   0.642
10706TIP3    H153533   3.997   0.608   0.592
10706TIP3    H253534   4.084   0.486   0.614
10707TIP3   OH253535   4.401   0.590   0.413
10707TIP3    H153536   4.496   0.586   0.421
10707TIP3    H253537   4.385   0.626   0.326
10708TIP3   OH253538   5.071   0.328   1.070
10708TIP3    H153539   5.019   0.327   1.150
10708TIP3    H253540   5.030   0.263   1.013
10709TIP3   OH253541   4.319   0.649   0.159
10709TIP3    H153542   4.225   0.646   0.139
10709TIP3    H253543   4.358   0.697   0.086
10710TIP3   OH253544   5.377   1.899   1.732
10710TIP3    H153545   5.403   1.934   1.647
10710TIP3    H253546   5.450   1.921   1.790
10711TIP3   OH253547   4.139   1.166   1.661
10711TIP3    H153548   4.202   1.155   1.732
10711TIP3    H253549   4.054   1.174   1.705
10712TIP3   OH253550   4.706   0.705   0.955
10712TIP3    H153551   4.766   0.644   0.914
10712TIP3    H253552   4.671   0.657   1.031
10713TIP3   OH253553   4.173   0.307   0.604
10713TIP3    H153554   4.126   0.229   0.635
10713TIP3    H253555   4.194   0.287   0.513
10714TIP3   OH253556   4.594   0.585   1.184
10714TIP3    H153557   4.508   0.627   1.190
10714TIP3    H253558   4.641   0.615   1.261
10715TIP3   OH253559   4.641   1.131   0.357
10715TIP3    H153560   4.570   1.089   0.309
10715TIP3    H253561   4.600   1.162   0.438
10716TIP3   OH253562   5.348   1.085   1.202
10716TIP3    H153563   5.409   1.140   1.153
10716TIP3    H253564   5.275   1.070   1.142
10717TIP3   OH253565   5.029   0.408   0.210
10717TIP3    H153566   4.942   0.401   0.170
10717TIP3    H253567   5.033   0.498   0.243
10718TIP3   OH253568   4.782   1.185   1.487
10718TIP3    H153569   4.794   1.150   1.575
10718TIP3    H253570   4.749   1.274   1.500
10719TIP3   OH253571   5.086   0.638   0.361
10719TIP3    H153572   5.176   0.626   0.390
10719TIP3    H253573   5.085   0.724   0.320
10720TIP3   OH253574   4.154   1.067   0.908
10720TIP3    H153575   4.214   1.061   0.834
10720TIP3    H253576   4.192   1.010   0.975
10721TIP3   OH253577   4.862   1.279   0.278
10721TIP3    H153578   4.822   1.365   0.289
10721TIP3    H253579   4.792   1.217   0.297
10722TIP3   OH253580   3.889   0.911   1.481
10722TIP3    H153581   3.908   0.891   1.573
10722TIP3    H253582   3.811   0.860   1.461
10723TIP3   OH253583   4.577   0.897   1.681
10723TIP3    H153584   4.510   0.860   1.624
10723TIP3    H253585   4.656   0.847   1.662
10724TIP3   OH253586   4.994   1.450   1.487
10724TIP3    H153587   4.900   1.454   1.466
10724TIP3    H253588   4.998   1.466   1.581
10725TIP3   OH253589   5.550   0.676   0.321
10725TIP3    H153590   5.490   0.646   0.253
10725TIP3    H253591   5.570   0.766   0.298
10726TIP3   OH253592   5.596   1.246   1.593
10726TIP3    H153593   5.506   1.254   1.561
10726TIP3    H253594   5.648   1.230   1.515
10727TIP3   OH253595   5.413   1.524   0.379
10727TIP3    H153596   5.362   1.452   0.416
10727TIP3    H253597   5.442   1.492   0.294
10728TIP3   OH253598   5.136   1.021   1.020
10728TIP3    H153599   5.041   1.012   1.018
10728TIP3    H253600   5.169   0.945   0.973
10729TIP3   OH253601   4.417   1.445   0.693
10729TIP3    H153602   4.439   1.530   0.654
10729TIP3    H253603   4.321   1.443   0.694
10730TIP3   OH253604   3.971   0.893   0.182
10730TIP3    H153605   4.011   0.968   0.226
10730TIP3    H253606   3.877   0.908   0.189
10731TIP3   OH253607   4.505   1.205   0.581
10731TIP3    H153608   4.487   1.292   0.617
10731TIP3    H253609   4.445   1.147   0.628
10732TIP3   OH253610   4.602   1.618   1.269
10732TIP3    H153611   4.661   1.690   1.247
10732TIP3    H253612   4.654   1.561   1.326
10733TIP3   OH253613   4.406   1.710   0.583
10733TIP3    H153614   4.313   1.721   0.603
10733TIP3    H253615   4.447   1.788   0.620
10734TIP3   OH253616   4.901   1.225   1.243
10734TIP3    H153617   4.861   1.208   1.328
10734TIP3    H253618   4.973   1.163   1.237
10735TIP3   OH253619   5.133   1.322   0.146
10735TIP3    H153620   5.188   1.271   0.206
10735TIP3    H253621   5.045   1.316   0.183
10736TIP3   OH253622   5.201   1.649   1.460
10736TIP3    H153623   5.121   1.599   1.445
10736TIP3    H253624   5.197   1.721   1.397
10737TIP3   OH253625   5.597   1.745   0.158
10737TIP3    H153626   5.653   1.794   0.098
10737TIP3    H253627   5.531   1.808   0.186
10738TIP3   OH253628   4.003   0.400   1.396
10738TIP3    H153629   3.910   0.422   1.386
10738TIP3    H253630   4.005   0.335   1.466
10739TIP3   OH253631   5.293   1.154   0.311
10739TIP3    H153632   5.246   1.109   0.381
10739TIP3    H253633   5.384   1.157   0.342
10740TIP3   OH253634   3.998   1.577   1.257
10740TIP3    H153635   4.024   1.496   1.302
10740TIP3    H253636   4.003   1.644   1.326
10741TIP3   OH253637   4.414   1.413   0.269
10741TIP3    H153638   4.491   1.363   0.297
10741TIP3    H253639   4.438   1.505   0.285
10742TIP3   OH253640   4.079   1.116   0.313
10742TIP3    H153641   4.007   1.161   0.358
10742TIP3    H253642   4.125   1.186   0.267
10743TIP3   OH253643   4.930   0.329   1.297
10743TIP3    H153644   4.979   0.373   1.367
10743TIP3    H253645   4.877   0.264   1.343
10744TIP3   OH253646   4.988   0.300   0.463
10744TIP3    H153647   4.997   0.334   0.374
10744TIP3    H253648   5.024   0.369   0.518
10745TIP3   OH253649   4.721   1.508   0.313
10745TIP3    H153650   4.646   1.564   0.332
10745TIP3    H253651   4.771   1.557   0.248
10746TIP3   OH253652   4.662   0.530   0.493
10746TIP3    H153653   4.736   0.589   0.505
10746TIP3    H253654   4.642   0.497   0.580
10747TIP3   OH253655   4.765   0.619   1.412
10747TIP3    H153656   4.766   0.657   1.500
10747TIP3    H253657   4.784   0.526   1.426
10748TIP3   OH253658   4.762   0.196   0.584
10748TIP3    H153659   4.740   0.266   0.646
10748TIP3    H253660   4.841   0.228   0.540
10749TIP3   OH253661   4.496   1.669   0.327
10749TIP3    H153662   4.496   1.753   0.282
10749TIP3    H253663   4.463   1.688   0.415
10750TIP3   OH253664   4.351   0.352   0.258
10750TIP3    H153665   4.325   0.431   0.305
10750TIP3    H253666   4.426   0.319   0.307
10751TIP3   OH253667   5.332   0.402   1.512
10751TIP3    H153668   5.239   0.423   1.504
10751TIP3    H253669   5.357   0.368   1.426
10752TIP3   OH253670   5.214   0.772   0.895
10752TIP3    H153671   5.127   0.734   0.883
10752TIP3    H253672   5.258   0.711   0.955
10753TIP3   OH253673   4.176   1.326   0.157
10753TIP3    H153674   4.234   1.379   0.213
10753TIP3    H253675   4.236   1.278   0.101
10754TIP3   OH253676   4.043   0.641   0.104
10754TIP3    H153677   4.019   0.729   0.132
10754TIP3    H253678   4.006   0.632   0.016
10755TIP3   OH253679   5.345   1.723   1.063
10755TIP3    H153680   5.331   1.794   1.000
10755TIP3    H253681   5.439   1.719   1.075
10756TIP3   OH253682   4.048   0.130   0.948
10756TIP3    H153683   4.044   0.114   0.854
10756TIP3    H253684   3.997   0.059   0.987
10757TIP3   OH253685   3.951   1.523   0.554
10757TIP3    H153686   3.896   1.551   0.628
10757TIP3    H253687   3.932   1.586   0.485
10758TIP3   OH253688   3.917   1.802   1.725
10758TIP3    H153689   3.981   1.781   1.794
10758TIP3    H253690   3.885   1.717   1.695
10759TIP3   OH253691   4.338   1.635   1.860
10759TIP3    H153692   4.422   1.600   1.888
10759TIP3    H253693   4.322   1.596   1.774
10760TIP3   OH253694   4.859   1.631   0.115
10760TIP3    H153695   4.826   1.594   0.033
10760TIP3    H253696   4.948   1.658   0.095
10761TIP3   OH253697   4.996   1.491   1.758
10761TIP3    H153698   4.983   1.408   1.804
10761TIP3    H253699   5.071   1.531   1.802
10762TIP3   OH253700   5.260   1.555   0.051
10762TIP3    H153701   5.217   1.475   0.081
10762TIP3    H253702   5.354   1.536   0.058
10763TIP3   OH253703   3.897   1.193   1.797
10763TIP3    H153704   3.886   1.115   1.850
10763TIP3    H253705   3.818   1.196   1.742
10764TIP3   OH253706   4.367   1.171   0.038
10764TIP3    H153707   4.398   1.120   0.113
10764TIP3    H253708   4.367   1.110  -0.035
10765TIP3   OH253709   4.553   1.169   1.746
10765TIP3    H153710   4.529   1.214   1.665
10765TIP3    H253711   4.569   1.078   1.719
10766TIP3   OH253712   5.115   1.192   1.507
10766TIP3    H153713   5.206   1.216   1.486
10766TIP3    H253714   5.066   1.273   1.493
10767TIP3   OH253715   3.970   0.847   1.741
10767TIP3    H153716   3.982   0.762   1.784
10767TIP3    H253717   3.967   0.910   1.812
10768TIP3   OH253718   4.440   0.986   0.233
10768TIP3    H153719   4.382   0.954   0.301
10768TIP3    H253720   4.471   0.908   0.188
10769TIP3   OH253721   4.390   0.793   1.493
10769TIP3    H153722   4.313   0.848   1.485
10769TIP3    H253723   4.450   0.825   1.425
10770TIP3   OH253724   4.561   0.787   0.064
10770TIP3    H153725   4.563   0.801  -0.031
10770TIP3    H253726   4.653   0.784   0.090
10771TIP3   OH253727   4.904   1.023   1.793
10771TIP3    H153728   4.973   0.982   1.741
10771TIP3    H253729   4.871   0.953   1.850
10772TIP3   OH253730   5.490   1.123   0.017
10772TIP3    H153731   5.438   1.141  -0.061
10772TIP3    H253732   5.506   1.210   0.055
10773TIP3   OH253733   4.427   0.530   1.563
10773TIP3    H153734   4.434   0.475   1.485
10773TIP3    H253735   4.414   0.618   1.528
10774TIP3   OH253736   4.459   0.376   1.329
10774TIP3    H153737   4.511   0.428   1.267
10774TIP3    H253738   4.372   0.370   1.288
10775TIP3   OH253739   4.583   0.894   1.328
10775TIP3    H153740   4.674   0.918   1.343
10775TIP3    H253741   4.543   0.970   1.286
10776TIP3   OH253742   5.028   0.655   1.824
10776TIP3    H153743   5.044   0.561   1.830
10776TIP3    H253744   5.115   0.693   1.812
10777TIP3   OH253745   5.165   0.967   1.650
10777TIP3    H153746   5.137   1.046   1.605
10777TIP3    H253747   5.261   0.969   1.644
10778TIP3   OH253748   4.278   0.579   1.794
10778TIP3    H153749   4.185   0.561   1.781
10778TIP3    H253750   4.316   0.574   1.706
10779TIP3   OH253751   4.498   0.123   1.434
10779TIP3    H153752   4.479   0.212   1.402
10779TIP3    H253753   4.432   0.068   1.390
10780TIP3   OH253754   4.639   0.503   1.737
10780TIP3    H153755   4.616   0.441   1.807
10780TIP3    H253756   4.560   0.509   1.683
10781TIP3   OH253757   4.886   0.424   1.641
10781TIP3    H153758   4.798   0.436   1.678
10781TIP3    H253759   4.938   0.391   1.715
10782TIP3   OH253760   5.077   0.372   1.851
10782TIP3    H153761   5.071   0.278   1.834
10782TIP3    H253762   5.061   0.381   1.945
10783TIP3   OH253763   4.045   0.424   1.751
10783TIP3    H153764   4.047   0.338   1.709
10783TIP3    H253765   4.037   0.404   1.844
10784TIP3   OH253766   4.604   0.009   1.656
10784TIP3    H153767   4.535  -0.019   1.716
10784TIP3    H253768   4.558   0.050   1.583
10785TIP3   OH253769   4.634   0.227   1.843
10785TIP3    H153770   4.640   0.147   1.790
10785TIP3    H253771   4.540   0.242   1.851
10786TIP3   OH253772   4.536   1.881   0.155
10786TIP3    H153773   4.628   1.894   0.180
10786TIP3    H253774   4.533   1.907   0.063
10787TIP3   OH253775   3.898   1.362   0.096
10787TIP3    H153776   3.992   1.362   0.115
10787TIP3    H253777   3.893   1.352   0.001
10788TIP3   OH253778   3.778   1.852   0.650
10788TIP3    H153779   3.722   1.822   0.578
10788TIP3    H253780   3.797   1.773   0.701
10789TIP3   OH253781   3.849   1.633   0.806
10789TIP3    H153782   3.813   1.557   0.852
10789TIP3    H253783   3.897   1.681   0.874
10790TIP3   OH253784   5.612   1.721   1.131
10790TIP3    H153785   5.611   1.731   1.226
10790TIP3    H253786   5.688   1.772   1.103
10791TIP3   OH253787   5.553   1.701   1.409
10791TIP3    H153788   5.500   1.630   1.372
10791TIP3    H253789   5.603   1.660   1.480
10792TIP3   OH253790   5.419   1.294   1.882
10792TIP3    H153791   5.334   1.301   1.925
10792TIP3    H253792   5.470   1.365   1.918
10793TIP3   OH253793   5.552   1.118   0.417
10793TIP3    H153794   5.621   1.184   0.419
10793TIP3    H253795   5.570   1.061   0.491
10794TIP3   OH253796   5.608   0.919   0.608
10794TIP3    H153797   5.522   0.893   0.641
10794TIP3    H253798   5.659   0.939   0.686
10795TIP3   OH253799   5.579   1.217   1.121
10795TIP3    H153800   5.633   1.150   1.079
10795TIP3    H253801   5.608   1.299   1.082
10796TIP3   OH253802   5.388   1.494   1.321
10796TIP3    H153803   5.315   1.539   1.364
10796TIP3    H253804   5.357   1.477   1.232
10797TIP3   OH253805   5.582   0.937   0.215
10797TIP3    H153806   5.541   0.982   0.142
10797TIP3    H253807   5.569   0.995   0.290
10798TIP3   OH253808   5.393   0.601   0.117
10798TIP3    H153809   5.453   0.626   0.047
10798TIP3    H253810   5.337   0.534   0.078
10799TIP3   OH253811   5.353   0.814   0.660
10799TIP3    H153812   5.342   0.727   0.621
10799TIP3    H253813   5.309   0.808   0.745
10800TIP3   OH253814   3.836   0.983   1.073
10800TIP3    H153815   3.848   0.970   0.978
10800TIP3    H253816   3.919   0.957   1.111
10801TIP3   OH253817   5.443   0.980   1.631
10801TIP3    H153818   5.498   0.903   1.614
10801TIP3    H253819   5.487   1.052   1.586
10802TIP3   OH253820   5.573   0.738   1.613
10802TIP3    H153821   5.485   0.707   1.634
10802TIP3    H253822   5.630   0.664   1.634
10803TIP3   OH253823   5.338   0.576   0.492
10803TIP3    H153824   5.359   0.483   0.493
10803TIP3    H253825   5.409   0.616   0.442
10804TIP3   OH253826   5.371   0.584   1.041
10804TIP3    H153827   5.464   0.602   1.024
10804TIP3    H253828   5.359   0.600   1.134
10805TIP3   OH253829   5.389   0.668   1.310
10805TIP3    H153830   5.310   0.700   1.353
10805TIP3    H253831   5.443   0.747   1.298
10806TIP3   OH253832   3.803   0.495   1.643
10806TIP3    H153833   3.890   0.489   1.682
10806TIP3    H253834   3.761   0.413   1.666
10807TIP3   OH253835   5.664   0.104   1.838
10807TIP3    H153836   5.644   0.012   1.826
10807TIP3    H253837   5.624   0.148   1.764
10808TIP3   OH253838   5.363   0.304   0.534
10808TIP3    H153839   5.370   0.288   0.628
10808TIP3    H253840   5.284   0.256   0.507
10809TIP3   OH253841   3.933   0.379   0.963
10809TIP3    H153842   3.971   0.292   0.965
10809TIP3    H253843   4.007   0.438   0.983
10810TIP3   OH253844   3.754   0.651   1.038
10810TIP3    H153845   3.828   0.653   0.976
10810TIP3    H253846   3.775   0.718   1.102
10811TIP3   OH253847   5.536   0.245   1.636
10811TIP3    H153848   5.463   0.305   1.648
10811TIP3    H253849   5.521   0.207   1.549
10812TIP3   OH253850   5.576   0.281   0.088
10812TIP3    H153851   5.642   0.232   0.040
10812TIP3    H253852   5.627   0.345   0.139
10813TIP3   OH253853   3.797   0.295   0.468
10813TIP3    H153854   3.702   0.288   0.462
10813TIP3    H253855   3.821   0.359   0.401
10814TIP3   OH253856   5.278   1.792   0.668
10814TIP3    H153857   5.350   1.791   0.604
10814TIP3    H253858   5.314   1.841   0.742
10815TIP3   OH253859   3.811   0.087   1.277
10815TIP3    H153860   3.736   0.078   1.337
10815TIP3    H253861   3.792   0.166   1.227
10816TIP3   OH253862   4.015   1.499   1.706
10816TIP3    H153863   3.926   1.502   1.671
10816TIP3    H253864   4.006   1.457   1.791
10817TIP3   OH253865   4.339   1.592   1.346
10817TIP3    H153866   4.306   1.679   1.321
10817TIP3    H253867   4.432   1.595   1.326
10818TIP3   OH253868   4.718   1.714   1.621
10818TIP3    H153869   4.728   1.684   1.712
10818TIP3    H253870   4.799   1.763   1.603
10819TIP3   OH253871   4.955   1.852   1.583
10819TIP3    H153872   5.021   1.798   1.540
10819TIP3    H253873   4.999   1.886   1.662
10820TIP3   OH253874   5.451   0.101   1.411
10820TIP3    H153875   5.398   0.157   1.355
10820TIP3    H253876   5.421   0.012   1.391
10821TIP3   OH253877   4.040   1.895   1.364
10821TIP3    H153878   3.958   1.929   1.327
10821TIP3    H253879   4.048   1.937   1.449
10822TIP3   OH253880   4.296   1.856   1.275
10822TIP3    H153881   4.206   1.870   1.303
10822TIP3    H253882   4.302   1.900   1.190
10823TIP3   OH253883   4.752   1.835   1.179
10823TIP3    H153884   4.700   1.871   1.107
10823TIP3    H253885   4.762   1.908   1.240
10824TIP3   OH253886   4.978   1.710   1.276
10824TIP3    H153887   4.900   1.751   1.239
10824TIP3    H253888   5.049   1.773   1.259
10825TIP3   OH253889   5.219   1.856   1.269
10825TIP3    H153890   5.242   1.948   1.253
10825TIP3    H253891   5.261   1.808   1.197
10826TIP3   OH253892   4.002   1.740   1.028
10826TIP3    H153893   3.995   1.693   1.110
10826TIP3    H253894   4.080   1.704   0.985
10827TIP3   OH253895   4.216   1.616   0.914
10827TIP3    H153896   4.203   1.524   0.937
10827TIP3    H253897   4.303   1.637   0.949
10828TIP3   OH253898   4.477   1.646   1.020
10828TIP3    H153899   4.487   1.556   0.988
10828TIP3    H253900   4.508   1.644   1.110
10829TIP3   OH253901   4.741   0.238   0.894
10829TIP3    H153902   4.680   0.171   0.926
10829TIP3    H253903   4.827   0.198   0.902
10830TIP3   OH253904   5.289   0.049   0.877
10830TIP3    H153905   5.364   0.079   0.826
10830TIP3    H253906   5.258   0.127   0.923
10831TIP3   OH253907   5.516   0.121   0.705
10831TIP3    H153908   5.565   0.057   0.756
10831TIP3    H253909   5.567   0.202   0.714
10832TIP3   OH253910   4.056   0.063   0.679
10832TIP3    H153911   3.997   0.020   0.616
10832TIP3    H253912   4.115  -0.006   0.708
10833TIP3   OH253913   3.942   0.079   0.357
10833TIP3    H153914   4.002   0.116   0.292
10833TIP3    H253915   3.888   0.153   0.384
10834TIP3   OH253916   4.542   0.046   0.664
10834TIP3    H153917   4.616   0.102   0.640
10834TIP3    H253918   4.536   0.053   0.759
10835TIP3   OH253919   5.002   0.152   0.863
10835TIP3    H153920   5.020   0.197   0.780
10835TIP3    H253921   5.017   0.060   0.844
10836TIP3   OH253922   5.189   0.107   0.469
10836TIP3    H153923   5.112   0.161   0.450
10836TIP3    H253924   5.153   0.020   0.484
10837TIP3   OH253925   3.901   1.702   0.356
10837TIP3    H153926   3.829   1.694   0.293
10837TIP3    H253927   3.933   1.791   0.343
10838TIP3   OH253928   4.117   0.195   0.185
10838TIP3    H153929   4.084   0.181   0.096
10838TIP3    H253930   4.192   0.253   0.174
10839TIP3   OH253931   4.592   0.289   0.380
10839TIP3    H153932   4.652   0.240   0.436
10839TIP3    H253933   4.612   0.381   0.397
10840TIP3   OH253934   4.805   1.879   0.215
10840TIP3    H153935   4.877   1.932   0.180
10840TIP3    H253936   4.821   1.792   0.178
10841TIP3   OH253937   5.474   1.774   0.472
10841TIP3    H153938   5.457   1.685   0.442
10841TIP3    H253939   5.463   1.828   0.393
10842TIP3   OH253940   4.025   0.191   1.599
10842TIP3    H153941   3.968   0.114   1.589
10842TIP3    H253942   4.095   0.161   1.658
10843TIP3   OH253943   4.221   0.162   1.797
10843TIP3    H153944   4.281   0.235   1.810
10843TIP3    H253945   4.274   0.084   1.814
10844TIP3   OH253946   4.120   1.763  -0.004
10844TIP3    H153947   4.070   1.829   0.043
10844TIP3    H253948   4.148   1.700   0.063
10845TIP3   OH253949   5.044   0.103   1.836
10845TIP3    H153950   4.959   0.062   1.853
10845TIP3    H253951   5.108   0.037   1.862
10846TIP3   OH253952   5.375   1.628   1.680
10846TIP3    H153953   5.315   1.623   1.606
10846TIP3    H253954   5.375   1.720   1.706
10847TIP3   OH253955   6.845   1.038   0.652
10847TIP3    H153956   6.831   1.132   0.643
10847TIP3    H253957   6.778   0.999   0.597
10848TIP3   OH253958   6.705   0.950   1.029
10848TIP3    H153959   6.728   0.910   1.113
10848TIP3    H253960   6.664   0.880   0.979
10849TIP3   OH253961   5.945   0.875   1.183
10849TIP3    H153962   5.954   0.804   1.247
10849TIP3    H253963   6.035   0.907   1.170
10850TIP3   OH253964   7.104   1.251   0.888
10850TIP3    H153965   7.058   1.182   0.935
10850TIP3    H253966   7.125   1.316   0.956
10851TIP3   OH253967   6.083   1.348   0.975
10851TIP3    H153968   6.053   1.259   0.958
10851TIP3    H253969   6.177   1.339   0.990
10852TIP3   OH253970   5.711   0.659   0.547
10852TIP3    H153971   5.695   0.748   0.580
10852TIP3    H253972   5.661   0.654   0.466
10853TIP3   OH253973   5.799   0.939   0.814
10853TIP3    H153974   5.829   0.850   0.832
10853TIP3    H253975   5.877   0.994   0.827
10854TIP3   OH253976   6.809   1.744   0.910
10854TIP3    H153977   6.840   1.671   0.855
10854TIP3    H253978   6.781   1.703   0.991
10855TIP3   OH253979   6.570   1.197   1.058
10855TIP3    H153980   6.607   1.116   1.022
10855TIP3    H253981   6.638   1.230   1.117
10856TIP3   OH253982   6.890   0.615   1.063
10856TIP3    H153983   6.898   0.523   1.087
10856TIP3    H253984   6.863   0.614   0.971
10857TIP3   OH253985   6.205   0.430   0.804
10857TIP3    H153986   6.218   0.516   0.765
10857TIP3    H253987   6.163   0.378   0.736
10858TIP3   OH253988   6.999   0.449   0.640
10858TIP3    H153989   7.042   0.398   0.710
10858TIP3    H253990   7.070   0.470   0.579
10859TIP3   OH253991   5.870   0.679   0.876
10859TIP3    H153992   5.929   0.638   0.939
10859TIP3    H253993   5.897   0.643   0.791
10860TIP3   OH253994   6.353   0.825   0.850
10860TIP3    H153995   6.438   0.789   0.875
10860TIP3    H253996   6.316   0.759   0.791
10861TIP3   OH253997   6.090   0.341   1.227
10861TIP3    H153998   6.061   0.400   1.157
10861TIP3    H253999   6.022   0.348   1.294
10862TIP3   OH254000   6.817   1.294   0.548
10862TIP3    H154001   6.805   1.290   0.453
10862TIP3    H254002   6.759   1.364   0.577
10863TIP3   OH254003   6.356   1.111   1.209
10863TIP3    H154004   6.304   1.183   1.245
10863TIP3    H254005   6.426   1.154   1.160
10864TIP3   OH254006   7.078   0.332   0.888
10864TIP3    H154007   7.013   0.341   0.958
10864TIP3    H254008   7.149   0.389   0.914
10865TIP3   OH254009   6.047   0.511   1.013
10865TIP3    H154010   6.103   0.568   1.064
10865TIP3    H254011   6.104   0.475   0.945
10866TIP3   OH254012   6.203   1.316   1.314
10866TIP3    H154013   6.211   1.411   1.303
10866TIP3    H254014   6.112   1.303   1.342
10867TIP3   OH254015   5.766   1.297   0.390
10867TIP3    H154016   5.759   1.340   0.305
10867TIP3    H254017   5.791   1.366   0.451
10868TIP3   OH254018   7.158   1.464   1.075
10868TIP3    H154019   7.064   1.456   1.095
10868TIP3    H254020   7.172   1.557   1.061
10869TIP3   OH254021   7.167   0.273   1.190
10869TIP3    H154022   7.073   0.279   1.178
10869TIP3    H254023   7.203   0.347   1.140
10870TIP3   OH254024   6.417   0.042   0.952
10870TIP3    H154025   6.453  -0.018   1.017
10870TIP3    H254026   6.345   0.086   0.996
10871TIP3   OH254027   6.927   1.580   0.719
10871TIP3    H154028   6.970   1.497   0.702
10871TIP3    H254029   6.997   1.645   0.717
10872TIP3   OH254030   7.074   1.363   0.639
10872TIP3    H154031   6.998   1.318   0.604
10872TIP3    H254032   7.096   1.315   0.719
10873TIP3   OH254033   7.231   1.254   1.489
10873TIP3    H154034   7.282   1.196   1.433
10873TIP3    H254035   7.249   1.342   1.456
10874TIP3   OH254036   6.712   0.940   0.425
10874TIP3    H154037   6.645   1.004   0.401
10874TIP3    H254038   6.780   0.950   0.360
10875TIP3   OH254039   6.717   0.793   0.110
10875TIP3    H154040   6.769   0.810   0.188
10875TIP3    H254041   6.777   0.807   0.037
10876TIP3   OH254042   7.065   0.977   0.502
10876TIP3    H154043   6.997   1.005   0.563
10876TIP3    H254044   7.117   0.914   0.551
10877TIP3   OH254045   6.999   0.800   1.402
10877TIP3    H154046   7.007   0.888   1.438
10877TIP3    H254047   6.921   0.805   1.346
10878TIP3   OH254048   6.221   1.018   0.696
10878TIP3    H154049   6.201   0.979   0.611
10878TIP3    H254050   6.275   0.953   0.740
10879TIP3   OH254051   6.365   1.369   0.959
10879TIP3    H154052   6.370   1.377   0.864
10879TIP3    H254053   6.440   1.314   0.982
10880TIP3   OH254054   6.213   0.923   1.070
10880TIP3    H154055   6.268   0.897   0.996
10880TIP3    H254056   6.265   0.987   1.118
10881TIP3   OH254057   6.895   1.455   1.142
10881TIP3    H154058   6.872   1.530   1.197
10881TIP3    H254059   6.848   1.381   1.180
10882TIP3   OH254060   6.362   1.337   1.542
10882TIP3    H154061   6.302   1.397   1.587
10882TIP3    H254062   6.316   1.312   1.462
10883TIP3   OH254063   6.946   0.899   0.270
10883TIP3    H154064   6.987   0.931   0.351
10883TIP3    H254065   6.999   0.936   0.200
10884TIP3   OH254066   6.034   0.946   1.499
10884TIP3    H154067   6.040   1.028   1.547
10884TIP3    H254068   5.943   0.941   1.472
10885TIP3   OH254069   6.681   1.528   0.613
10885TIP3    H154070   6.759   1.554   0.662
10885TIP3    H254071   6.653   1.608   0.568
10886TIP3   OH254072   6.162   1.517   1.609
10886TIP3    H154073   6.165   1.550   1.519
10886TIP3    H254074   6.069   1.512   1.629
10887TIP3   OH254075   6.136   0.932   0.433
10887TIP3    H154076   6.082   1.005   0.402
10887TIP3    H254077   6.079   0.856   0.429
10888TIP3   OH254078   5.724   1.178   1.363
10888TIP3    H154079   5.673   1.184   1.282
10888TIP3    H254080   5.737   1.084   1.376
10889TIP3   OH254081   5.699   1.463   1.042
10889TIP3    H154082   5.786   1.461   1.080
10889TIP3    H254083   5.657   1.540   1.081
10890TIP3   OH254084   6.599   1.469   1.489
10890TIP3    H154085   6.596   1.551   1.538
10890TIP3    H254086   6.516   1.425   1.510
10891TIP3   OH254087   6.683   1.808   0.484
10891TIP3    H154088   6.672   1.833   0.392
10891TIP3    H254089   6.653   1.885   0.533
10892TIP3   OH254090   6.025   1.703   0.665
10892TIP3    H154091   6.045   1.671   0.753
10892TIP3    H254092   5.970   1.635   0.626
10893TIP3   OH254093   6.982   1.750   0.131
10893TIP3    H154094   7.050   1.685   0.114
10893TIP3    H254095   6.974   1.751   0.226
10894TIP3   OH254096   6.939   1.726   0.414
10894TIP3    H154097   6.849   1.744   0.441
10894TIP3    H254098   6.972   1.664   0.480
10895TIP3   OH254099   7.172   0.728   1.661
10895TIP3    H154100   7.158   0.683   1.578
10895TIP3    H254101   7.252   0.689   1.696
10896TIP3   OH254102   5.950   1.325   1.423
10896TIP3    H154103   5.973   1.292   1.510
10896TIP3    H254104   5.870   1.277   1.400
10897TIP3   OH254105   6.185   0.129   1.077
10897TIP3    H154106   6.099   0.129   1.035
10897TIP3    H254107   6.181   0.202   1.139
10898TIP3   OH254108   6.637   0.133   1.348
10898TIP3    H154109   6.689   0.089   1.415
10898TIP3    H254110   6.550   0.141   1.387
10899TIP3   OH254111   7.033   0.529   1.494
10899TIP3    H154112   6.956   0.495   1.540
10899TIP3    H254113   7.005   0.614   1.460
10900TIP3   OH254114   7.106   1.002   0.072
10900TIP3    H154115   7.132   1.025  -0.017
10900TIP3    H254116   7.141   1.073   0.126
10901TIP3   OH254117   6.656   0.315   0.104
10901TIP3    H154118   6.587   0.308   0.170
10901TIP3    H254119   6.701   0.230   0.106
10902TIP3   OH254120   6.212   0.665   1.171
10902TIP3    H154121   6.153   0.666   1.247
10902TIP3    H254122   6.215   0.756   1.142
10903TIP3   OH254123   6.213   0.668   0.670
10903TIP3    H154124   6.118   0.657   0.663
10903TIP3    H254125   6.246   0.650   0.582
10904TIP3   OH254126   6.757   0.693   0.535
10904TIP3    H154127   6.736   0.781   0.504
10904TIP3    H254128   6.831   0.665   0.481
10905TIP3   OH254129   6.682   0.712   1.659
10905TIP3    H154130   6.634   0.638   1.695
10905TIP3    H254131   6.768   0.708   1.701
10906TIP3   OH254132   6.845   0.623   0.795
10906TIP3    H154133   6.806   0.681   0.729
10906TIP3    H254134   6.894   0.558   0.745
10907TIP3   OH254135   6.001   0.655   1.352
10907TIP3    H154136   6.039   0.687   1.434
10907TIP3    H254137   5.959   0.572   1.375
10908TIP3   OH254138   6.343   0.402   0.054
10908TIP3    H154139   6.309   0.415   0.143
10908TIP3    H254140   6.394   0.482   0.036
10909TIP3   OH254141   5.673   0.354   0.714
10909TIP3    H154142   5.715   0.353   0.800
10909TIP3    H254143   5.672   0.447   0.689
10910TIP3   OH254144   5.721   0.456   0.260
10910TIP3    H154145   5.795   0.492   0.212
10910TIP3    H254146   5.667   0.531   0.282
10911TIP3   OH254147   6.773   0.789   1.241
10911TIP3    H154148   6.816   0.731   1.179
10911TIP3    H254149   6.721   0.732   1.297
10912TIP3   OH254150   6.482   0.438   0.749
10912TIP3    H154151   6.395   0.429   0.787
10912TIP3    H254152   6.534   0.369   0.790
10913TIP3   OH254153   5.957   0.572   0.637
10913TIP3    H154154   5.877   0.594   0.589
10913TIP3    H254155   5.981   0.484   0.607
10914TIP3   OH254156   6.282   0.590   0.417
10914TIP3    H154157   6.377   0.586   0.430
10914TIP3    H254158   6.271   0.632   0.331
10915TIP3   OH254159   6.900   0.332   1.102
10915TIP3    H154160   6.861   0.348   1.188
10915TIP3    H254161   6.847   0.261   1.065
10916TIP3   OH254162   6.233   0.669   0.161
10916TIP3    H154163   6.153   0.671   0.108
10916TIP3    H254164   6.300   0.709   0.106
10917TIP3   OH254165   7.232   1.915   1.724
10917TIP3    H154166   7.222   2.005   1.692
10917TIP3    H254167   7.326   1.900   1.728
10918TIP3   OH254168   6.022   1.171   1.664
10918TIP3    H154169   6.089   1.165   1.731
10918TIP3    H254170   5.940   1.178   1.712
10919TIP3   OH254171   6.585   0.705   0.945
10919TIP3    H154172   6.644   0.647   0.896
10919TIP3    H254173   6.556   0.653   1.019
10920TIP3   OH254174   6.073   0.316   0.582
10920TIP3    H154175   6.038   0.229   0.602
10920TIP3    H254176   6.119   0.305   0.499
10921TIP3   OH254177   6.479   0.578   1.173
10921TIP3    H154178   6.393   0.621   1.182
10921TIP3    H254179   6.525   0.602   1.253
10922TIP3   OH254180   6.530   1.133   0.353
10922TIP3    H154181   6.458   1.093   0.305
10922TIP3    H254182   6.491   1.165   0.434
10923TIP3   OH254183   7.205   1.103   1.196
10923TIP3    H154184   7.263   1.073   1.126
10923TIP3    H254185   7.117   1.090   1.160
10924TIP3   OH254186   6.901   0.410   0.210
10924TIP3    H154187   6.816   0.411   0.166
10924TIP3    H254188   6.911   0.499   0.243
10925TIP3   OH254189   6.716   1.192   1.512
10925TIP3    H154190   6.707   1.146   1.595
10925TIP3    H254191   6.672   1.276   1.526
10926TIP3   OH254192   6.967   0.635   0.362
10926TIP3    H154193   7.053   0.612   0.396
10926TIP3    H254194   6.979   0.723   0.326
10927TIP3   OH254195   6.038   1.067   0.898
10927TIP3    H154196   6.098   1.064   0.823
10927TIP3    H254197   6.083   1.017   0.966
10928TIP3   OH254198   6.750   1.280   0.267
10928TIP3    H154199   6.707   1.365   0.278
10928TIP3    H254200   6.682   1.216   0.289
10929TIP3   OH254201   5.754   0.920   1.468
10929TIP3    H154202   5.751   0.886   1.558
10929TIP3    H254203   5.686   0.872   1.422
10930TIP3   OH254204   6.477   0.901   1.678
10930TIP3    H154205   6.419   0.865   1.611
10930TIP3    H254206   6.559   0.852   1.668
10931TIP3   OH254207   6.882   1.468   1.479
10931TIP3    H154208   6.788   1.466   1.462
10931TIP3    H254209   6.889   1.471   1.574
10932TIP3   OH254210   6.981   1.038   1.031
10932TIP3    H154211   6.886   1.028   1.018
10932TIP3    H254212   7.020   0.965   0.984
10933TIP3   OH254213   6.306   1.444   0.692
10933TIP3    H154214   6.332   1.528   0.655
10933TIP3    H254215   6.210   1.446   0.692
10934TIP3   OH254216   5.858   0.893   0.198
10934TIP3    H154217   5.899   0.972   0.234
10934TIP3    H254218   5.764   0.911   0.200
10935TIP3   OH254219   6.392   1.206   0.576
10935TIP3    H154220   6.377   1.293   0.613
10935TIP3    H254221   6.334   1.149   0.626
10936TIP3   OH254222   6.489   1.616   1.268
10936TIP3    H154223   6.545   1.691   1.247
10936TIP3    H254224   6.542   1.562   1.327
10937TIP3   OH254225   6.289   1.709   0.583
10937TIP3    H154226   6.196   1.720   0.603
10937TIP3    H254227   6.331   1.787   0.620
10938TIP3   OH254228   6.779   1.219   1.242
10938TIP3    H154229   6.754   1.208   1.333
10938TIP3    H254230   6.854   1.161   1.230
10939TIP3   OH254231   7.014   1.312   0.138
10939TIP3    H154232   7.069   1.268   0.202
10939TIP3    H254233   6.926   1.308   0.175
10940TIP3   OH254234   7.093   1.643   1.452
10940TIP3    H154235   7.015   1.588   1.446
10940TIP3    H254236   7.077   1.715   1.391
10941TIP3   OH254237   5.890   0.398   1.408
10941TIP3    H154238   5.796   0.414   1.399
10941TIP3    H254239   5.896   0.329   1.474
10942TIP3   OH254240   7.168   1.157   0.310
10942TIP3    H154241   7.135   1.105   0.383
10942TIP3    H254242   7.246   1.200   0.345
10943TIP3   OH254243   5.886   1.591   1.261
10943TIP3    H154244   5.912   1.512   1.308
10943TIP3    H254245   5.902   1.662   1.322
10944TIP3   OH254246   6.299   1.411   0.269
10944TIP3    H154247   6.380   1.364   0.293
10944TIP3    H254248   6.319   1.503   0.286
10945TIP3   OH254249   5.967   1.120   0.315
10945TIP3    H154250   5.894   1.165   0.359
10945TIP3    H254251   6.012   1.189   0.267
10946TIP3   OH254252   6.780   0.365   1.346
10946TIP3    H154253   6.808   0.371   1.437
10946TIP3    H254254   6.727   0.286   1.342
10947TIP3   OH254255   6.854   0.296   0.455
10947TIP3    H154256   6.874   0.333   0.369
10947TIP3    H254257   6.897   0.355   0.517
10948TIP3   OH254258   6.598   1.503   0.301
10948TIP3    H154259   6.526   1.559   0.329
10948TIP3    H254260   6.647   1.557   0.239
10949TIP3   OH254261   6.538   0.531   0.498
10949TIP3    H154262   6.615   0.587   0.506
10949TIP3    H254263   6.519   0.502   0.587
10950TIP3   OH254264   6.641   0.611   1.398
10950TIP3    H154265   6.652   0.640   1.488
10950TIP3    H254266   6.684   0.526   1.394
10951TIP3   OH254267   6.646   0.169   0.574
10951TIP3    H154268   6.646   0.204   0.663
10951TIP3    H254269   6.723   0.208   0.533
10952TIP3   OH254270   6.376   1.667   0.327
10952TIP3    H154271   6.378   1.752   0.282
10952TIP3    H254272   6.346   1.687   0.415
10953TIP3   OH254273   6.224   0.341   0.319
10953TIP3    H154274   6.222   0.430   0.355
10953TIP3    H254275   6.313   0.310   0.335
10954TIP3   OH254276   7.256   0.363   1.440
10954TIP3    H154277   7.191   0.421   1.480
10954TIP3    H254278   7.216   0.335   1.358
10955TIP3   OH254279   7.082   0.799   0.919
10955TIP3    H154280   7.006   0.743   0.933
10955TIP3    H254281   7.147   0.768   0.982
10956TIP3   OH254282   6.060   1.329   0.156
10956TIP3    H154283   6.114   1.383   0.214
10956TIP3    H254284   6.122   1.283   0.101
10957TIP3   OH254285   5.871   0.638   0.104
10957TIP3    H154286   5.881   0.726   0.141
10957TIP3    H254287   5.803   0.648   0.037
10958TIP3   OH254288   7.235   1.736   1.060
10958TIP3    H154289   7.214   1.805   0.997
10958TIP3    H254290   7.331   1.733   1.061
10959TIP3   OH254291   5.919   0.093   0.993
10959TIP3    H154292   5.963   0.024   0.943
10959TIP3    H254293   5.893   0.050   1.075
10960TIP3   OH254294   5.833   1.521   0.555
10960TIP3    H154295   5.780   1.551   0.628
10960TIP3    H254296   5.817   1.584   0.485
10961TIP3   OH254297   5.808   1.806   1.727
10961TIP3    H154298   5.873   1.788   1.796
10961TIP3    H254299   5.788   1.720   1.691
10962TIP3   OH254300   6.224   1.628   1.855
10962TIP3    H154301   6.306   1.589   1.886
10962TIP3    H254302   6.211   1.590   1.768
10963TIP3   OH254303   6.733   1.639   0.110
10963TIP3    H154304   6.703   1.599   0.029
10963TIP3    H254305   6.825   1.661   0.093
10964TIP3   OH254306   6.884   1.490   1.752
10964TIP3    H154307   6.852   1.410   1.792
10964TIP3    H254308   6.961   1.514   1.804
10965TIP3   OH254309   7.141   1.548   0.050
10965TIP3    H154310   7.101   1.467   0.083
10965TIP3    H254311   7.199   1.519  -0.020
10966TIP3   OH254312   5.774   1.165   1.791
10966TIP3    H154313   5.777   1.070   1.783
10966TIP3    H254314   5.703   1.192   1.733
10967TIP3   OH254315   6.253   1.178   0.038
10967TIP3    H154316   6.284   1.127   0.113
10967TIP3    H254317   6.261   1.118  -0.036
10968TIP3   OH254318   6.437   1.172   1.749
10968TIP3    H154319   6.420   1.216   1.666
10968TIP3    H254320   6.464   1.083   1.724
10969TIP3   OH254321   6.994   1.104   1.486
10969TIP3    H154322   7.067   1.165   1.482
10969TIP3    H254323   6.916   1.159   1.494
10970TIP3   OH254324   5.851   0.893   1.754
10970TIP3    H154325   5.940   0.875   1.725
10970TIP3    H254326   5.856   0.891   1.850
10971TIP3   OH254327   6.327   0.991   0.230
10971TIP3    H154328   6.270   0.960   0.300
10971TIP3    H254329   6.358   0.911   0.188
10972TIP3   OH254330   6.247   0.774   1.475
10972TIP3    H154331   6.182   0.843   1.485
10972TIP3    H254332   6.316   0.814   1.422
10973TIP3   OH254333   6.449   0.788   0.041
10973TIP3    H154334   6.461   0.795  -0.054
10973TIP3    H254335   6.537   0.788   0.077
10974TIP3   OH254336   6.773   1.026   1.783
10974TIP3    H154337   6.862   1.003   1.759
10974TIP3    H254338   6.746   0.958   1.845
10975TIP3   OH254339   6.303   0.529   1.579
10975TIP3    H154340   6.317   0.471   1.504
10975TIP3    H254341   6.290   0.615   1.540
10976TIP3   OH254342   6.334   0.391   1.338
10976TIP3    H154343   6.391   0.433   1.274
10976TIP3    H254344   6.250   0.383   1.294
10977TIP3   OH254345   6.454   0.891   1.345
10977TIP3    H154346   6.549   0.896   1.344
10977TIP3    H254347   6.426   0.972   1.301
10978TIP3   OH254348   6.919   0.654   1.804
10978TIP3    H154349   6.936   0.562   1.820
10978TIP3    H254350   7.002   0.689   1.771
10979TIP3   OH254351   7.035   0.960   1.714
10979TIP3    H154352   7.030   1.010   1.633
10979TIP3    H254353   7.087   0.883   1.692
10980TIP3   OH254354   6.139   0.591   1.794
10980TIP3    H154355   6.059   0.539   1.781
10980TIP3    H254356   6.191   0.575   1.716
10981TIP3   OH254357   6.377   0.137   1.436
10981TIP3    H154358   6.353   0.226   1.410
10981TIP3    H254359   6.305   0.083   1.404
10982TIP3   OH254360   6.546   0.483   1.714
10982TIP3    H154361   6.536   0.407   1.771
10982TIP3    H254362   6.458   0.497   1.677
10983TIP3   OH254363   6.804   0.421   1.615
10983TIP3    H154364   6.715   0.433   1.650
10983TIP3    H254365   6.853   0.383   1.688
10984TIP3   OH254366   6.964   0.354   1.836
10984TIP3    H154367   6.971   0.259   1.821
10984TIP3    H254368   6.938   0.361   1.928
10985TIP3   OH254369   5.921   0.417   1.780
10985TIP3    H154370   5.926   0.339   1.725
10985TIP3    H254371   5.926   0.382   1.870
10986TIP3   OH254372   6.457   0.032   1.675
10986TIP3    H154373   6.550   0.013   1.659
10986TIP3    H254374   6.425   0.066   1.591
10987TIP3   OH254375   6.501   0.248   1.846
10987TIP3    H154376   6.503   0.162   1.804
10987TIP3    H254377   6.409   0.266   1.860
10988TIP3   OH254378   6.418   1.879   0.155
10988TIP3    H154379   6.508   1.896   0.183
10988TIP3    H254380   6.415   1.907   0.064
10989TIP3   OH254381   5.781   1.360   0.093
10989TIP3    H154382   5.875   1.364   0.112
10989TIP3    H254383   5.776   1.351  -0.002
10990TIP3   OH254384   5.665   1.854   0.653
10990TIP3    H154385   5.610   1.825   0.579
10990TIP3    H254386   5.683   1.774   0.702
10991TIP3   OH254387   5.734   1.630   0.805
10991TIP3    H154388   5.697   1.555   0.852
10991TIP3    H254389   5.783   1.679   0.872
10992TIP3   OH254390   7.281   1.485   1.329
10992TIP3    H154391   7.219   1.542   1.373
10992TIP3    H254392   7.237   1.460   1.247
10993TIP3   OH254393   7.175   0.778   0.656
10993TIP3    H154394   7.160   0.683   0.655
10993TIP3    H254395   7.152   0.805   0.745
10994TIP3   OH254396   5.720   0.981   1.074
10994TIP3    H154397   5.735   0.973   0.979
10994TIP3    H254398   5.803   0.953   1.113
10995TIP3   OH254399   7.212   0.534   0.478
10995TIP3    H154400   7.267   0.508   0.551
10995TIP3    H254401   7.269   0.529   0.401
10996TIP3   OH254402   7.259   0.477   1.031
10996TIP3    H154403   7.346   0.448   1.001
10996TIP3    H254404   7.271   0.568   1.056
10997TIP3   OH254405   7.264   0.723   1.353
10997TIP3    H154406   7.170   0.743   1.358
10997TIP3    H254407   7.283   0.719   1.260
10998TIP3   OH254408   5.689   0.487   1.646
10998TIP3    H154409   5.772   0.476   1.692
10998TIP3    H254410   5.641   0.405   1.662
10999TIP3   OH254411   7.195   0.193   0.595
10999TIP3    H154412   7.175   0.130   0.664
10999TIP3    H254413   7.144   0.164   0.520
11000TIP3   OH254414   5.809   0.350   0.959
11000TIP3    H154415   5.845   0.263   0.978
11000TIP3    H254416   5.878   0.411   0.983
11001TIP3   OH254417   5.637   0.652   1.030
11001TIP3    H154418   5.711   0.661   0.970
11001TIP3    H254419   5.656   0.714   1.100
11002TIP3   OH254420   5.656   0.243   0.434
11002TIP3    H154421   5.669   0.285   0.519
11002TIP3    H254422   5.677   0.312   0.371
11003TIP3   OH254423   7.140   1.740   0.706
11003TIP3    H154424   7.217   1.688   0.730
11003TIP3    H254425   7.149   1.820   0.758
11004TIP3   OH254426   5.700   0.130   1.291
11004TIP3    H154427   5.625   0.109   1.348
11004TIP3    H254428   5.668   0.200   1.234
11005TIP3   OH254429   5.898   1.507   1.701
11005TIP3    H154430   5.807   1.504   1.672
11005TIP3    H254431   5.894   1.479   1.793
11006TIP3   OH254432   6.225   1.593   1.342
11006TIP3    H154433   6.196   1.680   1.317
11006TIP3    H254434   6.320   1.593   1.326
11007TIP3   OH254435   6.598   1.714   1.623
11007TIP3    H154436   6.610   1.682   1.712
11007TIP3    H254437   6.679   1.761   1.603
11008TIP3   OH254438   6.835   1.848   1.580
11008TIP3    H154439   6.904   1.794   1.543
11008TIP3    H254440   6.871   1.878   1.664
11009TIP3   OH254441   5.922   1.882   1.364
11009TIP3    H154442   5.843   1.920   1.327
11009TIP3    H254443   5.934   1.928   1.447
11010TIP3   OH254444   6.180   1.856   1.272
11010TIP3    H154445   6.089   1.868   1.300
11010TIP3    H254446   6.187   1.902   1.189
11011TIP3   OH254447   6.629   1.839   1.176
11011TIP3    H154448   6.576   1.879   1.106
11011TIP3    H254449   6.643   1.910   1.238
11012TIP3   OH254450   6.848   1.699   1.258
11012TIP3    H154451   6.772   1.751   1.233
11012TIP3    H254452   6.921   1.761   1.256
11013TIP3   OH254453   7.077   1.849   1.259
11013TIP3    H154454   7.092   1.943   1.248
11013TIP3    H254455   7.135   1.808   1.195
11014TIP3   OH254456   5.886   1.740   1.025
11014TIP3    H154457   5.882   1.696   1.110
11014TIP3    H254458   5.964   1.705   0.983
11015TIP3   OH254459   6.100   1.615   0.915
11015TIP3    H154460   6.087   1.523   0.938
11015TIP3    H254461   6.187   1.636   0.949
11016TIP3   OH254462   6.361   1.644   1.020
11016TIP3    H154463   6.370   1.553   0.990
11016TIP3    H254464   6.395   1.643   1.110
11017TIP3   OH254465   6.610   0.218   0.846
11017TIP3    H154466   6.557   0.157   0.898
11017TIP3    H254467   6.700   0.190   0.862
11018TIP3   OH254468   7.185   0.058   0.889
11018TIP3    H154469   7.272   0.044   0.927
11018TIP3    H254470   7.162   0.148   0.913
11019TIP3   OH254471   5.969   0.067   0.659
11019TIP3    H154472   5.898   0.092   0.718
11019TIP3    H254473   6.028   0.015   0.713
11020TIP3   OH254474   5.801   0.093   0.212
11020TIP3    H154475   5.887   0.133   0.200
11020TIP3    H254476   5.765   0.137   0.289
11021TIP3   OH254477   6.407   0.049   0.659
11021TIP3    H154478   6.490   0.088   0.631
11021TIP3    H254479   6.408   0.056   0.754
11022TIP3   OH254480   6.871   0.149   0.848
11022TIP3    H154481   6.944   0.209   0.837
11022TIP3    H254482   6.901   0.067   0.809
11023TIP3   OH254483   7.053   0.094   0.380
11023TIP3    H154484   6.969   0.140   0.384
11023TIP3    H254485   7.050   0.045   0.298
11024TIP3   OH254486   5.789   1.699   0.354
11024TIP3    H154487   5.714   1.692   0.295
11024TIP3    H254488   5.821   1.788   0.342
11025TIP3   OH254489   6.034   0.224   0.147
11025TIP3    H154490   6.052   0.267   0.063
11025TIP3    H254491   6.098   0.261   0.207
11026TIP3   OH254492   6.494   0.289   0.372
11026TIP3    H154493   6.549   0.237   0.430
11026TIP3    H254494   6.509   0.380   0.399
11027TIP3   OH254495   6.686   1.885   0.218
11027TIP3    H154496   6.758   1.941   0.187
11027TIP3    H254497   6.702   1.800   0.177
11028TIP3   OH254498   5.914   0.195   1.608
11028TIP3    H154499   5.850   0.123   1.612
11028TIP3    H254500   5.987   0.165   1.661
11029TIP3   OH254501   6.107   0.144   1.797
11029TIP3    H154502   6.170   0.214   1.814
11029TIP3    H254503   6.154   0.063   1.817
11030TIP3   OH254504   6.004   1.760  -0.010
11030TIP3    H154505   5.948   1.831   0.022
11030TIP3    H254506   6.035   1.717   0.070
11031TIP3   OH254507   7.004   0.084   1.783
11031TIP3    H154508   7.030   0.007   1.833
11031TIP3    H254509   6.931   0.053   1.728
11032TIP3   OH254510   7.266   1.634   1.674
11032TIP3    H154511   7.209   1.619   1.598
11032TIP3    H254512   7.241   1.721   1.705
11033TIP3   OH254513   1.198   2.916   0.649
11033TIP3    H154514   1.186   3.010   0.642
11033TIP3    H254515   1.124   2.878   0.602
11034TIP3   OH254516   1.079   2.829   1.044
11034TIP3    H154517   1.101   2.789   1.128
11034TIP3    H254518   1.028   2.763   0.998
11035TIP3   OH254519   0.310   2.772   1.167
11035TIP3    H154520   0.315   2.698   1.228
11035TIP3    H254521   0.382   2.829   1.193
11036TIP3   OH254522   1.461   3.139   0.874
11036TIP3    H154523   1.423   3.064   0.919
11036TIP3    H254524   1.479   3.203   0.943
11037TIP3   OH254525   0.415   3.250   1.000
11037TIP3    H154526   0.402   3.159   0.974
11037TIP3    H254527   0.501   3.251   1.042
11038TIP3   OH254528   0.153   2.636   0.524
11038TIP3    H154529   0.096   2.691   0.578
11038TIP3    H254530   0.098   2.560   0.501
11039TIP3   OH254531   0.200   2.814   0.819
11039TIP3    H154532   0.215   2.724   0.849
11039TIP3    H254533   0.124   2.807   0.761
11040TIP3   OH254534   1.188   3.624   0.906
11040TIP3    H154535   1.220   3.562   0.841
11040TIP3    H254536   1.152   3.569   0.976
11041TIP3   OH254537   0.918   3.081   1.063
11041TIP3    H154538   0.955   3.002   1.025
11041TIP3    H254539   0.987   3.114   1.121
11042TIP3   OH254540   1.805   2.229   1.156
11042TIP3    H154541   1.823   2.293   1.224
11042TIP3    H254542   1.855   2.259   1.080
11043TIP3   OH254543   1.228   2.501   1.070
11043TIP3    H154544   1.241   2.407   1.086
11043TIP3    H254545   1.216   2.508   0.975
11044TIP3   OH254546   0.576   2.296   0.804
11044TIP3    H154547   0.584   2.383   0.765
11044TIP3    H254548   0.533   2.243   0.737
11045TIP3   OH254549   1.353   2.337   0.639
11045TIP3    H154550   1.393   2.305   0.720
11045TIP3    H254551   1.425   2.378   0.591
11046TIP3   OH254552   0.223   2.549   0.904
11046TIP3    H154553   0.292   2.511   0.958
11046TIP3    H254554   0.242   2.517   0.815
11047TIP3   OH254555   0.713   2.712   0.826
11047TIP3    H154556   0.794   2.674   0.860
11047TIP3    H254557   0.673   2.641   0.775
11048TIP3   OH254558   1.847   2.393   1.377
11048TIP3    H154559   1.764   2.440   1.363
11048TIP3    H254560   1.862   2.399   1.472
11049TIP3   OH254561   0.398   2.215   1.270
11049TIP3    H154562   0.386   2.259   1.186
11049TIP3    H254563   0.333   2.254   1.328
11050TIP3   OH254564   1.168   3.172   0.548
11050TIP3    H154565   1.148   3.170   0.455
11050TIP3    H254566   1.117   3.245   0.583
11051TIP3   OH254567   0.699   2.992   1.210
11051TIP3    H154568   0.643   3.062   1.244
11051TIP3    H254569   0.766   3.037   1.160
11052TIP3   OH254570   1.455   2.286   0.887
11052TIP3    H154571   1.388   2.260   0.951
11052TIP3    H254572   1.513   2.344   0.936
11053TIP3   OH254573   0.416   2.368   1.022
11053TIP3    H154574   0.468   2.426   1.076
11053TIP3    H254575   0.473   2.347   0.948
11054TIP3   OH254576   0.547   3.202   1.312
11054TIP3    H154577   0.557   3.297   1.306
11054TIP3    H254578   0.457   3.189   1.340
11055TIP3   OH254579   0.115   3.159   0.389
11055TIP3    H154580   0.112   3.185   0.297
11055TIP3    H254581   0.145   3.237   0.436
11056TIP3   OH254582   1.495   3.346   1.069
11056TIP3    H154583   1.401   3.345   1.087
11056TIP3    H254584   1.514   3.437   1.049
11057TIP3   OH254585   1.548   2.142   1.232
11057TIP3    H154586   1.484   2.192   1.182
11057TIP3    H254587   1.633   2.167   1.195
11058TIP3   OH254588   0.792   1.916   0.921
11058TIP3    H154589   0.787   1.823   0.944
11058TIP3    H254590   0.724   1.957   0.974
11059TIP3   OH254591   1.310   3.496   0.686
11059TIP3    H154592   1.352   3.411   0.672
11059TIP3    H254593   1.383   3.558   0.688
11060TIP3   OH254594   1.424   3.254   0.625
11060TIP3    H154595   1.343   3.211   0.596
11060TIP3    H254596   1.448   3.208   0.706
11061TIP3   OH254597   1.606   3.132   1.430
11061TIP3    H154598   1.591   3.071   1.358
11061TIP3    H254599   1.619   3.217   1.387
11062TIP3   OH254600   1.050   2.822   0.426
11062TIP3    H154601   0.984   2.887   0.404
11062TIP3    H254602   1.120   2.837   0.363
11063TIP3   OH254603   1.047   2.673   0.118
11063TIP3    H154604   1.098   2.696   0.195
11063TIP3    H254605   1.109   2.680   0.045
11064TIP3   OH254606   1.773   2.787   1.268
11064TIP3    H154607   1.699   2.846   1.259
11064TIP3    H254608   1.831   2.810   1.195
11065TIP3   OH254609   1.418   2.859   0.498
11065TIP3    H154610   1.349   2.882   0.560
11065TIP3    H254611   1.482   2.810   0.549
11066TIP3   OH254612   1.377   2.652   1.451
11066TIP3    H154613   1.377   2.721   1.517
11066TIP3    H254614   1.312   2.680   1.387
11067TIP3   OH254615   0.568   2.909   0.694
11067TIP3    H154616   0.534   2.865   0.616
11067TIP3    H254617   0.620   2.842   0.738
11068TIP3   OH254618   0.717   3.272   0.966
11068TIP3    H154619   0.708   3.265   0.871
11068TIP3    H254620   0.785   3.208   0.989
11069TIP3   OH254621   0.618   2.757   1.086
11069TIP3    H154622   0.645   2.762   0.995
11069TIP3    H254623   0.639   2.843   1.122
11070TIP3   OH254624   1.235   3.355   1.142
11070TIP3    H154625   1.218   3.423   1.207
11070TIP3    H254626   1.194   3.276   1.178
11071TIP3   OH254627   0.702   3.226   1.544
11071TIP3    H154628   0.638   3.274   1.598
11071TIP3    H254629   0.653   3.199   1.467
11072TIP3   OH254630   1.284   2.791   0.270
11072TIP3    H154631   1.331   2.818   0.349
11072TIP3    H254632   1.332   2.832   0.198
11073TIP3   OH254633   0.395   2.823   1.490
11073TIP3    H154634   0.408   2.905   1.536
11073TIP3    H254635   0.301   2.818   1.475
11074TIP3   OH254636   1.056   3.414   0.619
11074TIP3    H154637   1.137   3.453   0.650
11074TIP3    H254638   1.013   3.483   0.568
11075TIP3   OH254639   0.497   3.412   1.610
11075TIP3    H154640   0.504   3.433   1.517
11075TIP3    H254641   0.403   3.405   1.626
11076TIP3   OH254642   1.640   1.945   0.235
11076TIP3    H154643   1.561   1.972   0.282
11076TIP3    H254644   1.686   2.027   0.217
11077TIP3   OH254645   0.465   2.806   0.438
11077TIP3    H154646   0.419   2.879   0.397
11077TIP3    H254647   0.396   2.743   0.459
11078TIP3   OH254648   1.764   3.381   0.120
11078TIP3    H154649   1.789   3.473   0.119
11078TIP3    H254650   1.846   3.333   0.110
11079TIP3   OH254651   0.169   3.006   1.327
11079TIP3    H154652   0.095   3.012   1.266
11079TIP3    H254653   0.150   2.929   1.380
11080TIP3   OH254654   0.126   3.348   0.958
11080TIP3    H154655   0.206   3.309   0.992
11080TIP3    H254656   0.056   3.311   1.012
11081TIP3   OH254657   1.864   3.417   1.632
11081TIP3    H154658   1.853   3.323   1.623
11081TIP3    H254659   1.779   3.448   1.664
11082TIP3   OH254660   0.934   3.362   1.483
11082TIP3    H154661   0.934   3.442   1.535
11082TIP3    H254662   0.853   3.317   1.509
11083TIP3   OH254663   1.033   3.705   0.478
11083TIP3    H154664   1.016   3.724   0.386
11083TIP3    H254665   0.997   3.781   0.525
11084TIP3   OH254666   0.376   3.581   0.652
11084TIP3    H154667   0.388   3.549   0.742
11084TIP3    H254668   0.315   3.518   0.613
11085TIP3   OH254669   1.347   3.664   0.142
11085TIP3    H154670   1.406   3.591   0.125
11085TIP3    H254671   1.330   3.659   0.236
11086TIP3   OH254672   1.295   3.648   0.423
11086TIP3    H154673   1.202   3.659   0.443
11086TIP3    H254674   1.328   3.588   0.490
11087TIP3   OH254675   1.567   2.526   1.647
11087TIP3    H154676   1.497   2.563   1.593
11087TIP3    H254677   1.570   2.433   1.622
11088TIP3   OH254678   0.298   3.224   1.427
11088TIP3    H154679   0.321   3.187   1.512
11088TIP3    H254680   0.243   3.157   1.386
11089TIP3   OH254681   0.568   2.039   1.037
11089TIP3    H154682   0.477   2.035   1.008
11089TIP3    H254683   0.590   2.132   1.036
11090TIP3   OH254684   1.031   2.004   1.437
11090TIP3    H154685   1.102   1.942   1.456
11090TIP3    H254686   0.983   2.010   1.520
11091TIP3   OH254687   1.310   2.383   1.464
11091TIP3    H154688   1.252   2.367   1.538
11091TIP3    H254689   1.320   2.478   1.461
11092TIP3   OH254690   1.429   2.885   0.056
11092TIP3    H154691   1.434   2.895  -0.039
11092TIP3    H254692   1.507   2.930   0.088
11093TIP3   OH254693   0.986   2.196   0.102
11093TIP3    H154694   0.932   2.210   0.180
11093TIP3    H254695   1.034   2.115   0.120
11094TIP3   OH254696   0.559   2.519   1.197
11094TIP3    H154697   0.492   2.537   1.264
11094TIP3    H254698   0.579   2.605   1.160
11095TIP3   OH254699   0.573   2.532   0.669
11095TIP3    H154700   0.477   2.522   0.667
11095TIP3    H254701   0.599   2.526   0.578
11096TIP3   OH254702   1.113   2.581   0.540
11096TIP3    H154703   1.086   2.667   0.507
11096TIP3    H254704   1.185   2.555   0.483
11097TIP3   OH254705   1.029   2.591   1.661
11097TIP3    H154706   0.979   2.519   1.700
11097TIP3    H254707   1.112   2.590   1.708
11098TIP3   OH254708   1.201   2.516   0.798
11098TIP3    H154709   1.159   2.565   0.727
11098TIP3    H254710   1.246   2.444   0.754
11099TIP3   OH254711   0.338   2.561   1.357
11099TIP3    H154712   0.349   2.624   1.428
11099TIP3    H254713   0.287   2.490   1.395
11100TIP3   OH254714   0.645   2.318   0.042
11100TIP3    H154715   0.649   2.284   0.131
11100TIP3    H254716   0.621   2.410   0.051
11101TIP3   OH254717   0.152   2.246   0.712
11101TIP3    H154718   0.130   2.245   0.805
11101TIP3    H254719   0.067   2.242   0.667
11102TIP3   OH254720   0.075   2.389   0.210
11102TIP3    H154721   0.152   2.437   0.178
11102TIP3    H254722   0.002   2.449   0.196
11103TIP3   OH254723   1.155   2.674   1.267
11103TIP3    H154724   1.189   2.615   1.199
11103TIP3    H254725   1.093   2.620   1.316
11104TIP3   OH254726   0.863   2.268   0.746
11104TIP3    H154727   0.776   2.275   0.785
11104TIP3    H254728   0.918   2.231   0.815
11105TIP3   OH254729   0.312   2.457   0.653
11105TIP3    H154730   0.260   2.517   0.599
11105TIP3    H254731   0.258   2.378   0.660
11106TIP3   OH254732   0.641   2.486   0.408
11106TIP3    H154733   0.736   2.492   0.420
11106TIP3    H254734   0.624   2.531   0.326
11107TIP3   OH254735   1.251   2.221   1.064
11107TIP3    H154736   1.215   2.217   1.153
11107TIP3    H254737   1.185   2.178   1.009
11108TIP3   OH254738   0.552   2.558   0.154
11108TIP3    H154739   0.458   2.557   0.135
11108TIP3    H254740   0.590   2.613   0.086
11109TIP3   OH254741   1.607   3.788   1.739
11109TIP3    H154742   1.635   3.816   1.652
11109TIP3    H254743   1.681   3.808   1.796
11110TIP3   OH254744   0.367   3.059   1.648
11110TIP3    H154745   0.430   3.058   1.720
11110TIP3    H254746   0.282   3.065   1.692
11111TIP3   OH254747   0.937   2.590   0.947
11111TIP3    H154748   1.012   2.541   0.914
11111TIP3    H254749   0.907   2.540   1.023
11112TIP3   OH254750   0.486   2.112   0.577
11112TIP3    H154751   0.423   2.063   0.630
11112TIP3    H254752   0.571   2.072   0.598
11113TIP3   OH254753   0.836   2.458   1.178
11113TIP3    H154754   0.754   2.505   1.193
11113TIP3    H254755   0.890   2.480   1.253
11114TIP3   OH254756   0.871   3.019   0.353
11114TIP3    H154757   0.797   2.978   0.307
11114TIP3    H254758   0.833   3.051   0.435
11115TIP3   OH254759   1.576   2.972   1.204
11115TIP3    H154760   1.637   3.027   1.153
11115TIP3    H254761   1.504   2.955   1.144
11116TIP3   OH254762   1.231   2.301   0.219
11116TIP3    H154763   1.150   2.316   0.170
11116TIP3    H254764   1.255   2.388   0.252
11117TIP3   OH254765   1.043   3.105   1.490
11117TIP3    H154766   1.003   3.059   1.564
11117TIP3    H254767   1.001   3.191   1.490
11118TIP3   OH254768   1.318   2.525   0.357
11118TIP3    H154769   1.405   2.505   0.391
11118TIP3    H254770   1.326   2.612   0.319
11119TIP3   OH254771   0.423   2.985   0.925
11119TIP3    H154772   0.471   2.970   0.843
11119TIP3    H254773   0.359   2.914   0.929
11120TIP3   OH254774   1.090   3.168   0.270
11120TIP3    H154775   1.051   3.254   0.285
11120TIP3    H254776   1.020   3.106   0.291
11121TIP3   OH254777   0.123   2.779   1.481
11121TIP3    H154778   0.123   2.773   1.576
11121TIP3    H254779   0.062   2.711   1.452
11122TIP3   OH254780   0.801   2.755   1.680
11122TIP3    H154781   0.736   2.716   1.620
11122TIP3    H254782   0.882   2.709   1.660
11123TIP3   OH254783   1.224   3.355   1.480
11123TIP3    H154784   1.131   3.351   1.461
11123TIP3    H254785   1.229   3.356   1.576
11124TIP3   OH254786   1.779   2.565   0.322
11124TIP3    H154787   1.718   2.532   0.255
11124TIP3    H254788   1.795   2.656   0.296
11125TIP3   OH254789   1.829   3.141   1.591
11125TIP3    H154790   1.737   3.145   1.564
11125TIP3    H254791   1.877   3.120   1.510
11126TIP3   OH254792   1.648   3.412   0.380
11126TIP3    H154793   1.594   3.342   0.416
11126TIP3    H254794   1.673   3.380   0.293
11127TIP3   OH254795   1.367   2.909   1.017
11127TIP3    H154796   1.272   2.899   1.016
11127TIP3    H254797   1.399   2.830   0.972
11128TIP3   OH254798   0.643   3.330   0.691
11128TIP3    H154799   0.664   3.415   0.653
11128TIP3    H254800   0.548   3.327   0.693
11129TIP3   OH254801   0.185   2.789   0.168
11129TIP3    H154802   0.243   2.855   0.206
11129TIP3    H254803   0.098   2.828   0.172
11130TIP3   OH254804   0.736   3.096   0.576
11130TIP3    H154805   0.718   3.181   0.616
11130TIP3    H254806   0.680   3.034   0.622
11131TIP3   OH254807   0.833   3.510   1.266
11131TIP3    H154808   0.897   3.579   1.245
11131TIP3    H254809   0.879   3.453   1.327
11132TIP3   OH254810   0.640   3.595   0.575
11132TIP3    H154811   0.546   3.601   0.596
11132TIP3    H254812   0.678   3.672   0.617
11133TIP3   OH254813   1.138   3.110   1.237
11133TIP3    H154814   1.104   3.103   1.326
11133TIP3    H254815   1.206   3.043   1.231
11134TIP3   OH254816   1.361   3.205   0.137
11134TIP3    H154817   1.417   3.153   0.195
11134TIP3    H254818   1.273   3.196   0.174
11135TIP3   OH254819   1.434   3.530   1.461
11135TIP3    H154820   1.357   3.474   1.456
11135TIP3    H254821   1.417   3.600   1.398
11136TIP3   OH254822   1.835   3.650   0.163
11136TIP3    H154823   1.897   3.722   0.158
11136TIP3    H254824   1.751   3.691   0.182
11137TIP3   OH254825   0.223   2.308   1.465
11137TIP3    H154826   0.166   2.354   1.527
11137TIP3    H254827   0.236   2.222   1.504
11138TIP3   OH254828   1.521   3.050   0.314
11138TIP3    H154829   1.473   3.000   0.379
11138TIP3    H254830   1.612   3.047   0.345
11139TIP3   OH254831   0.239   3.494   1.262
11139TIP3    H154832   0.241   3.408   1.305
11139TIP3    H254833   0.247   3.556   1.334
11140TIP3   OH254834   0.649   3.302   0.273
11140TIP3    H154835   0.720   3.250   0.312
11140TIP3    H254836   0.676   3.393   0.287
11141TIP3   OH254837   0.321   2.997   0.301
11141TIP3    H154838   0.248   3.036   0.350
11141TIP3    H254839   0.358   3.070   0.252
11142TIP3   OH254840   1.140   2.226   1.312
11142TIP3    H154841   1.205   2.262   1.373
11142TIP3    H254842   1.104   2.150   1.358
11143TIP3   OH254843   1.211   2.175   0.463
11143TIP3    H154844   1.219   2.219   0.378
11143TIP3    H254845   1.253   2.235   0.525
11144TIP3   OH254846   0.957   3.402   0.312
11144TIP3    H154847   0.881   3.457   0.328
11144TIP3    H254848   1.008   3.449   0.246
11145TIP3   OH254849   0.894   2.419   0.512
11145TIP3    H154850   0.969   2.477   0.524
11145TIP3    H254851   0.881   2.379   0.598
11146TIP3   OH254852   0.998   2.490   1.401
11146TIP3    H154853   1.003   2.524   1.491
11146TIP3    H254854   1.035   2.402   1.407
11147TIP3   OH254855   0.974   2.077   0.568
11147TIP3    H154856   0.951   2.142   0.634
11147TIP3    H254857   1.062   2.101   0.540
11148TIP3   OH254858   0.730   3.561   0.319
11148TIP3    H154859   0.730   3.648   0.279
11148TIP3    H254860   0.697   3.576   0.408
11149TIP3   OH254861   0.598   2.237   0.311
11149TIP3    H154862   0.604   2.325   0.350
11149TIP3    H254863   0.686   2.200   0.322
11150TIP3   OH254864   1.561   2.281   1.487
11150TIP3    H154865   1.469   2.309   1.481
11150TIP3    H254866   1.575   2.227   1.410
11151TIP3   OH254867   1.443   2.659   0.895
11151TIP3    H154868   1.358   2.618   0.878
11151TIP3    H254869   1.488   2.598   0.952
11152TIP3   OH254870   0.410   3.231   0.160
11152TIP3    H154871   0.477   3.271   0.215
11152TIP3    H254872   0.459   3.175   0.100
11153TIP3   OH254873   0.275   2.547   0.082
11153TIP3    H154874   0.246   2.633   0.114
11153TIP3    H254875   0.268   2.554  -0.014
11154TIP3   OH254876   1.574   3.616   1.065
11154TIP3    H154877   1.561   3.685   1.000
11154TIP3    H254878   1.668   3.611   1.077
11155TIP3   OH254879   0.306   1.999   0.964
11155TIP3    H154880   0.307   1.986   0.869
11155TIP3    H254881   0.268   1.917   0.999
11156TIP3   OH254882   0.184   3.409   0.525
11156TIP3    H154883   0.110   3.407   0.586
11156TIP3    H254884   0.156   3.470   0.457
11157TIP3   OH254885   0.190   3.693   1.723
11157TIP3    H154886   0.244   3.691   1.802
11157TIP3    H254887   0.189   3.602   1.693
11158TIP3   OH254888   0.584   3.532   1.842
11158TIP3    H154889   0.657   3.478   1.872
11158TIP3    H254890   0.555   3.492   1.761
11159TIP3   OH254891   1.096   3.513   0.107
11159TIP3    H154892   1.050   3.475   0.032
11159TIP3    H254893   1.188   3.516   0.080
11160TIP3   OH254894   1.234   3.376   1.752
11160TIP3    H154895   1.211   3.296   1.798
11160TIP3    H254896   1.307   3.413   1.802
11161TIP3   OH254897   1.486   3.444   0.063
11161TIP3    H154898   1.443   3.362   0.086
11161TIP3    H254899   1.580   3.423   0.063
11162TIP3   OH254900   0.097   3.068   1.736
11162TIP3    H154901   0.103   2.973   1.745
11162TIP3    H254902   0.040   3.081   1.661
11163TIP3   OH254903   0.595   3.070   0.041
11163TIP3    H154904   0.619   3.018   0.118
11163TIP3    H254905   0.604   3.009  -0.032
11164TIP3   OH254906   0.861   3.024   1.675
11164TIP3    H154907   0.787   3.076   1.642
11164TIP3    H254908   0.829   2.934   1.675
11165TIP3   OH254909   1.341   3.054   1.494
11165TIP3    H154910   1.420   3.106   1.482
11165TIP3    H254911   1.270   3.119   1.495
11166TIP3   OH254912   0.180   2.793   1.752
11166TIP3    H154913   0.273   2.809   1.761
11166TIP3    H254914   0.148   2.785   1.842
11167TIP3   OH254915   0.662   2.878   0.236
11167TIP3    H154916   0.602   2.845   0.303
11167TIP3    H254917   0.693   2.800   0.191
11168TIP3   OH254918   0.620   2.659   1.485
11168TIP3    H154919   0.546   2.720   1.487
11168TIP3    H254920   0.683   2.700   1.425
11169TIP3   OH254921   0.780   2.696   0.043
11169TIP3    H154922   0.790   2.650  -0.040
11169TIP3    H254923   0.867   2.694   0.082
11170TIP3   OH254924   1.145   2.913   1.822
11170TIP3    H154925   1.197   2.867   1.757
11170TIP3    H254926   1.100   2.843   1.870
11171TIP3   OH254927   1.705   2.992  16.007
11171TIP3    H154928   1.684   3.004  15.914
11171TIP3    H254929   1.710   3.082  16.041
11172TIP3   OH254930   0.662   2.402   1.566
11172TIP3    H154931   0.676   2.347   1.489
11172TIP3    H254932   0.651   2.491   1.530
11173TIP3   OH254933   0.685   2.258   1.318
11173TIP3    H154934   0.749   2.306   1.266
11173TIP3    H254935   0.600   2.292   1.288
11174TIP3   OH254936   0.817   2.780   1.342
11174TIP3    H154937   0.908   2.805   1.352
11174TIP3    H254938   0.776   2.853   1.296
11175TIP3   OH254939   1.258   2.555   1.831
11175TIP3    H154940   1.288   2.464   1.840
11175TIP3    H254941   1.334   2.608   1.855
11176TIP3   OH254942   1.402   2.844   1.652
11176TIP3    H154943   1.370   2.920   1.603
11176TIP3    H254944   1.497   2.852   1.648
11177TIP3   OH254945   0.495   2.480   1.780
11177TIP3    H154946   0.416   2.426   1.773
11177TIP3    H254947   0.541   2.465   1.697
11178TIP3   OH254948   0.714   1.979   1.378
11178TIP3    H154949   0.750   2.066   1.361
11178TIP3    H254950   0.768   1.920   1.325
11179TIP3   OH254951   0.882   2.376   1.742
11179TIP3    H154952   0.854   2.352   1.831
11179TIP3    H254953   0.801   2.377   1.691
11180TIP3   OH254954   1.135   2.301   1.651
11180TIP3    H154955   1.049   2.312   1.692
11180TIP3    H254956   1.188   2.258   1.718
11181TIP3   OH254957   1.317   2.202   1.841
11181TIP3    H154958   1.317   2.106   1.833
11181TIP3    H254959   1.291   2.218   1.932
11182TIP3   OH254960   0.306   2.278   1.770
11182TIP3    H154961   0.319   2.202   1.713
11182TIP3    H254962   0.314   2.243   1.859
11183TIP3   OH254963   0.748   1.913   1.648
11183TIP3    H154964   0.806   1.837   1.651
11183TIP3    H254965   0.734   1.930   1.555
11184TIP3   OH254966   0.809   2.069   1.872
11184TIP3    H154967   0.792   2.019   1.792
11184TIP3    H254968   0.745   2.140   1.870
11185TIP3   OH254969   0.769   3.780   0.156
11185TIP3    H154970   0.862   3.786   0.178
11185TIP3    H254971   0.766   3.799   0.062
11186TIP3   OH254972   0.136   3.203   0.113
11186TIP3    H154973   0.223   3.242   0.117
11186TIP3    H254974   0.079   3.275   0.085
11187TIP3   OH254975   0.050   3.775   0.606
11187TIP3    H154976  -0.001   3.739   0.533
11187TIP3    H254977   0.059   3.703   0.667
11188TIP3   OH254978   0.088   3.563   0.793
11188TIP3    H154979   0.089   3.474   0.828
11188TIP3    H254980   0.135   3.615   0.858
11189TIP3   OH254981   1.842   3.613   1.132
11189TIP3    H154982   1.838   3.614   1.228
11189TIP3    H254983   1.923   3.659   1.111
11190TIP3   OH254984   1.794   3.577   1.407
11190TIP3    H154985   1.735   3.512   1.370
11190TIP3    H254986   1.834   3.534   1.482
11191TIP3   OH254987   1.633   3.179   1.878
11191TIP3    H154988   1.549   3.185   1.925
11191TIP3    H254989   1.687   3.247   1.918
11192TIP3   OH254990   1.780   3.004   0.414
11192TIP3    H154991   1.851   3.068   0.421
11192TIP3    H254992   1.791   2.947   0.489
11193TIP3   OH254993   1.827   2.812   0.609
11193TIP3    H154994   1.744   2.776   0.638
11193TIP3    H254995   1.878   2.824   0.690
11194TIP3   OH254996   1.807   3.102   1.118
11194TIP3    H154997   1.859   3.032   1.079
11194TIP3    H254998   1.836   3.181   1.071
11195TIP3   OH254999   1.620   3.384   1.315
11195TIP3    H155000   1.547   3.425   1.362
11195TIP3    H255001   1.585   3.365   1.228
11196TIP3   OH255002   1.816   2.824   0.212
11196TIP3    H155003   1.764   2.863   0.142
11196TIP3    H255004   1.803   2.882   0.287
11197TIP3   OH255005   1.625   2.481   0.118
11197TIP3    H155006   1.684   2.500   0.046
11197TIP3    H255007   1.574   2.406   0.089
11198TIP3   OH255008   1.578   2.689   0.654
11198TIP3    H155009   1.572   2.599   0.623
11198TIP3    H255010   1.536   2.687   0.740
11199TIP3   OH255011   0.091   2.891   1.059
11199TIP3    H155012   0.117   2.897   0.967
11199TIP3    H255013   0.171   2.865   1.105
11200TIP3   OH255014   1.678   2.868   1.633
11200TIP3    H155015   1.735   2.792   1.619
11200TIP3    H255016   1.722   2.939   1.587
11201TIP3   OH255017   1.817   2.632   1.616
11201TIP3    H155018   1.729   2.595   1.630
11201TIP3    H255019   1.876   2.560   1.638
11202TIP3   OH255020   1.569   2.444   0.486
11202TIP3    H155021   1.594   2.352   0.487
11202TIP3    H255022   1.642   2.488   0.442
11203TIP3   OH255023   1.593   2.472   1.044
11203TIP3    H155024   1.686   2.482   1.023
11203TIP3    H255025   1.587   2.491   1.137
11204TIP3   OH255026   1.620   2.558   1.309
11204TIP3    H155027   1.542   2.587   1.356
11204TIP3    H255028   1.674   2.637   1.302
11205TIP3   OH255029   0.085   2.415   1.688
11205TIP3    H155030   0.168   2.384   1.723
11205TIP3    H255031   0.019   2.356   1.723
11206TIP3   OH255032   1.857   1.987   1.833
11206TIP3    H155033   1.919   1.919   1.806
11206TIP3    H255034   1.858   2.051   1.761
11207TIP3   OH255035   1.630   2.172   0.493
11207TIP3    H155036   1.651   2.135   0.578
11207TIP3    H255037   1.562   2.115   0.458
11208TIP3   OH255038   0.173   2.238   0.994
11208TIP3    H155039   0.208   2.149   0.996
11208TIP3    H255040   0.251   2.295   1.001
11209TIP3   OH255041   0.022   2.621   1.086
11209TIP3    H155042   0.091   2.595   1.024
11209TIP3    H255043   0.026   2.716   1.089
11210TIP3   OH255044   1.788   2.170   1.641
11210TIP3    H155045   1.713   2.206   1.688
11210TIP3    H255046   1.749   2.123   1.567
11211TIP3   OH255047   1.786   2.161   0.139
11211TIP3    H155048   1.804   2.164   0.045
11211TIP3    H255049   1.847   2.224   0.178
11212TIP3   OH255050   0.155   2.160   0.368
11212TIP3    H155051   0.091   2.158   0.440
11212TIP3    H255052   0.123   2.229   0.310
11213TIP3   OH255053   1.506   3.680   0.662
11213TIP3    H155054   1.581   3.677   0.603
11213TIP3    H255055   1.539   3.723   0.741
11214TIP3   OH255056   0.044   2.041   1.318
11214TIP3    H155057   0.009   2.097   1.387
11214TIP3    H255058  -0.019   2.050   1.246
11215TIP3   OH255059   0.230   3.411   1.711
11215TIP3    H155060   0.140   3.385   1.695
11215TIP3    H255061   0.253   3.369   1.794
11216TIP3   OH255062   0.572   3.475   1.342
11216TIP3    H155063   0.537   3.560   1.315
11216TIP3    H255064   0.666   3.481   1.325
11217TIP3   OH255065   0.949   3.600   1.624
11217TIP3    H155066   0.959   3.566   1.713
11217TIP3    H255067   1.030   3.648   1.607
11218TIP3   OH255068   1.186   3.736   1.583
11218TIP3    H155069   1.246   3.670   1.548
11218TIP3    H255070   1.229   3.768   1.662
11219TIP3   OH255071   1.692   1.943   1.467
11219TIP3    H155072   1.609   1.941   1.419
11219TIP3    H255073   1.728   1.855   1.455
11220TIP3   OH255074   0.280   3.775   1.369
11220TIP3    H155075   0.197   3.813   1.339
11220TIP3    H255076   0.297   3.818   1.453
11221TIP3   OH255077   0.533   3.741   1.270
11221TIP3    H155078   0.443   3.750   1.299
11221TIP3    H255079   0.536   3.787   1.186
11222TIP3   OH255080   0.987   3.726   1.175
11222TIP3    H155081   0.928   3.761   1.108
11222TIP3    H255082   0.993   3.796   1.240
11223TIP3   OH255083   1.216   3.604   1.270
11223TIP3    H155084   1.136   3.643   1.234
11223TIP3    H255085   1.282   3.672   1.259
11224TIP3   OH255086   1.459   3.751   1.277
11224TIP3    H155087   1.476   3.842   1.254
11224TIP3    H255088   1.496   3.700   1.205
11225TIP3   OH255089   0.231   3.637   1.028
11225TIP3    H155090   0.226   3.596   1.114
11225TIP3    H255091   0.303   3.592   0.984
11226TIP3   OH255092   0.442   3.507   0.910
11226TIP3    H155093   0.426   3.418   0.939
11226TIP3    H255094   0.529   3.529   0.945
11227TIP3   OH255095   0.704   3.542   1.020
11227TIP3    H155096   0.715   3.452   0.989
11227TIP3    H255097   0.734   3.540   1.111
11228TIP3   OH255098   1.025   2.097   0.895
11228TIP3    H155099   0.960   2.028   0.911
11228TIP3    H255100   1.101   2.050   0.859
11229TIP3   OH255101   1.536   1.947   0.900
11229TIP3    H155102   1.599   2.002   0.853
11229TIP3    H255103   1.456   1.998   0.900
11230TIP3   OH255104   1.718   2.055   0.726
11230TIP3    H155105   1.781   1.987   0.705
11230TIP3    H255106   1.771   2.133   0.742
11231TIP3   OH255107   0.311   1.941   0.695
11231TIP3    H155108   0.224   1.944   0.657
11231TIP3    H255109   0.341   1.852   0.680
11232TIP3   OH255110   0.180   1.913   0.222
11232TIP3    H155111   0.168   1.957   0.138
11232TIP3    H255112   0.161   1.980   0.287
11233TIP3   OH255113   0.721   1.977   0.659
11233TIP3    H155114   0.804   2.006   0.621
11233TIP3    H255115   0.742   1.958   0.750
11234TIP3   OH255116   1.247   1.954   0.810
11234TIP3    H155117   1.305   1.925   0.740
11234TIP3    H255118   1.227   1.874   0.859
11235TIP3   OH255119   1.425   2.004   0.404
11235TIP3    H155120   1.349   2.059   0.422
11235TIP3    H255121   1.395   1.915   0.424
11236TIP3   OH255122   0.094   3.583   0.331
11236TIP3    H155123   0.027   3.557   0.268
11236TIP3    H255124   0.130   3.665   0.296
11237TIP3   OH255125   0.364   2.145   0.138
11237TIP3    H155126   0.291   2.116   0.083
11237TIP3    H255127   0.432   2.171   0.075
11238TIP3   OH255128   0.865   2.204   0.347
11238TIP3    H155129   0.900   2.138   0.407
11238TIP3    H255130   0.878   2.287   0.393
11239TIP3   OH255131   1.041   3.761   0.206
11239TIP3    H155132   1.116   3.813   0.177
11239TIP3    H255133   1.057   3.674   0.169
11240TIP3   OH255134   1.708   3.662   0.470
11240TIP3    H155135   1.690   3.572   0.443
11240TIP3    H255136   1.685   3.715   0.393
11241TIP3   OH255137   0.340   2.052   1.606
11241TIP3    H155138   0.272   1.985   1.614
11241TIP3    H255139   0.406   2.028   1.671
11242TIP3   OH255140   0.511   1.957   1.794
11242TIP3    H155141   0.596   1.928   1.761
11242TIP3    H255142   0.473   1.880   1.835
11243TIP3   OH255143   0.360   3.678   0.047
11243TIP3    H155144   0.294   3.709   0.109
11243TIP3    H255145   0.382   3.590   0.077
11244TIP3   OH255146   1.341   1.926   1.813
11244TIP3    H155147   1.327   1.876   1.894
11244TIP3    H255148   1.434   1.913   1.793
11245TIP3   OH255149   1.612   3.516   1.678
11245TIP3    H155150   1.548   3.508   1.608
11245TIP3    H255151   1.601   3.605   1.712
11246TIP3   OH255152   3.080   2.913   0.652
11246TIP3    H155153   3.068   3.008   0.644
11246TIP3    H255154   3.011   2.876   0.598
11247TIP3   OH255155   2.960   2.830   1.050
11247TIP3    H155156   2.985   2.789   1.132
11247TIP3    H255157   2.912   2.762   1.003
11248TIP3   OH255158   2.170   2.765   1.187
11248TIP3    H155159   2.176   2.688   1.244
11248TIP3    H255160   2.255   2.809   1.197
11249TIP3   OH255161   3.344   3.137   0.878
11249TIP3    H155162   3.307   3.061   0.923
11249TIP3    H255163   3.363   3.200   0.948
11250TIP3   OH255164   2.315   3.236   0.975
11250TIP3    H155165   2.282   3.148   0.959
11250TIP3    H255166   2.407   3.224   0.996
11251TIP3   OH255167   1.974   2.586   0.520
11251TIP3    H155168   1.941   2.666   0.560
11251TIP3    H255169   1.906   2.560   0.458
11252TIP3   OH255170   2.026   2.819   0.812
11252TIP3    H155171   2.054   2.729   0.831
11252TIP3    H255172   2.105   2.872   0.826
11253TIP3   OH255173   3.073   3.622   0.908
11253TIP3    H155174   3.107   3.565   0.839
11253TIP3    H255175   3.045   3.561   0.977
11254TIP3   OH255176   2.808   3.083   1.062
11254TIP3    H155177   2.845   3.001   1.028
11254TIP3    H255178   2.874   3.116   1.122
11255TIP3   OH255179   3.689   2.222   1.154
11255TIP3    H155180   3.705   2.290   1.220
11255TIP3    H255181   3.740   2.251   1.078
11256TIP3   OH255182   3.118   2.503   1.069
11256TIP3    H155183   3.135   2.411   1.087
11256TIP3    H255184   3.102   2.507   0.975
11257TIP3   OH255185   2.454   2.310   0.801
11257TIP3    H155186   2.460   2.395   0.757
11257TIP3    H255187   2.400   2.257   0.744
11258TIP3   OH255188   3.242   2.327   0.647
11258TIP3    H155189   3.282   2.297   0.728
11258TIP3    H255190   3.314   2.370   0.600
11259TIP3   OH255191   2.101   2.562   0.880
11259TIP3    H155192   2.163   2.520   0.939
11259TIP3    H255193   2.121   2.524   0.794
11260TIP3   OH255194   2.588   2.708   0.845
11260TIP3    H155195   2.671   2.671   0.874
11260TIP3    H255196   2.550   2.641   0.788
11261TIP3   OH255197   3.726   2.390   1.375
11261TIP3    H155198   3.650   2.444   1.352
11261TIP3    H255199   3.719   2.379   1.470
11262TIP3   OH255200   2.325   2.224   1.221
11262TIP3    H155201   2.298   2.284   1.152
11262TIP3    H255202   2.255   2.227   1.286
11263TIP3   OH255203   3.049   3.171   0.553
11263TIP3    H155204   3.033   3.169   0.458
11263TIP3    H255205   2.998   3.245   0.585
11264TIP3   OH255206   2.587   2.998   1.207
11264TIP3    H155207   2.535   3.069   1.245
11264TIP3    H255208   2.658   3.043   1.161
11265TIP3   OH255209   3.347   2.281   0.894
11265TIP3    H155210   3.282   2.259   0.960
11265TIP3    H255211   3.407   2.342   0.938
11266TIP3   OH255212   2.291   2.397   1.007
11266TIP3    H155213   2.347   2.454   1.060
11266TIP3    H255214   2.350   2.360   0.941
11267TIP3   OH255215   2.432   3.201   1.315
11267TIP3    H155216   2.436   3.297   1.305
11267TIP3    H255217   2.342   3.184   1.344
11268TIP3   OH255218   1.998   3.179   0.396
11268TIP3    H155219   1.991   3.218   0.309
11268TIP3    H255220   2.025   3.251   0.453
11269TIP3   OH255221   3.376   3.341   1.075
11269TIP3    H155222   3.282   3.343   1.090
11269TIP3    H255223   3.399   3.431   1.052
11270TIP3   OH255224   3.436   2.125   1.239
11270TIP3    H155225   3.368   2.174   1.192
11270TIP3    H255226   3.518   2.152   1.198
11271TIP3   OH255227   2.676   1.914   0.969
11271TIP3    H155228   2.653   1.821   0.976
11271TIP3    H255229   2.599   1.960   1.002
11272TIP3   OH255230   3.195   3.497   0.689
11272TIP3    H155231   3.236   3.412   0.674
11272TIP3    H255232   3.268   3.559   0.693
11273TIP3   OH255233   3.304   3.254   0.631
11273TIP3    H155234   3.226   3.208   0.600
11273TIP3    H255235   3.330   3.208   0.711
11274TIP3   OH255236   3.493   3.129   1.427
11274TIP3    H155237   3.482   3.069   1.353
11274TIP3    H255238   3.507   3.215   1.386
11275TIP3   OH255239   2.940   2.820   0.427
11275TIP3    H155240   2.873   2.884   0.403
11275TIP3    H255241   3.009   2.833   0.362
11276TIP3   OH255242   2.942   2.675   0.112
11276TIP3    H155243   2.996   2.693   0.189
11276TIP3    H255244   3.002   2.683   0.038
11277TIP3   OH255245   3.659   2.788   1.261
11277TIP3    H155246   3.584   2.847   1.254
11277TIP3    H255247   3.716   2.812   1.188
11278TIP3   OH255248   3.300   2.857   0.501
11278TIP3    H155249   3.232   2.879   0.564
11278TIP3    H255250   3.366   2.809   0.551
11279TIP3   OH255251   3.264   2.656   1.452
11279TIP3    H155252   3.260   2.726   1.518
11279TIP3    H255253   3.197   2.680   1.388
11280TIP3   OH255254   2.453   2.903   0.698
11280TIP3    H155255   2.430   2.862   0.614
11280TIP3    H255256   2.505   2.837   0.743
11281TIP3   OH255257   2.602   3.259   0.961
11281TIP3    H155258   2.603   3.262   0.865
11281TIP3    H255259   2.675   3.202   0.984
11282TIP3   OH255260   2.449   2.807   1.066
11282TIP3    H155261   2.504   2.780   0.993
11282TIP3    H255262   2.502   2.870   1.114
11283TIP3   OH255263   3.113   3.356   1.142
11283TIP3    H155264   3.099   3.424   1.208
11283TIP3    H255265   3.074   3.277   1.181
11284TIP3   OH255266   2.590   3.233   1.542
11284TIP3    H155267   2.528   3.289   1.588
11284TIP3    H255268   2.543   3.202   1.465
11285TIP3   OH255269   3.176   2.774   0.272
11285TIP3    H155270   3.221   2.804   0.351
11285TIP3    H255271   3.222   2.818   0.200
11286TIP3   OH255272   2.268   2.832   1.486
11286TIP3    H155273   2.274   2.909   1.543
11286TIP3    H255274   2.174   2.824   1.467
11287TIP3   OH255275   2.939   3.417   0.619
11287TIP3    H155276   3.022   3.453   0.651
11287TIP3    H255277   2.903   3.486   0.564
11288TIP3   OH255278   2.387   3.410   1.613
11288TIP3    H155279   2.384   3.436   1.521
11288TIP3    H255280   2.295   3.397   1.637
11289TIP3   OH255281   3.538   1.945   0.243
11289TIP3    H155282   3.458   1.977   0.285
11289TIP3    H255283   3.585   2.025   0.220
11290TIP3   OH255284   2.367   2.811   0.438
11290TIP3    H155285   2.310   2.881   0.407
11290TIP3    H255286   2.309   2.735   0.447
11291TIP3   OH255287   3.644   3.359   0.130
11291TIP3    H155288   3.666   3.452   0.134
11291TIP3    H255289   3.728   3.315   0.117
11292TIP3   OH255290   1.953   3.065   1.360
11292TIP3    H155291   1.899   3.069   1.281
11292TIP3    H255292   1.966   2.971   1.375
11293TIP3   OH255293   1.931   3.346   1.030
11293TIP3    H155294   2.017   3.336   1.070
11293TIP3    H255295   1.889   3.416   1.081
11294TIP3   OH255296   3.748   3.417   1.632
11294TIP3    H155297   3.737   3.322   1.624
11294TIP3    H255298   3.663   3.448   1.665
11295TIP3   OH255299   2.827   3.361   1.486
11295TIP3    H155300   2.825   3.441   1.538
11295TIP3    H255301   2.745   3.316   1.508
11296TIP3   OH255302   2.907   3.694   0.471
11296TIP3    H155303   2.901   3.716   0.378
11296TIP3    H255304   2.882   3.774   0.517
11297TIP3   OH255305   2.257   3.589   0.666
11297TIP3    H155306   2.276   3.558   0.755
11297TIP3    H255307   2.201   3.521   0.628
11298TIP3   OH255308   3.206   3.660   0.161
11298TIP3    H155309   3.274   3.600   0.130
11298TIP3    H255310   3.205   3.650   0.256
11299TIP3   OH255311   3.175   3.642   0.436
11299TIP3    H155312   3.081   3.649   0.453
11299TIP3    H255313   3.207   3.582   0.504
11300TIP3   OH255314   3.456   2.528   1.647
11300TIP3    H155315   3.382   2.561   1.596
11300TIP3    H255316   3.455   2.433   1.633
11301TIP3   OH255317   2.178   3.209   1.425
11301TIP3    H155318   2.203   3.172   1.510
11301TIP3    H255319   2.099   3.160   1.401
11302TIP3   OH255320   2.434   2.028   1.054
11302TIP3    H155321   2.355   2.018   1.000
11302TIP3    H255322   2.412   2.098   1.115
11303TIP3   OH255323   2.915   1.996   1.402
11303TIP3    H155324   2.963   1.949   1.470
11303TIP3    H255325   2.823   1.987   1.426
11304TIP3   OH255326   3.209   2.385   1.476
11304TIP3    H155327   3.144   2.369   1.544
11304TIP3    H255328   3.212   2.480   1.467
11305TIP3   OH255329   3.317   2.890   0.063
11305TIP3    H155330   3.299   2.937  -0.019
11305TIP3    H255331   3.406   2.915   0.086
11306TIP3   OH255332   2.823   2.181   0.064
11306TIP3    H155333   2.744   2.234   0.069
11306TIP3    H255334   2.850   2.185  -0.027
11307TIP3   OH255335   2.444   2.552   1.176
11307TIP3    H155336   2.379   2.551   1.247
11307TIP3    H255337   2.444   2.643   1.146
11308TIP3   OH255338   2.447   2.548   0.664
11308TIP3    H155339   2.352   2.536   0.662
11308TIP3    H255340   2.476   2.525   0.576
11309TIP3   OH255341   2.999   2.572   0.531
11309TIP3    H155342   2.974   2.659   0.502
11309TIP3    H255343   3.071   2.547   0.474
11310TIP3   OH255344   2.905   2.596   1.663
11310TIP3    H155345   2.854   2.524   1.699
11310TIP3    H255346   2.990   2.591   1.707
11311TIP3   OH255347   3.091   2.514   0.796
11311TIP3    H155348   3.047   2.562   0.725
11311TIP3    H255349   3.135   2.442   0.752
11312TIP3   OH255350   2.228   2.542   1.350
11312TIP3    H155351   2.246   2.577   1.437
11312TIP3    H255352   2.188   2.457   1.365
11313TIP3   OH255353   2.593   2.326   0.070
11313TIP3    H155354   2.544   2.296   0.147
11313TIP3    H255355   2.579   2.421   0.069
11314TIP3   OH255356   1.898   2.256   0.733
11314TIP3    H155357   1.952   2.263   0.812
11314TIP3    H255358   1.961   2.234   0.663
11315TIP3   OH255359   1.959   2.359   0.251
11315TIP3    H155360   2.035   2.397   0.208
11315TIP3    H255361   1.905   2.434   0.275
11316TIP3   OH255362   3.043   2.673   1.268
11316TIP3    H155363   3.077   2.615   1.200
11316TIP3    H255364   2.980   2.619   1.316
11317TIP3   OH255365   2.734   2.299   0.757
11317TIP3    H155366   2.644   2.295   0.791
11317TIP3    H255367   2.784   2.242   0.815
11318TIP3   OH255368   2.189   2.460   0.638
11318TIP3    H155369   2.114   2.490   0.587
11318TIP3    H255370   2.201   2.369   0.611
11319TIP3   OH255371   2.518   2.461   0.412
11319TIP3    H155372   2.613   2.466   0.424
11319TIP3    H255373   2.501   2.507   0.329
11320TIP3   OH255374   3.152   2.223   1.078
11320TIP3    H155375   3.111   2.225   1.165
11320TIP3    H255376   3.092   2.171   1.025
11321TIP3   OH255377   2.436   2.549   0.162
11321TIP3    H155378   2.344   2.547   0.136
11321TIP3    H255379   2.478   2.605   0.098
11322TIP3   OH255380   3.489   3.786   1.737
11322TIP3    H155381   3.517   3.818   1.651
11322TIP3    H255382   3.562   3.807   1.795
11323TIP3   OH255383   2.255   3.056   1.660
11323TIP3    H155384   2.320   3.046   1.729
11323TIP3    H255385   2.171   3.056   1.706
11324TIP3   OH255386   2.818   2.594   0.956
11324TIP3    H155387   2.883   2.537   0.914
11324TIP3    H255388   2.785   2.543   1.030
11325TIP3   OH255389   2.288   2.190   0.607
11325TIP3    H155390   2.235   2.116   0.635
11325TIP3    H255391   2.335   2.159   0.530
11326TIP3   OH255392   2.708   2.460   1.177
11326TIP3    H155393   2.623   2.502   1.187
11326TIP3    H255394   2.757   2.485   1.256
11327TIP3   OH255395   2.757   3.016   0.352
11327TIP3    H155396   2.685   2.975   0.304
11327TIP3    H255397   2.717   3.047   0.434
11328TIP3   OH255398   3.462   2.973   1.201
11328TIP3    H155399   3.521   3.027   1.149
11328TIP3    H255400   3.389   2.954   1.142
11329TIP3   OH255401   3.110   2.303   0.168
11329TIP3    H155402   3.117   2.312   0.073
11329TIP3    H255403   3.152   2.382   0.202
11330TIP3   OH255404   2.906   3.065   1.497
11330TIP3    H155405   2.928   3.020   1.579
11330TIP3    H255406   2.872   3.150   1.525
11331TIP3   OH255407   3.209   2.500   0.348
11331TIP3    H155408   3.296   2.487   0.387
11331TIP3    H255409   3.213   2.589   0.312
11332TIP3   OH255410   2.270   2.955   0.902
11332TIP3    H155411   2.330   2.949   0.828
11332TIP3    H255412   2.310   2.901   0.970
11333TIP3   OH255413   2.977   3.168   0.274
11333TIP3    H155414   2.935   3.253   0.288
11333TIP3    H255415   2.907   3.104   0.292
11334TIP3   OH255416   1.987   2.806   1.462
11334TIP3    H155417   1.976   2.769   1.550
11334TIP3    H255418   1.917   2.767   1.411
11335TIP3   OH255419   2.695   2.784   1.676
11335TIP3    H155420   2.629   2.739   1.623
11335TIP3    H255421   2.775   2.732   1.664
11336TIP3   OH255422   3.110   3.340   1.486
11336TIP3    H155423   3.017   3.340   1.464
11336TIP3    H255424   3.112   3.354   1.581
11337TIP3   OH255425   3.661   2.565   0.321
11337TIP3    H155426   3.600   2.530   0.255
11337TIP3    H255427   3.676   2.656   0.294
11338TIP3   OH255428   3.713   3.138   1.591
11338TIP3    H155429   3.622   3.144   1.562
11338TIP3    H255430   3.763   3.118   1.511
11339TIP3   OH255431   3.522   3.403   0.379
11339TIP3    H155432   3.473   3.329   0.414
11339TIP3    H255433   3.555   3.373   0.295
11340TIP3   OH255434   3.251   2.907   1.019
11340TIP3    H155435   3.156   2.897   1.018
11340TIP3    H255436   3.284   2.828   0.974
11341TIP3   OH255437   2.533   3.330   0.691
11341TIP3    H155438   2.554   3.415   0.651
11341TIP3    H255439   2.437   3.329   0.695
11342TIP3   OH255440   2.089   2.810   0.153
11342TIP3    H155441   2.127   2.866   0.221
11342TIP3    H255442   1.995   2.809   0.172
11343TIP3   OH255443   2.618   3.092   0.574
11343TIP3    H155444   2.602   3.177   0.614
11343TIP3    H255445   2.563   3.031   0.623
11344TIP3   OH255446   2.717   3.505   1.269
11344TIP3    H155447   2.778   3.575   1.248
11344TIP3    H255448   2.765   3.447   1.328
11345TIP3   OH255449   2.517   3.600   0.574
11345TIP3    H155450   2.425   3.605   0.599
11345TIP3    H255451   2.556   3.679   0.612
11346TIP3   OH255452   3.015   3.114   1.248
11346TIP3    H155453   2.976   3.096   1.334
11346TIP3    H255454   3.084   3.049   1.239
11347TIP3   OH255455   3.249   3.213   0.146
11347TIP3    H155456   3.307   3.164   0.205
11347TIP3    H255457   3.162   3.202   0.185
11348TIP3   OH255458   3.316   3.530   1.462
11348TIP3    H155459   3.239   3.474   1.454
11348TIP3    H255460   3.303   3.600   1.398
11349TIP3   OH255461   3.711   3.624   0.150
11349TIP3    H155462   3.724   3.641   0.057
11349TIP3    H255463   3.653   3.694   0.179
11350TIP3   OH255464   2.115   2.287   1.394
11350TIP3    H155465   2.023   2.311   1.382
11350TIP3    H255466   2.113   2.222   1.465
11351TIP3   OH255467   3.401   3.064   0.331
11351TIP3    H155468   3.355   3.006   0.392
11351TIP3    H255469   3.493   3.056   0.355
11352TIP3   OH255470   2.110   3.457   1.259
11352TIP3    H155471   2.137   3.375   1.298
11352TIP3    H255472   2.106   3.519   1.333
11353TIP3   OH255473   2.542   3.298   0.254
11353TIP3    H155474   2.614   3.248   0.291
11353TIP3    H255475   2.563   3.389   0.273
11354TIP3   OH255476   2.197   3.001   0.324
11354TIP3    H155477   2.125   3.044   0.369
11354TIP3    H255478   2.243   3.071   0.278
11355TIP3   OH255479   3.030   2.232   1.319
11355TIP3    H155480   3.088   2.263   1.388
11355TIP3    H255481   2.988   2.154   1.356
11356TIP3   OH255482   3.094   2.213   0.444
11356TIP3    H155483   3.122   2.279   0.381
11356TIP3    H255484   3.132   2.241   0.527
11357TIP3   OH255485   2.834   3.397   0.315
11357TIP3    H155486   2.760   3.455   0.334
11357TIP3    H255487   2.884   3.443   0.248
11358TIP3   OH255488   2.777   2.409   0.507
11358TIP3    H155489   2.852   2.468   0.517
11358TIP3    H255490   2.761   2.377   0.596
11359TIP3   OH255491   2.879   2.495   1.401
11359TIP3    H155492   2.882   2.525   1.492
11359TIP3    H255493   2.909   2.404   1.405
11360TIP3   OH255494   2.880   2.070   0.588
11360TIP3    H155495   2.881   2.090   0.682
11360TIP3    H255496   2.956   2.116   0.552
11361TIP3   OH255497   2.607   3.558   0.318
11361TIP3    H155498   2.613   3.646   0.279
11361TIP3    H255499   2.575   3.574   0.407
11362TIP3   OH255500   2.467   2.217   0.291
11362TIP3    H155501   2.459   2.297   0.342
11362TIP3    H255502   2.548   2.177   0.322
11363TIP3   OH255503   3.456   2.272   1.486
11363TIP3    H155504   3.366   2.305   1.487
11363TIP3    H255505   3.460   2.218   1.407
11364TIP3   OH255506   3.329   2.659   0.897
11364TIP3    H155507   3.244   2.617   0.881
11364TIP3    H255508   3.376   2.598   0.954
11365TIP3   OH255509   2.290   3.222   0.175
11365TIP3    H155510   2.362   3.266   0.220
11365TIP3    H255511   2.333   3.168   0.109
11366TIP3   OH255512   2.155   2.544   0.093
11366TIP3    H155513   2.131   2.634   0.113
11366TIP3    H255514   2.124   2.530   0.004
11367TIP3   OH255515   3.459   3.609   1.067
11367TIP3    H155516   3.447   3.682   1.005
11367TIP3    H255517   3.554   3.604   1.080
11368TIP3   OH255518   2.183   1.998   0.940
11368TIP3    H155519   2.171   1.984   0.846
11368TIP3    H255520   2.152   1.916   0.980
11369TIP3   OH255521   2.070   3.411   0.549
11369TIP3    H155522   2.007   3.435   0.617
11369TIP3    H255523   2.055   3.474   0.479
11370TIP3   OH255524   2.035   3.685   1.730
11370TIP3    H155525   2.101   3.660   1.796
11370TIP3    H255526   2.000   3.602   1.699
11371TIP3   OH255527   2.467   3.515   1.856
11371TIP3    H155528   2.540   3.458   1.881
11371TIP3    H255529   2.441   3.484   1.769
11372TIP3   OH255530   2.967   3.514   0.112
11372TIP3    H155531   2.934   3.475   0.031
11372TIP3    H255532   3.058   3.537   0.092
11373TIP3   OH255533   3.106   3.386   1.756
11373TIP3    H155534   3.084   3.302   1.798
11373TIP3    H255535   3.183   3.418   1.804
11374TIP3   OH255536   3.356   3.460   0.052
11374TIP3    H155537   3.320   3.377   0.084
11374TIP3    H255538   3.450   3.443   0.044
11375TIP3   OH255539   2.007   3.051   1.787
11375TIP3    H155540   2.008   2.956   1.782
11375TIP3    H255541   1.933   3.077   1.732
11376TIP3   OH255542   2.441   3.041   0.034
11376TIP3    H155543   2.482   2.999   0.110
11376TIP3    H255544   2.466   2.986  -0.040
11377TIP3   OH255545   2.669   3.060   1.745
11377TIP3    H155546   2.649   3.102   1.661
11377TIP3    H255547   2.691   2.969   1.721
11378TIP3   OH255548   3.232   3.080   1.504
11378TIP3    H155549   3.322   3.104   1.485
11378TIP3    H255550   3.182   3.161   1.491
11379TIP3   OH255551   2.087   2.778   1.755
11379TIP3    H155552   2.165   2.728   1.732
11379TIP3    H255553   2.085   2.778   1.851
11380TIP3   OH255554   2.550   2.877   0.229
11380TIP3    H155555   2.498   2.841   0.300
11380TIP3    H255556   2.585   2.801   0.183
11381TIP3   OH255557   2.493   2.666   1.488
11381TIP3    H155558   2.420   2.728   1.487
11381TIP3    H255559   2.555   2.701   1.425
11382TIP3   OH255560   2.669   2.681   0.058
11382TIP3    H155561   2.675   2.686  -0.038
11382TIP3    H255562   2.760   2.676   0.087
11383TIP3   OH255563   3.003   2.917   1.780
11383TIP3    H155564   3.082   2.875   1.745
11383TIP3    H255565   2.971   2.855   1.846
11384TIP3   OH255566   3.586   2.990  16.007
11384TIP3    H155567   3.568   2.987  15.913
11384TIP3    H255568   3.594   3.083  16.027
11385TIP3   OH255569   2.536   2.407   1.572
11385TIP3    H155570   2.548   2.348   1.497
11385TIP3    H255571   2.525   2.493   1.532
11386TIP3   OH255572   2.574   2.251   1.335
11386TIP3    H155573   2.626   2.299   1.271
11386TIP3    H255574   2.487   2.244   1.296
11387TIP3   OH255575   2.686   2.773   1.330
11387TIP3    H155576   2.779   2.788   1.351
11387TIP3    H255577   2.657   2.855   1.291
11388TIP3   OH255578   3.131   2.560   1.827
11388TIP3    H155579   3.129   2.479   1.877
11388TIP3    H255580   3.218   2.597   1.845
11389TIP3   OH255581   3.283   2.856   1.651
11389TIP3    H155582   3.254   2.935   1.605
11389TIP3    H255583   3.379   2.859   1.645
11390TIP3   OH255584   2.368   2.471   1.789
11390TIP3    H155585   2.291   2.416   1.782
11390TIP3    H255586   2.419   2.451   1.711
11391TIP3   OH255587   2.634   1.980   1.390
11391TIP3    H155588   2.611   2.071   1.375
11391TIP3    H255589   2.561   1.930   1.353
11392TIP3   OH255590   2.759   2.379   1.739
11392TIP3    H155591   2.726   2.349   1.824
11392TIP3    H255592   2.682   2.380   1.683
11393TIP3   OH255593   3.012   2.303   1.641
11393TIP3    H155594   2.928   2.311   1.685
11393TIP3    H255595   3.069   2.258   1.703
11394TIP3   OH255596   3.217   2.194   1.808
11394TIP3    H155597   3.205   2.099   1.818
11394TIP3    H255598   3.182   2.231   1.889
11395TIP3   OH255599   2.171   2.270   1.761
11395TIP3    H155600   2.173   2.188   1.710
11395TIP3    H255601   2.181   2.242   1.852
11396TIP3   OH255602   2.633   1.908   1.658
11396TIP3    H155603   2.688   1.829   1.656
11396TIP3    H255604   2.625   1.934   1.566
11397TIP3   OH255605   2.708   2.075   1.863
11397TIP3    H155606   2.683   2.019   1.790
11397TIP3    H255607   2.641   2.143   1.865
11398TIP3   OH255608   2.660   3.774   0.149
11398TIP3    H155609   2.752   3.784   0.172
11398TIP3    H255610   2.656   3.799   0.057
11399TIP3   OH255611   2.018   3.244   0.112
11399TIP3    H155612   2.110   3.251   0.135
11399TIP3    H255613   2.017   3.197   0.029
11400TIP3   OH255614   1.896   3.742   0.650
11400TIP3    H155615   1.837   3.713   0.581
11400TIP3    H255616   1.911   3.665   0.704
11401TIP3   OH255617   1.962   3.526   0.810
11401TIP3    H155618   1.925   3.448   0.851
11401TIP3    H255619   2.010   3.571   0.880
11402TIP3   OH255620   3.727   3.611   1.133
11402TIP3    H155621   3.725   3.618   1.229
11402TIP3    H255622   3.806   3.660   1.108
11403TIP3   OH255623   3.673   3.585   1.410
11403TIP3    H155624   3.618   3.516   1.373
11403TIP3    H255625   3.717   3.543   1.483
11404TIP3   OH255626   3.517   3.180   1.882
11404TIP3    H155627   3.433   3.186   1.929
11404TIP3    H255628   3.570   3.250   1.921
11405TIP3   OH255629   3.663   3.008   0.413
11405TIP3    H155630   3.735   3.071   0.417
11405TIP3    H255631   3.678   2.950   0.488
11406TIP3   OH255632   3.709   2.814   0.606
11406TIP3    H155633   3.626   2.777   0.635
11406TIP3    H255634   3.760   2.822   0.687
11407TIP3   OH255635   3.695   3.103   1.119
11407TIP3    H155636   3.747   3.033   1.078
11407TIP3    H255637   3.724   3.183   1.075
11408TIP3   OH255638   3.506   3.383   1.319
11408TIP3    H155639   3.433   3.425   1.365
11408TIP3    H255640   3.471   3.364   1.232
11409TIP3   OH255641   3.694   2.824   0.213
11409TIP3    H155642   3.651   2.867   0.139
11409TIP3    H255643   3.682   2.885   0.286
11410TIP3   OH255644   3.503   2.475   0.121
11410TIP3    H155645   3.564   2.505   0.054
11410TIP3    H255646   3.467   2.393   0.086
11411TIP3   OH255647   3.463   2.689   0.656
11411TIP3    H155648   3.459   2.599   0.625
11411TIP3    H255649   3.421   2.686   0.742
11412TIP3   OH255650   1.948   2.871   1.070
11412TIP3    H155651   1.961   2.854   0.977
11412TIP3    H255652   2.029   2.840   1.111
11413TIP3   OH255653   3.561   2.870   1.633
11413TIP3    H155654   3.618   2.794   1.620
11413TIP3    H255655   3.609   2.942   1.591
11414TIP3   OH255656   3.705   2.635   1.617
11414TIP3    H155657   3.617   2.599   1.628
11414TIP3    H255658   3.763   2.564   1.643
11415TIP3   OH255659   3.456   2.442   0.489
11415TIP3    H155660   3.485   2.351   0.492
11415TIP3    H255661   3.526   2.489   0.445
11416TIP3   OH255662   3.482   2.473   1.043
11416TIP3    H155663   3.575   2.484   1.024
11416TIP3    H255664   3.475   2.492   1.137
11417TIP3   OH255665   3.507   2.560   1.309
11417TIP3    H155666   3.429   2.587   1.357
11417TIP3    H255667   3.559   2.640   1.300
11418TIP3   OH255668   1.947   2.392   1.653
11418TIP3    H155669   2.029   2.367   1.695
11418TIP3    H255670   1.892   2.314   1.661
11419TIP3   OH255671   3.747   1.987   1.836
11419TIP3    H155672   3.806   1.920   1.802
11419TIP3    H255673   3.742   2.052   1.767
11420TIP3   OH255674   3.520   2.173   0.496
11420TIP3    H155675   3.542   2.133   0.581
11420TIP3    H255676   3.452   2.116   0.460
11421TIP3   OH255677   2.055   2.245   0.960
11421TIP3    H155678   2.092   2.157   0.966
11421TIP3    H255679   2.127   2.303   0.984
11422TIP3   OH255680   1.865   2.525   1.033
11422TIP3    H155681   1.937   2.530   0.969
11422TIP3    H255682   1.895   2.576   1.108
11423TIP3   OH255683   3.678   2.175   1.649
11423TIP3    H155684   3.605   2.211   1.700
11423TIP3    H255685   3.637   2.135   1.573
11424TIP3   OH255686   3.678   2.162   0.139
11424TIP3    H155687   3.706   2.162   0.047
11424TIP3    H255688   3.735   2.225   0.182
11425TIP3   OH255689   1.923   2.152   0.434
11425TIP3    H155690   1.829   2.156   0.452
11425TIP3    H255691   1.939   2.227   0.377
11426TIP3   OH255692   3.388   3.685   0.672
11426TIP3    H155693   3.457   3.674   0.607
11426TIP3    H255694   3.431   3.724   0.748
11427TIP3   OH255695   1.909   2.008   1.291
11427TIP3    H155696   1.839   1.994   1.355
11427TIP3    H255697   1.876   2.078   1.235
11428TIP3   OH255698   2.127   3.385   1.716
11428TIP3    H155699   2.039   3.387   1.678
11428TIP3    H255700   2.115   3.344   1.802
11429TIP3   OH255701   2.451   3.478   1.342
11429TIP3    H155702   2.421   3.566   1.318
11429TIP3    H255703   2.545   3.479   1.326
11430TIP3   OH255704   2.833   3.602   1.627
11430TIP3    H155705   2.843   3.569   1.716
11430TIP3    H255706   2.915   3.647   1.609
11431TIP3   OH255707   3.071   3.737   1.584
11431TIP3    H155708   3.134   3.676   1.545
11431TIP3    H255709   3.115   3.769   1.663
11432TIP3   OH255710   3.582   1.957   1.469
11432TIP3    H155711   3.502   1.968   1.416
11432TIP3    H255712   3.608   1.866   1.453
11433TIP3   OH255713   2.157   3.795   1.362
11433TIP3    H155714   2.073   3.826   1.331
11433TIP3    H255715   2.165   3.830   1.451
11434TIP3   OH255716   2.412   3.744   1.275
11434TIP3    H155717   2.322   3.759   1.303
11434TIP3    H255718   2.417   3.786   1.189
11435TIP3   OH255719   2.867   3.724   1.178
11435TIP3    H155720   2.813   3.760   1.108
11435TIP3    H255721   2.874   3.794   1.243
11436TIP3   OH255722   3.095   3.600   1.275
11436TIP3    H155723   3.017   3.641   1.239
11436TIP3    H255724   3.164   3.665   1.261
11437TIP3   OH255725   3.334   3.746   1.271
11437TIP3    H155726   3.358   3.837   1.253
11437TIP3    H255727   3.377   3.696   1.202
11438TIP3   OH255728   2.119   3.625   1.034
11438TIP3    H155729   2.112   3.576   1.115
11438TIP3    H255730   2.196   3.589   0.990
11439TIP3   OH255731   2.332   3.503   0.917
11439TIP3    H155732   2.318   3.410   0.938
11439TIP3    H255733   2.419   3.522   0.952
11440TIP3   OH255734   2.593   3.532   1.020
11440TIP3    H155735   2.603   3.442   0.989
11440TIP3    H255736   2.625   3.530   1.110
11441TIP3   OH255737   2.890   2.086   0.863
11441TIP3    H155738   2.838   2.024   0.913
11441TIP3    H255739   2.976   2.044   0.856
11442TIP3   OH255740   3.423   1.949   0.908
11442TIP3    H155741   3.488   2.001   0.860
11442TIP3    H255742   3.344   2.003   0.906
11443TIP3   OH255743   3.603   2.049   0.729
11443TIP3    H155744   3.667   1.982   0.705
11443TIP3    H255745   3.656   2.128   0.746
11444TIP3   OH255746   2.150   1.958   0.667
11444TIP3    H155747   2.058   1.940   0.648
11444TIP3    H255748   2.194   1.874   0.656
11445TIP3   OH255749   2.036   1.959   0.260
11445TIP3    H155750   2.107   2.011   0.222
11445TIP3    H255751   1.995   2.017   0.324
11446TIP3   OH255752   2.635   1.939   0.685
11446TIP3    H155753   2.709   1.994   0.658
11446TIP3    H255754   2.643   1.933   0.780
11447TIP3   OH255755   3.140   1.972   0.807
11447TIP3    H155756   3.201   1.945   0.739
11447TIP3    H255757   3.115   1.891   0.852
11448TIP3   OH255758   3.311   2.015   0.402
11448TIP3    H155759   3.234   2.070   0.417
11448TIP3    H255760   3.280   1.926   0.421
11449TIP3   OH255761   2.032   3.595   0.350
11449TIP3    H155762   1.957   3.579   0.293
11449TIP3    H255763   2.037   3.691   0.356
11450TIP3   OH255764   2.250   2.097   0.148
11450TIP3    H155765   2.299   2.065   0.071
11450TIP3    H255766   2.317   2.139   0.202
11451TIP3   OH255767   2.750   2.175   0.368
11451TIP3    H155768   2.764   2.120   0.445
11451TIP3    H255769   2.751   2.264   0.402
11452TIP3   OH255770   2.931   3.768   0.201
11452TIP3    H155771   3.021   3.798   0.190
11452TIP3    H255772   2.931   3.679   0.165
11453TIP3   OH255773   3.586   3.650   0.480
11453TIP3    H155774   3.568   3.561   0.449
11453TIP3    H255775   3.580   3.705   0.402
11454TIP3   OH255776   2.164   2.021   1.621
11454TIP3    H155777   2.104   1.952   1.650
11454TIP3    H255778   2.245   2.004   1.669
11455TIP3   OH255779   2.363   1.951   1.800
11455TIP3    H155780   2.450   1.921   1.774
11455TIP3    H255781   2.325   1.875   1.845
11456TIP3   OH255782   2.206   3.702   0.061
11456TIP3    H155783   2.156   3.676   0.138
11456TIP3    H255784   2.276   3.637   0.055
11457TIP3   OH255785   3.222   1.916   1.809
11457TIP3    H155786   3.207   1.871   1.892
11457TIP3    H255787   3.316   1.904   1.792
11458TIP3   OH255788   3.493   3.514   1.681
11458TIP3    H155789   3.431   3.508   1.609
11458TIP3    H255790   3.487   3.605   1.711
11459TIP3   OH255791   4.980   2.922   0.652
11459TIP3    H155792   4.963   3.015   0.642
11459TIP3    H255793   4.911   2.880   0.600
11460TIP3   OH255794   4.845   2.822   1.049
11460TIP3    H155795   4.865   2.781   1.133
11460TIP3    H255796   4.797   2.756   1.000
11461TIP3   OH255797   4.064   2.768   1.174
11461TIP3    H155798   4.071   2.697   1.237
11461TIP3    H255799   4.155   2.790   1.153
11462TIP3   OH255800   5.242   3.106   0.921
11462TIP3    H155801   5.182   3.042   0.961
11462TIP3    H255802   5.235   3.182   0.977
11463TIP3   OH255803   4.199   3.241   0.982
11463TIP3    H155804   4.168   3.153   0.962
11463TIP3    H255805   4.293   3.231   0.997
11464TIP3   OH255806   3.853   2.581   0.524
11464TIP3    H155807   3.822   2.665   0.559
11464TIP3    H255808   3.790   2.558   0.457
11465TIP3   OH255809   3.905   2.813   0.809
11465TIP3    H155810   3.934   2.724   0.829
11465TIP3    H255811   3.985   2.866   0.811
11466TIP3   OH255812   4.963   3.623   0.898
11466TIP3    H155813   4.998   3.562   0.833
11466TIP3    H255814   4.924   3.567   0.965
11467TIP3   OH255815   4.692   3.080   1.058
11467TIP3    H155816   4.727   2.998   1.021
11467TIP3    H255817   4.761   3.111   1.116
11468TIP3   OH255818   5.576   2.220   1.156
11468TIP3    H155819   5.595   2.288   1.221
11468TIP3    H255820   5.630   2.244   1.080
11469TIP3   OH255821   5.002   2.505   1.071
11469TIP3    H155822   5.019   2.411   1.083
11469TIP3    H255823   4.990   2.515   0.976
11470TIP3   OH255824   4.352   2.307   0.798
11470TIP3    H155825   4.355   2.392   0.755
11470TIP3    H255826   4.298   2.253   0.740
11471TIP3   OH255827   5.130   2.340   0.642
11471TIP3    H155828   5.171   2.307   0.721
11471TIP3    H255829   5.201   2.378   0.591
11472TIP3   OH255830   3.988   2.559   0.881
11472TIP3    H155831   4.052   2.517   0.938
11472TIP3    H255832   4.006   2.523   0.794
11473TIP3   OH255833   4.466   2.707   0.853
11473TIP3    H155834   4.552   2.672   0.877
11473TIP3    H255835   4.429   2.642   0.794
11474TIP3   OH255836   5.620   2.389   1.375
11474TIP3    H155837   5.541   2.441   1.361
11474TIP3    H255838   5.640   2.401   1.468
11475TIP3   OH255839   4.208   2.225   1.222
11475TIP3    H155840   4.182   2.282   1.149
11475TIP3    H255841   4.136   2.233   1.285
11476TIP3   OH255842   4.956   3.182   0.567
11476TIP3    H155843   4.934   3.174   0.475
11476TIP3    H255844   4.900   3.253   0.599
11477TIP3   OH255845   4.471   2.998   1.206
11477TIP3    H155846   4.420   3.069   1.244
11477TIP3    H255847   4.541   3.043   1.157
11478TIP3   OH255848   5.228   2.291   0.891
11478TIP3    H155849   5.164   2.260   0.956
11478TIP3    H255850   5.288   2.347   0.941
11479TIP3   OH255851   4.182   2.393   1.002
11479TIP3    H155852   4.238   2.449   1.056
11479TIP3    H255853   4.241   2.357   0.936
11480TIP3   OH255854   4.321   3.202   1.320
11480TIP3    H155855   4.326   3.297   1.309
11480TIP3    H255856   4.229   3.185   1.344
11481TIP3   OH255857   3.882   3.180   0.390
11481TIP3    H155858   3.876   3.219   0.302
11481TIP3    H255859   3.910   3.253   0.446
11482TIP3   OH255860   5.263   3.341   1.065
11482TIP3    H155861   5.170   3.347   1.087
11482TIP3    H255862   5.288   3.432   1.046
11483TIP3   OH255863   5.323   2.123   1.243
11483TIP3    H155864   5.255   2.166   1.192
11483TIP3    H255865   5.405   2.149   1.200
11484TIP3   OH255866   4.567   1.916   0.972
11484TIP3    H155867   4.541   1.824   0.972
11484TIP3    H255868   4.490   1.963   1.001
11485TIP3   OH255869   5.091   3.480   0.687
11485TIP3    H155870   5.138   3.397   0.679
11485TIP3    H255871   5.159   3.547   0.690
11486TIP3   OH255872   5.242   3.195   0.649
11486TIP3    H155873   5.206   3.193   0.561
11486TIP3    H255874   5.169   3.172   0.706
11487TIP3   OH255875   5.375   3.129   1.417
11487TIP3    H155876   5.373   3.075   1.339
11487TIP3    H255877   5.386   3.218   1.384
11488TIP3   OH255878   4.832   2.830   0.433
11488TIP3    H155879   4.761   2.889   0.408
11488TIP3    H255880   4.895   2.837   0.361
11489TIP3   OH255881   4.826   2.681   0.119
11489TIP3    H155882   4.884   2.701   0.193
11489TIP3    H255883   4.884   2.679   0.043
11490TIP3   OH255884   5.533   2.785   1.258
11490TIP3    H155885   5.468   2.855   1.246
11490TIP3    H255886   5.604   2.808   1.198
11491TIP3   OH255887   5.196   2.865   0.496
11491TIP3    H155888   5.124   2.882   0.558
11491TIP3    H255889   5.255   2.806   0.543
11492TIP3   OH255890   5.149   2.644   1.447
11492TIP3    H155891   5.153   2.717   1.509
11492TIP3    H255892   5.081   2.670   1.384
11493TIP3   OH255893   4.333   2.901   0.696
11493TIP3    H155894   4.308   2.863   0.612
11493TIP3    H255895   4.385   2.833   0.739
11494TIP3   OH255896   4.483   3.259   0.959
11494TIP3    H155897   4.482   3.265   0.863
11494TIP3    H255898   4.558   3.202   0.978
11495TIP3   OH255899   4.327   2.804   1.074
11495TIP3    H155900   4.380   2.778   0.999
11495TIP3    H255901   4.380   2.870   1.119
11496TIP3   OH255902   5.006   3.346   1.141
11496TIP3    H155903   4.986   3.419   1.199
11496TIP3    H255904   4.963   3.270   1.181
11497TIP3   OH255905   4.473   3.224   1.551
11497TIP3    H155906   4.411   3.283   1.593
11497TIP3    H255907   4.430   3.196   1.471
11498TIP3   OH255908   5.062   2.796   0.265
11498TIP3    H155909   5.110   2.824   0.343
11498TIP3    H255910   5.108   2.837   0.192
11499TIP3   OH255911   4.143   2.815   1.501
11499TIP3    H155912   4.153   2.896   1.551
11499TIP3    H255913   4.051   2.814   1.473
11500TIP3   OH255914   4.825   3.417   0.629
11500TIP3    H155915   4.910   3.457   0.650
11500TIP3    H255916   4.787   3.475   0.563
11501TIP3   OH255917   4.275   3.403   1.616
11501TIP3    H155918   4.274   3.436   1.526
11501TIP3    H255919   4.183   3.394   1.639
11502TIP3   OH255920   5.425   1.942   0.248
11502TIP3    H155921   5.344   1.974   0.289
11502TIP3    H255922   5.471   2.021   0.221
11503TIP3   OH255923   4.246   2.813   0.437
11503TIP3    H155924   4.190   2.882   0.400
11503TIP3    H255925   4.195   2.733   0.427
11504TIP3   OH255926   5.542   3.369   0.124
11504TIP3    H155927   5.563   3.463   0.120
11504TIP3    H255928   5.626   3.325   0.112
11505TIP3   OH255929   3.839   3.062   1.361
11505TIP3    H155930   3.786   3.069   1.281
11505TIP3    H255931   3.853   2.968   1.371
11506TIP3   OH255932   3.819   3.345   1.034
11506TIP3    H155933   3.909   3.335   1.066
11506TIP3    H255934   3.783   3.417   1.085
11507TIP3   OH255935   5.627   3.405   1.630
11507TIP3    H155936   5.613   3.311   1.623
11507TIP3    H255937   5.544   3.439   1.663
11508TIP3   OH255938   4.706   3.360   1.490
11508TIP3    H155939   4.709   3.443   1.537
11508TIP3    H255940   4.623   3.320   1.516
11509TIP3   OH255941   4.800   3.700   0.476
11509TIP3    H155942   4.790   3.715   0.382
11509TIP3    H255943   4.773   3.782   0.517
11510TIP3   OH255944   4.143   3.590   0.663
11510TIP3    H155945   4.160   3.558   0.752
11510TIP3    H255946   4.086   3.524   0.624
11511TIP3   OH255947   5.097   3.667   0.154
11511TIP3    H155948   5.161   3.603   0.125
11511TIP3    H255949   5.095   3.658   0.250
11512TIP3   OH255950   5.067   3.649   0.434
11512TIP3    H155951   4.974   3.658   0.452
11512TIP3    H255952   5.099   3.592   0.504
11513TIP3   OH255953   5.320   2.526   1.658
11513TIP3    H155954   5.263   2.561   1.589
11513TIP3    H255955   5.331   2.434   1.636
11514TIP3   OH255956   4.063   3.209   1.422
11514TIP3    H155957   4.088   3.174   1.508
11514TIP3    H255958   3.985   3.160   1.398
11515TIP3   OH255959   4.321   2.027   1.057
11515TIP3    H155960   4.245   2.016   1.000
11515TIP3    H255961   4.295   2.098   1.117
11516TIP3   OH255962   4.798   2.000   1.400
11516TIP3    H155963   4.844   1.950   1.468
11516TIP3    H255964   4.705   1.988   1.421
11517TIP3   OH255965   5.083   2.375   1.470
11517TIP3    H155966   5.022   2.369   1.544
11517TIP3    H255967   5.096   2.469   1.458
11518TIP3   OH255968   5.209   2.891   0.050
11518TIP3    H155969   5.188   2.903  -0.043
11518TIP3    H255970   5.298   2.923   0.059
11519TIP3   OH255971   4.787   2.243   0.121
11519TIP3    H155972   4.712   2.226   0.178
11519TIP3    H255973   4.753   2.230   0.033
11520TIP3   OH255974   4.329   2.547   1.180
11520TIP3    H155975   4.262   2.546   1.248
11520TIP3    H255976   4.331   2.638   1.150
11521TIP3   OH255977   4.331   2.549   0.670
11521TIP3    H155978   4.236   2.536   0.666
11521TIP3    H255979   4.361   2.531   0.581
11522TIP3   OH255980   4.878   2.582   0.544
11522TIP3    H155981   4.853   2.668   0.510
11522TIP3    H255982   4.949   2.554   0.487
11523TIP3   OH255983   4.804   2.629   1.721
11523TIP3    H155984   4.752   2.549   1.725
11523TIP3    H255985   4.893   2.601   1.743
11524TIP3   OH255986   4.981   2.520   0.797
11524TIP3    H155987   4.934   2.564   0.726
11524TIP3    H255988   5.024   2.446   0.754
11525TIP3   OH255989   4.112   2.550   1.348
11525TIP3    H155990   4.106   2.597   1.431
11525TIP3    H255991   4.070   2.466   1.366
11526TIP3   OH255992   4.488   2.318   0.045
11526TIP3    H155993   4.448   2.292   0.128
11526TIP3    H255994   4.492   2.413   0.049
11527TIP3   OH255995   3.778   2.253   0.739
11527TIP3    H155996   3.836   2.262   0.814
11527TIP3    H255997   3.837   2.242   0.664
11528TIP3   OH255998   3.847   2.360   0.250
11528TIP3    H155999   3.922   2.393   0.201
11528TIP3    H256000   3.795   2.438   0.270
11529TIP3   OH256001   4.922   2.668   1.272
11529TIP3    H156002   4.957   2.613   1.202
11529TIP3    H256003   4.861   2.611   1.320
11530TIP3   OH256004   4.636   2.272   0.753
11530TIP3    H156005   4.546   2.274   0.786
11530TIP3    H256006   4.687   2.233   0.825
11531TIP3   OH256007   4.073   2.459   0.639
11531TIP3    H156008   3.998   2.489   0.587
11531TIP3    H256009   4.090   2.370   0.609
11532TIP3   OH256010   4.400   2.472   0.417
11532TIP3    H156011   4.495   2.466   0.426
11532TIP3    H256012   4.386   2.511   0.331
11533TIP3   OH256013   5.025   2.226   1.074
11533TIP3    H156014   4.981   2.227   1.159
11533TIP3    H256015   4.964   2.183   1.015
11534TIP3   OH256016   4.325   2.553   0.166
11534TIP3    H156017   4.236   2.542   0.133
11534TIP3    H256018   4.371   2.599   0.097
11535TIP3   OH256019   5.373   3.784   1.730
11535TIP3    H156020   5.398   3.822   1.646
11535TIP3    H256021   5.445   3.805   1.789
11536TIP3   OH256022   4.141   3.051   1.660
11536TIP3    H156023   4.205   3.045   1.730
11536TIP3    H256024   4.057   3.058   1.705
11537TIP3   OH256025   4.704   2.591   0.952
11537TIP3    H156026   4.768   2.535   0.908
11537TIP3    H256027   4.670   2.538   1.024
11538TIP3   OH256028   4.179   2.194   0.604
11538TIP3    H156029   4.126   2.118   0.628
11538TIP3    H256030   4.220   2.168   0.521
11539TIP3   OH256031   4.591   2.458   1.172
11539TIP3    H156032   4.504   2.496   1.182
11539TIP3    H256033   4.637   2.483   1.252
11540TIP3   OH256034   4.642   3.017   0.358
11540TIP3    H156035   4.572   2.973   0.310
11540TIP3    H256036   4.600   3.046   0.439
11541TIP3   OH256037   5.357   2.987   1.178
11541TIP3    H156038   5.393   3.037   1.105
11541TIP3    H256039   5.276   2.949   1.144
11542TIP3   OH256040   5.032   2.292   0.230
11542TIP3    H156041   4.948   2.281   0.185
11542TIP3    H256042   5.032   2.384   0.257
11543TIP3   OH256043   4.769   3.082   1.478
11543TIP3    H156044   4.772   3.049   1.568
11543TIP3    H256045   4.743   3.173   1.486
11544TIP3   OH256046   5.087   2.532   0.366
11544TIP3    H156047   5.176   2.507   0.390
11544TIP3    H256048   5.097   2.616   0.320
11545TIP3   OH256049   4.161   2.967   0.904
11545TIP3    H156050   4.218   2.956   0.827
11545TIP3    H256051   4.200   2.910   0.970
11546TIP3   OH256052   4.866   3.170   0.302
11546TIP3    H156053   4.826   3.256   0.309
11546TIP3    H256054   4.793   3.108   0.312
11547TIP3   OH256055   3.866   2.794   1.450
11547TIP3    H156056   3.838   2.751   1.531
11547TIP3    H256057   3.799   2.771   1.387
11548TIP3   OH256058   4.571   2.783   1.672
11548TIP3    H156059   4.507   2.743   1.614
11548TIP3    H256060   4.652   2.735   1.655
11549TIP3   OH256061   4.992   3.335   1.483
11549TIP3    H156062   4.898   3.342   1.465
11549TIP3    H256063   5.001   3.354   1.576
11550TIP3   OH256064   5.552   2.574   0.321
11550TIP3    H156065   5.492   2.537   0.256
11550TIP3    H256066   5.570   2.663   0.290
11551TIP3   OH256067   5.598   3.117   1.576
11551TIP3    H156068   5.509   3.130   1.543
11551TIP3    H256069   5.652   3.103   1.498
11552TIP3   OH256070   5.411   3.390   0.367
11552TIP3    H156071   5.356   3.312   0.371
11552TIP3    H256072   5.456   3.384   0.283
11553TIP3   OH256073   5.125   2.886   1.037
11553TIP3    H156074   5.030   2.876   1.035
11553TIP3    H256075   5.158   2.811   0.988
11554TIP3   OH256076   4.416   3.332   0.691
11554TIP3    H156077   4.442   3.417   0.654
11554TIP3    H256078   4.321   3.329   0.681
11555TIP3   OH256079   3.969   2.771   0.182
11555TIP3    H156080   4.010   2.849   0.220
11555TIP3    H256081   3.875   2.787   0.189
11556TIP3   OH256082   4.506   3.090   0.583
11556TIP3    H156083   4.487   3.176   0.620
11556TIP3    H256084   4.446   3.031   0.628
11557TIP3   OH256085   4.602   3.504   1.267
11557TIP3    H156086   4.662   3.576   1.246
11557TIP3    H256087   4.652   3.449   1.328
11558TIP3   OH256088   4.405   3.605   0.580
11558TIP3    H156089   4.312   3.608   0.601
11558TIP3    H256090   4.440   3.688   0.613
11559TIP3   OH256091   4.903   3.106   1.241
11559TIP3    H156092   4.857   3.094   1.324
11559TIP3    H256093   4.976   3.044   1.245
11560TIP3   OH256094   5.137   3.214   0.138
11560TIP3    H156095   5.191   3.170   0.203
11560TIP3    H256096   5.047   3.203   0.168
11561TIP3   OH256097   5.199   3.535   1.457
11561TIP3    H156098   5.119   3.486   1.442
11561TIP3    H256099   5.195   3.608   1.395
11562TIP3   OH256100   5.602   3.635   0.159
11562TIP3    H156101   5.659   3.685   0.100
11562TIP3    H256102   5.534   3.698   0.184
11563TIP3   OH256103   3.995   2.295   1.392
11563TIP3    H156104   3.904   2.323   1.379
11563TIP3    H256105   3.989   2.226   1.458
11564TIP3   OH256106   5.285   3.095   0.359
11564TIP3    H156107   5.240   3.020   0.398
11564TIP3    H256108   5.378   3.075   0.368
11565TIP3   OH256109   3.997   3.466   1.262
11565TIP3    H156110   4.022   3.383   1.303
11565TIP3    H256111   4.006   3.531   1.331
11566TIP3   OH256112   4.419   3.302   0.266
11566TIP3    H156113   4.492   3.251   0.301
11566TIP3    H256114   4.444   3.393   0.282
11567TIP3   OH256115   4.079   2.999   0.311
11567TIP3    H156116   4.006   3.042   0.355
11567TIP3    H256117   4.124   3.070   0.264
11568TIP3   OH256118   4.897   2.242   1.316
11568TIP3    H156119   4.968   2.264   1.376
11568TIP3    H256120   4.863   2.158   1.349
11569TIP3   OH256121   4.983   2.174   0.473
11569TIP3    H156122   4.996   2.213   0.386
11569TIP3    H256123   5.027   2.235   0.533
11570TIP3   OH256124   4.729   3.405   0.327
11570TIP3    H156125   4.652   3.461   0.336
11570TIP3    H256126   4.779   3.444   0.255
11571TIP3   OH256127   4.659   2.414   0.514
11571TIP3    H156128   4.735   2.473   0.522
11571TIP3    H256129   4.649   2.375   0.601
11572TIP3   OH256130   4.766   2.475   1.395
11572TIP3    H156131   4.764   2.461   1.490
11572TIP3    H256132   4.802   2.393   1.360
11573TIP3   OH256133   4.741   2.082   0.571
11573TIP3    H156134   4.715   2.153   0.630
11573TIP3    H256135   4.827   2.108   0.538
11574TIP3   OH256136   4.498   3.560   0.324
11574TIP3    H156137   4.501   3.645   0.281
11574TIP3    H256138   4.465   3.578   0.412
11575TIP3   OH256139   4.339   2.231   0.279
11575TIP3    H156140   4.332   2.313   0.328
11575TIP3    H256141   4.425   2.196   0.303
11576TIP3   OH256142   5.335   2.282   1.502
11576TIP3    H156143   5.242   2.303   1.491
11576TIP3    H256144   5.360   2.238   1.421
11577TIP3   OH256145   5.217   2.658   0.891
11577TIP3    H156146   5.135   2.614   0.867
11577TIP3    H256147   5.262   2.596   0.947
11578TIP3   OH256148   4.177   3.219   0.165
11578TIP3    H156149   4.241   3.267   0.217
11578TIP3    H256150   4.230   3.165   0.105
11579TIP3   OH256151   4.044   2.522   0.091
11579TIP3    H156152   4.017   2.609   0.119
11579TIP3    H256153   4.025   2.520  -0.003
11580TIP3   OH256154   5.347   3.604   1.057
11580TIP3    H156155   5.334   3.677   0.996
11580TIP3    H256156   5.441   3.603   1.075
11581TIP3   OH256157   4.071   1.999   0.939
11581TIP3    H156158   4.060   1.988   0.844
11581TIP3    H256159   4.037   1.918   0.976
11582TIP3   OH256160   3.953   3.414   0.548
11582TIP3    H156161   3.890   3.438   0.616
11582TIP3    H256162   3.935   3.474   0.476
11583TIP3   OH256163   3.917   3.689   1.726
11583TIP3    H156164   3.982   3.669   1.794
11583TIP3    H256165   3.886   3.604   1.697
11584TIP3   OH256166   4.338   3.518   1.860
11584TIP3    H156167   4.424   3.487   1.888
11584TIP3    H256168   4.324   3.478   1.775
11585TIP3   OH256169   4.863   3.503   0.113
11585TIP3    H156170   4.823   3.467   0.034
11585TIP3    H256171   4.952   3.526   0.086
11586TIP3   OH256172   4.999   3.384   1.751
11586TIP3    H156173   4.977   3.300   1.793
11586TIP3    H256174   5.074   3.416   1.801
11587TIP3   OH256175   5.244   3.461   0.054
11587TIP3    H156176   5.209   3.376   0.078
11587TIP3    H256177   5.337   3.446   0.036
11588TIP3   OH256178   3.892   3.055   1.787
11588TIP3    H156179   3.896   2.960   1.782
11588TIP3    H256180   3.819   3.080   1.731
11589TIP3   OH256181   4.347   3.045   0.041
11589TIP3    H156182   4.385   2.997   0.114
11589TIP3    H256183   4.358   2.987  -0.034
11590TIP3   OH256184   4.556   3.051   1.749
11590TIP3    H156185   4.531   3.102   1.671
11590TIP3    H256186   4.564   2.961   1.717
11591TIP3   OH256187   5.114   3.076   1.493
11591TIP3    H156188   5.205   3.101   1.475
11591TIP3    H256189   5.065   3.159   1.487
11592TIP3   OH256190   3.966   2.788   1.767
11592TIP3    H156191   4.041   2.737   1.735
11592TIP3    H256192   3.972   2.783   1.862
11593TIP3   OH256193   4.443   2.871   0.234
11593TIP3    H156194   4.385   2.835   0.300
11593TIP3    H256195   4.473   2.795   0.184
11594TIP3   OH256196   4.385   2.671   1.491
11594TIP3    H156197   4.305   2.724   1.488
11594TIP3    H256198   4.441   2.708   1.423
11595TIP3   OH256199   4.556   2.679   0.054
11595TIP3    H156200   4.564   2.687  -0.041
11595TIP3    H256201   4.647   2.675   0.086
11596TIP3   OH256202   4.875   2.889   1.876
11596TIP3    H156203   4.970   2.880   1.887
11596TIP3    H256204   4.852   2.822   1.812
11597TIP3   OH256205   5.471   2.994  16.007
11597TIP3    H156206   5.459   2.987  15.912
11597TIP3    H256207   5.484   3.087  16.023
11598TIP3   OH256208   4.432   2.410   1.563
11598TIP3    H156209   4.437   2.351   1.488
11598TIP3    H256210   4.415   2.496   1.524
11599TIP3   OH256211   4.459   2.250   1.331
11599TIP3    H156212   4.510   2.294   1.264
11599TIP3    H256213   4.371   2.243   1.294
11600TIP3   OH256214   4.577   2.778   1.331
11600TIP3    H156215   4.672   2.790   1.334
11600TIP3    H256216   4.544   2.858   1.291
11601TIP3   OH256217   5.043   2.540   1.838
11601TIP3    H156218   5.057   2.446   1.832
11601TIP3    H256219   5.130   2.578   1.830
11602TIP3   OH256220   5.182   2.849   1.629
11602TIP3    H156221   5.148   2.928   1.587
11602TIP3    H256222   5.277   2.860   1.629
11603TIP3   OH256223   4.265   2.465   1.783
11603TIP3    H156224   4.184   2.414   1.776
11603TIP3    H256225   4.310   2.450   1.700
11604TIP3   OH256226   4.517   1.982   1.399
11604TIP3    H156227   4.496   2.073   1.377
11604TIP3    H256228   4.448   1.931   1.357
11605TIP3   OH256229   4.643   2.405   1.740
11605TIP3    H156230   4.607   2.363   1.819
11605TIP3    H256231   4.571   2.402   1.677
11606TIP3   OH256232   4.903   2.328   1.666
11606TIP3    H156233   4.815   2.331   1.704
11606TIP3    H256234   4.953   2.272   1.726
11607TIP3   OH256235   5.084   2.204   1.843
11607TIP3    H156236   5.085   2.109   1.830
11607TIP3    H256237   5.061   2.216   1.935
11608TIP3   OH256238   4.063   2.271   1.761
11608TIP3    H156239   4.059   2.192   1.707
11608TIP3    H256240   4.072   2.239   1.851
11609TIP3   OH256241   4.511   1.903   1.663
11609TIP3    H156242   4.568   1.826   1.656
11609TIP3    H256243   4.504   1.935   1.573
11610TIP3   OH256244   4.588   2.067   1.869
11610TIP3    H156245   4.564   2.012   1.795
11610TIP3    H256246   4.525   2.139   1.868
11611TIP3   OH256247   4.544   3.776   0.157
11611TIP3    H156248   4.637   3.782   0.179
11611TIP3    H256249   4.540   3.797   0.064
11612TIP3   OH256250   3.902   3.244   0.104
11612TIP3    H156251   3.996   3.246   0.124
11612TIP3    H256252   3.897   3.218   0.013
11613TIP3   OH256253   3.777   3.743   0.654
11613TIP3    H156254   3.720   3.711   0.584
11613TIP3    H256255   3.797   3.666   0.707
11614TIP3   OH256256   3.846   3.526   0.811
11614TIP3    H156257   3.810   3.448   0.852
11614TIP3    H256258   3.895   3.570   0.881
11615TIP3   OH256259   5.611   3.606   1.131
11615TIP3    H156260   5.609   3.618   1.226
11615TIP3    H256261   5.687   3.657   1.102
11616TIP3   OH256262   5.549   3.591   1.408
11616TIP3    H156263   5.499   3.518   1.374
11616TIP3    H256264   5.600   3.553   1.481
11617TIP3   OH256265   5.413   3.180   1.888
11617TIP3    H156266   5.331   3.189   1.936
11617TIP3    H256267   5.468   3.251   1.920
11618TIP3   OH256268   5.543   3.011   0.428
11618TIP3    H156269   5.618   3.071   0.420
11618TIP3    H256270   5.551   2.975   0.517
11619TIP3   OH256271   5.530   2.910   0.696
11619TIP3    H156272   5.479   2.830   0.682
11619TIP3    H256273   5.612   2.879   0.736
11620TIP3   OH256274   5.555   3.104   0.968
11620TIP3    H156275   5.610   3.037   1.009
11620TIP3    H256276   5.595   3.187   0.993
11621TIP3   OH256277   5.386   3.384   1.316
11621TIP3    H156278   5.316   3.429   1.363
11621TIP3    H256279   5.351   3.371   1.228
11622TIP3   OH256280   5.587   2.834   0.218
11622TIP3    H156281   5.541   2.873   0.144
11622TIP3    H256282   5.570   2.894   0.292
11623TIP3   OH256283   5.390   2.483   0.127
11623TIP3    H156284   5.447   2.500   0.052
11623TIP3    H256285   5.332   2.413   0.097
11624TIP3   OH256286   5.356   2.693   0.652
11624TIP3    H156287   5.356   2.606   0.612
11624TIP3    H256288   5.311   2.681   0.736
11625TIP3   OH256289   3.835   2.871   1.068
11625TIP3    H156290   3.845   2.854   0.974
11625TIP3    H256291   3.919   2.844   1.106
11626TIP3   OH256292   5.457   2.871   1.637
11626TIP3    H156293   5.508   2.792   1.618
11626TIP3    H256294   5.512   2.943   1.605
11627TIP3   OH256295   5.574   2.623   1.610
11627TIP3    H156296   5.487   2.588   1.630
11627TIP3    H256297   5.634   2.553   1.635
11628TIP3   OH256298   5.347   2.449   0.488
11628TIP3    H156299   5.369   2.356   0.490
11628TIP3    H256300   5.417   2.489   0.435
11629TIP3   OH256301   5.369   2.478   1.044
11629TIP3    H156302   5.461   2.490   1.023
11629TIP3    H256303   5.363   2.493   1.138
11630TIP3   OH256304   5.395   2.554   1.313
11630TIP3    H156305   5.315   2.585   1.356
11630TIP3    H256306   5.446   2.634   1.299
11631TIP3   OH256307   3.836   2.400   1.672
11631TIP3    H156308   3.921   2.369   1.705
11631TIP3    H256309   3.780   2.322   1.675
11632TIP3   OH256310   5.627   1.981   1.837
11632TIP3    H156311   5.691   1.918   1.805
11632TIP3    H256312   5.624   2.048   1.769
11633TIP3   OH256313   5.399   2.176   0.499
11633TIP3    H156314   5.420   2.134   0.582
11633TIP3    H256315   5.333   2.119   0.460
11634TIP3   OH256316   3.940   2.244   0.964
11634TIP3    H156317   3.978   2.156   0.966
11634TIP3    H256318   4.014   2.302   0.981
11635TIP3   OH256319   3.752   2.527   1.034
11635TIP3    H156320   3.823   2.528   0.970
11635TIP3    H256321   3.783   2.586   1.103
11636TIP3   OH256322   5.557   2.163   1.647
11636TIP3    H156323   5.479   2.206   1.680
11636TIP3    H256324   5.527   2.112   1.572
11637TIP3   OH256325   5.566   2.156   0.142
11637TIP3    H156326   5.582   2.162   0.048
11637TIP3    H256327   5.625   2.221   0.180
11638TIP3   OH256328   3.814   2.164   0.443
11638TIP3    H156329   3.719   2.164   0.455
11638TIP3    H256330   3.831   2.235   0.381
11639TIP3   OH256331   5.280   3.668   0.671
11639TIP3    H156332   5.349   3.670   0.605
11639TIP3    H256333   5.313   3.723   0.742
11640TIP3   OH256334   3.800   2.008   1.293
11640TIP3    H156335   3.731   1.997   1.358
11640TIP3    H256336   3.767   2.076   1.234
11641TIP3   OH256337   4.013   3.383   1.711
11641TIP3    H156338   3.924   3.387   1.675
11641TIP3    H256339   4.001   3.351   1.800
11642TIP3   OH256340   4.339   3.479   1.347
11642TIP3    H156341   4.307   3.566   1.322
11642TIP3    H256342   4.433   3.481   1.327
11643TIP3   OH256343   4.720   3.604   1.621
11643TIP3    H156344   4.730   3.574   1.711
11643TIP3    H256345   4.802   3.651   1.603
11644TIP3   OH256346   4.960   3.737   1.585
11644TIP3    H156347   5.029   3.681   1.549
11644TIP3    H256348   4.998   3.774   1.665
11645TIP3   OH256349   5.465   1.962   1.465
11645TIP3    H156350   5.395   1.981   1.403
11645TIP3    H256351   5.489   1.871   1.447
11646TIP3   OH256352   4.040   3.784   1.362
11646TIP3    H156353   3.959   3.819   1.327
11646TIP3    H256354   4.049   3.825   1.448
11647TIP3   OH256355   4.296   3.743   1.273
11647TIP3    H156356   4.206   3.757   1.302
11647TIP3    H256357   4.301   3.787   1.188
11648TIP3   OH256358   4.751   3.722   1.176
11648TIP3    H156359   4.696   3.762   1.109
11648TIP3    H256360   4.762   3.791   1.242
11649TIP3   OH256361   4.977   3.590   1.265
11649TIP3    H156362   4.899   3.636   1.234
11649TIP3    H256363   5.048   3.654   1.256
11650TIP3   OH256364   5.214   3.737   1.261
11650TIP3    H156365   5.241   3.828   1.252
11650TIP3    H256366   5.260   3.691   1.191
11651TIP3   OH256367   4.001   3.627   1.033
11651TIP3    H156368   3.996   3.579   1.116
11651TIP3    H256369   4.079   3.591   0.989
11652TIP3   OH256370   4.215   3.506   0.916
11652TIP3    H156371   4.201   3.414   0.939
11652TIP3    H256372   4.302   3.526   0.950
11653TIP3   OH256373   4.477   3.532   1.019
11653TIP3    H156374   4.486   3.442   0.988
11653TIP3    H256375   4.509   3.530   1.109
11654TIP3   OH256376   4.799   2.107   0.914
11654TIP3    H156377   4.739   2.036   0.935
11654TIP3    H256378   4.873   2.064   0.872
11655TIP3   OH256379   5.301   1.946   0.908
11655TIP3    H156380   5.363   2.001   0.859
11655TIP3    H256381   5.216   1.985   0.891
11656TIP3   OH256382   5.484   2.048   0.731
11656TIP3    H156383   5.549   1.982   0.706
11656TIP3    H256384   5.536   2.127   0.748
11657TIP3   OH256385   4.037   1.962   0.667
11657TIP3    H156386   3.945   1.946   0.644
11657TIP3    H256387   4.080   1.878   0.653
11658TIP3   OH256388   3.946   1.964   0.284
11658TIP3    H156389   4.008   2.017   0.233
11658TIP3    H256390   3.901   2.027   0.340
11659TIP3   OH256391   4.525   1.935   0.686
11659TIP3    H156392   4.596   1.985   0.645
11659TIP3    H256393   4.546   1.937   0.780
11660TIP3   OH256394   5.029   1.986   0.817
11660TIP3    H156395   5.056   1.970   0.726
11660TIP3    H256396   5.007   1.899   0.851
11661TIP3   OH256397   5.200   2.005   0.404
11661TIP3    H156398   5.122   2.059   0.417
11661TIP3    H256399   5.168   1.915   0.414
11662TIP3   OH256400   3.905   3.590   0.345
11662TIP3    H156401   3.833   3.584   0.281
11662TIP3    H256402   3.930   3.683   0.344
11663TIP3   OH256403   4.134   2.103   0.134
11663TIP3    H156404   4.174   2.110   0.047
11663TIP3    H256405   4.197   2.143   0.193
11664TIP3   OH256406   4.606   2.202   0.345
11664TIP3    H156407   4.642   2.130   0.396
11664TIP3    H256408   4.628   2.281   0.395
11665TIP3   OH256409   4.814   3.755   0.206
11665TIP3    H156410   4.896   3.799   0.183
11665TIP3    H256411   4.824   3.666   0.171
11666TIP3   OH256412   5.467   3.646   0.468
11666TIP3    H156413   5.452   3.557   0.435
11666TIP3    H256414   5.460   3.702   0.391
11667TIP3   OH256415   4.049   2.024   1.620
11667TIP3    H156416   3.989   1.956   1.649
11667TIP3    H256417   4.130   2.007   1.668
11668TIP3   OH256418   4.253   1.957   1.797
11668TIP3    H156419   4.337   1.926   1.764
11668TIP3    H256420   4.214   1.881   1.840
11669TIP3   OH256421   4.130   3.703   0.092
11669TIP3    H156422   4.048   3.695   0.142
11669TIP3    H256423   4.163   3.613   0.085
11670TIP3   OH256424   5.109   1.928   1.807
11670TIP3    H156425   5.096   1.880   1.888
11670TIP3    H256426   5.202   1.914   1.786
11671TIP3   OH256427   5.375   3.512   1.679
11671TIP3    H156428   5.313   3.510   1.606
11671TIP3    H256429   5.375   3.604   1.707
11672TIP3   OH256430   6.826   2.915   0.668
11672TIP3    H156431   6.823   3.010   0.659
11672TIP3    H256432   6.767   2.882   0.601
11673TIP3   OH256433   6.699   2.837   1.039
11673TIP3    H156434   6.724   2.792   1.119
11673TIP3    H256435   6.660   2.768   0.985
11674TIP3   OH256436   5.941   2.773   1.187
11674TIP3    H156437   5.949   2.698   1.245
11674TIP3    H256438   6.031   2.791   1.158
11675TIP3   OH256439   7.103   3.135   0.886
11675TIP3    H156440   7.056   3.066   0.933
11675TIP3    H256441   7.124   3.200   0.953
11676TIP3   OH256442   6.077   3.232   0.977
11676TIP3    H156443   6.050   3.143   0.954
11676TIP3    H256444   6.172   3.225   0.991
11677TIP3   OH256445   5.744   2.566   0.524
11677TIP3    H156446   5.712   2.635   0.582
11677TIP3    H256447   5.677   2.559   0.456
11678TIP3   OH256448   5.777   2.824   0.817
11678TIP3    H156449   5.806   2.734   0.834
11678TIP3    H256450   5.857   2.876   0.824
11679TIP3   OH256451   6.822   3.614   0.920
11679TIP3    H156452   6.842   3.547   0.854
11679TIP3    H256453   6.803   3.563   0.999
11680TIP3   OH256454   6.564   3.083   1.063
11680TIP3    H156455   6.602   3.002   1.028
11680TIP3    H256456   6.633   3.119   1.118
11681TIP3   OH256457   6.899   2.499   1.080
11681TIP3    H156458   6.911   2.406   1.095
11681TIP3    H256459   6.871   2.506   0.989
11682TIP3   OH256460   6.232   2.307   0.802
11682TIP3    H156461   6.240   2.392   0.759
11682TIP3    H256462   6.182   2.253   0.741
11683TIP3   OH256463   6.941   2.285   0.668
11683TIP3    H156464   7.008   2.256   0.730
11683TIP3    H256465   6.975   2.369   0.634
11684TIP3   OH256466   5.869   2.566   0.876
11684TIP3    H156467   5.933   2.529   0.937
11684TIP3    H256468   5.890   2.526   0.791
11685TIP3   OH256469   6.344   2.707   0.857
11685TIP3    H156470   6.430   2.674   0.881
11685TIP3    H256471   6.309   2.642   0.796
11686TIP3   OH256472   6.097   2.227   1.219
11686TIP3    H156473   6.072   2.287   1.149
11686TIP3    H256474   6.027   2.235   1.284
11687TIP3   OH256475   6.806   3.168   0.568
11687TIP3    H156476   6.799   3.178   0.474
11687TIP3    H256477   6.745   3.232   0.604
11688TIP3   OH256478   6.353   2.989   1.214
11688TIP3    H156479   6.302   3.062   1.250
11688TIP3    H256480   6.423   3.030   1.165
11689TIP3   OH256481   7.104   2.227   0.881
11689TIP3    H156482   7.026   2.204   0.931
11689TIP3    H256483   7.155   2.283   0.940
11690TIP3   OH256484   6.061   2.398   1.003
11690TIP3    H156485   6.118   2.455   1.055
11690TIP3    H256486   6.119   2.361   0.937
11691TIP3   OH256487   6.203   3.200   1.317
11691TIP3    H156488   6.212   3.294   1.303
11691TIP3    H256489   6.112   3.188   1.345
11692TIP3   OH256490   5.761   3.177   0.395
11692TIP3    H156491   5.761   3.212   0.306
11692TIP3    H256492   5.789   3.251   0.450
11693TIP3   OH256493   7.147   3.346   1.076
11693TIP3    H156494   7.053   3.344   1.091
11693TIP3    H256495   7.168   3.438   1.061
11694TIP3   OH256496   7.128   2.117   1.165
11694TIP3    H156497   7.037   2.135   1.144
11694TIP3    H256498   7.173   2.200   1.154
11695TIP3   OH256499   6.447   1.917   0.970
11695TIP3    H156500   6.422   1.824   0.972
11695TIP3    H256501   6.369   1.963   1.000
11696TIP3   OH256502   6.916   3.460   0.705
11696TIP3    H156503   6.961   3.377   0.691
11696TIP3    H256504   6.986   3.524   0.713
11697TIP3   OH256505   7.105   3.269   0.645
11697TIP3    H156506   7.081   3.208   0.574
11697TIP3    H256507   7.111   3.214   0.723
11698TIP3   OH256508   7.244   3.105   1.487
11698TIP3    H156509   7.245   3.051   1.408
11698TIP3    H256510   7.257   3.194   1.454
11699TIP3   OH256511   6.705   2.852   0.418
11699TIP3    H156512   6.641   2.919   0.396
11699TIP3    H256513   6.776   2.865   0.356
11700TIP3   OH256514   6.707   2.686   0.108
11700TIP3    H156515   6.755   2.701   0.190
11700TIP3    H256516   6.774   2.695   0.040
11701TIP3   OH256517   7.041   2.865   0.503
11701TIP3    H156518   6.979   2.897   0.569
11701TIP3    H256519   7.057   2.774   0.528
11702TIP3   OH256520   6.995   2.671   1.411
11702TIP3    H156521   6.992   2.753   1.460
11702TIP3    H256522   6.923   2.678   1.349
11703TIP3   OH256523   6.214   2.900   0.698
11703TIP3    H156524   6.198   2.861   0.612
11703TIP3    H256525   6.269   2.836   0.743
11704TIP3   OH256526   6.359   3.253   0.962
11704TIP3    H156527   6.366   3.263   0.867
11704TIP3    H256528   6.434   3.200   0.987
11705TIP3   OH256529   6.200   2.811   1.070
11705TIP3    H156530   6.255   2.785   0.997
11705TIP3    H256531   6.255   2.873   1.120
11706TIP3   OH256532   6.880   3.352   1.136
11706TIP3    H156533   6.863   3.420   1.201
11706TIP3    H256534   6.841   3.273   1.174
11707TIP3   OH256535   6.363   3.226   1.543
11707TIP3    H156536   6.302   3.284   1.588
11707TIP3    H256537   6.317   3.199   1.464
11708TIP3   OH256538   6.944   2.796   0.255
11708TIP3    H156539   6.977   2.818   0.342
11708TIP3    H256540   7.001   2.844   0.195
11709TIP3   OH256541   6.044   2.829   1.512
11709TIP3    H156542   6.050   2.913   1.557
11709TIP3    H256543   5.954   2.824   1.480
11710TIP3   OH256544   6.653   3.386   0.652
11710TIP3    H156545   6.736   3.425   0.677
11710TIP3    H256546   6.640   3.413   0.561
11711TIP3   OH256547   6.160   3.403   1.610
11711TIP3    H156548   6.163   3.436   1.520
11711TIP3    H256549   6.067   3.398   1.631
11712TIP3   OH256550   6.140   2.811   0.436
11712TIP3    H156551   6.082   2.880   0.404
11712TIP3    H256552   6.091   2.730   0.423
11713TIP3   OH256553   5.741   3.037   1.352
11713TIP3    H156554   5.734   3.015   1.259
11713TIP3    H256555   5.751   2.953   1.396
11714TIP3   OH256556   5.693   3.340   1.032
11714TIP3    H156557   5.783   3.327   1.062
11714TIP3    H256558   5.661   3.414   1.083
11715TIP3   OH256559   6.599   3.357   1.489
11715TIP3    H156560   6.597   3.439   1.537
11715TIP3    H256561   6.517   3.313   1.511
11716TIP3   OH256562   6.672   3.727   0.471
11716TIP3    H156563   6.674   3.752   0.379
11716TIP3    H256564   6.651   3.808   0.517
11717TIP3   OH256565   6.022   3.591   0.669
11717TIP3    H156566   6.045   3.557   0.755
11717TIP3    H256567   5.971   3.520   0.628
11718TIP3   OH256568   7.021   3.688   0.244
11718TIP3    H156569   7.003   3.639   0.163
11718TIP3    H256570   6.986   3.633   0.314
11719TIP3   OH256571   6.891   3.564   0.447
11719TIP3    H156572   6.810   3.613   0.463
11719TIP3    H256573   6.909   3.519   0.529
11720TIP3   OH256574   7.173   2.603   1.654
11720TIP3    H156575   7.164   2.584   1.561
11720TIP3    H256576   7.250   2.554   1.682
11721TIP3   OH256577   5.948   3.210   1.424
11721TIP3    H156578   5.972   3.180   1.512
11721TIP3    H256579   5.874   3.155   1.399
11722TIP3   OH256580   6.202   2.026   1.056
11722TIP3    H156581   6.125   2.018   0.999
11722TIP3    H256582   6.182   2.100   1.113
11723TIP3   OH256583   6.683   1.997   1.397
11723TIP3    H156584   6.732   1.949   1.464
11723TIP3    H256585   6.591   1.986   1.423
11724TIP3   OH256586   6.995   2.392   1.476
11724TIP3    H156587   6.929   2.377   1.544
11724TIP3    H256588   6.989   2.485   1.456
11725TIP3   OH256589   7.099   2.914   0.063
11725TIP3    H156590   7.122   2.911  -0.030
11725TIP3    H256591   7.095   3.007   0.084
11726TIP3   OH256592   6.679   2.238   0.124
11726TIP3    H156593   6.606   2.226   0.184
11726TIP3    H256594   6.644   2.214   0.038
11727TIP3   OH256595   6.220   2.551   1.168
11727TIP3    H156596   6.173   2.555   1.251
11727TIP3    H256597   6.220   2.642   1.136
11728TIP3   OH256598   6.214   2.548   0.671
11728TIP3    H156599   6.120   2.532   0.668
11728TIP3    H256600   6.244   2.530   0.582
11729TIP3   OH256601   6.722   2.590   0.508
11729TIP3    H156602   6.710   2.681   0.481
11729TIP3    H256603   6.817   2.582   0.522
11730TIP3   OH256604   6.683   2.595   1.656
11730TIP3    H156605   6.634   2.523   1.696
11730TIP3    H256606   6.768   2.593   1.698
11731TIP3   OH256607   6.817   2.499   0.818
11731TIP3    H156608   6.843   2.562   0.752
11731TIP3    H256609   6.834   2.413   0.778
11732TIP3   OH256610   5.989   2.546   1.345
11732TIP3    H156611   6.049   2.568   1.416
11732TIP3    H256612   5.954   2.459   1.369
11733TIP3   OH256613   6.376   2.312   0.045
11733TIP3    H156614   6.340   2.285   0.130
11733TIP3    H256615   6.383   2.407   0.052
11734TIP3   OH256616   5.659   2.254   0.743
11734TIP3    H156617   5.719   2.262   0.817
11734TIP3    H256618   5.716   2.242   0.667
11735TIP3   OH256619   5.731   2.359   0.250
11735TIP3    H156620   5.806   2.393   0.199
11735TIP3    H256621   5.681   2.437   0.273
11736TIP3   OH256622   6.770   2.670   1.247
11736TIP3    H156623   6.818   2.614   1.187
11736TIP3    H256624   6.718   2.610   1.301
11737TIP3   OH256625   6.515   2.265   0.752
11737TIP3    H156626   6.427   2.273   0.788
11737TIP3    H256627   6.568   2.232   0.825
11738TIP3   OH256628   5.959   2.448   0.645
11738TIP3    H156629   5.888   2.473   0.586
11738TIP3    H256630   5.984   2.359   0.617
11739TIP3   OH256631   6.273   2.467   0.415
11739TIP3    H156632   6.367   2.457   0.430
11739TIP3    H256633   6.266   2.509   0.330
11740TIP3   OH256634   6.881   2.216   1.078
11740TIP3    H156635   6.845   2.227   1.166
11740TIP3    H256636   6.807   2.187   1.025
11741TIP3   OH256637   6.223   2.557   0.162
11741TIP3    H156638   6.139   2.554   0.116
11741TIP3    H256639   6.282   2.603   0.103
11742TIP3   OH256640   7.237   3.789   1.719
11742TIP3    H156641   7.241   3.847   1.643
11742TIP3    H256642   7.328   3.761   1.733
11743TIP3   OH256643   6.022   3.060   1.666
11743TIP3    H156644   6.090   3.054   1.733
11743TIP3    H256645   5.941   3.068   1.715
11744TIP3   OH256646   6.581   2.590   0.947
11744TIP3    H156647   6.655   2.551   0.900
11744TIP3    H256648   6.560   2.527   1.016
11745TIP3   OH256649   6.067   2.191   0.602
11745TIP3    H156650   6.015   2.115   0.626
11745TIP3    H256651   6.110   2.166   0.521
11746TIP3   OH256652   6.478   2.442   1.173
11746TIP3    H156653   6.395   2.489   1.178
11746TIP3    H256654   6.525   2.468   1.252
11747TIP3   OH256655   6.511   3.044   0.344
11747TIP3    H156656   6.446   2.991   0.298
11747TIP3    H256657   6.472   3.063   0.429
11748TIP3   OH256658   7.200   2.984   1.222
11748TIP3    H156659   7.261   2.955   1.154
11748TIP3    H256660   7.114   2.978   1.182
11749TIP3   OH256661   6.931   2.277   0.227
11749TIP3    H156662   6.847   2.279   0.182
11749TIP3    H256663   6.962   2.367   0.226
11750TIP3   OH256664   6.692   3.070   1.499
11750TIP3    H156665   6.703   3.027   1.583
11750TIP3    H256666   6.657   3.157   1.521
11751TIP3   OH256667   7.043   2.530   0.265
11751TIP3    H156668   7.047   2.527   0.360
11751TIP3    H256669   7.008   2.617   0.245
11752TIP3   OH256670   6.025   2.952   0.893
11752TIP3    H156671   6.086   2.947   0.819
11752TIP3    H256672   6.070   2.904   0.963
11753TIP3   OH256673   6.740   3.188   0.292
11753TIP3    H156674   6.707   3.275   0.315
11753TIP3    H256675   6.663   3.131   0.300
11754TIP3   OH256676   5.762   2.806   1.495
11754TIP3    H156677   5.783   2.788   1.586
11754TIP3    H256678   5.695   2.741   1.472
11755TIP3   OH256679   6.486   2.791   1.669
11755TIP3    H156680   6.455   2.788   1.579
11755TIP3    H256681   6.565   2.736   1.669
11756TIP3   OH256682   6.882   3.338   1.479
11756TIP3    H156683   6.788   3.342   1.463
11756TIP3    H256684   6.891   3.349   1.573
11757TIP3   OH256685   6.977   2.927   1.044
11757TIP3    H156686   6.884   2.916   1.025
11757TIP3    H256687   7.020   2.854   1.000
11758TIP3   OH256688   6.311   3.331   0.696
11758TIP3    H156689   6.354   3.412   0.668
11758TIP3    H256690   6.219   3.345   0.675
11759TIP3   OH256691   5.863   2.800   0.162
11759TIP3    H156692   5.902   2.863   0.222
11759TIP3    H256693   5.769   2.807   0.177
11760TIP3   OH256694   6.381   3.091   0.577
11760TIP3    H156695   6.373   3.175   0.620
11760TIP3    H256696   6.326   3.032   0.628
11761TIP3   OH256697   6.487   3.500   1.268
11761TIP3    H156698   6.543   3.575   1.248
11761TIP3    H256699   6.540   3.445   1.325
11762TIP3   OH256700   6.287   3.604   0.586
11762TIP3    H156701   6.195   3.615   0.610
11762TIP3    H256702   6.330   3.682   0.621
11763TIP3   OH256703   6.780   3.110   1.238
11763TIP3    H156704   6.750   3.091   1.327
11763TIP3    H256705   6.850   3.047   1.223
11764TIP3   OH256706   7.049   3.186   0.139
11764TIP3    H156707   7.082   3.158   0.224
11764TIP3    H256708   6.965   3.227   0.158
11765TIP3   OH256709   7.083   3.535   1.455
11765TIP3    H156710   7.008   3.477   1.441
11765TIP3    H256711   7.074   3.603   1.388
11766TIP3   OH256712   5.890   2.283   1.397
11766TIP3    H156713   5.798   2.305   1.384
11766TIP3    H256714   5.889   2.216   1.465
11767TIP3   OH256715   7.146   3.088   0.375
11767TIP3    H156716   7.120   3.009   0.424
11767TIP3    H256717   7.238   3.100   0.396
11768TIP3   OH256718   5.881   3.479   1.261
11768TIP3    H156719   5.909   3.401   1.309
11768TIP3    H256720   5.899   3.552   1.321
11769TIP3   OH256721   6.323   3.288   0.239
11769TIP3    H156722   6.395   3.238   0.279
11769TIP3    H256723   6.338   3.378   0.267
11770TIP3   OH256724   5.966   3.001   0.323
11770TIP3    H156725   5.894   3.047   0.366
11770TIP3    H256726   6.015   3.069   0.277
11771TIP3   OH256727   6.786   2.245   1.332
11771TIP3    H156728   6.852   2.267   1.398
11771TIP3    H256729   6.749   2.162   1.362
11772TIP3   OH256730   6.849   2.148   0.452
11772TIP3    H156731   6.874   2.195   0.373
11772TIP3    H256732   6.882   2.202   0.524
11773TIP3   OH256733   6.600   3.414   0.382
11773TIP3    H156734   6.513   3.451   0.395
11773TIP3    H256735   6.633   3.458   0.303
11774TIP3   OH256736   6.526   2.403   0.508
11774TIP3    H156737   6.596   2.468   0.506
11774TIP3    H256738   6.527   2.370   0.598
11775TIP3   OH256739   6.637   2.486   1.398
11775TIP3    H156740   6.650   2.516   1.488
11775TIP3    H256741   6.681   2.400   1.395
11776TIP3   OH256742   6.615   2.073   0.572
11776TIP3    H156743   6.593   2.147   0.629
11776TIP3    H256744   6.698   2.099   0.531
11777TIP3   OH256745   6.359   3.545   0.330
11777TIP3    H156746   6.373   3.627   0.283
11777TIP3    H256747   6.329   3.571   0.417
11778TIP3   OH256748   6.221   2.225   0.281
11778TIP3    H156749   6.215   2.307   0.330
11778TIP3    H256750   6.307   2.190   0.303
11779TIP3   OH256751   7.225   2.236   1.466
11779TIP3    H156752   7.136   2.269   1.480
11779TIP3    H256753   7.275   2.311   1.435
11780TIP3   OH256754   7.085   2.700   0.923
11780TIP3    H156755   7.037   2.645   0.862
11780TIP3    H256756   7.119   2.640   0.988
11781TIP3   OH256757   6.062   3.220   0.176
11781TIP3    H156758   6.133   3.270   0.218
11781TIP3    H256759   6.106   3.164   0.112
11782TIP3   OH256760   5.910   2.532   0.089
11782TIP3    H156761   5.896   2.624   0.111
11782TIP3    H256762   5.892   2.527  -0.005
11783TIP3   OH256763   7.234   3.615   1.064
11783TIP3    H156764   7.220   3.684   0.999
11783TIP3    H256765   7.328   3.600   1.063
11784TIP3   OH256766   5.950   2.002   0.939
11784TIP3    H156767   5.943   1.992   0.844
11784TIP3    H256768   5.918   1.919   0.975
11785TIP3   OH256769   5.828   3.405   0.556
11785TIP3    H156770   5.780   3.440   0.631
11785TIP3    H256771   5.815   3.469   0.487
11786TIP3   OH256772   5.811   3.693   1.729
11786TIP3    H156773   5.873   3.678   1.800
11786TIP3    H256774   5.793   3.605   1.695
11787TIP3   OH256775   6.226   3.512   1.856
11787TIP3    H156776   6.307   3.470   1.885
11787TIP3    H256777   6.211   3.476   1.768
11788TIP3   OH256778   6.632   3.524   0.138
11788TIP3    H156779   6.584   3.472   0.074
11788TIP3    H256780   6.724   3.517   0.110
11789TIP3   OH256781   6.884   3.376   1.751
11789TIP3    H156782   6.851   3.295   1.790
11789TIP3    H256783   6.958   3.400   1.806
11790TIP3   OH256784   7.233   3.394   0.071
11790TIP3    H156785   7.169   3.328   0.099
11790TIP3    H256786   7.180   3.460   0.026
11791TIP3   OH256787   5.772   3.049   1.787
11791TIP3    H156788   5.777   2.953   1.782
11791TIP3    H256789   5.702   3.073   1.726
11792TIP3   OH256790   6.207   3.038   0.037
11792TIP3    H156791   6.252   2.996   0.110
11792TIP3    H256792   6.233   2.988  -0.040
11793TIP3   OH256793   6.438   3.058   1.750
11793TIP3    H156794   6.423   3.103   1.667
11793TIP3    H256795   6.468   2.971   1.725
11794TIP3   OH256796   6.988   3.012   1.501
11794TIP3    H156797   7.072   3.057   1.497
11794TIP3    H256798   6.923   3.082   1.491
11795TIP3   OH256799   5.858   2.774   1.754
11795TIP3    H156800   5.948   2.755   1.729
11795TIP3    H256801   5.860   2.775   1.850
11796TIP3   OH256802   6.325   2.875   0.228
11796TIP3    H156803   6.275   2.838   0.300
11796TIP3    H256804   6.361   2.799   0.182
11797TIP3   OH256805   6.233   2.641   1.452
11797TIP3    H156806   6.176   2.712   1.482
11797TIP3    H256807   6.314   2.684   1.424
11798TIP3   OH256808   6.441   2.678   0.043
11798TIP3    H156809   6.451   2.687  -0.052
11798TIP3    H256810   6.531   2.677   0.077
11799TIP3   OH256811   6.772   2.914   1.780
11799TIP3    H156812   6.860   2.888   1.756
11799TIP3    H256813   6.745   2.849   1.845
11800TIP3   OH256814   6.307   2.403   1.574
11800TIP3    H156815   6.324   2.340   1.504
11800TIP3    H256816   6.292   2.486   1.528
11801TIP3   OH256817   6.345   2.245   1.338
11801TIP3    H156818   6.400   2.291   1.275
11801TIP3    H256819   6.259   2.242   1.296
11802TIP3   OH256820   6.454   2.787   1.379
11802TIP3    H156821   6.547   2.781   1.359
11802TIP3    H256822   6.422   2.859   1.326
11803TIP3   OH256823   6.914   2.561   1.808
11803TIP3    H156824   6.923   2.485   1.866
11803TIP3    H256825   7.002   2.577   1.775
11804TIP3   OH256826   7.034   2.844   1.711
11804TIP3    H156827   7.030   2.900   1.634
11804TIP3    H256828   7.090   2.771   1.685
11805TIP3   OH256829   6.139   2.470   1.788
11805TIP3    H156830   6.062   2.414   1.777
11805TIP3    H256831   6.192   2.454   1.710
11806TIP3   OH256832   6.401   1.979   1.400
11806TIP3    H156833   6.382   2.071   1.381
11806TIP3    H256834   6.332   1.930   1.357
11807TIP3   OH256835   6.539   2.377   1.738
11807TIP3    H156836   6.513   2.348   1.826
11807TIP3    H256837   6.457   2.379   1.689
11808TIP3   OH256838   6.789   2.304   1.630
11808TIP3    H156839   6.705   2.315   1.675
11808TIP3    H256840   6.843   2.258   1.694
11809TIP3   OH256841   6.964   2.185   1.809
11809TIP3    H156842   6.950   2.092   1.826
11809TIP3    H256843   6.935   2.229   1.888
11810TIP3   OH256844   5.937   2.273   1.763
11810TIP3    H156845   5.943   2.193   1.710
11810TIP3    H256846   5.950   2.243   1.853
11811TIP3   OH256847   6.391   1.902   1.664
11811TIP3    H156848   6.450   1.827   1.662
11811TIP3    H256849   6.390   1.933   1.573
11812TIP3   OH256850   6.468   2.065   1.874
11812TIP3    H156851   6.446   2.013   1.797
11812TIP3    H256852   6.406   2.138   1.872
11813TIP3   OH256853   6.419   3.765   0.161
11813TIP3    H156854   6.509   3.784   0.187
11813TIP3    H256855   6.412   3.797   0.072
11814TIP3   OH256856   5.791   3.233   0.112
11814TIP3    H156857   5.883   3.248   0.134
11814TIP3    H256858   5.792   3.194   0.025
11815TIP3   OH256859   5.661   3.735   0.648
11815TIP3    H156860   5.609   3.703   0.574
11815TIP3    H256861   5.680   3.656   0.699
11816TIP3   OH256862   5.732   3.516   0.807
11816TIP3    H156863   5.698   3.444   0.860
11816TIP3    H256864   5.784   3.568   0.867
11817TIP3   OH256865   7.250   3.337   1.342
11817TIP3    H156866   7.204   3.412   1.378
11817TIP3    H256867   7.221   3.331   1.251
11818TIP3   OH256868   7.264   2.725   0.706
11818TIP3    H156869   7.203   2.669   0.657
11818TIP3    H256870   7.216   2.748   0.785
11819TIP3   OH256871   5.724   2.900   1.082
11819TIP3    H156872   5.731   2.874   0.991
11819TIP3    H256873   5.802   2.863   1.124
11820TIP3   OH256874   7.319   2.406   0.485
11820TIP3    H156875   7.230   2.390   0.519
11820TIP3    H256876   7.312   2.391   0.391
11821TIP3   OH256877   7.246   2.355   1.078
11821TIP3    H156878   7.331   2.319   1.054
11821TIP3    H256879   7.262   2.448   1.091
11822TIP3   OH256880   7.257   2.589   1.363
11822TIP3    H156881   7.165   2.615   1.358
11822TIP3    H256882   7.288   2.594   1.272
11823TIP3   OH256883   5.712   2.389   1.649
11823TIP3    H156884   5.796   2.366   1.689
11823TIP3    H256885   5.659   2.310   1.659
11824TIP3   OH256886   7.249   2.127   0.556
11824TIP3    H156887   7.288   2.051   0.600
11824TIP3    H256888   7.174   2.091   0.509
11825TIP3   OH256889   5.820   2.247   0.973
11825TIP3    H156890   5.859   2.159   0.971
11825TIP3    H256891   5.894   2.306   0.986
11826TIP3   OH256892   5.638   2.536   1.035
11826TIP3    H156893   5.708   2.537   0.970
11826TIP3    H256894   5.682   2.561   1.117
11827TIP3   OH256895   5.697   2.164   0.446
11827TIP3    H156896   5.601   2.163   0.454
11827TIP3    H256897   5.715   2.234   0.383
11828TIP3   OH256898   7.126   3.625   0.724
11828TIP3    H156899   7.202   3.567   0.732
11828TIP3    H256900   7.148   3.701   0.778
11829TIP3   OH256901   5.688   2.004   1.290
11829TIP3    H156902   5.620   1.996   1.357
11829TIP3    H256903   5.656   2.072   1.231
11830TIP3   OH256904   5.895   3.392   1.703
11830TIP3    H156905   5.804   3.388   1.673
11830TIP3    H256906   5.891   3.368   1.795
11831TIP3   OH256907   6.223   3.478   1.342
11831TIP3    H156908   6.195   3.566   1.318
11831TIP3    H256909   6.317   3.477   1.325
11832TIP3   OH256910   6.601   3.602   1.621
11832TIP3    H156911   6.612   3.568   1.710
11832TIP3    H256912   6.682   3.648   1.602
11833TIP3   OH256913   6.840   3.735   1.580
11833TIP3    H156914   6.906   3.676   1.544
11833TIP3    H256915   6.878   3.766   1.662
11834TIP3   OH256916   5.920   3.764   1.363
11834TIP3    H156917   5.842   3.804   1.326
11834TIP3    H256918   5.933   3.811   1.446
11835TIP3   OH256919   6.181   3.742   1.274
11835TIP3    H156920   6.089   3.754   1.300
11835TIP3    H256921   6.187   3.788   1.190
11836TIP3   OH256922   6.627   3.725   1.181
11836TIP3    H156923   6.579   3.763   1.107
11836TIP3    H256924   6.640   3.798   1.241
11837TIP3   OH256925   6.846   3.589   1.272
11837TIP3    H156926   6.770   3.637   1.240
11837TIP3    H256927   6.919   3.650   1.261
11838TIP3   OH256928   7.076   3.737   1.255
11838TIP3    H156929   7.094   3.830   1.240
11838TIP3    H256930   7.134   3.691   1.194
11839TIP3   OH256931   5.885   3.625   1.024
11839TIP3    H156932   5.880   3.581   1.109
11839TIP3    H256933   5.965   3.590   0.984
11840TIP3   OH256934   6.101   3.499   0.916
11840TIP3    H156935   6.088   3.407   0.938
11840TIP3    H256936   6.188   3.520   0.949
11841TIP3   OH256937   6.361   3.531   1.019
11841TIP3    H156938   6.372   3.441   0.988
11841TIP3    H256939   6.396   3.529   1.108
11842TIP3   OH256940   6.672   2.105   0.922
11842TIP3    H156941   6.610   2.035   0.939
11842TIP3    H256942   6.748   2.061   0.885
11843TIP3   OH256943   7.172   1.946   0.887
11843TIP3    H156944   7.210   2.034   0.895
11843TIP3    H256945   7.078   1.961   0.881
11844TIP3   OH256946   5.924   1.962   0.667
11844TIP3    H156947   5.832   1.946   0.645
11844TIP3    H256948   5.967   1.877   0.653
11845TIP3   OH256949   5.830   1.961   0.282
11845TIP3    H156950   5.891   2.014   0.231
11845TIP3    H256951   5.784   2.025   0.338
11846TIP3   OH256952   6.404   1.933   0.688
11846TIP3    H156953   6.473   1.984   0.646
11846TIP3    H256954   6.424   1.938   0.782
11847TIP3   OH256955   6.902   1.981   0.824
11847TIP3    H156956   6.904   1.977   0.729
11847TIP3    H256957   6.870   1.895   0.852
11848TIP3   OH256958   7.063   1.972   0.432
11848TIP3    H156959   6.986   2.028   0.424
11848TIP3    H256960   7.029   1.883   0.422
11849TIP3   OH256961   5.787   3.589   0.361
11849TIP3    H156962   5.716   3.580   0.298
11849TIP3    H256963   5.821   3.677   0.347
11850TIP3   OH256964   6.017   2.102   0.133
11850TIP3    H156965   6.056   2.114   0.046
11850TIP3    H256966   6.081   2.141   0.193
11851TIP3   OH256967   6.489   2.192   0.337
11851TIP3    H156968   6.525   2.120   0.388
11851TIP3    H256969   6.507   2.270   0.390
11852TIP3   OH256970   6.699   3.782   0.197
11852TIP3    H156971   6.793   3.787   0.182
11852TIP3    H256972   6.675   3.693   0.172
11853TIP3   OH256973   5.935   2.027   1.614
11853TIP3    H156974   5.876   1.959   1.647
11853TIP3    H256975   6.018   2.011   1.659
11854TIP3   OH256976   6.140   1.959   1.786
11854TIP3    H156977   6.227   1.936   1.754
11854TIP3    H256978   6.110   1.880   1.832
11855TIP3   OH256979   6.015   3.660  -0.004
11855TIP3    H156980   5.975   3.691   0.078
11855TIP3    H256981   6.086   3.602   0.025
11856TIP3   OH256982   6.969   1.907   1.818
11856TIP3    H156983   6.961   1.855   1.898
11856TIP3    H256984   7.062   1.901   1.795
11857TIP3   OH256985   7.237   3.499   1.687
11857TIP3    H156986   7.189   3.491   1.605
11857TIP3    H256987   7.233   3.593   1.708
11858TIP3   OH256988   1.204   4.811   0.651
11858TIP3    H156989   1.187   4.904   0.640
11858TIP3    H256990   1.133   4.768   0.603
11859TIP3   OH256991   1.081   4.712   1.048
11859TIP3    H156992   1.101   4.670   1.131
11859TIP3    H256993   1.030   4.647   0.999
11860TIP3   OH256994   0.294   4.655   1.179
11860TIP3    H156995   0.300   4.574   1.230
11860TIP3    H256996   0.334   4.722   1.235
11861TIP3   OH256997   1.489   4.998   0.877
11861TIP3    H156998   1.431   4.930   0.911
11861TIP3    H256999   1.471   5.074   0.932
11862TIP3   OH257000   0.406   5.116   0.982
11862TIP3    H157001   0.383   5.026   0.960
11862TIP3    H257002   0.495   5.111   1.018
11863TIP3   OH257003   0.125   4.491   0.525
11863TIP3    H157004   0.101   4.565   0.581
11863TIP3    H257005   0.042   4.446   0.510
11864TIP3   OH257006   0.175   4.698   0.788
11864TIP3    H157007   0.192   4.612   0.826
11864TIP3    H257008   0.251   4.751   0.813
11865TIP3   OH257009   1.183   5.515   0.896
11865TIP3    H157010   1.216   5.447   0.837
11865TIP3    H257011   1.129   5.467   0.959
11866TIP3   OH257012   0.921   4.970   1.056
11866TIP3    H157013   0.957   4.890   1.019
11866TIP3    H257014   0.987   4.999   1.119
11867TIP3   OH257015   1.799   4.101   1.146
11867TIP3    H157016   1.814   4.168   1.212
11867TIP3    H257017   1.862   4.121   1.077
11868TIP3   OH257018   1.240   4.389   1.072
11868TIP3    H157019   1.248   4.295   1.086
11868TIP3    H257020   1.221   4.397   0.978
11869TIP3   OH257021   0.594   4.198   0.799
11869TIP3    H157022   0.598   4.284   0.758
11869TIP3    H257023   0.541   4.145   0.739
11870TIP3   OH257024   1.356   4.222   0.646
11870TIP3    H157025   1.395   4.190   0.727
11870TIP3    H257026   1.430   4.260   0.597
11871TIP3   OH257027   0.218   4.444   0.895
11871TIP3    H157028   0.292   4.408   0.944
11871TIP3    H257029   0.226   4.406   0.808
11872TIP3   OH257030   0.723   4.602   0.834
11872TIP3    H157031   0.802   4.560   0.868
11872TIP3    H257032   0.682   4.535   0.779
11873TIP3   OH257033   1.834   4.274   1.362
11873TIP3    H157034   1.761   4.334   1.342
11873TIP3    H257035   1.814   4.242   1.450
11874TIP3   OH257036   0.435   4.115   1.229
11874TIP3    H157037   0.408   4.173   1.159
11874TIP3    H257038   0.365   4.122   1.295
11875TIP3   OH257039   1.172   5.068   0.554
11875TIP3    H157040   1.150   5.059   0.462
11875TIP3    H257041   1.117   5.139   0.586
11876TIP3   OH257042   0.704   4.885   1.207
11876TIP3    H157043   0.648   4.953   1.242
11876TIP3    H257044   0.771   4.932   1.158
11877TIP3   OH257045   1.458   4.177   0.894
11877TIP3    H157046   1.392   4.146   0.956
11877TIP3    H257047   1.515   4.234   0.946
11878TIP3   OH257048   0.421   4.279   1.003
11878TIP3    H157049   0.474   4.336   1.057
11878TIP3    H257050   0.481   4.244   0.937
11879TIP3   OH257051   0.548   5.088   1.310
11879TIP3    H157052   0.556   5.184   1.303
11879TIP3    H257053   0.460   5.074   1.345
11880TIP3   OH257054   0.105   5.057   0.372
11880TIP3    H157055   0.111   5.097   0.285
11880TIP3    H257056   0.134   5.126   0.432
11881TIP3   OH257057   1.524   5.219   1.060
11881TIP3    H157058   1.433   5.212   1.090
11881TIP3    H257059   1.536   5.311   1.038
11882TIP3   OH257060   1.540   4.016   1.229
11882TIP3    H157061   1.471   4.056   1.176
11882TIP3    H257062   1.621   4.039   1.185
11883TIP3   OH257063   0.795   3.807   0.973
11883TIP3    H157064   0.768   3.715   0.976
11883TIP3    H257065   0.718   3.855   1.003
11884TIP3   OH257066   1.312   5.369   0.691
11884TIP3    H157067   1.355   5.285   0.672
11884TIP3    H257068   1.383   5.432   0.695
11885TIP3   OH257069   1.434   5.128   0.626
11885TIP3    H157070   1.349   5.094   0.598
11885TIP3    H257071   1.459   5.072   0.700
11886TIP3   OH257072   1.612   5.007   1.426
11886TIP3    H157073   1.585   4.951   1.353
11886TIP3    H257074   1.612   5.095   1.390
11887TIP3   OH257075   1.052   4.710   0.438
11887TIP3    H157076   0.981   4.771   0.417
11887TIP3    H257077   1.107   4.710   0.360
11888TIP3   OH257078   1.065   4.545   0.115
11888TIP3    H157079   1.128   4.574   0.181
11888TIP3    H257080   1.119   4.512   0.043
11889TIP3   OH257081   1.768   4.688   1.271
11889TIP3    H157082   1.690   4.736   1.244
11889TIP3    H257083   1.804   4.653   1.189
11890TIP3   OH257084   1.416   4.740   0.496
11890TIP3    H157085   1.348   4.767   0.558
11890TIP3    H257086   1.477   4.689   0.548
11891TIP3   OH257087   1.378   4.542   1.449
11891TIP3    H157088   1.374   4.610   1.515
11891TIP3    H257089   1.309   4.564   1.387
11892TIP3   OH257090   0.567   4.789   0.699
11892TIP3    H157091   0.539   4.749   0.616
11892TIP3    H257092   0.624   4.724   0.738
11893TIP3   OH257093   0.709   5.149   0.963
11893TIP3    H157094   0.703   5.152   0.868
11893TIP3    H257095   0.782   5.091   0.981
11894TIP3   OH257096   0.584   4.685   1.059
11894TIP3    H157097   0.641   4.667   0.985
11894TIP3    H257098   0.630   4.753   1.109
11895TIP3   OH257099   1.276   5.215   1.160
11895TIP3    H157100   1.243   5.296   1.199
11895TIP3    H257101   1.217   5.147   1.193
11896TIP3   OH257102   0.701   5.115   1.542
11896TIP3    H157103   0.638   5.171   1.588
11896TIP3    H257104   0.656   5.088   1.463
11897TIP3   OH257105   1.281   4.645   0.276
11897TIP3    H157106   1.325   4.679   0.354
11897TIP3    H257107   1.323   4.692   0.203
11898TIP3   OH257108   0.395   4.712   1.490
11898TIP3    H157109   0.403   4.792   1.541
11898TIP3    H257110   0.300   4.702   1.477
11899TIP3   OH257111   1.052   5.306   0.624
11899TIP3    H157112   1.136   5.342   0.651
11899TIP3    H257113   1.012   5.376   0.572
11900TIP3   OH257114   0.493   5.288   1.618
11900TIP3    H157115   0.495   5.315   1.526
11900TIP3    H257116   0.400   5.280   1.639
11901TIP3   OH257117   1.637   3.824   0.250
11901TIP3    H157118   1.552   3.848   0.286
11901TIP3    H257119   1.674   3.907   0.219
11902TIP3   OH257120   0.475   4.695   0.442
11902TIP3    H157121   0.419   4.764   0.405
11902TIP3    H257122   0.419   4.618   0.448
11903TIP3   OH257123   1.755   5.230   0.131
11903TIP3    H157124   1.770   5.324   0.137
11903TIP3    H257125   1.841   5.192   0.114
11904TIP3   OH257126   0.168   4.891   1.327
11904TIP3    H157127   0.093   4.904   1.270
11904TIP3    H257128   0.146   4.814   1.380
11905TIP3   OH257129   0.120   5.226   0.952
11905TIP3    H157130   0.198   5.183   0.987
11905TIP3    H257131   0.049   5.196   1.008
11906TIP3   OH257132   1.864   5.299   1.637
11906TIP3    H157133   1.852   5.204   1.637
11906TIP3    H257134   1.780   5.333   1.667
11907TIP3   OH257135   0.940   5.242   1.489
11907TIP3    H157136   0.939   5.324   1.538
11907TIP3    H257137   0.855   5.201   1.508
11908TIP3   OH257138   1.039   5.590   0.484
11908TIP3    H157139   1.021   5.609   0.392
11908TIP3    H257140   1.005   5.667   0.531
11909TIP3   OH257141   0.378   5.465   0.657
11909TIP3    H157142   0.391   5.434   0.747
11909TIP3    H257143   0.320   5.401   0.617
11910TIP3   OH257144   1.338   5.530   0.130
11910TIP3    H157145   1.403   5.462   0.116
11910TIP3    H257146   1.329   5.535   0.226
11911TIP3   OH257147   1.301   5.529   0.421
11911TIP3    H157148   1.208   5.545   0.441
11911TIP3    H257149   1.330   5.470   0.491
11912TIP3   OH257150   1.567   4.409   1.649
11912TIP3    H157151   1.492   4.440   1.598
11912TIP3    H257152   1.564   4.314   1.640
11913TIP3   OH257153   0.309   5.095   1.442
11913TIP3    H157154   0.328   5.055   1.527
11913TIP3    H257155   0.249   5.033   1.400
11914TIP3   OH257156   0.551   3.922   1.060
11914TIP3    H157157   0.475   3.911   1.004
11914TIP3    H257158   0.526   3.990   1.122
11915TIP3   OH257159   1.032   3.885   1.399
11915TIP3    H157160   1.078   3.835   1.467
11915TIP3    H257161   0.939   3.874   1.421
11916TIP3   OH257162   1.331   4.270   1.488
11916TIP3    H157163   1.262   4.254   1.553
11916TIP3    H257164   1.325   4.364   1.470
11917TIP3   OH257165   1.416   4.787   0.081
11917TIP3    H157166   1.406   4.852   0.011
11917TIP3    H257167   1.469   4.831   0.147
11918TIP3   OH257168   1.039   4.108   0.147
11918TIP3    H157169   0.969   4.100   0.211
11918TIP3    H257170   0.997   4.088   0.063
11919TIP3   OH257171   0.560   4.438   1.179
11919TIP3    H157172   0.492   4.440   1.246
11919TIP3    H257173   0.561   4.527   1.144
11920TIP3   OH257174   0.581   4.437   0.665
11920TIP3    H157175   0.486   4.425   0.668
11920TIP3    H257176   0.605   4.415   0.575
11921TIP3   OH257177   1.114   4.463   0.542
11921TIP3    H157178   1.087   4.550   0.510
11921TIP3    H257179   1.176   4.432   0.477
11922TIP3   OH257180   1.022   4.480   1.665
11922TIP3    H157181   0.969   4.408   1.699
11922TIP3    H257182   1.105   4.474   1.711
11923TIP3   OH257183   1.209   4.405   0.799
11923TIP3    H157184   1.162   4.451   0.729
11923TIP3    H257185   1.250   4.330   0.756
11924TIP3   OH257186   0.341   4.429   1.350
11924TIP3    H157187   0.350   4.478   1.432
11924TIP3    H257188   0.303   4.345   1.377
11925TIP3   OH257189   0.728   4.215   0.041
11925TIP3    H157190   0.699   4.179   0.124
11925TIP3    H257191   0.699   4.306   0.042
11926TIP3   OH257192   0.032   4.238   0.734
11926TIP3    H157193   0.087   4.207   0.807
11926TIP3    H257194  -0.004   4.158   0.696
11927TIP3   OH257195   0.090   4.277   0.254
11927TIP3    H157196   0.166   4.334   0.256
11927TIP3    H257197   0.071   4.265   0.161
11928TIP3   OH257198   1.161   4.559   1.268
11928TIP3    H157199   1.195   4.501   1.200
11928TIP3    H257200   1.095   4.506   1.314
11929TIP3   OH257201   0.871   4.158   0.757
11929TIP3    H157202   0.781   4.163   0.788
11929TIP3    H257203   0.919   4.118   0.830
11930TIP3   OH257204   0.323   4.348   0.652
11930TIP3    H157205   0.254   4.383   0.596
11930TIP3    H257206   0.335   4.258   0.622
11931TIP3   OH257207   0.637   4.352   0.410
11931TIP3    H157208   0.732   4.353   0.419
11931TIP3    H257209   0.620   4.393   0.324
11932TIP3   OH257210   1.255   4.110   1.075
11932TIP3    H157211   1.217   4.111   1.163
11932TIP3    H257212   1.188   4.068   1.021
11933TIP3   OH257213   0.558   4.431   0.160
11933TIP3    H157214   0.463   4.426   0.148
11933TIP3    H257215   0.589   4.479   0.084
11934TIP3   OH257216   1.606   5.672   1.735
11934TIP3    H157217   1.633   5.708   1.650
11934TIP3    H257218   1.677   5.696   1.794
11935TIP3   OH257219   0.373   4.932   1.666
11935TIP3    H157220   0.433   4.925   1.741
11935TIP3    H257221   0.287   4.941   1.706
11936TIP3   OH257222   0.939   4.475   0.957
11936TIP3    H157223   1.000   4.413   0.916
11936TIP3    H257224   0.901   4.427   1.030
11937TIP3   OH257225   0.431   4.085   0.602
11937TIP3    H157226   0.386   4.006   0.630
11937TIP3    H257227   0.455   4.068   0.511
11938TIP3   OH257228   0.823   4.347   1.177
11938TIP3    H157229   0.737   4.388   1.186
11938TIP3    H257230   0.870   4.373   1.256
11939TIP3   OH257231   0.871   4.903   0.358
11939TIP3    H157232   0.799   4.860   0.310
11939TIP3    H257233   0.830   4.934   0.439
11940TIP3   OH257234   1.567   4.858   1.194
11940TIP3    H157235   1.608   4.916   1.130
11940TIP3    H257236   1.486   4.828   1.150
11941TIP3   OH257237   1.265   4.258   0.098
11941TIP3    H157238   1.188   4.203   0.111
11941TIP3    H257239   1.278   4.300   0.183
11942TIP3   OH257240   1.024   4.959   1.500
11942TIP3    H157241   1.036   4.918   1.586
11942TIP3    H257242   0.985   5.045   1.519
11943TIP3   OH257243   1.312   4.379   0.350
11943TIP3    H157244   1.398   4.366   0.391
11943TIP3    H257245   1.314   4.469   0.319
11944TIP3   OH257246   0.392   4.837   0.911
11944TIP3    H157247   0.453   4.831   0.838
11944TIP3    H257248   0.430   4.780   0.978
11945TIP3   OH257249   1.094   5.049   0.282
11945TIP3    H157250   1.054   5.135   0.290
11945TIP3    H257251   1.023   4.987   0.299
11946TIP3   OH257252   0.124   4.665   1.480
11946TIP3    H157253   0.118   4.657   1.575
11946TIP3    H257254   0.064   4.599   1.447
11947TIP3   OH257255   0.810   4.667   1.677
11947TIP3    H157256   0.743   4.626   1.622
11947TIP3    H257257   0.889   4.615   1.662
11948TIP3   OH257258   1.224   5.221   1.484
11948TIP3    H157259   1.130   5.224   1.465
11948TIP3    H257260   1.230   5.235   1.578
11949TIP3   OH257261   1.766   4.446   0.308
11949TIP3    H157262   1.702   4.418   0.243
11949TIP3    H257263   1.785   4.537   0.286
11950TIP3   OH257264   1.832   5.015   1.592
11950TIP3    H157265   1.738   5.025   1.577
11950TIP3    H257266   1.868   4.997   1.505
11951TIP3   OH257267   1.652   5.280   0.393
11951TIP3    H157268   1.591   5.218   0.433
11951TIP3    H257269   1.671   5.243   0.307
11952TIP3   OH257270   1.359   4.785   1.017
11952TIP3    H157271   1.264   4.775   1.020
11952TIP3    H257272   1.390   4.706   0.973
11953TIP3   OH257273   0.644   5.214   0.695
11953TIP3    H157274   0.667   5.298   0.656
11953TIP3    H257275   0.548   5.213   0.694
11954TIP3   OH257276   0.184   4.696   0.153
11954TIP3    H157277   0.233   4.752   0.213
11954TIP3    H257278   0.094   4.698   0.187
11955TIP3   OH257279   0.737   4.977   0.582
11955TIP3    H157280   0.716   5.063   0.620
11955TIP3    H257281   0.678   4.917   0.627
11956TIP3   OH257282   0.833   5.392   1.268
11956TIP3    H157283   0.893   5.463   1.246
11956TIP3    H257284   0.884   5.336   1.328
11957TIP3   OH257285   0.643   5.477   0.582
11957TIP3    H157286   0.550   5.486   0.602
11957TIP3    H257287   0.683   5.555   0.621
11958TIP3   OH257288   1.127   4.991   1.247
11958TIP3    H157289   1.089   4.983   1.334
11958TIP3    H257290   1.185   4.916   1.239
11959TIP3   OH257291   1.358   5.084   0.136
11959TIP3    H157292   1.410   5.037   0.202
11959TIP3    H257293   1.269   5.080   0.169
11960TIP3   OH257294   1.426   5.417   1.459
11960TIP3    H157295   1.347   5.363   1.448
11960TIP3    H257296   1.414   5.488   1.396
11961TIP3   OH257297   1.815   5.498   0.147
11961TIP3    H157298   1.833   5.511   0.053
11961TIP3    H257299   1.758   5.570   0.171
11962TIP3   OH257300   0.242   4.166   1.435
11962TIP3    H157301   0.148   4.174   1.451
11962TIP3    H257302   0.269   4.090   1.487
11963TIP3   OH257303   1.518   4.920   0.309
11963TIP3    H157304   1.471   4.871   0.376
11963TIP3    H257305   1.607   4.927   0.341
11964TIP3   OH257306   0.234   5.392   1.256
11964TIP3    H157307   0.221   5.311   1.305
11964TIP3    H257308   0.245   5.459   1.324
11965TIP3   OH257309   0.647   5.183   0.269
11965TIP3    H157310   0.720   5.130   0.302
11965TIP3    H257311   0.673   5.274   0.286
11966TIP3   OH257312   0.311   4.881   0.314
11966TIP3    H157313   0.237   4.926   0.355
11966TIP3    H257314   0.358   4.950   0.268
11967TIP3   OH257315   1.144   4.125   1.325
11967TIP3    H157316   1.207   4.146   1.394
11967TIP3    H257317   1.103   4.044   1.355
11968TIP3   OH257318   1.204   4.074   0.468
11968TIP3    H157319   1.185   4.133   0.396
11968TIP3    H257320   1.250   4.128   0.532
11969TIP3   OH257321   0.959   5.282   0.313
11969TIP3    H157322   0.882   5.335   0.332
11969TIP3    H257323   1.007   5.332   0.247
11970TIP3   OH257324   0.894   4.298   0.518
11970TIP3    H157325   0.967   4.359   0.529
11970TIP3    H257326   0.881   4.260   0.605
11971TIP3   OH257327   0.997   4.380   1.398
11971TIP3    H157328   0.999   4.404   1.491
11971TIP3    H257329   1.028   4.290   1.396
11972TIP3   OH257330   0.969   3.967   0.577
11972TIP3    H157331   0.944   4.035   0.639
11972TIP3    H257332   1.055   3.994   0.544
11973TIP3   OH257333   0.731   5.437   0.327
11973TIP3    H157334   0.729   5.522   0.282
11973TIP3    H257335   0.699   5.456   0.415
11974TIP3   OH257336   0.581   4.107   0.276
11974TIP3    H157337   0.570   4.191   0.322
11974TIP3    H257338   0.668   4.077   0.304
11975TIP3   OH257339   1.575   4.150   1.475
11975TIP3    H157340   1.487   4.188   1.483
11975TIP3    H257341   1.570   4.096   1.396
11976TIP3   OH257342   1.442   4.544   0.892
11976TIP3    H157343   1.359   4.503   0.872
11976TIP3    H257344   1.487   4.483   0.951
11977TIP3   OH257345   0.412   5.093   0.160
11977TIP3    H157346   0.474   5.143   0.213
11977TIP3    H257347   0.467   5.042   0.101
11978TIP3   OH257348   0.285   4.440   0.118
11978TIP3    H157349   0.251   4.529   0.117
11978TIP3    H257350   0.230   4.392   0.056
11979TIP3   OH257351   1.578   5.492   1.054
11979TIP3    H157352   1.558   5.563   0.993
11979TIP3    H257353   1.671   5.501   1.072
11980TIP3   OH257354   0.302   3.892   0.941
11980TIP3    H157355   0.306   3.874   0.847
11980TIP3    H257356   0.271   3.810   0.980
11981TIP3   OH257357   0.185   5.290   0.535
11981TIP3    H157358   0.121   5.294   0.606
11981TIP3    H257359   0.157   5.359   0.474
11982TIP3   OH257360   0.184   5.583   1.720
11982TIP3    H157361   0.242   5.577   1.796
11982TIP3    H257362   0.174   5.493   1.690
11983TIP3   OH257363   0.581   5.392   1.860
11983TIP3    H157364   0.660   5.342   1.881
11983TIP3    H257365   0.553   5.358   1.775
11984TIP3   OH257366   1.089   5.408   0.111
11984TIP3    H157367   1.051   5.369   0.031
11984TIP3    H257368   1.178   5.433   0.086
11985TIP3   OH257369   1.237   5.261   1.753
11985TIP3    H157370   1.216   5.182   1.801
11985TIP3    H257371   1.309   5.300   1.802
11986TIP3   OH257372   1.489   5.316   0.054
11986TIP3    H157373   1.439   5.238   0.078
11986TIP3    H257374   1.581   5.289   0.060
11987TIP3   OH257375   0.107   4.940   1.753
11987TIP3    H157376   0.110   4.844   1.753
11987TIP3    H257377   0.043   4.962   1.685
11988TIP3   OH257378   0.599   4.941   0.034
11988TIP3    H157379   0.626   4.891   0.111
11988TIP3    H257380   0.601   4.878  -0.038
11989TIP3   OH257381   0.782   4.943   1.744
11989TIP3    H157382   0.759   4.987   1.663
11989TIP3    H257383   0.802   4.853   1.717
11990TIP3   OH257384   1.345   4.958   1.501
11990TIP3    H157385   1.434   4.992   1.491
11990TIP3    H257386   1.289   5.034   1.489
11991TIP3   OH257387   0.186   4.665   1.751
11991TIP3    H157388   0.271   4.623   1.740
11991TIP3    H257389   0.176   4.673   1.846
11992TIP3   OH257390   0.666   4.763   0.236
11992TIP3    H157391   0.609   4.724   0.302
11992TIP3    H257392   0.700   4.689   0.186
11993TIP3   OH257393   0.620   4.553   1.493
11993TIP3    H157394   0.544   4.611   1.490
11993TIP3    H257395   0.679   4.586   1.426
11994TIP3   OH257396   0.793   4.581   0.066
11994TIP3    H157397   0.789   4.566  -0.028
11994TIP3    H257398   0.884   4.567   0.089
11995TIP3   OH257399   1.116   4.806   1.786
11995TIP3    H157400   1.191   4.762   1.747
11995TIP3    H257401   1.081   4.742   1.848
11996TIP3   OH257402   1.711   4.911   0.022
11996TIP3    H157403   1.671   4.940  -0.060
11996TIP3    H257404   1.724   4.992   0.072
11997TIP3   OH257405   0.657   4.291   1.568
11997TIP3    H157406   0.666   4.233   1.493
11997TIP3    H257407   0.646   4.379   1.531
11998TIP3   OH257408   0.689   4.136   1.333
11998TIP3    H157409   0.739   4.184   1.267
11998TIP3    H257410   0.600   4.131   1.297
11999TIP3   OH257411   0.807   4.662   1.330
11999TIP3    H157412   0.898   4.684   1.351
11999TIP3    H257413   0.772   4.741   1.289
12000TIP3   OH257414   1.249   4.440   1.836
12000TIP3    H157415   1.268   4.348   1.854
12000TIP3    H257416   1.329   4.486   1.861
12001TIP3   OH257417   1.399   4.737   1.651
12001TIP3    H157418   1.368   4.815   1.604
12001TIP3    H257419   1.494   4.742   1.645
12002TIP3   OH257420   0.492   4.357   1.787
12002TIP3    H157421   0.416   4.301   1.778
12002TIP3    H257422   0.543   4.341   1.707
12003TIP3   OH257423   0.752   3.867   1.394
12003TIP3    H157424   0.728   3.958   1.375
12003TIP3    H257425   0.683   3.815   1.353
12004TIP3   OH257426   0.875   4.262   1.738
12004TIP3    H157427   0.839   4.233   1.821
12004TIP3    H257428   0.799   4.264   1.679
12005TIP3   OH257429   1.133   4.192   1.653
12005TIP3    H157430   1.045   4.198   1.689
12005TIP3    H257431   1.183   4.142   1.718
12006TIP3   OH257432   1.325   4.085   1.835
12006TIP3    H157433   1.319   3.990   1.828
12006TIP3    H257434   1.297   4.105   1.924
12007TIP3   OH257435   0.297   4.159   1.764
12007TIP3    H157436   0.298   4.083   1.706
12007TIP3    H257437   0.313   4.123   1.851
12008TIP3   OH257438   0.750   3.792   1.658
12008TIP3    H157439   0.803   3.712   1.657
12008TIP3    H257440   0.745   3.819   1.566
12009TIP3   OH257441   0.819   3.954   1.870
12009TIP3    H157442   0.799   3.899   1.794
12009TIP3    H257443   0.754   4.024   1.868
12010TIP3   OH257444   0.763   5.650   0.154
12010TIP3    H157445   0.853   5.667   0.182
12010TIP3    H257446   0.759   5.679   0.063
12011TIP3   OH257447   0.141   5.136   0.105
12011TIP3    H157448   0.236   5.131   0.113
12011TIP3    H257449   0.124   5.124   0.012
12012TIP3   OH257450   0.070   5.644   0.595
12012TIP3    H157451   0.050   5.601   0.511
12012TIP3    H257452   0.066   5.574   0.659
12013TIP3   OH257453   0.082   5.437   0.786
12013TIP3    H157454   0.082   5.350   0.827
12013TIP3    H257455   0.127   5.493   0.848
12014TIP3   OH257456   1.840   5.508   1.143
12014TIP3    H157457   1.826   5.489   1.235
12014TIP3    H257458   1.877   5.596   1.142
12015TIP3   OH257459   1.784   5.458   1.408
12015TIP3    H157460   1.723   5.389   1.385
12015TIP3    H257461   1.830   5.425   1.485
12016TIP3   OH257462   1.638   5.063   1.871
12016TIP3    H157463   1.554   5.069   1.916
12016TIP3    H257464   1.690   5.134   1.908
12017TIP3   OH257465   1.775   4.896   0.418
12017TIP3    H157466   1.849   4.957   0.421
12017TIP3    H257467   1.790   4.838   0.493
12018TIP3   OH257468   1.821   4.698   0.609
12018TIP3    H157469   1.738   4.658   0.633
12018TIP3    H257470   1.870   4.703   0.691
12019TIP3   OH257471   1.735   5.033   1.040
12019TIP3    H157472   1.709   4.992   0.958
12019TIP3    H257473   1.674   5.106   1.051
12020TIP3   OH257474   1.609   5.261   1.325
12020TIP3    H157475   1.540   5.308   1.372
12020TIP3    H257476   1.576   5.255   1.235
12021TIP3   OH257477   1.802   4.712   0.218
12021TIP3    H157478   1.758   4.758   0.147
12021TIP3    H257479   1.791   4.769   0.295
12022TIP3   OH257480   1.578   4.378   0.121
12022TIP3    H157481   1.561   4.435   0.047
12022TIP3    H257482   1.517   4.306   0.110
12023TIP3   OH257483   1.576   4.571   0.652
12023TIP3    H157484   1.569   4.481   0.618
12023TIP3    H257485   1.534   4.567   0.738
12024TIP3   OH257486   0.080   4.769   1.045
12024TIP3    H157487   0.095   4.773   0.951
12024TIP3    H257488   0.166   4.746   1.082
12025TIP3   OH257489   1.678   4.753   1.636
12025TIP3    H157490   1.730   4.674   1.618
12025TIP3    H257491   1.729   4.824   1.598
12026TIP3   OH257492   1.813   4.516   1.603
12026TIP3    H157493   1.726   4.478   1.619
12026TIP3    H257494   1.874   4.448   1.631
12027TIP3   OH257495   1.567   4.327   0.485
12027TIP3    H157496   1.593   4.235   0.486
12027TIP3    H257497   1.637   4.371   0.436
12028TIP3   OH257498   1.600   4.368   1.046
12028TIP3    H157499   1.692   4.387   1.029
12028TIP3    H257500   1.588   4.383   1.139
12029TIP3   OH257501   1.619   4.452   1.313
12029TIP3    H157502   1.537   4.470   1.358
12029TIP3    H257503   1.669   4.533   1.321
12030TIP3   OH257504   0.080   4.330   1.746
12030TIP3    H157505   0.160   4.279   1.733
12030TIP3    H257506   0.022   4.271   1.795
12031TIP3   OH257507   1.863   3.872   1.835
12031TIP3    H157508   1.923   3.805   1.802
12031TIP3    H257509   1.859   3.937   1.764
12032TIP3   OH257510   1.628   4.056   0.491
12032TIP3    H157511   1.647   4.018   0.577
12032TIP3    H257512   1.556   4.002   0.457
12033TIP3   OH257513   0.182   4.139   0.956
12033TIP3    H157514   0.214   4.048   0.957
12033TIP3    H257515   0.260   4.192   0.970
12034TIP3   OH257516   0.015   4.501   1.080
12034TIP3    H157517   0.085   4.476   1.019
12034TIP3    H257518   0.020   4.597   1.085
12035TIP3   OH257519   1.789   4.063   1.648
12035TIP3    H157520   1.719   4.096   1.704
12035TIP3    H257521   1.745   4.026   1.572
12036TIP3   OH257522   1.799   4.015   0.110
12036TIP3    H157523   1.875   3.957   0.117
12036TIP3    H257524   1.828   4.098   0.148
12037TIP3   OH257525   0.142   4.038   0.391
12037TIP3    H157526   0.070   4.037   0.454
12037TIP3    H257527   0.128   4.118   0.340
12038TIP3   OH257528   1.511   5.546   0.675
12038TIP3    H157529   1.579   5.556   0.609
12038TIP3    H257530   1.534   5.609   0.744
12039TIP3   OH257531   0.049   3.920   1.327
12039TIP3    H157532   0.022   3.989   1.387
12039TIP3    H257533  -0.015   3.925   1.256
12040TIP3   OH257534   0.220   5.286   1.718
12040TIP3    H157535   0.133   5.277   1.681
12040TIP3    H257536   0.212   5.252   1.807
12041TIP3   OH257537   0.572   5.361   1.348
12041TIP3    H157538   0.536   5.445   1.320
12041TIP3    H257539   0.665   5.368   1.330
12042TIP3   OH257540   0.950   5.483   1.623
12042TIP3    H157541   0.959   5.451   1.713
12042TIP3    H257542   1.030   5.533   1.608
12043TIP3   OH257543   1.187   5.619   1.586
12043TIP3    H157544   1.254   5.558   1.555
12043TIP3    H257545   1.225   5.657   1.666
12044TIP3   OH257546   1.690   3.829   1.468
12044TIP3    H157547   1.607   3.830   1.421
12044TIP3    H257548   1.725   3.741   1.454
12045TIP3   OH257549   0.274   5.656   1.371
12045TIP3    H157550   0.194   5.698   1.340
12045TIP3    H257551   0.294   5.701   1.454
12046TIP3   OH257552   0.529   5.625   1.272
12046TIP3    H157553   0.439   5.635   1.301
12046TIP3    H257554   0.534   5.674   1.190
12047TIP3   OH257555   0.985   5.606   1.174
12047TIP3    H157556   0.926   5.644   1.108
12047TIP3    H257557   0.996   5.675   1.239
12048TIP3   OH257558   1.215   5.473   1.249
12048TIP3    H157559   1.133   5.515   1.223
12048TIP3    H257560   1.280   5.543   1.245
12049TIP3   OH257561   1.454   5.628   1.266
12049TIP3    H157562   1.468   5.720   1.246
12049TIP3    H257563   1.492   5.581   1.192
12050TIP3   OH257564   0.225   5.522   1.017
12050TIP3    H157565   0.221   5.486   1.105
12050TIP3    H257566   0.298   5.476   0.975
12051TIP3   OH257567   0.438   5.383   0.912
12051TIP3    H157568   0.421   5.293   0.938
12051TIP3    H257569   0.523   5.404   0.951
12052TIP3   OH257570   0.700   5.421   1.022
12052TIP3    H157571   0.709   5.331   0.992
12052TIP3    H257572   0.731   5.420   1.113
12053TIP3   OH257573   1.033   3.991   0.916
12053TIP3    H157574   0.971   3.922   0.938
12053TIP3    H257575   1.106   3.945   0.873
12054TIP3   OH257576   1.534   3.831   0.898
12054TIP3    H157577   1.592   3.891   0.851
12054TIP3    H257578   1.447   3.868   0.885
12055TIP3   OH257579   1.718   3.943   0.724
12055TIP3    H157580   1.781   3.873   0.705
12055TIP3    H257581   1.771   4.020   0.742
12056TIP3   OH257582   0.307   3.847   0.669
12056TIP3    H157583   0.218   3.841   0.633
12056TIP3    H257584   0.345   3.760   0.656
12057TIP3   OH257585   0.202   3.825   0.230
12057TIP3    H157586   0.258   3.883   0.179
12057TIP3    H257587   0.167   3.880   0.300
12058TIP3   OH257588   0.753   3.818   0.689
12058TIP3    H157589   0.825   3.869   0.651
12058TIP3    H257590   0.770   3.820   0.783
12059TIP3   OH257591   1.262   3.866   0.812
12059TIP3    H157592   1.286   3.843   0.722
12059TIP3    H257593   1.237   3.783   0.853
12060TIP3   OH257594   1.415   3.897   0.403
12060TIP3    H157595   1.338   3.952   0.418
12060TIP3    H257596   1.384   3.808   0.416
12061TIP3   OH257597   0.105   5.482   0.352
12061TIP3    H157598   0.072   5.429   0.280
12061TIP3    H257599   0.146   5.558   0.309
12062TIP3   OH257600   0.405   3.971   0.109
12062TIP3    H157601   0.446   3.885   0.097
12062TIP3    H257602   0.459   4.013   0.175
12063TIP3   OH257603   0.846   4.086   0.351
12063TIP3    H157604   0.871   4.015   0.411
12063TIP3    H257605   0.860   4.166   0.402
12064TIP3   OH257606   1.031   5.654   0.216
12064TIP3    H157607   1.092   5.714   0.174
12064TIP3    H257608   1.051   5.569   0.176
12065TIP3   OH257609   1.701   5.538   0.472
12065TIP3    H157610   1.684   5.448   0.444
12065TIP3    H257611   1.686   5.590   0.393
12066TIP3   OH257612   0.303   3.922   1.614
12066TIP3    H157613   0.247   3.851   1.646
12066TIP3    H257614   0.388   3.907   1.657
12067TIP3   OH257615   0.508   3.848   1.783
12067TIP3    H157616   0.592   3.820   1.746
12067TIP3    H257617   0.475   3.772   1.829
12068TIP3   OH257618   0.322   5.538   0.010
12068TIP3    H157619   0.277   5.590   0.076
12068TIP3    H257620   0.391   5.492   0.059
12069TIP3   OH257621   1.338   3.809   1.808
12069TIP3    H157622   1.323   3.760   1.889
12069TIP3    H257623   1.431   3.796   1.789
12070TIP3   OH257624   1.612   5.403   1.672
12070TIP3    H157625   1.542   5.397   1.607
12070TIP3    H257626   1.605   5.492   1.707
12071TIP3   OH257627   3.118   4.789   0.625
12071TIP3    H157628   3.106   4.881   0.649
12071TIP3    H257629   3.035   4.747   0.648
12072TIP3   OH257630   2.943   4.708   1.040
12072TIP3    H157631   2.976   4.676   1.124
12072TIP3    H257632   2.899   4.632   1.001
12073TIP3   OH257633   2.174   4.661   1.191
12073TIP3    H157634   2.176   4.584   1.248
12073TIP3    H257635   2.266   4.685   1.180
12074TIP3   OH257636   3.335   5.026   0.860
12074TIP3    H157637   3.309   4.948   0.909
12074TIP3    H257638   3.358   5.090   0.927
12075TIP3   OH257639   2.270   5.102   1.035
12075TIP3    H157640   2.272   5.020   0.984
12075TIP3    H257641   2.343   5.093   1.097
12076TIP3   OH257642   1.967   4.470   0.514
12076TIP3    H157643   1.932   4.550   0.551
12076TIP3    H257644   1.903   4.444   0.448
12077TIP3   OH257645   2.015   4.698   0.813
12077TIP3    H157646   2.037   4.607   0.837
12077TIP3    H257647   2.100   4.741   0.801
12078TIP3   OH257648   3.073   5.506   0.908
12078TIP3    H157649   3.116   5.440   0.855
12078TIP3    H257650   3.045   5.460   0.987
12079TIP3   OH257651   2.810   4.959   1.066
12079TIP3    H157652   2.844   4.875   1.037
12079TIP3    H257653   2.877   4.995   1.124
12080TIP3   OH257654   3.684   4.111   1.156
12080TIP3    H157655   3.705   4.177   1.223
12080TIP3    H257656   3.733   4.140   1.079
12081TIP3   OH257657   3.118   4.387   1.063
12081TIP3    H157658   3.142   4.296   1.082
12081TIP3    H257659   3.091   4.386   0.972
12082TIP3   OH257660   2.456   4.199   0.804
12082TIP3    H157661   2.461   4.282   0.758
12082TIP3    H257662   2.405   4.142   0.746
12083TIP3   OH257663   3.243   4.219   0.639
12083TIP3    H157664   3.281   4.190   0.722
12083TIP3    H257665   3.317   4.247   0.586
12084TIP3   OH257666   2.095   4.443   0.882
12084TIP3    H157667   2.161   4.402   0.938
12084TIP3    H257668   2.112   4.407   0.795
12085TIP3   OH257669   2.584   4.592   0.846
12085TIP3    H157670   2.667   4.554   0.875
12085TIP3    H257671   2.545   4.525   0.790
12086TIP3   OH257672   3.734   4.277   1.376
12086TIP3    H157673   3.652   4.326   1.364
12086TIP3    H257674   3.753   4.286   1.470
12087TIP3   OH257675   2.324   4.109   1.222
12087TIP3    H157676   2.297   4.168   1.151
12087TIP3    H257677   2.252   4.114   1.285
12088TIP3   OH257678   3.021   5.061   0.577
12088TIP3    H157679   3.036   5.073   0.483
12088TIP3    H257680   2.997   5.148   0.609
12089TIP3   OH257681   2.586   4.882   1.209
12089TIP3    H157682   2.534   4.955   1.243
12089TIP3    H257683   2.659   4.924   1.164
12090TIP3   OH257684   3.344   4.184   0.889
12090TIP3    H157685   3.287   4.149   0.957
12090TIP3    H257686   3.408   4.238   0.936
12091TIP3   OH257687   2.288   4.281   1.007
12091TIP3    H157688   2.344   4.338   1.061
12091TIP3    H257689   2.347   4.245   0.941
12092TIP3   OH257690   2.423   5.088   1.302
12092TIP3    H157691   2.434   5.183   1.307
12092TIP3    H257692   2.337   5.072   1.341
12093TIP3   OH257693   1.998   5.066   0.383
12093TIP3    H157694   1.988   5.101   0.295
12093TIP3    H257695   2.024   5.142   0.436
12094TIP3   OH257696   3.372   5.221   1.059
12094TIP3    H157697   3.279   5.221   1.082
12094TIP3    H257698   3.393   5.313   1.043
12095TIP3   OH257699   3.432   4.013   1.242
12095TIP3    H157700   3.363   4.058   1.192
12095TIP3    H257701   3.513   4.040   1.200
12096TIP3   OH257702   2.678   3.800   0.965
12096TIP3    H157703   2.655   3.707   0.970
12096TIP3    H257704   2.600   3.846   0.997
12097TIP3   OH257705   3.213   5.350   0.724
12097TIP3    H157706   3.270   5.276   0.743
12097TIP3    H257707   3.272   5.423   0.708
12098TIP3   OH257708   3.305   5.043   0.587
12098TIP3    H157709   3.212   5.064   0.593
12098TIP3    H257710   3.333   5.034   0.678
12099TIP3   OH257711   3.489   5.012   1.427
12099TIP3    H157712   3.484   4.953   1.352
12099TIP3    H257713   3.502   5.099   1.389
12100TIP3   OH257714   2.909   4.742   0.415
12100TIP3    H157715   2.856   4.701   0.347
12100TIP3    H257716   2.996   4.749   0.377
12101TIP3   OH257717   2.946   4.590   0.136
12101TIP3    H157718   3.014   4.623   0.195
12101TIP3    H257719   2.992   4.570   0.055
12102TIP3   OH257720   3.664   4.669   1.260
12102TIP3    H157721   3.592   4.731   1.251
12102TIP3    H257722   3.727   4.695   1.192
12103TIP3   OH257723   3.336   4.683   0.504
12103TIP3    H157724   3.264   4.727   0.548
12103TIP3    H257725   3.364   4.614   0.565
12104TIP3   OH257726   3.262   4.540   1.454
12104TIP3    H157727   3.260   4.611   1.518
12104TIP3    H257728   3.199   4.566   1.387
12105TIP3   OH257729   2.452   4.785   0.691
12105TIP3    H157730   2.424   4.746   0.608
12105TIP3    H257731   2.499   4.714   0.736
12106TIP3   OH257732   2.606   5.142   0.968
12106TIP3    H157733   2.602   5.135   0.872
12106TIP3    H257734   2.677   5.083   0.993
12107TIP3   OH257735   2.448   4.691   1.070
12107TIP3    H157736   2.503   4.664   0.997
12107TIP3    H257737   2.501   4.754   1.118
12108TIP3   OH257738   3.112   5.226   1.136
12108TIP3    H157739   3.096   5.301   1.193
12108TIP3    H257740   3.071   5.153   1.181
12109TIP3   OH257741   2.591   5.106   1.537
12109TIP3    H157742   2.531   5.163   1.584
12109TIP3    H257743   2.543   5.077   1.460
12110TIP3   OH257744   3.154   4.714   0.282
12110TIP3    H157745   3.216   4.700   0.353
12110TIP3    H257746   3.206   4.751   0.211
12111TIP3   OH257747   2.279   4.725   1.492
12111TIP3    H157748   2.285   4.801   1.550
12111TIP3    H257749   2.186   4.716   1.473
12112TIP3   OH257750   2.958   5.322   0.613
12112TIP3    H157751   3.039   5.347   0.659
12112TIP3    H257752   2.925   5.405   0.577
12113TIP3   OH257753   2.397   5.283   1.615
12113TIP3    H157754   2.397   5.326   1.530
12113TIP3    H257755   2.305   5.277   1.639
12114TIP3   OH257756   3.552   3.824   0.267
12114TIP3    H157757   3.463   3.849   0.289
12114TIP3    H257758   3.591   3.902   0.228
12115TIP3   OH257759   2.358   4.693   0.435
12115TIP3    H157760   2.300   4.760   0.399
12115TIP3    H257761   2.305   4.612   0.431
12116TIP3   OH257762   3.660   5.267   0.129
12116TIP3    H157763   3.686   5.359   0.129
12116TIP3    H257764   3.741   5.220   0.109
12117TIP3   OH257765   1.929   4.926   1.339
12117TIP3    H157766   1.845   4.885   1.315
12117TIP3    H257767   1.978   4.855   1.381
12118TIP3   OH257768   1.963   5.263   1.086
12118TIP3    H157769   2.042   5.294   1.130
12118TIP3    H257770   1.901   5.335   1.093
12119TIP3   OH257771   3.743   5.295   1.634
12119TIP3    H157772   3.729   5.201   1.630
12119TIP3    H257773   3.659   5.331   1.663
12120TIP3   OH257774   2.826   5.243   1.490
12120TIP3    H157775   2.825   5.325   1.539
12120TIP3    H257776   2.743   5.201   1.511
12121TIP3   OH257777   2.919   5.578   0.492
12121TIP3    H157778   2.906   5.599   0.400
12121TIP3    H257779   2.897   5.659   0.539
12122TIP3   OH257780   2.259   5.458   0.674
12122TIP3    H157781   2.276   5.419   0.760
12122TIP3    H257782   2.201   5.396   0.631
12123TIP3   OH257783   3.206   5.523   0.148
12123TIP3    H157784   3.282   5.474   0.118
12123TIP3    H257785   3.217   5.530   0.243
12124TIP3   OH257786   3.192   5.536   0.433
12124TIP3    H157787   3.100   5.541   0.460
12124TIP3    H257788   3.240   5.522   0.515
12125TIP3   OH257789   3.444   4.413   1.652
12125TIP3    H157790   3.380   4.448   1.591
12125TIP3    H257791   3.451   4.320   1.630
12126TIP3   OH257792   2.176   5.074   1.424
12126TIP3    H157793   2.205   5.053   1.513
12126TIP3    H257794   2.091   5.032   1.416
12127TIP3   OH257795   2.433   3.912   1.054
12127TIP3    H157796   2.355   3.902   1.000
12127TIP3    H257797   2.410   3.982   1.116
12128TIP3   OH257798   2.914   3.885   1.401
12128TIP3    H157799   2.963   3.835   1.467
12128TIP3    H257800   2.822   3.873   1.426
12129TIP3   OH257801   3.198   4.269   1.465
12129TIP3    H157802   3.140   4.255   1.541
12129TIP3    H257803   3.208   4.364   1.461
12130TIP3   OH257804   3.313   4.788   0.064
12130TIP3    H157805   3.282   4.815  -0.023
12130TIP3    H257806   3.405   4.814   0.066
12131TIP3   OH257807   2.888   4.114   0.141
12131TIP3    H157808   2.819   4.104   0.207
12131TIP3    H257809   2.883   4.033   0.089
12132TIP3   OH257810   2.441   4.435   1.176
12132TIP3    H157811   2.378   4.436   1.247
12132TIP3    H257812   2.445   4.526   1.146
12133TIP3   OH257813   2.440   4.437   0.667
12133TIP3    H157814   2.345   4.422   0.664
12133TIP3    H257815   2.471   4.416   0.579
12134TIP3   OH257816   3.002   4.478   0.530
12134TIP3    H157817   2.977   4.563   0.493
12134TIP3    H257818   3.077   4.451   0.477
12135TIP3   OH257819   2.911   4.479   1.659
12135TIP3    H157820   2.861   4.406   1.695
12135TIP3    H257821   2.995   4.475   1.704
12136TIP3   OH257822   3.084   4.396   0.789
12136TIP3    H157823   3.042   4.441   0.715
12136TIP3    H257824   3.134   4.325   0.749
12137TIP3   OH257825   2.224   4.432   1.349
12137TIP3    H157826   2.258   4.459   1.434
12137TIP3    H257827   2.183   4.347   1.366
12138TIP3   OH257828   2.562   4.203   0.036
12138TIP3    H157829   2.525   4.188   0.123
12138TIP3    H257830   2.593   4.294   0.038
12139TIP3   OH257831   1.904   4.139   0.737
12139TIP3    H157832   1.956   4.146   0.817
12139TIP3    H257833   1.966   4.114   0.669
12140TIP3   OH257834   1.934   4.233   0.242
12140TIP3    H157835   2.013   4.276   0.209
12140TIP3    H257836   1.876   4.305   0.266
12141TIP3   OH257837   3.046   4.561   1.261
12141TIP3    H157838   3.079   4.503   1.192
12141TIP3    H257839   2.982   4.509   1.308
12142TIP3   OH257840   2.740   4.204   0.769
12142TIP3    H157841   2.650   4.191   0.799
12142TIP3    H257842   2.789   4.131   0.806
12143TIP3   OH257843   2.182   4.344   0.638
12143TIP3    H157844   2.109   4.373   0.584
12143TIP3    H257845   2.200   4.255   0.609
12144TIP3   OH257846   2.513   4.360   0.415
12144TIP3    H157847   2.607   4.355   0.427
12144TIP3    H257848   2.501   4.402   0.330
12145TIP3   OH257849   3.165   4.106   1.087
12145TIP3    H157850   3.112   4.113   1.166
12145TIP3    H257851   3.123   4.038   1.035
12146TIP3   OH257852   2.448   4.457   0.164
12146TIP3    H157853   2.368   4.441   0.114
12146TIP3    H257854   2.511   4.489   0.099
12147TIP3   OH257855   3.484   5.669   1.724
12147TIP3    H157856   3.506   5.701   1.636
12147TIP3    H257857   3.560   5.691   1.777
12148TIP3   OH257858   2.257   4.942   1.667
12148TIP3    H157859   2.324   4.935   1.735
12148TIP3    H257860   2.174   4.947   1.715
12149TIP3   OH257861   2.812   4.470   0.951
12149TIP3    H157862   2.860   4.406   0.898
12149TIP3    H257863   2.780   4.420   1.026
12150TIP3   OH257864   2.295   4.076   0.608
12150TIP3    H157865   2.242   4.000   0.633
12150TIP3    H257866   2.352   4.044   0.538
12151TIP3   OH257867   2.704   4.342   1.175
12151TIP3    H157868   2.618   4.383   1.187
12151TIP3    H257869   2.754   4.370   1.252
12152TIP3   OH257870   2.668   4.952   0.337
12152TIP3    H157871   2.626   4.875   0.298
12152TIP3    H257872   2.607   5.024   0.322
12153TIP3   OH257873   3.471   4.859   1.198
12153TIP3    H157874   3.534   4.914   1.151
12153TIP3    H257875   3.400   4.845   1.135
12154TIP3   OH257876   3.137   4.186   0.226
12154TIP3    H157877   3.052   4.171   0.184
12154TIP3    H257878   3.135   4.278   0.251
12155TIP3   OH257879   2.889   4.949   1.496
12155TIP3    H157880   2.918   4.914   1.581
12155TIP3    H257881   2.867   5.040   1.515
12156TIP3   OH257882   3.222   4.419   0.362
12156TIP3    H157883   3.293   4.372   0.405
12156TIP3    H257884   3.263   4.462   0.287
12157TIP3   OH257885   2.286   4.853   0.905
12157TIP3    H157886   2.341   4.843   0.826
12157TIP3    H257887   2.325   4.792   0.968
12158TIP3   OH257888   2.960   5.042   0.311
12158TIP3    H157889   2.912   5.125   0.304
12158TIP3    H257890   2.949   5.000   0.226
12159TIP3   OH257891   2.000   4.708   1.493
12159TIP3    H157892   2.016   4.686   1.585
12159TIP3    H257893   1.931   4.647   1.466
12160TIP3   OH257894   2.699   4.662   1.680
12160TIP3    H157895   2.637   4.624   1.619
12160TIP3    H257896   2.780   4.614   1.666
12161TIP3   OH257897   3.106   5.213   1.488
12161TIP3    H157898   3.013   5.225   1.468
12161TIP3    H257899   3.113   5.231   1.582
12162TIP3   OH257900   3.661   4.471   0.322
12162TIP3    H157901   3.600   4.434   0.258
12162TIP3    H257902   3.698   4.547   0.278
12163TIP3   OH257903   3.706   5.011   1.596
12163TIP3    H157904   3.617   5.024   1.562
12163TIP3    H257905   3.759   4.998   1.517
12164TIP3   OH257906   3.523   5.306   0.367
12164TIP3    H157907   3.460   5.235   0.376
12164TIP3    H257908   3.566   5.289   0.283
12165TIP3   OH257909   3.263   4.795   1.008
12165TIP3    H157910   3.169   4.786   1.024
12165TIP3    H257911   3.290   4.711   0.971
12166TIP3   OH257912   2.524   5.215   0.683
12166TIP3    H157913   2.552   5.301   0.652
12166TIP3    H257914   2.430   5.223   0.697
12167TIP3   OH257915   2.074   4.680   0.162
12167TIP3    H157916   2.118   4.749   0.211
12167TIP3    H257917   1.981   4.692   0.181
12168TIP3   OH257918   2.651   4.975   0.646
12168TIP3    H157919   2.609   5.061   0.655
12168TIP3    H257920   2.581   4.912   0.667
12169TIP3   OH257921   2.715   5.390   1.271
12169TIP3    H157922   2.772   5.463   1.248
12169TIP3    H257923   2.768   5.337   1.331
12170TIP3   OH257924   2.523   5.484   0.593
12170TIP3    H157925   2.432   5.492   0.619
12170TIP3    H257926   2.565   5.563   0.628
12171TIP3   OH257927   3.016   4.988   1.255
12171TIP3    H157928   2.965   4.973   1.335
12171TIP3    H257929   3.103   4.952   1.275
12172TIP3   OH257930   3.278   5.096   0.122
12172TIP3    H157931   3.317   5.031   0.180
12172TIP3    H257932   3.189   5.108   0.156
12173TIP3   OH257933   3.315   5.409   1.458
12173TIP3    H157934   3.233   5.363   1.444
12173TIP3    H257935   3.312   5.483   1.397
12174TIP3   OH257936   3.725   5.532   0.172
12174TIP3    H157937   3.798   5.594   0.168
12174TIP3    H257938   3.647   5.587   0.181
12175TIP3   OH257939   2.107   4.179   1.391
12175TIP3    H157940   2.016   4.206   1.380
12175TIP3    H257941   2.103   4.108   1.455
12176TIP3   OH257942   3.421   4.947   0.359
12176TIP3    H157943   3.366   4.974   0.432
12176TIP3    H257944   3.506   4.987   0.376
12177TIP3   OH257945   2.136   5.379   1.264
12177TIP3    H157946   2.174   5.315   1.323
12177TIP3    H257947   2.136   5.461   1.314
12178TIP3   OH257948   2.540   5.186   0.260
12178TIP3    H157949   2.632   5.184   0.232
12178TIP3    H257950   2.528   5.274   0.297
12179TIP3   OH257951   2.193   4.882   0.312
12179TIP3    H157952   2.122   4.929   0.355
12179TIP3    H257953   2.239   4.948   0.261
12180TIP3   OH257954   3.014   4.128   1.315
12180TIP3    H157955   3.081   4.155   1.377
12180TIP3    H257956   2.979   4.046   1.352
12181TIP3   OH257957   3.095   4.059   0.465
12181TIP3    H157958   3.110   4.100   0.380
12181TIP3    H257959   3.140   4.117   0.527
12182TIP3   OH257960   2.810   5.266   0.292
12182TIP3    H157961   2.751   5.331   0.328
12182TIP3    H257962   2.869   5.315   0.236
12183TIP3   OH257963   2.773   4.312   0.515
12183TIP3    H157964   2.854   4.363   0.521
12183TIP3    H257965   2.761   4.277   0.603
12184TIP3   OH257966   2.880   4.383   1.390
12184TIP3    H157967   2.888   4.404   1.483
12184TIP3    H257968   2.915   4.294   1.383
12185TIP3   OH257969   2.862   3.955   0.568
12185TIP3    H157970   2.872   3.975   0.661
12185TIP3    H257971   2.941   3.988   0.527
12186TIP3   OH257972   2.597   5.442   0.334
12186TIP3    H157973   2.604   5.525   0.287
12186TIP3    H257974   2.575   5.468   0.424
12187TIP3   OH257975   2.452   4.120   0.282
12187TIP3    H157976   2.445   4.198   0.337
12187TIP3    H257977   2.537   4.082   0.304
12188TIP3   OH257978   3.448   4.168   1.495
12188TIP3    H157979   3.357   4.194   1.484
12188TIP3    H257980   3.466   4.114   1.418
12189TIP3   OH257981   3.324   4.539   0.905
12189TIP3    H157982   3.239   4.496   0.894
12189TIP3    H257983   3.372   4.482   0.965
12190TIP3   OH257984   2.296   5.084   0.150
12190TIP3    H157985   2.343   5.149   0.202
12190TIP3    H257986   2.364   5.039   0.100
12191TIP3   OH257987   2.094   4.416   0.104
12191TIP3    H157988   2.107   4.506   0.132
12191TIP3    H257989   2.023   4.420   0.039
12192TIP3   OH257990   3.441   5.488   1.046
12192TIP3    H157991   3.431   5.562   0.985
12192TIP3    H257992   3.535   5.485   1.065
12193TIP3   OH257993   2.178   3.886   0.943
12193TIP3    H157994   2.170   3.872   0.848
12193TIP3    H257995   2.149   3.804   0.982
12194TIP3   OH257996   2.061   5.306   0.533
12194TIP3    H157997   1.989   5.323   0.594
12194TIP3    H257998   2.050   5.371   0.464
12195TIP3   OH257999   2.026   5.574   1.725
12195TIP3    H158000   2.090   5.555   1.794
12195TIP3    H258001   1.989   5.488   1.703
12196TIP3   OH258002   2.447   5.408   1.862
12196TIP3    H158003   2.535   5.393   1.897
12196TIP3    H258004   2.446   5.360   1.779
12197TIP3   OH258005   2.972   5.392   0.118
12197TIP3    H158006   2.947   5.367   0.029
12197TIP3    H258007   3.060   5.428   0.108
12198TIP3   OH258008   3.111   5.256   1.759
12198TIP3    H158009   3.095   5.176   1.809
12198TIP3    H258010   3.185   5.298   1.802
12199TIP3   OH258011   3.386   5.346   0.038
12199TIP3    H158012   3.358   5.257   0.059
12199TIP3    H258013   3.481   5.341   0.031
12200TIP3   OH258014   2.009   4.935   1.792
12200TIP3    H158015   2.007   4.840   1.792
12200TIP3    H258016   1.936   4.961   1.736
12201TIP3   OH258017   2.503   4.944   0.037
12201TIP3    H158018   2.522   4.882   0.108
12201TIP3    H258019   2.494   4.889  -0.040
12202TIP3   OH258020   2.668   4.937   1.746
12202TIP3    H158021   2.652   4.981   1.662
12202TIP3    H258022   2.693   4.848   1.721
12203TIP3   OH258023   3.225   4.959   1.485
12203TIP3    H158024   3.317   4.982   1.473
12203TIP3    H258025   3.179   5.043   1.486
12204TIP3   OH258026   2.091   4.656   1.754
12204TIP3    H158027   2.169   4.604   1.736
12204TIP3    H258028   2.087   4.662   1.850
12205TIP3   OH258029   2.547   4.740   0.223
12205TIP3    H158030   2.486   4.701   0.285
12205TIP3    H258031   2.579   4.666   0.171
12206TIP3   OH258032   2.483   4.543   1.477
12206TIP3    H158033   2.417   4.612   1.484
12206TIP3    H258034   2.552   4.581   1.422
12207TIP3   OH258035   2.679   4.557   0.046
12207TIP3    H158036   2.692   4.561  -0.049
12207TIP3    H258037   2.768   4.560   0.082
12208TIP3   OH258038   3.003   4.803   1.785
12208TIP3    H158039   3.082   4.766   1.746
12208TIP3    H258040   2.972   4.736   1.846
12209TIP3   OH258041   3.571   4.886  16.008
12209TIP3    H158042   3.566   4.859  15.916
12209TIP3    H258043   3.579   4.981  16.005
12210TIP3   OH258044   2.541   4.291   1.567
12210TIP3    H158045   2.552   4.230   1.494
12210TIP3    H258046   2.526   4.376   1.526
12211TIP3   OH258047   2.574   4.134   1.334
12211TIP3    H158048   2.627   4.180   1.269
12211TIP3    H258049   2.487   4.127   1.294
12212TIP3   OH258050   2.686   4.663   1.344
12212TIP3    H158051   2.778   4.679   1.364
12212TIP3    H258052   2.656   4.744   1.302
12213TIP3   OH258053   3.141   4.441   1.826
12213TIP3    H158054   3.163   4.348   1.827
12213TIP3    H258055   3.224   4.486   1.845
12214TIP3   OH258056   3.279   4.745   1.649
12214TIP3    H158057   3.249   4.821   1.598
12214TIP3    H258058   3.374   4.749   1.645
12215TIP3   OH258059   2.367   4.362   1.778
12215TIP3    H158060   2.290   4.304   1.772
12215TIP3    H258061   2.417   4.344   1.699
12216TIP3   OH258062   2.632   3.867   1.403
12216TIP3    H158063   2.611   3.958   1.382
12216TIP3    H258064   2.563   3.816   1.361
12217TIP3   OH258065   2.762   4.261   1.736
12217TIP3    H158066   2.724   4.235   1.819
12217TIP3    H258067   2.687   4.264   1.676
12218TIP3   OH258068   3.026   4.197   1.659
12218TIP3    H158069   2.937   4.199   1.695
12218TIP3    H258070   3.076   4.146   1.723
12219TIP3   OH258071   3.205   4.085   1.842
12219TIP3    H158072   3.203   3.989   1.835
12219TIP3    H258073   3.180   4.102   1.933
12220TIP3   OH258074   2.177   4.155   1.759
12220TIP3    H158075   2.175   4.076   1.707
12220TIP3    H258076   2.186   4.124   1.850
12221TIP3   OH258077   2.629   3.791   1.670
12221TIP3    H158078   2.686   3.714   1.665
12221TIP3    H258079   2.623   3.822   1.579
12222TIP3   OH258080   2.683   3.946   1.892
12222TIP3    H158081   2.673   3.891   1.815
12222TIP3    H258082   2.626   4.022   1.875
12223TIP3   OH258083   2.647   5.644   0.154
12223TIP3    H158084   2.737   5.660   0.182
12223TIP3    H258085   2.644   5.677   0.064
12224TIP3   OH258086   2.012   5.126   0.091
12224TIP3    H158087   2.106   5.134   0.104
12224TIP3    H258088   2.001   5.115  -0.004
12225TIP3   OH258089   1.897   5.633   0.630
12225TIP3    H158090   1.830   5.597   0.571
12225TIP3    H258091   1.910   5.565   0.696
12226TIP3   OH258092   1.960   5.445   0.818
12226TIP3    H158093   1.916   5.370   0.857
12226TIP3    H258094   2.016   5.479   0.887
12227TIP3   OH258095   3.706   5.492   1.116
12227TIP3    H158096   3.720   5.506   1.210
12227TIP3    H258097   3.731   5.575   1.076
12228TIP3   OH258098   3.669   5.469   1.400
12228TIP3    H158099   3.618   5.396   1.364
12228TIP3    H258100   3.718   5.430   1.472
12229TIP3   OH258101   3.521   5.060   1.886
12229TIP3    H158102   3.440   5.069   1.937
12229TIP3    H258103   3.577   5.132   1.917
12230TIP3   OH258104   3.677   4.940   0.465
12230TIP3    H158105   3.748   4.993   0.428
12230TIP3    H258106   3.699   4.933   0.558
12231TIP3   OH258107   3.688   4.687   0.619
12231TIP3    H158108   3.626   4.629   0.664
12231TIP3    H258109   3.756   4.704   0.684
12232TIP3   OH258110   3.701   4.990   1.117
12232TIP3    H158111   3.761   4.928   1.076
12232TIP3    H258112   3.730   5.076   1.087
12233TIP3   OH258113   3.500   5.261   1.313
12233TIP3    H158114   3.431   5.308   1.358
12233TIP3    H258115   3.467   5.247   1.224
12234TIP3   OH258116   3.682   4.757   0.234
12234TIP3    H158117   3.644   4.781   0.150
12234TIP3    H258118   3.724   4.837   0.265
12235TIP3   OH258119   3.491   4.384   0.131
12235TIP3    H158120   3.549   4.402   0.057
12235TIP3    H258121   3.448   4.301   0.108
12236TIP3   OH258122   3.476   4.523   0.677
12236TIP3    H158123   3.477   4.430   0.655
12236TIP3    H258124   3.430   4.528   0.761
12237TIP3   OH258125   1.994   4.819   1.059
12237TIP3    H158126   1.988   4.778   0.973
12237TIP3    H258127   2.053   4.762   1.109
12238TIP3   OH258128   3.557   4.755   1.634
12238TIP3    H158129   3.614   4.680   1.618
12238TIP3    H258130   3.608   4.830   1.604
12239TIP3   OH258131   3.695   4.517   1.616
12239TIP3    H158132   3.608   4.481   1.632
12239TIP3    H258133   3.755   4.446   1.637
12240TIP3   OH258134   3.457   4.310   0.479
12240TIP3    H158135   3.481   4.217   0.481
12240TIP3    H258136   3.532   4.353   0.437
12241TIP3   OH258137   3.484   4.362   1.048
12241TIP3    H158138   3.577   4.374   1.028
12241TIP3    H258139   3.478   4.377   1.143
12242TIP3   OH258140   3.509   4.445   1.314
12242TIP3    H158141   3.431   4.477   1.360
12242TIP3    H258142   3.563   4.523   1.302
12243TIP3   OH258143   1.950   4.288   1.677
12243TIP3    H158144   2.034   4.256   1.709
12243TIP3    H258145   1.894   4.210   1.675
12244TIP3   OH258146   3.741   3.870   1.836
12244TIP3    H158147   3.803   3.804   1.806
12244TIP3    H258148   3.739   3.935   1.767
12245TIP3   OH258149   3.511   4.045   0.499
12245TIP3    H158150   3.532   4.005   0.584
12245TIP3    H258151   3.447   3.986   0.460
12246TIP3   OH258152   2.048   4.130   0.976
12246TIP3    H158153   2.084   4.042   0.976
12246TIP3    H258154   2.123   4.187   0.990
12247TIP3   OH258155   1.871   4.446   1.057
12247TIP3    H158156   1.936   4.443   0.987
12247TIP3    H258157   1.918   4.417   1.135
12248TIP3   OH258158   3.673   4.052   1.645
12248TIP3    H158159   3.596   4.091   1.685
12248TIP3    H258160   3.639   4.001   1.571
12249TIP3   OH258161   3.681   4.043   0.152
12249TIP3    H158162   3.694   4.025   0.058
12249TIP3    H258163   3.747   4.109   0.173
12250TIP3   OH258164   1.913   4.039   0.437
12250TIP3    H158165   1.820   4.041   0.461
12250TIP3    H258166   1.925   4.113   0.378
12251TIP3   OH258167   3.373   5.564   0.666
12251TIP3    H158168   3.446   5.568   0.604
12251TIP3    H258169   3.401   5.618   0.740
12252TIP3   OH258170   1.911   3.903   1.306
12252TIP3    H158171   1.840   3.882   1.366
12252TIP3    H258172   1.872   3.961   1.241
12253TIP3   OH258173   2.133   5.262   1.700
12253TIP3    H158174   2.042   5.273   1.673
12253TIP3    H258175   2.128   5.240   1.793
12254TIP3   OH258176   2.451   5.360   1.344
12254TIP3    H158177   2.420   5.447   1.317
12254TIP3    H258178   2.545   5.363   1.329
12255TIP3   OH258179   2.831   5.486   1.625
12255TIP3    H158180   2.843   5.457   1.715
12255TIP3    H258181   2.911   5.534   1.604
12256TIP3   OH258182   3.069   5.619   1.581
12256TIP3    H158183   3.142   5.572   1.540
12256TIP3    H258184   3.105   5.656   1.661
12257TIP3   OH258185   3.579   3.842   1.468
12257TIP3    H158186   3.502   3.853   1.412
12257TIP3    H258187   3.608   3.752   1.453
12258TIP3   OH258188   2.139   5.646   1.356
12258TIP3    H158189   2.060   5.686   1.320
12258TIP3    H258190   2.153   5.692   1.439
12259TIP3   OH258191   2.401   5.619   1.268
12259TIP3    H158192   2.311   5.638   1.296
12259TIP3    H258193   2.415   5.675   1.192
12260TIP3   OH258194   2.865   5.604   1.177
12260TIP3    H158195   2.819   5.646   1.104
12260TIP3    H258196   2.879   5.674   1.241
12261TIP3   OH258197   3.087   5.467   1.264
12261TIP3    H158198   3.010   5.517   1.237
12261TIP3    H258199   3.160   5.529   1.259
12262TIP3   OH258200   3.323   5.609   1.267
12262TIP3    H158201   3.335   5.703   1.258
12262TIP3    H258202   3.366   5.572   1.191
12263TIP3   OH258203   2.140   5.526   1.016
12263TIP3    H158204   2.128   5.500   1.107
12263TIP3    H258205   2.212   5.471   0.985
12264TIP3   OH258206   2.329   5.353   0.919
12264TIP3    H158207   2.312   5.267   0.958
12264TIP3    H258208   2.415   5.378   0.954
12265TIP3   OH258209   2.585   5.412   1.024
12265TIP3    H158210   2.602   5.322   0.997
12265TIP3    H258211   2.620   5.418   1.113
12266TIP3   OH258212   2.880   3.971   0.843
12266TIP3    H158213   2.830   3.909   0.897
12266TIP3    H258214   2.970   3.938   0.847
12267TIP3   OH258215   3.417   3.834   0.916
12267TIP3    H158216   3.479   3.887   0.865
12267TIP3    H258217   3.332   3.872   0.896
12268TIP3   OH258218   3.597   3.936   0.738
12268TIP3    H158219   3.664   3.871   0.714
12268TIP3    H258220   3.647   4.017   0.751
12269TIP3   OH258221   2.153   3.845   0.669
12269TIP3    H158222   2.060   3.826   0.651
12269TIP3    H258223   2.197   3.761   0.658
12270TIP3   OH258224   2.009   3.867   0.242
12270TIP3    H158225   2.084   3.916   0.209
12270TIP3    H258226   1.980   3.917   0.319
12271TIP3   OH258227   2.625   3.831   0.679
12271TIP3    H158228   2.699   3.876   0.640
12271TIP3    H258229   2.646   3.827   0.773
12272TIP3   OH258230   3.143   3.870   0.826
12272TIP3    H158231   3.181   3.852   0.740
12272TIP3    H258232   3.121   3.784   0.862
12273TIP3   OH258233   3.308   3.883   0.404
12273TIP3    H158234   3.230   3.937   0.415
12273TIP3    H258235   3.279   3.793   0.419
12274TIP3   OH258236   2.012   5.498   0.344
12274TIP3    H158237   1.938   5.477   0.286
12274TIP3    H258238   2.054   5.573   0.302
12275TIP3   OH258239   2.228   4.009   0.141
12275TIP3    H158240   2.271   3.940   0.091
12275TIP3    H258241   2.299   4.050   0.191
12276TIP3   OH258242   2.717   4.087   0.363
12276TIP3    H158243   2.752   4.018   0.419
12276TIP3    H258244   2.738   4.168   0.408
12277TIP3   OH258245   2.914   5.643   0.222
12277TIP3    H158246   2.980   5.705   0.192
12277TIP3    H258247   2.938   5.560   0.183
12278TIP3   OH258248   3.571   5.555   0.470
12278TIP3    H158249   3.558   5.467   0.435
12278TIP3    H258250   3.568   5.612   0.393
12279TIP3   OH258251   2.166   3.907   1.624
12279TIP3    H158252   2.106   3.838   1.652
12279TIP3    H258253   2.247   3.889   1.671
12280TIP3   OH258254   2.369   3.838   1.801
12280TIP3    H158255   2.453   3.810   1.766
12280TIP3    H258256   2.332   3.760   1.842
12281TIP3   OH258257   2.224   5.540  15.971
12281TIP3    H158258   2.160   5.611  15.968
12281TIP3    H258259   2.288   5.568  16.036
12282TIP3   OH258260   3.220   3.809   1.811
12282TIP3    H158261   3.204   3.758   1.890
12282TIP3    H258262   3.313   3.795   1.792
12283TIP3   OH258263   3.488   5.395   1.680
12283TIP3    H158264   3.428   5.388   1.606
12283TIP3    H258265   3.485   5.488   1.705
12284TIP3   OH258266   4.955   4.797   0.652
12284TIP3    H158267   4.949   4.893   0.647
12284TIP3    H258268   4.886   4.766   0.593
12285TIP3   OH258269   4.838   4.714   1.051
12285TIP3    H158270   4.870   4.679   1.134
12285TIP3    H258271   4.799   4.638   1.007
12286TIP3   OH258272   4.080   4.671   1.197
12286TIP3    H158273   4.077   4.582   1.232
12286TIP3    H258274   4.117   4.724   1.267
12287TIP3   OH258275   5.226   5.022   0.877
12287TIP3    H158276   5.194   4.946   0.926
12287TIP3    H258277   5.248   5.087   0.944
12288TIP3   OH258278   4.207   5.112   0.971
12288TIP3    H158279   4.173   5.023   0.964
12288TIP3    H258280   4.301   5.101   0.988
12289TIP3   OH258281   3.851   4.459   0.528
12289TIP3    H158282   3.822   4.539   0.572
12289TIP3    H258283   3.785   4.444   0.460
12290TIP3   OH258284   3.905   4.701   0.798
12290TIP3    H158285   3.933   4.612   0.820
12290TIP3    H258286   3.982   4.756   0.816
12291TIP3   OH258287   4.951   5.502   0.907
12291TIP3    H158288   4.989   5.447   0.839
12291TIP3    H258289   4.926   5.441   0.976
12292TIP3   OH258290   4.692   4.957   1.068
12292TIP3    H158291   4.735   4.876   1.040
12292TIP3    H258292   4.756   4.998   1.126
12293TIP3   OH258293   5.575   4.108   1.158
12293TIP3    H158294   5.593   4.175   1.224
12293TIP3    H258295   5.629   4.134   1.083
12294TIP3   OH258296   5.001   4.381   1.075
12294TIP3    H158297   5.028   4.291   1.092
12294TIP3    H258298   4.993   4.386   0.980
12295TIP3   OH258299   4.331   4.201   0.803
12295TIP3    H158300   4.344   4.273   0.743
12295TIP3    H258301   4.289   4.133   0.751
12296TIP3   OH258302   5.129   4.226   0.642
12296TIP3    H158303   5.172   4.195   0.721
12296TIP3    H258304   5.199   4.266   0.590
12297TIP3   OH258305   3.984   4.447   0.873
12297TIP3    H158306   4.045   4.407   0.935
12297TIP3    H258307   4.002   4.403   0.790
12298TIP3   OH258308   4.518   4.560   0.780
12298TIP3    H158309   4.595   4.546   0.836
12298TIP3    H258310   4.447   4.514   0.825
12299TIP3   OH258311   5.615   4.273   1.380
12299TIP3    H158312   5.541   4.331   1.364
12299TIP3    H258313   5.637   4.287   1.472
12300TIP3   OH258314   4.212   4.111   1.219
12300TIP3    H158315   4.184   4.171   1.150
12300TIP3    H258316   4.143   4.115   1.285
12301TIP3   OH258317   4.928   5.055   0.552
12301TIP3    H158318   4.916   5.056   0.457
12301TIP3    H258319   4.883   5.134   0.583
12302TIP3   OH258320   4.467   4.883   1.217
12302TIP3    H158321   4.414   4.955   1.252
12302TIP3    H258322   4.540   4.926   1.172
12303TIP3   OH258323   5.235   4.179   0.887
12303TIP3    H158324   5.178   4.149   0.957
12303TIP3    H258325   5.299   4.236   0.931
12304TIP3   OH258326   4.169   4.286   1.008
12304TIP3    H158327   4.226   4.343   1.059
12304TIP3    H258328   4.227   4.249   0.940
12305TIP3   OH258329   4.314   5.089   1.317
12305TIP3    H158330   4.324   5.184   1.306
12305TIP3    H258331   4.224   5.078   1.346
12306TIP3   OH258332   3.892   5.064   0.363
12306TIP3    H158333   3.897   5.107   0.278
12306TIP3    H258334   3.910   5.134   0.426
12307TIP3   OH258335   5.260   5.226   1.072
12307TIP3    H158336   5.166   5.229   1.087
12307TIP3    H258337   5.284   5.316   1.048
12308TIP3   OH258338   5.323   3.998   1.235
12308TIP3    H158339   5.254   4.048   1.193
12308TIP3    H258340   5.405   4.030   1.196
12309TIP3   OH258341   4.561   3.799   0.964
12309TIP3    H158342   4.537   3.706   0.968
12309TIP3    H258343   4.483   3.845   0.996
12310TIP3   OH258344   5.083   5.384   0.690
12310TIP3    H158345   5.131   5.302   0.674
12310TIP3    H258346   5.152   5.451   0.695
12311TIP3   OH258347   5.187   5.137   0.629
12311TIP3    H158348   5.105   5.094   0.602
12311TIP3    H258349   5.212   5.092   0.710
12312TIP3   OH258350   5.376   5.016   1.428
12312TIP3    H158351   5.369   4.956   1.353
12312TIP3    H258352   5.390   5.102   1.388
12313TIP3   OH258353   4.805   4.703   0.433
12313TIP3    H158354   4.746   4.774   0.408
12313TIP3    H258355   4.877   4.709   0.370
12314TIP3   OH258356   4.833   4.556   0.120
12314TIP3    H158357   4.889   4.586   0.192
12314TIP3    H258358   4.891   4.555   0.044
12315TIP3   OH258359   5.544   4.668   1.266
12315TIP3    H158360   5.471   4.729   1.258
12315TIP3    H258361   5.605   4.693   1.197
12316TIP3   OH258362   5.181   4.743   0.504
12316TIP3    H158363   5.114   4.765   0.570
12316TIP3    H258364   5.248   4.696   0.553
12317TIP3   OH258365   5.148   4.536   1.455
12317TIP3    H158366   5.149   4.608   1.518
12317TIP3    H258367   5.083   4.562   1.389
12318TIP3   OH258368   4.333   4.768   0.709
12318TIP3    H158369   4.303   4.743   0.622
12318TIP3    H258370   4.400   4.703   0.731
12319TIP3   OH258371   4.490   5.131   0.959
12319TIP3    H158372   4.497   5.143   0.865
12319TIP3    H258373   4.566   5.078   0.983
12320TIP3   OH258374   4.382   4.692   1.043
12320TIP3    H158375   4.453   4.708   0.981
12320TIP3    H258376   4.397   4.754   1.114
12321TIP3   OH258377   4.996   5.238   1.140
12321TIP3    H158378   4.984   5.310   1.202
12321TIP3    H258379   4.956   5.162   1.183
12322TIP3   OH258380   4.476   5.113   1.543
12322TIP3    H158381   4.415   5.172   1.588
12322TIP3    H258382   4.430   5.086   1.464
12323TIP3   OH258383   5.041   4.680   0.279
12323TIP3    H158384   5.090   4.704   0.357
12323TIP3    H258385   5.088   4.720   0.207
12324TIP3   OH258386   4.148   4.733   1.471
12324TIP3    H158387   4.159   4.807   1.531
12324TIP3    H258388   4.054   4.716   1.472
12325TIP3   OH258389   4.829   5.307   0.614
12325TIP3    H158390   4.912   5.338   0.649
12325TIP3    H258391   4.790   5.383   0.572
12326TIP3   OH258392   4.275   5.290   1.611
12326TIP3    H158393   4.276   5.324   1.521
12326TIP3    H258394   4.181   5.283   1.632
12327TIP3   OH258395   5.427   3.828   0.251
12327TIP3    H158396   5.345   3.861   0.290
12327TIP3    H258397   5.473   3.907   0.223
12328TIP3   OH258398   4.251   4.691   0.447
12328TIP3    H158399   4.206   4.766   0.409
12328TIP3    H258400   4.192   4.617   0.431
12329TIP3   OH258401   5.535   5.245   0.106
12329TIP3    H158402   5.554   5.338   0.108
12329TIP3    H258403   5.621   5.203   0.099
12330TIP3   OH258404   3.837   4.948   1.365
12330TIP3    H158405   3.787   4.955   1.284
12330TIP3    H258406   3.849   4.854   1.378
12331TIP3   OH258407   3.809   5.243   1.049
12331TIP3    H158408   3.889   5.252   1.099
12331TIP3    H258409   3.759   5.323   1.068
12332TIP3   OH258410   5.629   5.297   1.629
12332TIP3    H158411   5.616   5.202   1.622
12332TIP3    H258412   5.545   5.330   1.661
12333TIP3   OH258413   4.714   5.242   1.491
12333TIP3    H158414   4.711   5.325   1.539
12333TIP3    H258415   4.630   5.200   1.511
12334TIP3   OH258416   4.796   5.577   0.485
12334TIP3    H158417   4.784   5.601   0.393
12334TIP3    H258418   4.772   5.655   0.534
12335TIP3   OH258419   4.139   5.491   0.682
12335TIP3    H158420   4.170   5.461   0.767
12335TIP3    H258421   4.059   5.440   0.666
12336TIP3   OH258422   5.098   5.515   0.134
12336TIP3    H158423   5.174   5.462   0.110
12336TIP3    H258424   5.102   5.521   0.230
12337TIP3   OH258425   5.060   5.517   0.419
12337TIP3    H158426   4.968   5.531   0.445
12337TIP3    H258427   5.096   5.462   0.488
12338TIP3   OH258428   5.331   4.418   1.660
12338TIP3    H158429   5.265   4.453   1.600
12338TIP3    H258430   5.337   4.325   1.638
12339TIP3   OH258431   4.063   5.095   1.426
12339TIP3    H158432   4.086   5.063   1.513
12339TIP3    H258433   3.982   5.048   1.403
12340TIP3   OH258434   4.318   3.912   1.054
12340TIP3    H158435   4.240   3.902   1.000
12340TIP3    H258436   4.297   3.984   1.114
12341TIP3   OH258437   4.800   3.879   1.400
12341TIP3    H158438   4.849   3.835   1.469
12341TIP3    H258439   4.709   3.872   1.426
12342TIP3   OH258440   5.080   4.265   1.460
12342TIP3    H158441   5.024   4.250   1.536
12342TIP3    H258442   5.095   4.360   1.459
12343TIP3   OH258443   5.194   4.776   0.071
12343TIP3    H158444   5.196   4.813  -0.017
12343TIP3    H258445   5.271   4.815   0.115
12344TIP3   OH258446   4.771   4.137   0.119
12344TIP3    H158447   4.683   4.174   0.122
12344TIP3    H258448   4.774   4.090   0.035
12345TIP3   OH258449   4.333   4.446   1.158
12345TIP3    H158450   4.272   4.453   1.232
12345TIP3    H258451   4.343   4.535   1.126
12346TIP3   OH258452   4.324   4.405   0.613
12346TIP3    H158453   4.231   4.393   0.630
12346TIP3    H258454   4.335   4.378   0.522
12347TIP3   OH258455   4.898   4.469   0.545
12347TIP3    H158456   4.873   4.554   0.509
12347TIP3    H258457   4.969   4.440   0.488
12348TIP3   OH258458   4.798   4.480   1.661
12348TIP3    H158459   4.747   4.409   1.698
12348TIP3    H258460   4.882   4.476   1.707
12349TIP3   OH258461   4.980   4.402   0.803
12349TIP3    H158462   4.946   4.456   0.732
12349TIP3    H258463   5.025   4.330   0.758
12350TIP3   OH258464   4.113   4.428   1.334
12350TIP3    H158465   4.160   4.454   1.414
12350TIP3    H258466   4.072   4.345   1.356
12351TIP3   OH258467   4.511   4.227   0.067
12351TIP3    H158468   4.438   4.190   0.117
12351TIP3    H258469   4.472   4.302   0.020
12352TIP3   OH258470   3.763   4.151   0.734
12352TIP3    H158471   3.828   4.151   0.804
12352TIP3    H258472   3.812   4.126   0.656
12353TIP3   OH258473   3.858   4.243   0.252
12353TIP3    H158474   3.929   4.267   0.191
12353TIP3    H258475   3.812   4.325   0.269
12354TIP3   OH258476   4.927   4.558   1.269
12354TIP3    H158477   4.961   4.499   1.201
12354TIP3    H258478   4.863   4.505   1.316
12355TIP3   OH258479   4.618   4.197   0.796
12355TIP3    H158480   4.528   4.182   0.827
12355TIP3    H258481   4.667   4.122   0.829
12356TIP3   OH258482   4.064   4.324   0.634
12356TIP3    H158483   3.988   4.359   0.588
12356TIP3    H258484   4.068   4.232   0.607
12357TIP3   OH258485   4.448   4.391   0.368
12357TIP3    H158486   4.494   4.311   0.342
12357TIP3    H258487   4.400   4.418   0.290
12358TIP3   OH258488   5.059   4.098   1.083
12358TIP3    H158489   5.002   4.103   1.160
12358TIP3    H258490   5.020   4.031   1.028
12359TIP3   OH258491   4.296   4.455   0.153
12359TIP3    H158492   4.206   4.429   0.133
12359TIP3    H258493   4.333   4.478   0.068
12360TIP3   OH258494   5.374   5.671   1.729
12360TIP3    H158495   5.398   5.704   1.643
12360TIP3    H258496   5.450   5.693   1.784
12361TIP3   OH258497   4.139   4.938   1.662
12361TIP3    H158498   4.206   4.932   1.729
12361TIP3    H258499   4.056   4.944   1.710
12362TIP3   OH258500   4.714   4.476   0.954
12362TIP3    H158501   4.787   4.424   0.922
12362TIP3    H258502   4.678   4.424   1.027
12363TIP3   OH258503   4.215   4.047   0.601
12363TIP3    H158504   4.144   3.985   0.617
12363TIP3    H258505   4.291   3.992   0.582
12364TIP3   OH258506   4.594   4.344   1.174
12364TIP3    H158507   4.509   4.388   1.183
12364TIP3    H258508   4.642   4.369   1.253
12365TIP3   OH258509   4.634   4.904   0.359
12365TIP3    H158510   4.564   4.865   0.308
12365TIP3    H258511   4.591   4.938   0.437
12366TIP3   OH258512   5.351   4.857   1.203
12366TIP3    H158513   5.413   4.910   1.154
12366TIP3    H258514   5.279   4.840   1.142
12367TIP3   OH258515   5.024   4.180   0.215
12367TIP3    H158516   4.935   4.175   0.181
12367TIP3    H258517   5.034   4.271   0.244
12368TIP3   OH258518   4.780   4.947   1.499
12368TIP3    H158519   4.811   4.910   1.582
12368TIP3    H258520   4.758   5.037   1.521
12369TIP3   OH258521   5.097   4.409   0.362
12369TIP3    H158522   5.185   4.385   0.389
12369TIP3    H258523   5.108   4.494   0.318
12370TIP3   OH258524   4.140   4.815   0.907
12370TIP3    H158525   4.210   4.809   0.841
12370TIP3    H258526   4.175   4.768   0.983
12371TIP3   OH258527   4.858   5.049   0.272
12371TIP3    H158528   4.817   5.135   0.282
12371TIP3    H258529   4.788   4.987   0.293
12372TIP3   OH258530   3.873   4.688   1.467
12372TIP3    H158531   3.863   4.654   1.555
12372TIP3    H258532   3.803   4.646   1.417
12373TIP3   OH258533   4.591   4.670   1.680
12373TIP3    H158534   4.536   4.638   1.608
12373TIP3    H258535   4.673   4.622   1.670
12374TIP3   OH258536   4.994   5.219   1.484
12374TIP3    H158537   4.901   5.226   1.466
12374TIP3    H258538   5.002   5.239   1.578
12375TIP3   OH258539   5.547   4.450   0.325
12375TIP3    H158540   5.485   4.418   0.260
12375TIP3    H258541   5.566   4.540   0.298
12376TIP3   OH258542   5.595   5.015   1.592
12376TIP3    H158543   5.505   5.025   1.560
12376TIP3    H258544   5.647   5.000   1.513
12377TIP3   OH258545   5.423   5.283   0.362
12377TIP3    H158546   5.379   5.206   0.399
12377TIP3    H258547   5.456   5.253   0.278
12378TIP3   OH258548   5.141   4.792   1.020
12378TIP3    H158549   5.045   4.785   1.018
12378TIP3    H258550   5.172   4.713   0.975
12379TIP3   OH258551   4.419   5.217   0.694
12379TIP3    H158552   4.443   5.298   0.651
12379TIP3    H258553   4.328   5.230   0.722
12380TIP3   OH258554   3.959   4.657   0.184
12380TIP3    H158555   4.014   4.727   0.218
12380TIP3    H258556   3.871   4.695   0.182
12381TIP3   OH258557   4.492   4.970   0.584
12381TIP3    H158558   4.478   5.060   0.613
12381TIP3    H258559   4.433   4.918   0.639
12382TIP3   OH258560   4.606   5.386   1.270
12382TIP3    H158561   4.663   5.460   1.249
12382TIP3    H258562   4.658   5.333   1.331
12383TIP3   OH258563   4.399   5.482   0.583
12383TIP3    H158564   4.307   5.496   0.607
12383TIP3    H258565   4.444   5.559   0.618
12384TIP3   OH258566   4.899   4.997   1.254
12384TIP3    H158567   4.855   4.978   1.337
12384TIP3    H258568   4.982   4.950   1.259
12385TIP3   OH258569   5.148   5.088   0.135
12385TIP3    H158570   5.201   5.039   0.198
12385TIP3    H258571   5.060   5.088   0.172
12386TIP3   OH258572   5.201   5.421   1.459
12386TIP3    H158573   5.120   5.372   1.442
12386TIP3    H258574   5.198   5.494   1.397
12387TIP3   OH258575   5.590   5.513   0.144
12387TIP3    H158576   5.651   5.576   0.104
12387TIP3    H258577   5.518   5.567   0.175
12388TIP3   OH258578   4.003   4.172   1.393
12388TIP3    H158579   3.911   4.195   1.381
12388TIP3    H258580   4.001   4.106   1.463
12389TIP3   OH258581   5.292   4.932   0.321
12389TIP3    H158582   5.243   4.885   0.388
12389TIP3    H258583   5.382   4.930   0.352
12390TIP3   OH258584   3.997   5.356   1.255
12390TIP3    H158585   4.026   5.283   1.309
12390TIP3    H258586   4.011   5.433   1.310
12391TIP3   OH258587   4.419   5.180   0.261
12391TIP3    H158588   4.505   5.142   0.280
12391TIP3    H258589   4.429   5.273   0.281
12392TIP3   OH258590   4.091   4.877   0.308
12392TIP3    H158591   4.020   4.927   0.349
12392TIP3    H258592   4.141   4.941   0.259
12393TIP3   OH258593   4.904   4.119   1.306
12393TIP3    H158594   4.967   4.153   1.369
12393TIP3    H258595   4.869   4.040   1.348
12394TIP3   OH258596   4.982   4.069   0.464
12394TIP3    H158597   4.996   4.106   0.377
12394TIP3    H258598   5.029   4.129   0.522
12395TIP3   OH258599   4.703   5.271   0.304
12395TIP3    H158600   4.634   5.332   0.332
12395TIP3    H258601   4.757   5.323   0.244
12396TIP3   OH258602   4.677   4.312   0.561
12396TIP3    H158603   4.768   4.342   0.558
12396TIP3    H258604   4.670   4.265   0.644
12397TIP3   OH258605   4.759   4.381   1.399
12397TIP3    H158606   4.768   4.408   1.490
12397TIP3    H258607   4.795   4.292   1.397
12398TIP3   OH258608   4.750   3.960   0.568
12398TIP3    H158609   4.762   3.977   0.662
12398TIP3    H258610   4.827   3.997   0.527
12399TIP3   OH258611   4.481   5.439   0.325
12399TIP3    H158612   4.488   5.524   0.282
12399TIP3    H258613   4.451   5.459   0.414
12400TIP3   OH258614   4.328   4.105   0.252
12400TIP3    H158615   4.271   4.134   0.322
12400TIP3    H258616   4.414   4.093   0.294
12401TIP3   OH258617   5.335   4.179   1.507
12401TIP3    H158618   5.242   4.193   1.488
12401TIP3    H258619   5.373   4.151   1.424
12402TIP3   OH258620   5.216   4.545   0.899
12402TIP3    H158621   5.134   4.499   0.882
12402TIP3    H258622   5.266   4.486   0.955
12403TIP3   OH258623   4.176   5.096   0.155
12403TIP3    H158624   4.230   5.152   0.212
12403TIP3    H258625   4.239   5.051   0.099
12404TIP3   OH258626   4.029   4.406   0.087
12404TIP3    H158627   4.003   4.496   0.109
12404TIP3    H258628   4.019   4.401  -0.008
12405TIP3   OH258629   5.342   5.493   1.061
12405TIP3    H158630   5.328   5.571   1.008
12405TIP3    H258631   5.437   5.488   1.071
12406TIP3   OH258632   4.067   3.885   0.938
12406TIP3    H158633   4.058   3.871   0.843
12406TIP3    H258634   4.035   3.804   0.977
12407TIP3   OH258635   3.916   5.264   0.550
12407TIP3    H158636   3.890   5.304   0.633
12407TIP3    H258637   3.919   5.337   0.489
12408TIP3   OH258638   3.916   5.572   1.736
12408TIP3    H158639   3.982   5.551   1.803
12408TIP3    H258640   3.894   5.488   1.697
12409TIP3   OH258641   4.342   5.400   1.855
12409TIP3    H158642   4.423   5.358   1.885
12409TIP3    H258643   4.326   5.363   1.768
12410TIP3   OH258644   4.851   5.401   0.118
12410TIP3    H158645   4.825   5.365   0.033
12410TIP3    H258646   4.943   5.426   0.105
12411TIP3   OH258647   4.998   5.268   1.753
12411TIP3    H158648   4.976   5.186   1.797
12411TIP3    H258649   5.074   5.302   1.802
12412TIP3   OH258650   5.269   5.320   0.032
12412TIP3    H158651   5.226   5.244   0.071
12412TIP3    H258652   5.362   5.305   0.046
12413TIP3   OH258653   3.891   4.933   1.790
12413TIP3    H158654   3.894   4.838   1.782
12413TIP3    H258655   3.817   4.959   1.734
12414TIP3   OH258656   4.356   4.935   0.033
12414TIP3    H158657   4.395   4.888   0.107
12414TIP3    H258658   4.366   4.876  -0.041
12415TIP3   OH258659   4.553   4.945   1.749
12415TIP3    H158660   4.537   4.989   1.665
12415TIP3    H258661   4.581   4.857   1.724
12416TIP3   OH258662   5.113   4.963   1.492
12416TIP3    H158663   5.205   4.986   1.478
12416TIP3    H258664   5.067   5.047   1.487
12417TIP3   OH258665   3.970   4.658   1.756
12417TIP3    H158666   4.056   4.624   1.733
12417TIP3    H258667   3.970   4.662   1.852
12418TIP3   OH258668   4.440   4.755   0.228
12418TIP3    H158669   4.379   4.710   0.286
12418TIP3    H258670   4.478   4.686   0.173
12419TIP3   OH258671   4.351   4.542   1.461
12419TIP3    H158672   4.291   4.616   1.471
12419TIP3    H258673   4.428   4.580   1.418
12420TIP3   OH258674   4.564   4.573   0.061
12420TIP3    H158675   4.568   4.565  -0.034
12420TIP3    H258676   4.654   4.560   0.090
12421TIP3   OH258677   4.886   4.800   1.782
12421TIP3    H158678   4.969   4.765   1.751
12421TIP3    H258679   4.856   4.735   1.847
12422TIP3   OH258680   5.477   4.888   0.032
12422TIP3    H158681   5.444   4.911  -0.055
12422TIP3    H258682   5.495   4.972   0.073
12423TIP3   OH258683   4.421   4.296   1.569
12423TIP3    H158684   4.437   4.234   1.498
12423TIP3    H258685   4.404   4.379   1.526
12424TIP3   OH258686   4.461   4.136   1.335
12424TIP3    H158687   4.515   4.184   1.272
12424TIP3    H258688   4.375   4.131   1.294
12425TIP3   OH258689   4.569   4.666   1.355
12425TIP3    H158690   4.663   4.680   1.367
12425TIP3    H258691   4.538   4.745   1.311
12426TIP3   OH258692   5.027   4.443   1.830
12426TIP3    H158693   5.058   4.353   1.837
12426TIP3    H258694   5.103   4.496   1.853
12427TIP3   OH258695   5.170   4.743   1.644
12427TIP3    H158696   5.140   4.820   1.597
12427TIP3    H258697   5.266   4.749   1.640
12428TIP3   OH258698   4.253   4.357   1.787
12428TIP3    H158699   4.175   4.301   1.778
12428TIP3    H258700   4.305   4.339   1.708
12429TIP3   OH258701   4.517   3.867   1.399
12429TIP3    H158702   4.498   3.959   1.379
12429TIP3    H258703   4.447   3.819   1.356
12430TIP3   OH258704   4.648   4.265   1.737
12430TIP3    H158705   4.620   4.236   1.824
12430TIP3    H258706   4.567   4.267   1.685
12431TIP3   OH258707   4.907   4.191   1.653
12431TIP3    H158708   4.820   4.200   1.691
12431TIP3    H258709   4.959   4.148   1.721
12432TIP3   OH258710   5.086   4.089   1.845
12432TIP3    H158711   5.086   3.994   1.836
12432TIP3    H258712   5.062   4.105   1.936
12433TIP3   OH258713   4.052   4.159   1.761
12433TIP3    H158714   4.054   4.078   1.710
12433TIP3    H258715   4.063   4.130   1.852
12434TIP3   OH258716   4.507   3.787   1.662
12434TIP3    H158717   4.568   3.713   1.658
12434TIP3    H258718   4.503   3.819   1.572
12435TIP3   OH258719   4.583   3.951   1.870
12435TIP3    H158720   4.560   3.898   1.794
12435TIP3    H258721   4.520   4.023   1.869
12436TIP3   OH258722   4.537   5.649   0.156
12436TIP3    H158723   4.627   5.665   0.182
12436TIP3    H258724   4.533   5.677   0.064
12437TIP3   OH258725   3.902   5.127   0.084
12437TIP3    H158726   3.997   5.129   0.099
12437TIP3    H258727   3.893   5.118  -0.011
12438TIP3   OH258728   3.794   5.613   0.627
12438TIP3    H158729   3.726   5.586   0.566
12438TIP3    H258730   3.803   5.538   0.687
12439TIP3   OH258731   3.865   5.397   0.798
12439TIP3    H158732   3.829   5.326   0.852
12439TIP3    H258733   3.905   5.457   0.861
12440TIP3   OH258734   5.611   5.489   1.126
12440TIP3    H158735   5.613   5.503   1.221
12440TIP3    H258736   5.685   5.539   1.093
12441TIP3   OH258737   5.553   5.474   1.407
12441TIP3    H158738   5.500   5.404   1.368
12441TIP3    H258739   5.600   5.432   1.478
12442TIP3   OH258740   5.399   5.059   1.880
12442TIP3    H158741   5.317   5.068   1.929
12442TIP3    H258742   5.455   5.128   1.915
12443TIP3   OH258743   5.549   4.892   0.418
12443TIP3    H158744   5.620   4.956   0.422
12443TIP3    H258745   5.565   4.835   0.494
12444TIP3   OH258746   5.601   4.698   0.610
12444TIP3    H158747   5.517   4.663   0.641
12444TIP3    H258748   5.652   4.710   0.689
12445TIP3   OH258749   5.581   4.986   1.120
12445TIP3    H158750   5.635   4.919   1.078
12445TIP3    H258751   5.612   5.068   1.082
12446TIP3   OH258752   5.388   5.268   1.318
12446TIP3    H158753   5.316   5.312   1.362
12446TIP3    H258754   5.355   5.251   1.230
12447TIP3   OH258755   5.587   4.708   0.220
12447TIP3    H158756   5.536   4.751   0.151
12447TIP3    H258757   5.577   4.765   0.296
12448TIP3   OH258758   5.383   4.364   0.130
12448TIP3    H158759   5.447   4.384   0.062
12448TIP3    H258760   5.339   4.284   0.100
12449TIP3   OH258761   5.349   4.577   0.656
12449TIP3    H158762   5.347   4.487   0.624
12449TIP3    H258763   5.309   4.572   0.743
12450TIP3   OH258764   3.848   4.754   1.070
12450TIP3    H158765   3.860   4.739   0.976
12450TIP3    H258766   3.934   4.734   1.108
12451TIP3   OH258767   5.448   4.757   1.633
12451TIP3    H158768   5.503   4.681   1.616
12451TIP3    H258769   5.500   4.832   1.603
12452TIP3   OH258770   5.582   4.518   1.613
12452TIP3    H158771   5.495   4.483   1.633
12452TIP3    H258772   5.642   4.448   1.636
12453TIP3   OH258773   5.345   4.330   0.490
12453TIP3    H158774   5.371   4.238   0.491
12453TIP3    H258775   5.416   4.375   0.445
12454TIP3   OH258776   5.371   4.363   1.046
12454TIP3    H158777   5.464   4.374   1.026
12454TIP3    H258778   5.364   4.378   1.140
12455TIP3   OH258779   5.393   4.441   1.315
12455TIP3    H158780   5.315   4.472   1.361
12455TIP3    H258781   5.447   4.519   1.303
12456TIP3   OH258782   3.828   4.278   1.649
12456TIP3    H158783   3.911   4.255   1.690
12456TIP3    H258784   3.774   4.199   1.658
12457TIP3   OH258785   5.619   3.863   1.833
12457TIP3    H158786   5.687   3.801   1.808
12457TIP3    H258787   5.624   3.932   1.767
12458TIP3   OH258788   5.402   4.059   0.498
12458TIP3    H158789   5.424   4.018   0.582
12458TIP3    H258790   5.334   4.002   0.461
12459TIP3   OH258791   3.936   4.130   0.952
12459TIP3    H158792   3.974   4.042   0.958
12459TIP3    H258793   4.007   4.188   0.980
12460TIP3   OH258794   3.751   4.419   1.031
12460TIP3    H158795   3.823   4.421   0.968
12460TIP3    H258796   3.782   4.472   1.104
12461TIP3   OH258797   5.560   4.056   1.649
12461TIP3    H158798   5.484   4.096   1.692
12461TIP3    H258799   5.523   4.007   1.576
12462TIP3   OH258800   5.572   4.040   0.139
12462TIP3    H158801   5.612   4.033   0.052
12462TIP3    H258802   5.623   4.108   0.183
12463TIP3   OH258803   3.811   4.061   0.458
12463TIP3    H158804   3.717   4.044   0.453
12463TIP3    H258805   3.828   4.123   0.387
12464TIP3   OH258806   5.259   5.593   0.677
12464TIP3    H158807   5.308   5.578   0.596
12464TIP3    H258808   5.323   5.630   0.738
12465TIP3   OH258809   3.800   3.897   1.293
12465TIP3    H158810   3.731   3.884   1.359
12465TIP3    H258811   3.765   3.964   1.234
12466TIP3   OH258812   4.011   5.271   1.706
12466TIP3    H158813   3.921   5.273   1.673
12466TIP3    H258814   4.003   5.242   1.797
12467TIP3   OH258815   4.341   5.364   1.343
12467TIP3    H158816   4.311   5.451   1.318
12467TIP3    H258817   4.436   5.365   1.327
12468TIP3   OH258818   4.716   5.487   1.623
12468TIP3    H158819   4.727   5.456   1.713
12468TIP3    H258820   4.797   5.535   1.605
12469TIP3   OH258821   4.955   5.622   1.584
12469TIP3    H158822   5.021   5.566   1.544
12469TIP3    H258823   4.997   5.656   1.664
12470TIP3   OH258824   5.464   3.856   1.464
12470TIP3    H158825   5.399   3.881   1.399
12470TIP3    H258826   5.484   3.765   1.445
12471TIP3   OH258827   4.040   5.634   1.375
12471TIP3    H158828   3.965   5.679   1.335
12471TIP3    H258829   4.055   5.681   1.457
12472TIP3   OH258830   4.297   5.626   1.273
12472TIP3    H158831   4.205   5.635   1.300
12472TIP3    H258832   4.303   5.675   1.191
12473TIP3   OH258833   4.751   5.606   1.181
12473TIP3    H158834   4.703   5.643   1.107
12473TIP3    H258835   4.761   5.679   1.242
12474TIP3   OH258836   4.979   5.480   1.272
12474TIP3    H158837   4.901   5.523   1.238
12474TIP3    H258838   5.049   5.544   1.259
12475TIP3   OH258839   5.218   5.627   1.268
12475TIP3    H158840   5.239   5.719   1.253
12475TIP3    H258841   5.260   5.580   1.196
12476TIP3   OH258842   4.006   5.507   1.013
12476TIP3    H158843   3.990   5.467   1.099
12476TIP3    H258844   4.090   5.470   0.985
12477TIP3   OH258845   4.228   5.380   0.916
12477TIP3    H158846   4.213   5.289   0.941
12477TIP3    H258847   4.313   5.402   0.954
12478TIP3   OH258848   4.484   5.409   1.021
12478TIP3    H158849   4.496   5.319   0.993
12478TIP3    H258850   4.517   5.411   1.111
12479TIP3   OH258851   4.760   3.966   0.847
12479TIP3    H158852   4.710   3.902   0.897
12479TIP3    H258853   4.851   3.938   0.856
12480TIP3   OH258854   5.306   3.828   0.905
12480TIP3    H158855   5.371   3.881   0.858
12480TIP3    H258856   5.226   3.880   0.904
12481TIP3   OH258857   5.486   3.931   0.729
12481TIP3    H158858   5.550   3.865   0.703
12481TIP3    H258859   5.538   4.009   0.747
12482TIP3   OH258860   4.037   3.845   0.665
12482TIP3    H158861   3.944   3.830   0.645
12482TIP3    H258862   4.078   3.760   0.652
12483TIP3   OH258863   3.953   3.858   0.301
12483TIP3    H158864   3.993   3.916   0.236
12483TIP3    H258865   3.902   3.916   0.357
12484TIP3   OH258866   4.501   3.851   0.673
12484TIP3    H158867   4.578   3.889   0.631
12484TIP3    H258868   4.527   3.840   0.765
12485TIP3   OH258869   5.025   3.882   0.844
12485TIP3    H158870   5.061   3.876   0.755
12485TIP3    H258871   5.008   3.791   0.869
12486TIP3   OH258872   5.199   3.893   0.406
12486TIP3    H158873   5.121   3.948   0.413
12486TIP3    H258874   5.166   3.804   0.417
12487TIP3   OH258875   3.913   5.459   0.363
12487TIP3    H158876   3.838   5.458   0.304
12487TIP3    H258877   3.949   5.548   0.354
12488TIP3   OH258878   4.130   3.977   0.103
12488TIP3    H158879   4.145   3.882   0.094
12488TIP3    H258880   4.201   4.007   0.160
12489TIP3   OH258881   4.566   4.124   0.386
12489TIP3    H158882   4.620   4.045   0.381
12489TIP3    H258883   4.613   4.181   0.447
12490TIP3   OH258884   4.805   5.651   0.218
12490TIP3    H158885   4.881   5.702   0.190
12490TIP3    H258886   4.820   5.564   0.180
12491TIP3   OH258887   5.418   5.541   0.463
12491TIP3    H158888   5.427   5.453   0.426
12491TIP3    H258889   5.500   5.584   0.441
12492TIP3   OH258890   4.048   3.912   1.618
12492TIP3    H158891   3.988   3.844   1.648
12492TIP3    H258892   4.129   3.896   1.665
12493TIP3   OH258893   4.252   3.844   1.790
12493TIP3    H158894   4.338   3.816   1.759
12493TIP3    H258895   4.217   3.768   1.836
12494TIP3   OH258896   4.114   5.530  -0.011
12494TIP3    H158897   4.047   5.597   0.007
12494TIP3    H258898   4.153   5.513   0.075
12495TIP3   OH258899   5.107   3.813   1.810
12495TIP3    H158900   5.095   3.764   1.892
12495TIP3    H258901   5.199   3.800   1.788
12496TIP3   OH258902   5.377   5.399   1.678
12496TIP3    H158903   5.315   5.392   1.605
12496TIP3    H258904   5.371   5.490   1.706
12497TIP3   OH258905   6.848   4.813   0.652
12497TIP3    H158906   6.835   4.908   0.641
12497TIP3    H258907   6.782   4.773   0.596
12498TIP3   OH258908   6.703   4.719   1.034
12498TIP3    H158909   6.727   4.675   1.115
12498TIP3    H258910   6.661   4.651   0.981
12499TIP3   OH258911   5.950   4.649   1.178
12499TIP3    H158912   5.959   4.579   1.242
12499TIP3    H258913   6.040   4.673   1.155
12500TIP3   OH258914   7.099   5.025   0.887
12500TIP3    H158915   7.057   4.954   0.935
12500TIP3    H258916   7.123   5.088   0.954
12501TIP3   OH258917   6.085   5.122   0.977
12501TIP3    H158918   6.053   5.034   0.958
12501TIP3    H258919   6.179   5.111   0.992
12502TIP3   OH258920   5.741   4.465   0.526
12502TIP3    H158921   5.711   4.548   0.562
12502TIP3    H258922   5.676   4.442   0.459
12503TIP3   OH258923   5.797   4.705   0.813
12503TIP3    H158924   5.826   4.616   0.831
12503TIP3    H258925   5.875   4.759   0.824
12504TIP3   OH258926   6.813   5.507   0.923
12504TIP3    H158927   6.843   5.436   0.867
12504TIP3    H258928   6.787   5.465   1.005
12505TIP3   OH258929   6.570   4.969   1.056
12505TIP3    H158930   6.605   4.886   1.023
12505TIP3    H258931   6.638   5.002   1.114
12506TIP3   OH258932   6.889   4.380   1.069
12506TIP3    H158933   6.897   4.286   1.086
12506TIP3    H258934   6.869   4.386   0.976
12507TIP3   OH258935   6.234   4.193   0.801
12507TIP3    H158936   6.240   4.278   0.758
12507TIP3    H258937   6.183   4.139   0.741
12508TIP3   OH258938   6.990   4.226   0.641
12508TIP3    H158939   7.032   4.177   0.712
12508TIP3    H258940   7.063   4.262   0.590
12509TIP3   OH258941   5.873   4.446   0.879
12509TIP3    H158942   5.937   4.406   0.938
12509TIP3    H258943   5.892   4.410   0.793
12510TIP3   OH258944   6.349   4.593   0.853
12510TIP3    H158945   6.434   4.556   0.877
12510TIP3    H258946   6.311   4.528   0.793
12511TIP3   OH258947   6.095   4.110   1.220
12511TIP3    H158948   6.070   4.169   1.149
12511TIP3    H258949   6.025   4.119   1.285
12512TIP3   OH258950   6.820   5.068   0.543
12512TIP3    H158951   6.806   5.061   0.449
12512TIP3    H258952   6.763   5.140   0.571
12513TIP3   OH258953   6.355   4.883   1.207
12513TIP3    H158954   6.303   4.954   1.244
12513TIP3    H258955   6.424   4.927   1.157
12514TIP3   OH258956   7.084   4.122   0.879
12514TIP3    H158957   7.009   4.100   0.934
12514TIP3    H258958   7.143   4.171   0.937
12515TIP3   OH258959   6.064   4.280   1.003
12515TIP3    H158960   6.120   4.337   1.056
12515TIP3    H258961   6.123   4.243   0.937
12516TIP3   OH258962   6.203   5.088   1.315
12516TIP3    H158963   6.210   5.182   1.303
12516TIP3    H258964   6.113   5.073   1.343
12517TIP3   OH258965   5.766   5.064   0.396
12517TIP3    H158966   5.761   5.109   0.312
12517TIP3    H258967   5.795   5.131   0.458
12518TIP3   OH258968   7.153   5.234   1.077
12518TIP3    H158969   7.059   5.230   1.093
12518TIP3    H258970   7.172   5.327   1.062
12519TIP3   OH258971   7.130   4.006   1.173
12519TIP3    H158972   7.039   4.025   1.151
12519TIP3    H258973   7.178   4.084   1.146
12520TIP3   OH258974   6.450   3.803   0.967
12520TIP3    H158975   6.427   3.710   0.969
12520TIP3    H258976   6.371   3.848   0.998
12521TIP3   OH258977   6.924   5.345   0.731
12521TIP3    H158978   6.968   5.262   0.711
12521TIP3    H258979   6.993   5.411   0.723
12522TIP3   OH258980   7.078   5.136   0.636
12522TIP3    H158981   7.001   5.092   0.599
12522TIP3    H258982   7.098   5.087   0.716
12523TIP3   OH258983   7.230   4.992   1.482
12523TIP3    H158984   7.233   4.939   1.402
12523TIP3    H258985   7.249   5.081   1.452
12524TIP3   OH258986   6.710   4.716   0.429
12524TIP3    H158987   6.644   4.779   0.401
12524TIP3    H258988   6.776   4.719   0.360
12525TIP3   OH258989   6.716   4.569   0.110
12525TIP3    H158990   6.774   4.583   0.185
12525TIP3    H258991   6.774   4.575   0.034
12526TIP3   OH258992   7.067   4.743   0.503
12526TIP3    H158993   7.000   4.773   0.564
12526TIP3    H258994   7.117   4.677   0.552
12527TIP3   OH258995   6.997   4.575   1.405
12527TIP3    H158996   7.000   4.665   1.437
12527TIP3    H258997   6.920   4.572   1.348
12528TIP3   OH258998   6.225   4.790   0.697
12528TIP3    H158999   6.202   4.751   0.613
12528TIP3    H259000   6.276   4.723   0.742
12529TIP3   OH259001   6.367   5.142   0.958
12529TIP3    H159002   6.369   5.149   0.863
12529TIP3    H259003   6.442   5.086   0.980
12530TIP3   OH259004   6.210   4.693   1.072
12530TIP3    H159005   6.265   4.666   0.998
12530TIP3    H259006   6.263   4.757   1.119
12531TIP3   OH259007   6.888   5.235   1.138
12531TIP3    H159008   6.868   5.306   1.199
12531TIP3    H259009   6.844   5.158   1.175
12532TIP3   OH259010   6.360   5.110   1.543
12532TIP3    H159011   6.299   5.169   1.588
12532TIP3    H259012   6.314   5.084   1.463
12533TIP3   OH259013   6.941   4.670   0.272
12533TIP3    H159014   6.985   4.699   0.352
12533TIP3    H259015   6.996   4.706   0.201
12534TIP3   OH259016   6.037   4.707   1.502
12534TIP3    H159017   6.044   4.789   1.551
12534TIP3    H259018   5.946   4.706   1.472
12535TIP3   OH259019   6.687   5.307   0.601
12535TIP3    H159020   6.760   5.326   0.659
12535TIP3    H259021   6.661   5.392   0.566
12536TIP3   OH259022   6.158   5.290   1.611
12536TIP3    H159023   6.160   5.321   1.520
12536TIP3    H259024   6.065   5.281   1.631
12537TIP3   OH259025   6.141   4.701   0.439
12537TIP3    H159026   6.081   4.768   0.408
12537TIP3    H259027   6.091   4.619   0.432
12538TIP3   OH259028   5.725   4.951   1.362
12538TIP3    H159029   5.674   4.956   1.281
12538TIP3    H259030   5.741   4.857   1.374
12539TIP3   OH259031   5.700   5.232   1.046
12539TIP3    H159032   5.784   5.235   1.091
12539TIP3    H259033   5.653   5.309   1.077
12540TIP3   OH259034   6.599   5.238   1.490
12540TIP3    H159035   6.596   5.321   1.538
12540TIP3    H259036   6.515   5.195   1.511
12541TIP3   OH259037   6.686   5.583   0.480
12541TIP3    H159038   6.669   5.602   0.388
12541TIP3    H259039   6.654   5.660   0.526
12542TIP3   OH259040   6.029   5.471   0.664
12542TIP3    H159041   6.047   5.442   0.753
12542TIP3    H259042   5.972   5.403   0.627
12543TIP3   OH259043   7.054   5.575   0.150
12543TIP3    H159044   7.072   5.484   0.126
12543TIP3    H259045   7.015   5.569   0.237
12544TIP3   OH259046   6.946   5.519   0.406
12544TIP3    H159047   6.855   5.527   0.434
12544TIP3    H259048   6.984   5.456   0.468
12545TIP3   OH259049   7.174   4.490   1.656
12545TIP3    H159050   7.180   4.472   1.562
12545TIP3    H259051   7.250   4.446   1.694
12546TIP3   OH259052   5.951   5.096   1.427
12546TIP3    H159053   5.975   5.059   1.511
12546TIP3    H259054   5.871   5.049   1.401
12547TIP3   OH259055   6.204   3.911   1.056
12547TIP3    H159056   6.128   3.903   0.999
12547TIP3    H259057   6.182   3.984   1.115
12548TIP3   OH259058   6.684   3.887   1.400
12548TIP3    H159059   6.733   3.835   1.464
12548TIP3    H259060   6.592   3.874   1.424
12549TIP3   OH259061   7.000   4.282   1.483
12549TIP3    H159062   6.933   4.263   1.548
12549TIP3    H259063   6.991   4.375   1.464
12550TIP3   OH259064   7.103   4.773   0.074
12550TIP3    H159065   7.131   4.793  -0.016
12550TIP3    H259066   7.143   4.841   0.127
12551TIP3   OH259067   6.651   4.101   0.121
12551TIP3    H159068   6.585   4.106   0.190
12551TIP3    H259069   6.672   4.008   0.114
12552TIP3   OH259070   6.217   4.434   1.175
12552TIP3    H159071   6.153   4.433   1.246
12552TIP3    H259072   6.220   4.525   1.147
12553TIP3   OH259073   6.215   4.434   0.671
12553TIP3    H159074   6.121   4.420   0.667
12553TIP3    H259075   6.246   4.415   0.582
12554TIP3   OH259076   6.754   4.470   0.545
12554TIP3    H159077   6.733   4.557   0.511
12554TIP3    H259078   6.825   4.439   0.490
12555TIP3   OH259079   6.678   4.481   1.658
12555TIP3    H159080   6.630   4.408   1.697
12555TIP3    H259081   6.764   4.478   1.699
12556TIP3   OH259082   6.849   4.405   0.801
12556TIP3    H159083   6.809   4.458   0.733
12556TIP3    H259084   6.894   4.335   0.754
12557TIP3   OH259085   6.004   4.431   1.351
12557TIP3    H159086   6.022   4.469   1.436
12557TIP3    H259087   5.962   4.346   1.370
12558TIP3   OH259088   6.332   4.210   0.046
12558TIP3    H159089   6.301   4.187   0.134
12558TIP3    H259090   6.341   4.305   0.048
12559TIP3   OH259091   5.660   4.135   0.745
12559TIP3    H159092   5.716   4.147   0.821
12559TIP3    H259093   5.720   4.131   0.670
12560TIP3   OH259094   5.730   4.246   0.254
12560TIP3    H159095   5.803   4.282   0.204
12560TIP3    H259096   5.676   4.321   0.276
12561TIP3   OH259097   6.772   4.554   1.244
12561TIP3    H159098   6.816   4.495   1.182
12561TIP3    H259099   6.718   4.496   1.298
12562TIP3   OH259100   6.518   4.161   0.759
12562TIP3    H159101   6.428   4.163   0.791
12562TIP3    H259102   6.568   4.119   0.829
12563TIP3   OH259103   5.959   4.341   0.641
12563TIP3    H159104   5.885   4.371   0.587
12563TIP3    H259105   5.978   4.253   0.610
12564TIP3   OH259106   6.281   4.357   0.417
12564TIP3    H159107   6.376   4.354   0.429
12564TIP3    H259108   6.269   4.402   0.333
12565TIP3   OH259109   6.878   4.099   1.078
12565TIP3    H159110   6.841   4.109   1.166
12565TIP3    H259111   6.807   4.063   1.026
12566TIP3   OH259112   6.213   4.456   0.171
12566TIP3    H159113   6.130   4.444   0.125
12566TIP3    H259114   6.269   4.500   0.107
12567TIP3   OH259115   7.230   5.680   1.717
12567TIP3    H159116   7.230   5.760   1.664
12567TIP3    H259117   7.322   5.658   1.728
12568TIP3   OH259118   6.024   4.940   1.662
12568TIP3    H159119   6.091   4.933   1.731
12568TIP3    H259120   5.941   4.945   1.709
12569TIP3   OH259121   6.584   4.472   0.946
12569TIP3    H159122   6.653   4.422   0.904
12569TIP3    H259123   6.555   4.418   1.019
12570TIP3   OH259124   6.066   4.079   0.603
12570TIP3    H159125   6.013   4.003   0.627
12570TIP3    H259126   6.112   4.052   0.523
12571TIP3   OH259127   6.478   4.337   1.172
12571TIP3    H159128   6.393   4.379   1.180
12571TIP3    H259129   6.525   4.360   1.252
12572TIP3   OH259130   6.528   4.910   0.349
12572TIP3    H159131   6.457   4.866   0.302
12572TIP3    H259132   6.488   4.938   0.432
12573TIP3   OH259133   7.204   4.871   1.220
12573TIP3    H159134   7.262   4.838   1.151
12573TIP3    H259135   7.116   4.864   1.182
12574TIP3   OH259136   6.904   4.203   0.177
12574TIP3    H159137   6.812   4.189   0.153
12574TIP3    H259138   6.903   4.286   0.226
12575TIP3   OH259139   6.719   4.966   1.507
12575TIP3    H159140   6.702   4.920   1.590
12575TIP3    H259141   6.674   5.049   1.517
12576TIP3   OH259142   6.957   4.405   0.365
12576TIP3    H159143   7.044   4.377   0.394
12576TIP3    H259144   6.971   4.493   0.328
12577TIP3   OH259145   6.038   4.841   0.897
12577TIP3    H159146   6.099   4.837   0.822
12577TIP3    H259147   6.082   4.790   0.965
12578TIP3   OH259148   6.747   5.056   0.267
12578TIP3    H159149   6.705   5.142   0.272
12578TIP3    H259150   6.678   4.994   0.289
12579TIP3   OH259151   5.758   4.691   1.462
12579TIP3    H159152   5.747   4.656   1.550
12579TIP3    H259153   5.687   4.652   1.411
12580TIP3   OH259154   6.469   4.668   1.677
12580TIP3    H159155   6.404   4.627   1.621
12580TIP3    H259156   6.550   4.619   1.662
12581TIP3   OH259157   6.882   5.242   1.480
12581TIP3    H159158   6.788   5.238   1.462
12581TIP3    H259159   6.888   5.244   1.575
12582TIP3   OH259160   6.980   4.812   1.041
12582TIP3    H159161   6.887   4.800   1.022
12582TIP3    H259162   7.023   4.740   0.995
12583TIP3   OH259163   6.301   5.215   0.691
12583TIP3    H159164   6.324   5.300   0.653
12583TIP3    H259165   6.206   5.216   0.695
12584TIP3   OH259166   5.858   4.699   0.150
12584TIP3    H159167   5.898   4.754   0.217
12584TIP3    H259168   5.766   4.695   0.173
12585TIP3   OH259169   6.391   4.979   0.574
12585TIP3    H159170   6.374   5.065   0.612
12585TIP3    H259171   6.335   4.919   0.623
12586TIP3   OH259172   6.489   5.387   1.269
12586TIP3    H159173   6.544   5.462   1.249
12586TIP3    H259174   6.542   5.332   1.327
12587TIP3   OH259175   6.291   5.478   0.578
12587TIP3    H159176   6.198   5.489   0.600
12587TIP3    H259177   6.333   5.556   0.616
12588TIP3   OH259178   6.782   4.994   1.236
12588TIP3    H159179   6.760   4.981   1.328
12588TIP3    H259180   6.852   4.932   1.219
12589TIP3   OH259181   7.002   5.088   0.148
12589TIP3    H159182   7.061   5.040   0.205
12589TIP3    H259183   6.915   5.073   0.185
12590TIP3   OH259184   7.092   5.418   1.452
12590TIP3    H159185   7.013   5.364   1.444
12590TIP3    H259186   7.079   5.488   1.388
12591TIP3   OH259187   5.889   4.172   1.397
12591TIP3    H159188   5.797   4.194   1.385
12591TIP3    H259189   5.889   4.107   1.467
12592TIP3   OH259190   7.166   4.929   0.310
12592TIP3    H159191   7.135   4.875   0.383
12592TIP3    H259192   7.244   4.972   0.343
12593TIP3   OH259193   5.886   5.355   1.259
12593TIP3    H159194   5.912   5.277   1.307
12593TIP3    H259195   5.900   5.427   1.321
12594TIP3   OH259196   6.311   5.180   0.250
12594TIP3    H159197   6.383   5.128   0.286
12594TIP3    H259198   6.333   5.270   0.273
12595TIP3   OH259199   5.966   4.885   0.324
12595TIP3    H159200   5.893   4.929   0.369
12595TIP3    H259201   6.011   4.956   0.278
12596TIP3   OH259202   6.789   4.133   1.335
12596TIP3    H159203   6.858   4.151   1.399
12596TIP3    H259204   6.751   4.050   1.364
12597TIP3   OH259205   6.844   4.087   0.445
12597TIP3    H159206   6.871   4.124   0.361
12597TIP3    H259207   6.890   4.141   0.510
12598TIP3   OH259208   6.618   5.294   0.276
12598TIP3    H159209   6.541   5.340   0.309
12598TIP3    H259210   6.668   5.360   0.230
12599TIP3   OH259211   6.537   4.303   0.518
12599TIP3    H159212   6.612   4.362   0.525
12599TIP3    H259213   6.529   4.264   0.605
12600TIP3   OH259214   6.640   4.371   1.397
12600TIP3    H159215   6.650   4.400   1.488
12600TIP3    H259216   6.682   4.286   1.394
12601TIP3   OH259217   6.623   3.980   0.572
12601TIP3    H159218   6.597   4.047   0.636
12601TIP3    H259219   6.703   4.014   0.533
12602TIP3   OH259220   6.383   5.435   0.324
12602TIP3    H159221   6.379   5.520   0.281
12602TIP3    H259222   6.350   5.450   0.413
12603TIP3   OH259223   6.220   4.114   0.292
12603TIP3    H159224   6.216   4.196   0.341
12603TIP3    H259225   6.308   4.080   0.310
12604TIP3   OH259226   7.256   4.151   1.451
12604TIP3    H159227   7.177   4.169   1.502
12604TIP3    H259228   7.246   4.202   1.371
12605TIP3   OH259229   7.077   4.575   0.923
12605TIP3    H159230   7.000   4.520   0.908
12605TIP3    H259231   7.129   4.527   0.987
12606TIP3   OH259232   6.056   5.105   0.174
12606TIP3    H159233   6.123   5.155   0.221
12606TIP3    H259234   6.105   5.053   0.111
12607TIP3   OH259235   5.906   4.424   0.094
12607TIP3    H159236   5.891   4.518   0.109
12607TIP3    H259237   5.894   4.413  -0.000
12608TIP3   OH259238   7.232   5.504   1.057
12608TIP3    H159239   7.212   5.572   0.993
12608TIP3    H259240   7.327   5.497   1.056
12609TIP3   OH259241   5.952   3.887   0.939
12609TIP3    H159242   5.944   3.877   0.844
12609TIP3    H259243   5.920   3.804   0.974
12610TIP3   OH259244   5.843   5.284   0.557
12610TIP3    H159245   5.788   5.317   0.628
12610TIP3    H259246   5.818   5.337   0.481
12611TIP3   OH259247   5.816   5.566   1.730
12611TIP3    H159248   5.879   5.546   1.799
12611TIP3    H259249   5.797   5.481   1.690
12612TIP3   OH259250   6.229   5.402   1.852
12612TIP3    H159251   6.309   5.356   1.881
12612TIP3    H259252   6.210   5.366   1.766
12613TIP3   OH259253   6.794   5.409   0.080
12613TIP3    H159254   6.728   5.374   0.020
12613TIP3    H259255   6.856   5.338   0.092
12614TIP3   OH259256   6.881   5.262   1.754
12614TIP3    H159257   6.851   5.181   1.795
12614TIP3    H259258   6.957   5.288   1.807
12615TIP3   OH259259   7.106   5.325   0.052
12615TIP3    H159260   7.077   5.244   0.095
12615TIP3    H259261   7.167   5.297  -0.015
12616TIP3   OH259262   5.776   4.938   1.789
12616TIP3    H159263   5.779   4.842   1.784
12616TIP3    H259264   5.703   4.962   1.733
12617TIP3   OH259265   6.214   4.932   0.034
12617TIP3    H159266   6.254   4.891   0.110
12617TIP3    H259267   6.242   4.878  -0.040
12618TIP3   OH259268   6.439   4.942   1.748
12618TIP3    H159269   6.418   4.987   1.665
12618TIP3    H259270   6.460   4.853   1.722
12619TIP3   OH259271   6.985   4.860   1.489
12619TIP3    H159272   7.058   4.923   1.489
12619TIP3    H259273   6.906   4.915   1.495
12620TIP3   OH259274   5.849   4.666   1.756
12620TIP3    H159275   5.934   4.635   1.727
12620TIP3    H259276   5.854   4.663   1.852
12621TIP3   OH259277   6.324   4.768   0.228
12621TIP3    H159278   6.271   4.730   0.299
12621TIP3    H259279   6.358   4.692   0.182
12622TIP3   OH259280   6.265   4.548   1.489
12622TIP3    H159281   6.192   4.610   1.491
12622TIP3    H259282   6.327   4.586   1.426
12623TIP3   OH259283   6.443   4.570   0.056
12623TIP3    H159284   6.449   4.564  -0.040
12623TIP3    H259285   6.534   4.565   0.086
12624TIP3   OH259286   6.776   4.798   1.787
12624TIP3    H159287   6.865   4.771   1.764
12624TIP3    H259288   6.745   4.731   1.847
12625TIP3   OH259289   6.311   4.290   1.570
12625TIP3    H159290   6.323   4.232   1.495
12625TIP3    H259291   6.300   4.377   1.532
12626TIP3   OH259292   6.345   4.134   1.334
12626TIP3    H159293   6.398   4.180   1.269
12626TIP3    H259294   6.258   4.129   1.294
12627TIP3   OH259295   6.457   4.660   1.334
12627TIP3    H159296   6.552   4.666   1.333
12627TIP3    H259297   6.428   4.742   1.293
12628TIP3   OH259298   6.918   4.438   1.808
12628TIP3    H159299   6.935   4.348   1.836
12628TIP3    H259300   7.000   4.467   1.768
12629TIP3   OH259301   7.039   4.725   1.719
12629TIP3    H159302   7.028   4.773   1.638
12629TIP3    H259303   7.091   4.648   1.695
12630TIP3   OH259304   6.142   4.356   1.786
12630TIP3    H159305   6.063   4.303   1.778
12630TIP3    H259306   6.192   4.338   1.706
12631TIP3   OH259307   6.402   3.867   1.400
12631TIP3    H159308   6.382   3.958   1.380
12631TIP3    H259309   6.333   3.817   1.357
12632TIP3   OH259310   6.536   4.260   1.735
12632TIP3    H159311   6.500   4.232   1.819
12632TIP3    H259312   6.460   4.263   1.677
12633TIP3   OH259313   6.796   4.194   1.643
12633TIP3    H159314   6.708   4.200   1.679
12633TIP3    H259315   6.846   4.146   1.709
12634TIP3   OH259316   6.972   4.084   1.832
12634TIP3    H159317   6.964   3.989   1.830
12634TIP3    H259318   6.939   4.109   1.919
12635TIP3   OH259319   5.940   4.159   1.757
12635TIP3    H159320   5.944   4.078   1.707
12635TIP3    H259321   5.949   4.131   1.848
12636TIP3   OH259322   6.393   3.788   1.663
12636TIP3    H159323   6.451   3.712   1.661
12636TIP3    H259324   6.390   3.819   1.573
12637TIP3   OH259325   6.471   3.952   1.871
12637TIP3    H159326   6.448   3.898   1.795
12637TIP3    H259327   6.409   4.025   1.868
12638TIP3   OH259328   6.416   5.652   0.157
12638TIP3    H159329   6.508   5.656   0.179
12638TIP3    H259330   6.413   5.677   0.064
12639TIP3   OH259331   5.785   5.118   0.098
12639TIP3    H159332   5.876   5.127   0.127
12639TIP3    H259333   5.791   5.087   0.008
12640TIP3   OH259334   5.609   5.624   0.723
12640TIP3    H159335   5.638   5.644   0.634
12640TIP3    H259336   5.645   5.537   0.742
12641TIP3   OH259337   5.742   5.387   0.804
12641TIP3    H159338   5.710   5.312   0.855
12641TIP3    H259339   5.789   5.441   0.868
12642TIP3   OH259340   7.262   5.227   1.340
12642TIP3    H159341   7.212   5.299   1.378
12642TIP3    H259342   7.230   5.220   1.250
12643TIP3   OH259343   7.177   4.543   0.665
12643TIP3    H159344   7.211   4.455   0.684
12643TIP3    H259345   7.150   4.577   0.750
12644TIP3   OH259346   5.721   4.751   1.073
12644TIP3    H159347   5.733   4.739   0.979
12644TIP3    H259348   5.804   4.724   1.112
12645TIP3   OH259349   7.205   4.293   0.457
12645TIP3    H159350   7.231   4.215   0.504
12645TIP3    H259351   7.260   4.293   0.378
12646TIP3   OH259352   7.254   4.231   1.071
12646TIP3    H159353   7.338   4.200   1.036
12646TIP3    H259354   7.266   4.325   1.082
12647TIP3   OH259355   7.254   4.483   1.362
12647TIP3    H159356   7.163   4.513   1.359
12647TIP3    H259357   7.282   4.482   1.270
12648TIP3   OH259358   5.716   4.280   1.648
12648TIP3    H159359   5.800   4.258   1.690
12648TIP3    H259360   5.662   4.202   1.660
12649TIP3   OH259361   7.239   4.028   0.575
12649TIP3    H159362   7.280   3.948   0.610
12649TIP3    H259363   7.166   3.996   0.522
12650TIP3   OH259364   5.820   4.130   0.972
12650TIP3    H159365   5.861   4.043   0.971
12650TIP3    H259366   5.893   4.190   0.987
12651TIP3   OH259367   5.639   4.419   1.034
12651TIP3    H159368   5.710   4.418   0.970
12651TIP3    H259369   5.668   4.482   1.101
12652TIP3   OH259370   5.696   4.043   0.441
12652TIP3    H159371   5.601   4.046   0.453
12652TIP3    H259372   5.715   4.116   0.382
12653TIP3   OH259373   7.129   5.514   0.703
12653TIP3    H159374   7.206   5.460   0.722
12653TIP3    H259375   7.143   5.593   0.755
12654TIP3   OH259376   5.687   3.887   1.287
12654TIP3    H159377   5.623   3.885   1.358
12654TIP3    H259378   5.656   3.958   1.230
12655TIP3   OH259379   5.894   5.274   1.710
12655TIP3    H159380   5.805   5.271   1.674
12655TIP3    H259381   5.886   5.236   1.797
12656TIP3   OH259382   6.224   5.364   1.343
12656TIP3    H159383   6.194   5.452   1.318
12656TIP3    H259384   6.318   5.365   1.327
12657TIP3   OH259385   6.599   5.484   1.621
12657TIP3    H159386   6.610   5.453   1.711
12657TIP3    H259387   6.679   5.532   1.601
12658TIP3   OH259388   6.836   5.620   1.582
12658TIP3    H159389   6.904   5.565   1.543
12658TIP3    H259390   6.874   5.652   1.664
12659TIP3   OH259391   5.922   5.654   1.365
12659TIP3    H159392   5.843   5.693   1.327
12659TIP3    H259393   5.934   5.701   1.448
12660TIP3   OH259394   6.180   5.628   1.272
12660TIP3    H159395   6.089   5.639   1.299
12660TIP3    H259396   6.186   5.673   1.188
12661TIP3   OH259397   6.627   5.611   1.178
12661TIP3    H159398   6.575   5.649   1.107
12661TIP3    H259399   6.640   5.684   1.240
12662TIP3   OH259400   6.846   5.474   1.265
12662TIP3    H159401   6.771   5.526   1.237
12662TIP3    H259402   6.920   5.535   1.258
12663TIP3   OH259403   7.078   5.620   1.256
12663TIP3    H159404   7.095   5.713   1.242
12663TIP3    H259405   7.134   5.576   1.192
12664TIP3   OH259406   5.885   5.509   1.025
12664TIP3    H159407   5.881   5.463   1.109
12664TIP3    H259408   5.965   5.476   0.983
12665TIP3   OH259409   6.103   5.388   0.916
12665TIP3    H159410   6.089   5.296   0.939
12665TIP3    H259411   6.190   5.409   0.950
12666TIP3   OH259412   6.364   5.416   1.020
12666TIP3    H159413   6.373   5.326   0.989
12666TIP3    H259414   6.397   5.414   1.110
12667TIP3   OH259415   6.677   3.985   0.914
12667TIP3    H159416   6.614   3.916   0.932
12667TIP3    H259417   6.751   3.940   0.872
12668TIP3   OH259418   7.174   3.834   0.897
12668TIP3    H159419   7.215   3.920   0.901
12668TIP3    H259420   7.081   3.852   0.886
12669TIP3   OH259421   5.920   3.849   0.666
12669TIP3    H159422   5.829   3.834   0.642
12669TIP3    H259423   5.963   3.764   0.654
12670TIP3   OH259424   5.831   3.848   0.276
12670TIP3    H159425   5.894   3.902   0.229
12670TIP3    H259426   5.784   3.908   0.332
12671TIP3   OH259427   6.404   3.832   0.686
12671TIP3    H159428   6.478   3.876   0.645
12671TIP3    H259429   6.426   3.828   0.779
12672TIP3   OH259430   6.902   3.851   0.817
12672TIP3    H159431   6.924   3.829   0.726
12672TIP3    H259432   6.875   3.768   0.856
12673TIP3   OH259433   7.059   3.900   0.418
12673TIP3    H159434   6.971   3.937   0.413
12673TIP3    H259435   7.058   3.829   0.354
12674TIP3   OH259436   5.779   5.426   0.331
12674TIP3    H159437   5.712   5.428   0.264
12674TIP3    H259438   5.777   5.512   0.372
12675TIP3   OH259439   6.022   3.989   0.133
12675TIP3    H159440   6.066   3.998   0.048
12675TIP3    H259441   6.082   4.031   0.195
12676TIP3   OH259442   6.489   4.090   0.350
12676TIP3    H159443   6.523   4.021   0.406
12676TIP3    H259444   6.508   4.171   0.397
12677TIP3   OH259445   6.689   5.637   0.204
12677TIP3    H159446   6.730   5.717   0.170
12677TIP3    H259447   6.732   5.566   0.157
12678TIP3   OH259448   5.937   3.911   1.612
12678TIP3    H159449   5.877   3.846   1.647
12678TIP3    H259450   6.019   3.896   1.658
12679TIP3   OH259451   6.140   3.841   1.786
12679TIP3    H159452   6.227   3.816   1.755
12679TIP3    H259453   6.108   3.764   1.834
12680TIP3   OH259454   6.005   5.575   0.057
12680TIP3    H159455   5.925   5.625   0.077
12680TIP3    H259456   5.996   5.495   0.108
12681TIP3   OH259457   6.978   3.806   1.815
12681TIP3    H159458   6.967   3.753   1.893
12681TIP3    H259459   7.069   3.793   1.789
12682TIP3   OH259460   7.243   5.393   1.685
12682TIP3    H159461   7.195   5.383   1.603
12682TIP3    H259462   7.235   5.486   1.706
12683TIP3   OH259463   1.189   6.681   0.655
12683TIP3    H159464   1.175   6.776   0.652
12683TIP3    H259465   1.122   6.646   0.596
12684TIP3   OH259466   1.080   6.595   1.043
12684TIP3    H159467   1.101   6.556   1.128
12684TIP3    H259468   1.029   6.528   0.997
12685TIP3   OH259469   0.294   6.540   1.174
12685TIP3    H159470   0.303   6.462   1.229
12685TIP3    H259471   0.308   6.613   1.234
12686TIP3   OH259472   1.455   6.898   0.853
12686TIP3    H159473   1.416   6.827   0.904
12686TIP3    H259474   1.477   6.965   0.919
12687TIP3   OH259475   0.415   6.967   1.005
12687TIP3    H159476   0.375   6.884   0.977
12687TIP3    H259477   0.505   6.944   1.026
12688TIP3   OH259478   0.121   6.399   0.530
12688TIP3    H159479   0.150   6.470   0.588
12688TIP3    H259480   0.027   6.393   0.545
12689TIP3   OH259481   0.187   6.565   0.757
12689TIP3    H159482   0.190   6.489   0.814
12689TIP3    H259483   0.252   6.626   0.794
12690TIP3   OH259484   0.923   6.853   1.064
12690TIP3    H159485   0.952   6.780   1.008
12690TIP3    H259486   0.996   6.868   1.124
12691TIP3   OH259487   1.808   5.990   1.151
12691TIP3    H159488   1.814   6.057   1.219
12691TIP3    H259489   1.871   6.017   1.085
12692TIP3   OH259490   1.234   6.271   1.071
12692TIP3    H159491   1.248   6.177   1.084
12692TIP3    H259492   1.217   6.280   0.977
12693TIP3   OH259493   0.591   6.082   0.799
12693TIP3    H159494   0.598   6.169   0.760
12693TIP3    H259495   0.539   6.032   0.737
12694TIP3   OH259496   1.353   6.113   0.649
12694TIP3    H159497   1.398   6.080   0.726
12694TIP3    H259498   1.421   6.159   0.600
12695TIP3   OH259499   0.219   6.328   0.896
12695TIP3    H159500   0.291   6.295   0.950
12695TIP3    H259501   0.238   6.294   0.809
12696TIP3   OH259502   0.726   6.486   0.831
12696TIP3    H159503   0.805   6.445   0.865
12696TIP3    H259504   0.685   6.419   0.776
12697TIP3   OH259505   1.817   6.148   1.382
12697TIP3    H159506   1.775   6.230   1.355
12697TIP3    H259507   1.747   6.100   1.427
12698TIP3   OH259508   0.433   6.002   1.234
12698TIP3    H159509   0.407   6.060   1.162
12698TIP3    H259510   0.365   6.013   1.300
12699TIP3   OH259511   1.123   6.936   0.573
12699TIP3    H159512   1.126   6.947   0.478
12699TIP3    H259513   1.094   7.022   0.606
12700TIP3   OH259514   0.710   6.753   1.206
12700TIP3    H159515   0.655   6.822   1.244
12700TIP3    H259516   0.780   6.801   1.162
12701TIP3   OH259517   1.464   6.049   0.891
12701TIP3    H159518   1.393   6.023   0.951
12701TIP3    H259519   1.516   6.111   0.942
12702TIP3   OH259520   0.421   6.163   1.005
12702TIP3    H159521   0.475   6.220   1.059
12702TIP3    H259522   0.482   6.128   0.939
12703TIP3   OH259523   0.552   6.951   1.313
12703TIP3    H159524   0.544   7.044   1.293
12703TIP3    H259525   0.467   6.927   1.350
12704TIP3   OH259526   0.110   6.919   0.368
12704TIP3    H159527   0.116   6.949   0.277
12704TIP3    H259528   0.141   6.993   0.420
12705TIP3   OH259529   1.488   7.108   1.044
12705TIP3    H159530   1.398   7.116   1.075
12705TIP3    H259531   1.502   7.186   0.990
12706TIP3   OH259532   1.540   5.893   1.216
12706TIP3    H159533   1.472   5.938   1.166
12706TIP3    H259534   1.623   5.923   1.177
12707TIP3   OH259535   0.793   5.690   0.976
12707TIP3    H159536   0.763   5.599   0.976
12707TIP3    H259537   0.717   5.740   1.006
12708TIP3   OH259538   1.338   7.245   0.707
12708TIP3    H159539   1.370   7.170   0.658
12708TIP3    H259540   1.410   7.268   0.766
12709TIP3   OH259541   1.460   7.023   0.599
12709TIP3    H159542   1.457   6.958   0.528
12709TIP3    H259543   1.458   6.971   0.679
12710TIP3   OH259544   1.599   6.914   1.423
12710TIP3    H159545   1.592   6.857   1.346
12710TIP3    H259546   1.598   7.003   1.387
12711TIP3   OH259547   1.049   6.597   0.427
12711TIP3    H159548   0.985   6.665   0.407
12711TIP3    H259549   1.118   6.609   0.363
12712TIP3   OH259550   1.061   6.448   0.109
12712TIP3    H159551   1.109   6.476   0.187
12712TIP3    H259552   1.124   6.456   0.037
12713TIP3   OH259553   1.767   6.562   1.257
12713TIP3    H159554   1.695   6.624   1.253
12713TIP3    H259555   1.826   6.587   1.186
12714TIP3   OH259556   1.409   6.614   0.508
12714TIP3    H159557   1.340   6.638   0.570
12714TIP3    H259558   1.477   6.573   0.563
12715TIP3   OH259559   1.378   6.430   1.447
12715TIP3    H159560   1.373   6.501   1.510
12715TIP3    H259561   1.310   6.451   1.382
12716TIP3   OH259562   0.558   6.668   0.702
12716TIP3    H159563   0.536   6.631   0.617
12716TIP3    H259564   0.623   6.607   0.739
12717TIP3   OH259565   0.717   7.029   0.998
12717TIP3    H159566   0.712   7.037   0.902
12717TIP3    H259567   0.790   6.970   1.014
12718TIP3   OH259568   0.583   6.564   1.054
12718TIP3    H159569   0.641   6.547   0.979
12718TIP3    H259570   0.631   6.629   1.105
12719TIP3   OH259571   1.248   7.104   1.179
12719TIP3    H159572   1.244   7.122   1.273
12719TIP3    H259573   1.206   7.019   1.169
12720TIP3   OH259574   0.702   7.009   1.541
12720TIP3    H159575   0.631   7.062   1.578
12720TIP3    H259576   0.665   6.971   1.461
12721TIP3   OH259577   1.282   6.561   0.272
12721TIP3    H159578   1.329   6.587   0.352
12721TIP3    H259579   1.331   6.603   0.201
12722TIP3   OH259580   0.398   6.597   1.496
12722TIP3    H159581   0.405   6.674   1.553
12722TIP3    H259582   0.304   6.587   1.482
12723TIP3   OH259583   1.071   7.205   0.641
12723TIP3    H159584   1.162   7.220   0.667
12723TIP3    H259585   1.044   7.286   0.599
12724TIP3   OH259586   0.470   7.160   1.569
12724TIP3    H159587   0.404   7.102   1.529
12724TIP3    H259588   0.428   7.194   1.648
12725TIP3   OH259589   1.670   5.711   0.258
12725TIP3    H159590   1.586   5.746   0.287
12725TIP3    H259591   1.715   5.785   0.218
12726TIP3   OH259592   0.480   6.577   0.442
12726TIP3    H159593   0.429   6.646   0.400
12726TIP3    H259594   0.420   6.502   0.447
12727TIP3   OH259595   1.747   7.090   0.115
12727TIP3    H159596   1.725   7.179   0.142
12727TIP3    H259597   1.842   7.086   0.118
12728TIP3   OH259598   0.176   6.767   1.320
12728TIP3    H159599   0.097   6.789   1.270
12728TIP3    H259600   0.148   6.698   1.380
12729TIP3   OH259601   0.118   7.204   1.010
12729TIP3    H159602   0.180   7.156   1.065
12729TIP3    H259603   0.034   7.160   1.025
12730TIP3   OH259604   1.881   7.140   1.646
12730TIP3    H159605   1.847   7.051   1.638
12730TIP3    H259606   1.803   7.194   1.662
12731TIP3   OH259607   0.968   7.077   1.546
12731TIP3    H159608   0.984   7.104   1.636
12731TIP3    H259609   0.874   7.059   1.542
12732TIP3   OH259610   1.570   6.307   1.647
12732TIP3    H159611   1.502   6.346   1.593
12732TIP3    H259612   1.547   6.214   1.652
12733TIP3   OH259613   0.312   6.965   1.452
12733TIP3    H159614   0.322   6.920   1.536
12733TIP3    H259615   0.252   6.908   1.403
12734TIP3   OH259616   0.550   5.807   1.064
12734TIP3    H159617   0.473   5.798   1.007
12734TIP3    H259618   0.526   5.877   1.125
12735TIP3   OH259619   1.032   5.764   1.398
12735TIP3    H159620   1.076   5.718   1.469
12735TIP3    H259621   0.939   5.758   1.420
12736TIP3   OH259622   1.346   6.158   1.497
12736TIP3    H159623   1.271   6.142   1.555
12736TIP3    H259624   1.338   6.251   1.473
12737TIP3   OH259625   1.436   6.663   0.069
12737TIP3    H159626   1.406   6.734   0.011
12737TIP3    H259627   1.529   6.681   0.082
12738TIP3   OH259628   1.020   5.999   0.122
12738TIP3    H159629   0.944   5.991   0.180
12738TIP3    H259630   0.984   5.996   0.034
12739TIP3   OH259631   0.561   6.322   1.179
12739TIP3    H159632   0.494   6.326   1.247
12739TIP3    H259633   0.563   6.410   1.142
12740TIP3   OH259634   0.579   6.321   0.668
12740TIP3    H159635   0.483   6.313   0.669
12740TIP3    H259636   0.603   6.302   0.577
12741TIP3   OH259637   1.106   6.352   0.539
12741TIP3    H159638   1.078   6.438   0.507
12741TIP3    H259639   1.177   6.326   0.481
12742TIP3   OH259640   1.025   6.363   1.665
12742TIP3    H159641   0.974   6.291   1.702
12742TIP3    H259642   1.109   6.358   1.711
12743TIP3   OH259643   1.199   6.292   0.800
12743TIP3    H159644   1.156   6.344   0.732
12743TIP3    H259645   1.242   6.220   0.752
12744TIP3   OH259646   0.342   6.320   1.349
12744TIP3    H159647   0.353   6.369   1.430
12744TIP3    H259648   0.304   6.236   1.377
12745TIP3   OH259649   0.722   6.083   0.049
12745TIP3    H159650   0.687   6.054   0.133
12745TIP3    H259651   0.724   6.179   0.055
12746TIP3   OH259652   0.026   6.115   0.711
12746TIP3    H159653   0.081   6.098   0.787
12746TIP3    H259654  -0.007   6.029   0.685
12747TIP3   OH259655   0.117   6.197   0.283
12747TIP3    H159656   0.177   6.202   0.209
12747TIP3    H259657   0.123   6.283   0.325
12748TIP3   OH259658   1.157   6.442   1.268
12748TIP3    H159659   1.191   6.385   1.199
12748TIP3    H259660   1.093   6.388   1.314
12749TIP3   OH259661   0.869   6.040   0.753
12749TIP3    H159662   0.779   6.048   0.785
12749TIP3    H259663   0.919   6.007   0.828
12750TIP3   OH259664   0.317   6.238   0.652
12750TIP3    H159665   0.247   6.270   0.594
12750TIP3    H259666   0.334   6.149   0.621
12751TIP3   OH259667   0.634   6.242   0.412
12751TIP3    H159668   0.729   6.240   0.422
12751TIP3    H259669   0.620   6.281   0.326
12752TIP3   OH259670   1.260   5.993   1.074
12752TIP3    H159671   1.226   5.993   1.164
12752TIP3    H259672   1.188   5.957   1.022
12753TIP3   OH259673   0.564   6.315   0.158
12753TIP3    H159674   0.476   6.316   0.120
12753TIP3    H259675   0.616   6.368   0.097
12754TIP3   OH259676   0.372   6.811   1.677
12754TIP3    H159677   0.434   6.811   1.751
12754TIP3    H259678   0.286   6.821   1.718
12755TIP3   OH259679   0.939   6.358   0.955
12755TIP3    H159680   1.008   6.304   0.917
12755TIP3    H259681   0.906   6.305   1.028
12756TIP3   OH259682   0.427   5.979   0.595
12756TIP3    H159683   0.388   5.896   0.623
12756TIP3    H259684   0.458   5.962   0.506
12757TIP3   OH259685   0.824   6.227   1.180
12757TIP3    H159686   0.739   6.272   1.186
12757TIP3    H259687   0.873   6.256   1.257
12758TIP3   OH259688   0.869   6.798   0.359
12758TIP3    H159689   0.801   6.752   0.311
12758TIP3    H259690   0.827   6.826   0.440
12759TIP3   OH259691   1.570   6.747   1.202
12759TIP3    H159692   1.633   6.798   1.151
12759TIP3    H259693   1.498   6.731   1.140
12760TIP3   OH259694   1.264   6.052   0.235
12760TIP3    H159695   1.182   6.043   0.187
12760TIP3    H259696   1.268   6.145   0.257
12761TIP3   OH259697   1.023   6.807   1.488
12761TIP3    H159698   1.047   6.766   1.571
12761TIP3    H259699   1.004   6.898   1.510
12762TIP3   OH259700   1.313   6.298   0.359
12762TIP3    H159701   1.402   6.287   0.393
12762TIP3    H259702   1.313   6.385   0.319
12763TIP3   OH259703   0.379   6.702   0.911
12763TIP3    H159704   0.442   6.702   0.839
12763TIP3    H259705   0.419   6.645   0.978
12764TIP3   OH259706   1.094   6.945   0.283
12764TIP3    H159707   1.058   7.034   0.284
12764TIP3    H259708   1.018   6.889   0.302
12765TIP3   OH259709   0.128   6.548   1.481
12765TIP3    H159710   0.122   6.538   1.576
12765TIP3    H259711   0.067   6.482   1.447
12766TIP3   OH259712   0.809   6.544   1.676
12766TIP3    H159713   0.744   6.502   1.620
12766TIP3    H259714   0.889   6.494   1.661
12767TIP3   OH259715   1.228   7.098   1.452
12767TIP3    H159716   1.133   7.098   1.464
12767TIP3    H259717   1.263   7.103   1.541
12768TIP3   OH259718   1.774   6.334   0.319
12768TIP3    H159719   1.712   6.306   0.252
12768TIP3    H259720   1.793   6.426   0.298
12769TIP3   OH259721   1.812   6.875   1.588
12769TIP3    H159722   1.728   6.900   1.549
12769TIP3    H259723   1.871   6.866   1.514
12770TIP3   OH259724   1.736   7.129   0.441
12770TIP3    H159725   1.653   7.098   0.476
12770TIP3    H259726   1.713   7.178   0.362
12771TIP3   OH259727   1.360   6.677   1.018
12771TIP3    H159728   1.265   6.667   1.014
12771TIP3    H259729   1.396   6.600   0.974
12772TIP3   OH259730   0.671   7.093   0.728
12772TIP3    H159731   0.715   7.163   0.681
12772TIP3    H259732   0.593   7.134   0.766
12773TIP3   OH259733   0.187   6.545   0.168
12773TIP3    H159734   0.244   6.611   0.207
12773TIP3    H259735   0.100   6.587   0.166
12774TIP3   OH259736   0.722   6.861   0.581
12774TIP3    H159737   0.712   6.944   0.628
12774TIP3    H259738   0.664   6.800   0.627
12775TIP3   OH259739   0.855   7.265   1.188
12775TIP3    H159740   0.902   7.324   1.246
12775TIP3    H259741   0.902   7.182   1.196
12776TIP3   OH259742   1.136   6.853   1.238
12776TIP3    H159743   1.100   6.833   1.325
12776TIP3    H259744   1.209   6.793   1.228
12777TIP3   OH259745   1.352   6.972   0.173
12777TIP3    H159746   1.410   6.932   0.238
12777TIP3    H259747   1.264   6.962   0.211
12778TIP3   OH259748   0.246   6.068   1.452
12778TIP3    H159749   0.184   6.107   1.514
12778TIP3    H259750   0.258   5.978   1.484
12779TIP3   OH259751   1.499   6.843   0.381
12779TIP3    H159752   1.465   6.763   0.421
12779TIP3    H259753   1.594   6.832   0.384
12780TIP3   OH259754   0.263   7.236   1.288
12780TIP3    H159755   0.231   7.161   1.338
12780TIP3    H259756   0.194   7.302   1.296
12781TIP3   OH259757   0.652   7.087   0.264
12781TIP3    H159758   0.729   7.032   0.283
12781TIP3    H259759   0.678   7.174   0.294
12782TIP3   OH259760   0.321   6.753   0.302
12782TIP3    H159761   0.246   6.796   0.344
12782TIP3    H259762   0.367   6.825   0.257
12783TIP3   OH259763   1.160   5.999   1.327
12783TIP3    H159764   1.209   6.025   1.405
12783TIP3    H259765   1.111   5.921   1.355
12784TIP3   OH259766   1.217   5.941   0.479
12784TIP3    H159767   1.226   5.981   0.392
12784TIP3    H259768   1.256   6.005   0.539
12785TIP3   OH259769   0.978   7.190   0.292
12785TIP3    H159770   0.900   7.238   0.318
12785TIP3    H259771   1.028   7.253   0.239
12786TIP3   OH259772   0.891   6.182   0.512
12786TIP3    H159773   0.964   6.243   0.519
12786TIP3    H259774   0.881   6.146   0.600
12787TIP3   OH259775   0.996   6.263   1.403
12787TIP3    H159776   1.000   6.296   1.492
12787TIP3    H259777   1.027   6.173   1.409
12788TIP3   OH259778   0.971   5.853   0.573
12788TIP3    H159779   0.944   5.924   0.631
12788TIP3    H259780   1.057   5.881   0.540
12789TIP3   OH259781   0.745   0.022   0.368
12789TIP3    H159782   0.759   0.115   0.347
12789TIP3    H259783   0.729   0.022   0.463
12790TIP3   OH259784   0.570   5.998   0.292
12790TIP3    H159785   0.567   6.084   0.333
12790TIP3    H259786   0.657   5.964   0.313
12791TIP3   OH259787   1.580   6.023   1.459
12791TIP3    H159788   1.498   6.070   1.478
12791TIP3    H259789   1.561   5.973   1.380
12792TIP3   OH259790   1.441   6.428   0.899
12792TIP3    H159791   1.355   6.390   0.880
12792TIP3    H259792   1.483   6.365   0.958
12793TIP3   OH259793   0.420   6.982   0.163
12793TIP3    H159794   0.480   7.038   0.212
12793TIP3    H259795   0.476   6.929   0.107
12794TIP3   OH259796   0.287   6.309   0.067
12794TIP3    H159797   0.254   6.393   0.097
12794TIP3    H259798   0.268   6.306  -0.027
12795TIP3   OH259799   0.303   5.778   0.939
12795TIP3    H159800   0.310   5.763   0.845
12795TIP3    H259801   0.269   5.696   0.975
12796TIP3   OH259802   0.162   7.171   0.492
12796TIP3    H159803   0.067   7.176   0.500
12796TIP3    H259804   0.183   7.223   0.415
12797TIP3   OH259805   0.587   7.238   1.908
12797TIP3    H159806   0.623   7.179   1.974
12797TIP3    H259807   0.658   7.251   1.845
12798TIP3   OH259808   1.122   0.047   0.114
12798TIP3    H159809   1.078  -0.002   0.045
12798TIP3    H259810   1.215   0.033   0.098
12799TIP3   OH259811   1.287   7.078   1.713
12799TIP3    H159812   1.242   7.016   1.771
12799TIP3    H259813   1.350   7.123   1.770
12800TIP3   OH259814   1.410   7.230   0.080
12800TIP3    H159815   1.393   7.140   0.108
12800TIP3    H259816   1.505   7.233   0.066
12801TIP3   OH259817   0.106   6.821   1.758
12801TIP3    H159818   0.099   6.725   1.755
12801TIP3    H259819   0.038   6.851   1.698
12802TIP3   OH259820   0.602   6.821   0.041
12802TIP3    H159821   0.631   6.770   0.116
12802TIP3    H259822   0.600   6.758  -0.032
12803TIP3   OH259823   0.781   6.817   1.735
12803TIP3    H159824   0.760   6.860   1.653
12803TIP3    H259825   0.801   6.727   1.710
12804TIP3   OH259826   1.344   6.834   1.492
12804TIP3    H159827   1.434   6.863   1.478
12804TIP3    H259828   1.291   6.912   1.477
12805TIP3   OH259829   0.187   6.540   1.752
12805TIP3    H159830   0.278   6.510   1.743
12805TIP3    H259831   0.176   6.556   1.846
12806TIP3   OH259832   0.675   6.640   0.239
12806TIP3    H159833   0.618   6.605   0.307
12806TIP3    H259834   0.706   6.563   0.191
12807TIP3   OH259835   0.621   6.433   1.490
12807TIP3    H159836   0.547   6.495   1.488
12807TIP3    H259837   0.682   6.468   1.425
12808TIP3   OH259838   0.789   6.443   0.050
12808TIP3    H159839   0.796   6.465  -0.043
12808TIP3    H259840   0.879   6.441   0.082
12809TIP3   OH259841   1.116   6.680   1.779
12809TIP3    H159842   1.198   6.641   1.748
12809TIP3    H259843   1.083   6.617   1.843
12810TIP3   OH259844   1.705   6.784   0.023
12810TIP3    H159845   1.661   6.806  -0.058
12810TIP3    H259846   1.723   6.868   0.065
12811TIP3   OH259847   0.661   6.174   1.567
12811TIP3    H159848   0.669   6.116   1.492
12811TIP3    H259849   0.649   6.261   1.529
12812TIP3   OH259850   0.690   6.018   1.332
12812TIP3    H159851   0.740   6.070   1.269
12812TIP3    H259852   0.601   6.017   1.297
12813TIP3   OH259853   0.818   6.539   1.336
12813TIP3    H159854   0.907   6.565   1.358
12813TIP3    H259855   0.781   6.614   1.290
12814TIP3   OH259856   1.250   6.328   1.838
12814TIP3    H159857   1.258   6.247   1.887
12814TIP3    H259858   1.331   6.376   1.857
12815TIP3   OH259859   1.397   6.623   1.654
12815TIP3    H159860   1.366   6.699   1.605
12815TIP3    H259861   1.492   6.626   1.645
12816TIP3   OH259862   0.497   6.246   1.785
12816TIP3    H159863   0.421   6.189   1.779
12816TIP3    H259864   0.547   6.228   1.705
12817TIP3   OH259865   0.751   5.751   1.395
12817TIP3    H159866   0.729   5.843   1.375
12817TIP3    H259867   0.680   5.701   1.354
12818TIP3   OH259868   0.878   6.145   1.738
12818TIP3    H159869   0.839   6.117   1.821
12818TIP3    H259870   0.804   6.149   1.677
12819TIP3   OH259871   1.131   6.070   1.639
12819TIP3    H159872   1.046   6.081   1.680
12819TIP3    H259873   1.186   6.029   1.705
12820TIP3   OH259874   1.329   5.968   1.818
12820TIP3    H159875   1.319   5.873   1.824
12820TIP3    H259876   1.295   6.001   1.901
12821TIP3   OH259877   0.307   6.044   1.766
12821TIP3    H159878   0.308   5.968   1.708
12821TIP3    H259879   0.319   6.008   1.854
12822TIP3   OH259880   0.749   5.674   1.659
12822TIP3    H159881   0.804   5.596   1.655
12822TIP3    H259882   0.743   5.704   1.568
12823TIP3   OH259883   0.819   5.839   1.871
12823TIP3    H159884   0.797   5.786   1.794
12823TIP3    H259885   0.755   5.910   1.869
12824TIP3   OH259886   0.155   6.968   0.096
12824TIP3    H159887   0.246   6.993   0.115
12824TIP3    H259888   0.132   7.018   0.018
12825TIP3   OH259889   1.630   6.936   1.888
12825TIP3    H159890   1.548   6.953   1.934
12825TIP3    H259891   1.681   7.016   1.901
12826TIP3   OH259892   1.766   6.769   0.421
12826TIP3    H159893   1.836   6.834   0.413
12826TIP3    H259894   1.794   6.712   0.493
12827TIP3   OH259895   1.836   6.569   0.606
12827TIP3    H159896   1.750   6.545   0.641
12827TIP3    H259897   1.888   6.591   0.683
12828TIP3   OH259898   1.810   6.862   1.126
12828TIP3    H159899   1.861   6.797   1.079
12828TIP3    H259900   1.850   6.946   1.102
12829TIP3   OH259901   1.558   7.165   1.311
12829TIP3    H159902   1.465   7.180   1.329
12829TIP3    H259903   1.561   7.146   1.217
12830TIP3   OH259904   1.809   6.596   0.215
12830TIP3    H159905   1.774   6.644   0.141
12830TIP3    H259906   1.794   6.652   0.291
12831TIP3   OH259907   1.616   6.261   0.114
12831TIP3    H159908   1.681   6.285   0.047
12831TIP3    H259909   1.537   6.241   0.064
12832TIP3   OH259910   1.584   6.463   0.666
12832TIP3    H159911   1.572   6.377   0.627
12832TIP3    H259912   1.539   6.458   0.750
12833TIP3   OH259913   0.082   6.650   1.032
12833TIP3    H159914   0.099   6.668   0.940
12833TIP3    H259915   0.168   6.628   1.068
12834TIP3   OH259916   1.672   6.635   1.631
12834TIP3    H159917   1.734   6.564   1.614
12834TIP3    H259918   1.718   6.715   1.606
12835TIP3   OH259919   1.824   6.402   1.619
12835TIP3    H159920   1.733   6.372   1.626
12835TIP3    H259921   1.877   6.327   1.645
12836TIP3   OH259922   1.566   6.230   0.494
12836TIP3    H159923   1.586   6.137   0.490
12836TIP3    H259924   1.635   6.272   0.444
12837TIP3   OH259925   1.596   6.238   1.047
12837TIP3    H159926   1.688   6.252   1.026
12837TIP3    H259927   1.587   6.262   1.139
12838TIP3   OH259928   1.617   6.338   1.307
12838TIP3    H159929   1.538   6.366   1.352
12838TIP3    H259930   1.667   6.418   1.293
12839TIP3   OH259931   0.090   6.192   1.691
12839TIP3    H159932   0.173   6.154   1.721
12839TIP3    H259933   0.023   6.139   1.735
12840TIP3   OH259934   1.855   5.764   1.831
12840TIP3    H159935   1.917   5.696   1.802
12840TIP3    H259936   1.852   5.826   1.759
12841TIP3   OH259937   1.614   5.956   0.502
12841TIP3    H159938   1.632   5.916   0.587
12841TIP3    H259939   1.549   5.899   0.461
12842TIP3   OH259940   0.182   6.026   0.945
12842TIP3    H159941   0.214   5.936   0.949
12842TIP3    H259942   0.259   6.080   0.963
12843TIP3   OH259943   0.016   6.385   1.080
12843TIP3    H159944   0.086   6.359   1.020
12843TIP3    H259945   0.021   6.481   1.083
12844TIP3   OH259946   1.778   5.952   1.647
12844TIP3    H159947   1.712   5.986   1.707
12844TIP3    H259948   1.729   5.927   1.568
12845TIP3   OH259949   1.848   5.894   0.125
12845TIP3    H159950   1.814   5.909   0.037
12845TIP3    H259951   1.882   5.979   0.153
12846TIP3   OH259952   0.105   5.919   0.360
12846TIP3    H159953   0.049   5.919   0.437
12846TIP3    H259954   0.113   6.011   0.335
12847TIP3   OH259955   0.050   5.810   1.321
12847TIP3    H159956   0.017   5.873   1.385
12847TIP3    H259957  -0.012   5.814   1.249
12848TIP3   OH259958   0.240   7.175   1.742
12848TIP3    H159959   0.162   7.223   1.715
12848TIP3    H259960   0.216   7.133   1.824
12849TIP3   OH259961   0.535   7.230   1.305
12849TIP3    H159962   0.443   7.248   1.285
12849TIP3    H259963   0.537   7.219   1.400
12850TIP3   OH259964   1.692   5.719   1.460
12850TIP3    H159965   1.611   5.729   1.410
12850TIP3    H259966   1.717   5.628   1.448
12851TIP3   OH259967   0.482   7.207   0.902
12851TIP3    H159968   0.437   7.126   0.923
12851TIP3    H259969   0.412   7.272   0.891
12852TIP3   OH259970   1.032   5.883   0.923
12852TIP3    H159971   0.970   5.813   0.943
12852TIP3    H259972   1.105   5.839   0.880
12853TIP3   OH259973   1.529   5.715   0.899
12853TIP3    H159974   1.586   5.780   0.858
12853TIP3    H259975   1.441   5.752   0.889
12854TIP3   OH259976   1.716   5.828   0.726
12854TIP3    H159977   1.775   5.756   0.701
12854TIP3    H259978   1.775   5.901   0.745
12855TIP3   OH259979   0.316   5.735   0.667
12855TIP3    H159980   0.227   5.725   0.632
12855TIP3    H259981   0.355   5.648   0.656
12856TIP3   OH259982   0.197   5.708   0.211
12856TIP3    H159983   0.274   5.757   0.180
12856TIP3    H259984   0.152   5.768   0.269
12857TIP3   OH259985   0.757   5.702   0.688
12857TIP3    H159986   0.825   5.757   0.648
12857TIP3    H259987   0.774   5.709   0.782
12858TIP3   OH259988   1.258   5.761   0.816
12858TIP3    H159989   1.265   5.752   0.721
12858TIP3    H259990   1.235   5.673   0.846
12859TIP3   OH259991   1.432   5.773   0.400
12859TIP3    H159992   1.355   5.830   0.411
12859TIP3    H259993   1.396   5.684   0.408
12860TIP3   OH259994   0.391   5.871   0.120
12860TIP3    H159995   0.423   5.905   0.036
12860TIP3    H259996   0.447   5.913   0.186
12861TIP3   OH259997   0.838   5.970   0.345
12861TIP3    H159998   0.874   5.900   0.399
12861TIP3    H259999   0.859   6.050   0.393
12862TIP3   OH260000   0.303   5.809   1.610
12862TIP3    H160001   0.244   5.742   1.644
12862TIP3    H260002   0.386   5.793   1.654
12863TIP3   OH260003   0.507   5.735   1.779
12863TIP3    H160004   0.591   5.704   1.745
12863TIP3    H260005   0.470   5.659   1.825
12864TIP3   OH260006   1.336   5.691   1.810
12864TIP3    H160007   1.323   5.644   1.893
12864TIP3    H260008   1.429   5.680   1.792
12865TIP3   OH260009   1.652  -0.013   1.684
12865TIP3    H160010   1.560  -0.018   1.661
12865TIP3    H260011   1.682   0.071   1.649
12866TIP3   OH260012   3.072   6.673   0.659
12866TIP3    H160013   3.063   6.769   0.654
12866TIP3    H260014   3.005   6.640   0.600
12867TIP3   OH260015   2.960   6.601   1.035
12867TIP3    H160016   2.980   6.560   1.120
12867TIP3    H260017   2.913   6.533   0.987
12868TIP3   OH260018   2.181   6.535   1.168
12868TIP3    H160019   2.192   6.465   1.233
12868TIP3    H260020   2.270   6.560   1.144
12869TIP3   OH260021   3.345   6.901   0.858
12869TIP3    H160022   3.305   6.829   0.907
12869TIP3    H260023   3.367   6.967   0.924
12870TIP3   OH260024   2.293   6.988   0.995
12870TIP3    H160025   2.264   6.902   0.964
12870TIP3    H260026   2.388   6.978   1.004
12871TIP3   OH260027   1.942   6.316   0.543
12871TIP3    H160028   1.923   6.404   0.574
12871TIP3    H260029   1.891   6.308   0.462
12872TIP3   OH260030   2.027   6.588   0.808
12872TIP3    H160031   2.059   6.500   0.828
12872TIP3    H260032   2.103   6.644   0.821
12873TIP3   OH260033   2.805   6.844   1.066
12873TIP3    H160034   2.842   6.768   1.020
12873TIP3    H260035   2.875   6.872   1.125
12874TIP3   OH260036   3.615   6.004   1.195
12874TIP3    H160037   3.672   6.081   1.190
12874TIP3    H260038   3.647   5.946   1.126
12875TIP3   OH260039   3.114   6.276   1.067
12875TIP3    H160040   3.133   6.184   1.086
12875TIP3    H260041   3.099   6.279   0.973
12876TIP3   OH260042   2.456   6.079   0.795
12876TIP3    H160043   2.467   6.167   0.759
12876TIP3    H260044   2.406   6.032   0.728
12877TIP3   OH260045   3.244   6.107   0.654
12877TIP3    H160046   3.289   6.069   0.730
12877TIP3    H260047   3.314   6.148   0.603
12878TIP3   OH260048   2.099   6.327   0.878
12878TIP3    H160049   2.167   6.294   0.938
12878TIP3    H260050   2.125   6.295   0.792
12879TIP3   OH260051   2.583   6.478   0.853
12879TIP3    H160052   2.669   6.444   0.876
12879TIP3    H260053   2.547   6.413   0.792
12880TIP3   OH260054   3.746   6.194   1.397
12880TIP3    H160055   3.667   6.235   1.362
12880TIP3    H260056   3.747   6.219   1.490
12881TIP3   OH260057   2.317   6.006   1.230
12881TIP3    H160058   2.296   6.065   1.158
12881TIP3    H260059   2.248   6.022   1.295
12882TIP3   OH260060   3.027   6.927   0.567
12882TIP3    H160061   3.023   6.940   0.472
12882TIP3    H260062   2.993   7.009   0.603
12883TIP3   OH260063   2.584   6.762   1.211
12883TIP3    H160064   2.528   6.834   1.241
12883TIP3    H260065   2.653   6.805   1.160
12884TIP3   OH260066   3.351   6.026   0.900
12884TIP3    H160067   3.279   6.015   0.963
12884TIP3    H260068   3.407   6.092   0.940
12885TIP3   OH260069   2.295   6.168   1.005
12885TIP3    H160070   2.353   6.226   1.055
12885TIP3    H260071   2.351   6.131   0.937
12886TIP3   OH260072   2.424   6.963   1.316
12886TIP3    H160073   2.434   7.056   1.295
12886TIP3    H260074   2.333   6.954   1.345
12887TIP3   OH260075   1.991   6.925   0.369
12887TIP3    H160076   1.987   6.960   0.279
12887TIP3    H260077   2.002   7.002   0.424
12888TIP3   OH260078   3.382   7.105   1.052
12888TIP3    H160079   3.291   7.112   1.080
12888TIP3    H260080   3.399   7.188   1.007
12889TIP3   OH260081   3.378   5.873   1.233
12889TIP3    H160082   3.309   5.927   1.193
12889TIP3    H260083   3.459   5.921   1.216
12890TIP3   OH260084   2.680   5.690   0.971
12890TIP3    H160085   2.652   5.598   0.974
12890TIP3    H260086   2.606   5.739   1.007
12891TIP3   OH260087   3.220   7.263   0.673
12891TIP3    H160088   3.262   7.177   0.667
12891TIP3    H260089   3.261   7.314   0.602
12892TIP3   OH260090   3.351   7.025   0.608
12892TIP3    H160091   3.330   6.960   0.541
12892TIP3    H260092   3.351   6.976   0.690
12893TIP3   OH260093   3.491   6.908   1.426
12893TIP3    H160094   3.482   6.849   1.352
12893TIP3    H260095   3.482   6.996   1.388
12894TIP3   OH260096   2.932   6.596   0.428
12894TIP3    H160097   2.870   6.666   0.408
12894TIP3    H260098   3.002   6.607   0.364
12895TIP3   OH260099   2.947   6.443   0.110
12895TIP3    H160100   2.996   6.469   0.187
12895TIP3    H260101   3.009   6.452   0.037
12896TIP3   OH260102   3.654   6.559   1.270
12896TIP3    H160103   3.581   6.619   1.260
12896TIP3    H260104   3.711   6.578   1.195
12897TIP3   OH260105   3.293   6.621   0.507
12897TIP3    H160106   3.224   6.641   0.570
12897TIP3    H260107   3.359   6.573   0.557
12898TIP3   OH260108   3.257   6.426   1.428
12898TIP3    H160109   3.259   6.487   1.502
12898TIP3    H260110   3.186   6.457   1.373
12899TIP3   OH260111   2.442   6.666   0.694
12899TIP3    H160112   2.423   6.628   0.608
12899TIP3    H260113   2.500   6.603   0.736
12900TIP3   OH260114   2.572   6.977   0.968
12900TIP3    H160115   2.582   7.014   0.881
12900TIP3    H260116   2.658   6.942   0.990
12901TIP3   OH260117   2.440   6.579   1.068
12901TIP3    H160118   2.495   6.554   0.993
12901TIP3    H260119   2.492   6.643   1.116
12902TIP3   OH260120   3.140   7.104   1.182
12902TIP3    H160121   3.125   7.127   1.273
12902TIP3    H260122   3.095   7.021   1.169
12903TIP3   OH260123   2.588   6.982   1.534
12903TIP3    H160124   2.527   7.043   1.574
12903TIP3    H260125   2.544   6.953   1.454
12904TIP3   OH260126   3.166   6.556   0.274
12904TIP3    H160127   3.212   6.583   0.354
12904TIP3    H260128   3.216   6.597   0.203
12905TIP3   OH260129   2.253   6.579   1.488
12905TIP3    H160130   2.260   6.656   1.546
12905TIP3    H260131   2.162   6.580   1.459
12906TIP3   OH260132   2.955   7.186   0.639
12906TIP3    H160133   3.044   7.216   0.657
12906TIP3    H260134   2.917   7.256   0.586
12907TIP3   OH260135   2.393   7.162   1.604
12907TIP3    H160136   2.385   7.203   1.518
12907TIP3    H260137   2.303   7.154   1.636
12908TIP3   OH260138   3.532   5.721   0.231
12908TIP3    H160139   3.455   5.755   0.277
12908TIP3    H260140   3.582   5.800   0.208
12909TIP3   OH260141   2.362   6.579   0.432
12909TIP3    H160142   2.316   6.655   0.399
12909TIP3    H260143   2.301   6.506   0.420
12910TIP3   OH260144   3.691   7.099   0.101
12910TIP3    H160145   3.664   7.180   0.057
12910TIP3    H260146   3.669   7.113   0.193
12911TIP3   OH260147   1.959   6.830   1.365
12911TIP3    H160148   1.908   6.842   1.284
12911TIP3    H260149   1.975   6.736   1.368
12912TIP3   OH260150   1.967   7.084   1.087
12912TIP3    H160151   2.062   7.081   1.079
12912TIP3    H260152   1.949   7.172   1.122
12913TIP3   OH260153   3.737   7.149   1.688
12913TIP3    H160154   3.729   7.056   1.665
12913TIP3    H260155   3.646   7.180   1.694
12914TIP3   OH260156   2.837   7.092   1.506
12914TIP3    H160157   2.825   7.169   1.562
12914TIP3    H260158   2.752   7.049   1.505
12915TIP3   OH260159   3.466   6.296   1.645
12915TIP3    H160160   3.389   6.297   1.702
12915TIP3    H260161   3.456   6.215   1.594
12916TIP3   OH260162   2.171   6.995   1.428
12916TIP3    H160163   2.168   6.995   1.524
12916TIP3    H260164   2.097   6.940   1.402
12917TIP3   OH260165   2.441   5.806   1.070
12917TIP3    H160166   2.365   5.806   1.012
12917TIP3    H260167   2.426   5.880   1.129
12918TIP3   OH260168   2.914   5.763   1.396
12918TIP3    H160169   2.963   5.721   1.467
12918TIP3    H260170   2.822   5.756   1.424
12919TIP3   OH260171   3.225   6.153   1.460
12919TIP3    H160172   3.162   6.137   1.530
12919TIP3    H260173   3.229   6.248   1.452
12920TIP3   OH260174   3.315   6.670   0.073
12920TIP3    H160175   3.282   6.757   0.054
12920TIP3    H260176   3.411   6.679   0.069
12921TIP3   OH260177   2.902   6.006   0.118
12921TIP3    H160178   2.824   5.994   0.174
12921TIP3    H260179   2.868   5.999   0.029
12922TIP3   OH260180   2.450   6.321   1.172
12922TIP3    H160181   2.386   6.322   1.243
12922TIP3    H260182   2.455   6.413   1.143
12923TIP3   OH260183   2.446   6.321   0.670
12923TIP3    H160184   2.351   6.314   0.664
12923TIP3    H260185   2.477   6.305   0.581
12924TIP3   OH260186   2.990   6.349   0.536
12924TIP3    H160187   2.965   6.436   0.504
12924TIP3    H260188   3.063   6.324   0.480
12925TIP3   OH260189   2.890   6.367   1.626
12925TIP3    H160190   2.840   6.290   1.652
12925TIP3    H260191   2.959   6.374   1.691
12926TIP3   OH260192   3.081   6.286   0.796
12926TIP3    H160193   3.042   6.336   0.724
12926TIP3    H260194   3.129   6.216   0.752
12927TIP3   OH260195   2.236   6.322   1.343
12927TIP3    H160196   2.248   6.374   1.423
12927TIP3    H260197   2.190   6.243   1.373
12928TIP3   OH260198   2.605   6.087   0.048
12928TIP3    H160199   2.594   6.070   0.141
12928TIP3    H260200   2.616   6.181   0.041
12929TIP3   OH260201   1.916   6.012   0.749
12929TIP3    H160202   1.958   6.024   0.835
12929TIP3    H260203   1.917   6.099   0.710
12930TIP3   OH260204   1.954   6.134   0.232
12930TIP3    H160205   2.031   6.170   0.187
12930TIP3    H260206   1.900   6.210   0.251
12931TIP3   OH260207   3.029   6.449   1.259
12931TIP3    H160208   3.070   6.392   1.193
12931TIP3    H260209   2.966   6.392   1.303
12932TIP3   OH260210   2.742   6.037   0.744
12932TIP3    H160211   2.655   6.046   0.782
12932TIP3    H260212   2.797   6.009   0.818
12933TIP3   OH260213   2.186   6.227   0.637
12933TIP3    H160214   2.107   6.252   0.589
12933TIP3    H260215   2.208   6.141   0.603
12934TIP3   OH260216   2.513   6.238   0.418
12934TIP3    H160217   2.608   6.239   0.430
12934TIP3    H260218   2.499   6.279   0.332
12935TIP3   OH260219   3.137   5.996   1.079
12935TIP3    H160220   3.096   6.000   1.165
12935TIP3    H260221   3.069   5.960   1.022
12936TIP3   OH260222   2.447   6.314   0.165
12936TIP3    H160223   2.361   6.316   0.123
12936TIP3    H260224   2.503   6.364   0.106
12937TIP3   OH260225   2.229   6.765   1.698
12937TIP3    H160226   2.299   6.788   1.758
12937TIP3    H260227   2.150   6.802   1.738
12938TIP3   OH260228   2.820   6.358   0.942
12938TIP3    H160229   2.896   6.315   0.903
12938TIP3    H260230   2.793   6.299   1.012
12939TIP3   OH260231   2.301   5.967   0.580
12939TIP3    H160232   2.292   5.875   0.604
12939TIP3    H260233   2.349   5.965   0.497
12940TIP3   OH260234   2.704   6.208   1.158
12940TIP3    H160235   2.623   6.259   1.169
12940TIP3    H260236   2.758   6.234   1.232
12941TIP3   OH260237   2.756   6.801   0.358
12941TIP3    H160238   2.688   6.752   0.311
12941TIP3    H260239   2.714   6.828   0.439
12942TIP3   OH260240   3.458   6.746   1.204
12942TIP3    H160241   3.521   6.796   1.153
12942TIP3    H260242   3.386   6.729   1.144
12943TIP3   OH260243   3.147   6.054   0.229
12943TIP3    H160244   3.063   6.048   0.183
12943TIP3    H260245   3.155   6.146   0.253
12944TIP3   OH260246   2.915   6.816   1.497
12944TIP3    H160247   2.937   6.776   1.581
12944TIP3    H260248   2.893   6.906   1.518
12945TIP3   OH260249   3.202   6.292   0.363
12945TIP3    H160250   3.291   6.275   0.395
12945TIP3    H260251   3.207   6.378   0.321
12946TIP3   OH260252   2.261   6.719   0.895
12946TIP3    H160253   2.319   6.719   0.818
12946TIP3    H260254   2.311   6.673   0.963
12947TIP3   OH260255   2.982   6.950   0.284
12947TIP3    H160256   2.949   7.039   0.292
12947TIP3    H260257   2.906   6.894   0.302
12948TIP3   OH260258   1.975   6.555   1.442
12948TIP3    H160259   1.942   6.508   1.518
12948TIP3    H260260   1.908   6.543   1.375
12949TIP3   OH260261   2.683   6.547   1.676
12949TIP3    H160262   2.616   6.510   1.619
12949TIP3    H260263   2.764   6.502   1.651
12950TIP3   OH260264   3.113   7.095   1.457
12950TIP3    H160265   3.017   7.095   1.457
12950TIP3    H260266   3.137   7.103   1.549
12951TIP3   OH260267   3.651   6.333   0.328
12951TIP3    H160268   3.595   6.309   0.255
12951TIP3    H260269   3.679   6.422   0.309
12952TIP3   OH260270   3.707   6.886   1.590
12952TIP3    H160271   3.621   6.904   1.551
12952TIP3    H260272   3.765   6.873   1.515
12953TIP3   OH260273   3.630   7.128   0.394
12953TIP3    H160274   3.555   7.094   0.442
12953TIP3    H260275   3.600   7.213   0.360
12954TIP3   OH260276   3.247   6.680   1.019
12954TIP3    H160277   3.152   6.671   1.011
12954TIP3    H260278   3.282   6.603   0.974
12955TIP3   OH260279   2.553   7.097   0.712
12955TIP3    H160280   2.601   7.172   0.679
12955TIP3    H260281   2.469   7.132   0.740
12956TIP3   OH260282   2.085   6.534   0.201
12956TIP3    H160283   2.131   6.614   0.227
12956TIP3    H260284   1.992   6.558   0.203
12957TIP3   OH260285   2.607   6.862   0.578
12957TIP3    H160286   2.596   6.947   0.621
12957TIP3    H260287   2.548   6.803   0.625
12958TIP3   OH260288   2.727   7.254   1.201
12958TIP3    H160289   2.782   7.319   1.245
12958TIP3    H260290   2.752   7.170   1.240
12959TIP3   OH260291   3.020   6.857   1.241
12959TIP3    H160292   2.985   6.839   1.329
12959TIP3    H260293   3.089   6.792   1.230
12960TIP3   OH260294   3.269   6.957   0.136
12960TIP3    H160295   3.313   6.924   0.214
12960TIP3    H260296   3.178   6.969   0.163
12961TIP3   OH260297   2.098   6.079   1.405
12961TIP3    H160298   2.006   6.106   1.396
12961TIP3    H260299   2.096   6.005   1.465
12962TIP3   OH260300   3.383   6.842   0.365
12962TIP3    H160301   3.343   6.768   0.411
12962TIP3    H260302   3.477   6.831   0.378
12963TIP3   OH260303   2.164   7.243   1.260
12963TIP3    H160304   2.144   7.170   1.318
12963TIP3    H260305   2.089   7.302   1.270
12964TIP3   OH260306   2.540   7.083   0.255
12964TIP3    H160307   2.603   7.023   0.295
12964TIP3    H260308   2.563   7.169   0.291
12965TIP3   OH260309   2.205   6.766   0.304
12965TIP3    H160310   2.130   6.810   0.344
12965TIP3    H260311   2.249   6.835   0.254
12966TIP3   OH260312   3.020   6.009   1.324
12966TIP3    H160313   3.085   6.033   1.390
12966TIP3    H260314   2.982   5.927   1.357
12967TIP3   OH260315   3.099   5.946   0.475
12967TIP3    H160316   3.112   5.987   0.390
12967TIP3    H260317   3.141   6.006   0.537
12968TIP3   OH260318   2.873   7.199   0.314
12968TIP3    H160319   2.788   7.236   0.338
12968TIP3    H260320   2.907   7.259   0.247
12969TIP3   OH260321   2.771   6.186   0.509
12969TIP3    H160322   2.846   6.244   0.516
12969TIP3    H260323   2.763   6.147   0.596
12970TIP3   OH260324   2.871   6.253   1.372
12970TIP3    H160325   2.877   6.285   1.462
12970TIP3    H260326   2.916   6.168   1.374
12971TIP3   OH260327   2.855   5.850   0.565
12971TIP3    H160328   2.828   5.920   0.625
12971TIP3    H260329   2.943   5.875   0.538
12972TIP3   OH260330   2.628   0.015   0.373
12972TIP3    H160331   2.619   0.104   0.340
12972TIP3    H260332   2.613   0.023   0.467
12973TIP3   OH260333   2.440   5.983   0.334
12973TIP3    H160334   2.443   6.076   0.355
12973TIP3    H260335   2.532   5.955   0.333
12974TIP3   OH260336   3.478   6.062   1.487
12974TIP3    H160337   3.384   6.076   1.473
12974TIP3    H260338   3.516   6.063   1.400
12975TIP3   OH260339   3.325   6.433   0.897
12975TIP3    H160340   3.239   6.393   0.883
12975TIP3    H260341   3.371   6.370   0.953
12976TIP3   OH260342   2.301   6.979   0.152
12976TIP3    H160343   2.358   7.041   0.199
12976TIP3    H260344   2.361   6.927   0.099
12977TIP3   OH260345   2.149   6.292   0.091
12977TIP3    H160346   2.130   6.377   0.130
12977TIP3    H260347   2.126   6.302  -0.001
12978TIP3   OH260348   2.196   5.786   0.940
12978TIP3    H160349   2.197   5.775   0.845
12978TIP3    H260350   2.170   5.701   0.974
12979TIP3   OH260351   2.001   7.169   0.508
12979TIP3    H160352   1.906   7.159   0.498
12979TIP3    H260353   2.024   7.236   0.443
12980TIP3   OH260354   2.511   7.251   1.835
12980TIP3    H160355   2.566   7.185   1.877
12980TIP3    H260356   2.464   7.203   1.767
12981TIP3   OH260357   2.946   0.049   0.096
12981TIP3    H160358   2.870   0.011   0.053
12981TIP3    H260359   3.020   0.019   0.044
12982TIP3   OH260360   3.143   7.109   1.725
12982TIP3    H160361   3.115   7.042   1.787
12982TIP3    H260362   3.142   7.190   1.776
12983TIP3   OH260363   3.356   7.232   0.043
12983TIP3    H160364   3.347   7.147   0.085
12983TIP3    H260365   3.276   7.241  -0.010
12984TIP3   OH260366   1.974   6.821   1.810
12984TIP3    H160367   1.917   6.762   1.859
12984TIP3    H260368   1.920   6.850   1.736
12985TIP3   OH260369   2.500   6.821   0.045
12985TIP3    H160370   2.525   6.766   0.119
12985TIP3    H260371   2.491   6.759  -0.028
12986TIP3   OH260372   2.665   6.820   1.743
12986TIP3    H160373   2.648   6.864   1.660
12986TIP3    H260374   2.688   6.730   1.718
12987TIP3   OH260375   3.232   6.833   1.492
12987TIP3    H160376   3.322   6.862   1.478
12987TIP3    H260377   3.179   6.910   1.474
12988TIP3   OH260378   2.138   6.509   1.774
12988TIP3    H160379   2.173   6.584   1.726
12988TIP3    H260380   2.116   6.544   1.860
12989TIP3   OH260381   2.565   6.637   0.241
12989TIP3    H160382   2.503   6.606   0.307
12989TIP3    H260383   2.594   6.558   0.196
12990TIP3   OH260384   2.494   6.438   1.492
12990TIP3    H160385   2.419   6.497   1.486
12990TIP3    H260386   2.557   6.473   1.430
12991TIP3   OH260387   2.674   6.436   0.056
12991TIP3    H160388   2.678   6.473  -0.032
12991TIP3    H260389   2.765   6.434   0.086
12992TIP3   OH260390   2.995   6.687   1.765
12992TIP3    H160391   3.077   6.648   1.735
12992TIP3    H260392   2.968   6.632   1.839
12993TIP3   OH260393   3.588   6.768  16.020
12993TIP3    H160394   3.562   6.784  15.929
12993TIP3    H260395   3.616   6.854  16.051
12994TIP3   OH260396   2.501   6.166   1.541
12994TIP3    H160397   2.549   6.109   1.481
12994TIP3    H260398   2.517   6.255   1.507
12995TIP3   OH260399   2.580   6.002   1.316
12995TIP3    H160400   2.631   6.057   1.256
12995TIP3    H260401   2.489   6.015   1.289
12996TIP3   OH260402   2.690   6.546   1.341
12996TIP3    H160403   2.783   6.562   1.357
12996TIP3    H260404   2.659   6.625   1.297
12997TIP3   OH260405   3.281   6.313   1.853
12997TIP3    H160406   3.196   6.272   1.864
12997TIP3    H260407   3.270   6.402   1.886
12998TIP3   OH260408   3.275   6.619   1.652
12998TIP3    H160409   3.248   6.694   1.599
12998TIP3    H260410   3.370   6.616   1.643
12999TIP3   OH260411   2.369   6.253   1.766
12999TIP3    H160412   2.410   6.179   1.812
12999TIP3    H260413   2.413   6.255   1.681
13000TIP3   OH260414   2.630   5.742   1.395
13000TIP3    H160415   2.616   5.834   1.369
13000TIP3    H260416   2.559   5.695   1.351
13001TIP3   OH260417   2.769   6.134   1.707
13001TIP3    H160418   2.815   6.152   1.789
13001TIP3    H260419   2.678   6.119   1.732
13002TIP3   OH260420   3.036   6.059   1.629
13002TIP3    H160421   2.947   6.079   1.658
13002TIP3    H260422   3.084   6.040   1.710
13003TIP3   OH260423   3.197   5.964   1.851
13003TIP3    H160424   3.187   5.870   1.836
13003TIP3    H260425   3.150   5.981   1.933
13004TIP3   OH260426   2.163   6.031   1.782
13004TIP3    H160427   2.189   5.965   1.717
13004TIP3    H260428   2.184   5.990   1.866
13005TIP3   OH260429   2.617   5.669   1.658
13005TIP3    H160430   2.681   5.598   1.658
13005TIP3    H260431   2.615   5.700   1.568
13006TIP3   OH260432   2.671   5.838   1.870
13006TIP3    H160433   2.656   5.789   1.789
13006TIP3    H260434   2.626   5.921   1.856
13007TIP3   OH260435   2.024   6.996   0.093
13007TIP3    H160436   2.116   7.016   0.109
13007TIP3    H260437   2.014   7.004  -0.002
13008TIP3   OH260438   3.529   6.960   1.895
13008TIP3    H160439   3.442   6.970   1.933
13008TIP3    H260440   3.582   7.028   1.937
13009TIP3   OH260441   3.646   6.775   0.423
13009TIP3    H160442   3.723   6.833   0.421
13009TIP3    H260443   3.662   6.715   0.495
13010TIP3   OH260444   3.703   6.581   0.608
13010TIP3    H160445   3.620   6.543   0.635
13010TIP3    H260446   3.755   6.586   0.688
13011TIP3   OH260447   3.699   6.860   1.127
13011TIP3    H160448   3.747   6.791   1.082
13011TIP3    H260449   3.739   6.942   1.097
13012TIP3   OH260450   3.428   7.158   1.322
13012TIP3    H160451   3.334   7.159   1.336
13012TIP3    H260452   3.439   7.143   1.228
13013TIP3   OH260453   3.696   6.596   0.221
13013TIP3    H160454   3.651   6.640   0.149
13013TIP3    H260455   3.679   6.652   0.297
13014TIP3   OH260456   3.506   6.264   0.112
13014TIP3    H160457   3.572   6.282   0.045
13014TIP3    H260458   3.461   6.186   0.081
13015TIP3   OH260459   3.460   6.458   0.658
13015TIP3    H160460   3.456   6.368   0.624
13015TIP3    H260461   3.418   6.453   0.744
13016TIP3   OH260462   1.948   6.627   1.066
13016TIP3    H160463   1.961   6.623   0.971
13016TIP3    H260464   2.033   6.605   1.103
13017TIP3   OH260465   3.554   6.637   1.631
13017TIP3    H160466   3.613   6.563   1.616
13017TIP3    H260467   3.601   6.712   1.593
13018TIP3   OH260468   3.710   6.406   1.629
13018TIP3    H160469   3.621   6.370   1.629
13018TIP3    H260470   3.764   6.337   1.668
13019TIP3   OH260471   3.454   6.219   0.493
13019TIP3    H160472   3.480   6.127   0.489
13019TIP3    H260473   3.522   6.266   0.446
13020TIP3   OH260474   3.475   6.243   1.040
13020TIP3    H160475   3.568   6.254   1.021
13020TIP3    H260476   3.468   6.257   1.134
13021TIP3   OH260477   3.508   6.326   1.313
13021TIP3    H160478   3.427   6.354   1.357
13021TIP3    H260479   3.556   6.407   1.298
13022TIP3   OH260480   1.951   6.165   1.688
13022TIP3    H160481   2.011   6.100   1.725
13022TIP3    H260482   1.876   6.114   1.657
13023TIP3   OH260483   3.731   5.756   1.824
13023TIP3    H160484   3.795   5.691   1.795
13023TIP3    H260485   3.731   5.822   1.755
13024TIP3   OH260486   3.519   5.951   0.490
13024TIP3    H160487   3.555   5.913   0.570
13024TIP3    H260488   3.451   5.888   0.463
13025TIP3   OH260489   2.050   6.018   0.991
13025TIP3    H160490   2.098   5.935   0.987
13025TIP3    H260491   2.118   6.084   1.003
13026TIP3   OH260492   1.865   6.308   1.033
13026TIP3    H160493   1.939   6.307   0.973
13026TIP3    H260494   1.876   6.388   1.085
13027TIP3   OH260495   3.675   5.936   1.625
13027TIP3    H160496   3.604   5.994   1.598
13027TIP3    H260497   3.668   5.862   1.565
13028TIP3   OH260498   3.678   5.933   0.127
13028TIP3    H160499   3.708   5.950   0.038
13028TIP3    H260500   3.730   5.991   0.182
13029TIP3   OH260501   1.883   5.959   0.434
13029TIP3    H160502   1.790   5.972   0.451
13029TIP3    H260503   1.906   6.026   0.370
13030TIP3   OH260504   1.901   5.758   1.268
13030TIP3    H160505   1.841   5.756   1.342
13030TIP3    H260506   1.877   5.837   1.220
13031TIP3   OH260507   2.143   7.135   1.714
13031TIP3    H160508   2.054   7.145   1.682
13031TIP3    H260509   2.137   7.153   1.808
13032TIP3   OH260510   2.436   7.248   1.311
13032TIP3    H160511   2.346   7.261   1.282
13032TIP3    H260512   2.489   7.265   1.233
13033TIP3   OH260513   3.582   5.730   1.462
13033TIP3    H160514   3.514   5.754   1.399
13033TIP3    H260515   3.612   5.644   1.434
13034TIP3   OH260516   2.339   7.213   0.846
13034TIP3    H160517   2.310   7.136   0.895
13034TIP3    H260518   2.383   7.268   0.911
13035TIP3   OH260519   2.905   5.889   0.916
13035TIP3    H160520   2.846   5.818   0.939
13035TIP3    H260521   2.976   5.846   0.867
13036TIP3   OH260522   3.435   5.722   0.890
13036TIP3    H160523   3.525   5.734   0.919
13036TIP3    H260524   3.397   5.810   0.893
13037TIP3   OH260525   3.662   5.845   0.695
13037TIP3    H160526   3.712   5.768   0.665
13037TIP3    H260527   3.673   5.844   0.790
13038TIP3   OH260528   2.162   5.713   0.663
13038TIP3    H160529   2.077   5.684   0.698
13038TIP3    H260530   2.215   5.633   0.660
13039TIP3   OH260531   2.058   5.761   0.262
13039TIP3    H160532   2.135   5.792   0.214
13039TIP3    H260533   1.984   5.793   0.211
13040TIP3   OH260534   2.636   5.713   0.688
13040TIP3    H160535   2.705   5.762   0.644
13040TIP3    H260536   2.660   5.717   0.781
13041TIP3   OH260537   3.110   5.755   0.799
13041TIP3    H160538   3.195   5.751   0.754
13041TIP3    H260539   3.101   5.668   0.840
13042TIP3   OH260540   3.317   5.781   0.400
13042TIP3    H160541   3.243   5.841   0.414
13042TIP3    H260542   3.279   5.694   0.407
13043TIP3   OH260543   2.277   5.863   0.135
13043TIP3    H160544   2.298   5.909   0.054
13043TIP3    H260545   2.334   5.904   0.200
13044TIP3   OH260546   2.717   5.974   0.341
13044TIP3    H160547   2.761   5.905   0.391
13044TIP3    H260548   2.739   6.055   0.389
13045TIP3   OH260549   2.164   5.784   1.604
13045TIP3    H160550   2.103   5.720   1.642
13045TIP3    H260551   2.245   5.771   1.653
13046TIP3   OH260552   2.363   5.726   1.788
13046TIP3    H160553   2.450   5.702   1.757
13046TIP3    H260554   2.330   5.648   1.832
13047TIP3   OH260555   3.216   5.688   1.803
13047TIP3    H160556   3.205   5.645   1.888
13047TIP3    H260557   3.309   5.680   1.783
13048TIP3   OH260558   3.476  -0.010   1.686
13048TIP3    H160559   3.445  -0.049   1.605
13048TIP3    H260560   3.524   0.068   1.658
13049TIP3   OH260561   4.942   6.688   0.668
13049TIP3    H160562   4.975   6.778   0.666
13049TIP3    H260563   4.942   6.661   0.576
13050TIP3   OH260564   4.833   6.590   1.043
13050TIP3    H160565   4.866   6.556   1.126
13050TIP3    H260566   4.790   6.516   1.001
13051TIP3   OH260567   4.067   6.553   1.189
13051TIP3    H160568   4.072   6.468   1.234
13051TIP3    H260569   4.149   6.597   1.213
13052TIP3   OH260570   5.214   6.897   0.849
13052TIP3    H160571   5.190   6.820   0.901
13052TIP3    H260572   5.240   6.962   0.913
13053TIP3   OH260573   4.186   6.997   1.004
13053TIP3    H160574   4.156   6.909   0.980
13053TIP3    H260575   4.280   6.987   1.017
13054TIP3   OH260576   3.876   6.372   0.527
13054TIP3    H160577   3.823   6.451   0.542
13054TIP3    H260578   3.811   6.301   0.522
13055TIP3   OH260579   3.896   6.574   0.811
13055TIP3    H160580   3.928   6.486   0.830
13055TIP3    H260581   3.975   6.627   0.803
13056TIP3   OH260582   4.699   6.838   1.061
13056TIP3    H160583   4.731   6.751   1.038
13056TIP3    H260584   4.767   6.873   1.119
13057TIP3   OH260585   5.571   5.992   1.155
13057TIP3    H160586   5.592   6.062   1.217
13057TIP3    H260587   5.620   6.015   1.076
13058TIP3   OH260588   5.009   6.270   1.069
13058TIP3    H160589   5.035   6.179   1.085
13058TIP3    H260590   4.991   6.273   0.975
13059TIP3   OH260591   4.357   6.090   0.798
13059TIP3    H160592   4.357   6.175   0.755
13059TIP3    H260593   4.302   6.035   0.743
13060TIP3   OH260594   5.120   6.110   0.641
13060TIP3    H160595   5.159   6.080   0.723
13060TIP3    H260596   5.196   6.127   0.584
13061TIP3   OH260597   3.992   6.326   0.887
13061TIP3    H160598   4.045   6.272   0.945
13061TIP3    H260599   4.011   6.292   0.799
13062TIP3   OH260600   4.497   6.486   0.825
13062TIP3    H160601   4.571   6.440   0.865
13062TIP3    H260602   4.451   6.419   0.774
13063TIP3   OH260603   5.619   6.161   1.377
13063TIP3    H160604   5.541   6.214   1.360
13063TIP3    H260605   5.637   6.173   1.470
13064TIP3   OH260606   4.211   5.997   1.226
13064TIP3    H160607   4.188   6.050   1.149
13064TIP3    H260608   4.138   6.010   1.287
13065TIP3   OH260609   4.847   6.932   0.557
13065TIP3    H160610   4.872   6.944   0.466
13065TIP3    H260611   4.841   7.020   0.593
13066TIP3   OH260612   4.472   6.763   1.209
13066TIP3    H160613   4.415   6.833   1.241
13066TIP3    H260614   4.541   6.809   1.160
13067TIP3   OH260615   5.223   6.078   0.890
13067TIP3    H160616   5.182   6.027   0.960
13067TIP3    H260617   5.290   6.130   0.934
13068TIP3   OH260618   4.189   6.161   1.008
13068TIP3    H160619   4.245   6.220   1.058
13068TIP3    H260620   4.245   6.129   0.937
13069TIP3   OH260621   4.313   6.965   1.313
13069TIP3    H160622   4.322   7.058   1.292
13069TIP3    H260623   4.223   6.956   1.342
13070TIP3   OH260624   3.884   6.912   0.390
13070TIP3    H160625   3.877   6.937   0.298
13070TIP3    H260626   3.893   6.995   0.437
13071TIP3   OH260627   5.258   7.112   1.032
13071TIP3    H160628   5.172   7.118   1.073
13071TIP3    H260629   5.267   7.193   0.983
13072TIP3   OH260630   5.319   5.896   1.249
13072TIP3    H160631   5.247   5.934   1.200
13072TIP3    H260632   5.398   5.922   1.201
13073TIP3   OH260633   4.571   5.684   0.969
13073TIP3    H160634   4.543   5.593   0.971
13073TIP3    H260635   4.495   5.733   1.001
13074TIP3   OH260636   5.104   7.237   0.706
13074TIP3    H160637   5.138   7.157   0.667
13074TIP3    H260638   5.176   7.267   0.763
13075TIP3   OH260639   5.222   7.016   0.598
13075TIP3    H160640   5.233   6.951   0.528
13075TIP3    H260641   5.227   6.965   0.679
13076TIP3   OH260642   5.371   6.914   1.426
13076TIP3    H160643   5.368   6.855   1.350
13076TIP3    H260644   5.375   7.002   1.388
13077TIP3   OH260645   4.833   6.621   0.423
13077TIP3    H160646   4.761   6.658   0.372
13077TIP3    H260647   4.902   6.605   0.359
13078TIP3   OH260648   4.832   6.454   0.125
13078TIP3    H160649   4.900   6.468   0.191
13078TIP3    H260650   4.879   6.440   0.043
13079TIP3   OH260651   5.541   6.558   1.271
13079TIP3    H160652   5.469   6.620   1.262
13079TIP3    H260653   5.600   6.578   1.198
13080TIP3   OH260654   5.180   6.610   0.523
13080TIP3    H160655   5.129   6.622   0.603
13080TIP3    H260656   5.255   6.556   0.549
13081TIP3   OH260657   5.149   6.422   1.453
13081TIP3    H160658   5.145   6.493   1.517
13081TIP3    H260659   5.085   6.445   1.386
13082TIP3   OH260660   4.320   6.663   0.698
13082TIP3    H160661   4.290   6.626   0.615
13082TIP3    H260662   4.373   6.593   0.737
13083TIP3   OH260663   4.467   6.987   0.979
13083TIP3    H160664   4.479   7.027   0.893
13083TIP3    H260665   4.552   6.946   0.998
13084TIP3   OH260666   4.353   6.566   1.058
13084TIP3    H160667   4.409   6.549   0.982
13084TIP3    H260668   4.399   6.634   1.107
13085TIP3   OH260669   5.029   7.108   1.184
13085TIP3    H160670   5.012   7.135   1.274
13085TIP3    H260671   4.985   7.024   1.175
13086TIP3   OH260672   4.470   6.982   1.537
13086TIP3    H160673   4.408   7.042   1.579
13086TIP3    H260674   4.427   6.954   1.457
13087TIP3   OH260675   5.060   6.553   0.278
13087TIP3    H160676   5.111   6.572   0.357
13087TIP3    H260677   5.110   6.593   0.207
13088TIP3   OH260678   4.143   6.590   1.500
13088TIP3    H160679   4.152   6.673   1.547
13088TIP3    H260680   4.051   6.585   1.476
13089TIP3   OH260681   4.842   7.194   0.631
13089TIP3    H160682   4.930   7.215   0.663
13089TIP3    H260683   4.802   7.279   0.614
13090TIP3   OH260684   4.271   7.164   1.605
13090TIP3    H160685   4.265   7.201   1.517
13090TIP3    H260686   4.181   7.158   1.635
13091TIP3   OH260687   5.404   5.719   0.197
13091TIP3    H160688   5.336   5.726   0.263
13091TIP3    H260689   5.455   5.800   0.206
13092TIP3   OH260690   4.244   6.576   0.438
13092TIP3    H160691   4.193   6.646   0.398
13092TIP3    H260692   4.186   6.500   0.437
13093TIP3   OH260693   5.540   7.135   0.130
13093TIP3    H160694   5.552   7.218   0.083
13093TIP3    H260695   5.624   7.091   0.122
13094TIP3   OH260696   3.846   6.828   1.364
13094TIP3    H160697   3.794   6.838   1.285
13094TIP3    H260698   3.859   6.733   1.373
13095TIP3   OH260699   3.857   7.083   1.081
13095TIP3    H160700   3.952   7.080   1.080
13095TIP3    H260701   3.836   7.169   1.118
13096TIP3   OH260702   5.640   7.145   1.667
13096TIP3    H160703   5.620   7.052   1.658
13096TIP3    H260704   5.554   7.187   1.674
13097TIP3   OH260705   4.717   7.099   1.511
13097TIP3    H160706   4.705   7.175   1.568
13097TIP3    H260707   4.632   7.055   1.511
13098TIP3   OH260708   5.331   6.295   1.653
13098TIP3    H160709   5.267   6.336   1.595
13098TIP3    H260710   5.339   6.205   1.621
13099TIP3   OH260711   4.063   6.982   1.432
13099TIP3    H160712   4.087   6.943   1.516
13099TIP3    H260713   3.986   6.931   1.404
13100TIP3   OH260714   4.332   5.801   1.062
13100TIP3    H160715   4.257   5.788   1.004
13100TIP3    H260716   4.306   5.874   1.119
13101TIP3   OH260717   4.798   5.770   1.401
13101TIP3    H160718   4.845   5.721   1.469
13101TIP3    H260719   4.706   5.759   1.424
13102TIP3   OH260720   5.088   6.149   1.474
13102TIP3    H160721   5.027   6.138   1.547
13102TIP3    H260722   5.096   6.244   1.464
13103TIP3   OH260723   5.209   6.656   0.069
13103TIP3    H160724   5.176   6.686  -0.016
13103TIP3    H260725   5.301   6.681   0.069
13104TIP3   OH260726   4.798   5.995   0.154
13104TIP3    H160727   4.727   5.983   0.217
13104TIP3    H260728   4.758   5.976   0.069
13105TIP3   OH260729   4.336   6.320   1.180
13105TIP3    H160730   4.265   6.322   1.245
13105TIP3    H260731   4.337   6.408   1.143
13106TIP3   OH260732   4.341   6.329   0.662
13106TIP3    H160733   4.246   6.314   0.664
13106TIP3    H260734   4.367   6.306   0.573
13107TIP3   OH260735   4.888   6.356   0.532
13107TIP3    H160736   4.867   6.438   0.489
13107TIP3    H260737   4.957   6.317   0.478
13108TIP3   OH260738   4.793   6.364   1.660
13108TIP3    H160739   4.743   6.291   1.696
13108TIP3    H260740   4.877   6.360   1.705
13109TIP3   OH260741   4.973   6.289   0.795
13109TIP3    H160742   4.930   6.334   0.723
13109TIP3    H260743   5.020   6.216   0.754
13110TIP3   OH260744   4.114   6.323   1.344
13110TIP3    H160745   4.109   6.366   1.429
13110TIP3    H260746   4.073   6.237   1.358
13111TIP3   OH260747   4.492   6.087   0.042
13111TIP3    H160748   4.456   6.056   0.125
13111TIP3    H260749   4.483   6.182   0.047
13112TIP3   OH260750   3.818   6.090   0.656
13112TIP3    H160751   3.853   6.083   0.745
13112TIP3    H260752   3.772   6.008   0.642
13113TIP3   OH260753   3.839   6.131   0.258
13113TIP3    H160754   3.915   6.173   0.218
13113TIP3    H260755   3.785   6.203   0.289
13114TIP3   OH260756   4.935   6.446   1.263
13114TIP3    H160757   4.968   6.386   1.195
13114TIP3    H260758   4.870   6.394   1.309
13115TIP3   OH260759   4.635   6.056   0.751
13115TIP3    H160760   4.544   6.060   0.783
13115TIP3    H260761   4.682   6.008   0.819
13116TIP3   OH260762   4.086   6.241   0.641
13116TIP3    H160763   4.011   6.278   0.594
13116TIP3    H260764   4.083   6.148   0.622
13117TIP3   OH260765   4.403   6.245   0.408
13117TIP3    H160766   4.498   6.242   0.415
13117TIP3    H260767   4.386   6.282   0.321
13118TIP3   OH260768   5.047   5.990   1.097
13118TIP3    H160769   4.993   5.999   1.176
13118TIP3    H260770   4.991   5.943   1.035
13119TIP3   OH260771   4.314   6.314   0.154
13119TIP3    H160772   4.219   6.304   0.142
13119TIP3    H260773   4.344   6.359   0.075
13120TIP3   OH260774   4.139   6.823   1.663
13120TIP3    H160775   4.205   6.817   1.732
13120TIP3    H260776   4.056   6.827   1.710
13121TIP3   OH260777   4.707   6.354   0.950
13121TIP3    H160778   4.773   6.297   0.911
13121TIP3    H260779   4.672   6.303   1.023
13122TIP3   OH260780   4.195   5.967   0.611
13122TIP3    H160781   4.131   5.899   0.635
13122TIP3    H260782   4.234   5.936   0.529
13123TIP3   OH260783   4.596   6.227   1.174
13123TIP3    H160784   4.510   6.267   1.184
13123TIP3    H260785   4.645   6.255   1.251
13124TIP3   OH260786   4.620   6.795   0.375
13124TIP3    H160787   4.561   6.744   0.319
13124TIP3    H260788   4.562   6.842   0.434
13125TIP3   OH260789   5.348   6.749   1.201
13125TIP3    H160790   5.413   6.799   1.151
13125TIP3    H260791   5.280   6.729   1.137
13126TIP3   OH260792   5.022   6.146   0.098
13126TIP3    H160793   4.945   6.092   0.119
13126TIP3    H260794   5.050   6.181   0.183
13127TIP3   OH260795   4.795   6.825   1.489
13127TIP3    H160796   4.817   6.781   1.571
13127TIP3    H260797   4.772   6.914   1.514
13128TIP3   OH260798   5.093   6.272   0.350
13128TIP3    H160799   5.178   6.249   0.388
13128TIP3    H260800   5.108   6.356   0.307
13129TIP3   OH260801   4.157   6.728   0.917
13129TIP3    H160802   4.212   6.718   0.839
13129TIP3    H260803   4.191   6.663   0.978
13130TIP3   OH260804   4.853   6.943   0.276
13130TIP3    H160805   4.822   7.033   0.276
13130TIP3    H260806   4.775   6.890   0.290
13131TIP3   OH260807   3.866   6.560   1.454
13131TIP3    H160808   3.838   6.516   1.534
13131TIP3    H260809   3.799   6.539   1.390
13132TIP3   OH260810   4.580   6.546   1.682
13132TIP3    H160811   4.513   6.507   1.625
13132TIP3    H260812   4.659   6.496   1.663
13133TIP3   OH260813   4.992   7.099   1.460
13133TIP3    H160814   4.896   7.101   1.462
13133TIP3    H260815   5.019   7.110   1.551
13134TIP3   OH260816   5.557   6.332   0.318
13134TIP3    H160817   5.497   6.298   0.252
13134TIP3    H260818   5.576   6.421   0.291
13135TIP3   OH260819   5.584   6.874   1.594
13135TIP3    H160820   5.499   6.899   1.557
13135TIP3    H260821   5.642   6.868   1.519
13136TIP3   OH260822   5.466   7.179   0.406
13136TIP3    H160823   5.419   7.103   0.440
13136TIP3    H260824   5.489   7.154   0.316
13137TIP3   OH260825   5.141   6.674   1.009
13137TIP3    H160826   5.046   6.662   1.015
13137TIP3    H260827   5.173   6.592   0.971
13138TIP3   OH260828   4.438   7.096   0.702
13138TIP3    H160829   4.483   7.177   0.675
13138TIP3    H260830   4.353   7.126   0.734
13139TIP3   OH260831   3.969   6.548   0.181
13139TIP3    H160832   4.014   6.627   0.214
13139TIP3    H260833   3.877   6.567   0.195
13140TIP3   OH260834   4.512   6.846   0.630
13140TIP3    H160835   4.487   6.936   0.651
13140TIP3    H260836   4.436   6.794   0.656
13141TIP3   OH260837   4.632   7.257   1.198
13141TIP3    H160838   4.677   7.322   1.252
13141TIP3    H260839   4.639   7.175   1.246
13142TIP3   OH260840   4.913   6.859   1.241
13142TIP3    H160841   4.868   6.847   1.325
13142TIP3    H260842   4.991   6.804   1.247
13143TIP3   OH260843   5.126   6.975   0.153
13143TIP3    H160844   5.177   6.928   0.219
13143TIP3    H260845   5.035   6.964   0.181
13144TIP3   OH260846   3.994   6.069   1.390
13144TIP3    H160847   3.906   6.107   1.380
13144TIP3    H260848   3.978   5.985   1.433
13145TIP3   OH260849   5.267   6.837   0.383
13145TIP3    H160850   5.230   6.758   0.424
13145TIP3    H260851   5.362   6.822   0.385
13146TIP3   OH260852   4.043   7.237   1.278
13146TIP3    H160853   4.021   7.160   1.331
13146TIP3    H260854   3.966   7.293   1.285
13147TIP3   OH260855   4.424   7.114   0.227
13147TIP3    H160856   4.506   7.065   0.234
13147TIP3    H260857   4.438   7.192   0.280
13148TIP3   OH260858   4.099   6.767   0.307
13148TIP3    H160859   4.024   6.805   0.353
13148TIP3    H260860   4.131   6.838   0.251
13149TIP3   OH260861   4.894   6.018   1.326
13149TIP3    H160862   4.964   6.039   1.387
13149TIP3    H260863   4.859   5.934   1.358
13150TIP3   OH260864   4.981   5.945   0.463
13150TIP3    H160865   4.975   6.001   0.386
13150TIP3    H260866   5.028   5.998   0.527
13151TIP3   OH260867   4.738   7.188   0.294
13151TIP3    H160868   4.663   7.233   0.334
13151TIP3    H260869   4.781   7.256   0.242
13152TIP3   OH260870   4.663   6.193   0.512
13152TIP3    H160871   4.741   6.247   0.522
13152TIP3    H260872   4.650   6.153   0.598
13153TIP3   OH260873   4.768   6.270   1.391
13153TIP3    H160874   4.773   6.289   1.485
13153TIP3    H260875   4.801   6.181   1.383
13154TIP3   OH260876   4.746   5.848   0.574
13154TIP3    H160877   4.732   5.913   0.643
13154TIP3    H260878   4.832   5.871   0.537
13155TIP3   OH260879   4.512   0.021   0.382
13155TIP3    H160880   4.520   0.114   0.359
13155TIP3    H260881   4.498   0.022   0.477
13156TIP3   OH260882   4.345   6.000   0.274
13156TIP3    H160883   4.330   6.080   0.323
13156TIP3    H260884   4.429   5.967   0.306
13157TIP3   OH260885   5.339   6.052   1.505
13157TIP3    H160886   5.247   6.074   1.494
13157TIP3    H260887   5.363   6.010   1.422
13158TIP3   OH260888   5.215   6.427   0.892
13158TIP3    H160889   5.133   6.380   0.875
13158TIP3    H260890   5.264   6.369   0.950
13159TIP3   OH260891   4.193   6.982   0.149
13159TIP3    H160892   4.253   7.046   0.187
13159TIP3    H260893   4.249   6.923   0.099
13160TIP3   OH260894   4.033   6.296   0.103
13160TIP3    H160895   4.013   6.384   0.135
13160TIP3    H260896   3.989   6.290   0.019
13161TIP3   OH260897   4.093   5.769   0.936
13161TIP3    H160898   4.066   5.778   0.844
13161TIP3    H260899   4.037   5.700   0.970
13162TIP3   OH260900   3.885   7.167   0.502
13162TIP3    H160901   3.792   7.155   0.483
13162TIP3    H260902   3.913   7.237   0.444
13163TIP3   OH260903   4.394   7.255   1.832
13163TIP3    H160904   4.451   7.190   1.873
13163TIP3    H260905   4.346   7.207   1.765
13164TIP3   OH260906   4.850   0.068   0.118
13164TIP3    H160907   4.811   0.010   0.053
13164TIP3    H260908   4.941   0.078   0.089
13165TIP3   OH260909   5.031   7.102   1.729
13165TIP3    H160910   4.991   7.029   1.776
13165TIP3    H260911   5.104   7.129   1.783
13166TIP3   OH260912   5.256   7.220   0.084
13166TIP3    H160913   5.194   7.151   0.107
13166TIP3    H260914   5.342   7.177   0.083
13167TIP3   OH260915   3.890   6.813   1.789
13167TIP3    H160916   3.898   6.718   1.782
13167TIP3    H260917   3.816   6.835   1.732
13168TIP3   OH260918   4.392   6.821   0.042
13168TIP3    H160919   4.409   6.763   0.117
13168TIP3    H260920   4.377   6.761  -0.031
13169TIP3   OH260921   4.557   6.819   1.744
13169TIP3    H160922   4.536   6.862   1.661
13169TIP3    H260923   4.578   6.729   1.720
13170TIP3   OH260924   5.114   6.837   1.490
13170TIP3    H160925   5.205   6.865   1.478
13170TIP3    H260926   5.062   6.917   1.479
13171TIP3   OH260927   3.981   6.549   1.765
13171TIP3    H160928   4.067   6.526   1.731
13171TIP3    H260929   3.991   6.547   1.860
13172TIP3   OH260930   4.446   6.633   0.243
13172TIP3    H160931   4.378   6.598   0.300
13172TIP3    H260932   4.471   6.559   0.187
13173TIP3   OH260933   4.383   6.441   1.503
13173TIP3    H160934   4.305   6.496   1.496
13173TIP3    H260935   4.442   6.474   1.434
13174TIP3   OH260936   4.561   6.454   0.060
13174TIP3    H160937   4.567   6.455  -0.036
13174TIP3    H260938   4.652   6.448   0.090
13175TIP3   OH260939   4.887   6.670   1.780
13175TIP3    H160940   4.968   6.634   1.744
13175TIP3    H260941   4.857   6.605   1.843
13176TIP3   OH260942   5.470   6.758  16.013
13176TIP3    H160943   5.457   6.762  15.918
13176TIP3    H260944   5.489   6.848  16.039
13177TIP3   OH260945   4.425   6.178   1.572
13177TIP3    H160946   4.435   6.121   1.496
13177TIP3    H260947   4.414   6.266   1.535
13178TIP3   OH260948   4.461   6.022   1.336
13178TIP3    H160949   4.514   6.069   1.271
13178TIP3    H260950   4.374   6.017   1.298
13179TIP3   OH260951   4.573   6.544   1.338
13179TIP3    H160952   4.666   6.561   1.355
13179TIP3    H260953   4.542   6.623   1.295
13180TIP3   OH260954   5.026   6.330   1.824
13180TIP3    H160955   5.051   6.238   1.819
13180TIP3    H260956   5.108   6.376   1.844
13181TIP3   OH260957   5.164   6.623   1.651
13181TIP3    H160958   5.135   6.699   1.601
13181TIP3    H260959   5.259   6.627   1.647
13182TIP3   OH260960   4.254   6.236   1.789
13182TIP3    H160961   4.179   6.178   1.776
13182TIP3    H260962   4.306   6.227   1.709
13183TIP3   OH260963   4.516   5.754   1.400
13183TIP3    H160964   4.498   5.845   1.379
13183TIP3    H260965   4.448   5.704   1.355
13184TIP3   OH260966   4.647   6.146   1.738
13184TIP3    H160967   4.611   6.118   1.822
13184TIP3    H260968   4.572   6.149   1.679
13185TIP3   OH260969   4.912   6.084   1.666
13185TIP3    H160970   4.822   6.086   1.698
13185TIP3    H260971   4.959   6.032   1.731
13186TIP3   OH260972   5.091   5.970   1.848
13186TIP3    H160973   5.086   5.875   1.838
13186TIP3    H260974   5.063   5.985   1.939
13187TIP3   OH260975   4.058   6.035   1.767
13187TIP3    H160976   4.061   5.960   1.707
13187TIP3    H260977   4.072   5.997   1.853
13188TIP3   OH260978   4.506   5.673   1.663
13188TIP3    H160979   4.565   5.598   1.659
13188TIP3    H260980   4.502   5.706   1.573
13189TIP3   OH260981   4.586   5.836   1.871
13189TIP3    H160982   4.563   5.783   1.795
13189TIP3    H260983   4.524   5.908   1.869
13190TIP3   OH260984   3.916   6.938   0.107
13190TIP3    H160985   3.997   6.989   0.111
13190TIP3    H260986   3.848   7.002   0.087
13191TIP3   OH260987   5.389   6.928   1.890
13191TIP3    H160988   5.309   6.945   1.940
13191TIP3    H260989   5.445   7.004   1.906
13192TIP3   OH260990   5.532   6.770   0.421
13192TIP3    H160991   5.608   6.828   0.413
13192TIP3    H260992   5.554   6.712   0.494
13193TIP3   OH260993   5.597   6.585   0.613
13193TIP3    H160994   5.519   6.538   0.643
13193TIP3    H260995   5.652   6.593   0.691
13194TIP3   OH260996   5.581   6.871   1.115
13194TIP3    H160997   5.631   6.796   1.083
13194TIP3    H260998   5.629   6.948   1.083
13195TIP3   OH260999   5.327   7.164   1.308
13195TIP3    H161000   5.234   7.164   1.328
13195TIP3    H261001   5.331   7.144   1.214
13196TIP3   OH261002   5.588   6.594   0.217
13196TIP3    H161003   5.536   6.633   0.147
13196TIP3    H261004   5.570   6.648   0.293
13197TIP3   OH261005   5.397   6.250   0.118
13197TIP3    H161006   5.459   6.265   0.046
13197TIP3    H261007   5.359   6.164   0.100
13198TIP3   OH261008   5.357   6.445   0.653
13198TIP3    H161009   5.355   6.356   0.616
13198TIP3    H261010   5.317   6.435   0.739
13199TIP3   OH261011   3.832   6.622   1.072
13199TIP3    H161012   3.843   6.611   0.977
13199TIP3    H261013   3.919   6.605   1.108
13200TIP3   OH261014   5.440   6.634   1.636
13200TIP3    H161015   5.499   6.561   1.618
13200TIP3    H261016   5.492   6.712   1.615
13201TIP3   OH261017   5.582   6.400   1.617
13201TIP3    H161018   5.494   6.363   1.632
13201TIP3    H261019   5.641   6.328   1.639
13202TIP3   OH261020   5.343   6.217   0.477
13202TIP3    H161021   5.357   6.123   0.487
13202TIP3    H261022   5.421   6.249   0.433
13203TIP3   OH261023   5.372   6.255   1.046
13203TIP3    H161024   5.465   6.263   1.027
13203TIP3    H261025   5.366   6.267   1.141
13204TIP3   OH261026   5.396   6.327   1.318
13204TIP3    H161027   5.315   6.358   1.360
13204TIP3    H261028   5.448   6.407   1.305
13205TIP3   OH261029   3.824   6.165   1.701
13205TIP3    H161030   3.910   6.129   1.722
13205TIP3    H261031   3.770   6.088   1.682
13206TIP3   OH261032   5.635   5.738   1.836
13206TIP3    H161033   5.701   5.680   1.796
13206TIP3    H261034   5.623   5.808   1.771
13207TIP3   OH261035   5.342   5.950   0.518
13207TIP3    H161036   5.381   5.908   0.595
13207TIP3    H261037   5.306   5.878   0.466
13208TIP3   OH261038   3.912   6.023   0.909
13208TIP3    H161039   3.859   5.948   0.938
13208TIP3    H261040   3.998   6.009   0.949
13209TIP3   OH261041   3.747   6.290   1.039
13209TIP3    H161042   3.815   6.265   0.976
13209TIP3    H261043   3.781   6.369   1.080
13210TIP3   OH261044   5.555   5.929   1.661
13210TIP3    H161045   5.479   5.971   1.701
13210TIP3    H261046   5.522   5.890   1.580
13211TIP3   OH261047   5.568   5.946   0.156
13211TIP3    H161048   5.629   5.893   0.104
13211TIP3    H261049   5.624   6.009   0.201
13212TIP3   OH261050   3.792   5.897   0.405
13212TIP3    H161051   3.703   5.915   0.433
13212TIP3    H261052   3.825   5.983   0.377
13213TIP3   OH261053   3.828   5.783   1.291
13213TIP3    H161054   3.746   5.815   1.330
13213TIP3    H261055   3.812   5.787   1.196
13214TIP3   OH261056   4.017   7.164   1.716
13214TIP3    H161057   3.925   7.155   1.691
13214TIP3    H261058   4.017   7.152   1.811
13215TIP3   OH261059   4.314   7.251   1.303
13215TIP3    H161060   4.219   7.256   1.291
13215TIP3    H261061   4.349   7.277   1.217
13216TIP3   OH261062   5.463   5.736   1.464
13216TIP3    H161063   5.396   5.760   1.401
13216TIP3    H261064   5.485   5.645   1.443
13217TIP3   OH261065   4.229   7.211   0.839
13217TIP3    H161066   4.199   7.136   0.892
13217TIP3    H261067   4.267   7.271   0.903
13218TIP3   OH261068   4.790   5.870   0.886
13218TIP3    H161069   4.735   5.797   0.917
13218TIP3    H261070   4.870   5.828   0.856
13219TIP3   OH261071   5.285   5.737   0.947
13219TIP3    H161072   5.343   5.786   0.890
13219TIP3    H261073   5.197   5.753   0.912
13220TIP3   OH261074   5.448   5.841   0.754
13220TIP3    H161075   5.511   5.769   0.744
13220TIP3    H261076   5.503   5.919   0.765
13221TIP3   OH261077   4.038   5.748   0.662
13221TIP3    H161078   3.947   5.727   0.638
13221TIP3    H261079   4.083   5.664   0.660
13222TIP3   OH261080   3.928   5.717   0.245
13222TIP3    H161081   4.000   5.769   0.211
13222TIP3    H261082   3.881   5.776   0.303
13223TIP3   OH261083   4.527   5.704   0.682
13223TIP3    H161084   4.596   5.756   0.643
13223TIP3    H261085   4.542   5.710   0.777
13224TIP3   OH261086   5.033   5.745   0.816
13224TIP3    H161087   5.086   5.721   0.740
13224TIP3    H261088   5.003   5.661   0.852
13225TIP3   OH261089   5.187   5.763   0.381
13225TIP3    H161090   5.111   5.815   0.406
13225TIP3    H261091   5.161   5.672   0.400
13226TIP3   OH261092   4.141   5.860   0.137
13226TIP3    H161093   4.176   5.876   0.049
13226TIP3    H261094   4.201   5.904   0.196
13227TIP3   OH261095   4.606   5.970   0.360
13227TIP3    H161096   4.640   5.902   0.418
13227TIP3    H261097   4.624   6.052   0.406
13228TIP3   OH261098   4.053   5.786   1.623
13228TIP3    H161099   3.993   5.719   1.656
13228TIP3    H261100   4.135   5.771   1.672
13229TIP3   OH261101   4.258   5.724   1.798
13229TIP3    H161102   4.343   5.702   1.761
13229TIP3    H261103   4.229   5.643   1.841
13230TIP3   OH261104   5.107   5.695   1.808
13230TIP3    H161105   5.095   5.645   1.889
13230TIP3    H261106   5.199   5.681   1.786
13231TIP3   OH261107   5.401  -0.025   1.678
13231TIP3    H161108   5.306  -0.030   1.682
13231TIP3    H261109   5.419   0.063   1.643
13232TIP3   OH261110   6.845   6.692   0.653
13232TIP3    H161111   6.836   6.786   0.642
13232TIP3    H261112   6.779   6.655   0.594
13233TIP3   OH261113   6.706   6.601   1.033
13233TIP3    H161114   6.729   6.561   1.116
13233TIP3    H261115   6.662   6.532   0.984
13234TIP3   OH261116   5.949   6.541   1.180
13234TIP3    H161117   5.958   6.469   1.243
13234TIP3    H261118   6.039   6.562   1.155
13235TIP3   OH261119   7.105   6.904   0.883
13235TIP3    H161120   7.059   6.834   0.930
13235TIP3    H261121   7.128   6.967   0.951
13236TIP3   OH261122   6.056   6.985   0.972
13236TIP3    H161123   6.034   6.896   0.947
13236TIP3    H261124   6.149   6.982   0.995
13237TIP3   OH261125   5.747   6.362   0.524
13237TIP3    H161126   5.708   6.443   0.557
13237TIP3    H261127   5.682   6.327   0.463
13238TIP3   OH261128   5.792   6.586   0.815
13238TIP3    H161129   5.821   6.496   0.831
13238TIP3    H261130   5.871   6.639   0.826
13239TIP3   OH261131   6.564   6.848   1.065
13239TIP3    H161132   6.599   6.767   1.028
13239TIP3    H261133   6.635   6.882   1.119
13240TIP3   OH261134   6.893   6.264   1.065
13240TIP3    H161135   6.900   6.170   1.084
13240TIP3    H261136   6.868   6.267   0.972
13241TIP3   OH261137   6.240   6.080   0.799
13241TIP3    H161138   6.241   6.166   0.757
13241TIP3    H261139   6.188   6.025   0.740
13242TIP3   OH261140   6.987   6.109   0.638
13242TIP3    H161141   7.027   6.065   0.713
13242TIP3    H261142   7.061   6.134   0.583
13243TIP3   OH261143   5.873   6.329   0.879
13243TIP3    H161144   5.937   6.287   0.936
13243TIP3    H261145   5.890   6.293   0.792
13244TIP3   OH261146   6.349   6.478   0.851
13244TIP3    H161147   6.434   6.440   0.876
13244TIP3    H261148   6.310   6.413   0.792
13245TIP3   OH261149   6.096   5.997   1.219
13245TIP3    H161150   6.072   6.055   1.146
13245TIP3    H261151   6.025   6.007   1.282
13246TIP3   OH261152   6.827   6.947   0.546
13246TIP3    H161153   6.810   6.947   0.451
13246TIP3    H261154   6.785   7.027   0.577
13247TIP3   OH261155   6.351   6.759   1.215
13247TIP3    H161156   6.299   6.831   1.252
13247TIP3    H261157   6.422   6.803   1.168
13248TIP3   OH261158   7.077   6.013   0.878
13248TIP3    H161159   7.004   5.990   0.935
13248TIP3    H261160   7.140   6.056   0.936
13249TIP3   OH261161   6.067   6.165   1.000
13249TIP3    H161162   6.123   6.222   1.053
13249TIP3    H261163   6.126   6.128   0.934
13250TIP3   OH261164   6.199   6.964   1.321
13250TIP3    H161165   6.213   7.058   1.306
13250TIP3    H261166   6.108   6.957   1.350
13251TIP3   OH261167   5.750   6.927   0.369
13251TIP3    H161168   5.756   6.955   0.278
13251TIP3    H261169   5.783   7.001   0.420
13252TIP3   OH261170   7.149   7.130   1.060
13252TIP3    H161171   7.066   7.118   1.106
13252TIP3    H261172   7.133   7.204   1.000
13253TIP3   OH261173   7.133   5.884   1.161
13253TIP3    H161174   7.041   5.905   1.141
13253TIP3    H261175   7.180   5.966   1.145
13254TIP3   OH261176   6.447   5.689   0.969
13254TIP3    H161177   6.423   5.596   0.972
13254TIP3    H261178   6.368   5.734   0.998
13255TIP3   OH261179   7.002   7.247   0.718
13255TIP3    H161180   7.031   7.167   0.675
13255TIP3    H261181   7.072   7.269   0.779
13256TIP3   OH261182   7.090   7.006   0.626
13256TIP3    H161183   7.009   6.968   0.592
13256TIP3    H261184   7.106   6.958   0.708
13257TIP3   OH261185   7.235   6.885   1.457
13257TIP3    H161186   7.227   6.840   1.373
13257TIP3    H261187   7.251   6.976   1.434
13258TIP3   OH261188   6.713   6.604   0.421
13258TIP3    H161189   6.646   6.668   0.396
13258TIP3    H261190   6.781   6.614   0.355
13259TIP3   OH261191   6.715   6.453   0.110
13259TIP3    H161192   6.770   6.463   0.188
13259TIP3    H261193   6.776   6.464   0.037
13260TIP3   OH261194   7.066   6.615   0.511
13260TIP3    H161195   6.997   6.645   0.570
13260TIP3    H261196   7.115   6.550   0.561
13261TIP3   OH261197   7.002   6.466   1.408
13261TIP3    H161198   7.002   6.556   1.439
13261TIP3    H261199   6.925   6.460   1.351
13262TIP3   OH261200   6.223   6.672   0.695
13262TIP3    H161201   6.203   6.631   0.612
13262TIP3    H261202   6.276   6.608   0.742
13263TIP3   OH261203   6.337   6.993   0.967
13263TIP3    H161204   6.357   7.014   0.876
13263TIP3    H261205   6.417   6.953   1.001
13264TIP3   OH261206   6.207   6.577   1.069
13264TIP3    H161207   6.263   6.552   0.995
13264TIP3    H261208   6.260   6.641   1.118
13265TIP3   OH261209   6.916   7.104   1.195
13265TIP3    H161210   6.918   7.117   1.290
13265TIP3    H261211   6.862   7.027   1.182
13266TIP3   OH261212   6.347   6.976   1.559
13266TIP3    H161213   6.292   7.047   1.594
13266TIP3    H261214   6.303   6.950   1.478
13267TIP3   OH261215   6.952   6.552   0.270
13267TIP3    H161216   6.993   6.580   0.353
13267TIP3    H261217   7.007   6.592   0.202
13268TIP3   OH261218   6.032   6.588   1.512
13268TIP3    H161219   6.042   6.674   1.554
13268TIP3    H261220   5.943   6.587   1.479
13269TIP3   OH261221   6.743   7.201   0.619
13269TIP3    H161222   6.829   7.222   0.655
13269TIP3    H261223   6.706   7.286   0.593
13270TIP3   OH261224   6.156   7.170   1.581
13270TIP3    H161225   6.138   7.208   1.495
13270TIP3    H261226   6.073   7.176   1.628
13271TIP3   OH261227   6.144   6.579   0.439
13271TIP3    H161228   6.085   6.647   0.407
13271TIP3    H261229   6.091   6.499   0.442
13272TIP3   OH261230   5.724   6.833   1.365
13272TIP3    H161231   5.676   6.838   1.282
13272TIP3    H261232   5.743   6.740   1.376
13273TIP3   OH261233   5.770   7.064   1.039
13273TIP3    H161234   5.855   7.030   1.010
13273TIP3    H261235   5.791   7.127   1.107
13274TIP3   OH261236   6.571   7.086   1.438
13274TIP3    H161237   6.624   7.145   1.491
13274TIP3    H261238   6.497   7.064   1.495
13275TIP3   OH261239   7.178   6.377   1.652
13275TIP3    H161240   7.173   6.365   1.557
13275TIP3    H261241   7.254   6.325   1.679
13276TIP3   OH261242   5.944   6.990   1.421
13276TIP3    H161243   5.967   6.965   1.511
13276TIP3    H261244   5.866   6.939   1.401
13277TIP3   OH261245   6.200   5.796   1.053
13277TIP3    H161246   6.124   5.787   0.996
13277TIP3    H261247   6.178   5.869   1.111
13278TIP3   OH261248   6.683   5.770   1.400
13278TIP3    H161249   6.731   5.721   1.465
13278TIP3    H261250   6.591   5.759   1.423
13279TIP3   OH261251   6.993   6.166   1.478
13279TIP3    H161252   6.928   6.147   1.546
13279TIP3    H261253   6.986   6.260   1.464
13280TIP3   OH261254   7.106   6.660   0.068
13280TIP3    H161255   7.125   6.674  -0.024
13280TIP3    H261256   7.131   6.742   0.111
13281TIP3   OH261257   6.668   5.985   0.127
13281TIP3    H161258   6.599   5.983   0.193
13281TIP3    H261259   6.621   5.994   0.044
13282TIP3   OH261260   6.217   6.320   1.173
13282TIP3    H161261   6.154   6.319   1.245
13282TIP3    H261262   6.219   6.411   1.143
13283TIP3   OH261263   6.212   6.319   0.669
13283TIP3    H161264   6.118   6.301   0.665
13283TIP3    H261265   6.244   6.302   0.580
13284TIP3   OH261266   6.759   6.359   0.538
13284TIP3    H161267   6.738   6.445   0.503
13284TIP3    H261268   6.830   6.326   0.482
13285TIP3   OH261269   6.684   6.362   1.654
13285TIP3    H161270   6.635   6.290   1.694
13285TIP3    H261271   6.768   6.363   1.699
13286TIP3   OH261272   6.843   6.289   0.799
13286TIP3    H161273   6.807   6.347   0.732
13286TIP3    H261274   6.889   6.221   0.750
13287TIP3   OH261275   6.002   6.320   1.347
13287TIP3    H161276   6.024   6.357   1.432
13287TIP3    H261277   5.961   6.236   1.367
13288TIP3   OH261278   6.373   6.091   0.048
13288TIP3    H161279   6.340   6.055   0.130
13288TIP3    H261280   6.353   6.184   0.052
13289TIP3   OH261281   5.627   6.047   0.769
13289TIP3    H161282   5.699   6.044   0.832
13289TIP3    H261283   5.669   6.045   0.683
13290TIP3   OH261284   5.751   6.135   0.260
13290TIP3    H161285   5.820   6.175   0.207
13290TIP3    H261286   5.691   6.207   0.279
13291TIP3   OH261287   6.782   6.438   1.244
13291TIP3    H161288   6.822   6.377   1.182
13291TIP3    H261289   6.722   6.384   1.295
13292TIP3   OH261290   6.518   6.040   0.752
13292TIP3    H161291   6.428   6.048   0.783
13292TIP3    H261292   6.566   6.004   0.827
13293TIP3   OH261293   5.956   6.225   0.639
13293TIP3    H161294   5.881   6.257   0.588
13293TIP3    H261295   5.965   6.133   0.614
13294TIP3   OH261296   6.288   6.248   0.416
13294TIP3    H161297   6.383   6.245   0.428
13294TIP3    H261298   6.276   6.285   0.329
13295TIP3   OH261299   6.877   5.983   1.078
13295TIP3    H161300   6.842   5.994   1.167
13295TIP3    H261301   6.804   5.949   1.027
13296TIP3   OH261302   6.219   6.319   0.160
13296TIP3    H161303   6.131   6.315   0.122
13296TIP3    H261304   6.269   6.375   0.100
13297TIP3   OH261305   6.019   6.823   1.665
13297TIP3    H161306   6.088   6.824   1.731
13297TIP3    H261307   5.938   6.835   1.714
13298TIP3   OH261308   6.583   6.357   0.945
13298TIP3    H161309   6.655   6.308   0.905
13298TIP3    H261310   6.555   6.301   1.019
13299TIP3   OH261311   6.081   5.962   0.605
13299TIP3    H161312   6.025   5.888   0.630
13299TIP3    H261313   6.111   5.941   0.517
13300TIP3   OH261314   6.478   6.221   1.172
13300TIP3    H161315   6.393   6.265   1.180
13300TIP3    H261316   6.526   6.247   1.251
13301TIP3   OH261317   6.526   6.800   0.349
13301TIP3    H161318   6.457   6.754   0.301
13301TIP3    H261319   6.485   6.827   0.431
13302TIP3   OH261320   7.211   6.765   1.206
13302TIP3    H161321   7.268   6.727   1.139
13302TIP3    H261322   7.123   6.753   1.171
13303TIP3   OH261323   6.921   6.054   0.200
13303TIP3    H161324   6.831   6.041   0.172
13303TIP3    H261325   6.922   6.143   0.237
13304TIP3   OH261326   6.681   6.826   1.472
13304TIP3    H161327   6.686   6.810   1.567
13304TIP3    H261328   6.647   6.915   1.465
13305TIP3   OH261329   6.961   6.285   0.355
13305TIP3    H161330   7.045   6.261   0.394
13305TIP3    H261331   6.974   6.373   0.321
13306TIP3   OH261332   6.032   6.716   0.891
13306TIP3    H161333   6.094   6.714   0.818
13306TIP3    H261334   6.076   6.667   0.961
13307TIP3   OH261335   6.751   6.945   0.269
13307TIP3    H161336   6.715   7.033   0.270
13307TIP3    H261337   6.677   6.888   0.290
13308TIP3   OH261338   5.754   6.571   1.461
13308TIP3    H161339   5.738   6.531   1.547
13308TIP3    H261340   5.683   6.540   1.406
13309TIP3   OH261341   6.472   6.543   1.682
13309TIP3    H161342   6.413   6.509   1.615
13309TIP3    H261343   6.556   6.499   1.665
13310TIP3   OH261344   6.912   7.056   1.475
13310TIP3    H161345   6.856   7.130   1.499
13310TIP3    H261346   6.957   7.033   1.556
13311TIP3   OH261347   6.984   6.696   1.039
13311TIP3    H161348   6.890   6.687   1.024
13311TIP3    H261349   7.023   6.622   0.994
13312TIP3   OH261350   6.306   7.099   0.698
13312TIP3    H161351   6.353   7.179   0.673
13312TIP3    H261352   6.220   7.129   0.726
13313TIP3   OH261353   5.859   6.589   0.146
13313TIP3    H161354   5.902   6.638   0.215
13313TIP3    H261355   5.767   6.583   0.173
13314TIP3   OH261356   6.379   6.867   0.569
13314TIP3    H161357   6.361   6.951   0.611
13314TIP3    H261358   6.328   6.803   0.619
13315TIP3   OH261359   6.493   7.237   1.211
13315TIP3    H161360   6.549   7.311   1.237
13315TIP3    H261361   6.520   7.165   1.268
13316TIP3   OH261362   6.792   6.859   1.222
13316TIP3    H161363   6.757   6.848   1.311
13316TIP3    H261364   6.865   6.797   1.217
13317TIP3   OH261365   7.016   6.968   0.148
13317TIP3    H161366   7.072   6.926   0.213
13317TIP3    H261367   6.928   6.961   0.183
13318TIP3   OH261368   5.887   6.063   1.391
13318TIP3    H161369   5.796   6.088   1.373
13318TIP3    H261370   5.880   5.993   1.455
13319TIP3   OH261371   7.159   6.812   0.327
13319TIP3    H161372   7.131   6.756   0.399
13319TIP3    H261373   7.243   6.848   0.356
13320TIP3   OH261374   5.880   7.238   1.225
13320TIP3    H161375   5.906   7.180   1.296
13320TIP3    H261376   5.822   7.302   1.266
13321TIP3   OH261377   6.312   7.085   0.254
13321TIP3    H161378   6.382   7.026   0.283
13321TIP3    H261379   6.338   7.171   0.288
13322TIP3   OH261380   5.973   6.767   0.325
13322TIP3    H161381   5.896   6.807   0.365
13322TIP3    H261382   6.019   6.840   0.283
13323TIP3   OH261383   6.788   6.017   1.334
13323TIP3    H161384   6.857   6.038   1.397
13323TIP3    H261385   6.751   5.934   1.365
13324TIP3   OH261386   6.846   5.958   0.456
13324TIP3    H161387   6.871   5.993   0.370
13324TIP3    H261388   6.887   6.017   0.519
13325TIP3   OH261389   6.631   7.189   0.279
13325TIP3    H161390   6.555   7.235   0.316
13325TIP3    H261391   6.678   7.256   0.230
13326TIP3   OH261392   6.545   6.189   0.516
13326TIP3    H161393   6.619   6.249   0.525
13326TIP3    H261394   6.536   6.150   0.603
13327TIP3   OH261395   6.641   6.258   1.395
13327TIP3    H161396   6.653   6.288   1.485
13327TIP3    H261397   6.684   6.172   1.393
13328TIP3   OH261398   6.624   5.850   0.576
13328TIP3    H161399   6.597   5.919   0.636
13328TIP3    H261400   6.705   5.883   0.537
13329TIP3   OH261401   6.401   0.020   0.371
13329TIP3    H161402   6.416   0.113   0.352
13329TIP3    H261403   6.383   0.017   0.465
13330TIP3   OH261404   6.235   6.001   0.291
13330TIP3    H161405   6.225   6.085   0.338
13330TIP3    H261406   6.322   5.970   0.316
13331TIP3   OH261407   7.231   6.017   1.459
13331TIP3    H161408   7.140   6.046   1.474
13331TIP3    H261409   7.277   6.097   1.433
13332TIP3   OH261410   7.078   6.457   0.926
13332TIP3    H161411   6.998   6.405   0.921
13332TIP3    H261412   7.131   6.413   0.992
13333TIP3   OH261413   6.063   6.992   0.179
13333TIP3    H161414   6.132   7.045   0.220
13333TIP3    H261415   6.110   6.937   0.115
13334TIP3   OH261416   5.908   6.315   0.092
13334TIP3    H161417   5.893   6.409   0.105
13334TIP3    H261418   5.884   6.301  -0.000
13335TIP3   OH261419   5.951   5.770   0.931
13335TIP3    H161420   5.941   5.762   0.836
13335TIP3    H261421   5.915   5.689   0.966
13336TIP3   OH261422   5.838   7.155   0.492
13336TIP3    H161423   5.766   7.217   0.504
13336TIP3    H261424   5.917   7.206   0.512
13337TIP3   OH261425   6.288   7.256   1.871
13337TIP3    H161426   6.335   7.181   1.909
13337TIP3    H261427   6.340   7.280   1.794
13338TIP3   OH261428   6.770   0.059   0.107
13338TIP3    H161429   6.727   0.005   0.041
13338TIP3    H261430   6.863   0.036   0.100
13339TIP3   OH261431   7.003   7.011   1.727
13339TIP3    H161432   6.925   6.989   1.778
13339TIP3    H261433   7.055   7.066   1.787
13340TIP3   OH261434   7.039   7.250   0.094
13340TIP3    H161435   7.041   7.155   0.107
13340TIP3    H261436   7.103   7.266   0.025
13341TIP3   OH261437   5.771   6.816   1.794
13341TIP3    H161438   5.778   6.721   1.787
13341TIP3    H261439   5.698   6.838   1.736
13342TIP3   OH261440   6.212   6.811   0.035
13342TIP3    H161441   6.251   6.768   0.111
13342TIP3    H261442   6.238   6.756  -0.039
13343TIP3   OH261443   6.442   6.814   1.758
13343TIP3    H161444   6.420   6.862   1.679
13343TIP3    H261445   6.467   6.726   1.727
13344TIP3   OH261446   6.994   6.753   1.486
13344TIP3    H161447   7.074   6.805   1.487
13344TIP3    H261448   6.923   6.818   1.485
13345TIP3   OH261449   5.852   6.545   1.761
13345TIP3    H161450   5.939   6.541   1.721
13345TIP3    H261451   5.869   6.548   1.855
13346TIP3   OH261452   6.324   6.651   0.230
13346TIP3    H161453   6.273   6.613   0.302
13346TIP3    H261454   6.360   6.576   0.183
13347TIP3   OH261455   6.259   6.427   1.484
13347TIP3    H161456   6.190   6.492   1.492
13347TIP3    H261457   6.325   6.469   1.429
13348TIP3   OH261458   6.443   6.459   0.059
13348TIP3    H161459   6.447   6.455  -0.037
13348TIP3    H261460   6.535   6.453   0.086
13349TIP3   OH261461   6.767   6.669   1.796
13349TIP3    H161462   6.856   6.646   1.768
13349TIP3    H261463   6.743   6.600   1.858
13350TIP3   OH261464   6.311   6.173   1.572
13350TIP3    H161465   6.324   6.115   1.498
13350TIP3    H261466   6.299   6.260   1.533
13351TIP3   OH261467   6.345   6.019   1.335
13351TIP3    H161468   6.399   6.067   1.272
13351TIP3    H261469   6.259   6.015   1.294
13352TIP3   OH261470   6.463   6.553   1.356
13352TIP3    H161471   6.554   6.577   1.373
13352TIP3    H261472   6.428   6.628   1.308
13353TIP3   OH261473   6.920   6.321   1.809
13353TIP3    H161474   6.945   6.230   1.823
13353TIP3    H261475   6.999   6.363   1.776
13354TIP3   OH261476   7.030   6.606   1.715
13354TIP3    H161477   7.020   6.662   1.638
13354TIP3    H261478   7.087   6.535   1.687
13355TIP3   OH261479   6.142   6.235   1.788
13355TIP3    H161480   6.062   6.184   1.773
13355TIP3    H261481   6.192   6.225   1.707
13356TIP3   OH261482   6.401   5.752   1.399
13356TIP3    H161483   6.382   5.844   1.379
13356TIP3    H261484   6.332   5.703   1.355
13357TIP3   OH261485   6.539   6.144   1.735
13357TIP3    H161486   6.510   6.117   1.822
13357TIP3    H261487   6.460   6.147   1.682
13358TIP3   OH261488   6.798   6.074   1.645
13358TIP3    H161489   6.709   6.084   1.680
13358TIP3    H261490   6.846   6.029   1.714
13359TIP3   OH261491   6.962   5.967   1.843
13359TIP3    H161492   6.956   5.871   1.838
13359TIP3    H261493   6.936   5.987   1.933
13360TIP3   OH261494   5.937   6.039   1.759
13360TIP3    H161495   5.941   5.960   1.705
13360TIP3    H261496   5.953   6.008   1.848
13361TIP3   OH261497   6.391   5.672   1.661
13361TIP3    H161498   6.448   5.596   1.658
13361TIP3    H261499   6.388   5.704   1.571
13362TIP3   OH261500   6.467   5.831   1.873
13362TIP3    H161501   6.446   5.779   1.795
13362TIP3    H261502   6.406   5.905   1.869
13363TIP3   OH261503   5.791   6.999   0.102
13363TIP3    H161504   5.880   7.021   0.129
13363TIP3    H261505   5.802   6.953   0.019
13364TIP3   OH261506   7.282   7.123   1.319
13364TIP3    H161507   7.292   7.218   1.330
13364TIP3    H261508   7.230   7.114   1.239
13365TIP3   OH261509   7.179   6.413   0.671
13365TIP3    H161510   7.204   6.324   0.695
13365TIP3    H261511   7.149   6.452   0.753
13366TIP3   OH261512   5.718   6.637   1.075
13366TIP3    H161513   5.730   6.621   0.981
13366TIP3    H261514   5.802   6.612   1.114
13367TIP3   OH261515   7.203   6.180   0.468
13367TIP3    H161516   7.258   6.159   0.543
13367TIP3    H261517   7.262   6.175   0.393
13368TIP3   OH261518   7.254   6.115   1.064
13368TIP3    H161519   7.338   6.086   1.028
13368TIP3    H261520   7.267   6.208   1.082
13369TIP3   OH261521   7.257   6.366   1.362
13369TIP3    H161522   7.166   6.398   1.359
13369TIP3    H261523   7.284   6.364   1.270
13370TIP3   OH261524   5.710   6.157   1.650
13370TIP3    H161525   5.794   6.133   1.689
13370TIP3    H261526   5.655   6.079   1.661
13371TIP3   OH261527   7.246   5.887   0.586
13371TIP3    H161528   7.289   5.804   0.606
13371TIP3    H261529   7.169   5.861   0.534
13372TIP3   OH261530   5.821   6.015   0.970
13372TIP3    H161531   5.858   5.927   0.962
13372TIP3    H261532   5.897   6.072   0.982
13373TIP3   OH261533   5.642   6.304   1.040
13373TIP3    H161534   5.708   6.299   0.971
13373TIP3    H261535   5.684   6.358   1.108
13374TIP3   OH261536   5.735   6.011   0.514
13374TIP3    H161537   5.718   5.919   0.497
13374TIP3    H261538   5.746   6.050   0.427
13375TIP3   OH261539   5.689   5.781   1.294
13375TIP3    H161540   5.619   5.772   1.359
13375TIP3    H261541   5.657   5.847   1.232
13376TIP3   OH261542   5.908   7.181   1.705
13376TIP3    H161543   5.815   7.168   1.686
13376TIP3    H261544   5.914   7.178   1.800
13377TIP3   OH261545   6.226   7.243   1.290
13377TIP3    H161546   6.183   7.290   1.218
13377TIP3    H261547   6.317   7.236   1.262
13378TIP3   OH261548   6.102   7.230   0.860
13378TIP3    H161549   6.079   7.144   0.895
13378TIP3    H261550   6.182   7.254   0.907
13379TIP3   OH261551   6.670   5.873   0.921
13379TIP3    H161552   6.605   5.805   0.938
13379TIP3    H261553   6.743   5.828   0.880
13380TIP3   OH261554   7.168   5.717   0.886
13380TIP3    H161555   7.212   5.801   0.904
13380TIP3    H261556   7.075   5.740   0.878
13381TIP3   OH261557   5.935   5.733   0.657
13381TIP3    H161558   5.863   5.735   0.595
13381TIP3    H261559   5.970   5.644   0.651
13382TIP3   OH261560   5.797   5.755   0.137
13382TIP3    H161561   5.868   5.819   0.144
13382TIP3    H261562   5.767   5.743   0.227
13383TIP3   OH261563   6.412   5.699   0.685
13383TIP3    H161564   6.480   5.754   0.647
13383TIP3    H261565   6.425   5.705   0.779
13384TIP3   OH261566   6.894   5.743   0.819
13384TIP3    H161567   6.907   5.723   0.727
13384TIP3    H261568   6.867   5.659   0.858
13385TIP3   OH261569   7.050   5.773   0.436
13385TIP3    H161570   6.971   5.826   0.432
13385TIP3    H261571   7.020   5.683   0.425
13386TIP3   OH261572   6.053   5.877   0.122
13386TIP3    H161573   6.087   5.788   0.122
13386TIP3    H261574   6.106   5.923   0.187
13387TIP3   OH261575   6.501   5.974   0.352
13387TIP3    H161576   6.532   5.904   0.411
13387TIP3    H261577   6.519   6.055   0.399
13388TIP3   OH261578   5.939   5.790   1.620
13388TIP3    H161579   5.882   5.719   1.649
13388TIP3    H261580   6.022   5.775   1.665
13389TIP3   OH261581   6.144   5.722   1.794
13389TIP3    H161582   6.229   5.701   1.756
13389TIP3    H261583   6.117   5.642   1.840
13390TIP3   OH261584   6.972   5.690   1.817
13390TIP3    H161585   6.965   5.637   1.896
13390TIP3    H261586   7.064   5.680   1.790
13391TIP3   OH261587   7.314   0.017   1.662
13391TIP3    H161588   7.260  -0.055   1.630
13391TIP3    H261589   7.253   0.075   1.706
13392TIP3   OH261590   1.190   1.027   2.534
13392TIP3    H161591   1.177   1.122   2.529
13392TIP3    H261592   1.117   0.991   2.484
13393TIP3   OH261593   1.071   0.944   2.932
13393TIP3    H161594   1.099   0.906   3.016
13393TIP3    H261595   1.025   0.873   2.888
13394TIP3   OH261596   0.295   0.889   3.073
13394TIP3    H161597   0.298   0.807   3.123
13394TIP3    H261598   0.365   0.942   3.111
13395TIP3   OH261599   1.456   1.254   2.758
13395TIP3    H161600   1.420   1.179   2.806
13395TIP3    H261601   1.478   1.317   2.826
13396TIP3   OH261602   0.410   1.342   2.867
13396TIP3    H161603   0.387   1.252   2.844
13396TIP3    H261604   0.502   1.338   2.893
13397TIP3   OH261605   0.130   0.758   2.421
13397TIP3    H161606   0.163   0.823   2.482
13397TIP3    H261607   0.035   0.758   2.435
13398TIP3   OH261608   0.209   0.913   2.633
13398TIP3    H161609   0.201   0.843   2.698
13398TIP3    H261610   0.265   0.978   2.675
13399TIP3   OH261611   1.186   1.730   2.796
13399TIP3    H161612   1.220   1.675   2.726
13399TIP3    H261613   1.167   1.670   2.868
13400TIP3   OH261614   0.920   1.196   2.949
13400TIP3    H161615   0.959   1.116   2.914
13400TIP3    H261616   0.988   1.231   3.008
13401TIP3   OH261617   1.823   0.335   3.039
13401TIP3    H161618   1.832   0.396   3.113
13401TIP3    H261619   1.882   0.369   2.972
13402TIP3   OH261620   1.236   0.612   2.957
13402TIP3    H161621   1.260   0.521   2.974
13402TIP3    H261622   1.213   0.615   2.864
13403TIP3   OH261623   0.561   0.430   2.689
13403TIP3    H161624   0.571   0.514   2.646
13403TIP3    H261625   0.509   0.377   2.628
13404TIP3   OH261626   1.360   0.452   2.530
13404TIP3    H161627   1.406   0.426   2.610
13404TIP3    H261628   1.426   0.497   2.478
13405TIP3   OH261629   0.221   0.679   2.785
13405TIP3    H161630   0.289   0.642   2.840
13405TIP3    H261631   0.238   0.643   2.698
13406TIP3   OH261632   0.715   0.827   2.723
13406TIP3    H161633   0.796   0.789   2.756
13406TIP3    H261634   0.677   0.759   2.667
13407TIP3   OH261635   1.838   0.496   3.263
13407TIP3    H161636   1.765   0.555   3.247
13407TIP3    H261637   1.856   0.505   3.356
13408TIP3   OH261638   0.430   0.335   3.120
13408TIP3    H161639   0.407   0.397   3.051
13408TIP3    H261640   0.361   0.346   3.186
13409TIP3   OH261641   1.125   1.278   2.439
13409TIP3    H161642   1.127   1.286   2.344
13409TIP3    H261643   1.093   1.363   2.470
13410TIP3   OH261644   0.701   1.112   3.095
13410TIP3    H161645   0.649   1.184   3.131
13410TIP3    H261646   0.773   1.155   3.049
13411TIP3   OH261647   1.476   0.397   2.771
13411TIP3    H161648   1.412   0.378   2.840
13411TIP3    H261649   1.537   0.459   2.811
13412TIP3   OH261650   0.413   0.510   2.904
13412TIP3    H161651   0.468   0.569   2.955
13412TIP3    H261652   0.470   0.477   2.835
13413TIP3   OH261653   0.549   1.319   3.199
13413TIP3    H161654   0.558   1.414   3.190
13413TIP3    H261655   0.460   1.307   3.232
13414TIP3   OH261656   0.120   1.292   2.264
13414TIP3    H161657   0.114   1.342   2.183
13414TIP3    H261658   0.147   1.357   2.330
13415TIP3   OH261659   1.488   1.456   2.958
13415TIP3    H161660   1.393   1.462   2.970
13415TIP3    H261661   1.514   1.546   2.936
13416TIP3   OH261662   1.561   0.278   3.123
13416TIP3    H161663   1.488   0.316   3.075
13416TIP3    H261664   1.639   0.305   3.074
13417TIP3   OH261665   0.764   0.060   2.833
13417TIP3    H161666   0.804   0.013   2.906
13417TIP3    H261667   0.682   0.094   2.869
13418TIP3   OH261668   1.305   1.604   2.578
13418TIP3    H161669   1.347   1.520   2.560
13418TIP3    H261670   1.378   1.667   2.580
13419TIP3   OH261671   1.437   1.375   2.510
13419TIP3    H161672   1.435   1.306   2.444
13419TIP3    H261673   1.447   1.329   2.594
13420TIP3   OH261674   1.605   1.245   3.313
13420TIP3    H161675   1.599   1.186   3.238
13420TIP3    H261676   1.621   1.331   3.274
13421TIP3   OH261677   1.040   0.936   2.313
13421TIP3    H161678   0.976   1.003   2.290
13421TIP3    H261679   1.110   0.948   2.249
13422TIP3   OH261680   1.079   0.813   1.971
13422TIP3    H161681   1.131   0.841   2.046
13422TIP3    H261682   1.133   0.746   1.928
13423TIP3   OH261683   1.763   0.888   3.136
13423TIP3    H161684   1.694   0.954   3.132
13423TIP3    H261685   1.830   0.920   3.076
13424TIP3   OH261686   1.409   0.960   2.387
13424TIP3    H161687   1.340   0.983   2.450
13424TIP3    H261688   1.475   0.916   2.441
13425TIP3   OH261689   1.375   0.764   3.339
13425TIP3    H161690   1.379   0.837   3.401
13425TIP3    H261691   1.311   0.791   3.274
13426TIP3   OH261692   0.563   1.017   2.586
13426TIP3    H161693   0.538   0.977   2.503
13426TIP3    H261694   0.621   0.953   2.627
13427TIP3   OH261695   0.704   1.370   2.850
13427TIP3    H161696   0.709   1.376   2.755
13427TIP3    H261697   0.780   1.316   2.874
13428TIP3   OH261698   0.575   0.922   2.944
13428TIP3    H161699   0.632   0.899   2.871
13428TIP3    H261700   0.624   0.987   2.994
13429TIP3   OH261701   1.221   1.471   3.018
13429TIP3    H161702   1.211   1.540   3.084
13429TIP3    H261703   1.184   1.393   3.060
13430TIP3   OH261704   0.702   1.347   3.431
13430TIP3    H161705   0.639   1.402   3.475
13430TIP3    H261706   0.658   1.319   3.350
13431TIP3   OH261707   1.274   0.899   2.157
13431TIP3    H161708   1.324   0.932   2.231
13431TIP3    H261709   1.329   0.918   2.081
13432TIP3   OH261710   0.396   0.946   3.375
13432TIP3    H161711   0.403   1.026   3.427
13432TIP3    H261712   0.302   0.933   3.363
13433TIP3   OH261713   1.051   1.543   2.491
13433TIP3    H161714   1.136   1.564   2.531
13433TIP3    H261715   1.023   1.626   2.450
13434TIP3   OH261716   0.492   1.519   3.500
13434TIP3    H161717   0.498   1.548   3.409
13434TIP3    H261718   0.398   1.514   3.517
13435TIP3   OH261719   1.645   0.032   2.142
13435TIP3    H161720   1.566   0.059   2.188
13435TIP3    H261721   1.686   0.114   2.114
13436TIP3   OH261722   0.471   0.925   2.328
13436TIP3    H161723   0.414   0.992   2.289
13436TIP3    H261724   0.415   0.849   2.340
13437TIP3   OH261725   1.774   1.493   2.005
13437TIP3    H161726   1.798   1.586   2.011
13437TIP3    H261727   1.858   1.446   2.009
13438TIP3   OH261728   0.139   1.127   3.226
13438TIP3    H161729   0.067   1.124   3.162
13438TIP3    H261730   0.141   1.039   3.263
13439TIP3   OH261731   0.129   1.452   2.844
13439TIP3    H161732   0.210   1.413   2.875
13439TIP3    H261733   0.063   1.424   2.907
13440TIP3   OH261734   1.850   1.518   3.512
13440TIP3    H161735   1.838   1.422   3.512
13440TIP3    H261736   1.767   1.551   3.546
13441TIP3   OH261737   0.941   1.472   3.374
13441TIP3    H161738   0.942   1.554   3.423
13441TIP3    H261739   0.858   1.431   3.397
13442TIP3   OH261740   1.025   1.800   2.360
13442TIP3    H161741   1.010   1.810   2.266
13442TIP3    H261742   1.002   1.886   2.397
13443TIP3   OH261743   0.380   1.691   2.546
13443TIP3    H161744   0.393   1.659   2.635
13443TIP3    H261745   0.322   1.626   2.506
13444TIP3   OH261746   1.311   1.771   2.041
13444TIP3    H161747   1.361   1.698   2.004
13444TIP3    H261748   1.323   1.764   2.135
13445TIP3   OH261749   1.296   1.757   2.317
13445TIP3    H161750   1.204   1.761   2.343
13445TIP3    H261751   1.338   1.706   2.385
13446TIP3   OH261752   1.549   0.643   3.549
13446TIP3    H161753   1.487   0.678   3.485
13446TIP3    H261754   1.558   0.551   3.524
13447TIP3   OH261755   0.306   1.323   3.323
13447TIP3    H161756   0.326   1.285   3.409
13447TIP3    H261757   0.241   1.264   3.285
13448TIP3   OH261758   0.512   0.118   2.951
13448TIP3    H161759   0.426   0.120   2.910
13448TIP3    H261760   0.509   0.187   3.017
13449TIP3   OH261761   1.006   0.125   3.306
13449TIP3    H161762   1.044   0.105   3.392
13449TIP3    H261763   0.912   0.129   3.321
13450TIP3   OH261764   1.310   0.494   3.345
13450TIP3    H161765   1.248   0.480   3.416
13450TIP3    H261766   1.322   0.588   3.341
13451TIP3   OH261767   1.427   0.924   1.933
13451TIP3    H161768   1.403   0.946   1.843
13451TIP3    H261769   1.517   0.957   1.942
13452TIP3   OH261770   0.977   0.375   2.036
13452TIP3    H161771   0.924   0.355   2.113
13452TIP3    H261772   0.947   0.314   1.969
13453TIP3   OH261773   0.562   0.674   3.063
13453TIP3    H161774   0.497   0.678   3.134
13453TIP3    H261775   0.563   0.763   3.028
13454TIP3   OH261776   0.568   0.666   2.551
13454TIP3    H161777   0.473   0.657   2.551
13454TIP3    H261778   0.594   0.646   2.461
13455TIP3   OH261779   1.105   0.694   2.424
13455TIP3    H161780   1.078   0.780   2.394
13455TIP3    H261781   1.180   0.671   2.369
13456TIP3   OH261782   1.027   0.716   3.548
13456TIP3    H161783   0.974   0.646   3.588
13456TIP3    H261784   1.111   0.710   3.592
13457TIP3   OH261785   1.197   0.625   2.685
13457TIP3    H161786   1.154   0.678   2.618
13457TIP3    H261787   1.244   0.558   2.636
13458TIP3   OH261788   0.344   0.662   3.235
13458TIP3    H161789   0.367   0.703   3.318
13458TIP3    H261790   0.299   0.581   3.260
13459TIP3   OH261791   0.625   0.374   1.895
13459TIP3    H161792   0.607   0.372   1.989
13459TIP3    H261793   0.585   0.455   1.865
13460TIP3   OH261794   0.032   0.428   2.590
13460TIP3    H161795   0.090   0.417   2.666
13460TIP3    H261796   0.002   0.340   2.570
13461TIP3   OH261797   0.056   0.492   2.153
13461TIP3    H161798   0.136   0.539   2.127
13461TIP3    H261799   0.006   0.483   2.072
13462TIP3   OH261800   1.156   0.786   3.152
13462TIP3    H161801   1.191   0.728   3.084
13462TIP3    H261802   1.092   0.733   3.199
13463TIP3   OH261803   0.835   0.441   2.637
13463TIP3    H161804   0.747   0.431   2.673
13463TIP3    H261805   0.886   0.372   2.680
13464TIP3   OH261806   0.309   0.580   2.539
13464TIP3    H161807   0.243   0.619   2.481
13464TIP3    H261808   0.313   0.489   2.511
13465TIP3   OH261809   0.626   0.585   2.294
13465TIP3    H161810   0.721   0.583   2.310
13465TIP3    H261811   0.617   0.626   2.209
13466TIP3   OH261812   1.297   0.333   2.966
13466TIP3    H161813   1.243   0.333   3.045
13466TIP3    H261814   1.257   0.267   2.910
13467TIP3   OH261815   0.595   0.669   2.037
13467TIP3    H161816   0.537   0.658   1.962
13467TIP3    H261817   0.668   0.722   2.004
13468TIP3   OH261818   1.605   1.899   3.619
13468TIP3    H161819   1.633   1.930   3.534
13468TIP3    H261820   1.679   1.918   3.678
13469TIP3   OH261821   0.369   1.162   3.552
13469TIP3    H161822   0.431   1.156   3.624
13469TIP3    H261823   0.284   1.173   3.594
13470TIP3   OH261824   0.936   0.705   2.843
13470TIP3    H161825   0.997   0.648   2.797
13470TIP3    H261826   0.903   0.652   2.915
13471TIP3   OH261827   0.402   0.308   2.495
13471TIP3    H161828   0.358   0.227   2.521
13471TIP3    H261829   0.432   0.292   2.406
13472TIP3   OH261830   0.822   0.573   3.068
13472TIP3    H161831   0.740   0.622   3.074
13472TIP3    H261832   0.873   0.602   3.143
13473TIP3   OH261833   0.855   1.132   2.238
13473TIP3    H161834   0.782   1.096   2.189
13473TIP3    H261835   0.816   1.160   2.321
13474TIP3   OH261836   1.579   1.089   3.085
13474TIP3    H161837   1.641   1.143   3.036
13474TIP3    H261838   1.506   1.075   3.025
13475TIP3   OH261839   1.237   0.417   2.105
13475TIP3    H161840   1.144   0.419   2.083
13475TIP3    H261841   1.253   0.502   2.147
13476TIP3   OH261842   1.011   1.179   3.380
13476TIP3    H161843   1.043   1.141   3.462
13476TIP3    H261844   0.988   1.269   3.402
13477TIP3   OH261845   1.317   0.638   2.249
13477TIP3    H161846   1.405   0.624   2.284
13477TIP3    H261847   1.318   0.727   2.215
13478TIP3   OH261848   0.384   1.066   2.792
13478TIP3    H161849   0.445   1.063   2.719
13478TIP3    H261850   0.425   1.011   2.860
13479TIP3   OH261851   1.069   1.283   2.159
13479TIP3    H161852   1.036   1.373   2.166
13479TIP3    H261853   0.996   1.228   2.187
13480TIP3   OH261854   0.126   0.894   3.370
13480TIP3    H161855   0.122   0.881   3.464
13480TIP3    H261856   0.066   0.828   3.334
13481TIP3   OH261857   0.813   0.898   3.567
13481TIP3    H161858   0.752   0.858   3.504
13481TIP3    H261859   0.896   0.853   3.552
13482TIP3   OH261860   1.223   1.451   3.367
13482TIP3    H161861   1.129   1.456   3.350
13482TIP3    H261862   1.231   1.468   3.461
13483TIP3   OH261863   1.766   0.670   2.196
13483TIP3    H161864   1.726   0.648   2.112
13483TIP3    H261865   1.792   0.762   2.187
13484TIP3   OH261866   1.821   1.236   3.482
13484TIP3    H161867   1.733   1.247   3.445
13484TIP3    H261868   1.878   1.226   3.405
13485TIP3   OH261869   1.627   1.529   2.245
13485TIP3    H161870   1.596   1.450   2.288
13485TIP3    H261871   1.671   1.498   2.166
13486TIP3   OH261872   1.365   1.025   2.903
13486TIP3    H161873   1.270   1.016   2.902
13486TIP3    H261874   1.397   0.946   2.859
13487TIP3   OH261875   0.648   1.450   2.581
13487TIP3    H161876   0.677   1.534   2.545
13487TIP3    H261877   0.553   1.458   2.586
13488TIP3   OH261878   0.170   0.917   2.027
13488TIP3    H161879   0.230   0.971   2.080
13488TIP3    H261880   0.083   0.935   2.063
13489TIP3   OH261881   0.714   1.213   2.454
13489TIP3    H161882   0.705   1.296   2.501
13489TIP3    H261883   0.664   1.151   2.507
13490TIP3   OH261884   0.836   1.618   3.152
13490TIP3    H161885   0.895   1.690   3.130
13490TIP3    H261886   0.886   1.562   3.211
13491TIP3   OH261887   0.641   1.720   2.468
13491TIP3    H161888   0.548   1.719   2.489
13491TIP3    H261889   0.672   1.806   2.499
13492TIP3   OH261890   1.129   1.229   3.134
13492TIP3    H161891   1.087   1.209   3.218
13492TIP3    H261892   1.210   1.178   3.136
13493TIP3   OH261893   1.410   1.324   2.048
13493TIP3    H161894   1.437   1.284   2.131
13493TIP3    H261895   1.316   1.306   2.043
13494TIP3   OH261896   1.427   1.652   3.346
13494TIP3    H161897   1.349   1.600   3.328
13494TIP3    H261898   1.424   1.723   3.282
13495TIP3   OH261899   1.839   1.762   2.047
13495TIP3    H161900   1.906   1.831   2.050
13495TIP3    H261901   1.758   1.806   2.069
13496TIP3   OH261902   0.225   0.421   3.333
13496TIP3    H161903   0.170   0.468   3.397
13496TIP3    H261904   0.239   0.335   3.372
13497TIP3   OH261905   1.503   1.194   2.275
13497TIP3    H161906   1.462   1.116   2.312
13497TIP3    H261907   1.597   1.177   2.281
13498TIP3   OH261908   0.231   1.618   3.144
13498TIP3    H161909   0.230   1.537   3.194
13498TIP3    H261910   0.247   1.687   3.208
13499TIP3   OH261911   0.782   1.425   1.887
13499TIP3    H161912   0.792   1.340   1.844
13499TIP3    H261913   0.747   1.405   1.973
13500TIP3   OH261914   0.664   1.393   2.137
13500TIP3    H161915   0.708   1.342   2.205
13500TIP3    H261916   0.675   1.484   2.164
13501TIP3   OH261917   0.305   1.101   2.189
13501TIP3    H161918   0.237   1.150   2.233
13501TIP3    H261919   0.356   1.167   2.142
13502TIP3   OH261920   1.143   0.337   3.186
13502TIP3    H161921   1.200   0.376   3.252
13502TIP3    H261922   1.098   0.266   3.232
13503TIP3   OH261923   1.223   0.288   2.352
13503TIP3    H161924   1.228   0.332   2.267
13503TIP3    H261925   1.262   0.351   2.413
13504TIP3   OH261926   0.960   1.530   2.174
13504TIP3    H161927   0.874   1.564   2.198
13504TIP3    H261928   1.013   1.608   2.158
13505TIP3   OH261929   0.884   0.535   2.387
13505TIP3    H161930   0.960   0.592   2.395
13505TIP3    H261931   0.865   0.508   2.477
13506TIP3   OH261932   0.990   0.613   3.290
13506TIP3    H161933   0.997   0.651   3.378
13506TIP3    H261934   1.022   0.524   3.300
13507TIP3   OH261935   0.996   0.174   2.458
13507TIP3    H161936   0.995   0.208   2.547
13507TIP3    H261937   1.075   0.211   2.419
13508TIP3   OH261938   0.715   1.652   2.213
13508TIP3    H161939   0.719   1.736   2.167
13508TIP3    H261940   0.690   1.676   2.302
13509TIP3   OH261941   0.572   0.341   2.167
13509TIP3    H161942   0.557   0.426   2.209
13509TIP3    H261943   0.659   0.315   2.197
13510TIP3   OH261944   1.562   0.402   3.393
13510TIP3    H161945   1.469   0.421   3.379
13510TIP3    H261946   1.594   0.376   3.307
13511TIP3   OH261947   1.442   0.772   2.785
13511TIP3    H161948   1.356   0.732   2.778
13511TIP3    H261949   1.490   0.714   2.844
13512TIP3   OH261950   0.416   1.311   2.041
13512TIP3    H161951   0.488   1.357   2.084
13512TIP3    H261952   0.459   1.257   1.974
13513TIP3   OH261953   0.209   0.645   1.979
13513TIP3    H161954   0.205   0.738   2.001
13513TIP3    H261955   0.167   0.639   1.893
13514TIP3   OH261956   1.573   1.724   2.946
13514TIP3    H161957   1.560   1.792   2.880
13514TIP3    H261958   1.666   1.727   2.966
13515TIP3   OH261959   0.260   0.118   2.831
13515TIP3    H161960   0.269   0.100   2.738
13515TIP3    H261961   0.225   0.037   2.868
13516TIP3   OH261962   0.189   1.519   2.426
13516TIP3    H161963   0.129   1.541   2.496
13516TIP3    H261964   0.167   1.580   2.355
13517TIP3   OH261965   0.188   1.809   3.609
13517TIP3    H161966   0.245   1.808   3.687
13517TIP3    H261967   0.187   1.718   3.579
13518TIP3   OH261968   0.579   1.620   3.743
13518TIP3    H161969   0.659   1.572   3.765
13518TIP3    H261970   0.554   1.587   3.657
13519TIP3   OH261971   0.987   1.612   1.868
13519TIP3    H161972   0.922   1.544   1.885
13519TIP3    H261973   1.066   1.565   1.842
13520TIP3   OH261974   1.225   1.496   3.637
13520TIP3    H161975   1.201   1.415   3.680
13520TIP3    H261976   1.301   1.529   3.686
13521TIP3   OH261977   1.442   1.566   1.914
13521TIP3    H161978   1.449   1.488   1.970
13521TIP3    H261979   1.523   1.565   1.862
13522TIP3   OH261980   0.105   1.171   3.641
13522TIP3    H161981   0.100   1.075   3.642
13522TIP3    H261982   0.044   1.198   3.573
13523TIP3   OH261983   0.548   1.132   1.883
13523TIP3    H161984   0.573   1.085   1.963
13523TIP3    H261985   0.631   1.148   1.838
13524TIP3   OH261986   0.779   1.173   3.633
13524TIP3    H161987   0.764   1.219   3.551
13524TIP3    H261988   0.807   1.086   3.608
13525TIP3   OH261989   1.135   1.279   1.893
13525TIP3    H161990   1.102   1.274   1.983
13525TIP3    H261991   1.121   1.191   1.857
13526TIP3   OH261992   1.342   1.194   3.380
13526TIP3    H161993   1.434   1.215   3.364
13526TIP3    H261994   1.297   1.278   3.373
13527TIP3   OH261995   0.191   0.886   3.640
13527TIP3    H161996   0.285   0.873   3.627
13527TIP3    H261997   0.182   0.901   3.734
13528TIP3   OH261998   0.643   1.002   2.111
13528TIP3    H161999   0.596   0.961   2.183
13528TIP3    H262000   0.693   0.930   2.071
13529TIP3   OH262001   0.614   0.778   3.372
13529TIP3    H162002   0.544   0.843   3.373
13529TIP3    H262003   0.678   0.814   3.311
13530TIP3   OH262004   0.800   0.829   1.953
13530TIP3    H162005   0.796   0.860   1.862
13530TIP3    H262006   0.893   0.820   1.971
13531TIP3   OH262007   1.114   1.028   3.671
13531TIP3    H162008   1.200   0.999   3.640
13531TIP3    H262009   1.087   0.961   3.733
13532TIP3   OH262010   1.685   1.023   1.898
13532TIP3    H162011   1.686   1.004   1.804
13532TIP3    H262012   1.676   1.118   1.903
13533TIP3   OH262013   0.654   0.523   3.459
13533TIP3    H162014   0.666   0.464   3.384
13533TIP3    H262015   0.646   0.610   3.420
13534TIP3   OH262016   0.684   0.372   3.223
13534TIP3    H162017   0.737   0.422   3.161
13534TIP3    H262018   0.598   0.366   3.182
13535TIP3   OH262019   0.808   0.894   3.224
13535TIP3    H162020   0.900   0.915   3.242
13535TIP3    H262021   0.774   0.973   3.182
13536TIP3   OH262022   1.258   0.659   3.707
13536TIP3    H162023   1.285   0.568   3.711
13536TIP3    H262024   1.338   0.709   3.723
13537TIP3   OH262025   1.403   0.971   3.527
13537TIP3    H162026   1.372   1.049   3.481
13537TIP3    H262027   1.498   0.978   3.525
13538TIP3   OH262028   0.499   0.595   3.676
13538TIP3    H162029   0.420   0.542   3.665
13538TIP3    H262030   0.549   0.582   3.595
13539TIP3   OH262031   0.729   0.116   3.321
13539TIP3    H162032   0.709   0.205   3.291
13539TIP3    H262033   0.666   0.061   3.274
13540TIP3   OH262034   0.878   0.500   3.625
13540TIP3    H162035   0.861   0.446   3.702
13540TIP3    H262036   0.796   0.500   3.577
13541TIP3   OH262037   1.123   0.418   3.524
13541TIP3    H162038   1.037   0.435   3.562
13541TIP3    H262039   1.178   0.391   3.598
13542TIP3   OH262040   1.313   0.369   3.734
13542TIP3    H162041   1.303   0.275   3.721
13542TIP3    H262042   1.292   0.383   3.827
13543TIP3   OH262043   0.301   0.410   3.660
13543TIP3    H162044   0.301   0.329   3.608
13543TIP3    H262045   0.293   0.380   3.750
13544TIP3   OH262046   0.830   0.004   3.548
13544TIP3    H162047   0.761  -0.035   3.602
13544TIP3    H262048   0.783   0.043   3.474
13545TIP3   OH262049   0.859   0.219   3.732
13545TIP3    H162050   0.864   0.141   3.676
13545TIP3    H262051   0.766   0.241   3.734
13546TIP3   OH262052   0.783   1.893   2.088
13546TIP3    H162053   0.873   1.861   2.086
13546TIP3    H262054   0.779   1.958   2.017
13547TIP3   OH262055   0.157   1.364   1.962
13547TIP3    H162056   0.246   1.348   1.995
13547TIP3    H262057   0.136   1.287   1.909
13548TIP3   OH262058   0.050   1.898   2.468
13548TIP3    H162059  -0.015   1.896   2.397
13548TIP3    H262060   0.043   1.812   2.509
13549TIP3   OH262061   0.085   1.651   2.663
13549TIP3    H162062   0.088   1.569   2.712
13549TIP3    H262063   0.125   1.715   2.722
13550TIP3   OH262064   1.831   1.767   3.025
13550TIP3    H162065   1.841   1.751   3.119
13550TIP3    H262066   1.921   1.776   2.993
13551TIP3   OH262067   1.786   1.699   3.298
13551TIP3    H162068   1.734   1.631   3.257
13551TIP3    H262069   1.832   1.655   3.370
13552TIP3   OH262070   1.628   1.288   3.774
13552TIP3    H162071   1.546   1.298   3.822
13552TIP3    H262072   1.684   1.358   3.807
13553TIP3   OH262073   1.765   1.112   2.308
13553TIP3    H162074   1.836   1.177   2.306
13553TIP3    H262075   1.789   1.053   2.380
13554TIP3   OH262076   1.834   0.915   2.493
13554TIP3    H162077   1.749   0.889   2.530
13554TIP3    H262078   1.888   0.936   2.569
13555TIP3   OH262079   1.808   1.217   2.997
13555TIP3    H162080   1.861   1.146   2.961
13555TIP3    H262081   1.850   1.297   2.966
13556TIP3   OH262082   1.617   1.498   3.205
13556TIP3    H162083   1.544   1.542   3.249
13556TIP3    H262084   1.584   1.480   3.117
13557TIP3   OH262085   1.827   0.927   2.114
13557TIP3    H162086   1.779   0.956   2.037
13557TIP3    H262087   1.805   0.992   2.181
13558TIP3   OH262088   1.669   0.627   1.944
13558TIP3    H162089   1.648   0.693   1.878
13558TIP3    H262090   1.654   0.543   1.899
13559TIP3   OH262091   1.579   0.806   2.547
13559TIP3    H162092   1.577   0.715   2.517
13559TIP3    H262093   1.537   0.804   2.633
13560TIP3   OH262094   0.099   1.006   2.924
13560TIP3    H162095   0.134   1.050   2.847
13560TIP3    H262096   0.176   0.976   2.972
13561TIP3   OH262097   1.680   0.984   3.523
13561TIP3    H162098   1.734   0.907   3.504
13561TIP3    H262099   1.735   1.059   3.499
13562TIP3   OH262100   1.800   0.737   3.494
13562TIP3    H162101   1.713   0.707   3.518
13562TIP3    H262102   1.858   0.664   3.516
13563TIP3   OH262103   1.606   0.376   1.840
13563TIP3    H162104   1.642   0.329   1.915
13563TIP3    H262105   1.511   0.369   1.850
13564TIP3   OH262106   1.568   0.559   2.370
13564TIP3    H162107   1.597   0.468   2.374
13564TIP3    H262108   1.636   0.604   2.319
13565TIP3   OH262109   1.599   0.586   2.931
13565TIP3    H162110   1.692   0.603   2.912
13565TIP3    H262111   1.590   0.603   3.024
13566TIP3   OH262112   1.616   0.665   3.198
13566TIP3    H162113   1.539   0.698   3.245
13566TIP3    H262114   1.670   0.743   3.183
13567TIP3   OH262115   0.081   0.535   3.568
13567TIP3    H162116   0.167   0.507   3.599
13567TIP3    H262117   0.019   0.482   3.616
13568TIP3   OH262118   1.910   0.100   3.712
13568TIP3    H162119   1.868   0.015   3.725
13568TIP3    H262120   1.854   0.146   3.649
13569TIP3   OH262121   1.629   0.286   2.391
13569TIP3    H162122   1.649   0.247   2.476
13569TIP3    H262123   1.562   0.229   2.354
13570TIP3   OH262124   0.180   0.377   2.826
13570TIP3    H162125   0.204   0.285   2.836
13570TIP3    H262126   0.258   0.426   2.852
13571TIP3   OH262127   0.019   0.743   2.965
13571TIP3    H162128   0.089   0.716   2.906
13571TIP3    H262129   0.025   0.838   2.969
13572TIP3   OH262130   1.771   0.252   3.532
13572TIP3    H162131   1.699   0.303   3.569
13572TIP3    H262132   1.741   0.230   3.443
13573TIP3   OH262133   1.779   0.252   2.027
13573TIP3    H162134   1.843   0.203   1.974
13573TIP3    H262135   1.831   0.320   2.070
13574TIP3   OH262136   0.104   0.260   2.304
13574TIP3    H162137   0.034   0.252   2.368
13574TIP3    H262138   0.086   0.343   2.260
13575TIP3   OH262139   1.492   1.798   2.548
13575TIP3    H162140   1.567   1.790   2.490
13575TIP3    H262141   1.527   1.837   2.628
13576TIP3   OH262142   7.319   0.090   3.206
13576TIP3    H162143   7.301   0.151   3.277
13576TIP3    H262144   7.278   0.130   3.129
13577TIP3   OH262145   0.214   1.523   3.598
13577TIP3    H162146   0.123   1.515   3.568
13577TIP3    H262147   0.214   1.487   3.686
13578TIP3   OH262148   0.574   1.593   3.233
13578TIP3    H162149   0.542   1.679   3.206
13578TIP3    H262150   0.668   1.595   3.216
13579TIP3   OH262151   0.952   1.715   3.509
13579TIP3    H162152   0.960   1.683   3.599
13579TIP3    H262153   1.034   1.761   3.492
13580TIP3   OH262154   1.191   1.848   3.470
13580TIP3    H162155   1.258   1.789   3.435
13580TIP3    H262156   1.231   1.884   3.550
13581TIP3   OH262157   1.686   0.104   3.298
13581TIP3    H162158   1.635   0.160   3.239
13581TIP3    H262159   1.655   0.015   3.278
13582TIP3   OH262160   0.273   1.883   3.255
13582TIP3    H162161   0.193   1.925   3.225
13582TIP3    H262162   0.295   1.926   3.338
13583TIP3   OH262163   0.530   1.855   3.157
13583TIP3    H162164   0.439   1.865   3.185
13583TIP3    H262165   0.535   1.904   3.075
13584TIP3   OH262166   0.980   1.839   3.064
13584TIP3    H162167   0.931   1.880   2.994
13584TIP3    H262168   0.992   1.908   3.130
13585TIP3   OH262169   1.208   1.710   3.155
13585TIP3    H162170   1.131   1.755   3.121
13585TIP3    H262171   1.279   1.774   3.145
13586TIP3   OH262172   1.447   1.857   3.151
13586TIP3    H162173   1.473   1.948   3.139
13586TIP3    H262174   1.492   1.809   3.082
13587TIP3   OH262175   0.225   1.746   2.903
13587TIP3    H162176   0.220   1.710   2.991
13587TIP3    H262177   0.297   1.700   2.861
13588TIP3   OH262178   0.440   1.609   2.800
13588TIP3    H162179   0.423   1.519   2.826
13588TIP3    H262180   0.524   1.631   2.840
13589TIP3   OH262181   0.700   1.645   2.908
13589TIP3    H162182   0.710   1.555   2.879
13589TIP3    H262183   0.736   1.646   2.997
13590TIP3   OH262184   0.965   0.219   2.728
13590TIP3    H162185   0.905   0.166   2.779
13590TIP3    H262186   1.052   0.197   2.762
13591TIP3   OH262187   1.508   0.050   2.771
13591TIP3    H162188   1.583   0.074   2.718
13591TIP3    H262189   1.500   0.120   2.836
13592TIP3   OH262190   1.716   0.142   2.616
13592TIP3    H162191   1.785   0.079   2.593
13592TIP3    H262192   1.763   0.222   2.639
13593TIP3   OH262193   0.305   0.053   2.563
13593TIP3    H162194   0.260  -0.004   2.501
13593TIP3    H262195   0.369  -0.004   2.606
13594TIP3   OH262196   0.204   0.059   2.158
13594TIP3    H162197   0.253   0.106   2.090
13594TIP3    H262198   0.166   0.127   2.213
13595TIP3   OH262199   0.759   0.050   2.535
13595TIP3    H162200   0.839   0.097   2.512
13595TIP3    H262201   0.750   0.061   2.630
13596TIP3   OH262202   1.228   0.149   2.768
13596TIP3    H162203   1.284   0.174   2.695
13596TIP3    H262204   1.249   0.057   2.784
13597TIP3   OH262205   1.431   0.106   2.312
13597TIP3    H162206   1.354   0.162   2.308
13597TIP3    H262207   1.413   0.045   2.385
13598TIP3   OH262208   0.121   1.692   2.226
13598TIP3    H162209   0.047   1.682   2.166
13598TIP3    H262210   0.160   1.776   2.202
13599TIP3   OH262211   0.345   0.253   2.007
13599TIP3    H162212   0.392   0.207   1.937
13599TIP3    H262213   0.414   0.282   2.067
13600TIP3   OH262214   0.830   0.297   2.264
13600TIP3    H162215   0.881   0.238   2.320
13600TIP3    H262216   0.843   0.384   2.302
13601TIP3   OH262217   1.037   1.787   2.074
13601TIP3    H162218   1.131   1.800   2.065
13601TIP3    H262219   1.012   1.734   1.998
13602TIP3   OH262220   1.693   1.769   2.358
13602TIP3    H162221   1.675   1.680   2.327
13602TIP3    H262222   1.682   1.824   2.281
13603TIP3   OH262223   0.253   0.187   3.481
13603TIP3    H162224   0.182   0.124   3.488
13603TIP3    H262225   0.323   0.150   3.535
13604TIP3   OH262226   0.453   0.156   3.674
13604TIP3    H162227   0.517   0.226   3.685
13604TIP3    H262228   0.499   0.076   3.699
13605TIP3   OH262229   0.348   1.769   1.915
13605TIP3    H162230   0.318   1.775   2.005
13605TIP3    H262231   0.419   1.705   1.916
13606TIP3   OH262232   1.271   0.100   3.721
13606TIP3    H162233   1.187   0.056   3.736
13606TIP3    H262234   1.337   0.035   3.747
13607TIP3   OH262235   1.600   1.626   3.568
13607TIP3    H162236   1.540   1.624   3.493
13607TIP3    H262237   1.601   1.717   3.596
13608TIP3   OH262238   3.075   1.024   2.536
13608TIP3    H162239   3.068   1.119   2.530
13608TIP3    H262240   3.000   0.992   2.485
13609TIP3   OH262241   2.987   0.926   2.922
13609TIP3    H162242   2.997   0.900   3.014
13609TIP3    H262243   2.914   0.872   2.890
13610TIP3   OH262244   2.176   0.890   3.067
13610TIP3    H162245   2.184   0.811   3.119
13610TIP3    H262246   2.259   0.936   3.079
13611TIP3   OH262247   3.347   1.250   2.756
13611TIP3    H162248   3.308   1.178   2.805
13611TIP3    H262249   3.365   1.318   2.821
13612TIP3   OH262250   2.247   1.345   2.892
13612TIP3    H162251   2.250   1.259   2.849
13612TIP3    H262252   2.301   1.335   2.970
13613TIP3   OH262253   1.954   0.673   2.413
13613TIP3    H162254   1.930   0.759   2.448
13613TIP3    H262255   1.894   0.660   2.339
13614TIP3   OH262256   2.025   0.939   2.694
13614TIP3    H162257   2.056   0.851   2.717
13614TIP3    H262258   2.101   0.996   2.709
13615TIP3   OH262259   3.072   1.744   2.786
13615TIP3    H162260   3.103   1.671   2.732
13615TIP3    H262261   3.012   1.703   2.849
13616TIP3   OH262262   2.804   1.201   2.942
13616TIP3    H162263   2.845   1.130   2.891
13616TIP3    H262264   2.869   1.224   3.008
13617TIP3   OH262265   3.711   0.355   3.040
13617TIP3    H162266   3.714   0.400   3.124
13617TIP3    H262267   3.733   0.422   2.975
13618TIP3   OH262268   3.131   0.610   2.967
13618TIP3    H162269   3.130   0.515   2.973
13618TIP3    H262270   3.106   0.629   2.876
13619TIP3   OH262271   2.456   0.422   2.686
13619TIP3    H162272   2.460   0.509   2.647
13619TIP3    H262273   2.397   0.373   2.630
13620TIP3   OH262274   3.262   0.426   2.560
13620TIP3    H162275   3.302   0.417   2.646
13620TIP3    H262276   3.320   0.487   2.513
13621TIP3   OH262277   2.101   0.684   2.768
13621TIP3    H162278   2.166   0.649   2.829
13621TIP3    H262279   2.127   0.648   2.683
13622TIP3   OH262280   2.598   0.824   2.717
13622TIP3    H162281   2.677   0.783   2.753
13622TIP3    H262282   2.558   0.756   2.663
13623TIP3   OH262283   3.723   0.507   3.268
13623TIP3    H162284   3.645   0.559   3.251
13623TIP3    H262285   3.737   0.514   3.363
13624TIP3   OH262286   2.323   0.336   3.109
13624TIP3    H162287   2.298   0.398   3.040
13624TIP3    H262288   2.255   0.346   3.175
13625TIP3   OH262289   3.058   1.282   2.429
13625TIP3    H162290   3.030   1.278   2.337
13625TIP3    H262291   3.009   1.357   2.465
13626TIP3   OH262292   2.578   1.107   3.083
13626TIP3    H162293   2.523   1.170   3.128
13626TIP3    H262294   2.646   1.160   3.041
13627TIP3   OH262295   3.366   0.350   2.809
13627TIP3    H162296   3.280   0.346   2.850
13627TIP3    H262297   3.410   0.424   2.850
13628TIP3   OH262298   2.289   0.512   2.894
13628TIP3    H162299   2.342   0.571   2.948
13628TIP3    H262300   2.351   0.477   2.830
13629TIP3   OH262301   2.385   1.326   3.135
13629TIP3    H162302   2.420   1.412   3.158
13629TIP3    H262303   2.311   1.314   3.195
13630TIP3   OH262304   1.978   1.279   2.282
13630TIP3    H162305   1.990   1.317   2.194
13630TIP3    H262306   2.018   1.343   2.341
13631TIP3   OH262307   3.385   1.454   2.951
13631TIP3    H162308   3.293   1.451   2.976
13631TIP3    H262309   3.401   1.547   2.931
13632TIP3   OH262310   3.453   0.273   3.147
13632TIP3    H162311   3.369   0.301   3.111
13632TIP3    H262312   3.518   0.305   3.084
13633TIP3   OH262313   2.670   0.073   2.836
13633TIP3    H162314   2.701   0.018   2.908
13633TIP3    H262315   2.584   0.103   2.865
13634TIP3   OH262316   3.202   1.603   2.574
13634TIP3    H162317   3.243   1.518   2.557
13634TIP3    H262318   3.274   1.665   2.580
13635TIP3   OH262319   3.315   1.361   2.503
13635TIP3    H162320   3.233   1.323   2.473
13635TIP3    H262321   3.334   1.317   2.585
13636TIP3   OH262322   3.491   1.243   3.316
13636TIP3    H162323   3.479   1.183   3.242
13636TIP3    H262324   3.499   1.329   3.276
13637TIP3   OH262325   2.928   0.918   2.321
13637TIP3    H162326   2.857   0.980   2.303
13637TIP3    H262327   2.994   0.939   2.255
13638TIP3   OH262328   2.959   0.821   1.971
13638TIP3    H162329   3.011   0.846   2.047
13638TIP3    H262330   3.012   0.755   1.926
13639TIP3   OH262331   3.665   0.896   3.138
13639TIP3    H162332   3.590   0.956   3.137
13639TIP3    H262333   3.722   0.927   3.068
13640TIP3   OH262334   3.294   0.964   2.384
13640TIP3    H162335   3.224   0.990   2.444
13640TIP3    H262336   3.358   0.921   2.439
13641TIP3   OH262337   3.267   0.769   3.334
13641TIP3    H162338   3.265   0.840   3.399
13641TIP3    H262339   3.197   0.792   3.273
13642TIP3   OH262340   2.446   1.016   2.587
13642TIP3    H162341   2.427   0.984   2.499
13642TIP3    H262342   2.505   0.951   2.624
13643TIP3   OH262343   2.619   1.398   2.821
13643TIP3    H162344   2.598   1.378   2.729
13643TIP3    H262345   2.679   1.327   2.847
13644TIP3   OH262346   2.452   0.917   2.936
13644TIP3    H162347   2.509   0.899   2.862
13644TIP3    H262348   2.499   0.983   2.987
13645TIP3   OH262349   3.132   1.454   3.041
13645TIP3    H162350   3.107   1.531   3.091
13645TIP3    H262351   3.077   1.383   3.076
13646TIP3   OH262352   2.596   1.367   3.406
13646TIP3    H162353   2.526   1.417   3.447
13646TIP3    H262354   2.561   1.279   3.399
13647TIP3   OH262355   3.165   0.890   2.152
13647TIP3    H162356   3.213   0.930   2.225
13647TIP3    H262357   3.216   0.912   2.074
13648TIP3   OH262358   2.244   0.887   3.387
13648TIP3    H162359   2.309   0.956   3.399
13648TIP3    H262360   2.163   0.935   3.369
13649TIP3   OH262361   2.948   1.524   2.502
13649TIP3    H162362   3.028   1.565   2.534
13649TIP3    H262363   2.898   1.596   2.463
13650TIP3   OH262364   2.384   1.532   3.488
13650TIP3    H162365   2.388   1.555   3.395
13650TIP3    H262366   2.290   1.527   3.507
13651TIP3   OH262367   3.506   0.116   2.184
13651TIP3    H162368   3.459   0.058   2.123
13651TIP3    H262369   3.564   0.167   2.128
13652TIP3   OH262370   2.368   0.925   2.328
13652TIP3    H162371   2.311   0.996   2.299
13652TIP3    H262372   2.310   0.849   2.335
13653TIP3   OH262373   3.663   1.491   1.999
13653TIP3    H162374   3.675   1.586   2.010
13653TIP3    H262375   3.752   1.455   2.006
13654TIP3   OH262376   1.944   1.186   3.243
13654TIP3    H162377   1.893   1.187   3.162
13654TIP3    H262378   1.954   1.093   3.264
13655TIP3   OH262379   1.983   1.430   2.932
13655TIP3    H162380   2.071   1.401   2.908
13655TIP3    H262381   1.996   1.486   3.009
13656TIP3   OH262382   3.751   1.531   3.522
13656TIP3    H162383   3.738   1.437   3.515
13656TIP3    H262384   3.666   1.564   3.553
13657TIP3   OH262385   2.835   1.484   3.365
13657TIP3    H162386   2.832   1.565   3.416
13657TIP3    H262387   2.749   1.444   3.378
13658TIP3   OH262388   2.920   1.818   2.361
13658TIP3    H162389   2.878   1.821   2.275
13658TIP3    H262390   2.885   1.895   2.407
13659TIP3   OH262391   2.248   1.702   2.561
13659TIP3    H162392   2.272   1.668   2.647
13659TIP3    H262393   2.192   1.635   2.523
13660TIP3   OH262394   3.198   1.773   2.044
13660TIP3    H162395   3.247   1.700   2.008
13660TIP3    H262396   3.205   1.763   2.139
13661TIP3   OH262397   3.182   1.757   2.321
13661TIP3    H162398   3.089   1.772   2.337
13661TIP3    H262399   3.210   1.699   2.391
13662TIP3   OH262400   3.454   0.646   3.539
13662TIP3    H162401   3.379   0.683   3.493
13662TIP3    H262402   3.455   0.554   3.514
13663TIP3   OH262403   2.159   1.346   3.296
13663TIP3    H162404   2.187   1.313   3.381
13663TIP3    H262405   2.083   1.293   3.273
13664TIP3   OH262406   2.415   0.125   2.943
13664TIP3    H162407   2.329   0.133   2.901
13664TIP3    H262408   2.414   0.192   3.012
13665TIP3   OH262409   2.908   0.148   3.322
13665TIP3    H162410   2.923   0.125   3.414
13665TIP3    H262411   2.813   0.142   3.311
13666TIP3   OH262412   3.200   0.499   3.360
13666TIP3    H162413   3.129   0.485   3.423
13666TIP3    H262414   3.204   0.594   3.350
13667TIP3   OH262415   3.308   0.908   1.915
13667TIP3    H162416   3.293   0.938   1.825
13667TIP3    H262417   3.393   0.945   1.938
13668TIP3   OH262418   2.866   0.369   2.032
13668TIP3    H162419   2.807   0.351   2.105
13668TIP3    H262420   2.837   0.310   1.963
13669TIP3   OH262421   2.448   0.667   3.052
13669TIP3    H162422   2.396   0.672   3.132
13669TIP3    H262423   2.448   0.757   3.018
13670TIP3   OH262424   2.451   0.658   2.550
13670TIP3    H162425   2.355   0.656   2.549
13670TIP3    H262426   2.476   0.641   2.459
13671TIP3   OH262427   3.005   0.669   2.414
13671TIP3    H162428   2.969   0.756   2.397
13671TIP3    H262429   3.080   0.661   2.355
13672TIP3   OH262430   2.920   0.717   3.546
13672TIP3    H162431   2.859   0.656   3.587
13672TIP3    H262432   3.001   0.709   3.597
13673TIP3   OH262433   3.080   0.661   2.702
13673TIP3    H162434   3.043   0.744   2.672
13673TIP3    H262435   3.084   0.607   2.624
13674TIP3   OH262436   2.226   0.663   3.224
13674TIP3    H162437   2.235   0.724   3.297
13674TIP3    H262438   2.190   0.584   3.263
13675TIP3   OH262439   2.514   0.359   1.885
13675TIP3    H162440   2.496   0.359   1.980
13675TIP3    H262441   2.476   0.441   1.854
13676TIP3   OH262442   1.875   0.358   2.644
13676TIP3    H162443   1.924   0.377   2.724
13676TIP3    H262444   1.918   0.412   2.577
13677TIP3   OH262445   1.934   0.455   2.144
13677TIP3    H162446   2.007   0.494   2.095
13677TIP3    H262447   1.878   0.529   2.167
13678TIP3   OH262448   3.048   0.784   3.160
13678TIP3    H162449   3.081   0.724   3.094
13678TIP3    H262450   2.978   0.736   3.204
13679TIP3   OH262451   2.731   0.403   2.637
13679TIP3    H162452   2.640   0.407   2.666
13679TIP3    H262453   2.780   0.372   2.713
13680TIP3   OH262454   2.187   0.580   2.527
13680TIP3    H162455   2.110   0.605   2.476
13680TIP3    H262456   2.201   0.488   2.504
13681TIP3   OH262457   2.515   0.580   2.295
13681TIP3    H162458   2.609   0.582   2.311
13681TIP3    H262459   2.504   0.621   2.209
13682TIP3   OH262460   3.120   0.334   2.927
13682TIP3    H162461   3.109   0.317   3.020
13682TIP3    H262462   3.034   0.317   2.889
13683TIP3   OH262463   2.484   0.653   2.037
13683TIP3    H162464   2.427   0.642   1.960
13683TIP3    H262465   2.550   0.716   2.008
13684TIP3   OH262466   3.493   1.900   3.622
13684TIP3    H162467   3.519   1.934   3.536
13684TIP3    H262468   3.565   1.924   3.680
13685TIP3   OH262469   2.228   1.212   3.526
13685TIP3    H162470   2.314   1.174   3.509
13685TIP3    H262471   2.208   1.185   3.616
13686TIP3   OH262472   2.814   0.699   2.843
13686TIP3    H162473   2.888   0.644   2.817
13686TIP3    H262474   2.779   0.657   2.921
13687TIP3   OH262475   2.281   0.309   2.496
13687TIP3    H162476   2.237   0.230   2.525
13687TIP3    H262477   2.310   0.290   2.407
13688TIP3   OH262478   2.711   0.578   3.073
13688TIP3    H162479   2.627   0.623   3.077
13688TIP3    H262480   2.758   0.608   3.150
13689TIP3   OH262481   2.744   1.114   2.256
13689TIP3    H162482   2.666   1.109   2.201
13689TIP3    H262483   2.712   1.147   2.340
13690TIP3   OH262484   3.469   1.084   3.089
13690TIP3    H162485   3.525   1.144   3.040
13690TIP3    H262486   3.393   1.070   3.032
13691TIP3   OH262487   3.127   0.409   2.092
13691TIP3    H162488   3.034   0.415   2.070
13691TIP3    H262489   3.148   0.495   2.129
13692TIP3   OH262490   2.898   1.199   3.386
13692TIP3    H162491   2.883   1.164   3.474
13692TIP3    H262492   2.858   1.286   3.388
13693TIP3   OH262493   3.213   0.629   2.239
13693TIP3    H162494   3.300   0.620   2.277
13693TIP3    H262495   3.210   0.718   2.204
13694TIP3   OH262496   2.259   1.067   2.785
13694TIP3    H162497   2.320   1.069   2.711
13694TIP3    H262498   2.304   1.014   2.852
13695TIP3   OH262499   2.945   1.281   2.168
13695TIP3    H162500   2.916   1.372   2.177
13695TIP3    H262501   2.868   1.230   2.195
13696TIP3   OH262502   1.965   0.938   3.366
13696TIP3    H162503   1.980   0.914   3.457
13696TIP3    H262504   1.902   0.874   3.333
13697TIP3   OH262505   2.697   0.899   3.598
13697TIP3    H162506   2.632   0.935   3.537
13697TIP3    H262507   2.760   0.854   3.542
13698TIP3   OH262508   3.114   1.449   3.371
13698TIP3    H162509   3.021   1.457   3.350
13698TIP3    H262510   3.118   1.461   3.466
13699TIP3   OH262511   3.631   0.652   2.184
13699TIP3    H162512   3.597   0.642   2.095
13699TIP3    H262513   3.667   0.740   2.186
13700TIP3   OH262514   3.712   1.250   3.477
13700TIP3    H162515   3.621   1.261   3.449
13700TIP3    H262516   3.760   1.232   3.397
13701TIP3   OH262517   3.532   1.516   2.270
13701TIP3    H162518   3.473   1.456   2.315
13701TIP3    H262519   3.547   1.475   2.185
13702TIP3   OH262520   3.260   1.020   2.905
13702TIP3    H162521   3.165   1.009   2.908
13702TIP3    H262522   3.291   0.942   2.859
13703TIP3   OH262523   2.518   1.432   2.528
13703TIP3    H162524   2.529   1.526   2.514
13703TIP3    H262525   2.454   1.405   2.462
13704TIP3   OH262526   2.092   0.904   2.038
13704TIP3    H162527   2.140   0.970   2.088
13704TIP3    H262528   2.001   0.912   2.068
13705TIP3   OH262529   2.644   1.191   2.497
13705TIP3    H162530   2.615   1.282   2.504
13705TIP3    H262531   2.573   1.141   2.536
13706TIP3   OH262532   2.713   1.627   3.153
13706TIP3    H162533   2.771   1.699   3.129
13706TIP3    H262534   2.766   1.572   3.212
13707TIP3   OH262535   2.507   1.709   2.456
13707TIP3    H162536   2.416   1.712   2.484
13707TIP3    H262537   2.547   1.785   2.499
13708TIP3   OH262538   3.009   1.215   3.136
13708TIP3    H162539   2.966   1.209   3.221
13708TIP3    H262540   3.088   1.163   3.145
13709TIP3   OH262541   3.296   1.328   2.028
13709TIP3    H162542   3.320   1.273   2.103
13709TIP3    H262543   3.205   1.306   2.011
13710TIP3   OH262544   3.317   1.644   3.346
13710TIP3    H162545   3.238   1.590   3.337
13710TIP3    H262546   3.304   1.715   3.283
13711TIP3   OH262547   3.719   1.760   2.043
13711TIP3    H162548   3.779   1.831   2.025
13711TIP3    H262549   3.639   1.803   2.074
13712TIP3   OH262550   2.117   0.393   3.286
13712TIP3    H162551   2.025   0.420   3.278
13712TIP3    H262552   2.116   0.328   3.357
13713TIP3   OH262553   3.403   1.161   2.218
13713TIP3    H162554   3.358   1.107   2.284
13713TIP3    H262555   3.495   1.156   2.241
13714TIP3   OH262556   2.097   1.584   3.157
13714TIP3    H162557   2.123   1.503   3.200
13714TIP3    H262558   2.118   1.653   3.220
13715TIP3   OH262559   2.698   1.414   1.866
13715TIP3    H162560   2.693   1.326   1.829
13715TIP3    H262561   2.662   1.405   1.954
13716TIP3   OH262562   2.591   1.400   2.112
13716TIP3    H162563   2.518   1.362   2.162
13716TIP3    H262564   2.599   1.489   2.147
13717TIP3   OH262565   2.184   1.098   2.213
13717TIP3    H162566   2.103   1.136   2.246
13717TIP3    H262567   2.248   1.169   2.219
13718TIP3   OH262568   3.094   0.304   3.190
13718TIP3    H162569   3.124   0.367   3.256
13718TIP3    H262570   3.030   0.250   3.237
13719TIP3   OH262571   3.062   0.345   2.355
13719TIP3    H162572   3.083   0.346   2.262
13719TIP3    H262573   3.057   0.438   2.380
13720TIP3   OH262574   2.870   1.541   2.186
13720TIP3    H162575   2.778   1.560   2.207
13720TIP3    H262576   2.906   1.625   2.158
13721TIP3   OH262577   2.771   0.525   2.393
13721TIP3    H162578   2.847   0.583   2.399
13721TIP3    H262579   2.753   0.499   2.483
13722TIP3   OH262580   2.882   0.606   3.297
13722TIP3    H162581   2.885   0.659   3.377
13722TIP3    H262582   2.897   0.516   3.326
13723TIP3   OH262583   2.851   0.214   2.472
13723TIP3    H162584   2.818   0.282   2.530
13723TIP3    H262585   2.928   0.253   2.431
13724TIP3   OH262586   2.618   1.656   2.209
13724TIP3    H162587   2.613   1.742   2.167
13724TIP3    H262588   2.574   1.668   2.293
13725TIP3   OH262589   2.449   0.342   2.156
13725TIP3    H162590   2.432   0.429   2.194
13725TIP3    H262591   2.536   0.318   2.188
13726TIP3   OH262592   3.449   0.399   3.398
13726TIP3    H162593   3.357   0.425   3.392
13726TIP3    H262594   3.467   0.354   3.315
13727TIP3   OH262595   3.336   0.763   2.787
13727TIP3    H162596   3.245   0.734   2.778
13727TIP3    H262597   3.374   0.702   2.851
13728TIP3   OH262598   2.271   1.392   1.969
13728TIP3    H162599   2.293   1.403   2.061
13728TIP3    H262600   2.330   1.323   1.939
13729TIP3   OH262601   2.085   0.630   1.993
13729TIP3    H162602   2.105   0.717   2.026
13729TIP3    H262603   2.051   0.644   1.905
13730TIP3   OH262604   3.457   1.726   2.948
13730TIP3    H162605   3.443   1.795   2.883
13730TIP3    H262606   3.552   1.725   2.962
13731TIP3   OH262607   2.159   0.131   2.840
13731TIP3    H162608   2.152   0.109   2.748
13731TIP3    H262609   2.110   0.062   2.885
13732TIP3   OH262610   2.106   1.505   2.413
13732TIP3    H162611   2.087   1.571   2.346
13732TIP3    H262612   2.185   1.461   2.380
13733TIP3   OH262613   2.048   1.808   3.621
13733TIP3    H162614   2.109   1.797   3.694
13733TIP3    H262615   2.041   1.721   3.582
13734TIP3   OH262616   2.458   1.626   3.736
13734TIP3    H162617   2.536   1.577   3.762
13734TIP3    H262618   2.438   1.596   3.648
13735TIP3   OH262619   2.889   1.607   1.861
13735TIP3    H162620   2.821   1.540   1.874
13735TIP3    H262621   2.967   1.557   1.836
13736TIP3   OH262622   3.120   1.487   3.641
13736TIP3    H162623   3.100   1.407   3.691
13736TIP3    H262624   3.191   1.528   3.690
13737TIP3   OH262625   3.333   1.572   1.912
13737TIP3    H162626   3.331   1.491   1.962
13737TIP3    H262627   3.413   1.567   1.860
13738TIP3   OH262628   1.980   1.164   3.701
13738TIP3    H162629   2.002   1.074   3.678
13738TIP3    H262630   1.921   1.193   3.632
13739TIP3   OH262631   2.430   1.172   1.891
13739TIP3    H162632   2.445   1.128   1.975
13739TIP3    H262633   2.516   1.175   1.850
13740TIP3   OH262634   2.685   1.179   3.651
13740TIP3    H162635   2.632   1.166   3.573
13740TIP3    H262636   2.727   1.095   3.667
13741TIP3   OH262637   3.042   1.281   1.912
13741TIP3    H162638   2.995   1.281   1.995
13741TIP3    H262639   3.012   1.200   1.869
13742TIP3   OH262640   3.225   1.181   3.377
13742TIP3    H162641   3.313   1.216   3.366
13742TIP3    H262642   3.168   1.258   3.376
13743TIP3   OH262643   2.074   0.904   3.634
13743TIP3    H162644   2.159   0.884   3.596
13743TIP3    H262645   2.087   0.897   3.728
13744TIP3   OH262646   2.524   1.014   2.105
13744TIP3    H162647   2.480   0.977   2.181
13744TIP3    H262648   2.573   0.941   2.067
13745TIP3   OH262649   2.516   0.757   3.333
13745TIP3    H162650   2.463   0.828   3.371
13745TIP3    H262651   2.589   0.803   3.291
13746TIP3   OH262652   2.678   0.827   1.956
13746TIP3    H162653   2.673   0.860   1.866
13746TIP3    H262654   2.772   0.823   1.974
13747TIP3   OH262655   2.985   1.032   3.690
13747TIP3    H162656   3.048   0.989   3.631
13747TIP3    H262657   2.956   0.962   3.749
13748TIP3   OH262658   3.564   1.019   1.907
13748TIP3    H162659   3.570   1.000   1.813
13748TIP3    H262660   3.555   1.114   1.912
13749TIP3   OH262661   2.538   0.517   3.454
13749TIP3    H162662   2.548   0.456   3.381
13749TIP3    H262663   2.530   0.603   3.413
13750TIP3   OH262664   2.574   0.368   3.216
13750TIP3    H162665   2.624   0.427   3.160
13750TIP3    H262666   2.486   0.368   3.178
13751TIP3   OH262667   2.719   0.899   3.211
13751TIP3    H162668   2.792   0.946   3.252
13751TIP3    H262669   2.660   0.968   3.181
13752TIP3   OH262670   3.146   0.665   3.713
13752TIP3    H162671   3.179   0.576   3.719
13752TIP3    H262672   3.219   0.720   3.743
13753TIP3   OH262673   3.288   0.965   3.531
13753TIP3    H162674   3.252   1.041   3.486
13753TIP3    H262675   3.383   0.976   3.527
13754TIP3   OH262676   2.382   0.574   3.681
13754TIP3    H162677   2.294   0.538   3.668
13754TIP3    H262678   2.424   0.566   3.595
13755TIP3   OH262679   2.627   0.108   3.290
13755TIP3    H162680   2.606   0.200   3.272
13755TIP3    H262681   2.546   0.061   3.268
13756TIP3   OH262682   2.758   0.507   3.624
13756TIP3    H162683   2.728   0.471   3.708
13756TIP3    H262684   2.679   0.511   3.570
13757TIP3   OH262685   3.001   0.417   3.526
13757TIP3    H162686   2.916   0.437   3.564
13757TIP3    H262687   3.053   0.382   3.599
13758TIP3   OH262688   3.209   0.359   3.732
13758TIP3    H162689   3.191   0.266   3.718
13758TIP3    H262690   3.183   0.375   3.822
13759TIP3   OH262691   2.150   0.421   3.664
13759TIP3    H162692   2.155   0.338   3.617
13759TIP3    H262693   2.155   0.397   3.757
13760TIP3   OH262694   2.726   0.017   3.530
13760TIP3    H162695   2.656  -0.004   3.592
13760TIP3    H262696   2.681   0.051   3.453
13761TIP3   OH262697   2.760   0.212   3.736
13761TIP3    H162698   2.752   0.148   3.665
13761TIP3    H262699   2.673   0.251   3.742
13762TIP3   OH262700   2.669   1.895   2.076
13762TIP3    H162701   2.759   1.862   2.073
13762TIP3    H262702   2.667   1.964   2.010
13763TIP3   OH262703   2.005   1.342   2.004
13763TIP3    H162704   2.098   1.365   2.004
13763TIP3    H262705   1.998   1.269   1.942
13764TIP3   OH262706   1.892   1.859   2.528
13764TIP3    H162707   1.834   1.819   2.463
13764TIP3    H262708   1.911   1.788   2.589
13765TIP3   OH262709   1.945   1.667   2.715
13765TIP3    H162710   1.928   1.574   2.729
13765TIP3    H262711   1.995   1.695   2.791
13766TIP3   OH262712   3.723   1.732   3.025
13766TIP3    H162713   3.712   1.722   3.119
13766TIP3    H262714   3.775   1.812   3.015
13767TIP3   OH262715   3.672   1.690   3.295
13767TIP3    H162716   3.612   1.622   3.263
13767TIP3    H262717   3.714   1.651   3.371
13768TIP3   OH262718   3.528   1.287   3.766
13768TIP3    H162719   3.443   1.297   3.808
13768TIP3    H262720   3.579   1.361   3.799
13769TIP3   OH262721   3.669   1.118   2.297
13769TIP3    H162722   3.740   1.182   2.304
13769TIP3    H262723   3.682   1.059   2.371
13770TIP3   OH262724   3.704   0.918   2.486
13770TIP3    H162725   3.618   0.893   2.518
13770TIP3    H262726   3.756   0.931   2.565
13771TIP3   OH262727   3.700   1.222   3.010
13771TIP3    H162728   3.752   1.159   2.959
13771TIP3    H262729   3.722   1.307   2.972
13772TIP3   OH262730   3.501   1.493   3.203
13772TIP3    H162731   3.428   1.537   3.247
13772TIP3    H262732   3.469   1.477   3.114
13773TIP3   OH262733   3.704   0.912   2.117
13773TIP3    H162734   3.651   0.941   2.043
13773TIP3    H262735   3.692   0.979   2.184
13774TIP3   OH262736   3.553   0.631   1.923
13774TIP3    H162737   3.525   0.696   1.858
13774TIP3    H262738   3.536   0.547   1.883
13775TIP3   OH262739   3.458   0.805   2.544
13775TIP3    H162740   3.458   0.716   2.510
13775TIP3    H262741   3.419   0.798   2.631
13776TIP3   OH262742   1.946   0.982   2.954
13776TIP3    H162743   1.962   0.973   2.860
13776TIP3    H262744   2.030   0.959   2.994
13777TIP3   OH262745   3.564   0.988   3.518
13777TIP3    H162746   3.624   0.916   3.502
13777TIP3    H262747   3.610   1.066   3.485
13778TIP3   OH262748   3.702   0.749   3.497
13778TIP3    H162749   3.612   0.720   3.514
13778TIP3    H262750   3.756   0.675   3.524
13779TIP3   OH262751   3.486   0.377   1.835
13779TIP3    H162752   3.521   0.336   1.914
13779TIP3    H262753   3.391   0.366   1.842
13780TIP3   OH262754   3.455   0.555   2.384
13780TIP3    H162755   3.474   0.461   2.381
13780TIP3    H262756   3.522   0.595   2.328
13781TIP3   OH262757   3.479   0.566   2.939
13781TIP3    H162758   3.571   0.585   2.919
13781TIP3    H262759   3.468   0.596   3.029
13782TIP3   OH262760   3.503   0.674   3.195
13782TIP3    H162761   3.425   0.701   3.242
13782TIP3    H262762   3.555   0.754   3.186
13783TIP3   OH262763   1.920   0.490   3.529
13783TIP3    H162764   2.004   0.480   3.574
13783TIP3    H262765   1.874   0.409   3.546
13784TIP3   OH262766   3.806   0.106   3.718
13784TIP3    H162767   3.767   0.021   3.736
13784TIP3    H262768   3.744   0.149   3.658
13785TIP3   OH262769   3.453   0.246   2.414
13785TIP3    H162770   3.515   0.205   2.474
13785TIP3    H262771   3.469   0.203   2.330
13786TIP3   OH262772   2.041   0.379   2.864
13786TIP3    H162773   2.084   0.293   2.864
13786TIP3    H262774   2.113   0.441   2.881
13787TIP3   OH262775   1.863   0.656   2.917
13787TIP3    H162776   1.940   0.662   2.860
13787TIP3    H262777   1.879   0.721   2.985
13788TIP3   OH262778   3.674   0.264   3.538
13788TIP3    H162779   3.597   0.309   3.573
13788TIP3    H262780   3.644   0.226   3.456
13789TIP3   OH262781   3.667   0.267   2.023
13789TIP3    H162782   3.723   0.207   1.973
13789TIP3    H262783   3.728   0.331   2.060
13790TIP3   OH262784   1.904   0.255   2.326
13790TIP3    H162785   1.812   0.265   2.351
13790TIP3    H262786   1.923   0.331   2.272
13791TIP3   OH262787   3.403   1.779   2.553
13791TIP3    H162788   3.479   1.781   2.495
13791TIP3    H262789   3.428   1.833   2.628
13792TIP3   OH262790   1.921   0.083   3.136
13792TIP3    H162791   1.860   0.080   3.209
13792TIP3    H262792   1.902   0.166   3.092
13793TIP3   OH262793   2.117   1.528   3.577
13793TIP3    H162794   2.027   1.514   3.549
13793TIP3    H262795   2.131   1.464   3.647
13794TIP3   OH262796   2.446   1.589   3.220
13794TIP3    H162797   2.422   1.678   3.196
13794TIP3    H262798   2.541   1.586   3.211
13795TIP3   OH262799   2.835   1.720   3.510
13795TIP3    H162800   2.845   1.685   3.598
13795TIP3    H262801   2.915   1.771   3.494
13796TIP3   OH262802   3.072   1.855   3.467
13796TIP3    H162803   3.135   1.794   3.429
13796TIP3    H262804   3.114   1.886   3.548
13797TIP3   OH262805   3.606   0.111   3.311
13797TIP3    H162806   3.538   0.150   3.256
13797TIP3    H262807   3.565   0.032   3.347
13798TIP3   OH262808   2.156   1.891   3.252
13798TIP3    H162809   2.077   1.933   3.217
13798TIP3    H262810   2.170   1.932   3.337
13799TIP3   OH262811   2.412   1.856   3.159
13799TIP3    H162812   2.322   1.869   3.187
13799TIP3    H262813   2.418   1.900   3.074
13800TIP3   OH262814   2.870   1.837   3.053
13800TIP3    H162815   2.820   1.872   2.980
13800TIP3    H262816   2.882   1.911   3.112
13801TIP3   OH262817   3.097   1.710   3.150
13801TIP3    H162818   3.016   1.749   3.117
13801TIP3    H262819   3.163   1.778   3.139
13802TIP3   OH262820   3.341   1.860   3.161
13802TIP3    H162821   3.354   1.952   3.139
13802TIP3    H262822   3.378   1.813   3.086
13803TIP3   OH262823   2.111   1.740   2.929
13803TIP3    H162824   2.108   1.693   3.012
13803TIP3    H262825   2.185   1.703   2.883
13804TIP3   OH262826   2.319   1.609   2.812
13804TIP3    H162827   2.305   1.516   2.829
13804TIP3    H262828   2.408   1.626   2.843
13805TIP3   OH262829   2.580   1.649   2.911
13805TIP3    H162830   2.598   1.564   2.872
13805TIP3    H262831   2.613   1.643   3.000
13806TIP3   OH262832   2.886   0.248   2.803
13806TIP3    H162833   2.814   0.190   2.830
13806TIP3    H262834   2.945   0.191   2.753
13807TIP3   OH262835   3.439   0.076   2.777
13807TIP3    H162836   3.527   0.085   2.741
13807TIP3    H262837   3.413   0.165   2.800
13808TIP3   OH262838   3.677   0.140   2.628
13808TIP3    H162839   3.701   0.099   2.545
13808TIP3    H262840   3.694   0.233   2.615
13809TIP3   OH262841   2.180   0.056   2.567
13809TIP3    H162842   2.126   0.002   2.510
13809TIP3    H262843   2.241  -0.005   2.609
13810TIP3   OH262844   2.074   0.088   2.192
13810TIP3    H162845   2.112   0.145   2.126
13810TIP3    H262846   2.015   0.144   2.242
13811TIP3   OH262847   2.655   0.044   2.551
13811TIP3    H162848   2.725   0.102   2.522
13811TIP3    H262849   2.651   0.056   2.646
13812TIP3   OH262850   3.089   0.093   2.699
13812TIP3    H162851   3.148   0.033   2.653
13812TIP3    H262852   3.120   0.091   2.790
13813TIP3   OH262853   3.196   0.073   2.281
13813TIP3    H162854   3.165   0.070   2.190
13813TIP3    H262855   3.225  -0.016   2.300
13814TIP3   OH262856   2.047   1.695   2.222
13814TIP3    H162857   1.963   1.687   2.177
13814TIP3    H262858   2.060   1.789   2.231
13815TIP3   OH262859   2.210   0.265   2.018
13815TIP3    H162860   2.249   0.214   1.946
13815TIP3    H262861   2.285   0.293   2.070
13816TIP3   OH262862   2.704   0.301   2.250
13816TIP3    H162863   2.748   0.239   2.309
13816TIP3    H262864   2.718   0.386   2.291
13817TIP3   OH262865   2.922   1.789   2.062
13817TIP3    H162866   3.016   1.804   2.057
13817TIP3    H262867   2.903   1.732   1.988
13818TIP3   OH262868   3.605   1.764   2.359
13818TIP3    H162869   3.581   1.675   2.332
13818TIP3    H262870   3.578   1.819   2.285
13819TIP3   OH262871   2.115   0.197   3.493
13819TIP3    H162872   2.037   0.154   3.529
13819TIP3    H262873   2.188   0.161   3.545
13820TIP3   OH262874   2.289   0.111   3.690
13820TIP3    H162875   2.380   0.082   3.704
13820TIP3    H262876   2.238   0.030   3.694
13821TIP3   OH262877   2.209   1.745   1.927
13821TIP3    H162878   2.185   1.724   2.017
13821TIP3    H262879   2.290   1.696   1.912
13822TIP3   OH262880   3.158   0.090   3.713
13822TIP3    H162881   3.075   0.045   3.726
13822TIP3    H262882   3.224   0.027   3.741
13823TIP3   OH262883   3.497   1.630   3.562
13823TIP3    H162884   3.431   1.623   3.493
13823TIP3    H262885   3.489   1.719   3.595
13824TIP3   OH262886   4.946   1.030   2.530
13824TIP3    H162887   4.946   1.109   2.585
13824TIP3    H262888   4.887   0.970   2.576
13825TIP3   OH262889   4.851   0.938   2.917
13825TIP3    H162890   4.873   0.908   3.005
13825TIP3    H262891   4.802   0.866   2.879
13826TIP3   OH262892   4.068   0.895   3.067
13826TIP3    H162893   4.070   0.814   3.117
13826TIP3    H262894   4.139   0.948   3.103
13827TIP3   OH262895   5.211   1.248   2.756
13827TIP3    H162896   5.188   1.171   2.808
13827TIP3    H262897   5.237   1.314   2.820
13828TIP3   OH262898   4.211   1.352   2.865
13828TIP3    H162899   4.178   1.264   2.851
13828TIP3    H262900   4.302   1.340   2.892
13829TIP3   OH262901   3.802   0.646   2.456
13829TIP3    H162902   3.765   0.735   2.460
13829TIP3    H262903   3.868   0.651   2.387
13830TIP3   OH262904   3.898   0.924   2.687
13830TIP3    H162905   3.927   0.835   2.705
13830TIP3    H262906   3.979   0.973   2.674
13831TIP3   OH262907   4.956   1.743   2.794
13831TIP3    H162908   4.995   1.677   2.737
13831TIP3    H262909   4.916   1.693   2.866
13832TIP3   OH262910   4.698   1.184   2.952
13832TIP3    H162911   4.736   1.102   2.920
13832TIP3    H262912   4.763   1.219   3.013
13833TIP3   OH262913   5.586   0.341   3.036
13833TIP3    H162914   5.602   0.403   3.108
13833TIP3    H262915   5.648   0.367   2.968
13834TIP3   OH262916   5.007   0.613   2.951
13834TIP3    H162917   5.030   0.522   2.971
13834TIP3    H262918   4.979   0.611   2.859
13835TIP3   OH262919   4.339   0.433   2.688
13835TIP3    H162920   4.340   0.520   2.649
13835TIP3    H262921   4.302   0.377   2.620
13836TIP3   OH262922   5.134   0.449   2.530
13836TIP3    H162923   5.179   0.422   2.610
13836TIP3    H262924   5.203   0.487   2.475
13837TIP3   OH262925   3.972   0.664   2.758
13837TIP3    H162926   4.044   0.636   2.815
13837TIP3    H262927   3.995   0.629   2.672
13838TIP3   OH262928   4.489   0.830   2.717
13838TIP3    H162929   4.569   0.788   2.747
13838TIP3    H262930   4.443   0.763   2.667
13839TIP3   OH262931   5.613   0.499   3.261
13839TIP3    H162932   5.537   0.555   3.248
13839TIP3    H262933   5.632   0.505   3.355
13840TIP3   OH262934   4.200   0.350   3.113
13840TIP3    H162935   4.174   0.406   3.040
13840TIP3    H262936   4.129   0.359   3.176
13841TIP3   OH262937   4.919   1.307   2.423
13841TIP3    H162938   4.860   1.364   2.375
13841TIP3    H262939   4.943   1.356   2.501
13842TIP3   OH262940   4.472   1.104   3.098
13842TIP3    H162941   4.419   1.175   3.132
13842TIP3    H262942   4.545   1.147   3.053
13843TIP3   OH262943   5.245   0.402   2.773
13843TIP3    H162944   5.184   0.381   2.843
13843TIP3    H262945   5.309   0.461   2.814
13844TIP3   OH262946   4.170   0.516   2.891
13844TIP3    H162947   4.225   0.572   2.946
13844TIP3    H262948   4.229   0.481   2.825
13845TIP3   OH262949   4.318   1.312   3.198
13845TIP3    H162950   4.326   1.407   3.188
13845TIP3    H262951   4.228   1.298   3.227
13846TIP3   OH262952   3.891   1.293   2.284
13846TIP3    H162953   3.881   1.337   2.200
13846TIP3    H262954   3.913   1.364   2.345
13847TIP3   OH262955   5.262   1.453   2.948
13847TIP3    H162956   5.168   1.455   2.970
13847TIP3    H262957   5.284   1.544   2.929
13848TIP3   OH262958   5.329   0.286   3.129
13848TIP3    H162959   5.256   0.319   3.075
13848TIP3    H262960   5.407   0.309   3.079
13849TIP3   OH262961   4.540   0.037   2.828
13849TIP3    H162962   4.565  -0.041   2.877
13849TIP3    H262963   4.480   0.084   2.886
13850TIP3   OH262964   5.086   1.603   2.587
13850TIP3    H162965   5.132   1.522   2.566
13850TIP3    H262966   5.154   1.671   2.586
13851TIP3   OH262967   5.209   1.372   2.512
13851TIP3    H162968   5.203   1.303   2.446
13851TIP3    H262969   5.221   1.325   2.594
13852TIP3   OH262970   5.377   1.246   3.313
13852TIP3    H162971   5.370   1.186   3.239
13852TIP3    H262972   5.391   1.332   3.273
13853TIP3   OH262973   4.792   0.936   2.259
13853TIP3    H162974   4.712   0.988   2.263
13853TIP3    H262975   4.785   0.888   2.177
13854TIP3   OH262976   4.862   0.817   1.996
13854TIP3    H162977   4.934   0.848   2.051
13854TIP3    H262978   4.900   0.745   1.945
13855TIP3   OH262979   5.542   0.896   3.148
13855TIP3    H162980   5.471   0.960   3.140
13855TIP3    H262981   5.605   0.921   3.081
13856TIP3   OH262982   5.180   0.946   2.407
13856TIP3    H162983   5.111   0.955   2.473
13856TIP3    H262984   5.249   0.897   2.451
13857TIP3   OH262985   5.147   0.766   3.339
13857TIP3    H162986   5.148   0.838   3.402
13857TIP3    H262987   5.084   0.793   3.272
13858TIP3   OH262988   4.318   1.004   2.577
13858TIP3    H162989   4.289   0.963   2.495
13858TIP3    H262990   4.378   0.941   2.616
13859TIP3   OH262991   4.498   1.370   2.852
13859TIP3    H162992   4.496   1.370   2.756
13859TIP3    H262993   4.569   1.311   2.874
13860TIP3   OH262994   4.355   0.905   2.949
13860TIP3    H162995   4.409   0.890   2.871
13860TIP3    H262996   4.400   0.975   2.996
13861TIP3   OH262997   5.002   1.458   3.027
13861TIP3    H162998   4.985   1.533   3.084
13861TIP3    H262999   4.959   1.385   3.071
13862TIP3   OH263000   4.475   1.340   3.427
13862TIP3    H163001   4.414   1.398   3.472
13862TIP3    H263002   4.428   1.312   3.348
13863TIP3   OH263003   5.075   0.907   2.156
13863TIP3    H163004   5.134   0.918   2.231
13863TIP3    H263005   5.128   0.928   2.080
13864TIP3   OH263006   4.141   0.915   3.397
13864TIP3    H163007   4.158   0.998   3.442
13864TIP3    H263008   4.049   0.919   3.372
13865TIP3   OH263009   4.827   1.562   2.504
13865TIP3    H163010   4.912   1.586   2.542
13865TIP3    H263011   4.795   1.643   2.464
13866TIP3   OH263012   4.274   1.514   3.500
13866TIP3    H163013   4.269   1.549   3.411
13866TIP3    H263014   4.183   1.504   3.526
13867TIP3   OH263015   5.419   0.035   2.140
13867TIP3    H163016   5.337   0.061   2.182
13867TIP3    H263017   5.458   0.117   2.110
13868TIP3   OH263018   4.229   0.905   2.316
13868TIP3    H163019   4.170   0.973   2.283
13868TIP3    H263020   4.182   0.823   2.298
13869TIP3   OH263021   5.559   1.489   2.012
13869TIP3    H163022   5.576   1.583   2.014
13869TIP3    H263023   5.646   1.450   2.006
13870TIP3   OH263024   3.839   1.172   3.248
13870TIP3    H163025   3.786   1.187   3.170
13870TIP3    H263026   3.850   1.077   3.252
13871TIP3   OH263027   3.806   1.477   2.936
13871TIP3    H163028   3.885   1.481   2.989
13871TIP3    H263029   3.756   1.555   2.961
13872TIP3   OH263030   5.628   1.524   3.514
13872TIP3    H163031   5.616   1.429   3.508
13872TIP3    H263032   5.544   1.557   3.545
13873TIP3   OH263033   4.712   1.470   3.373
13873TIP3    H163034   4.711   1.552   3.422
13873TIP3    H263035   4.628   1.429   3.394
13874TIP3   OH263036   4.803   1.810   2.366
13874TIP3    H163037   4.774   1.812   2.275
13874TIP3    H263038   4.770   1.892   2.403
13875TIP3   OH263039   4.145   1.704   2.547
13875TIP3    H163040   4.162   1.675   2.636
13875TIP3    H263041   4.086   1.638   2.511
13876TIP3   OH263042   5.086   1.777   2.039
13876TIP3    H163043   5.136   1.704   2.001
13876TIP3    H263044   5.097   1.767   2.133
13877TIP3   OH263045   5.069   1.756   2.316
13877TIP3    H163046   4.977   1.766   2.340
13877TIP3    H263047   5.108   1.708   2.389
13878TIP3   OH263048   5.326   0.645   3.546
13878TIP3    H163049   5.262   0.680   3.484
13878TIP3    H263050   5.335   0.553   3.521
13879TIP3   OH263051   4.065   1.319   3.307
13879TIP3    H163052   4.085   1.292   3.397
13879TIP3    H263053   3.984   1.273   3.285
13880TIP3   OH263054   4.337   0.146   2.978
13880TIP3    H163055   4.262   0.146   2.919
13880TIP3    H263056   4.315   0.211   3.045
13881TIP3   OH263057   4.776   0.127   3.320
13881TIP3    H163058   4.847   0.083   3.366
13881TIP3    H263059   4.708   0.139   3.387
13882TIP3   OH263060   5.077   0.496   3.344
13882TIP3    H163061   5.016   0.483   3.417
13882TIP3    H263062   5.093   0.590   3.342
13883TIP3   OH263063   5.210   0.955   1.930
13883TIP3    H163064   5.185   0.965   1.838
13883TIP3    H263065   5.303   0.979   1.932
13884TIP3   OH263066   4.750   0.376   2.038
13884TIP3    H163067   4.690   0.356   2.110
13884TIP3    H263068   4.723   0.319   1.966
13885TIP3   OH263069   4.326   0.661   3.070
13885TIP3    H163070   4.257   0.666   3.136
13885TIP3    H263071   4.331   0.749   3.034
13886TIP3   OH263072   4.328   0.674   2.561
13886TIP3    H163073   4.233   0.665   2.552
13886TIP3    H263074   4.362   0.651   2.474
13887TIP3   OH263075   4.890   0.726   2.428
13887TIP3    H163076   4.857   0.801   2.379
13887TIP3    H263077   4.959   0.690   2.372
13888TIP3   OH263078   4.802   0.720   3.542
13888TIP3    H163079   4.749   0.653   3.586
13888TIP3    H263080   4.887   0.717   3.587
13889TIP3   OH263081   4.970   0.621   2.677
13889TIP3    H163082   4.930   0.671   2.605
13889TIP3    H263083   5.020   0.553   2.633
13890TIP3   OH263084   4.100   0.667   3.231
13890TIP3    H163085   4.082   0.722   3.306
13890TIP3    H263086   4.060   0.583   3.253
13891TIP3   OH263087   4.391   0.354   1.898
13891TIP3    H163088   4.380   0.360   1.993
13891TIP3    H263089   4.359   0.438   1.865
13892TIP3   OH263090   3.776   0.396   2.592
13892TIP3    H163091   3.832   0.399   2.670
13892TIP3    H263092   3.779   0.485   2.557
13893TIP3   OH263093   3.824   0.452   2.160
13893TIP3    H163094   3.908   0.495   2.175
13893TIP3    H263095   3.759   0.522   2.175
13894TIP3   OH263096   4.932   0.790   3.145
13894TIP3    H163097   4.965   0.730   3.078
13894TIP3    H263098   4.868   0.739   3.194
13895TIP3   OH263099   4.617   0.451   2.647
13895TIP3    H163100   4.525   0.442   2.673
13895TIP3    H263101   4.660   0.375   2.686
13896TIP3   OH263102   4.081   0.549   2.535
13896TIP3    H163103   4.062   0.585   2.448
13896TIP3    H263104   4.118   0.462   2.518
13897TIP3   OH263105   4.427   0.581   2.328
13897TIP3    H163106   4.522   0.578   2.335
13897TIP3    H263107   4.410   0.617   2.241
13898TIP3   OH263108   5.066   0.333   2.968
13898TIP3    H163109   5.009   0.332   3.045
13898TIP3    H263110   5.030   0.266   2.910
13899TIP3   OH263111   4.378   0.647   2.071
13899TIP3    H163112   4.288   0.656   2.043
13899TIP3    H263113   4.429   0.693   2.005
13900TIP3   OH263114   5.375   1.899   3.616
13900TIP3    H163115   5.398   1.932   3.529
13900TIP3    H263116   5.447   1.927   3.672
13901TIP3   OH263117   4.144   1.151   3.549
13901TIP3    H163118   4.208   1.153   3.620
13901TIP3    H263119   4.060   1.166   3.592
13902TIP3   OH263120   4.712   0.708   2.829
13902TIP3    H163121   4.758   0.639   2.781
13902TIP3    H263122   4.676   0.663   2.906
13903TIP3   OH263123   4.217   0.316   2.465
13903TIP3    H163124   4.183   0.227   2.458
13903TIP3    H263125   4.248   0.337   2.377
13904TIP3   OH263126   4.601   0.597   3.058
13904TIP3    H163127   4.514   0.635   3.073
13904TIP3    H263128   4.650   0.617   3.137
13905TIP3   OH263129   4.596   1.127   2.246
13905TIP3    H163130   4.521   1.092   2.198
13905TIP3    H263131   4.561   1.153   2.331
13906TIP3   OH263132   5.351   1.088   3.087
13906TIP3    H163133   5.414   1.141   3.038
13906TIP3    H263134   5.280   1.072   3.025
13907TIP3   OH263135   5.007   0.413   2.113
13907TIP3    H163136   4.915   0.411   2.089
13907TIP3    H263137   5.020   0.499   2.154
13908TIP3   OH263138   4.780   1.178   3.385
13908TIP3    H163139   4.804   1.142   3.470
13908TIP3    H263140   4.750   1.267   3.404
13909TIP3   OH263141   5.088   0.638   2.254
13909TIP3    H163142   5.175   0.611   2.284
13909TIP3    H263143   5.103   0.719   2.206
13910TIP3   OH263144   4.171   1.077   2.804
13910TIP3    H163145   4.221   1.062   2.723
13910TIP3    H263146   4.202   1.011   2.865
13911TIP3   OH263147   4.820   1.249   2.154
13911TIP3    H163148   4.806   1.344   2.159
13911TIP3    H263149   4.735   1.211   2.172
13912TIP3   OH263150   3.871   0.894   3.330
13912TIP3    H163151   3.836   0.858   3.412
13912TIP3    H263152   3.803   0.877   3.265
13913TIP3   OH263153   4.587   0.901   3.570
13913TIP3    H163154   4.522   0.856   3.515
13913TIP3    H263155   4.669   0.857   3.552
13914TIP3   OH263156   4.993   1.447   3.368
13914TIP3    H163157   4.899   1.452   3.351
13914TIP3    H263158   5.001   1.464   3.462
13915TIP3   OH263159   5.535   0.674   2.197
13915TIP3    H163160   5.492   0.653   2.113
13915TIP3    H263161   5.564   0.764   2.186
13916TIP3   OH263162   5.596   1.243   3.478
13916TIP3    H163163   5.506   1.253   3.446
13916TIP3    H263164   5.648   1.228   3.399
13917TIP3   OH263165   5.417   1.532   2.251
13917TIP3    H163166   5.386   1.452   2.294
13917TIP3    H263167   5.457   1.501   2.170
13918TIP3   OH263168   5.141   1.018   2.900
13918TIP3    H163169   5.048   1.005   2.913
13918TIP3    H263170   5.172   0.935   2.863
13919TIP3   OH263171   4.407   1.444   2.580
13919TIP3    H163172   4.427   1.528   2.540
13919TIP3    H263173   4.317   1.452   2.611
13920TIP3   OH263174   3.935   0.988   1.981
13920TIP3    H163175   3.997   1.015   2.049
13920TIP3    H263176   3.864   0.945   2.028
13921TIP3   OH263177   4.489   1.201   2.480
13921TIP3    H163178   4.467   1.288   2.516
13921TIP3    H263179   4.428   1.142   2.523
13922TIP3   OH263180   4.604   1.619   3.156
13922TIP3    H163181   4.662   1.692   3.136
13922TIP3    H263182   4.654   1.564   3.216
13923TIP3   OH263183   4.408   1.705   2.464
13923TIP3    H163184   4.315   1.717   2.483
13923TIP3    H263185   4.450   1.783   2.501
13924TIP3   OH263186   4.903   1.217   3.142
13924TIP3    H163187   4.854   1.202   3.223
13924TIP3    H263188   4.989   1.178   3.159
13925TIP3   OH263189   5.190   1.322   2.028
13925TIP3    H163190   5.192   1.275   2.111
13925TIP3    H263191   5.105   1.299   1.990
13926TIP3   OH263192   5.199   1.646   3.344
13926TIP3    H163193   5.119   1.595   3.330
13926TIP3    H263194   5.193   1.718   3.281
13927TIP3   OH263195   5.609   1.759   2.046
13927TIP3    H163196   5.674   1.828   2.030
13927TIP3    H263197   5.530   1.805   2.072
13928TIP3   OH263198   3.989   0.405   3.284
13928TIP3    H163199   3.899   0.435   3.274
13928TIP3    H263200   3.985   0.337   3.351
13929TIP3   OH263201   5.239   1.173   2.272
13929TIP3    H163202   5.229   1.093   2.324
13929TIP3    H263203   5.333   1.183   2.261
13930TIP3   OH263204   3.998   1.571   3.136
13930TIP3    H163205   4.029   1.494   3.184
13930TIP3    H263206   3.995   1.641   3.202
13931TIP3   OH263207   4.581   1.409   1.889
13931TIP3    H163208   4.576   1.325   1.843
13931TIP3    H263209   4.530   1.396   1.969
13932TIP3   OH263210   4.436   1.398   2.126
13932TIP3    H163211   4.459   1.344   2.202
13932TIP3    H263212   4.452   1.488   2.155
13933TIP3   OH263213   4.081   1.110   2.194
13933TIP3    H163214   4.012   1.155   2.242
13933TIP3    H263215   4.126   1.180   2.146
13934TIP3   OH263216   4.907   0.341   3.188
13934TIP3    H163217   4.968   0.379   3.251
13934TIP3    H263218   4.861   0.274   3.237
13935TIP3   OH263219   4.989   0.283   2.358
13935TIP3    H163220   4.995   0.324   2.272
13935TIP3    H263221   5.034   0.345   2.417
13936TIP3   OH263222   4.754   1.513   2.184
13936TIP3    H163223   4.667   1.544   2.206
13936TIP3    H263224   4.803   1.591   2.159
13937TIP3   OH263225   4.689   0.533   2.397
13937TIP3    H163226   4.759   0.597   2.409
13937TIP3    H263227   4.665   0.507   2.486
13938TIP3   OH263228   4.765   0.619   3.285
13938TIP3    H163229   4.773   0.653   3.374
13938TIP3    H263230   4.797   0.529   3.290
13939TIP3   OH263231   4.755   0.176   2.457
13939TIP3    H163232   4.756   0.208   2.547
13939TIP3    H263233   4.837   0.209   2.419
13940TIP3   OH263234   4.508   1.645   2.216
13940TIP3    H163235   4.507   1.729   2.169
13940TIP3    H263236   4.473   1.666   2.302
13941TIP3   OH263237   4.330   0.351   2.176
13941TIP3    H163238   4.309   0.443   2.193
13941TIP3    H263239   4.419   0.341   2.210
13942TIP3   OH263240   5.331   0.405   3.392
13942TIP3    H163241   5.238   0.424   3.380
13942TIP3    H263242   5.359   0.370   3.307
13943TIP3   OH263243   5.213   0.767   2.785
13943TIP3    H163244   5.129   0.722   2.781
13943TIP3    H263245   5.267   0.713   2.843
13944TIP3   OH263246   4.182   1.322   2.037
13944TIP3    H163247   4.258   1.369   2.072
13944TIP3    H263248   4.219   1.264   1.970
13945TIP3   OH263249   3.976   0.649   1.939
13945TIP3    H163250   4.016   0.658   2.025
13945TIP3    H263251   3.883   0.637   1.957
13946TIP3   OH263252   5.344   1.721   2.943
13946TIP3    H163253   5.332   1.793   2.881
13946TIP3    H263254   5.438   1.718   2.959
13947TIP3   OH263255   4.064   0.098   2.901
13947TIP3    H163256   4.119   0.038   2.850
13947TIP3    H263257   4.056   0.057   2.987
13948TIP3   OH263258   3.951   1.529   2.436
13948TIP3    H163259   3.893   1.558   2.506
13948TIP3    H263260   3.937   1.591   2.365
13949TIP3   OH263261   3.914   1.801   3.611
13949TIP3    H163262   3.978   1.778   3.679
13949TIP3    H263263   3.874   1.717   3.588
13950TIP3   OH263264   4.342   1.629   3.744
13950TIP3    H163265   4.422   1.585   3.772
13950TIP3    H263266   4.323   1.591   3.657
13951TIP3   OH263267   4.769   1.607   1.866
13951TIP3    H163268   4.705   1.537   1.880
13951TIP3    H263269   4.846   1.562   1.832
13952TIP3   OH263270   5.003   1.491   3.637
13952TIP3    H163271   4.980   1.411   3.685
13952TIP3    H263272   5.076   1.528   3.687
13953TIP3   OH263273   5.215   1.573   1.907
13953TIP3    H163274   5.227   1.493   1.958
13953TIP3    H263275   5.289   1.575   1.847
13954TIP3   OH263276   3.894   1.168   3.671
13954TIP3    H163277   3.891   1.072   3.667
13954TIP3    H263278   3.819   1.196   3.617
13955TIP3   OH263279   4.316   1.139   1.885
13955TIP3    H163280   4.336   1.086   1.961
13955TIP3    H263281   4.401   1.150   1.841
13956TIP3   OH263282   4.557   1.176   3.634
13956TIP3    H163283   4.535   1.219   3.552
13956TIP3    H263284   4.579   1.087   3.609
13957TIP3   OH263285   4.946   1.268   1.908
13957TIP3    H163286   4.887   1.264   1.983
13957TIP3    H263287   4.928   1.187   1.860
13958TIP3   OH263288   5.113   1.191   3.371
13958TIP3    H163289   5.205   1.216   3.360
13958TIP3    H263290   5.066   1.274   3.371
13959TIP3   OH263291   3.957   0.897   3.652
13959TIP3    H163292   4.043   0.866   3.623
13959TIP3    H263293   3.962   0.894   3.748
13960TIP3   OH263294   4.403   0.991   2.109
13960TIP3    H163295   4.347   0.949   2.174
13960TIP3    H263296   4.449   0.919   2.065
13961TIP3   OH263297   4.373   0.751   3.410
13961TIP3    H163298   4.297   0.808   3.403
13961TIP3    H263299   4.434   0.784   3.343
13962TIP3   OH263300   4.568   0.827   1.952
13962TIP3    H163301   4.560   0.855   1.861
13962TIP3    H263302   4.662   0.813   1.965
13963TIP3   OH263303   4.885   1.031   3.673
13963TIP3    H163304   4.971   1.000   3.644
13963TIP3    H263305   4.855   0.964   3.735
13964TIP3   OH263306   5.473   1.030   1.899
13964TIP3    H163307   5.473   1.004   1.807
13964TIP3    H263308   5.466   1.125   1.898
13965TIP3   OH263309   4.426   0.472   3.447
13965TIP3    H163310   4.451   0.450   3.358
13965TIP3    H263311   4.408   0.566   3.445
13966TIP3   OH263312   4.465   0.385   3.188
13966TIP3    H163313   4.518   0.436   3.127
13966TIP3    H263314   4.376   0.390   3.153
13967TIP3   OH263315   4.552   0.880   3.243
13967TIP3    H163316   4.644   0.899   3.261
13967TIP3    H263317   4.519   0.957   3.197
13968TIP3   OH263318   5.031   0.662   3.707
13968TIP3    H163319   5.057   0.570   3.711
13968TIP3    H263320   5.110   0.711   3.728
13969TIP3   OH263321   5.174   0.972   3.527
13969TIP3    H163322   5.143   1.049   3.479
13969TIP3    H263323   5.270   0.979   3.523
13970TIP3   OH263324   4.246   0.615   3.674
13970TIP3    H163325   4.165   0.565   3.665
13970TIP3    H263326   4.255   0.661   3.590
13971TIP3   OH263327   4.446   0.169   3.355
13971TIP3    H163328   4.462   0.240   3.293
13971TIP3    H263329   4.459   0.089   3.304
13972TIP3   OH263330   4.657   0.512   3.643
13972TIP3    H163331   4.661   0.485   3.735
13972TIP3    H263332   4.568   0.492   3.616
13973TIP3   OH263333   4.890   0.420   3.524
13973TIP3    H163334   4.807   0.442   3.565
13973TIP3    H263335   4.947   0.394   3.596
13974TIP3   OH263336   5.081   0.375   3.732
13974TIP3    H163337   5.074   0.281   3.716
13974TIP3    H263338   5.060   0.385   3.825
13975TIP3   OH263339   4.059   0.407   3.646
13975TIP3    H163340   4.037   0.326   3.599
13975TIP3    H263341   4.052   0.383   3.739
13976TIP3   OH263342   4.576   7.284   3.553
13976TIP3    H163343   4.566   7.219   3.623
13976TIP3    H263344   4.492   7.285   3.508
13977TIP3   OH263345   4.618   0.201   3.729
13977TIP3    H163346   4.642   0.124   3.678
13977TIP3    H263347   4.543   0.172   3.781
13978TIP3   OH263348   4.560   1.886   2.084
13978TIP3    H163349   4.650   1.855   2.079
13978TIP3    H263350   4.554   1.952   2.015
13979TIP3   OH263351   3.915   1.373   2.005
13979TIP3    H163352   4.008   1.368   2.025
13979TIP3    H263353   3.900   1.306   1.938
13980TIP3   OH263354   3.786   1.857   2.540
13980TIP3    H163355   3.729   1.827   2.469
13980TIP3    H263356   3.800   1.780   2.594
13981TIP3   OH263357   3.852   1.636   2.693
13981TIP3    H163358   3.813   1.561   2.738
13981TIP3    H263359   3.900   1.683   2.761
13982TIP3   OH263360   5.611   1.727   3.014
13982TIP3    H163361   5.610   1.735   3.110
13982TIP3    H263362   5.689   1.774   2.987
13983TIP3   OH263363   5.552   1.702   3.292
13983TIP3    H163364   5.499   1.632   3.254
13983TIP3    H263365   5.600   1.659   3.363
13984TIP3   OH263366   5.403   1.291   3.767
13984TIP3    H163367   5.320   1.299   3.814
13984TIP3    H263368   5.459   1.359   3.805
13985TIP3   OH263369   5.526   1.134   2.304
13985TIP3    H163370   5.601   1.193   2.300
13985TIP3    H263371   5.546   1.074   2.376
13986TIP3   OH263372   5.595   0.934   2.490
13986TIP3    H163373   5.518   0.891   2.527
13986TIP3    H263374   5.653   0.946   2.565
13987TIP3   OH263375   5.579   1.216   3.000
13987TIP3    H163376   5.634   1.146   2.964
13987TIP3    H263377   5.613   1.296   2.961
13988TIP3   OH263378   5.387   1.497   3.199
13988TIP3    H163379   5.314   1.540   3.244
13988TIP3    H263380   5.354   1.479   3.111
13989TIP3   OH263381   5.598   0.933   2.124
13989TIP3    H163382   5.555   0.960   2.042
13989TIP3    H263383   5.575   1.001   2.187
13990TIP3   OH263384   5.421   0.640   1.950
13990TIP3    H163385   5.406   0.697   1.875
13990TIP3    H263386   5.412   0.551   1.915
13991TIP3   OH263387   5.356   0.791   2.549
13991TIP3    H163388   5.363   0.700   2.519
13991TIP3    H263389   5.317   0.785   2.636
13992TIP3   OH263390   3.839   0.985   2.948
13992TIP3    H163391   3.850   0.973   2.853
13992TIP3    H263392   3.925   0.963   2.985
13993TIP3   OH263393   5.453   0.984   3.517
13993TIP3    H163394   5.506   0.906   3.501
13993TIP3    H263395   5.506   1.057   3.486
13994TIP3   OH263396   5.578   0.740   3.496
13994TIP3    H163397   5.490   0.709   3.517
13994TIP3    H263398   5.635   0.666   3.516
13995TIP3   OH263399   5.375   0.390   1.847
13995TIP3    H163400   5.422   0.335   1.910
13995TIP3    H263401   5.284   0.364   1.855
13996TIP3   OH263402   5.340   0.552   2.364
13996TIP3    H163403   5.369   0.461   2.370
13996TIP3    H263404   5.408   0.596   2.313
13997TIP3   OH263405   5.374   0.592   2.931
13997TIP3    H163406   5.466   0.608   2.912
13997TIP3    H263407   5.366   0.606   3.025
13998TIP3   OH263408   5.392   0.670   3.199
13998TIP3    H163409   5.314   0.702   3.246
13998TIP3    H263410   5.446   0.748   3.188
13999TIP3   OH263411   3.818   0.502   3.535
13999TIP3    H163412   3.900   0.488   3.582
13999TIP3    H263413   3.768   0.422   3.552
14000TIP3   OH263414   5.674   0.102   3.725
14000TIP3    H163415   5.652   0.009   3.713
14000TIP3    H263416   5.631   0.146   3.652
14001TIP3   OH263417   5.397   0.282   2.390
14001TIP3    H163418   5.419   0.241   2.474
14001TIP3    H263419   5.333   0.223   2.351
14002TIP3   OH263420   3.943   0.331   2.821
14002TIP3    H163421   3.998   0.270   2.870
14002TIP3    H263422   3.981   0.417   2.838
14003TIP3   OH263423   3.751   0.624   2.925
14003TIP3    H163424   3.819   0.645   2.860
14003TIP3    H263425   3.754   0.696   2.987
14004TIP3   OH263426   5.538   0.245   3.530
14004TIP3    H163427   5.469   0.300   3.566
14004TIP3    H263428   5.509   0.226   3.440
14005TIP3   OH263429   5.544   0.260   2.030
14005TIP3    H163430   5.600   0.207   1.974
14005TIP3    H263431   5.604   0.323   2.071
14006TIP3   OH263432   3.818   0.259   2.357
14006TIP3    H163433   3.797   0.315   2.432
14006TIP3    H263434   3.818   0.319   2.282
14007TIP3   OH263435   5.267   1.798   2.548
14007TIP3    H163436   5.343   1.795   2.489
14007TIP3    H263437   5.299   1.843   2.626
14008TIP3   OH263438   3.809   0.104   3.124
14008TIP3    H163439   3.750   0.092   3.198
14008TIP3    H263440   3.786   0.190   3.089
14009TIP3   OH263441   4.015   1.485   3.598
14009TIP3    H163442   3.927   1.500   3.562
14009TIP3    H263443   4.000   1.459   3.689
14010TIP3   OH263444   4.338   1.589   3.227
14010TIP3    H163445   4.305   1.675   3.204
14010TIP3    H263446   4.433   1.594   3.212
14011TIP3   OH263447   4.721   1.713   3.506
14011TIP3    H163448   4.729   1.682   3.596
14011TIP3    H263449   4.801   1.762   3.490
14012TIP3   OH263450   4.958   1.849   3.470
14012TIP3    H163451   5.026   1.792   3.435
14012TIP3    H263452   4.997   1.886   3.550
14013TIP3   OH263453   5.450   0.106   3.298
14013TIP3    H163454   5.399   0.161   3.238
14013TIP3    H263455   5.423   0.017   3.276
14014TIP3   OH263456   4.037   1.896   3.245
14014TIP3    H163457   3.955   1.928   3.208
14014TIP3    H263458   4.043   1.939   3.331
14015TIP3   OH263459   4.294   1.854   3.159
14015TIP3    H163460   4.204   1.868   3.188
14015TIP3    H263461   4.300   1.901   3.076
14016TIP3   OH263462   4.753   1.837   3.063
14016TIP3    H163463   4.698   1.875   2.994
14016TIP3    H263464   4.762   1.907   3.127
14017TIP3   OH263465   4.979   1.705   3.149
14017TIP3    H163466   4.901   1.751   3.120
14017TIP3    H263467   5.049   1.770   3.141
14018TIP3   OH263468   5.218   1.852   3.152
14018TIP3    H163469   5.243   1.943   3.139
14018TIP3    H263470   5.261   1.805   3.080
14019TIP3   OH263471   4.009   1.741   2.905
14019TIP3    H163472   3.992   1.695   2.987
14019TIP3    H263473   4.088   1.699   2.870
14020TIP3   OH263474   4.224   1.614   2.795
14020TIP3    H163475   4.209   1.524   2.823
14020TIP3    H263476   4.309   1.637   2.833
14021TIP3   OH263477   4.481   1.645   2.906
14021TIP3    H163478   4.493   1.555   2.878
14021TIP3    H263479   4.510   1.646   2.997
14022TIP3   OH263480   4.734   0.219   2.732
14022TIP3    H163481   4.677   0.158   2.780
14022TIP3    H263482   4.822   0.197   2.761
14023TIP3   OH263483   5.277   0.046   2.768
14023TIP3    H163484   5.354   0.065   2.714
14023TIP3    H263485   5.271   0.121   2.828
14024TIP3   OH263486   5.485   0.136   2.613
14024TIP3    H163487   5.553   0.073   2.588
14024TIP3    H263488   5.533   0.215   2.637
14025TIP3   OH263489   3.956   0.085   2.550
14025TIP3    H163490   3.935   0.147   2.480
14025TIP3    H263491   3.965   0.001   2.505
14026TIP3   OH263492   3.955   0.072   2.205
14026TIP3    H163493   4.006   0.122   2.141
14026TIP3    H263494   3.897   0.137   2.245
14027TIP3   OH263495   4.523   0.045   2.538
14027TIP3    H163496   4.603   0.087   2.508
14027TIP3    H263497   4.525   0.055   2.633
14028TIP3   OH263498   4.998   0.151   2.765
14028TIP3    H163499   5.048   0.177   2.687
14028TIP3    H263500   5.017   0.058   2.776
14029TIP3   OH263501   5.200   0.102   2.310
14029TIP3    H163502   5.121   0.155   2.308
14029TIP3    H263503   5.183   0.036   2.378
14030TIP3   OH263504   3.924   1.705   2.226
14030TIP3    H163505   3.843   1.691   2.177
14030TIP3    H263506   3.940   1.799   2.219
14031TIP3   OH263507   4.102   0.236   2.040
14031TIP3    H163508   4.140   0.205   1.957
14031TIP3    H263509   4.175   0.281   2.084
14032TIP3   OH263510   4.596   0.310   2.264
14032TIP3    H163511   4.641   0.244   2.316
14032TIP3    H263512   4.621   0.394   2.303
14033TIP3   OH263513   4.812   1.776   2.076
14033TIP3    H163514   4.905   1.796   2.065
14033TIP3    H263515   4.789   1.725   1.998
14034TIP3   OH263516   5.472   1.774   2.362
14034TIP3    H163517   5.455   1.686   2.329
14034TIP3    H263518   5.461   1.831   2.286
14035TIP3   OH263519   3.980   0.194   3.482
14035TIP3    H163520   3.895   0.181   3.525
14035TIP3    H263521   4.020   0.108   3.480
14036TIP3   OH263522   4.220   0.121   3.665
14036TIP3    H163523   4.280   0.067   3.718
14036TIP3    H263524   4.142   0.066   3.654
14037TIP3   OH263525   4.102   1.758   1.926
14037TIP3    H163526   4.071   1.742   2.016
14037TIP3    H263527   4.178   1.701   1.917
14038TIP3   OH263528   5.041   0.106   3.707
14038TIP3    H163529   4.959   0.059   3.723
14038TIP3    H263530   5.109   0.044   3.734
14039TIP3   OH263531   5.376   1.627   3.563
14039TIP3    H163532   5.314   1.620   3.491
14039TIP3    H263533   5.371   1.718   3.591
14040TIP3   OH263534   6.841   1.041   2.535
14040TIP3    H163535   6.828   1.135   2.524
14040TIP3    H263536   6.774   1.001   2.479
14041TIP3   OH263537   6.702   0.949   2.917
14041TIP3    H163538   6.726   0.909   3.001
14041TIP3    H263539   6.661   0.878   2.867
14042TIP3   OH263540   5.946   0.876   3.066
14042TIP3    H163541   5.955   0.806   3.130
14042TIP3    H263542   6.036   0.902   3.045
14043TIP3   OH263543   7.107   1.249   2.775
14043TIP3    H163544   7.059   1.181   2.823
14043TIP3    H263545   7.127   1.315   2.841
14044TIP3   OH263546   6.080   1.349   2.861
14044TIP3    H163547   6.051   1.260   2.842
14044TIP3    H263548   6.174   1.340   2.879
14045TIP3   OH263549   5.728   0.690   2.408
14045TIP3    H163550   5.703   0.777   2.439
14045TIP3    H263551   5.664   0.669   2.340
14046TIP3   OH263552   5.794   0.938   2.692
14046TIP3    H163553   5.823   0.849   2.711
14046TIP3    H263554   5.872   0.992   2.706
14047TIP3   OH263555   6.811   1.748   2.787
14047TIP3    H163556   6.840   1.679   2.729
14047TIP3    H263557   6.785   1.703   2.868
14048TIP3   OH263558   6.568   1.197   2.945
14048TIP3    H163559   6.604   1.115   2.910
14048TIP3    H263560   6.637   1.231   3.003
14049TIP3   OH263561   6.886   0.614   2.952
14049TIP3    H163562   6.898   0.521   2.972
14049TIP3    H263563   6.862   0.616   2.860
14050TIP3   OH263564   6.208   0.430   2.691
14050TIP3    H163565   6.219   0.514   2.645
14050TIP3    H263566   6.158   0.376   2.629
14051TIP3   OH263567   6.986   0.449   2.521
14051TIP3    H163568   7.024   0.405   2.597
14051TIP3    H263569   7.061   0.473   2.467
14052TIP3   OH263570   5.873   0.683   2.762
14052TIP3    H163571   5.935   0.642   2.823
14052TIP3    H263572   5.895   0.644   2.677
14053TIP3   OH263573   6.348   0.822   2.737
14053TIP3    H163574   6.433   0.787   2.763
14053TIP3    H263575   6.312   0.756   2.676
14054TIP3   OH263576   6.098   0.335   3.110
14054TIP3    H163577   6.070   0.394   3.039
14054TIP3    H263578   6.029   0.343   3.176
14055TIP3   OH263579   6.800   1.293   2.429
14055TIP3    H163580   6.796   1.295   2.334
14055TIP3    H263581   6.750   1.370   2.457
14056TIP3   OH263582   6.353   1.109   3.095
14056TIP3    H163583   6.303   1.181   3.133
14056TIP3    H263584   6.425   1.152   3.047
14057TIP3   OH263585   7.068   0.351   2.760
14057TIP3    H163586   7.009   0.350   2.836
14057TIP3    H263587   7.146   0.397   2.791
14058TIP3   OH263588   6.053   0.514   2.900
14058TIP3    H163589   6.110   0.570   2.952
14058TIP3    H263590   6.109   0.478   2.831
14059TIP3   OH263591   6.202   1.316   3.202
14059TIP3    H163592   6.210   1.410   3.190
14059TIP3    H263593   6.112   1.303   3.231
14060TIP3   OH263594   5.759   1.291   2.276
14060TIP3    H163595   5.766   1.333   2.190
14060TIP3    H263596   5.787   1.358   2.338
14061TIP3   OH263597   7.149   1.462   2.963
14061TIP3    H163598   7.054   1.460   2.977
14061TIP3    H263599   7.169   1.554   2.946
14062TIP3   OH263600   7.172   0.228   3.011
14062TIP3    H163601   7.083   0.242   3.041
14062TIP3    H263602   7.207   0.316   2.997
14063TIP3   OH263603   6.422   0.051   2.835
14063TIP3    H163604   6.458  -0.003   2.905
14063TIP3    H263605   6.341   0.087   2.871
14064TIP3   OH263606   6.923   1.574   2.606
14064TIP3    H163607   6.964   1.489   2.587
14064TIP3    H263608   6.996   1.636   2.605
14065TIP3   OH263609   7.088   1.369   2.529
14065TIP3    H163610   7.045   1.306   2.471
14065TIP3    H263611   7.105   1.320   2.609
14066TIP3   OH263612   7.254   1.234   3.400
14066TIP3    H163613   7.307   1.181   3.341
14066TIP3    H263614   7.248   1.319   3.357
14067TIP3   OH263615   6.703   0.943   2.310
14067TIP3    H163616   6.639   1.009   2.283
14067TIP3    H263617   6.773   0.950   2.245
14068TIP3   OH263618   6.748   0.814   1.967
14068TIP3    H163619   6.803   0.838   2.042
14068TIP3    H263620   6.800   0.749   1.920
14069TIP3   OH263621   7.062   0.966   2.396
14069TIP3    H163622   6.993   0.995   2.455
14069TIP3    H263623   7.113   0.903   2.447
14070TIP3   OH263624   6.992   0.783   3.293
14070TIP3    H163625   6.990   0.865   3.343
14070TIP3    H263626   6.919   0.790   3.232
14071TIP3   OH263627   6.220   1.018   2.582
14071TIP3    H163628   6.199   0.978   2.498
14071TIP3    H263629   6.273   0.951   2.627
14072TIP3   OH263630   6.363   1.368   2.848
14072TIP3    H163631   6.370   1.376   2.752
14072TIP3    H263632   6.438   1.314   2.872
14073TIP3   OH263633   6.207   0.923   2.956
14073TIP3    H163634   6.262   0.896   2.882
14073TIP3    H263635   6.261   0.987   3.004
14074TIP3   OH263636   6.882   1.462   3.023
14074TIP3    H163637   6.863   1.533   3.085
14074TIP3    H263638   6.841   1.385   3.062
14075TIP3   OH263639   6.363   1.343   3.429
14075TIP3    H163640   6.301   1.401   3.474
14075TIP3    H263641   6.316   1.315   3.350
14076TIP3   OH263642   6.942   0.902   2.159
14076TIP3    H163643   6.983   0.931   2.240
14076TIP3    H263644   6.999   0.937   2.090
14077TIP3   OH263645   6.039   0.947   3.385
14077TIP3    H163646   6.045   1.029   3.435
14077TIP3    H263647   5.948   0.943   3.356
14078TIP3   OH263648   6.681   1.541   2.486
14078TIP3    H163649   6.759   1.556   2.539
14078TIP3    H263650   6.665   1.625   2.442
14079TIP3   OH263651   6.159   1.521   3.495
14079TIP3    H163652   6.161   1.550   3.404
14079TIP3    H263653   6.066   1.511   3.515
14080TIP3   OH263654   6.137   0.929   2.323
14080TIP3    H163655   6.075   0.993   2.288
14080TIP3    H263656   6.091   0.845   2.318
14081TIP3   OH263657   5.724   1.178   3.246
14081TIP3    H163658   5.674   1.181   3.165
14081TIP3    H263659   5.738   1.085   3.263
14082TIP3   OH263660   5.709   1.455   2.920
14082TIP3    H163661   5.801   1.444   2.947
14082TIP3    H263662   5.677   1.528   2.973
14083TIP3   OH263663   6.599   1.473   3.374
14083TIP3    H163664   6.596   1.556   3.423
14083TIP3    H263665   6.517   1.429   3.397
14084TIP3   OH263666   6.687   1.800   2.358
14084TIP3    H163667   6.672   1.816   2.265
14084TIP3    H263668   6.663   1.882   2.400
14085TIP3   OH263669   6.022   1.703   2.552
14085TIP3    H163670   6.045   1.673   2.639
14085TIP3    H263671   5.970   1.632   2.514
14086TIP3   OH263672   6.964   1.743   2.041
14086TIP3    H163673   7.014   1.671   2.004
14086TIP3    H263674   6.972   1.732   2.135
14087TIP3   OH263675   6.955   1.721   2.317
14087TIP3    H163676   6.867   1.748   2.344
14087TIP3    H263677   6.994   1.683   2.396
14088TIP3   OH263678   7.180   0.726   3.530
14088TIP3    H163679   7.182   0.713   3.435
14088TIP3    H263680   7.253   0.672   3.563
14089TIP3   OH263681   5.949   1.325   3.313
14089TIP3    H163682   5.974   1.288   3.397
14089TIP3    H263683   5.870   1.276   3.288
14090TIP3   OH263684   6.176   0.120   2.949
14090TIP3    H163685   6.091   0.126   2.906
14090TIP3    H263686   6.176   0.190   3.014
14091TIP3   OH263687   6.661   0.119   3.283
14091TIP3    H163688   6.709   0.075   3.353
14091TIP3    H263689   6.571   0.126   3.316
14092TIP3   OH263690   7.000   0.498   3.357
14092TIP3    H163691   6.934   0.484   3.426
14092TIP3    H263692   6.997   0.592   3.341
14093TIP3   OH263693   7.107   1.014   1.973
14093TIP3    H163694   7.087   0.998   1.881
14093TIP3    H263695   7.106   1.109   1.982
14094TIP3   OH263696   6.635   0.376   2.046
14094TIP3    H163697   6.581   0.348   2.119
14094TIP3    H263698   6.603   0.325   1.971
14095TIP3   OH263699   6.215   0.667   3.061
14095TIP3    H163700   6.155   0.667   3.135
14095TIP3    H263701   6.217   0.758   3.031
14096TIP3   OH263702   6.212   0.666   2.550
14096TIP3    H163703   6.117   0.654   2.543
14096TIP3    H263704   6.244   0.647   2.462
14097TIP3   OH263705   6.753   0.698   2.425
14097TIP3    H163706   6.730   0.785   2.391
14097TIP3    H263707   6.827   0.670   2.371
14098TIP3   OH263708   6.684   0.713   3.543
14098TIP3    H163709   6.633   0.643   3.583
14098TIP3    H263710   6.770   0.708   3.585
14099TIP3   OH263711   6.851   0.633   2.683
14099TIP3    H163712   6.809   0.689   2.617
14099TIP3    H263713   6.892   0.563   2.632
14100TIP3   OH263714   5.999   0.657   3.236
14100TIP3    H163715   6.040   0.686   3.318
14100TIP3    H263716   5.960   0.573   3.257
14101TIP3   OH263717   6.254   0.355   1.894
14101TIP3    H163718   6.249   0.357   1.989
14101TIP3    H263719   6.230   0.443   1.866
14102TIP3   OH263720   5.644   0.352   2.639
14102TIP3    H163721   5.698   0.376   2.714
14102TIP3    H263722   5.704   0.355   2.565
14103TIP3   OH263723   5.705   0.457   2.149
14103TIP3    H163724   5.779   0.493   2.099
14103TIP3    H263725   5.650   0.532   2.168
14104TIP3   OH263726   6.770   0.786   3.129
14104TIP3    H163727   6.812   0.728   3.066
14104TIP3    H263728   6.717   0.728   3.184
14105TIP3   OH263729   6.486   0.446   2.648
14105TIP3    H163730   6.397   0.432   2.681
14105TIP3    H263731   6.538   0.376   2.687
14106TIP3   OH263732   5.953   0.575   2.522
14106TIP3    H163733   5.878   0.601   2.470
14106TIP3    H263734   5.970   0.484   2.496
14107TIP3   OH263735   6.279   0.589   2.294
14107TIP3    H163736   6.373   0.582   2.312
14107TIP3    H263737   6.275   0.629   2.207
14108TIP3   OH263738   6.894   0.331   2.972
14108TIP3    H163739   6.849   0.343   3.055
14108TIP3    H263740   6.848   0.259   2.929
14109TIP3   OH263741   6.252   0.676   2.037
14109TIP3    H163742   6.199   0.658   1.959
14109TIP3    H263743   6.328   0.724   2.003
14110TIP3   OH263744   7.234   1.903   3.602
14110TIP3    H163745   7.237   1.975   3.538
14110TIP3    H263746   7.325   1.880   3.615
14111TIP3   OH263747   6.022   1.174   3.549
14111TIP3    H163748   6.090   1.166   3.616
14111TIP3    H263749   5.940   1.176   3.598
14112TIP3   OH263750   6.581   0.704   2.834
14112TIP3    H163751   6.635   0.645   2.781
14112TIP3    H263752   6.552   0.650   2.908
14113TIP3   OH263753   6.052   0.307   2.492
14113TIP3    H163754   6.009   0.226   2.520
14113TIP3    H263755   6.099   0.282   2.412
14114TIP3   OH263756   6.477   0.571   3.061
14114TIP3    H163757   6.392   0.614   3.069
14114TIP3    H263758   6.524   0.596   3.140
14115TIP3   OH263759   6.518   1.138   2.233
14115TIP3    H163760   6.445   1.101   2.183
14115TIP3    H263761   6.479   1.163   2.316
14116TIP3   OH263762   7.203   1.088   3.088
14116TIP3    H163763   7.262   1.063   3.017
14116TIP3    H263764   7.115   1.082   3.050
14117TIP3   OH263765   6.897   0.422   2.094
14117TIP3    H163766   6.802   0.420   2.078
14117TIP3    H263767   6.912   0.504   2.141
14118TIP3   OH263768   6.687   1.182   3.385
14118TIP3    H163769   6.702   1.139   3.469
14118TIP3    H263770   6.656   1.270   3.409
14119TIP3   OH263771   6.966   0.637   2.253
14119TIP3    H163772   7.050   0.618   2.295
14119TIP3    H263773   6.977   0.726   2.218
14120TIP3   OH263774   6.035   1.069   2.781
14120TIP3    H163775   6.095   1.065   2.707
14120TIP3    H263776   6.077   1.019   2.851
14121TIP3   OH263777   6.734   1.288   2.149
14121TIP3    H163778   6.699   1.376   2.158
14121TIP3    H263779   6.663   1.230   2.177
14122TIP3   OH263780   5.759   0.926   3.360
14122TIP3    H163781   5.764   0.897   3.451
14122TIP3    H263782   5.691   0.871   3.322
14123TIP3   OH263783   6.479   0.902   3.565
14123TIP3    H163784   6.423   0.869   3.494
14123TIP3    H263785   6.562   0.856   3.553
14124TIP3   OH263786   6.881   1.444   3.366
14124TIP3    H163787   6.787   1.453   3.349
14124TIP3    H263788   6.890   1.460   3.460
14125TIP3   OH263789   6.979   1.038   2.919
14125TIP3    H163790   6.885   1.027   2.905
14125TIP3    H263791   7.019   0.965   2.873
14126TIP3   OH263792   6.307   1.445   2.581
14126TIP3    H163793   6.336   1.528   2.543
14126TIP3    H263794   6.212   1.451   2.585
14127TIP3   OH263795   5.857   0.904   2.030
14127TIP3    H163796   5.907   0.968   2.081
14127TIP3    H263797   5.769   0.909   2.066
14128TIP3   OH263798   6.378   1.210   2.453
14128TIP3    H163799   6.370   1.294   2.499
14128TIP3    H263800   6.327   1.149   2.505
14129TIP3   OH263801   6.488   1.617   3.154
14129TIP3    H163802   6.545   1.691   3.134
14129TIP3    H263803   6.540   1.562   3.212
14130TIP3   OH263804   6.287   1.707   2.468
14130TIP3    H163805   6.194   1.720   2.489
14130TIP3    H263806   6.330   1.784   2.503
14131TIP3   OH263807   6.779   1.221   3.126
14131TIP3    H163808   6.747   1.205   3.215
14131TIP3    H263809   6.855   1.164   3.117
14132TIP3   OH263810   7.043   1.294   2.037
14132TIP3    H163811   7.088   1.264   2.116
14132TIP3    H263812   6.950   1.295   2.061
14133TIP3   OH263813   7.081   1.649   3.340
14133TIP3    H163814   7.005   1.594   3.322
14133TIP3    H263815   7.077   1.719   3.274
14134TIP3   OH263816   5.894   0.398   3.289
14134TIP3    H163817   5.800   0.414   3.277
14134TIP3    H263818   5.898   0.330   3.355
14135TIP3   OH263819   7.159   1.186   2.255
14135TIP3    H163820   7.139   1.110   2.310
14135TIP3    H263821   7.248   1.211   2.281
14136TIP3   OH263822   5.881   1.592   3.146
14136TIP3    H163823   5.907   1.513   3.192
14136TIP3    H263824   5.900   1.663   3.207
14137TIP3   OH263825   6.439   1.423   1.885
14137TIP3    H163826   6.452   1.338   1.844
14137TIP3    H263827   6.402   1.404   1.971
14138TIP3   OH263828   6.319   1.390   2.134
14138TIP3    H163829   6.367   1.339   2.200
14138TIP3    H263830   6.329   1.481   2.162
14139TIP3   OH263831   5.961   1.106   2.196
14139TIP3    H163832   5.891   1.152   2.241
14139TIP3    H263833   6.009   1.174   2.149
14140TIP3   OH263834   6.780   0.363   3.216
14140TIP3    H163835   6.849   0.381   3.281
14140TIP3    H263836   6.740   0.282   3.246
14141TIP3   OH263837   6.853   0.291   2.339
14141TIP3    H163838   6.870   0.332   2.253
14141TIP3    H263839   6.892   0.352   2.402
14142TIP3   OH263840   6.616   1.529   2.172
14142TIP3    H163841   6.529   1.561   2.199
14142TIP3    H263842   6.667   1.609   2.159
14143TIP3   OH263843   6.532   0.535   2.394
14143TIP3    H163844   6.610   0.591   2.399
14143TIP3    H263845   6.517   0.508   2.485
14144TIP3   OH263846   6.638   0.606   3.285
14144TIP3    H163847   6.652   0.635   3.375
14144TIP3    H263848   6.681   0.520   3.281
14145TIP3   OH263849   6.641   0.173   2.463
14145TIP3    H163850   6.645   0.209   2.551
14145TIP3    H263851   6.718   0.210   2.419
14146TIP3   OH263852   6.367   1.647   2.213
14146TIP3    H163853   6.374   1.730   2.167
14146TIP3    H263854   6.341   1.670   2.302
14147TIP3   OH263855   6.224   0.344   2.168
14147TIP3    H163856   6.212   0.430   2.209
14147TIP3    H263857   6.310   0.315   2.197
14148TIP3   OH263858   7.222   0.322   3.336
14148TIP3    H163859   7.141   0.371   3.354
14148TIP3    H263860   7.286   0.389   3.313
14149TIP3   OH263861   7.079   0.799   2.807
14149TIP3    H163862   7.001   0.744   2.802
14149TIP3    H263863   7.133   0.759   2.875
14150TIP3   OH263864   6.068   1.316   2.042
14150TIP3    H163865   6.141   1.360   2.083
14150TIP3    H263866   6.108   1.261   1.974
14151TIP3   OH263867   5.855   0.627   1.997
14151TIP3    H163868   5.871   0.719   2.017
14151TIP3    H263869   5.853   0.624   1.901
14152TIP3   OH263870   7.235   1.731   2.942
14152TIP3    H163871   7.220   1.798   2.876
14152TIP3    H263872   7.330   1.719   2.944
14153TIP3   OH263873   5.920   0.126   2.846
14153TIP3    H163874   5.918   0.098   2.755
14153TIP3    H263875   5.886   0.052   2.895
14154TIP3   OH263876   5.829   1.517   2.439
14154TIP3    H163877   5.781   1.549   2.515
14154TIP3    H263878   5.818   1.585   2.372
14155TIP3   OH263879   5.815   1.791   3.619
14155TIP3    H163880   5.877   1.770   3.689
14155TIP3    H263881   5.798   1.708   3.576
14156TIP3   OH263882   6.218   1.639   3.739
14156TIP3    H163883   6.298   1.598   3.772
14156TIP3    H263884   6.205   1.600   3.652
14157TIP3   OH263885   6.650   1.604   1.865
14157TIP3    H163886   6.584   1.537   1.883
14157TIP3    H263887   6.727   1.555   1.838
14158TIP3   OH263888   6.879   1.492   3.637
14158TIP3    H163889   6.847   1.411   3.676
14158TIP3    H263890   6.954   1.517   3.691
14159TIP3   OH263891   7.103   1.538   1.916
14159TIP3    H163892   7.101   1.453   1.959
14159TIP3    H263893   7.184   1.537   1.864
14160TIP3   OH263894   5.775   1.165   3.677
14160TIP3    H163895   5.778   1.070   3.672
14160TIP3    H263896   5.702   1.190   3.619
14161TIP3   OH263897   6.201   1.138   1.883
14161TIP3    H163898   6.226   1.090   1.962
14161TIP3    H263899   6.283   1.154   1.837
14162TIP3   OH263900   6.436   1.174   3.635
14162TIP3    H163901   6.422   1.218   3.551
14162TIP3    H263902   6.465   1.086   3.611
14163TIP3   OH263903   6.760   1.285   1.874
14163TIP3    H163904   6.744   1.281   1.968
14163TIP3    H263905   6.758   1.194   1.845
14164TIP3   OH263906   6.995   1.133   3.385
14164TIP3    H163907   7.082   1.173   3.382
14164TIP3    H263908   6.935   1.206   3.376
14165TIP3   OH263909   5.852   0.892   3.637
14165TIP3    H163910   5.940   0.866   3.610
14165TIP3    H263911   5.855   0.890   3.733
14166TIP3   OH263912   6.305   1.006   2.106
14166TIP3    H163913   6.261   0.966   2.181
14166TIP3    H263914   6.355   0.935   2.066
14167TIP3   OH263915   6.247   0.770   3.359
14167TIP3    H163916   6.183   0.840   3.370
14167TIP3    H263917   6.318   0.809   3.308
14168TIP3   OH263918   6.463   0.831   1.952
14168TIP3    H163919   6.461   0.862   1.861
14168TIP3    H263920   6.556   0.817   1.970
14169TIP3   OH263921   6.772   1.026   3.668
14169TIP3    H163922   6.860   1.001   3.641
14169TIP3    H263923   6.747   0.958   3.731
14170TIP3   OH263924   6.304   0.524   3.463
14170TIP3    H163925   6.320   0.465   3.389
14170TIP3    H263926   6.292   0.610   3.423
14171TIP3   OH263927   6.343   0.375   3.226
14171TIP3    H163928   6.398   0.421   3.163
14171TIP3    H263929   6.258   0.367   3.182
14172TIP3   OH263930   6.455   0.892   3.234
14172TIP3    H163931   6.550   0.898   3.234
14172TIP3    H263932   6.425   0.971   3.189
14173TIP3   OH263933   6.922   0.657   3.688
14173TIP3    H163934   6.942   0.565   3.706
14173TIP3    H263935   7.004   0.694   3.655
14174TIP3   OH263936   7.032   0.956   3.592
14174TIP3    H163937   7.029   1.016   3.518
14174TIP3    H263938   7.091   0.886   3.565
14175TIP3   OH263939   6.143   0.590   3.679
14175TIP3    H163940   6.059   0.544   3.668
14175TIP3    H263941   6.190   0.573   3.598
14176TIP3   OH263942   6.389   0.125   3.334
14176TIP3    H163943   6.371   0.214   3.304
14176TIP3    H263944   6.324   0.071   3.290
14177TIP3   OH263945   6.539   0.494   3.616
14177TIP3    H163946   6.526   0.431   3.687
14177TIP3    H263947   6.454   0.500   3.573
14178TIP3   OH263948   6.791   0.419   3.517
14178TIP3    H163949   6.704   0.435   3.552
14178TIP3    H263950   6.842   0.387   3.592
14179TIP3   OH263951   6.962   0.355   3.730
14179TIP3    H163952   6.958   0.260   3.722
14179TIP3    H263953   6.939   0.373   3.821
14180TIP3   OH263954   5.923   0.420   3.662
14180TIP3    H163955   5.928   0.339   3.611
14180TIP3    H263956   5.924   0.391   3.753
14181TIP3   OH263957   6.432   7.307   3.575
14181TIP3    H163958   6.385   7.225   3.560
14181TIP3    H263959   6.416   7.358   3.495
14182TIP3   OH263960   6.503   0.226   3.733
14182TIP3    H163961   6.496   0.143   3.686
14182TIP3    H263962   6.412   0.256   3.743
14183TIP3   OH263963   6.434   1.881   2.081
14183TIP3    H163964   6.526   1.853   2.080
14183TIP3    H263965   6.430   1.951   2.016
14184TIP3   OH263966   5.801   1.356   1.993
14184TIP3    H163967   5.895   1.352   2.013
14184TIP3    H263968   5.787   1.284   1.931
14185TIP3   OH263969   5.667   1.851   2.540
14185TIP3    H163970   5.610   1.822   2.468
14185TIP3    H263971   5.685   1.771   2.590
14186TIP3   OH263972   5.735   1.627   2.690
14186TIP3    H163973   5.700   1.552   2.739
14186TIP3    H263974   5.783   1.678   2.756
14187TIP3   OH263975   7.247   1.450   3.231
14187TIP3    H163976   7.201   1.527   3.264
14187TIP3    H263977   7.219   1.443   3.139
14188TIP3   OH263978   7.180   0.774   2.550
14188TIP3    H163979   7.179   0.678   2.551
14188TIP3    H263980   7.155   0.800   2.638
14189TIP3   OH263981   5.722   0.984   2.956
14189TIP3    H163982   5.734   0.970   2.862
14189TIP3    H263983   5.804   0.955   2.996
14190TIP3   OH263984   7.237   0.393   1.893
14190TIP3    H163985   7.255   0.312   1.940
14190TIP3    H263986   7.146   0.383   1.863
14191TIP3   OH263987   7.205   0.535   2.377
14191TIP3    H163988   7.262   0.505   2.447
14191TIP3    H263989   7.260   0.530   2.298
14192TIP3   OH263990   7.251   0.478   2.923
14192TIP3    H163991   7.337   0.450   2.891
14192TIP3    H263992   7.264   0.569   2.950
14193TIP3   OH263993   7.257   0.716   3.245
14193TIP3    H163994   7.163   0.738   3.239
14193TIP3    H263995   7.287   0.715   3.155
14194TIP3   OH263996   5.691   0.488   3.530
14194TIP3    H163997   5.775   0.477   3.574
14194TIP3    H263998   5.645   0.405   3.546
14195TIP3   OH263999   7.210   0.197   2.492
14195TIP3    H164000   7.192   0.147   2.572
14195TIP3    H264001   7.152   0.159   2.426
14196TIP3   OH264002   5.808   0.377   2.864
14196TIP3    H164003   5.845   0.288   2.864
14196TIP3    H264004   5.883   0.434   2.881
14197TIP3   OH264005   5.637   0.661   2.914
14197TIP3    H164006   5.711   0.660   2.852
14197TIP3    H264007   5.671   0.707   2.991
14198TIP3   OH264008   5.681   0.272   2.346
14198TIP3    H164009   5.586   0.271   2.356
14198TIP3    H264010   5.698   0.341   2.282
14199TIP3   OH264011   7.138   1.733   2.581
14199TIP3    H164012   7.213   1.679   2.605
14199TIP3    H264013   7.149   1.813   2.632
14200TIP3   OH264014   5.703   0.122   3.178
14200TIP3    H164015   5.628   0.107   3.235
14200TIP3    H264016   5.673   0.191   3.118
14201TIP3   OH264017   5.894   1.506   3.595
14201TIP3    H164018   5.805   1.498   3.561
14201TIP3    H264019   5.890   1.464   3.681
14202TIP3   OH264020   6.223   1.593   3.227
14202TIP3    H164021   6.195   1.681   3.203
14202TIP3    H264022   6.317   1.592   3.212
14203TIP3   OH264023   6.598   1.719   3.509
14203TIP3    H164024   6.610   1.685   3.598
14203TIP3    H264025   6.681   1.763   3.489
14204TIP3   OH264026   6.840   1.848   3.467
14204TIP3    H164027   6.908   1.791   3.429
14204TIP3    H264028   6.878   1.879   3.549
14205TIP3   OH264029   5.921   1.881   3.251
14205TIP3    H164030   5.843   1.922   3.215
14205TIP3    H264031   5.936   1.927   3.334
14206TIP3   OH264032   6.180   1.856   3.158
14206TIP3    H164033   6.089   1.868   3.185
14206TIP3    H264034   6.187   1.903   3.075
14207TIP3   OH264035   6.630   1.838   3.063
14207TIP3    H164036   6.580   1.877   2.992
14207TIP3    H264037   6.645   1.911   3.125
14208TIP3   OH264038   6.847   1.700   3.158
14208TIP3    H164039   6.771   1.749   3.126
14208TIP3    H264040   6.921   1.759   3.147
14209TIP3   OH264041   7.077   1.846   3.139
14209TIP3    H164042   7.090   1.940   3.125
14209TIP3    H264043   7.136   1.805   3.076
14210TIP3   OH264044   5.885   1.740   2.909
14210TIP3    H164045   5.881   1.696   2.994
14210TIP3    H264046   5.965   1.705   2.869
14211TIP3   OH264047   6.101   1.615   2.800
14211TIP3    H164048   6.088   1.523   2.824
14211TIP3    H264049   6.188   1.637   2.835
14212TIP3   OH264050   6.360   1.644   2.907
14212TIP3    H164051   6.371   1.554   2.876
14212TIP3    H264052   6.395   1.644   2.996
14213TIP3   OH264053   6.616   0.224   2.736
14213TIP3    H164054   6.559   0.162   2.783
14213TIP3    H264055   6.705   0.191   2.751
14214TIP3   OH264056   7.201   0.059   2.762
14214TIP3    H164057   7.286   0.023   2.787
14214TIP3    H264058   7.185   0.129   2.826
14215TIP3   OH264059   5.946   0.056   2.569
14215TIP3    H164060   5.895   0.001   2.509
14215TIP3    H264061   6.010  -0.003   2.608
14216TIP3   OH264062   5.836   0.094   2.198
14216TIP3    H164063   5.876   0.148   2.130
14216TIP3    H264064   5.786   0.156   2.251
14217TIP3   OH264065   6.406   0.051   2.538
14217TIP3    H164066   6.489   0.092   2.511
14217TIP3    H264067   6.406   0.059   2.634
14218TIP3   OH264068   6.875   0.145   2.744
14218TIP3    H164069   6.948   0.206   2.728
14218TIP3    H264070   6.903   0.063   2.705
14219TIP3   OH264071   7.040   0.089   2.303
14219TIP3    H164072   6.966   0.150   2.310
14219TIP3    H264073   7.005   0.014   2.255
14220TIP3   OH264074   5.798   1.707   2.245
14220TIP3    H164075   5.723   1.697   2.186
14220TIP3    H264076   5.826   1.798   2.233
14221TIP3   OH264077   5.982   0.263   2.020
14221TIP3    H164078   6.019   0.205   1.953
14221TIP3    H264079   6.057   0.287   2.074
14222TIP3   OH264080   6.480   0.298   2.266
14222TIP3    H164081   6.531   0.236   2.319
14222TIP3    H264082   6.496   0.383   2.306
14223TIP3   OH264083   6.692   1.783   2.070
14223TIP3    H164084   6.787   1.793   2.063
14223TIP3    H264085   6.668   1.730   1.994
14224TIP3   OH264086   5.910   0.197   3.490
14224TIP3    H164087   5.844   0.128   3.498
14224TIP3    H264088   5.983   0.167   3.544
14225TIP3   OH264089   6.103   0.154   3.680
14225TIP3    H164090   6.169   0.221   3.696
14225TIP3    H264091   6.141   0.074   3.714
14226TIP3   OH264092   5.994   1.755   1.923
14226TIP3    H164093   5.978   1.753   2.017
14226TIP3    H264094   6.071   1.700   1.911
14227TIP3   OH264095   6.946   0.081   3.727
14227TIP3    H164096   6.861   0.036   3.733
14227TIP3    H264097   7.010   0.013   3.750
14228TIP3   OH264098   7.239   1.615   3.568
14228TIP3    H164099   7.187   1.608   3.488
14228TIP3    H264100   7.236   1.708   3.591
14229TIP3   OH264101   1.200   2.923   2.535
14229TIP3    H164102   1.187   3.018   2.524
14229TIP3    H264103   1.129   2.884   2.484
14230TIP3   OH264104   1.072   2.830   2.934
14230TIP3    H164105   1.100   2.791   3.016
14230TIP3    H264106   1.027   2.759   2.888
14231TIP3   OH264107   0.294   2.765   3.065
14231TIP3    H164108   0.296   2.689   3.122
14231TIP3    H264109   0.379   2.808   3.078
14232TIP3   OH264110   1.458   3.141   2.757
14232TIP3    H164111   1.423   3.064   2.802
14232TIP3    H264112   1.478   3.202   2.828
14233TIP3   OH264113   0.406   3.231   2.865
14233TIP3    H164114   0.383   3.140   2.844
14233TIP3    H264115   0.498   3.227   2.891
14234TIP3   OH264116   0.098   2.642   2.451
14234TIP3    H164117   0.148   2.712   2.493
14234TIP3    H264118   0.009   2.651   2.484
14235TIP3   OH264119   0.193   2.803   2.660
14235TIP3    H164120   0.199   2.721   2.709
14235TIP3    H264121   0.264   2.858   2.695
14236TIP3   OH264122   1.186   3.620   2.795
14236TIP3    H164123   1.219   3.559   2.729
14236TIP3    H264124   1.158   3.564   2.868
14237TIP3   OH264125   0.919   3.082   2.947
14237TIP3    H164126   0.958   3.001   2.912
14237TIP3    H264127   0.986   3.116   3.007
14238TIP3   OH264128   1.800   2.224   3.040
14238TIP3    H164129   1.820   2.291   3.106
14238TIP3    H264130   1.859   2.243   2.967
14239TIP3   OH264131   1.233   2.501   2.957
14239TIP3    H164132   1.256   2.409   2.972
14239TIP3    H264133   1.217   2.506   2.862
14240TIP3   OH264134   0.557   2.309   2.680
14240TIP3    H164135   0.561   2.394   2.638
14240TIP3    H264136   0.526   2.249   2.612
14241TIP3   OH264137   1.355   2.336   2.524
14241TIP3    H164138   1.396   2.307   2.605
14241TIP3    H264139   1.427   2.375   2.474
14242TIP3   OH264140   0.194   2.551   2.780
14242TIP3    H164141   0.273   2.509   2.815
14242TIP3    H264142   0.160   2.487   2.717
14243TIP3   OH264143   0.708   2.702   2.734
14243TIP3    H164144   0.793   2.667   2.763
14243TIP3    H264145   0.672   2.635   2.677
14244TIP3   OH264146   1.846   2.391   3.261
14244TIP3    H164147   1.765   2.441   3.248
14244TIP3    H264148   1.865   2.400   3.354
14245TIP3   OH264149   0.436   2.234   3.116
14245TIP3    H164150   0.412   2.299   3.050
14245TIP3    H264151   0.369   2.242   3.184
14246TIP3   OH264152   1.169   3.180   2.430
14246TIP3    H164153   1.147   3.173   2.337
14246TIP3    H264154   1.117   3.254   2.462
14247TIP3   OH264155   0.704   2.997   3.098
14247TIP3    H164156   0.651   3.069   3.133
14247TIP3    H264157   0.775   3.040   3.050
14248TIP3   OH264158   1.459   2.293   2.772
14248TIP3    H164159   1.400   2.266   2.842
14248TIP3    H264160   1.523   2.350   2.816
14249TIP3   OH264161   0.407   2.399   2.890
14249TIP3    H164162   0.464   2.458   2.939
14249TIP3    H264163   0.464   2.362   2.822
14250TIP3   OH264164   0.549   3.203   3.199
14250TIP3    H164165   0.557   3.298   3.190
14250TIP3    H264166   0.461   3.190   3.233
14251TIP3   OH264167   0.114   3.172   2.262
14251TIP3    H164168   0.112   3.201   2.171
14251TIP3    H264169   0.149   3.246   2.310
14252TIP3   OH264170   1.491   3.343   2.957
14252TIP3    H164171   1.396   3.342   2.973
14252TIP3    H264172   1.511   3.434   2.936
14253TIP3   OH264173   1.551   2.122   3.127
14253TIP3    H164174   1.484   2.172   3.080
14253TIP3    H264175   1.633   2.149   3.086
14254TIP3   OH264176   0.783   1.917   2.843
14254TIP3    H164177   0.762   1.824   2.852
14254TIP3    H264178   0.709   1.962   2.882
14255TIP3   OH264179   1.309   3.494   2.576
14255TIP3    H164180   1.350   3.409   2.561
14255TIP3    H264181   1.381   3.557   2.578
14256TIP3   OH264182   1.426   3.257   2.509
14256TIP3    H164183   1.347   3.214   2.476
14256TIP3    H264184   1.448   3.210   2.589
14257TIP3   OH264185   1.606   3.128   3.313
14257TIP3    H164186   1.596   3.068   3.239
14257TIP3    H264187   1.620   3.214   3.272
14258TIP3   OH264188   1.051   2.824   2.320
14258TIP3    H164189   0.983   2.887   2.297
14258TIP3    H264190   1.116   2.832   2.251
14259TIP3   OH264191   1.069   2.692   1.981
14259TIP3    H164192   1.123   2.720   2.055
14259TIP3    H264193   1.124   2.629   1.934
14260TIP3   OH264194   1.774   2.786   3.153
14260TIP3    H164195   1.699   2.846   3.143
14260TIP3    H264196   1.832   2.808   3.080
14261TIP3   OH264197   1.414   2.850   2.383
14261TIP3    H164198   1.347   2.876   2.446
14261TIP3    H264199   1.478   2.801   2.435
14262TIP3   OH264200   1.377   2.652   3.340
14262TIP3    H164201   1.376   2.724   3.404
14262TIP3    H264202   1.312   2.677   3.275
14263TIP3   OH264203   0.573   2.903   2.599
14263TIP3    H164204   0.531   2.857   2.527
14263TIP3    H264205   0.630   2.837   2.639
14264TIP3   OH264206   0.700   3.257   2.850
14264TIP3    H164207   0.700   3.263   2.755
14264TIP3    H264208   0.776   3.202   2.870
14265TIP3   OH264209   0.571   2.807   2.953
14265TIP3    H164210   0.627   2.781   2.880
14265TIP3    H264211   0.623   2.872   3.001
14266TIP3   OH264212   1.228   3.352   3.024
14266TIP3    H164213   1.213   3.423   3.087
14266TIP3    H264214   1.187   3.275   3.065
14267TIP3   OH264215   0.705   3.231   3.430
14267TIP3    H164216   0.641   3.287   3.475
14267TIP3    H264217   0.659   3.203   3.350
14268TIP3   OH264218   1.277   2.779   2.155
14268TIP3    H164219   1.329   2.814   2.227
14268TIP3    H264220   1.330   2.796   2.077
14269TIP3   OH264221   0.395   2.832   3.382
14269TIP3    H164222   0.398   2.914   3.432
14269TIP3    H264223   0.302   2.820   3.362
14270TIP3   OH264224   1.054   3.426   2.495
14270TIP3    H164225   1.136   3.455   2.534
14270TIP3    H264226   1.019   3.504   2.452
14271TIP3   OH264227   0.496   3.406   3.498
14271TIP3    H164228   0.503   3.434   3.406
14271TIP3    H264229   0.401   3.400   3.513
14272TIP3   OH264230   1.639   1.931   2.137
14272TIP3    H164231   1.556   1.956   2.178
14272TIP3    H264232   1.677   2.015   2.109
14273TIP3   OH264233   0.437   2.768   2.397
14273TIP3    H164234   0.390   2.847   2.370
14273TIP3    H264235   0.465   2.728   2.314
14274TIP3   OH264236   1.783   3.371   2.004
14274TIP3    H164237   1.796   3.465   2.012
14274TIP3    H264238   1.872   3.335   1.996
14275TIP3   OH264239   0.139   3.015   3.227
14275TIP3    H164240   0.071   3.012   3.160
14275TIP3    H264241   0.141   2.926   3.263
14276TIP3   OH264242   0.126   3.344   2.846
14276TIP3    H164243   0.208   3.303   2.872
14276TIP3    H264244   0.060   3.305   2.903
14277TIP3   OH264245   1.864   3.414   3.519
14277TIP3    H164246   1.852   3.319   3.513
14277TIP3    H264247   1.780   3.446   3.551
14278TIP3   OH264248   0.942   3.359   3.374
14278TIP3    H164249   0.941   3.440   3.424
14278TIP3    H264250   0.859   3.316   3.396
14279TIP3   OH264251   1.030   3.699   2.362
14279TIP3    H164252   0.999   3.705   2.271
14279TIP3    H264253   0.999   3.779   2.403
14280TIP3   OH264254   0.377   3.584   2.547
14280TIP3    H164255   0.392   3.550   2.635
14280TIP3    H264256   0.319   3.520   2.506
14281TIP3   OH264257   1.316   3.662   2.041
14281TIP3    H164258   1.364   3.587   2.004
14281TIP3    H264259   1.323   3.649   2.136
14282TIP3   OH264260   1.294   3.641   2.317
14282TIP3    H164261   1.201   3.653   2.336
14282TIP3    H264262   1.325   3.581   2.385
14283TIP3   OH264263   1.562   2.530   3.539
14283TIP3    H164264   1.495   2.564   3.480
14283TIP3    H264265   1.569   2.437   3.516
14284TIP3   OH264266   0.307   3.208   3.326
14284TIP3    H164267   0.328   3.169   3.410
14284TIP3    H264268   0.242   3.150   3.287
14285TIP3   OH264269   0.546   2.034   2.947
14285TIP3    H164270   0.467   2.025   2.893
14285TIP3    H264271   0.526   2.106   3.007
14286TIP3   OH264272   1.034   1.995   3.287
14286TIP3    H164273   1.083   1.947   3.354
14286TIP3    H264274   0.942   1.985   3.313
14287TIP3   OH264275   1.311   2.381   3.349
14287TIP3    H164276   1.254   2.366   3.424
14287TIP3    H264277   1.323   2.476   3.346
14288TIP3   OH264278   1.429   2.792   1.926
14288TIP3    H164279   1.406   2.822   1.838
14288TIP3    H264280   1.515   2.830   1.943
14289TIP3   OH264281   0.964   2.249   2.017
14289TIP3    H164282   0.915   2.239   2.099
14289TIP3    H264283   0.932   2.178   1.961
14290TIP3   OH264284   0.561   2.553   3.056
14290TIP3    H164285   0.500   2.554   3.130
14290TIP3    H264286   0.564   2.643   3.025
14291TIP3   OH264287   0.559   2.550   2.552
14291TIP3    H164288   0.485   2.608   2.533
14291TIP3    H264289   0.591   2.523   2.466
14292TIP3   OH264290   1.105   2.577   2.428
14292TIP3    H164291   1.081   2.665   2.397
14292TIP3    H264292   1.175   2.549   2.369
14293TIP3   OH264293   1.027   2.595   3.547
14293TIP3    H164294   0.976   2.523   3.584
14293TIP3    H264295   1.112   2.590   3.593
14294TIP3   OH264296   1.202   2.514   2.684
14294TIP3    H164297   1.157   2.561   2.613
14294TIP3    H264298   1.248   2.442   2.639
14295TIP3   OH264299   0.345   2.542   3.234
14295TIP3    H164300   0.391   2.578   3.310
14295TIP3    H264301   0.307   2.460   3.266
14296TIP3   OH264302   0.651   2.289   1.903
14296TIP3    H164303   0.630   2.296   1.996
14296TIP3    H264304   0.603   2.361   1.861
14297TIP3   OH264305   0.104   2.327   2.631
14297TIP3    H164306   0.115   2.285   2.717
14297TIP3    H264307   0.039   2.273   2.586
14298TIP3   OH264308   0.189   2.386   2.171
14298TIP3    H164309   0.197   2.430   2.086
14298TIP3    H264310   0.110   2.423   2.211
14299TIP3   OH264311   1.157   2.673   3.153
14299TIP3    H164312   1.191   2.616   3.085
14299TIP3    H264313   1.093   2.619   3.200
14300TIP3   OH264314   0.842   2.307   2.649
14300TIP3    H164315   0.755   2.297   2.687
14300TIP3    H264316   0.894   2.239   2.690
14301TIP3   OH264317   0.282   2.434   2.456
14301TIP3    H164318   0.240   2.518   2.438
14301TIP3    H264319   0.228   2.394   2.524
14302TIP3   OH264320   0.628   2.474   2.296
14302TIP3    H164321   0.721   2.474   2.318
14302TIP3    H264322   0.622   2.522   2.214
14303TIP3   OH264323   1.277   2.219   2.966
14303TIP3    H164324   1.225   2.224   3.047
14303TIP3    H264325   1.233   2.154   2.913
14304TIP3   OH264326   0.582   2.553   2.040
14304TIP3    H164327   0.522   2.550   1.965
14304TIP3    H264328   0.655   2.606   2.010
14305TIP3   OH264329   1.605   3.786   3.621
14305TIP3    H164330   1.633   3.826   3.539
14305TIP3    H264331   1.676   3.807   3.683
14306TIP3   OH264332   0.369   3.052   3.554
14306TIP3    H164333   0.431   3.043   3.626
14306TIP3    H264334   0.283   3.060   3.596
14307TIP3   OH264335   0.938   2.588   2.843
14307TIP3    H164336   1.003   2.535   2.797
14307TIP3    H264337   0.906   2.532   2.914
14308TIP3   OH264338   0.479   2.141   2.463
14308TIP3    H164339   0.414   2.080   2.497
14308TIP3    H264340   0.563   2.095   2.471
14309TIP3   OH264341   0.821   2.450   3.063
14309TIP3    H164342   0.738   2.497   3.070
14309TIP3    H264343   0.871   2.479   3.139
14310TIP3   OH264344   0.862   3.015   2.254
14310TIP3    H164345   0.791   2.967   2.212
14310TIP3    H264346   0.824   3.045   2.337
14311TIP3   OH264347   1.577   2.972   3.086
14311TIP3    H164348   1.638   3.026   3.036
14311TIP3    H264349   1.505   2.954   3.026
14312TIP3   OH264350   1.228   2.297   2.085
14312TIP3    H164351   1.134   2.297   2.064
14312TIP3    H264352   1.242   2.380   2.129
14313TIP3   OH264353   1.015   3.065   3.383
14313TIP3    H164354   1.043   3.026   3.465
14313TIP3    H264355   0.988   3.154   3.407
14314TIP3   OH264356   1.307   2.513   2.241
14314TIP3    H164357   1.394   2.495   2.277
14314TIP3    H264358   1.312   2.603   2.210
14315TIP3   OH264359   0.388   2.953   2.796
14315TIP3    H164360   0.450   2.953   2.723
14315TIP3    H264361   0.432   2.900   2.864
14316TIP3   OH264362   1.067   3.173   2.168
14316TIP3    H164363   1.034   3.263   2.174
14316TIP3    H264364   0.993   3.118   2.193
14317TIP3   OH264365   0.122   2.779   3.367
14317TIP3    H164366   0.123   2.769   3.462
14317TIP3    H264367   0.065   2.708   3.336
14318TIP3   OH264368   0.821   2.784   3.564
14318TIP3    H164369   0.766   2.753   3.493
14318TIP3    H264370   0.903   2.735   3.555
14319TIP3   OH264371   1.224   3.338   3.368
14319TIP3    H164372   1.130   3.342   3.349
14319TIP3    H264373   1.230   3.353   3.463
14320TIP3   OH264374   1.762   2.551   2.187
14320TIP3    H164375   1.723   2.527   2.103
14320TIP3    H264376   1.785   2.643   2.177
14321TIP3   OH264377   1.826   3.133   3.477
14321TIP3    H164378   1.736   3.141   3.447
14321TIP3    H264379   1.877   3.116   3.397
14322TIP3   OH264380   1.644   3.401   2.266
14322TIP3    H164381   1.589   3.336   2.310
14322TIP3    H264382   1.668   3.360   2.183
14323TIP3   OH264383   1.368   2.909   2.900
14323TIP3    H164384   1.272   2.900   2.900
14323TIP3    H264385   1.399   2.830   2.856
14324TIP3   OH264386   0.639   3.331   2.582
14324TIP3    H164387   0.665   3.417   2.548
14324TIP3    H264388   0.545   3.327   2.568
14325TIP3   OH264389   0.147   2.784   2.024
14325TIP3    H164390   0.229   2.832   2.022
14325TIP3    H264391   0.097   2.825   2.095
14326TIP3   OH264392   0.734   3.095   2.477
14326TIP3    H164393   0.713   3.179   2.518
14326TIP3    H264394   0.678   3.032   2.523
14327TIP3   OH264395   0.837   3.503   3.153
14327TIP3    H164396   0.896   3.575   3.132
14327TIP3    H264397   0.887   3.448   3.213
14328TIP3   OH264398   0.641   3.594   2.473
14328TIP3    H164399   0.548   3.604   2.492
14328TIP3    H264400   0.681   3.674   2.508
14329TIP3   OH264401   1.127   3.113   3.135
14329TIP3    H164402   1.086   3.095   3.219
14329TIP3    H264403   1.202   3.054   3.131
14330TIP3   OH264404   1.411   3.215   2.033
14330TIP3    H164405   1.437   3.162   2.108
14330TIP3    H264406   1.321   3.188   2.015
14331TIP3   OH264407   1.429   3.529   3.345
14331TIP3    H164408   1.351   3.476   3.335
14331TIP3    H264409   1.418   3.601   3.283
14332TIP3   OH264410   1.832   3.643   2.040
14332TIP3    H164411   1.889   3.716   2.017
14332TIP3    H264412   1.752   3.684   2.073
14333TIP3   OH264413   0.251   2.288   3.334
14333TIP3    H164414   0.178   2.321   3.387
14333TIP3    H264415   0.269   2.201   3.370
14334TIP3   OH264416   1.520   3.058   2.230
14334TIP3    H164417   1.475   2.997   2.288
14334TIP3    H264418   1.613   3.049   2.253
14335TIP3   OH264419   0.229   3.505   3.144
14335TIP3    H164420   0.227   3.422   3.191
14335TIP3    H264421   0.250   3.571   3.211
14336TIP3   OH264422   0.775   3.332   1.890
14336TIP3    H164423   0.737   3.260   1.840
14336TIP3    H264424   0.745   3.317   1.980
14337TIP3   OH264425   0.651   3.291   2.132
14337TIP3    H164426   0.680   3.229   2.199
14337TIP3    H264427   0.669   3.377   2.170
14338TIP3   OH264428   0.322   2.982   2.271
14338TIP3    H164429   0.251   3.046   2.275
14338TIP3    H264430   0.353   2.985   2.180
14339TIP3   OH264431   1.132   2.237   3.197
14339TIP3    H164432   1.198   2.269   3.258
14339TIP3    H264433   1.099   2.156   3.237
14340TIP3   OH264434   1.209   2.180   2.344
14340TIP3    H164435   1.220   2.222   2.259
14340TIP3    H264436   1.252   2.239   2.406
14341TIP3   OH264437   0.967   3.424   2.180
14341TIP3    H164438   0.879   3.454   2.202
14341TIP3    H264439   1.012   3.504   2.152
14342TIP3   OH264440   0.878   2.423   2.404
14342TIP3    H164441   0.956   2.478   2.411
14342TIP3    H264442   0.866   2.387   2.492
14343TIP3   OH264443   0.991   2.494   3.283
14343TIP3    H164444   0.999   2.520   3.374
14343TIP3    H264445   1.027   2.405   3.279
14344TIP3   OH264446   0.979   2.065   2.449
14344TIP3    H164447   0.987   2.084   2.542
14344TIP3    H264448   1.058   2.102   2.409
14345TIP3   OH264449   0.721   3.542   2.217
14345TIP3    H164450   0.725   3.627   2.173
14345TIP3    H264451   0.693   3.563   2.307
14346TIP3   OH264452   0.559   2.242   2.172
14346TIP3    H164453   0.585   2.328   2.204
14346TIP3    H264454   0.634   2.186   2.191
14347TIP3   OH264455   1.564   2.287   3.383
14347TIP3    H164456   1.472   2.309   3.371
14347TIP3    H264457   1.587   2.234   3.307
14348TIP3   OH264458   1.442   2.660   2.780
14348TIP3    H164459   1.358   2.616   2.765
14348TIP3    H264460   1.490   2.601   2.837
14349TIP3   OH264461   0.401   3.253   2.002
14349TIP3    H164462   0.484   3.279   2.042
14349TIP3    H264463   0.409   3.159   1.989
14350TIP3   OH264464   0.180   2.526   1.941
14350TIP3    H164465   0.173   2.615   1.975
14350TIP3    H264466   0.150   2.533   1.850
14351TIP3   OH264467   1.573   3.611   2.947
14351TIP3    H164468   1.561   3.681   2.884
14351TIP3    H264469   1.667   3.607   2.963
14352TIP3   OH264470   0.298   2.003   2.828
14352TIP3    H164471   0.300   1.989   2.733
14352TIP3    H264472   0.266   1.920   2.863
14353TIP3   OH264473   0.189   3.411   2.420
14353TIP3    H164474   0.121   3.405   2.487
14353TIP3    H264475   0.158   3.479   2.360
14354TIP3   OH264476   0.192   3.694   3.612
14354TIP3    H164477   0.246   3.694   3.691
14354TIP3    H264478   0.194   3.604   3.582
14355TIP3   OH264479   0.577   3.507   3.743
14355TIP3    H164480   0.657   3.460   3.767
14355TIP3    H264481   0.554   3.474   3.657
14356TIP3   OH264482   1.000   3.491   1.867
14356TIP3    H164483   0.928   3.430   1.883
14356TIP3    H264484   1.073   3.435   1.841
14357TIP3   OH264485   1.230   3.381   3.637
14357TIP3    H164486   1.205   3.300   3.682
14357TIP3    H264487   1.304   3.415   3.687
14358TIP3   OH264488   1.447   3.457   1.912
14358TIP3    H164489   1.443   3.376   1.964
14358TIP3    H264490   1.526   3.447   1.859
14359TIP3   OH264491   0.103   3.057   3.640
14359TIP3    H164492   0.104   2.962   3.639
14359TIP3    H264493   0.041   3.082   3.572
14360TIP3   OH264494   0.635   3.098   1.828
14360TIP3    H164495   0.570   3.049   1.879
14360TIP3    H264496   0.715   3.045   1.834
14361TIP3   OH264497   0.780   3.058   3.634
14361TIP3    H164498   0.764   3.103   3.551
14361TIP3    H264499   0.809   2.971   3.608
14362TIP3   OH264500   1.156   3.172   1.908
14362TIP3    H164501   1.112   3.168   1.993
14362TIP3    H264502   1.142   3.085   1.871
14363TIP3   OH264503   1.343   3.080   3.384
14363TIP3    H164504   1.435   3.102   3.368
14363TIP3    H264505   1.296   3.162   3.374
14364TIP3   OH264506   0.191   2.780   3.636
14364TIP3    H164507   0.281   2.752   3.620
14364TIP3    H264508   0.186   2.789   3.731
14365TIP3   OH264509   0.665   2.870   2.133
14365TIP3    H164510   0.581   2.890   2.093
14365TIP3    H264511   0.707   2.809   2.072
14366TIP3   OH264512   0.594   2.649   3.353
14366TIP3    H164513   0.533   2.721   3.369
14366TIP3    H264514   0.666   2.689   3.305
14367TIP3   OH264515   0.793   2.703   1.951
14367TIP3    H164516   0.788   2.727   1.859
14367TIP3    H264517   0.887   2.696   1.970
14368TIP3   OH264518   1.116   2.916   3.669
14368TIP3    H164519   1.199   2.881   3.636
14368TIP3    H264520   1.086   2.851   3.733
14369TIP3   OH264521   1.680   2.913   1.904
14369TIP3    H164522   1.685   2.890   1.811
14369TIP3    H264523   1.670   3.008   1.905
14370TIP3   OH264524   0.655   2.403   3.457
14370TIP3    H164525   0.670   2.342   3.386
14370TIP3    H264526   0.641   2.487   3.414
14371TIP3   OH264527   0.690   2.246   3.222
14371TIP3    H164528   0.743   2.296   3.159
14371TIP3    H264529   0.603   2.246   3.183
14372TIP3   OH264530   0.801   2.780   3.238
14372TIP3    H164531   0.896   2.792   3.246
14372TIP3    H264532   0.771   2.859   3.193
14373TIP3   OH264533   1.255   2.555   3.716
14373TIP3    H164534   1.281   2.463   3.724
14373TIP3    H264535   1.334   2.604   3.738
14374TIP3   OH264536   1.399   2.857   3.532
14374TIP3    H164537   1.368   2.935   3.486
14374TIP3    H264538   1.494   2.862   3.528
14375TIP3   OH264539   0.491   2.477   3.671
14375TIP3    H164540   0.416   2.418   3.664
14375TIP3    H264541   0.544   2.458   3.594
14376TIP3   OH264542   0.751   1.980   3.283
14376TIP3    H164543   0.730   2.071   3.264
14376TIP3    H264544   0.681   1.930   3.240
14377TIP3   OH264545   0.880   2.378   3.626
14377TIP3    H164546   0.852   2.349   3.713
14377TIP3    H264547   0.800   2.378   3.574
14378TIP3   OH264548   1.138   2.307   3.540
14378TIP3    H164549   1.050   2.314   3.578
14378TIP3    H264550   1.189   2.261   3.607
14379TIP3   OH264551   1.317   2.202   3.729
14379TIP3    H164552   1.316   2.107   3.720
14379TIP3    H264553   1.292   2.218   3.820
14380TIP3   OH264554   0.303   2.271   3.651
14380TIP3    H164555   0.307   2.195   3.593
14380TIP3    H264556   0.318   2.236   3.739
14381TIP3   OH264557   0.748   1.902   3.545
14381TIP3    H164558   0.806   1.826   3.544
14381TIP3    H264559   0.744   1.931   3.454
14382TIP3   OH264560   0.815   2.066   3.757
14382TIP3    H164561   0.796   2.013   3.680
14382TIP3    H264562   0.750   2.137   3.754
14383TIP3   OH264563   0.791   3.783   2.092
14383TIP3    H164564   0.879   3.748   2.081
14383TIP3    H264565   0.781   3.846   2.021
14384TIP3   OH264566   0.129   3.228   1.986
14384TIP3    H164567   0.224   3.238   1.993
14384TIP3    H264568   0.116   3.166   1.914
14385TIP3   OH264569   0.066   3.761   2.487
14385TIP3    H164570   0.053   3.717   2.404
14385TIP3    H264571   0.065   3.691   2.552
14386TIP3   OH264572   0.084   3.555   2.678
14386TIP3    H164573   0.085   3.468   2.718
14386TIP3    H264574   0.133   3.610   2.740
14387TIP3   OH264575   1.839   3.616   3.026
14387TIP3    H164576   1.827   3.605   3.120
14387TIP3    H264577   1.895   3.693   3.017
14388TIP3   OH264578   1.786   3.578   3.295
14388TIP3    H164579   1.728   3.508   3.264
14388TIP3    H264580   1.829   3.540   3.372
14389TIP3   OH264581   1.632   3.178   3.769
14389TIP3    H164582   1.549   3.185   3.816
14389TIP3    H264583   1.686   3.248   3.805
14390TIP3   OH264584   1.785   3.008   2.305
14390TIP3    H164585   1.859   3.068   2.311
14390TIP3    H264586   1.798   2.947   2.379
14391TIP3   OH264587   1.828   2.809   2.493
14391TIP3    H164588   1.744   2.773   2.523
14391TIP3    H264589   1.880   2.817   2.573
14392TIP3   OH264590   1.806   3.105   3.003
14392TIP3    H164591   1.860   3.035   2.964
14392TIP3    H264592   1.836   3.185   2.960
14393TIP3   OH264593   1.616   3.381   3.203
14393TIP3    H164594   1.544   3.422   3.249
14393TIP3    H264595   1.582   3.362   3.116
14394TIP3   OH264596   1.820   2.811   2.117
14394TIP3    H164597   1.769   2.841   2.041
14394TIP3    H264598   1.805   2.877   2.184
14395TIP3   OH264599   1.668   2.507   1.931
14395TIP3    H164600   1.638   2.563   1.860
14395TIP3    H264601   1.652   2.418   1.900
14396TIP3   OH264602   1.578   2.686   2.539
14396TIP3    H164603   1.575   2.596   2.509
14396TIP3    H264604   1.537   2.684   2.626
14397TIP3   OH264605   0.089   2.886   2.927
14397TIP3    H164606   0.114   2.904   2.837
14397TIP3    H264607   0.171   2.860   2.970
14398TIP3   OH264608   1.676   2.871   3.519
14398TIP3    H164609   1.731   2.794   3.504
14398TIP3    H264610   1.728   2.944   3.485
14399TIP3   OH264611   1.812   2.633   3.501
14399TIP3    H164612   1.725   2.597   3.517
14399TIP3    H264613   1.872   2.561   3.522
14400TIP3   OH264614   1.598   2.257   1.830
14400TIP3    H164615   1.637   2.213   1.905
14400TIP3    H264616   1.506   2.233   1.833
14401TIP3   OH264617   1.563   2.441   2.361
14401TIP3    H164618   1.592   2.350   2.367
14401TIP3    H264619   1.631   2.484   2.309
14402TIP3   OH264620   1.597   2.479   2.928
14402TIP3    H164621   1.690   2.490   2.908
14402TIP3    H264622   1.591   2.493   3.023
14403TIP3   OH264623   1.621   2.558   3.197
14403TIP3    H164624   1.544   2.588   3.244
14403TIP3    H264625   1.676   2.636   3.187
14404TIP3   OH264626   0.086   2.431   3.599
14404TIP3    H164627   0.170   2.385   3.613
14404TIP3    H264628   0.022   2.377   3.647
14405TIP3   OH264629   1.856   1.979   3.721
14405TIP3    H164630   1.921   1.915   3.691
14405TIP3    H264631   1.856   2.047   3.653
14406TIP3   OH264632   1.626   2.171   2.381
14406TIP3    H164633   1.648   2.133   2.466
14406TIP3    H264634   1.560   2.112   2.346
14407TIP3   OH264635   0.179   2.244   2.883
14407TIP3    H164636   0.213   2.155   2.877
14407TIP3    H264637   0.258   2.298   2.891
14408TIP3   OH264638   0.009   2.623   2.972
14408TIP3    H164639   0.077   2.595   2.911
14408TIP3    H264640   0.021   2.718   2.979
14409TIP3   OH264641   1.789   2.168   3.534
14409TIP3    H164642   1.712   2.206   3.574
14409TIP3    H264643   1.755   2.117   3.460
14410TIP3   OH264644   1.761   2.154   2.029
14410TIP3    H164645   1.812   2.093   1.975
14410TIP3    H264646   1.826   2.212   2.069
14411TIP3   OH264647   0.161   2.150   2.300
14411TIP3    H164648   0.087   2.140   2.361
14411TIP3    H264649   0.134   2.221   2.241
14412TIP3   OH264650   1.502   3.680   2.549
14412TIP3    H164651   1.579   3.672   2.493
14412TIP3    H264652   1.533   3.723   2.628
14413TIP3   OH264653   0.048   2.036   3.210
14413TIP3    H164654   0.020   2.104   3.270
14413TIP3    H264655  -0.017   2.038   3.139
14414TIP3   OH264656   0.220   3.412   3.592
14414TIP3    H164657   0.131   3.394   3.560
14414TIP3    H264658   0.221   3.377   3.681
14415TIP3   OH264659   0.575   3.477   3.232
14415TIP3    H164660   0.544   3.563   3.204
14415TIP3    H264661   0.669   3.479   3.215
14416TIP3   OH264662   0.949   3.600   3.511
14416TIP3    H164663   0.959   3.568   3.600
14416TIP3    H264664   1.031   3.648   3.494
14417TIP3   OH264665   1.188   3.733   3.471
14417TIP3    H164666   1.253   3.671   3.437
14417TIP3    H264667   1.227   3.768   3.550
14418TIP3   OH264668   1.697   1.960   3.353
14418TIP3    H164669   1.626   1.974   3.290
14418TIP3    H264670   1.725   1.869   3.337
14419TIP3   OH264671   0.283   3.763   3.262
14419TIP3    H164672   0.204   3.807   3.231
14419TIP3    H264673   0.304   3.806   3.345
14420TIP3   OH264674   0.535   3.740   3.155
14420TIP3    H164675   0.445   3.748   3.186
14420TIP3    H264676   0.537   3.787   3.072
14421TIP3   OH264677   0.982   3.723   3.064
14421TIP3    H164678   0.927   3.762   2.995
14421TIP3    H264679   0.993   3.793   3.128
14422TIP3   OH264680   1.209   3.595   3.153
14422TIP3    H164681   1.130   3.640   3.122
14422TIP3    H264682   1.278   3.661   3.146
14423TIP3   OH264683   1.448   3.742   3.156
14423TIP3    H164684   1.469   3.834   3.140
14423TIP3    H264685   1.490   3.695   3.085
14424TIP3   OH264686   0.233   3.639   2.906
14424TIP3    H164687   0.226   3.601   2.993
14424TIP3    H264688   0.305   3.592   2.865
14425TIP3   OH264689   0.442   3.498   2.799
14425TIP3    H164690   0.425   3.407   2.823
14425TIP3    H264691   0.528   3.518   2.837
14426TIP3   OH264692   0.702   3.532   2.908
14426TIP3    H164693   0.711   3.441   2.879
14426TIP3    H264694   0.738   3.531   2.997
14427TIP3   OH264695   0.988   2.083   2.725
14427TIP3    H164696   0.939   2.020   2.779
14427TIP3    H264697   1.079   2.052   2.730
14428TIP3   OH264698   1.534   1.943   2.783
14428TIP3    H164699   1.603   1.993   2.739
14428TIP3    H264700   1.461   2.004   2.788
14429TIP3   OH264701   1.717   2.053   2.613
14429TIP3    H164702   1.779   1.985   2.588
14429TIP3    H264703   1.771   2.130   2.631
14430TIP3   OH264704   0.303   1.954   2.555
14430TIP3    H164705   0.215   1.950   2.517
14430TIP3    H264706   0.337   1.865   2.547
14431TIP3   OH264707   0.221   1.934   2.132
14431TIP3    H164708   0.269   1.989   2.070
14431TIP3    H264709   0.191   1.994   2.200
14432TIP3   OH264710   0.720   1.977   2.556
14432TIP3    H164711   0.803   2.005   2.516
14432TIP3    H264712   0.741   1.964   2.648
14433TIP3   OH264713   1.246   1.984   2.715
14433TIP3    H164714   1.300   1.966   2.638
14433TIP3    H264715   1.228   1.897   2.751
14434TIP3   OH264716   1.420   2.003   2.290
14434TIP3    H164717   1.343   2.058   2.306
14434TIP3    H264718   1.390   1.914   2.307
14435TIP3   OH264719   0.097   3.607   2.248
14435TIP3    H164720   0.054   3.563   2.175
14435TIP3    H264721   0.144   3.680   2.208
14436TIP3   OH264722   0.385   2.117   1.988
14436TIP3    H164723   0.436   2.065   1.926
14436TIP3    H264724   0.449   2.157   2.045
14437TIP3   OH264725   0.825   2.201   2.253
14437TIP3    H164726   0.866   2.132   2.305
14437TIP3    H264727   0.843   2.281   2.303
14438TIP3   OH264728   1.041   3.673   2.066
14438TIP3    H164729   1.135   3.688   2.060
14438TIP3    H264730   1.020   3.618   1.991
14439TIP3   OH264731   1.710   3.648   2.363
14439TIP3    H164732   1.690   3.559   2.335
14439TIP3    H264733   1.689   3.703   2.287
14440TIP3   OH264734   0.303   2.036   3.494
14440TIP3    H164735   0.246   1.967   3.529
14440TIP3    H264736   0.387   2.021   3.537
14441TIP3   OH264737   0.506   1.963   3.663
14441TIP3    H164738   0.591   1.935   3.630
14441TIP3    H264739   0.473   1.888   3.712
14442TIP3   OH264740   0.363   3.662   1.932
14442TIP3    H164741   0.343   3.659   2.026
14442TIP3    H264742   0.435   3.601   1.921
14443TIP3   OH264743   1.338   1.927   3.695
14443TIP3    H164744   1.325   1.877   3.776
14443TIP3    H264745   1.430   1.913   3.674
14444TIP3   OH264746   1.611   3.516   3.562
14444TIP3    H164747   1.545   3.509   3.493
14444TIP3    H264748   1.604   3.606   3.594
14445TIP3   OH264749   3.086   2.934   2.544
14445TIP3    H164750   3.070   3.026   2.525
14445TIP3    H264751   3.019   2.888   2.493
14446TIP3   OH264752   2.985   2.848   2.930
14446TIP3    H164753   2.988   2.784   3.001
14446TIP3    H264754   2.962   2.797   2.852
14447TIP3   OH264755   2.172   2.760   3.060
14447TIP3    H164756   2.181   2.692   3.126
14447TIP3    H264757   2.262   2.781   3.034
14448TIP3   OH264758   3.347   3.141   2.757
14448TIP3    H164759   3.314   3.061   2.799
14448TIP3    H264760   3.366   3.200   2.830
14449TIP3   OH264761   2.312   3.237   2.861
14449TIP3    H164762   2.276   3.150   2.841
14449TIP3    H264763   2.396   3.219   2.902
14450TIP3   OH264764   1.958   2.575   2.394
14450TIP3    H164765   1.929   2.658   2.433
14450TIP3    H264766   1.889   2.552   2.332
14451TIP3   OH264767   2.023   2.815   2.696
14451TIP3    H164768   2.051   2.725   2.715
14451TIP3    H264769   2.102   2.868   2.707
14452TIP3   OH264770   3.068   3.621   2.799
14452TIP3    H164771   3.103   3.562   2.732
14452TIP3    H264772   3.045   3.564   2.872
14453TIP3   OH264773   2.805   3.087   2.944
14453TIP3    H164774   2.844   3.008   2.907
14453TIP3    H264775   2.873   3.123   3.001
14454TIP3   OH264776   3.685   2.221   3.037
14454TIP3    H164777   3.697   2.283   3.109
14454TIP3    H264778   3.719   2.266   2.960
14455TIP3   OH264779   3.156   2.507   2.986
14455TIP3    H164780   3.172   2.413   2.984
14455TIP3    H264781   3.068   2.517   2.950
14456TIP3   OH264782   2.448   2.315   2.682
14456TIP3    H164783   2.478   2.396   2.640
14456TIP3    H264784   2.396   2.271   2.615
14457TIP3   OH264785   3.241   2.317   2.533
14457TIP3    H164786   3.274   2.287   2.617
14457TIP3    H264787   3.305   2.382   2.503
14458TIP3   OH264788   2.100   2.558   2.762
14458TIP3    H164789   2.165   2.516   2.819
14458TIP3    H264790   2.114   2.516   2.677
14459TIP3   OH264791   2.548   2.707   2.729
14459TIP3    H164792   2.635   2.667   2.722
14459TIP3    H264793   2.493   2.654   2.672
14460TIP3   OH264794   3.713   2.377   3.266
14460TIP3    H164795   3.657   2.449   3.239
14460TIP3    H264796   3.662   2.329   3.331
14461TIP3   OH264797   2.320   2.223   3.105
14461TIP3    H164798   2.297   2.282   3.034
14461TIP3    H264799   2.249   2.232   3.169
14462TIP3   OH264800   3.052   3.185   2.427
14462TIP3    H164801   3.031   3.172   2.334
14462TIP3    H264802   2.999   3.259   2.454
14463TIP3   OH264803   2.588   2.995   3.090
14463TIP3    H164804   2.535   3.065   3.128
14463TIP3    H264805   2.658   3.040   3.043
14464TIP3   OH264806   3.344   2.277   2.783
14464TIP3    H164807   3.280   2.250   2.848
14464TIP3    H264808   3.398   2.342   2.828
14465TIP3   OH264809   2.290   2.397   2.892
14465TIP3    H164810   2.348   2.451   2.944
14465TIP3    H264811   2.346   2.361   2.822
14466TIP3   OH264812   2.433   3.201   3.196
14466TIP3    H164813   2.439   3.297   3.192
14466TIP3    H264814   2.343   3.184   3.224
14467TIP3   OH264815   2.008   3.181   2.281
14467TIP3    H164816   1.994   3.229   2.199
14467TIP3    H264817   2.034   3.248   2.344
14468TIP3   OH264818   3.380   3.342   2.959
14468TIP3    H164819   3.285   3.342   2.973
14468TIP3    H264820   3.401   3.433   2.936
14469TIP3   OH264821   3.418   2.128   3.114
14469TIP3    H164822   3.344   2.166   3.066
14469TIP3    H264823   3.495   2.157   3.065
14470TIP3   OH264824   2.665   1.907   2.857
14470TIP3    H164825   2.637   1.816   2.867
14470TIP3    H264826   2.590   1.959   2.888
14471TIP3   OH264827   3.190   3.493   2.583
14471TIP3    H164828   3.232   3.409   2.566
14471TIP3    H264829   3.262   3.556   2.582
14472TIP3   OH264830   3.309   3.259   2.510
14472TIP3    H164831   3.231   3.214   2.477
14472TIP3    H264832   3.333   3.210   2.590
14473TIP3   OH264833   3.479   3.130   3.321
14473TIP3    H164834   3.469   3.069   3.248
14473TIP3    H264835   3.494   3.215   3.280
14474TIP3   OH264836   2.942   2.845   2.324
14474TIP3    H164837   2.871   2.899   2.290
14474TIP3    H264838   3.005   2.841   2.252
14475TIP3   OH264839   2.955   2.717   1.975
14475TIP3    H164840   3.004   2.729   2.056
14475TIP3    H264841   3.003   2.649   1.927
14476TIP3   OH264842   3.663   2.793   3.152
14476TIP3    H164843   3.587   2.850   3.143
14476TIP3    H264844   3.719   2.816   3.078
14477TIP3   OH264845   3.299   2.856   2.389
14477TIP3    H164846   3.231   2.881   2.452
14477TIP3    H264847   3.361   2.804   2.440
14478TIP3   OH264848   3.280   2.656   3.334
14478TIP3    H164849   3.280   2.724   3.401
14478TIP3    H264850   3.210   2.681   3.274
14479TIP3   OH264851   2.450   2.915   2.576
14479TIP3    H164852   2.424   2.876   2.493
14479TIP3    H264853   2.495   2.845   2.623
14480TIP3   OH264854   2.609   3.267   2.848
14480TIP3    H164855   2.603   3.257   2.753
14480TIP3    H264856   2.679   3.206   2.874
14481TIP3   OH264857   2.431   2.807   2.959
14481TIP3    H164858   2.482   2.775   2.884
14481TIP3    H264859   2.490   2.868   3.003
14482TIP3   OH264860   3.115   3.356   3.020
14482TIP3    H164861   3.099   3.423   3.086
14482TIP3    H264862   3.080   3.276   3.058
14483TIP3   OH264863   2.587   3.218   3.430
14483TIP3    H164864   2.525   3.276   3.475
14483TIP3    H264865   2.541   3.191   3.350
14484TIP3   OH264866   3.165   2.782   2.159
14484TIP3    H164867   3.215   2.816   2.233
14484TIP3    H264868   3.218   2.805   2.082
14485TIP3   OH264869   2.266   2.826   3.387
14485TIP3    H164870   2.273   2.906   3.438
14485TIP3    H264871   2.175   2.823   3.359
14486TIP3   OH264872   2.938   3.431   2.490
14486TIP3    H164873   3.019   3.453   2.535
14486TIP3    H264874   2.909   3.513   2.449
14487TIP3   OH264875   2.391   3.398   3.502
14487TIP3    H164876   2.387   3.433   3.413
14487TIP3    H264877   2.300   3.389   3.529
14488TIP3   OH264878   3.527   1.929   2.147
14488TIP3    H164879   3.441   1.950   2.185
14488TIP3    H264880   3.562   2.013   2.118
14489TIP3   OH264881   2.367   2.820   2.324
14489TIP3    H164882   2.295   2.871   2.286
14489TIP3    H264883   2.329   2.733   2.338
14490TIP3   OH264884   3.666   3.374   2.008
14490TIP3    H164885   3.682   3.468   2.015
14490TIP3    H264886   3.753   3.335   2.000
14491TIP3   OH264887   1.954   3.065   3.245
14491TIP3    H164888   1.900   3.069   3.166
14491TIP3    H264889   1.968   2.971   3.260
14492TIP3   OH264890   1.927   3.355   2.924
14492TIP3    H164891   2.009   3.346   2.972
14492TIP3    H264892   1.883   3.430   2.966
14493TIP3   OH264893   3.746   3.421   3.519
14493TIP3    H164894   3.735   3.326   3.509
14493TIP3    H264895   3.663   3.451   3.554
14494TIP3   OH264896   2.821   3.356   3.377
14494TIP3    H164897   2.820   3.439   3.424
14494TIP3    H264898   2.737   3.315   3.399
14495TIP3   OH264899   2.910   3.682   2.359
14495TIP3    H164900   2.897   3.692   2.265
14495TIP3    H264901   2.903   3.771   2.394
14496TIP3   OH264902   2.260   3.584   2.554
14496TIP3    H164903   2.276   3.555   2.644
14496TIP3    H264904   2.200   3.519   2.517
14497TIP3   OH264905   3.181   3.656   2.040
14497TIP3    H164906   3.232   3.584   2.001
14497TIP3    H264907   3.196   3.648   2.134
14498TIP3   OH264908   3.180   3.639   2.317
14498TIP3    H164909   3.089   3.638   2.345
14498TIP3    H264910   3.226   3.587   2.383
14499TIP3   OH264911   3.448   2.528   3.539
14499TIP3    H164912   3.389   2.555   3.469
14499TIP3    H264913   3.444   2.433   3.538
14500TIP3   OH264914   2.179   3.210   3.306
14500TIP3    H164915   2.203   3.179   3.394
14500TIP3    H264916   2.100   3.161   3.283
14501TIP3   OH264917   2.425   2.026   2.940
14501TIP3    H164918   2.348   2.015   2.885
14501TIP3    H264919   2.403   2.097   3.000
14502TIP3   OH264920   2.915   2.001   3.279
14502TIP3    H164921   2.961   1.952   3.347
14502TIP3    H264922   2.823   1.986   3.297
14503TIP3   OH264923   3.229   2.387   3.387
14503TIP3    H164924   3.154   2.372   3.446
14503TIP3    H264925   3.217   2.477   3.356
14504TIP3   OH264926   3.311   2.817   1.929
14504TIP3    H164927   3.293   2.835   1.836
14504TIP3    H264928   3.400   2.849   1.942
14505TIP3   OH264929   2.873   2.230   2.024
14505TIP3    H164930   2.818   2.222   2.102
14505TIP3    H264931   2.833   2.170   1.960
14506TIP3   OH264932   2.439   2.550   3.068
14506TIP3    H164933   2.372   2.549   3.136
14506TIP3    H264934   2.441   2.641   3.039
14507TIP3   OH264935   2.407   2.569   2.539
14507TIP3    H164936   2.319   2.531   2.539
14507TIP3    H264937   2.446   2.539   2.457
14508TIP3   OH264938   2.979   2.563   2.308
14508TIP3    H164939   2.968   2.649   2.347
14508TIP3    H264940   3.074   2.552   2.302
14509TIP3   OH264941   2.918   2.603   3.568
14509TIP3    H164942   2.859   2.531   3.594
14509TIP3    H264943   3.000   2.585   3.614
14510TIP3   OH264944   3.105   2.541   2.661
14510TIP3    H164945   3.010   2.553   2.656
14510TIP3    H264946   3.120   2.452   2.631
14511TIP3   OH264947   2.224   2.547   3.240
14511TIP3    H164948   2.234   2.585   3.327
14511TIP3    H264949   2.185   2.461   3.255
14512TIP3   OH264950   2.545   2.290   1.907
14512TIP3    H164951   2.515   2.271   1.995
14512TIP3    H264952   2.484   2.357   1.875
14513TIP3   OH264953   1.900   2.251   2.626
14513TIP3    H164954   1.950   2.260   2.707
14513TIP3    H264955   1.965   2.227   2.560
14514TIP3   OH264956   1.940   2.340   2.137
14514TIP3    H164957   2.011   2.378   2.086
14514TIP3    H264958   1.885   2.414   2.162
14515TIP3   OH264959   3.060   2.687   3.167
14515TIP3    H164960   3.101   2.631   3.101
14515TIP3    H264961   2.993   2.631   3.207
14516TIP3   OH264962   2.731   2.219   2.659
14516TIP3    H164963   2.639   2.220   2.687
14516TIP3    H264964   2.760   2.310   2.667
14517TIP3   OH264965   2.167   2.442   2.522
14517TIP3    H164966   2.094   2.470   2.465
14517TIP3    H264967   2.190   2.356   2.489
14518TIP3   OH264968   2.495   2.470   2.297
14518TIP3    H164969   2.589   2.462   2.313
14518TIP3    H264970   2.489   2.512   2.211
14519TIP3   OH264971   3.165   2.225   2.994
14519TIP3    H164972   3.119   2.238   3.077
14519TIP3    H264973   3.101   2.184   2.937
14520TIP3   OH264974   2.462   2.571   2.043
14520TIP3    H164975   2.409   2.547   1.967
14520TIP3    H264976   2.540   2.613   2.005
14521TIP3   OH264977   3.493   3.785   3.622
14521TIP3    H164978   3.517   3.826   3.539
14521TIP3    H264979   3.564   3.807   3.681
14522TIP3   OH264980   2.259   3.057   3.549
14522TIP3    H164981   2.324   3.050   3.619
14522TIP3    H264982   2.175   3.062   3.595
14523TIP3   OH264983   2.890   2.556   2.942
14523TIP3    H164984   2.861   2.548   2.851
14523TIP3    H264985   2.828   2.503   2.991
14524TIP3   OH264986   2.291   2.189   2.483
14524TIP3    H164987   2.240   2.114   2.512
14524TIP3    H264988   2.350   2.154   2.417
14525TIP3   OH264989   2.692   2.440   3.100
14525TIP3    H164990   2.610   2.488   3.089
14525TIP3    H264991   2.737   2.484   3.172
14526TIP3   OH264992   2.741   3.022   2.231
14526TIP3    H164993   2.669   2.979   2.184
14526TIP3    H264994   2.704   3.045   2.316
14527TIP3   OH264995   3.463   2.974   3.092
14527TIP3    H164996   3.523   3.029   3.042
14527TIP3    H264997   3.393   2.953   3.030
14528TIP3   OH264998   3.118   2.353   2.007
14528TIP3    H164999   3.031   2.317   2.027
14528TIP3    H265000   3.146   2.394   2.089
14529TIP3   OH265001   2.917   3.087   3.371
14529TIP3    H165002   2.874   3.035   3.439
14529TIP3    H265003   2.878   3.174   3.379
14530TIP3   OH265004   3.235   2.504   2.213
14530TIP3    H165005   3.313   2.488   2.267
14530TIP3    H265006   3.239   2.597   2.193
14531TIP3   OH265007   2.269   2.964   2.782
14531TIP3    H165008   2.328   2.957   2.708
14531TIP3    H265009   2.308   2.909   2.850
14532TIP3   OH265010   2.959   3.167   2.159
14532TIP3    H165011   2.925   3.256   2.166
14532TIP3    H265012   2.885   3.111   2.182
14533TIP3   OH265013   1.987   2.807   3.349
14533TIP3    H165014   1.975   2.770   3.436
14533TIP3    H265015   1.917   2.768   3.297
14534TIP3   OH265016   2.699   2.782   3.559
14534TIP3    H165017   2.631   2.740   3.507
14534TIP3    H265018   2.776   2.726   3.548
14535TIP3   OH265019   3.109   3.352   3.380
14535TIP3    H165020   3.015   3.352   3.362
14535TIP3    H265021   3.116   3.366   3.474
14536TIP3   OH265022   3.662   2.548   2.186
14536TIP3    H165023   3.619   2.525   2.103
14536TIP3    H265024   3.681   2.641   2.178
14537TIP3   OH265025   3.708   3.141   3.475
14537TIP3    H165026   3.618   3.145   3.443
14537TIP3    H265027   3.760   3.124   3.396
14538TIP3   OH265028   3.521   3.402   2.262
14538TIP3    H165029   3.472   3.332   2.304
14538TIP3    H265030   3.552   3.365   2.180
14539TIP3   OH265031   3.267   2.906   2.901
14539TIP3    H165032   3.172   2.898   2.906
14539TIP3    H265033   3.295   2.826   2.856
14540TIP3   OH265034   2.519   3.330   2.577
14540TIP3    H165035   2.529   3.416   2.537
14540TIP3    H265036   2.427   3.327   2.604
14541TIP3   OH265037   2.079   2.787   2.028
14541TIP3    H165038   2.129   2.849   2.081
14541TIP3    H265039   1.990   2.791   2.063
14542TIP3   OH265040   2.611   3.103   2.452
14542TIP3    H165041   2.592   3.185   2.498
14542TIP3    H265042   2.562   3.036   2.500
14543TIP3   OH265043   2.718   3.506   3.154
14543TIP3    H165044   2.778   3.578   3.136
14543TIP3    H265045   2.767   3.449   3.214
14544TIP3   OH265046   2.506   3.624   2.445
14544TIP3    H165047   2.418   3.614   2.481
14544TIP3    H265048   2.552   3.679   2.508
14545TIP3   OH265049   3.021   3.111   3.118
14545TIP3    H165050   2.992   3.097   3.208
14545TIP3    H265051   3.055   3.026   3.090
14546TIP3   OH265052   3.293   3.214   2.038
14546TIP3    H165053   3.326   3.164   2.112
14546TIP3    H265054   3.202   3.187   2.029
14547TIP3   OH265055   3.319   3.532   3.344
14547TIP3    H165056   3.239   3.480   3.338
14547TIP3    H265057   3.305   3.603   3.281
14548TIP3   OH265058   3.727   3.644   2.046
14548TIP3    H165059   3.791   3.714   2.037
14548TIP3    H265060   3.646   3.688   2.072
14549TIP3   OH265061   2.116   2.288   3.282
14549TIP3    H165062   2.023   2.307   3.266
14549TIP3    H265063   2.115   2.215   3.344
14550TIP3   OH265064   3.407   3.061   2.234
14550TIP3    H165065   3.360   3.002   2.292
14550TIP3    H265066   3.499   3.049   2.256
14551TIP3   OH265067   2.111   3.453   3.143
14551TIP3    H165068   2.139   3.372   3.187
14551TIP3    H265069   2.104   3.517   3.214
14552TIP3   OH265070   2.668   3.309   1.886
14552TIP3    H165071   2.677   3.225   1.841
14552TIP3    H265072   2.631   3.285   1.972
14553TIP3   OH265073   2.551   3.272   2.135
14553TIP3    H165074   2.592   3.213   2.199
14553TIP3    H265075   2.568   3.360   2.169
14554TIP3   OH265076   2.187   2.988   2.189
14554TIP3    H165077   2.120   3.036   2.237
14554TIP3    H265078   2.237   3.055   2.143
14555TIP3   OH265079   3.019   2.253   3.228
14555TIP3    H165080   3.079   2.258   3.303
14555TIP3    H265081   2.974   2.170   3.239
14556TIP3   OH265082   3.092   2.181   2.352
14556TIP3    H165083   3.062   2.252   2.295
14556TIP3    H265084   3.141   2.225   2.421
14557TIP3   OH265085   2.853   3.414   2.174
14557TIP3    H165086   2.766   3.446   2.199
14557TIP3    H265087   2.903   3.494   2.156
14558TIP3   OH265088   2.757   2.425   2.367
14558TIP3    H165089   2.835   2.470   2.334
14558TIP3    H265090   2.754   2.447   2.460
14559TIP3   OH265091   2.893   2.504   3.289
14559TIP3    H165092   2.899   2.510   3.384
14559TIP3    H265093   2.923   2.416   3.268
14560TIP3   OH265094   2.852   2.074   2.459
14560TIP3    H165095   2.823   2.132   2.529
14560TIP3    H265096   2.937   2.109   2.432
14561TIP3   OH265097   2.606   3.532   2.210
14561TIP3    H165098   2.592   3.611   2.158
14561TIP3    H265099   2.572   3.554   2.297
14562TIP3   OH265100   2.450   2.227   2.159
14562TIP3    H165101   2.441   2.306   2.213
14562TIP3    H265102   2.534   2.190   2.186
14563TIP3   OH265103   3.466   2.260   3.355
14563TIP3    H165104   3.381   2.301   3.371
14563TIP3    H265105   3.453   2.209   3.275
14564TIP3   OH265106   3.327   2.658   2.776
14564TIP3    H165107   3.243   2.623   2.746
14564TIP3    H265108   3.359   2.594   2.839
14565TIP3   OH265109   2.299   3.202   2.040
14565TIP3    H165110   2.374   3.241   2.084
14565TIP3    H265111   2.336   3.146   1.972
14566TIP3   OH265112   2.076   2.514   1.971
14566TIP3    H165113   2.099   2.600   2.004
14566TIP3    H265114   2.009   2.530   1.905
14567TIP3   OH265115   3.460   3.611   2.946
14567TIP3    H165116   3.450   3.679   2.880
14567TIP3    H265117   3.554   3.606   2.962
14568TIP3   OH265118   2.172   1.998   2.827
14568TIP3    H165119   2.166   1.983   2.733
14568TIP3    H265120   2.143   1.916   2.867
14569TIP3   OH265121   2.068   3.418   2.434
14569TIP3    H165122   2.004   3.443   2.500
14569TIP3    H265123   2.054   3.480   2.362
14570TIP3   OH265124   2.032   3.689   3.607
14570TIP3    H165125   2.094   3.671   3.677
14570TIP3    H265126   1.997   3.603   3.583
14571TIP3   OH265127   2.449   3.525   3.744
14571TIP3    H165128   2.532   3.493   3.780
14571TIP3    H265129   2.440   3.479   3.661
14572TIP3   OH265130   2.873   3.497   1.875
14572TIP3    H165131   2.807   3.428   1.889
14572TIP3    H265132   2.952   3.449   1.849
14573TIP3   OH265133   3.132   3.382   3.654
14573TIP3    H165134   3.096   3.304   3.695
14573TIP3    H265135   3.206   3.406   3.710
14574TIP3   OH265136   3.323   3.457   1.912
14574TIP3    H165137   3.325   3.377   1.964
14574TIP3    H265138   3.403   3.452   1.859
14575TIP3   OH265139   2.008   3.050   3.671
14575TIP3    H165140   2.011   2.954   3.665
14575TIP3    H265141   1.934   3.075   3.616
14576TIP3   OH265142   2.433   3.025   1.880
14576TIP3    H165143   2.454   2.975   1.959
14576TIP3    H265144   2.517   3.038   1.836
14577TIP3   OH265145   2.690   3.054   3.627
14577TIP3    H165146   2.652   3.097   3.551
14577TIP3    H265147   2.692   2.961   3.604
14578TIP3   OH265148   3.027   3.168   1.893
14578TIP3    H165149   2.993   3.160   1.982
14578TIP3    H265150   3.012   3.082   1.854
14579TIP3   OH265151   3.241   3.103   3.470
14579TIP3    H165152   3.323   3.121   3.424
14579TIP3    H265153   3.176   3.155   3.425
14580TIP3   OH265154   2.081   2.778   3.643
14580TIP3    H165155   2.164   2.737   3.616
14580TIP3    H265156   2.084   2.778   3.738
14581TIP3   OH265157   2.529   2.894   2.107
14581TIP3    H165158   2.480   2.857   2.181
14581TIP3    H265159   2.572   2.819   2.066
14582TIP3   OH265160   2.495   2.668   3.385
14582TIP3    H165161   2.419   2.725   3.383
14582TIP3    H265162   2.553   2.702   3.317
14583TIP3   OH265163   2.677   2.717   1.949
14583TIP3    H165164   2.677   2.744   1.857
14583TIP3    H265165   2.769   2.708   1.972
14584TIP3   OH265166   3.031   2.882   3.682
14584TIP3    H165167   3.027   2.822   3.608
14584TIP3    H265168   2.993   2.832   3.755
14585TIP3   OH265169   3.570   2.914   1.904
14585TIP3    H165170   3.573   2.891   1.811
14585TIP3    H265171   3.560   3.009   1.905
14586TIP3   OH265172   2.536   2.405   3.459
14586TIP3    H165173   2.540   2.343   3.386
14586TIP3    H265174   2.522   2.490   3.417
14587TIP3   OH265175   2.562   2.236   3.234
14587TIP3    H165176   2.617   2.288   3.176
14587TIP3    H265177   2.478   2.230   3.189
14588TIP3   OH265178   2.682   2.768   3.217
14588TIP3    H165179   2.775   2.759   3.199
14588TIP3    H265180   2.657   2.850   3.175
14589TIP3   OH265181   3.146   2.547   3.727
14589TIP3    H165182   3.134   2.471   3.784
14589TIP3    H265183   3.235   2.538   3.693
14590TIP3   OH265184   3.306   2.846   3.530
14590TIP3    H165185   3.275   2.930   3.495
14590TIP3    H265186   3.401   2.854   3.530
14591TIP3   OH265187   2.370   2.468   3.677
14591TIP3    H165188   2.291   2.415   3.668
14591TIP3    H265189   2.420   2.450   3.597
14592TIP3   OH265190   2.637   1.974   3.284
14592TIP3    H165191   2.611   2.064   3.268
14592TIP3    H265192   2.569   1.922   3.241
14593TIP3   OH265193   2.758   2.387   3.624
14593TIP3    H165194   2.721   2.355   3.706
14593TIP3    H265195   2.684   2.386   3.563
14594TIP3   OH265196   3.018   2.313   3.539
14594TIP3    H165197   2.930   2.316   3.576
14594TIP3    H265198   3.069   2.262   3.602
14595TIP3   OH265199   3.218   2.194   3.707
14595TIP3    H165200   3.208   2.099   3.710
14595TIP3    H265201   3.183   2.225   3.790
14596TIP3   OH265202   2.168   2.274   3.647
14596TIP3    H165203   2.171   2.194   3.594
14596TIP3    H265204   2.179   2.243   3.737
14597TIP3   OH265205   2.624   1.904   3.550
14597TIP3    H165206   2.680   1.827   3.549
14597TIP3    H265207   2.621   1.933   3.459
14598TIP3   OH265208   2.704   2.070   3.755
14598TIP3    H165209   2.680   2.015   3.681
14598TIP3    H265210   2.641   2.142   3.754
14599TIP3   OH265211   2.654   3.813   2.135
14599TIP3    H165212   2.738   3.766   2.128
14599TIP3    H265213   2.645   3.859   2.052
14600TIP3   OH265214   2.036   3.254   1.977
14600TIP3    H165215   2.126   3.241   2.008
14600TIP3    H265216   2.018   3.175   1.925
14601TIP3   OH265217   1.894   3.745   2.542
14601TIP3    H165218   1.836   3.711   2.473
14601TIP3    H265219   1.911   3.669   2.598
14602TIP3   OH265220   1.965   3.529   2.698
14602TIP3    H165221   1.928   3.450   2.739
14602TIP3    H265222   2.013   3.572   2.769
14603TIP3   OH265223   3.725   3.612   3.021
14603TIP3    H165224   3.717   3.613   3.116
14603TIP3    H265225   3.793   3.676   3.002
14604TIP3   OH265226   3.667   3.586   3.294
14604TIP3    H165227   3.613   3.515   3.261
14604TIP3    H265228   3.715   3.549   3.369
14605TIP3   OH265229   3.475   3.172   3.785
14605TIP3    H165230   3.405   3.191   3.846
14605TIP3    H265231   3.540   3.241   3.801
14606TIP3   OH265232   3.671   3.005   2.306
14606TIP3    H165233   3.743   3.067   2.313
14606TIP3    H265234   3.683   2.945   2.379
14607TIP3   OH265235   3.715   2.806   2.494
14607TIP3    H165236   3.630   2.772   2.522
14607TIP3    H265237   3.764   2.818   2.575
14608TIP3   OH265238   3.696   3.105   3.008
14608TIP3    H165239   3.747   3.037   2.964
14608TIP3    H265240   3.723   3.187   2.966
14609TIP3   OH265241   3.504   3.379   3.206
14609TIP3    H165242   3.432   3.425   3.249
14609TIP3    H265243   3.471   3.361   3.118
14610TIP3   OH265244   3.711   2.811   2.116
14610TIP3    H165245   3.660   2.840   2.040
14610TIP3    H265246   3.692   2.876   2.183
14611TIP3   OH265247   3.566   2.506   1.931
14611TIP3    H165248   3.534   2.565   1.863
14611TIP3    H265249   3.543   2.419   1.901
14612TIP3   OH265250   3.466   2.687   2.539
14612TIP3    H165251   3.460   2.599   2.502
14612TIP3    H265252   3.422   2.681   2.623
14613TIP3   OH265253   1.948   2.874   2.956
14613TIP3    H165254   1.957   2.854   2.862
14613TIP3    H265255   2.029   2.842   2.995
14614TIP3   OH265256   3.578   2.875   3.525
14614TIP3    H165257   3.628   2.794   3.512
14614TIP3    H265258   3.628   2.942   3.478
14615TIP3   OH265259   3.701   2.632   3.504
14615TIP3    H165260   3.613   2.593   3.510
14615TIP3    H265261   3.760   2.563   3.534
14616TIP3   OH265262   3.488   2.260   1.830
14616TIP3    H165263   3.516   2.214   1.909
14616TIP3    H265264   3.395   2.236   1.821
14617TIP3   OH265265   3.463   2.448   2.370
14617TIP3    H165266   3.480   2.355   2.377
14617TIP3    H265267   3.535   2.482   2.317
14618TIP3   OH265268   3.482   2.467   2.929
14618TIP3    H165269   3.576   2.479   2.912
14618TIP3    H265270   3.472   2.489   3.022
14619TIP3   OH265271   3.515   2.562   3.194
14619TIP3    H165272   3.433   2.588   3.236
14619TIP3    H265273   3.563   2.644   3.184
14620TIP3   OH265274   1.944   2.394   3.536
14620TIP3    H165275   2.028   2.370   3.576
14620TIP3    H265276   1.890   2.315   3.545
14621TIP3   OH265277   3.743   1.991   3.716
14621TIP3    H165278   3.804   1.923   3.688
14621TIP3    H265279   3.745   2.056   3.646
14622TIP3   OH265280   3.514   2.172   2.376
14622TIP3    H165281   3.530   2.136   2.463
14622TIP3    H265282   3.441   2.120   2.342
14623TIP3   OH265283   2.046   2.243   2.862
14623TIP3    H165284   2.083   2.155   2.861
14623TIP3    H265285   2.122   2.301   2.877
14624TIP3   OH265286   1.866   2.535   2.917
14624TIP3    H165287   1.937   2.534   2.853
14624TIP3    H265288   1.905   2.574   2.995
14625TIP3   OH265289   3.681   2.183   3.529
14625TIP3    H165290   3.609   2.216   3.583
14625TIP3    H265291   3.637   2.139   3.455
14626TIP3   OH265292   3.647   2.151   2.032
14626TIP3    H165293   3.697   2.092   1.976
14626TIP3    H265294   3.713   2.210   2.069
14627TIP3   OH265295   1.919   2.144   2.327
14627TIP3    H165296   1.827   2.149   2.350
14627TIP3    H265297   1.934   2.220   2.270
14628TIP3   OH265298   3.380   3.682   2.546
14628TIP3    H165299   3.457   3.674   2.490
14628TIP3    H265300   3.412   3.725   2.626
14629TIP3   OH265301   1.926   2.030   3.198
14629TIP3    H165302   1.854   2.008   3.257
14629TIP3    H265303   1.886   2.083   3.129
14630TIP3   OH265304   2.129   3.378   3.598
14630TIP3    H165305   2.041   3.385   3.563
14630TIP3    H265306   2.117   3.350   3.689
14631TIP3   OH265307   2.453   3.477   3.228
14631TIP3    H165308   2.420   3.564   3.205
14631TIP3    H265309   2.547   3.482   3.211
14632TIP3   OH265310   2.836   3.600   3.506
14632TIP3    H165311   2.844   3.571   3.597
14632TIP3    H265312   2.916   3.649   3.489
14633TIP3   OH265313   3.073   3.737   3.470
14633TIP3    H165314   3.140   3.678   3.434
14633TIP3    H265315   3.112   3.770   3.551
14634TIP3   OH265316   3.581   1.951   3.351
14634TIP3    H165317   3.499   1.959   3.302
14634TIP3    H265318   3.608   1.860   3.337
14635TIP3   OH265319   2.156   3.799   3.240
14635TIP3    H165320   2.071   3.827   3.205
14635TIP3    H265321   2.159   3.836   3.328
14636TIP3   OH265322   2.409   3.742   3.155
14636TIP3    H165323   2.320   3.759   3.186
14636TIP3    H265324   2.414   3.788   3.071
14637TIP3   OH265325   2.866   3.727   3.064
14637TIP3    H165326   2.810   3.769   2.998
14637TIP3    H265327   2.875   3.793   3.133
14638TIP3   OH265328   3.093   3.598   3.154
14638TIP3    H165329   3.015   3.643   3.122
14638TIP3    H265330   3.163   3.663   3.146
14639TIP3   OH265331   3.331   3.744   3.152
14639TIP3    H165332   3.358   3.835   3.138
14639TIP3    H265333   3.375   3.695   3.082
14640TIP3   OH265334   2.125   3.623   2.914
14640TIP3    H165335   2.107   3.577   2.996
14640TIP3    H265336   2.204   3.581   2.880
14641TIP3   OH265337   2.341   3.499   2.801
14641TIP3    H165338   2.323   3.408   2.825
14641TIP3    H265339   2.426   3.519   2.841
14642TIP3   OH265340   2.599   3.537   2.903
14642TIP3    H165341   2.610   3.447   2.874
14642TIP3    H265342   2.629   3.536   2.995
14643TIP3   OH265343   2.970   2.115   2.838
14643TIP3    H165344   2.881   2.115   2.803
14643TIP3    H265345   3.021   2.065   2.775
14644TIP3   OH265346   3.423   1.941   2.781
14644TIP3    H165347   3.480   2.003   2.737
14644TIP3    H265348   3.335   1.974   2.764
14645TIP3   OH265349   3.604   2.058   2.610
14645TIP3    H165350   3.670   1.991   2.592
14645TIP3    H265351   3.655   2.137   2.626
14646TIP3   OH265352   2.150   1.960   2.552
14646TIP3    H165353   2.058   1.942   2.531
14646TIP3    H265354   2.193   1.875   2.547
14647TIP3   OH265355   2.024   1.968   2.135
14647TIP3    H165356   2.091   2.022   2.093
14647TIP3    H265357   1.993   2.021   2.209
14648TIP3   OH265358   2.619   1.931   2.578
14648TIP3    H165359   2.685   1.992   2.546
14648TIP3    H265360   2.636   1.924   2.672
14649TIP3   OH265361   3.160   1.977   2.685
14649TIP3    H165362   3.166   1.955   2.592
14649TIP3    H265363   3.129   1.897   2.726
14650TIP3   OH265364   3.302   2.006   2.289
14650TIP3    H165365   3.226   2.062   2.301
14650TIP3    H265366   3.269   1.917   2.306
14651TIP3   OH265367   2.039   3.592   2.221
14651TIP3    H165368   1.958   3.577   2.172
14651TIP3    H265369   2.054   3.687   2.214
14652TIP3   OH265370   2.242   2.128   1.994
14652TIP3    H165371   2.293   2.066   1.940
14652TIP3    H265372   2.305   2.160   2.059
14653TIP3   OH265373   2.710   2.189   2.244
14653TIP3    H165374   2.743   2.122   2.304
14653TIP3    H265375   2.724   2.271   2.291
14654TIP3   OH265376   2.904   3.683   2.078
14654TIP3    H165377   2.998   3.696   2.066
14654TIP3    H265378   2.877   3.628   2.004
14655TIP3   OH265379   3.587   3.648   2.362
14655TIP3    H165380   3.568   3.559   2.333
14655TIP3    H265381   3.574   3.702   2.284
14656TIP3   OH265382   2.168   2.029   3.504
14656TIP3    H165383   2.109   1.961   3.536
14656TIP3    H265384   2.251   2.013   3.550
14657TIP3   OH265385   2.372   1.961   3.678
14657TIP3    H165386   2.457   1.933   3.643
14657TIP3    H265387   2.339   1.885   3.725
14658TIP3   OH265388   2.227   3.632   1.928
14658TIP3    H165389   2.190   3.605   2.012
14658TIP3    H265390   2.303   3.575   1.915
14659TIP3   OH265391   3.223   1.918   3.694
14659TIP3    H165392   3.208   1.871   3.776
14659TIP3    H265393   3.316   1.905   3.676
14660TIP3   OH265394   3.488   3.515   3.569
14660TIP3    H165395   3.428   3.510   3.495
14660TIP3    H265396   3.488   3.608   3.593
14661TIP3   OH265397   4.952   2.919   2.530
14661TIP3    H165398   4.928   3.009   2.507
14661TIP3    H265399   4.927   2.911   2.622
14662TIP3   OH265400   4.845   2.823   2.918
14662TIP3    H165401   4.869   2.792   3.006
14662TIP3    H265402   4.793   2.751   2.881
14663TIP3   OH265403   4.059   2.776   3.079
14663TIP3    H165404   4.063   2.691   3.123
14663TIP3    H265405   4.123   2.830   3.125
14664TIP3   OH265406   5.226   3.133   2.756
14664TIP3    H165407   5.195   3.059   2.808
14664TIP3    H265408   5.247   3.200   2.821
14665TIP3   OH265409   4.204   3.233   2.858
14665TIP3    H165410   4.168   3.145   2.846
14665TIP3    H265411   4.294   3.219   2.886
14666TIP3   OH265412   3.858   2.583   2.396
14666TIP3    H165413   3.821   2.662   2.434
14666TIP3    H265414   3.790   2.551   2.336
14667TIP3   OH265415   3.914   2.819   2.697
14667TIP3    H165416   3.940   2.729   2.717
14667TIP3    H265417   3.992   2.871   2.713
14668TIP3   OH265418   4.956   3.621   2.790
14668TIP3    H165419   4.992   3.561   2.725
14668TIP3    H265420   4.925   3.564   2.860
14669TIP3   OH265421   4.699   3.076   2.949
14669TIP3    H165422   4.735   2.993   2.917
14669TIP3    H265423   4.765   3.109   3.010
14670TIP3   OH265424   5.578   2.223   3.042
14670TIP3    H165425   5.593   2.292   3.106
14670TIP3    H265426   5.634   2.245   2.968
14671TIP3   OH265427   5.001   2.503   2.948
14671TIP3    H165428   5.015   2.410   2.967
14671TIP3    H265429   4.983   2.506   2.855
14672TIP3   OH265430   4.351   2.310   2.684
14672TIP3    H165431   4.352   2.396   2.641
14672TIP3    H265432   4.294   2.256   2.630
14673TIP3   OH265433   5.130   2.336   2.527
14673TIP3    H165434   5.168   2.304   2.609
14673TIP3    H265435   5.204   2.373   2.479
14674TIP3   OH265436   3.988   2.562   2.768
14674TIP3    H165437   4.051   2.520   2.826
14674TIP3    H265438   4.004   2.524   2.682
14675TIP3   OH265439   4.482   2.708   2.718
14675TIP3    H165440   4.561   2.665   2.753
14675TIP3    H265441   4.439   2.641   2.666
14676TIP3   OH265442   5.615   2.389   3.263
14676TIP3    H165443   5.539   2.445   3.247
14676TIP3    H265444   5.634   2.401   3.356
14677TIP3   OH265445   4.206   2.227   3.110
14677TIP3    H165446   4.181   2.286   3.039
14677TIP3    H265447   4.133   2.233   3.173
14678TIP3   OH265448   4.870   3.158   2.429
14678TIP3    H165449   4.897   3.182   2.341
14678TIP3    H265450   4.843   3.241   2.469
14679TIP3   OH265451   4.471   2.999   3.090
14679TIP3    H165452   4.418   3.069   3.127
14679TIP3    H265453   4.543   3.044   3.046
14680TIP3   OH265454   5.228   2.287   2.777
14680TIP3    H165455   5.162   2.260   2.840
14680TIP3    H265456   5.287   2.344   2.826
14681TIP3   OH265457   4.184   2.397   2.891
14681TIP3    H165458   4.238   2.455   2.945
14681TIP3    H265459   4.244   2.361   2.826
14682TIP3   OH265460   4.317   3.202   3.197
14682TIP3    H165461   4.324   3.297   3.190
14682TIP3    H265462   4.227   3.187   3.227
14683TIP3   OH265463   3.891   3.180   2.284
14683TIP3    H165464   3.876   3.229   2.203
14683TIP3    H265465   3.914   3.248   2.348
14684TIP3   OH265466   5.262   3.340   2.952
14684TIP3    H165467   5.168   3.343   2.970
14684TIP3    H265468   5.285   3.430   2.929
14685TIP3   OH265469   5.329   2.114   3.126
14685TIP3    H165470   5.259   2.164   3.083
14685TIP3    H265471   5.409   2.145   3.084
14686TIP3   OH265472   4.565   1.916   2.856
14686TIP3    H165473   4.539   1.824   2.859
14686TIP3    H265474   4.489   1.964   2.888
14687TIP3   OH265475   5.076   3.483   2.580
14687TIP3    H165476   5.116   3.399   2.559
14687TIP3    H265477   5.149   3.545   2.581
14688TIP3   OH265478   5.198   3.251   2.508
14688TIP3    H165479   5.228   3.190   2.440
14688TIP3    H265480   5.212   3.204   2.590
14689TIP3   OH265481   5.376   3.132   3.312
14689TIP3    H165482   5.369   3.071   3.238
14689TIP3    H265483   5.389   3.218   3.272
14690TIP3   OH265484   4.823   2.834   2.297
14690TIP3    H165485   4.751   2.886   2.332
14690TIP3    H265486   4.897   2.857   2.353
14691TIP3   OH265487   4.871   2.645   2.039
14691TIP3    H165488   4.943   2.673   2.095
14691TIP3    H265489   4.914   2.597   1.968
14692TIP3   OH265490   5.544   2.782   3.150
14692TIP3    H165491   5.471   2.844   3.142
14692TIP3    H265492   5.604   2.807   3.079
14693TIP3   OH265493   5.181   2.855   2.391
14693TIP3    H165494   5.110   2.875   2.453
14693TIP3    H265495   5.243   2.804   2.442
14694TIP3   OH265496   5.148   2.651   3.336
14694TIP3    H165497   5.147   2.723   3.399
14694TIP3    H265498   5.082   2.676   3.271
14695TIP3   OH265499   4.343   2.908   2.585
14695TIP3    H165500   4.308   2.867   2.506
14695TIP3    H265501   4.394   2.839   2.628
14696TIP3   OH265502   4.493   3.254   2.847
14696TIP3    H165503   4.496   3.257   2.752
14696TIP3    H265504   4.567   3.198   2.872
14697TIP3   OH265505   4.345   2.803   2.943
14697TIP3    H165506   4.403   2.781   2.870
14697TIP3    H265507   4.393   2.869   2.993
14698TIP3   OH265508   5.001   3.349   3.029
14698TIP3    H165509   4.985   3.422   3.090
14698TIP3    H265510   4.960   3.274   3.071
14699TIP3   OH265511   4.477   3.226   3.426
14699TIP3    H165512   4.415   3.283   3.472
14699TIP3    H265513   4.429   3.198   3.347
14700TIP3   OH265514   5.095   2.753   2.152
14700TIP3    H165515   5.132   2.800   2.226
14700TIP3    H265516   5.128   2.799   2.075
14701TIP3   OH265517   4.148   2.829   3.369
14701TIP3    H165518   4.159   2.905   3.426
14701TIP3    H265519   4.053   2.820   3.358
14702TIP3   OH265520   4.821   3.425   2.494
14702TIP3    H165521   4.906   3.446   2.532
14702TIP3    H265522   4.791   3.508   2.457
14703TIP3   OH265523   4.275   3.400   3.499
14703TIP3    H165524   4.272   3.434   3.409
14703TIP3    H265525   4.183   3.391   3.524
14704TIP3   OH265526   5.414   1.931   2.141
14704TIP3    H165527   5.329   1.955   2.179
14704TIP3    H265528   5.450   2.014   2.110
14705TIP3   OH265529   4.234   2.820   2.337
14705TIP3    H165530   4.174   2.885   2.300
14705TIP3    H265531   4.181   2.741   2.348
14706TIP3   OH265532   5.561   3.380   2.006
14706TIP3    H165533   5.579   3.473   2.015
14706TIP3    H265534   5.647   3.339   2.001
14707TIP3   OH265535   3.838   3.062   3.249
14707TIP3    H165536   3.786   3.070   3.169
14707TIP3    H265537   3.851   2.968   3.261
14708TIP3   OH265538   3.812   3.355   2.927
14708TIP3    H165539   3.896   3.351   2.973
14708TIP3    H265540   3.768   3.431   2.965
14709TIP3   OH265541   5.632   3.408   3.513
14709TIP3    H165542   5.617   3.314   3.510
14709TIP3    H265543   5.549   3.445   3.544
14710TIP3   OH265544   4.713   3.357   3.373
14710TIP3    H165545   4.710   3.438   3.423
14710TIP3    H265546   4.629   3.314   3.393
14711TIP3   OH265547   4.799   3.693   2.364
14711TIP3    H165548   4.779   3.706   2.271
14711TIP3    H265549   4.772   3.775   2.406
14712TIP3   OH265550   4.142   3.591   2.550
14712TIP3    H165551   4.162   3.560   2.639
14712TIP3    H265552   4.087   3.522   2.513
14713TIP3   OH265553   5.086   3.659   2.040
14713TIP3    H165554   5.136   3.586   2.003
14713TIP3    H265555   5.097   3.650   2.134
14714TIP3   OH265556   5.067   3.641   2.316
14714TIP3    H165557   4.975   3.649   2.342
14714TIP3    H265558   5.109   3.595   2.389
14715TIP3   OH265559   5.333   2.526   3.541
14715TIP3    H165560   5.264   2.565   3.488
14715TIP3    H265561   5.339   2.436   3.511
14716TIP3   OH265562   4.065   3.208   3.308
14716TIP3    H165563   4.089   3.175   3.395
14716TIP3    H265564   3.985   3.160   3.286
14717TIP3   OH265565   4.322   2.030   2.945
14717TIP3    H165566   4.246   2.018   2.889
14717TIP3    H265567   4.297   2.100   3.005
14718TIP3   OH265568   4.800   1.996   3.286
14718TIP3    H165569   4.845   1.948   3.356
14718TIP3    H265570   4.707   1.988   3.309
14719TIP3   OH265571   5.092   2.378   3.359
14719TIP3    H165572   5.027   2.365   3.429
14719TIP3    H265573   5.097   2.473   3.349
14720TIP3   OH265574   5.161   2.861   1.904
14720TIP3    H165575   5.161   2.852   1.809
14720TIP3    H265576   5.251   2.884   1.927
14721TIP3   OH265577   4.746   2.247   2.011
14721TIP3    H165578   4.694   2.240   2.091
14721TIP3    H265579   4.711   2.180   1.953
14722TIP3   OH265580   4.329   2.555   3.063
14722TIP3    H165581   4.262   2.555   3.131
14722TIP3    H265582   4.329   2.644   3.029
14723TIP3   OH265583   4.331   2.548   2.548
14723TIP3    H165584   4.236   2.536   2.549
14723TIP3    H265585   4.356   2.527   2.458
14724TIP3   OH265586   4.878   2.578   2.416
14724TIP3    H165587   4.856   2.661   2.374
14724TIP3    H265588   4.950   2.543   2.365
14725TIP3   OH265589   4.790   2.596   3.547
14725TIP3    H165590   4.740   2.524   3.584
14725TIP3    H265591   4.874   2.594   3.593
14726TIP3   OH265592   4.971   2.514   2.676
14726TIP3    H165593   4.926   2.558   2.604
14726TIP3    H265594   5.020   2.443   2.634
14727TIP3   OH265595   4.111   2.546   3.232
14727TIP3    H165596   4.115   2.588   3.318
14727TIP3    H265597   4.068   2.462   3.248
14728TIP3   OH265598   4.441   2.297   1.908
14728TIP3    H165599   4.405   2.275   1.994
14728TIP3    H265600   4.375   2.353   1.868
14729TIP3   OH265601   3.786   2.259   2.611
14729TIP3    H165602   3.844   2.262   2.687
14729TIP3    H265603   3.842   2.226   2.540
14730TIP3   OH265604   3.834   2.336   2.135
14730TIP3    H165605   3.908   2.377   2.090
14730TIP3    H265606   3.777   2.409   2.158
14731TIP3   OH265607   4.932   2.677   3.147
14731TIP3    H165608   4.963   2.617   3.078
14731TIP3    H265609   4.867   2.626   3.195
14732TIP3   OH265610   4.630   2.272   2.635
14732TIP3    H165611   4.541   2.277   2.669
14732TIP3    H265612   4.680   2.233   2.707
14733TIP3   OH265613   4.072   2.463   2.523
14733TIP3    H165614   3.996   2.492   2.472
14733TIP3    H265615   4.084   2.371   2.499
14734TIP3   OH265616   4.398   2.472   2.291
14734TIP3    H165617   4.491   2.467   2.311
14734TIP3    H265618   4.394   2.525   2.211
14735TIP3   OH265619   5.024   2.224   2.955
14735TIP3    H165620   4.985   2.224   3.042
14735TIP3    H265621   4.959   2.180   2.899
14736TIP3   OH265622   4.343   2.594   2.044
14736TIP3    H165623   4.256   2.565   2.020
14736TIP3    H265624   4.395   2.585   1.964
14737TIP3   OH265625   5.382   3.808   3.596
14737TIP3    H165626   5.420   3.811   3.508
14737TIP3    H265627   5.457   3.816   3.655
14738TIP3   OH265628   4.144   3.050   3.545
14738TIP3    H165629   4.209   3.045   3.615
14738TIP3    H265630   4.060   3.056   3.590
14739TIP3   OH265631   4.702   2.585   2.838
14739TIP3    H165632   4.769   2.526   2.802
14739TIP3    H265633   4.667   2.538   2.914
14740TIP3   OH265634   4.179   2.195   2.493
14740TIP3    H165635   4.126   2.120   2.519
14740TIP3    H265636   4.226   2.165   2.415
14741TIP3   OH265637   4.592   2.461   3.064
14741TIP3    H165638   4.506   2.504   3.073
14741TIP3    H265639   4.641   2.489   3.140
14742TIP3   OH265640   4.611   3.004   2.217
14742TIP3    H165641   4.529   2.971   2.180
14742TIP3    H265642   4.585   3.041   2.302
14743TIP3   OH265643   5.353   2.973   3.087
14743TIP3    H165644   5.415   3.027   3.038
14743TIP3    H265645   5.281   2.957   3.026
14744TIP3   OH265646   5.004   2.286   2.094
14744TIP3    H165647   4.912   2.288   2.068
14744TIP3    H265648   5.020   2.371   2.135
14745TIP3   OH265649   4.784   3.064   3.384
14745TIP3    H165650   4.805   3.025   3.469
14745TIP3    H265651   4.752   3.152   3.405
14746TIP3   OH265652   5.089   2.499   2.250
14746TIP3    H165653   5.174   2.475   2.287
14746TIP3    H265654   5.103   2.586   2.212
14747TIP3   OH265655   4.155   2.950   2.790
14747TIP3    H165656   4.218   2.948   2.719
14747TIP3    H265657   4.193   2.895   2.858
14748TIP3   OH265658   4.823   3.170   2.142
14748TIP3    H165659   4.800   3.262   2.155
14748TIP3    H265660   4.751   3.121   2.181
14749TIP3   OH265661   3.869   2.798   3.346
14749TIP3    H165662   3.849   2.755   3.429
14749TIP3    H265663   3.800   2.769   3.287
14750TIP3   OH265664   4.578   2.782   3.563
14750TIP3    H165665   4.510   2.740   3.509
14750TIP3    H265666   4.657   2.730   3.547
14751TIP3   OH265667   4.995   3.336   3.368
14751TIP3    H165668   4.901   3.340   3.351
14751TIP3    H265669   5.003   3.351   3.462
14752TIP3   OH265670   5.534   2.553   2.192
14752TIP3    H165671   5.490   2.531   2.110
14752TIP3    H265672   5.562   2.644   2.181
14753TIP3   OH265673   5.593   3.127   3.478
14753TIP3    H165674   5.504   3.138   3.445
14753TIP3    H265675   5.647   3.113   3.400
14754TIP3   OH265676   5.403   3.413   2.238
14754TIP3    H165677   5.371   3.330   2.274
14754TIP3    H265678   5.454   3.387   2.161
14755TIP3   OH265679   5.143   2.905   2.903
14755TIP3    H165680   5.048   2.892   2.913
14755TIP3    H265681   5.173   2.823   2.863
14756TIP3   OH265682   4.418   3.328   2.575
14756TIP3    H165683   4.435   3.415   2.538
14756TIP3    H265684   4.327   3.332   2.604
14757TIP3   OH265685   3.974   2.786   2.042
14757TIP3    H165686   4.019   2.854   2.092
14757TIP3    H265687   3.882   2.791   2.071
14758TIP3   OH265688   4.498   3.095   2.447
14758TIP3    H165689   4.486   3.180   2.490
14758TIP3    H265690   4.448   3.034   2.501
14759TIP3   OH265691   4.603   3.503   3.155
14759TIP3    H165692   4.662   3.575   3.132
14759TIP3    H265693   4.653   3.448   3.215
14760TIP3   OH265694   4.405   3.593   2.467
14760TIP3    H165695   4.313   3.606   2.488
14760TIP3    H265696   4.449   3.670   2.502
14761TIP3   OH265697   4.903   3.105   3.139
14761TIP3    H165698   4.857   3.090   3.222
14761TIP3    H265699   4.987   3.061   3.151
14762TIP3   OH265700   5.192   3.209   2.048
14762TIP3    H165701   5.217   3.173   2.133
14762TIP3    H265702   5.099   3.190   2.040
14763TIP3   OH265703   5.199   3.536   3.348
14763TIP3    H165704   5.122   3.481   3.334
14763TIP3    H265705   5.192   3.604   3.281
14764TIP3   OH265706   5.618   3.646   2.056
14764TIP3    H165707   5.684   3.716   2.052
14764TIP3    H265708   5.536   3.692   2.076
14765TIP3   OH265709   3.988   2.299   3.281
14765TIP3    H165710   3.896   2.326   3.273
14765TIP3    H265711   3.987   2.235   3.353
14766TIP3   OH265712   5.282   3.087   2.282
14766TIP3    H165713   5.238   3.010   2.318
14766TIP3    H265714   5.375   3.066   2.285
14767TIP3   OH265715   4.000   3.470   3.142
14767TIP3    H165716   4.025   3.391   3.190
14767TIP3    H265717   4.009   3.541   3.206
14768TIP3   OH265718   4.571   3.304   1.885
14768TIP3    H165719   4.574   3.218   1.844
14768TIP3    H265720   4.526   3.289   1.969
14769TIP3   OH265721   4.435   3.280   2.129
14769TIP3    H165722   4.465   3.231   2.206
14769TIP3    H265723   4.444   3.372   2.154
14770TIP3   OH265724   4.077   2.997   2.194
14770TIP3    H165725   4.008   3.044   2.240
14770TIP3    H265726   4.121   3.065   2.142
14771TIP3   OH265727   4.911   2.234   3.201
14771TIP3    H165728   4.974   2.263   3.267
14771TIP3    H265729   4.872   2.155   3.238
14772TIP3   OH265730   4.982   2.175   2.353
14772TIP3    H165731   4.991   2.215   2.267
14772TIP3    H265732   5.027   2.236   2.413
14773TIP3   OH265733   4.736   3.422   2.176
14773TIP3    H165734   4.648   3.452   2.200
14773TIP3    H265735   4.785   3.502   2.160
14774TIP3   OH265736   4.650   2.421   2.403
14774TIP3    H165737   4.729   2.476   2.411
14774TIP3    H265738   4.641   2.380   2.489
14775TIP3   OH265739   4.768   2.500   3.281
14775TIP3    H165740   4.770   2.528   3.373
14775TIP3    H265741   4.797   2.409   3.283
14776TIP3   OH265742   4.744   2.078   2.458
14776TIP3    H165743   4.720   2.145   2.521
14776TIP3    H265744   4.830   2.104   2.426
14777TIP3   OH265745   4.485   3.535   2.211
14777TIP3    H165746   4.491   3.619   2.166
14777TIP3    H265747   4.457   3.557   2.300
14778TIP3   OH265748   4.340   2.231   2.158
14778TIP3    H165749   4.332   2.311   2.210
14778TIP3    H265750   4.424   2.194   2.185
14779TIP3   OH265751   5.344   2.283   3.395
14779TIP3    H165752   5.250   2.302   3.383
14779TIP3    H265753   5.373   2.252   3.309
14780TIP3   OH265754   5.214   2.656   2.784
14780TIP3    H165755   5.130   2.611   2.771
14780TIP3    H265756   5.263   2.597   2.841
14781TIP3   OH265757   4.181   3.205   2.035
14781TIP3    H165758   4.253   3.253   2.074
14781TIP3    H265759   4.222   3.149   1.970
14782TIP3   OH265760   3.984   2.516   1.981
14782TIP3    H165761   3.987   2.607   2.013
14782TIP3    H265762   3.917   2.517   1.913
14783TIP3   OH265763   5.343   3.609   2.941
14783TIP3    H165764   5.330   3.679   2.876
14783TIP3    H265765   5.437   3.608   2.957
14784TIP3   OH265766   4.078   1.996   2.822
14784TIP3    H165767   4.065   1.986   2.727
14784TIP3    H265768   4.043   1.916   2.859
14785TIP3   OH265769   3.951   3.409   2.442
14785TIP3    H165770   3.898   3.438   2.515
14785TIP3    H265771   3.937   3.474   2.373
14786TIP3   OH265772   3.920   3.688   3.609
14786TIP3    H165773   3.984   3.668   3.677
14786TIP3    H265774   3.888   3.603   3.581
14787TIP3   OH265775   4.340   3.517   3.742
14787TIP3    H165776   4.420   3.474   3.774
14787TIP3    H265777   4.324   3.477   3.657
14788TIP3   OH265778   4.769   3.497   1.865
14788TIP3    H165779   4.705   3.427   1.882
14788TIP3    H265780   4.847   3.451   1.835
14789TIP3   OH265781   5.009   3.379   3.637
14789TIP3    H165782   4.984   3.299   3.683
14789TIP3    H265783   5.083   3.413   3.687
14790TIP3   OH265784   5.214   3.452   1.910
14790TIP3    H165785   5.227   3.376   1.966
14790TIP3    H265786   5.292   3.455   1.854
14791TIP3   OH265787   3.893   3.050   3.666
14791TIP3    H165788   3.897   2.955   3.661
14791TIP3    H265789   3.819   3.075   3.610
14792TIP3   OH265790   4.319   3.020   1.887
14792TIP3    H165791   4.338   2.966   1.963
14792TIP3    H265792   4.404   3.033   1.845
14793TIP3   OH265793   4.554   3.057   3.632
14793TIP3    H165794   4.534   3.102   3.549
14793TIP3    H265795   4.574   2.967   3.606
14794TIP3   OH265796   4.908   3.166   1.884
14794TIP3    H165797   4.873   3.178   1.973
14794TIP3    H265798   4.889   3.075   1.863
14795TIP3   OH265799   5.113   3.077   3.376
14795TIP3    H165800   5.205   3.102   3.362
14795TIP3    H265801   5.065   3.159   3.372
14796TIP3   OH265802   3.969   2.780   3.647
14796TIP3    H165803   4.046   2.729   3.622
14796TIP3    H265804   3.970   2.781   3.742
14797TIP3   OH265805   4.398   2.865   2.116
14797TIP3    H165806   4.345   2.856   2.195
14797TIP3    H265807   4.400   2.777   2.079
14798TIP3   OH265808   4.383   2.670   3.377
14798TIP3    H165809   4.307   2.728   3.373
14798TIP3    H265810   4.443   2.705   3.311
14799TIP3   OH265811   4.604   2.719   1.939
14799TIP3    H165812   4.579   2.743   1.850
14799TIP3    H265813   4.657   2.640   1.930
14800TIP3   OH265814   4.884   2.921   3.668
14800TIP3    H165815   4.964   2.880   3.634
14800TIP3    H265816   4.850   2.858   3.732
14801TIP3   OH265817   5.436   2.911   1.908
14801TIP3    H165818   5.449   2.887   1.816
14801TIP3    H265819   5.439   3.007   1.908
14802TIP3   OH265820   4.427   2.408   3.452
14802TIP3    H165821   4.435   2.351   3.376
14802TIP3    H265822   4.414   2.495   3.415
14803TIP3   OH265823   4.459   2.249   3.217
14803TIP3    H165824   4.509   2.300   3.153
14803TIP3    H265825   4.371   2.245   3.180
14804TIP3   OH265826   4.575   2.777   3.215
14804TIP3    H165827   4.663   2.802   3.246
14804TIP3    H265828   4.541   2.856   3.174
14805TIP3   OH265829   5.023   2.565   3.714
14805TIP3    H165830   5.054   2.474   3.720
14805TIP3    H265831   5.098   2.617   3.741
14806TIP3   OH265832   5.171   2.856   3.529
14806TIP3    H165833   5.139   2.933   3.481
14806TIP3    H265834   5.267   2.864   3.524
14807TIP3   OH265835   4.258   2.468   3.671
14807TIP3    H165836   4.181   2.412   3.664
14807TIP3    H265837   4.307   2.451   3.590
14808TIP3   OH265838   4.518   1.981   3.281
14808TIP3    H165839   4.497   2.072   3.262
14808TIP3    H265840   4.446   1.931   3.241
14809TIP3   OH265841   4.645   2.376   3.621
14809TIP3    H165842   4.609   2.349   3.705
14809TIP3    H265843   4.570   2.380   3.562
14810TIP3   OH265844   4.905   2.308   3.540
14810TIP3    H165845   4.816   2.316   3.574
14810TIP3    H265846   4.953   2.262   3.609
14811TIP3   OH265847   5.085   2.201   3.731
14811TIP3    H165848   5.081   2.106   3.720
14811TIP3    H265849   5.057   2.216   3.821
14812TIP3   OH265850   4.064   2.266   3.646
14812TIP3    H165851   4.060   2.186   3.594
14812TIP3    H265852   4.072   2.235   3.737
14813TIP3   OH265853   4.513   1.902   3.546
14813TIP3    H165854   4.571   1.826   3.540
14813TIP3    H265855   4.506   1.933   3.456
14814TIP3   OH265856   4.586   2.065   3.756
14814TIP3    H165857   4.562   2.012   3.680
14814TIP3    H265858   4.523   2.137   3.755
14815TIP3   OH265859   4.554   3.768   2.079
14815TIP3    H165860   4.646   3.742   2.078
14815TIP3    H265861   4.548   3.837   2.013
14816TIP3   OH265862   3.914   3.251   1.983
14816TIP3    H165863   4.006   3.243   2.009
14816TIP3    H265864   3.899   3.176   1.926
14817TIP3   OH265865   3.781   3.735   2.537
14817TIP3    H165866   3.722   3.704   2.468
14817TIP3    H265867   3.799   3.658   2.590
14818TIP3   OH265868   3.852   3.518   2.693
14818TIP3    H165869   3.815   3.443   2.739
14818TIP3    H265870   3.900   3.566   2.759
14819TIP3   OH265871   5.608   3.622   3.011
14819TIP3    H165872   5.617   3.618   3.107
14819TIP3    H265873   5.693   3.653   2.981
14820TIP3   OH265874   5.563   3.577   3.287
14820TIP3    H165875   5.507   3.508   3.251
14820TIP3    H265876   5.610   3.534   3.359
14821TIP3   OH265877   5.405   3.172   3.773
14821TIP3    H165878   5.321   3.182   3.818
14821TIP3    H265879   5.459   3.244   3.807
14822TIP3   OH265880   5.541   3.000   2.307
14822TIP3    H165881   5.617   3.059   2.299
14822TIP3    H265882   5.564   2.941   2.379
14823TIP3   OH265883   5.601   2.804   2.494
14823TIP3    H165884   5.517   2.772   2.528
14823TIP3    H265885   5.655   2.819   2.572
14824TIP3   OH265886   5.584   3.101   3.002
14824TIP3    H165887   5.636   3.030   2.964
14824TIP3    H265888   5.617   3.180   2.961
14825TIP3   OH265889   5.385   3.382   3.201
14825TIP3    H165890   5.313   3.427   3.245
14825TIP3    H265891   5.353   3.366   3.112
14826TIP3   OH265892   5.593   2.812   2.113
14826TIP3    H165893   5.539   2.839   2.039
14826TIP3    H265894   5.576   2.877   2.181
14827TIP3   OH265895   5.422   2.513   1.945
14827TIP3    H165896   5.413   2.572   1.869
14827TIP3    H265897   5.407   2.426   1.909
14828TIP3   OH265898   5.345   2.688   2.542
14828TIP3    H165899   5.348   2.597   2.510
14828TIP3    H265900   5.306   2.681   2.629
14829TIP3   OH265901   3.836   2.872   2.954
14829TIP3    H165902   3.848   2.857   2.861
14829TIP3    H265903   3.919   2.845   2.994
14830TIP3   OH265904   5.449   2.872   3.519
14830TIP3    H165905   5.505   2.796   3.503
14830TIP3    H265906   5.501   2.946   3.490
14831TIP3   OH265907   5.583   2.631   3.501
14831TIP3    H165908   5.495   2.597   3.518
14831TIP3    H265909   5.641   2.557   3.522
14832TIP3   OH265910   5.365   2.264   1.835
14832TIP3    H165911   5.407   2.218   1.907
14832TIP3    H265912   5.273   2.237   1.839
14833TIP3   OH265913   5.341   2.438   2.367
14833TIP3    H165914   5.371   2.347   2.370
14833TIP3    H265915   5.408   2.483   2.315
14834TIP3   OH265916   5.368   2.474   2.932
14834TIP3    H165917   5.460   2.485   2.912
14834TIP3    H265918   5.361   2.491   3.026
14835TIP3   OH265919   5.392   2.555   3.201
14835TIP3    H165920   5.313   2.586   3.245
14835TIP3    H265921   5.445   2.634   3.188
14836TIP3   OH265922   3.837   2.410   3.589
14836TIP3    H165923   3.921   2.372   3.614
14836TIP3    H265924   3.782   2.334   3.570
14837TIP3   OH265925   5.639   1.967   3.729
14837TIP3    H165926   5.702   1.908   3.686
14837TIP3    H265927   5.625   2.037   3.665
14838TIP3   OH265928   5.401   2.167   2.382
14838TIP3    H165929   5.422   2.129   2.467
14838TIP3    H265930   5.333   2.110   2.346
14839TIP3   OH265931   3.954   2.244   2.827
14839TIP3    H165932   3.988   2.156   2.840
14839TIP3    H265933   4.023   2.302   2.859
14840TIP3   OH265934   3.756   2.515   2.926
14840TIP3    H165935   3.824   2.521   2.860
14840TIP3    H265936   3.779   2.581   2.991
14841TIP3   OH265937   5.554   2.156   3.555
14841TIP3    H165938   5.478   2.199   3.595
14841TIP3    H265939   5.520   2.121   3.472
14842TIP3   OH265940   5.530   2.154   2.028
14842TIP3    H165941   5.582   2.094   1.974
14842TIP3    H265942   5.595   2.213   2.066
14843TIP3   OH265943   3.804   2.145   2.330
14843TIP3    H165944   3.710   2.147   2.348
14843TIP3    H265945   3.818   2.219   2.270
14844TIP3   OH265946   5.264   3.673   2.547
14844TIP3    H165947   5.341   3.670   2.489
14844TIP3    H265948   5.295   3.721   2.624
14845TIP3   OH265949   3.792   1.995   3.161
14845TIP3    H165950   3.728   1.988   3.231
14845TIP3    H265951   3.762   2.069   3.108
14846TIP3   OH265952   4.013   3.380   3.595
14846TIP3    H165953   3.923   3.388   3.562
14846TIP3    H265954   4.002   3.351   3.686
14847TIP3   OH265955   4.338   3.477   3.228
14847TIP3    H165956   4.307   3.564   3.204
14847TIP3    H265957   4.432   3.480   3.212
14848TIP3   OH265958   4.717   3.598   3.509
14848TIP3    H165959   4.726   3.565   3.598
14848TIP3    H265960   4.798   3.646   3.492
14849TIP3   OH265961   4.957   3.729   3.467
14849TIP3    H165962   5.015   3.669   3.420
14849TIP3    H265963   5.003   3.749   3.548
14850TIP3   OH265964   5.464   1.964   3.351
14850TIP3    H165965   5.398   1.989   3.287
14850TIP3    H265966   5.485   1.873   3.330
14851TIP3   OH265967   4.036   3.773   3.247
14851TIP3    H165968   3.955   3.810   3.210
14851TIP3    H265969   4.046   3.818   3.331
14852TIP3   OH265970   4.294   3.741   3.158
14852TIP3    H165971   4.203   3.754   3.186
14852TIP3    H265972   4.300   3.788   3.075
14853TIP3   OH265973   4.751   3.718   3.060
14853TIP3    H165974   4.699   3.757   2.990
14853TIP3    H265975   4.760   3.789   3.125
14854TIP3   OH265976   4.978   3.595   3.157
14854TIP3    H165977   4.900   3.637   3.122
14854TIP3    H265978   5.048   3.658   3.142
14855TIP3   OH265979   5.219   3.736   3.151
14855TIP3    H165980   5.240   3.828   3.136
14855TIP3    H265981   5.260   3.689   3.078
14856TIP3   OH265982   4.006   3.627   2.908
14856TIP3    H165983   3.995   3.582   2.991
14856TIP3    H265984   4.085   3.589   2.869
14857TIP3   OH265985   4.220   3.499   2.797
14857TIP3    H165986   4.205   3.408   2.822
14857TIP3    H265987   4.305   3.520   2.835
14858TIP3   OH265988   4.477   3.528   2.906
14858TIP3    H165989   4.489   3.438   2.877
14858TIP3    H265990   4.509   3.529   2.997
14859TIP3   OH265991   4.790   2.106   2.791
14859TIP3    H165992   4.732   2.035   2.817
14859TIP3    H265993   4.867   2.062   2.753
14860TIP3   OH265994   5.303   1.943   2.784
14860TIP3    H165995   5.369   1.998   2.740
14860TIP3    H265996   5.223   1.995   2.782
14861TIP3   OH265997   5.490   2.049   2.614
14861TIP3    H165998   5.554   1.981   2.593
14861TIP3    H265999   5.543   2.127   2.632
14862TIP3   OH266000   4.041   1.962   2.549
14862TIP3    H166001   3.949   1.945   2.533
14862TIP3    H266002   4.084   1.877   2.537
14863TIP3   OH266003   3.929   1.971   2.147
14863TIP3    H166004   3.986   2.032   2.099
14863TIP3    H266005   3.889   2.024   2.215
14864TIP3   OH266006   4.527   1.930   2.570
14864TIP3    H166007   4.598   1.982   2.533
14864TIP3    H266008   4.540   1.934   2.664
14865TIP3   OH266009   5.024   1.987   2.700
14865TIP3    H166010   5.064   1.966   2.616
14865TIP3    H266011   5.003   1.903   2.739
14866TIP3   OH266012   5.193   2.002   2.291
14866TIP3    H166013   5.117   2.058   2.308
14866TIP3    H266014   5.161   1.913   2.306
14867TIP3   OH266015   3.920   3.590   2.239
14867TIP3    H166016   3.843   3.577   2.184
14867TIP3    H266017   3.942   3.683   2.229
14868TIP3   OH266018   4.132   2.130   1.994
14868TIP3    H166019   4.180   2.068   1.939
14868TIP3    H266020   4.197   2.160   2.058
14869TIP3   OH266021   4.603   2.202   2.244
14869TIP3    H166022   4.636   2.131   2.299
14869TIP3    H266023   4.619   2.281   2.296
14870TIP3   OH266024   4.812   3.673   2.072
14870TIP3    H166025   4.906   3.689   2.064
14870TIP3    H266026   4.791   3.620   1.995
14871TIP3   OH266027   5.470   3.650   2.360
14871TIP3    H166028   5.450   3.563   2.324
14871TIP3    H266029   5.460   3.710   2.286
14872TIP3   OH266030   4.049   2.020   3.503
14872TIP3    H166031   3.988   1.952   3.534
14872TIP3    H266032   4.129   2.003   3.551
14873TIP3   OH266033   4.251   1.954   3.680
14873TIP3    H166034   4.337   1.923   3.651
14873TIP3    H266035   4.213   1.879   3.724
14874TIP3   OH266036   4.104   3.643   1.923
14874TIP3    H166037   4.080   3.634   2.016
14874TIP3    H266038   4.181   3.587   1.913
14875TIP3   OH266039   5.107   1.926   3.694
14875TIP3    H166040   5.094   1.877   3.776
14875TIP3    H266041   5.199   1.911   3.672
14876TIP3   OH266042   5.384   3.521   3.560
14876TIP3    H166043   5.319   3.512   3.490
14876TIP3    H266044   5.379   3.613   3.586
14877TIP3   OH266045   6.841   2.923   2.536
14877TIP3    H166046   6.824   3.017   2.525
14877TIP3    H266047   6.775   2.879   2.483
14878TIP3   OH266048   6.703   2.833   2.919
14878TIP3    H166049   6.726   2.790   3.001
14878TIP3    H266050   6.662   2.765   2.866
14879TIP3   OH266051   5.950   2.765   3.062
14879TIP3    H166052   5.960   2.695   3.126
14879TIP3    H266053   6.040   2.787   3.036
14880TIP3   OH266054   7.104   3.140   2.764
14880TIP3    H166055   7.057   3.070   2.809
14880TIP3    H266056   7.125   3.203   2.833
14881TIP3   OH266057   6.078   3.231   2.868
14881TIP3    H166058   6.049   3.143   2.843
14881TIP3    H266059   6.172   3.223   2.879
14882TIP3   OH266060   5.734   2.571   2.400
14882TIP3    H166061   5.705   2.655   2.437
14882TIP3    H266062   5.667   2.549   2.335
14883TIP3   OH266063   5.796   2.819   2.697
14883TIP3    H166064   5.826   2.730   2.716
14883TIP3    H266065   5.873   2.873   2.707
14884TIP3   OH266066   6.820   3.633   2.806
14884TIP3    H166067   6.843   3.562   2.746
14884TIP3    H266068   6.785   3.589   2.883
14885TIP3   OH266069   6.569   3.080   2.943
14885TIP3    H166070   6.606   2.999   2.909
14885TIP3    H266071   6.638   3.116   3.000
14886TIP3   OH266072   6.893   2.506   2.948
14886TIP3    H166073   6.904   2.413   2.970
14886TIP3    H266074   6.859   2.506   2.859
14887TIP3   OH266075   6.231   2.308   2.687
14887TIP3    H166076   6.240   2.393   2.644
14887TIP3    H266077   6.179   2.256   2.626
14888TIP3   OH266078   7.037   2.381   2.566
14888TIP3    H166079   7.080   2.331   2.635
14888TIP3    H266080   6.991   2.316   2.514
14889TIP3   OH266081   5.871   2.561   2.766
14889TIP3    H166082   5.936   2.521   2.824
14889TIP3    H266083   5.891   2.525   2.679
14890TIP3   OH266084   6.347   2.706   2.739
14890TIP3    H166085   6.432   2.671   2.763
14890TIP3    H266086   6.311   2.642   2.678
14891TIP3   OH266087   6.095   2.226   3.105
14891TIP3    H166088   6.073   2.286   3.034
14891TIP3    H266089   6.024   2.237   3.169
14892TIP3   OH266090   6.775   3.172   2.436
14892TIP3    H166091   6.788   3.180   2.342
14892TIP3    H266092   6.729   3.251   2.461
14893TIP3   OH266093   6.355   2.994   3.094
14893TIP3    H166094   6.303   3.066   3.130
14893TIP3    H266095   6.424   3.037   3.044
14894TIP3   OH266096   7.122   2.224   2.771
14894TIP3    H166097   7.041   2.182   2.801
14894TIP3    H266098   7.156   2.268   2.849
14895TIP3   OH266099   6.063   2.396   2.890
14895TIP3    H166100   6.120   2.454   2.942
14895TIP3    H266101   6.121   2.360   2.823
14896TIP3   OH266102   6.202   3.200   3.202
14896TIP3    H166103   6.210   3.294   3.189
14896TIP3    H266104   6.112   3.187   3.229
14897TIP3   OH266105   5.761   3.158   2.259
14897TIP3    H166106   5.763   3.204   2.176
14897TIP3    H266107   5.775   3.227   2.325
14898TIP3   OH266108   7.146   3.343   2.962
14898TIP3    H166109   7.051   3.341   2.977
14898TIP3    H266110   7.166   3.435   2.948
14899TIP3   OH266111   7.120   2.114   3.061
14899TIP3    H166112   7.031   2.139   3.035
14899TIP3    H266113   7.170   2.196   3.055
14900TIP3   OH266114   6.448   1.916   2.857
14900TIP3    H166115   6.423   1.824   2.859
14900TIP3    H266116   6.369   1.962   2.886
14901TIP3   OH266117   6.913   3.456   2.612
14901TIP3    H166118   6.953   3.372   2.591
14901TIP3    H266119   6.985   3.519   2.607
14902TIP3   OH266120   7.101   3.274   2.521
14902TIP3    H166121   7.105   3.214   2.446
14902TIP3    H266122   7.108   3.217   2.598
14903TIP3   OH266123   7.243   3.116   3.396
14903TIP3    H166124   7.295   3.062   3.338
14903TIP3    H266125   7.241   3.202   3.354
14904TIP3   OH266126   6.702   2.821   2.313
14904TIP3    H166127   6.640   2.889   2.288
14904TIP3    H266128   6.774   2.829   2.249
14905TIP3   OH266129   6.740   2.709   1.970
14905TIP3    H166130   6.793   2.729   2.047
14905TIP3    H266131   6.794   2.650   1.918
14906TIP3   OH266132   7.064   2.853   2.396
14906TIP3    H166133   6.995   2.883   2.455
14906TIP3    H266134   7.105   2.780   2.443
14907TIP3   OH266135   6.996   2.687   3.292
14907TIP3    H166136   7.003   2.778   3.323
14907TIP3    H266137   6.919   2.686   3.236
14908TIP3   OH266138   6.221   2.903   2.582
14908TIP3    H166139   6.199   2.864   2.497
14908TIP3    H266140   6.274   2.837   2.626
14909TIP3   OH266141   6.359   3.244   2.845
14909TIP3    H166142   6.363   3.254   2.750
14909TIP3    H266143   6.436   3.191   2.867
14910TIP3   OH266144   6.208   2.807   2.957
14910TIP3    H166145   6.262   2.781   2.883
14910TIP3    H266146   6.262   2.871   3.004
14911TIP3   OH266147   6.880   3.352   3.024
14911TIP3    H166148   6.866   3.419   3.091
14911TIP3    H266149   6.840   3.273   3.060
14912TIP3   OH266150   6.360   3.224   3.429
14912TIP3    H166151   6.299   3.284   3.473
14912TIP3    H266152   6.315   3.198   3.349
14913TIP3   OH266153   6.938   2.788   2.162
14913TIP3    H166154   6.982   2.815   2.243
14913TIP3    H266155   6.991   2.826   2.092
14914TIP3   OH266156   6.030   2.816   3.398
14914TIP3    H166157   6.040   2.902   3.440
14914TIP3    H266158   5.941   2.816   3.364
14915TIP3   OH266159   6.671   3.427   2.490
14915TIP3    H166160   6.749   3.439   2.544
14915TIP3    H266161   6.657   3.513   2.448
14916TIP3   OH266162   6.159   3.403   3.497
14916TIP3    H166163   6.161   3.435   3.407
14916TIP3    H266164   6.066   3.396   3.519
14917TIP3   OH266165   6.139   2.813   2.324
14917TIP3    H166166   6.079   2.876   2.287
14917TIP3    H266167   6.095   2.728   2.315
14918TIP3   OH266168   5.724   3.065   3.248
14918TIP3    H166169   5.675   3.072   3.166
14918TIP3    H266170   5.740   2.971   3.259
14919TIP3   OH266171   5.726   3.330   2.915
14919TIP3    H166172   5.820   3.316   2.928
14919TIP3    H266173   5.703   3.399   2.978
14920TIP3   OH266174   6.599   3.352   3.379
14920TIP3    H166175   6.597   3.435   3.426
14920TIP3    H266176   6.516   3.310   3.399
14921TIP3   OH266177   6.684   3.693   2.370
14921TIP3    H166178   6.653   3.709   2.281
14921TIP3    H266179   6.686   3.780   2.410
14922TIP3   OH266180   6.000   3.590   2.546
14922TIP3    H166181   6.046   3.651   2.604
14922TIP3    H266182   5.933   3.551   2.601
14923TIP3   OH266183   6.968   3.642   2.038
14923TIP3    H166184   7.013   3.566   2.002
14923TIP3    H266185   6.975   3.632   2.133
14924TIP3   OH266186   6.948   3.622   2.315
14924TIP3    H166187   6.856   3.629   2.341
14924TIP3    H266188   6.989   3.571   2.385
14925TIP3   OH266189   7.176   2.603   3.539
14925TIP3    H166190   7.180   2.591   3.444
14925TIP3    H266191   7.252   2.556   3.573
14926TIP3   OH266192   5.949   3.211   3.312
14926TIP3    H166193   5.973   3.174   3.398
14926TIP3    H266194   5.870   3.163   3.287
14927TIP3   OH266195   6.202   2.026   2.942
14927TIP3    H166196   6.126   2.019   2.885
14927TIP3    H266197   6.182   2.099   3.000
14928TIP3   OH266198   6.685   1.998   3.285
14928TIP3    H166199   6.735   1.947   3.350
14928TIP3    H266200   6.593   1.984   3.310
14929TIP3   OH266201   6.992   2.391   3.361
14929TIP3    H166202   6.930   2.375   3.432
14929TIP3    H266203   6.989   2.485   3.347
14930TIP3   OH266204   7.089   2.908   1.973
14930TIP3    H166205   7.077   2.888   1.880
14930TIP3    H266206   7.093   3.003   1.978
14931TIP3   OH266207   6.637   2.240   2.011
14931TIP3    H166208   6.589   2.239   2.094
14931TIP3    H266209   6.596   2.171   1.959
14932TIP3   OH266210   6.218   2.549   3.060
14932TIP3    H166211   6.155   2.549   3.133
14932TIP3    H266212   6.222   2.640   3.031
14933TIP3   OH266213   6.213   2.548   2.554
14933TIP3    H166214   6.118   2.535   2.551
14933TIP3    H266215   6.243   2.532   2.465
14934TIP3   OH266216   6.758   2.571   2.421
14934TIP3    H166217   6.739   2.657   2.382
14934TIP3    H266218   6.813   2.527   2.356
14935TIP3   OH266219   6.681   2.596   3.543
14935TIP3    H166220   6.634   2.522   3.582
14935TIP3    H266221   6.768   2.593   3.583
14936TIP3   OH266222   6.826   2.519   2.686
14936TIP3    H166223   6.790   2.562   2.608
14936TIP3    H266224   6.898   2.466   2.652
14937TIP3   OH266225   6.002   2.549   3.234
14937TIP3    H166226   6.025   2.586   3.319
14937TIP3    H266227   5.961   2.465   3.254
14938TIP3   OH266228   6.311   2.285   1.905
14938TIP3    H166229   6.283   2.273   1.995
14938TIP3    H266230   6.256   2.356   1.871
14939TIP3   OH266231   5.668   2.250   2.632
14939TIP3    H166232   5.717   2.262   2.713
14939TIP3    H266233   5.735   2.251   2.563
14940TIP3   OH266234   5.707   2.340   2.138
14940TIP3    H166235   5.776   2.380   2.085
14940TIP3    H266236   5.651   2.413   2.164
14941TIP3   OH266237   6.770   2.670   3.131
14941TIP3    H166238   6.815   2.613   3.069
14941TIP3    H266239   6.717   2.610   3.184
14942TIP3   OH266240   6.513   2.265   2.637
14942TIP3    H166241   6.425   2.271   2.674
14942TIP3    H266242   6.567   2.231   2.709
14943TIP3   OH266243   5.953   2.457   2.526
14943TIP3    H166244   5.881   2.484   2.469
14943TIP3    H266245   5.978   2.370   2.494
14944TIP3   OH266246   6.268   2.474   2.293
14944TIP3    H166247   6.361   2.467   2.315
14944TIP3    H266248   6.266   2.516   2.207
14945TIP3   OH266249   6.876   2.227   2.973
14945TIP3    H166250   6.836   2.235   3.060
14945TIP3    H266251   6.807   2.191   2.918
14946TIP3   OH266252   6.242   2.570   2.036
14946TIP3    H166253   6.190   2.549   1.959
14946TIP3    H266254   6.319   2.615   2.001
14947TIP3   OH266255   7.235   3.780   3.603
14947TIP3    H166256   7.238   3.848   3.536
14947TIP3    H266257   7.327   3.759   3.620
14948TIP3   OH266258   6.021   3.053   3.550
14948TIP3    H166259   6.088   3.049   3.617
14948TIP3    H266260   5.939   3.062   3.598
14949TIP3   OH266261   6.582   2.588   2.831
14949TIP3    H166262   6.654   2.545   2.785
14949TIP3    H266263   6.558   2.527   2.901
14950TIP3   OH266264   6.063   2.197   2.487
14950TIP3    H166265   6.014   2.118   2.510
14950TIP3    H266266   6.116   2.171   2.411
14951TIP3   OH266267   6.477   2.446   3.058
14951TIP3    H166268   6.393   2.491   3.065
14951TIP3    H266269   6.524   2.471   3.137
14952TIP3   OH266270   6.522   3.023   2.237
14952TIP3    H166271   6.449   2.987   2.187
14952TIP3    H266272   6.482   3.051   2.320
14953TIP3   OH266273   7.198   2.976   3.091
14953TIP3    H166274   7.259   2.949   3.023
14953TIP3    H266275   7.112   2.971   3.050
14954TIP3   OH266276   6.886   2.362   2.002
14954TIP3    H166277   6.793   2.340   2.013
14954TIP3    H266278   6.909   2.407   2.084
14955TIP3   OH266279   6.715   3.078   3.390
14955TIP3    H166280   6.704   3.033   3.473
14955TIP3    H266281   6.671   3.163   3.402
14956TIP3   OH266282   6.985   2.513   2.214
14956TIP3    H166283   7.073   2.492   2.247
14956TIP3    H266284   6.986   2.607   2.200
14957TIP3   OH266285   6.036   2.955   2.781
14957TIP3    H166286   6.096   2.951   2.706
14957TIP3    H266287   6.080   2.906   2.850
14958TIP3   OH266288   6.736   3.176   2.148
14958TIP3    H166289   6.700   3.264   2.158
14958TIP3    H266290   6.666   3.118   2.178
14959TIP3   OH266291   5.752   2.802   3.344
14959TIP3    H166292   5.735   2.761   3.428
14959TIP3    H266293   5.683   2.769   3.286
14960TIP3   OH266294   6.476   2.784   3.565
14960TIP3    H166295   6.416   2.749   3.499
14960TIP3    H266296   6.557   2.736   3.552
14961TIP3   OH266297   6.884   3.352   3.367
14961TIP3    H166298   6.790   3.349   3.350
14961TIP3    H266299   6.890   3.356   3.463
14962TIP3   OH266300   6.979   2.926   2.916
14962TIP3    H166301   6.885   2.913   2.900
14962TIP3    H266302   7.021   2.854   2.870
14963TIP3   OH266303   6.289   3.333   2.584
14963TIP3    H166304   6.317   3.416   2.545
14963TIP3    H266305   6.196   3.345   2.601
14964TIP3   OH266306   5.856   2.787   2.028
14964TIP3    H166307   5.907   2.851   2.079
14964TIP3    H266308   5.767   2.794   2.063
14965TIP3   OH266309   6.371   3.103   2.450
14965TIP3    H166310   6.356   3.185   2.496
14965TIP3    H266311   6.322   3.038   2.502
14966TIP3   OH266312   6.489   3.494   3.155
14966TIP3    H166313   6.546   3.569   3.136
14966TIP3    H266314   6.541   3.439   3.213
14967TIP3   OH266315   6.262   3.597   2.467
14967TIP3    H166316   6.168   3.580   2.464
14967TIP3    H266317   6.271   3.672   2.526
14968TIP3   OH266318   6.782   3.108   3.121
14968TIP3    H166319   6.759   3.092   3.213
14968TIP3    H266320   6.855   3.048   3.104
14969TIP3   OH266321   7.037   3.182   2.054
14969TIP3    H166322   7.079   3.161   2.137
14969TIP3    H266323   6.943   3.182   2.074
14970TIP3   OH266324   7.089   3.538   3.337
14970TIP3    H166325   7.012   3.483   3.326
14970TIP3    H266326   7.078   3.607   3.271
14971TIP3   OH266327   5.885   2.293   3.277
14971TIP3    H166328   5.794   2.317   3.262
14971TIP3    H266329   5.881   2.225   3.345
14972TIP3   OH266330   7.146   3.101   2.295
14972TIP3    H166331   7.131   3.013   2.328
14972TIP3    H266332   7.242   3.109   2.293
14973TIP3   OH266333   5.874   3.474   3.156
14973TIP3    H166334   5.904   3.395   3.201
14973TIP3    H266335   5.896   3.545   3.216
14974TIP3   OH266336   6.438   3.310   1.886
14974TIP3    H166337   6.452   3.224   1.846
14974TIP3    H266338   6.401   3.291   1.972
14975TIP3   OH266339   6.317   3.281   2.136
14975TIP3    H166340   6.358   3.228   2.204
14975TIP3    H266341   6.329   3.371   2.164
14976TIP3   OH266342   5.967   2.986   2.189
14976TIP3    H166343   5.895   3.032   2.232
14976TIP3    H266344   6.016   3.055   2.144
14977TIP3   OH266345   6.778   2.251   3.227
14977TIP3    H166346   6.853   2.269   3.284
14977TIP3    H266347   6.746   2.165   3.255
14978TIP3   OH266348   6.768   2.296   2.277
14978TIP3    H166349   6.793   2.255   2.194
14978TIP3    H266350   6.819   2.249   2.343
14979TIP3   OH266351   6.618   3.419   2.173
14979TIP3    H166352   6.532   3.447   2.204
14979TIP3    H266353   6.662   3.500   2.147
14980TIP3   OH266354   6.516   2.428   2.409
14980TIP3    H166355   6.601   2.471   2.404
14980TIP3    H266356   6.518   2.380   2.492
14981TIP3   OH266357   6.636   2.487   3.283
14981TIP3    H166358   6.649   2.516   3.374
14981TIP3    H266359   6.679   2.402   3.278
14982TIP3   OH266360   6.621   2.068   2.464
14982TIP3    H166361   6.593   2.143   2.516
14982TIP3    H266362   6.717   2.077   2.459
14983TIP3   OH266363   6.370   3.537   2.220
14983TIP3    H166364   6.376   3.619   2.171
14983TIP3    H266365   6.336   3.562   2.305
14984TIP3   OH266366   6.220   2.229   2.163
14984TIP3    H166367   6.212   2.313   2.210
14984TIP3    H266368   6.306   2.196   2.188
14985TIP3   OH266369   7.238   2.254   3.342
14985TIP3    H166370   7.147   2.275   3.362
14985TIP3    H266371   7.272   2.334   3.300
14986TIP3   OH266372   7.081   2.682   2.813
14986TIP3    H166373   7.006   2.630   2.840
14986TIP3    H266374   7.152   2.654   2.872
14987TIP3   OH266375   6.067   3.203   2.038
14987TIP3    H166376   6.138   3.250   2.081
14987TIP3    H266377   6.111   3.149   1.972
14988TIP3   OH266378   5.849   2.512   1.979
14988TIP3    H166379   5.872   2.599   2.011
14988TIP3    H266380   5.822   2.526   1.888
14989TIP3   OH266381   7.234   3.611   2.950
14989TIP3    H166382   7.225   3.673   2.878
14989TIP3    H266383   7.328   3.590   2.952
14990TIP3   OH266384   5.950   2.003   2.824
14990TIP3    H166385   5.944   1.993   2.729
14990TIP3    H266386   5.919   1.919   2.859
14991TIP3   OH266387   5.797   3.374   2.421
14991TIP3    H166388   5.792   3.416   2.507
14991TIP3    H266389   5.821   3.445   2.361
14992TIP3   OH266390   5.813   3.688   3.615
14992TIP3    H166391   5.877   3.671   3.684
14992TIP3    H266392   5.793   3.601   3.579
14993TIP3   OH266393   6.231   3.510   3.742
14993TIP3    H166394   6.311   3.464   3.768
14993TIP3    H266395   6.211   3.476   3.654
14994TIP3   OH266396   6.650   3.488   1.862
14994TIP3    H166397   6.583   3.422   1.880
14994TIP3    H266398   6.726   3.438   1.835
14995TIP3   OH266399   6.878   3.378   3.641
14995TIP3    H166400   6.848   3.296   3.680
14995TIP3    H266401   6.956   3.402   3.693
14996TIP3   OH266402   7.096   3.426   1.923
14996TIP3    H166403   7.101   3.340   1.965
14996TIP3    H266404   7.166   3.426   1.859
14997TIP3   OH266405   5.773   3.050   3.676
14997TIP3    H166406   5.773   2.954   3.670
14997TIP3    H266407   5.700   3.077   3.619
14998TIP3   OH266408   6.202   3.024   1.883
14998TIP3    H166409   6.228   2.976   1.963
14998TIP3    H266410   6.285   3.039   1.837
14999TIP3   OH266411   6.438   3.057   3.634
14999TIP3    H166412   6.420   3.101   3.552
14999TIP3    H266413   6.464   2.968   3.609
15000TIP3   OH266414   6.758   3.172   1.872
15000TIP3    H166415   6.744   3.167   1.966
15000TIP3    H266416   6.756   3.081   1.842
15001TIP3   OH266417   6.994   2.983   3.376
15001TIP3    H166418   7.072   3.040   3.373
15001TIP3    H266419   6.920   3.044   3.377
15002TIP3   OH266420   5.848   2.778   3.644
15002TIP3    H166421   5.935   2.767   3.605
15002TIP3    H266422   5.865   2.782   3.738
15003TIP3   OH266423   6.308   2.894   2.108
15003TIP3    H166424   6.263   2.853   2.181
15003TIP3    H266425   6.355   2.823   2.065
15004TIP3   OH266426   6.257   2.656   3.371
15004TIP3    H166427   6.188   2.721   3.379
15004TIP3    H266428   6.322   2.697   3.314
15005TIP3   OH266429   6.457   2.718   1.945
15005TIP3    H166430   6.456   2.746   1.854
15005TIP3    H266431   6.550   2.708   1.967
15006TIP3   OH266432   6.776   2.910   3.674
15006TIP3    H166433   6.865   2.884   3.648
15006TIP3    H266434   6.747   2.842   3.734
15007TIP3   OH266435   6.310   2.401   3.458
15007TIP3    H166436   6.325   2.342   3.384
15007TIP3    H266437   6.299   2.488   3.419
15008TIP3   OH266438   6.345   2.246   3.221
15008TIP3    H166439   6.400   2.293   3.158
15008TIP3    H266440   6.258   2.243   3.180
15009TIP3   OH266441   6.456   2.779   3.234
15009TIP3    H166442   6.551   2.780   3.226
15009TIP3    H266443   6.427   2.858   3.188
15010TIP3   OH266444   6.921   2.552   3.692
15010TIP3    H166445   6.939   2.459   3.707
15010TIP3    H266446   7.003   2.586   3.654
15011TIP3   OH266447   7.039   2.838   3.602
15011TIP3    H166448   7.031   2.890   3.523
15011TIP3    H266449   7.092   2.763   3.576
15012TIP3   OH266450   6.143   2.468   3.673
15012TIP3    H166451   6.061   2.422   3.657
15012TIP3    H266452   6.194   2.454   3.592
15013TIP3   OH266453   6.402   1.980   3.286
15013TIP3    H166454   6.384   2.071   3.264
15013TIP3    H266455   6.333   1.931   3.241
15014TIP3   OH266456   6.540   2.375   3.621
15014TIP3    H166457   6.513   2.347   3.709
15014TIP3    H266458   6.459   2.376   3.570
15015TIP3   OH266459   6.800   2.310   3.536
15015TIP3    H166460   6.711   2.317   3.570
15015TIP3    H266461   6.847   2.260   3.603
15016TIP3   OH266462   6.962   2.195   3.730
15016TIP3    H166463   6.958   2.099   3.724
15016TIP3    H266464   6.936   2.214   3.820
15017TIP3   OH266465   5.936   2.270   3.640
15017TIP3    H166466   5.942   2.188   3.591
15017TIP3    H266467   5.958   2.246   3.730
15018TIP3   OH266468   6.387   1.904   3.549
15018TIP3    H166469   6.446   1.829   3.549
15018TIP3    H266470   6.386   1.935   3.459
15019TIP3   OH266471   6.467   2.064   3.759
15019TIP3    H166472   6.446   2.011   3.681
15019TIP3    H266473   6.405   2.137   3.755
15020TIP3   OH266474   6.439   3.768   2.081
15020TIP3    H166475   6.530   3.738   2.076
15020TIP3    H266476   6.432   3.837   2.015
15021TIP3   OH266477   5.801   3.244   1.984
15021TIP3    H166478   5.894   3.240   2.008
15021TIP3    H266479   5.789   3.170   1.924
15022TIP3   OH266480   5.670   3.729   2.534
15022TIP3    H166481   5.610   3.698   2.466
15022TIP3    H266482   5.699   3.650   2.579
15023TIP3   OH266483   5.765   3.511   2.688
15023TIP3    H166484   5.725   3.433   2.728
15023TIP3    H266485   5.792   3.564   2.763
15024TIP3   OH266486   7.249   3.335   3.229
15024TIP3    H166487   7.204   3.413   3.261
15024TIP3    H266488   7.219   3.325   3.139
15025TIP3   OH266489   7.146   2.634   2.546
15025TIP3    H166490   7.103   2.549   2.543
15025TIP3    H266491   7.129   2.667   2.635
15026TIP3   OH266492   5.721   2.865   2.957
15026TIP3    H166493   5.733   2.853   2.863
15026TIP3    H266494   5.805   2.840   2.996
15027TIP3   OH266495   7.235   2.237   1.824
15027TIP3    H166496   7.246   2.225   1.918
15027TIP3    H266497   7.141   2.223   1.810
15028TIP3   OH266498   7.252   2.425   2.319
15028TIP3    H166499   7.221   2.359   2.380
15028TIP3    H266500   7.290   2.493   2.375
15029TIP3   OH266501   7.250   2.348   2.982
15029TIP3    H166502   7.335   2.315   2.956
15029TIP3    H266503   7.262   2.443   2.989
15030TIP3   OH266504   7.252   2.589   3.253
15030TIP3    H166505   7.162   2.621   3.248
15030TIP3    H266506   7.284   2.594   3.162
15031TIP3   OH266507   5.707   2.386   3.534
15031TIP3    H166508   5.792   2.363   3.572
15031TIP3    H266509   5.653   2.308   3.549
15032TIP3   OH266510   7.247   2.155   2.483
15032TIP3    H166511   7.276   2.064   2.495
15032TIP3    H266512   7.152   2.150   2.480
15033TIP3   OH266513   5.819   2.245   2.865
15033TIP3    H166514   5.860   2.159   2.861
15033TIP3    H266515   5.892   2.306   2.878
15034TIP3   OH266516   5.636   2.534   2.920
15034TIP3    H166517   5.708   2.533   2.856
15034TIP3    H266518   5.665   2.596   2.987
15035TIP3   OH266519   5.689   2.137   2.320
15035TIP3    H166520   5.597   2.144   2.345
15035TIP3    H266521   5.704   2.215   2.266
15036TIP3   OH266522   7.125   3.618   2.585
15036TIP3    H166523   7.197   3.557   2.595
15036TIP3    H266524   7.149   3.694   2.638
15037TIP3   OH266525   5.690   2.010   3.182
15037TIP3    H166526   5.620   2.002   3.248
15037TIP3    H266527   5.658   2.078   3.122
15038TIP3   OH266528   5.896   3.389   3.595
15038TIP3    H166529   5.807   3.387   3.559
15038TIP3    H266530   5.886   3.359   3.685
15039TIP3   OH266531   6.224   3.476   3.229
15039TIP3    H166532   6.195   3.564   3.204
15039TIP3    H266533   6.318   3.476   3.211
15040TIP3   OH266534   6.600   3.598   3.512
15040TIP3    H166535   6.612   3.567   3.601
15040TIP3    H266536   6.681   3.644   3.491
15041TIP3   OH266537   6.837   3.733   3.466
15041TIP3    H166538   6.900   3.675   3.424
15041TIP3    H266539   6.879   3.760   3.548
15042TIP3   OH266540   5.922   3.764   3.253
15042TIP3    H166541   5.848   3.812   3.213
15042TIP3    H266542   5.938   3.809   3.336
15043TIP3   OH266543   6.182   3.739   3.161
15043TIP3    H166544   6.090   3.753   3.183
15043TIP3    H266545   6.195   3.790   3.080
15044TIP3   OH266546   6.635   3.717   3.074
15044TIP3    H166547   6.581   3.748   3.002
15044TIP3    H266548   6.643   3.792   3.132
15045TIP3   OH266549   6.854   3.587   3.165
15045TIP3    H166550   6.775   3.632   3.134
15045TIP3    H266551   6.925   3.649   3.147
15046TIP3   OH266552   7.075   3.743   3.132
15046TIP3    H166553   7.091   3.836   3.112
15046TIP3    H266554   7.134   3.696   3.073
15047TIP3   OH266555   5.878   3.625   2.924
15047TIP3    H166556   5.878   3.579   3.008
15047TIP3    H266557   5.959   3.596   2.881
15048TIP3   OH266558   6.094   3.503   2.822
15048TIP3    H166559   6.088   3.409   2.839
15048TIP3    H266560   6.185   3.525   2.843
15049TIP3   OH266561   6.363   3.518   2.905
15049TIP3    H166562   6.368   3.427   2.877
15049TIP3    H266563   6.399   3.518   2.994
15050TIP3   OH266564   6.666   2.108   2.814
15050TIP3    H166565   6.604   2.037   2.827
15050TIP3    H266566   6.746   2.064   2.784
15051TIP3   OH266567   7.182   1.938   2.765
15051TIP3    H166568   7.221   2.025   2.763
15051TIP3    H266569   7.088   1.954   2.773
15052TIP3   OH266570   5.924   1.963   2.550
15052TIP3    H166571   5.832   1.946   2.531
15052TIP3    H266572   5.967   1.878   2.539
15053TIP3   OH266573   5.817   1.966   2.138
15053TIP3    H166574   5.878   2.023   2.092
15053TIP3    H266575   5.779   2.021   2.206
15054TIP3   OH266576   6.401   1.931   2.574
15054TIP3    H166577   6.474   1.976   2.530
15054TIP3    H266578   6.423   1.934   2.667
15055TIP3   OH266579   6.913   1.998   2.746
15055TIP3    H166580   6.917   2.018   2.652
15055TIP3    H266581   6.878   1.908   2.749
15056TIP3   OH266582   7.139   1.927   2.298
15056TIP3    H166583   7.081   1.995   2.332
15056TIP3    H266584   7.085   1.848   2.294
15057TIP3   OH266585   5.825   3.574   2.231
15057TIP3    H166586   5.745   3.582   2.178
15057TIP3    H266587   5.850   3.665   2.249
15058TIP3   OH266588   6.017   2.124   1.993
15058TIP3    H166589   6.070   2.070   1.933
15058TIP3    H266590   6.080   2.159   2.056
15059TIP3   OH266591   6.484   2.203   2.246
15059TIP3    H166592   6.525   2.133   2.297
15059TIP3    H266593   6.509   2.284   2.290
15060TIP3   OH266594   6.694   3.667   2.065
15060TIP3    H166595   6.789   3.679   2.059
15060TIP3    H266596   6.672   3.614   1.988
15061TIP3   OH266597   5.937   2.016   3.508
15061TIP3    H166598   5.880   1.944   3.536
15061TIP3    H266599   6.019   2.002   3.556
15062TIP3   OH266600   6.135   1.957   3.693
15062TIP3    H166601   6.221   1.939   3.654
15062TIP3    H266602   6.113   1.877   3.741
15063TIP3   OH266603   5.995   3.639   1.926
15063TIP3    H166604   5.971   3.632   2.018
15063TIP3    H266605   6.073   3.585   1.916
15064TIP3   OH266606   6.976   1.918   3.702
15064TIP3    H166607   6.967   1.865   3.781
15064TIP3    H266608   7.067   1.906   3.675
15065TIP3   OH266609   7.235   3.496   3.571
15065TIP3    H166610   7.188   3.490   3.488
15065TIP3    H266611   7.235   3.590   3.592
15066TIP3   OH266612   1.200   4.809   2.529
15066TIP3    H166613   1.188   4.903   2.522
15066TIP3    H266614   1.124   4.771   2.484
15067TIP3   OH266615   1.069   4.714   2.930
15067TIP3    H166616   1.097   4.679   3.014
15067TIP3    H266617   1.023   4.642   2.887
15068TIP3   OH266618   0.305   4.634   3.053
15068TIP3    H166619   0.307   4.564   3.119
15068TIP3    H266620   0.397   4.657   3.040
15069TIP3   OH266621   1.460   5.026   2.753
15069TIP3    H166622   1.424   4.950   2.800
15069TIP3    H266623   1.478   5.090   2.822
15070TIP3   OH266624   0.410   5.116   2.866
15070TIP3    H166625   0.388   5.026   2.843
15070TIP3    H266626   0.500   5.112   2.899
15071TIP3   OH266627   0.140   4.500   2.395
15071TIP3    H166628   0.135   4.568   2.462
15071TIP3    H266629   0.048   4.480   2.376
15072TIP3   OH266630   0.139   4.659   2.626
15072TIP3    H166631   0.175   4.597   2.690
15072TIP3    H266632   0.181   4.742   2.646
15073TIP3   OH266633   1.185   5.508   2.794
15073TIP3    H166634   1.219   5.441   2.736
15073TIP3    H266635   1.158   5.460   2.873
15074TIP3   OH266636   0.921   4.963   2.953
15074TIP3    H166637   0.960   4.883   2.918
15074TIP3    H266638   0.987   4.998   3.013
15075TIP3   OH266639   1.794   4.125   3.051
15075TIP3    H166640   1.812   4.175   3.130
15075TIP3    H266641   1.813   4.185   2.979
15076TIP3   OH266642   1.233   4.388   2.955
15076TIP3    H166643   1.246   4.295   2.973
15076TIP3    H266644   1.215   4.392   2.861
15077TIP3   OH266645   0.588   4.200   2.689
15077TIP3    H166646   0.597   4.285   2.647
15077TIP3    H266647   0.539   4.147   2.627
15078TIP3   OH266648   1.354   4.224   2.526
15078TIP3    H166649   1.392   4.192   2.608
15078TIP3    H266650   1.428   4.263   2.479
15079TIP3   OH266651   0.224   4.445   2.777
15079TIP3    H166652   0.291   4.411   2.837
15079TIP3    H266653   0.247   4.407   2.693
15080TIP3   OH266654   0.705   4.600   2.735
15080TIP3    H166655   0.789   4.564   2.764
15080TIP3    H266656   0.671   4.534   2.674
15081TIP3   OH266657   1.847   4.281   3.270
15081TIP3    H166658   1.764   4.328   3.259
15081TIP3    H266659   1.871   4.295   3.361
15082TIP3   OH266660   0.437   4.114   3.118
15082TIP3    H166661   0.408   4.174   3.049
15082TIP3    H266662   0.370   4.123   3.186
15083TIP3   OH266663   1.168   5.067   2.427
15083TIP3    H166664   1.145   5.060   2.334
15083TIP3    H266665   1.119   5.143   2.459
15084TIP3   OH266666   0.702   4.877   3.101
15084TIP3    H166667   0.650   4.950   3.135
15084TIP3    H266668   0.775   4.919   3.055
15085TIP3   OH266669   1.454   4.172   2.774
15085TIP3    H166670   1.388   4.141   2.835
15085TIP3    H266671   1.509   4.232   2.825
15086TIP3   OH266672   0.418   4.281   2.895
15086TIP3    H166673   0.473   4.336   2.950
15086TIP3    H266674   0.479   4.245   2.830
15087TIP3   OH266675   0.548   5.090   3.196
15087TIP3    H166676   0.560   5.185   3.191
15087TIP3    H266677   0.459   5.078   3.229
15088TIP3   OH266678   0.112   5.058   2.264
15088TIP3    H166679   0.106   5.102   2.179
15088TIP3    H266680   0.138   5.128   2.324
15089TIP3   OH266681   1.492   5.228   2.951
15089TIP3    H166682   1.398   5.226   2.970
15089TIP3    H266683   1.511   5.320   2.933
15090TIP3   OH266684   1.544   4.007   3.122
15090TIP3    H166685   1.476   4.057   3.077
15090TIP3    H266686   1.626   4.040   3.086
15091TIP3   OH266687   0.792   3.803   2.858
15091TIP3    H166688   0.767   3.711   2.861
15091TIP3    H266689   0.715   3.850   2.888
15092TIP3   OH266690   1.311   5.373   2.580
15092TIP3    H166691   1.355   5.289   2.562
15092TIP3    H266692   1.382   5.437   2.582
15093TIP3   OH266693   1.430   5.136   2.501
15093TIP3    H166694   1.347   5.097   2.473
15093TIP3    H266695   1.451   5.092   2.583
15094TIP3   OH266696   1.605   5.014   3.312
15094TIP3    H166697   1.597   4.954   3.238
15094TIP3    H266698   1.619   5.100   3.272
15095TIP3   OH266699   1.043   4.711   2.316
15095TIP3    H166700   0.977   4.774   2.290
15095TIP3    H266701   1.113   4.721   2.251
15096TIP3   OH266702   1.069   4.599   1.975
15096TIP3    H166703   1.123   4.620   2.052
15096TIP3    H266704   1.118   4.530   1.930
15097TIP3   OH266705   1.769   4.659   3.127
15097TIP3    H166706   1.699   4.723   3.126
15097TIP3    H266707   1.837   4.696   3.071
15098TIP3   OH266708   1.416   4.733   2.384
15098TIP3    H166709   1.348   4.760   2.445
15098TIP3    H266710   1.480   4.686   2.438
15099TIP3   OH266711   1.374   4.539   3.334
15099TIP3    H166712   1.379   4.609   3.399
15099TIP3    H266713   1.307   4.568   3.272
15100TIP3   OH266714   0.556   4.788   2.586
15100TIP3    H166715   0.534   4.747   2.502
15100TIP3    H266716   0.614   4.725   2.629
15101TIP3   OH266717   0.707   5.140   2.851
15101TIP3    H166718   0.714   5.144   2.756
15101TIP3    H266719   0.781   5.086   2.878
15102TIP3   OH266720   0.562   4.694   2.953
15102TIP3    H166721   0.617   4.672   2.878
15102TIP3    H266722   0.613   4.758   3.003
15103TIP3   OH266723   1.231   5.228   3.024
15103TIP3    H166724   1.215   5.304   3.080
15103TIP3    H266725   1.188   5.156   3.069
15104TIP3   OH266726   0.705   5.113   3.428
15104TIP3    H166727   0.643   5.168   3.476
15104TIP3    H266728   0.657   5.087   3.350
15105TIP3   OH266729   1.277   4.666   2.157
15105TIP3    H166730   1.328   4.700   2.230
15105TIP3    H266731   1.330   4.684   2.080
15106TIP3   OH266732   0.394   4.739   3.369
15106TIP3    H166733   0.399   4.807   3.436
15106TIP3    H266734   0.330   4.771   3.306
15107TIP3   OH266735   1.058   5.313   2.490
15107TIP3    H166736   1.138   5.340   2.534
15107TIP3    H266737   1.021   5.395   2.456
15108TIP3   OH266738   0.499   5.287   3.501
15108TIP3    H166739   0.507   5.322   3.412
15108TIP3    H266740   0.405   5.290   3.520
15109TIP3   OH266741   1.642   3.813   2.147
15109TIP3    H166742   1.556   3.834   2.184
15109TIP3    H266743   1.676   3.898   2.117
15110TIP3   OH266744   0.472   4.696   2.327
15110TIP3    H166745   0.412   4.759   2.288
15110TIP3    H266746   0.425   4.612   2.322
15111TIP3   OH266747   1.780   5.265   1.989
15111TIP3    H166748   1.794   5.358   2.008
15111TIP3    H266749   1.868   5.226   1.994
15112TIP3   OH266750   0.175   4.864   3.242
15112TIP3    H166751   0.113   4.876   3.171
15112TIP3    H266752   0.128   4.811   3.306
15113TIP3   OH266753   0.140   5.221   2.844
15113TIP3    H166754   0.226   5.186   2.867
15113TIP3    H266755   0.086   5.207   2.922
15114TIP3   OH266756   1.863   5.295   3.517
15114TIP3    H166757   1.851   5.200   3.523
15114TIP3    H266758   1.781   5.332   3.548
15115TIP3   OH266759   0.941   5.242   3.372
15115TIP3    H166760   0.942   5.323   3.423
15115TIP3    H266761   0.859   5.200   3.395
15116TIP3   OH266762   1.028   5.583   2.362
15116TIP3    H166763   0.998   5.594   2.271
15116TIP3    H266764   0.999   5.662   2.406
15117TIP3   OH266765   0.376   5.466   2.544
15117TIP3    H166766   0.391   5.435   2.633
15117TIP3    H266767   0.318   5.400   2.505
15118TIP3   OH266768   1.313   5.544   2.042
15118TIP3    H166769   1.364   5.471   2.007
15118TIP3    H266770   1.320   5.534   2.137
15119TIP3   OH266771   1.294   5.526   2.318
15119TIP3    H166772   1.201   5.537   2.339
15119TIP3    H266773   1.328   5.474   2.391
15120TIP3   OH266774   1.568   4.408   3.538
15120TIP3    H166775   1.488   4.438   3.496
15120TIP3    H266776   1.567   4.313   3.530
15121TIP3   OH266777   0.301   5.099   3.316
15121TIP3    H166778   0.317   5.085   3.409
15121TIP3    H266779   0.248   5.025   3.289
15122TIP3   OH266780   0.548   3.920   2.946
15122TIP3    H166781   0.471   3.913   2.890
15122TIP3    H266782   0.525   3.989   3.008
15123TIP3   OH266783   1.034   3.880   3.286
15123TIP3    H166784   1.083   3.834   3.354
15123TIP3    H266785   0.942   3.872   3.312
15124TIP3   OH266786   1.323   4.268   3.352
15124TIP3    H166787   1.260   4.254   3.422
15124TIP3    H266788   1.329   4.364   3.344
15125TIP3   OH266789   1.424   4.684   1.925
15125TIP3    H166790   1.406   4.708   1.834
15125TIP3    H266791   1.510   4.722   1.944
15126TIP3   OH266792   0.980   4.125   2.017
15126TIP3    H166793   0.925   4.118   2.096
15126TIP3    H266794   0.944   4.060   1.957
15127TIP3   OH266795   0.572   4.438   3.059
15127TIP3    H166796   0.535   4.449   3.147
15127TIP3    H266797   0.573   4.527   3.023
15128TIP3   OH266798   0.577   4.438   2.552
15128TIP3    H166799   0.482   4.424   2.554
15128TIP3    H266800   0.602   4.417   2.462
15129TIP3   OH266801   1.102   4.467   2.429
15129TIP3    H166802   1.077   4.553   2.397
15129TIP3    H266803   1.171   4.438   2.370
15130TIP3   OH266804   1.031   4.481   3.549
15130TIP3    H166805   0.981   4.408   3.586
15130TIP3    H266806   1.115   4.478   3.596
15131TIP3   OH266807   1.196   4.400   2.684
15131TIP3    H166808   1.153   4.447   2.612
15131TIP3    H266809   1.242   4.328   2.641
15132TIP3   OH266810   0.328   4.422   3.233
15132TIP3    H166811   0.387   4.454   3.301
15132TIP3    H266812   0.299   4.337   3.264
15133TIP3   OH266813   0.664   4.176   1.908
15133TIP3    H166814   0.631   4.159   1.997
15133TIP3    H266815   0.606   4.243   1.873
15134TIP3   OH266816   0.027   4.236   2.594
15134TIP3    H166817   0.084   4.218   2.669
15134TIP3    H266818  -0.008   4.150   2.571
15135TIP3   OH266819   0.053   4.262   2.132
15135TIP3    H166820   0.124   4.317   2.098
15135TIP3    H266821   0.005   4.234   2.054
15136TIP3   OH266822   1.151   4.559   3.150
15136TIP3    H166823   1.188   4.501   3.084
15136TIP3    H266824   1.092   4.503   3.200
15137TIP3   OH266825   0.866   4.155   2.638
15137TIP3    H166826   0.777   4.161   2.674
15137TIP3    H266827   0.918   4.117   2.708
15138TIP3   OH266828   0.320   4.346   2.538
15138TIP3    H166829   0.258   4.379   2.472
15138TIP3    H266830   0.341   4.258   2.509
15139TIP3   OH266831   0.626   4.356   2.294
15139TIP3    H166832   0.721   4.351   2.307
15139TIP3    H266833   0.616   4.399   2.209
15140TIP3   OH266834   1.251   4.107   2.951
15140TIP3    H166835   1.214   4.107   3.039
15140TIP3    H266836   1.183   4.066   2.897
15141TIP3   OH266837   0.582   4.455   2.043
15141TIP3    H166838   0.524   4.433   1.969
15141TIP3    H266839   0.656   4.499   2.002
15142TIP3   OH266840   1.576   5.670   3.602
15142TIP3    H166841   1.602   5.709   3.518
15142TIP3    H266842   1.653   5.683   3.659
15143TIP3   OH266843   0.369   4.936   3.560
15143TIP3    H166844   0.430   4.930   3.633
15143TIP3    H266845   0.283   4.948   3.601
15144TIP3   OH266846   0.934   4.475   2.839
15144TIP3    H166847   1.005   4.424   2.799
15144TIP3    H266848   0.905   4.420   2.912
15145TIP3   OH266849   0.431   4.092   2.484
15145TIP3    H166850   0.388   4.011   2.512
15145TIP3    H266851   0.460   4.074   2.394
15146TIP3   OH266852   0.831   4.337   3.062
15146TIP3    H166853   0.745   4.380   3.071
15146TIP3    H266854   0.878   4.361   3.141
15147TIP3   OH266855   0.855   4.902   2.241
15147TIP3    H166856   0.783   4.866   2.190
15147TIP3    H266857   0.815   4.929   2.323
15148TIP3   OH266858   1.580   4.857   3.084
15148TIP3    H166859   1.640   4.914   3.036
15148TIP3    H266860   1.507   4.843   3.024
15149TIP3   OH266861   1.238   4.194   2.072
15149TIP3    H166862   1.144   4.182   2.058
15149TIP3    H266863   1.245   4.272   2.126
15150TIP3   OH266864   1.008   4.947   3.388
15150TIP3    H166865   1.041   4.909   3.469
15150TIP3    H266866   0.985   5.037   3.411
15151TIP3   OH266867   1.305   4.400   2.245
15151TIP3    H166868   1.392   4.383   2.282
15151TIP3    H266869   1.310   4.491   2.215
15152TIP3   OH266870   0.372   4.842   2.791
15152TIP3    H166871   0.428   4.836   2.713
15152TIP3    H266872   0.416   4.788   2.856
15153TIP3   OH266873   1.065   5.057   2.163
15153TIP3    H166874   1.032   5.147   2.170
15153TIP3    H266875   0.992   5.002   2.188
15154TIP3   OH266876   0.047   4.691   3.410
15154TIP3    H166877   0.100   4.659   3.484
15154TIP3    H266878   0.027   4.612   3.360
15155TIP3   OH266879   0.829   4.673   3.559
15155TIP3    H166880   0.797   4.667   3.469
15155TIP3    H266881   0.909   4.620   3.559
15156TIP3   OH266882   1.222   5.219   3.365
15156TIP3    H166883   1.127   5.225   3.351
15156TIP3    H266884   1.233   5.236   3.459
15157TIP3   OH266885   1.771   4.435   2.193
15157TIP3    H166886   1.731   4.411   2.109
15157TIP3    H266887   1.792   4.527   2.184
15158TIP3   OH266888   1.822   5.007   3.482
15158TIP3    H166889   1.733   5.024   3.451
15158TIP3    H266890   1.873   4.995   3.402
15159TIP3   OH266891   1.635   5.286   2.270
15159TIP3    H166892   1.582   5.227   2.323
15159TIP3    H266893   1.652   5.238   2.189
15160TIP3   OH266894   1.370   4.797   2.899
15160TIP3    H166895   1.274   4.790   2.904
15160TIP3    H266896   1.397   4.716   2.856
15161TIP3   OH266897   0.644   5.218   2.580
15161TIP3    H166898   0.669   5.302   2.541
15161TIP3    H266899   0.551   5.228   2.601
15162TIP3   OH266900   0.167   4.694   2.022
15162TIP3    H166901   0.225   4.746   2.079
15162TIP3    H266902   0.079   4.715   2.053
15163TIP3   OH266903   0.716   4.981   2.458
15163TIP3    H166904   0.703   5.066   2.501
15163TIP3    H266905   0.664   4.920   2.510
15164TIP3   OH266906   0.837   5.389   3.152
15164TIP3    H166907   0.894   5.463   3.133
15164TIP3    H266908   0.887   5.335   3.213
15165TIP3   OH266909   0.641   5.478   2.467
15165TIP3    H166910   0.548   5.489   2.488
15165TIP3    H266911   0.683   5.556   2.504
15166TIP3   OH266912   1.127   4.992   3.142
15166TIP3    H166913   1.079   4.977   3.224
15166TIP3    H266914   1.211   4.949   3.155
15167TIP3   OH266915   1.416   5.094   2.028
15167TIP3    H166916   1.443   5.041   2.103
15167TIP3    H266917   1.324   5.071   2.014
15168TIP3   OH266918   1.427   5.412   3.338
15168TIP3    H166919   1.346   5.362   3.328
15168TIP3    H266920   1.415   5.487   3.280
15169TIP3   OH266921   1.839   5.532   2.047
15169TIP3    H166922   1.906   5.600   2.048
15169TIP3    H266923   1.759   5.577   2.073
15170TIP3   OH266924   0.257   4.165   3.334
15170TIP3    H166925   0.193   4.205   3.393
15170TIP3    H266926   0.273   4.078   3.371
15171TIP3   OH266927   1.523   4.934   2.222
15171TIP3    H166928   1.477   4.877   2.285
15171TIP3    H266929   1.615   4.929   2.248
15172TIP3   OH266930   0.230   5.387   3.142
15172TIP3    H166931   0.234   5.309   3.196
15172TIP3    H266932   0.244   5.459   3.203
15173TIP3   OH266933   0.790   5.190   1.887
15173TIP3    H166934   0.794   5.105   1.844
15173TIP3    H266935   0.750   5.172   1.973
15174TIP3   OH266936   0.663   5.163   2.134
15174TIP3    H166937   0.700   5.113   2.207
15174TIP3    H266938   0.673   5.255   2.160
15175TIP3   OH266939   0.303   4.871   2.191
15175TIP3    H166940   0.233   4.921   2.234
15175TIP3    H266941   0.354   4.937   2.144
15176TIP3   OH266942   1.141   4.120   3.199
15176TIP3    H166943   1.204   4.151   3.264
15176TIP3    H266944   1.104   4.040   3.237
15177TIP3   OH266945   1.211   4.068   2.347
15177TIP3    H166946   1.221   4.113   2.263
15177TIP3    H266947   1.253   4.125   2.411
15178TIP3   OH266948   0.961   5.306   2.176
15178TIP3    H166949   0.873   5.336   2.198
15178TIP3    H266950   1.011   5.386   2.160
15179TIP3   OH266951   0.881   4.304   2.405
15179TIP3    H166952   0.956   4.363   2.414
15179TIP3    H266953   0.873   4.262   2.491
15180TIP3   OH266954   0.991   4.380   3.288
15180TIP3    H166955   1.000   4.412   3.378
15180TIP3    H266956   1.026   4.291   3.291
15181TIP3   OH266957   0.974   3.965   2.457
15181TIP3    H166958   0.950   4.033   2.520
15181TIP3    H266959   1.059   3.993   2.423
15182TIP3   OH266960   0.713   5.421   2.210
15182TIP3    H166961   0.718   5.505   2.164
15182TIP3    H266962   0.687   5.444   2.299
15183TIP3   OH266963   0.567   4.114   2.162
15183TIP3    H166964   0.559   4.197   2.209
15183TIP3    H266965   0.652   4.079   2.188
15184TIP3   OH266966   1.567   4.149   3.371
15184TIP3    H166967   1.480   4.188   3.370
15184TIP3    H266968   1.571   4.095   3.292
15185TIP3   OH266969   1.439   4.544   2.778
15185TIP3    H166970   1.353   4.505   2.766
15185TIP3    H266971   1.483   4.485   2.840
15186TIP3   OH266972   0.413   5.080   2.040
15186TIP3    H166973   0.484   5.129   2.081
15186TIP3    H266974   0.456   5.027   1.974
15187TIP3   OH266975   0.212   4.423   1.978
15187TIP3    H166976   0.206   4.516   1.998
15187TIP3    H266977   0.171   4.414   1.892
15188TIP3   OH266978   1.571   5.497   2.942
15188TIP3    H166979   1.559   5.567   2.878
15188TIP3    H266980   1.665   5.499   2.962
15189TIP3   OH266981   0.297   3.896   2.825
15189TIP3    H166982   0.306   3.880   2.731
15189TIP3    H266983   0.269   3.812   2.862
15190TIP3   OH266984   0.179   5.291   2.423
15190TIP3    H166985   0.121   5.304   2.497
15190TIP3    H266986   0.156   5.360   2.360
15191TIP3   OH266987   0.182   5.588   3.597
15191TIP3    H166988   0.226   5.579   3.682
15191TIP3    H266989   0.192   5.503   3.556
15192TIP3   OH266990   0.559   5.421   3.747
15192TIP3    H166991   0.644   5.401   3.785
15192TIP3    H266992   0.556   5.368   3.667
15193TIP3   OH266993   0.998   5.372   1.866
15193TIP3    H166994   0.929   5.308   1.885
15193TIP3    H266995   1.074   5.320   1.841
15194TIP3   OH266996   1.244   5.265   3.631
15194TIP3    H166997   1.212   5.187   3.677
15194TIP3    H266998   1.317   5.296   3.686
15195TIP3   OH266999   1.449   5.341   1.915
15195TIP3    H167000   1.446   5.260   1.966
15195TIP3    H267001   1.534   5.338   1.870
15196TIP3   OH267002   0.099   4.936   3.634
15196TIP3    H167003   0.100   4.840   3.628
15196TIP3    H267004   0.045   4.963   3.559
15197TIP3   OH267005   0.550   4.904   1.885
15197TIP3    H167006   0.575   4.857   1.964
15197TIP3    H267007   0.632   4.919   1.839
15198TIP3   OH267008   0.778   4.942   3.635
15198TIP3    H167009   0.764   4.987   3.552
15198TIP3    H267010   0.810   4.855   3.610
15199TIP3   OH267011   1.155   5.053   1.905
15199TIP3    H167012   1.113   5.051   1.990
15199TIP3    H267013   1.132   4.970   1.864
15200TIP3   OH267014   1.340   4.962   3.370
15200TIP3    H167015   1.433   4.986   3.361
15200TIP3    H267016   1.294   5.046   3.370
15201TIP3   OH267017   0.204   4.645   3.633
15201TIP3    H167018   0.296   4.644   3.607
15201TIP3    H267019   0.205   4.664   3.727
15202TIP3   OH267020   0.644   4.775   2.113
15202TIP3    H167021   0.595   4.735   2.184
15202TIP3    H267022   0.688   4.702   2.069
15203TIP3   OH267023   0.570   4.533   3.331
15203TIP3    H167024   0.513   4.606   3.355
15203TIP3    H267025   0.653   4.574   3.309
15204TIP3   OH267026   0.792   4.604   1.948
15204TIP3    H167027   0.790   4.631   1.857
15204TIP3    H267028   0.885   4.596   1.969
15205TIP3   OH267029   1.114   4.802   3.679
15205TIP3    H167030   1.204   4.773   3.664
15205TIP3    H267031   1.079   4.740   3.743
15206TIP3   OH267032   1.680   4.796   1.906
15206TIP3    H167033   1.682   4.773   1.813
15206TIP3    H267034   1.672   4.891   1.907
15207TIP3   OH267035   0.654   4.297   3.457
15207TIP3    H167036   0.671   4.232   3.389
15207TIP3    H267037   0.634   4.378   3.409
15208TIP3   OH267038   0.690   4.135   3.224
15208TIP3    H167039   0.745   4.178   3.158
15208TIP3    H267040   0.603   4.130   3.185
15209TIP3   OH267041   0.796   4.672   3.267
15209TIP3    H167042   0.892   4.676   3.259
15209TIP3    H267043   0.765   4.746   3.215
15210TIP3   OH267044   1.250   4.450   3.724
15210TIP3    H167045   1.257   4.367   3.772
15210TIP3    H267046   1.325   4.501   3.752
15211TIP3   OH267047   1.406   4.742   3.523
15211TIP3    H167048   1.371   4.818   3.477
15211TIP3    H267049   1.501   4.751   3.519
15212TIP3   OH267050   0.487   4.369   3.669
15212TIP3    H167051   0.417   4.303   3.662
15212TIP3    H267052   0.544   4.352   3.594
15213TIP3   OH267053   0.752   3.866   3.283
15213TIP3    H167054   0.730   3.958   3.265
15213TIP3    H267055   0.684   3.816   3.239
15214TIP3   OH267056   0.883   4.265   3.629
15214TIP3    H167057   0.859   4.235   3.716
15214TIP3    H267058   0.800   4.267   3.580
15215TIP3   OH267059   1.132   4.187   3.523
15215TIP3    H167060   1.049   4.198   3.569
15215TIP3    H267061   1.190   4.146   3.587
15216TIP3   OH267062   1.327   4.081   3.697
15216TIP3    H167063   1.319   3.986   3.707
15216TIP3    H267064   1.294   4.116   3.780
15217TIP3   OH267065   0.310   4.157   3.654
15217TIP3    H167066   0.317   4.080   3.598
15217TIP3    H267067   0.322   4.124   3.743
15218TIP3   OH267068   0.746   3.788   3.545
15218TIP3    H167069   0.804   3.712   3.545
15218TIP3    H267070   0.744   3.817   3.454
15219TIP3   OH267071   0.812   3.954   3.757
15219TIP3    H167072   0.794   3.900   3.679
15219TIP3    H267073   0.748   4.024   3.752
15220TIP3   OH267074   0.784   5.658   2.083
15220TIP3    H167075   0.874   5.627   2.077
15220TIP3    H267076   0.777   5.727   2.016
15221TIP3   OH267077   0.151   5.129   1.970
15221TIP3    H167078   0.241   5.113   1.996
15221TIP3    H267079   0.129   5.058   1.910
15222TIP3   OH267080   0.063   5.652   2.486
15222TIP3    H167081   0.047   5.612   2.400
15222TIP3    H267082   0.058   5.580   2.548
15223TIP3   OH267083   0.082   5.426   2.672
15223TIP3    H167084   0.084   5.340   2.714
15223TIP3    H267085   0.127   5.484   2.733
15224TIP3   OH267086   1.834   5.513   3.029
15224TIP3    H167087   1.821   5.491   3.121
15224TIP3    H267088   1.875   5.600   3.030
15225TIP3   OH267089   1.782   5.467   3.295
15225TIP3    H167090   1.725   5.395   3.269
15225TIP3    H267091   1.826   5.435   3.374
15226TIP3   OH267092   1.626   5.061   3.770
15226TIP3    H167093   1.544   5.072   3.818
15226TIP3    H267094   1.682   5.132   3.800
15227TIP3   OH267095   1.787   4.890   2.305
15227TIP3    H167096   1.858   4.954   2.311
15227TIP3    H267097   1.798   4.833   2.381
15228TIP3   OH267098   1.830   4.697   2.499
15228TIP3    H167099   1.746   4.662   2.530
15228TIP3    H267100   1.880   4.711   2.579
15229TIP3   OH267101   1.808   4.994   3.006
15229TIP3    H167102   1.868   4.931   2.966
15229TIP3    H267103   1.838   5.079   2.974
15230TIP3   OH267104   1.615   5.265   3.200
15230TIP3    H167105   1.544   5.308   3.247
15230TIP3    H267106   1.580   5.248   3.113
15231TIP3   OH267107   1.825   4.695   2.117
15231TIP3    H167108   1.771   4.724   2.043
15231TIP3    H267109   1.809   4.761   2.185
15232TIP3   OH267110   1.679   4.391   1.937
15232TIP3    H167111   1.649   4.451   1.869
15232TIP3    H267112   1.657   4.304   1.903
15233TIP3   OH267113   1.581   4.571   2.543
15233TIP3    H167114   1.575   4.481   2.512
15233TIP3    H267115   1.537   4.570   2.628
15234TIP3   OH267116   0.109   4.781   2.944
15234TIP3    H167117   0.151   4.837   2.879
15234TIP3    H267118   0.181   4.737   2.988
15235TIP3   OH267119   1.682   4.758   3.518
15235TIP3    H167120   1.736   4.682   3.499
15235TIP3    H267121   1.737   4.833   3.495
15236TIP3   OH267122   1.811   4.517   3.483
15236TIP3    H167123   1.725   4.481   3.504
15236TIP3    H267124   1.873   4.452   3.517
15237TIP3   OH267125   1.599   4.145   1.832
15237TIP3    H167126   1.633   4.100   1.909
15237TIP3    H267127   1.506   4.122   1.830
15238TIP3   OH267128   1.565   4.325   2.363
15238TIP3    H167129   1.591   4.233   2.366
15238TIP3    H267130   1.634   4.369   2.314
15239TIP3   OH267131   1.589   4.358   2.930
15239TIP3    H167132   1.682   4.368   2.913
15239TIP3    H267133   1.580   4.377   3.024
15240TIP3   OH267134   1.616   4.439   3.196
15240TIP3    H167135   1.541   4.469   3.246
15240TIP3    H267136   1.670   4.518   3.184
15241TIP3   OH267137   0.082   4.252   3.540
15241TIP3    H167138   0.167   4.239   3.583
15241TIP3    H267139   0.018   4.219   3.603
15242TIP3   OH267140   1.856   3.869   3.720
15242TIP3    H167141   1.918   3.803   3.689
15242TIP3    H267142   1.854   3.935   3.651
15243TIP3   OH267143   1.629   4.053   2.377
15243TIP3    H167144   1.646   4.019   2.465
15243TIP3    H267145   1.559   3.997   2.342
15244TIP3   OH267146   0.178   4.145   2.834
15244TIP3    H167147   0.210   4.054   2.835
15244TIP3    H267148   0.256   4.197   2.854
15245TIP3   OH267149   0.018   4.511   2.955
15245TIP3    H167150   0.091   4.481   2.900
15245TIP3    H267151   0.036   4.604   2.969
15246TIP3   OH267152   1.787   4.062   3.539
15246TIP3    H167153   1.719   4.097   3.597
15246TIP3    H267154   1.741   4.039   3.458
15247TIP3   OH267155   1.762   4.037   2.031
15247TIP3    H167156   1.812   3.978   1.975
15247TIP3    H267157   1.827   4.097   2.067
15248TIP3   OH267158   0.139   4.043   2.279
15248TIP3    H167159   0.069   4.036   2.345
15248TIP3    H267160   0.117   4.121   2.229
15249TIP3   OH267161   1.499   5.563   2.547
15249TIP3    H167162   1.578   5.559   2.492
15249TIP3    H267163   1.527   5.610   2.625
15250TIP3   OH267164   0.065   3.920   3.211
15250TIP3    H167165   0.026   3.989   3.264
15250TIP3    H267166   0.013   3.918   3.131
15251TIP3   OH267167   0.225   5.301   3.588
15251TIP3    H167168   0.129   5.296   3.580
15251TIP3    H267169   0.241   5.303   3.682
15252TIP3   OH267170   0.575   5.363   3.233
15252TIP3    H167171   0.542   5.449   3.207
15252TIP3    H267172   0.669   5.367   3.216
15253TIP3   OH267173   0.952   5.482   3.508
15253TIP3    H167174   0.961   5.450   3.597
15253TIP3    H267175   1.032   5.531   3.492
15254TIP3   OH267176   1.190   5.616   3.471
15254TIP3    H167177   1.259   5.554   3.449
15254TIP3    H267178   1.219   5.657   3.553
15255TIP3   OH267179   1.697   3.840   3.345
15255TIP3    H167180   1.615   3.849   3.296
15255TIP3    H267181   1.721   3.748   3.335
15256TIP3   OH267182   0.268   5.649   3.252
15256TIP3    H167183   0.188   5.694   3.224
15256TIP3    H267184   0.293   5.695   3.333
15257TIP3   OH267185   0.525   5.624   3.155
15257TIP3    H167186   0.435   5.634   3.183
15257TIP3    H267187   0.532   5.676   3.075
15258TIP3   OH267188   0.979   5.612   3.064
15258TIP3    H167189   0.923   5.654   2.999
15258TIP3    H267190   0.991   5.679   3.132
15259TIP3   OH267191   1.207   5.477   3.138
15259TIP3    H167192   1.128   5.526   3.116
15259TIP3    H267193   1.276   5.543   3.140
15260TIP3   OH267194   1.442   5.626   3.151
15260TIP3    H167195   1.467   5.717   3.140
15260TIP3    H267196   1.486   5.580   3.080
15261TIP3   OH267197   0.224   5.519   2.902
15261TIP3    H167198   0.220   5.483   2.990
15261TIP3    H267199   0.299   5.475   2.862
15262TIP3   OH267200   0.441   5.383   2.797
15262TIP3    H167201   0.426   5.293   2.826
15262TIP3    H267202   0.525   5.407   2.837
15263TIP3   OH267203   0.699   5.416   2.909
15263TIP3    H167204   0.710   5.325   2.881
15263TIP3    H267205   0.735   5.418   2.998
15264TIP3   OH267206   1.028   3.989   2.792
15264TIP3    H167207   0.968   3.918   2.819
15264TIP3    H267208   1.102   3.943   2.752
15265TIP3   OH267209   1.532   3.828   2.784
15265TIP3    H167210   1.591   3.889   2.740
15265TIP3    H267211   1.446   3.870   2.779
15266TIP3   OH267212   1.714   3.945   2.615
15266TIP3    H167213   1.779   3.876   2.598
15266TIP3    H267214   1.766   4.023   2.631
15267TIP3   OH267215   0.314   3.852   2.554
15267TIP3    H167216   0.226   3.842   2.519
15267TIP3    H267217   0.354   3.766   2.545
15268TIP3   OH267218   0.218   3.826   2.134
15268TIP3    H167219   0.269   3.872   2.067
15268TIP3    H267220   0.190   3.895   2.194
15269TIP3   OH267221   0.755   3.822   2.574
15269TIP3    H167222   0.828   3.871   2.535
15269TIP3    H267223   0.773   3.823   2.668
15270TIP3   OH267224   1.256   3.862   2.697
15270TIP3    H167225   1.292   3.837   2.613
15270TIP3    H267226   1.232   3.780   2.739
15271TIP3   OH267227   1.419   3.887   2.293
15271TIP3    H167228   1.342   3.942   2.308
15271TIP3    H267229   1.387   3.798   2.309
15272TIP3   OH267230   0.106   5.489   2.244
15272TIP3    H167231   0.060   5.451   2.169
15272TIP3    H267232   0.156   5.561   2.208
15273TIP3   OH267233   0.380   4.005   1.980
15273TIP3    H167234   0.438   3.954   1.924
15273TIP3    H267235   0.437   4.038   2.050
15274TIP3   OH267236   0.829   4.088   2.245
15274TIP3    H167237   0.861   4.015   2.298
15274TIP3    H267238   0.847   4.166   2.298
15275TIP3   OH267239   1.038   5.556   2.067
15275TIP3    H167240   1.132   5.571   2.060
15275TIP3    H267241   1.017   5.500   1.992
15276TIP3   OH267242   1.709   5.535   2.361
15276TIP3    H167243   1.686   5.446   2.333
15276TIP3    H267244   1.689   5.590   2.285
15277TIP3   OH267245   0.304   3.921   3.497
15277TIP3    H167246   0.246   3.854   3.532
15277TIP3    H267247   0.388   3.905   3.541
15278TIP3   OH267248   0.506   3.848   3.666
15278TIP3    H167249   0.591   3.821   3.632
15278TIP3    H267250   0.474   3.773   3.715
15279TIP3   OH267251   0.363   5.547   1.924
15279TIP3    H167252   0.340   5.560   2.016
15279TIP3    H267253   0.434   5.483   1.925
15280TIP3   OH267254   1.336   3.804   3.696
15280TIP3    H167255   1.322   3.756   3.778
15280TIP3    H267256   1.429   3.793   3.677
15281TIP3   OH267257   1.613   5.401   3.550
15281TIP3    H167258   1.543   5.390   3.486
15281TIP3    H267259   1.599   5.488   3.587
15282TIP3   OH267260   3.074   4.812   2.533
15282TIP3    H167261   3.049   4.904   2.541
15282TIP3    H267262   3.006   4.774   2.477
15283TIP3   OH267263   2.943   4.696   2.926
15283TIP3    H167264   2.974   4.665   3.011
15283TIP3    H267265   2.897   4.621   2.889
15284TIP3   OH267266   2.186   4.664   3.084
15284TIP3    H167267   2.182   4.576   3.121
15284TIP3    H267268   2.229   4.717   3.152
15285TIP3   OH267269   3.335   5.024   2.754
15285TIP3    H167270   3.310   4.946   2.803
15285TIP3    H267271   3.358   5.088   2.821
15286TIP3   OH267272   2.368   5.096   2.885
15286TIP3    H167273   2.316   5.021   2.856
15286TIP3    H267274   2.366   5.091   2.981
15287TIP3   OH267275   1.973   4.479   2.401
15287TIP3    H167276   1.936   4.559   2.438
15287TIP3    H267277   1.904   4.445   2.344
15288TIP3   OH267278   2.032   4.708   2.699
15288TIP3    H167279   2.057   4.618   2.720
15288TIP3    H267280   2.112   4.759   2.717
15289TIP3   OH267281   3.070   5.516   2.793
15289TIP3    H167282   3.105   5.447   2.737
15289TIP3    H267283   3.048   5.471   2.874
15290TIP3   OH267284   2.890   4.960   2.869
15290TIP3    H167285   2.900   4.865   2.877
15290TIP3    H267286   2.933   4.995   2.946
15291TIP3   OH267287   3.690   4.112   3.044
15291TIP3    H167288   3.706   4.177   3.113
15291TIP3    H267289   3.744   4.141   2.971
15292TIP3   OH267290   3.118   4.383   2.951
15292TIP3    H167291   3.141   4.293   2.972
15292TIP3    H267292   3.099   4.383   2.857
15293TIP3   OH267293   2.400   4.184   2.668
15293TIP3    H167294   2.425   4.267   2.629
15293TIP3    H267295   2.305   4.189   2.677
15294TIP3   OH267296   3.246   4.226   2.525
15294TIP3    H167297   3.287   4.195   2.606
15294TIP3    H267298   3.319   4.265   2.476
15295TIP3   OH267299   2.095   4.448   2.771
15295TIP3    H167300   2.162   4.415   2.830
15295TIP3    H267301   2.104   4.395   2.692
15296TIP3   OH267302   2.599   4.587   2.713
15296TIP3    H167303   2.677   4.544   2.749
15296TIP3    H267304   2.555   4.519   2.663
15297TIP3   OH267305   3.732   4.277   3.264
15297TIP3    H167306   3.652   4.328   3.250
15297TIP3    H267307   3.753   4.289   3.356
15298TIP3   OH267308   2.324   4.111   3.107
15298TIP3    H167309   2.296   4.183   3.050
15298TIP3    H267310   2.256   4.108   3.174
15299TIP3   OH267311   2.949   5.063   2.481
15299TIP3    H167312   2.972   5.044   2.390
15299TIP3    H267313   2.951   5.159   2.486
15300TIP3   OH267314   2.614   4.912   3.110
15300TIP3    H167315   2.534   4.962   3.129
15300TIP3    H267316   2.679   4.950   3.169
15301TIP3   OH267317   3.352   4.175   2.771
15301TIP3    H167318   3.289   4.149   2.838
15301TIP3    H267319   3.413   4.234   2.816
15302TIP3   OH267320   2.296   4.304   2.907
15302TIP3    H167321   2.346   4.364   2.962
15302TIP3    H267322   2.362   4.261   2.853
15303TIP3   OH267323   2.404   5.090   3.168
15303TIP3    H167324   2.423   5.183   3.179
15303TIP3    H267325   2.321   5.076   3.213
15304TIP3   OH267326   2.007   5.065   2.284
15304TIP3    H167327   1.994   5.115   2.204
15304TIP3    H267328   2.030   5.131   2.350
15305TIP3   OH267329   3.370   5.230   2.951
15305TIP3    H167330   3.275   5.231   2.966
15305TIP3    H267331   3.391   5.322   2.932
15306TIP3   OH267332   3.436   4.006   3.118
15306TIP3    H167333   3.369   4.060   3.078
15306TIP3    H267334   3.519   4.038   3.081
15307TIP3   OH267335   2.668   3.805   2.839
15307TIP3    H167336   2.652   3.712   2.851
15307TIP3    H267337   2.593   3.849   2.879
15308TIP3   OH267338   3.184   5.362   2.590
15308TIP3    H167339   3.219   5.277   2.562
15308TIP3    H267340   3.259   5.421   2.585
15309TIP3   OH267341   3.291   5.127   2.503
15309TIP3    H167342   3.332   5.070   2.437
15309TIP3    H267343   3.311   5.084   2.586
15310TIP3   OH267344   3.489   5.017   3.315
15310TIP3    H167345   3.485   4.957   3.241
15310TIP3    H267346   3.502   5.103   3.275
15311TIP3   OH267347   2.929   4.717   2.315
15311TIP3    H167348   2.862   4.780   2.289
15311TIP3    H267349   2.996   4.723   2.247
15312TIP3   OH267350   2.960   4.592   1.973
15312TIP3    H167351   3.014   4.616   2.048
15312TIP3    H267352   3.011   4.527   1.926
15313TIP3   OH267353   3.658   4.664   3.146
15313TIP3    H167354   3.587   4.727   3.141
15313TIP3    H267355   3.721   4.692   3.079
15314TIP3   OH267356   3.293   4.736   2.389
15314TIP3    H167357   3.225   4.760   2.452
15314TIP3    H267358   3.356   4.686   2.440
15315TIP3   OH267359   3.263   4.535   3.334
15315TIP3    H167360   3.268   4.607   3.398
15315TIP3    H267361   3.195   4.564   3.272
15316TIP3   OH267362   2.459   4.787   2.583
15316TIP3    H167363   2.426   4.749   2.501
15316TIP3    H267364   2.508   4.715   2.624
15317TIP3   OH267365   2.641   5.122   2.827
15317TIP3    H167366   2.545   5.118   2.832
15317TIP3    H267367   2.671   5.075   2.905
15318TIP3   OH267368   2.484   4.710   2.943
15318TIP3    H167369   2.539   4.676   2.872
15318TIP3    H267370   2.540   4.770   2.990
15319TIP3   OH267371   3.103   5.231   3.014
15319TIP3    H167372   3.095   5.307   3.072
15319TIP3    H267373   3.072   5.158   3.066
15320TIP3   OH267374   2.579   5.102   3.411
15320TIP3    H167375   2.526   5.161   3.465
15320TIP3    H267376   2.518   5.069   3.345
15321TIP3   OH267377   3.161   4.669   2.157
15321TIP3    H167378   3.211   4.701   2.231
15321TIP3    H267379   3.215   4.688   2.080
15322TIP3   OH267380   2.276   4.737   3.348
15322TIP3    H167381   2.290   4.804   3.415
15322TIP3    H267382   2.183   4.718   3.353
15323TIP3   OH267383   2.919   5.327   2.531
15323TIP3    H167384   3.009   5.348   2.558
15323TIP3    H267385   2.892   5.403   2.479
15324TIP3   OH267386   2.390   5.278   3.499
15324TIP3    H167387   2.378   5.328   3.419
15324TIP3    H267388   2.301   5.268   3.535
15325TIP3   OH267389   3.531   3.812   2.143
15325TIP3    H167390   3.447   3.834   2.183
15325TIP3    H267391   3.566   3.896   2.113
15326TIP3   OH267392   2.354   4.702   2.327
15326TIP3    H167393   2.298   4.770   2.288
15326TIP3    H267394   2.298   4.626   2.335
15327TIP3   OH267395   3.672   5.258   2.002
15327TIP3    H167396   3.688   5.352   2.005
15327TIP3    H267397   3.759   5.219   1.997
15328TIP3   OH267398   1.953   4.940   3.251
15328TIP3    H167399   1.897   4.943   3.173
15328TIP3    H267400   1.964   4.846   3.268
15329TIP3   OH267401   1.920   5.255   2.943
15329TIP3    H167402   1.993   5.260   3.005
15329TIP3    H267403   1.867   5.332   2.964
15330TIP3   OH267404   3.748   5.298   3.517
15330TIP3    H167405   3.735   5.203   3.514
15330TIP3    H267406   3.664   5.332   3.548
15331TIP3   OH267407   2.817   5.239   3.368
15331TIP3    H167408   2.822   5.317   3.422
15331TIP3    H267409   2.733   5.199   3.391
15332TIP3   OH267410   2.917   5.576   2.369
15332TIP3    H167411   2.899   5.583   2.275
15332TIP3    H267412   2.887   5.660   2.405
15333TIP3   OH267413   2.256   5.473   2.560
15333TIP3    H167414   2.278   5.440   2.647
15333TIP3    H267415   2.198   5.407   2.523
15334TIP3   OH267416   3.202   5.548   2.039
15334TIP3    H167417   3.249   5.472   2.004
15334TIP3    H267418   3.207   5.537   2.134
15335TIP3   OH267419   3.187   5.532   2.317
15335TIP3    H167420   3.095   5.536   2.344
15335TIP3    H267421   3.232   5.496   2.393
15336TIP3   OH267422   3.452   4.412   3.544
15336TIP3    H167423   3.374   4.445   3.499
15336TIP3    H267424   3.454   4.319   3.525
15337TIP3   OH267425   2.168   5.103   3.305
15337TIP3    H167426   2.184   5.096   3.399
15337TIP3    H267427   2.092   5.047   3.289
15338TIP3   OH267428   2.433   3.918   2.939
15338TIP3    H167429   2.353   3.903   2.888
15338TIP3    H267430   2.409   3.986   3.002
15339TIP3   OH267431   2.915   3.881   3.288
15339TIP3    H167432   2.963   3.836   3.357
15339TIP3    H267433   2.823   3.873   3.314
15340TIP3   OH267434   3.201   4.266   3.347
15340TIP3    H167435   3.140   4.252   3.419
15340TIP3    H267436   3.213   4.361   3.344
15341TIP3   OH267437   3.307   4.697   1.926
15341TIP3    H167438   3.289   4.721   1.835
15341TIP3    H267439   3.396   4.727   1.941
15342TIP3   OH267440   2.854   4.122   2.030
15342TIP3    H167441   2.810   4.108   2.114
15342TIP3    H267442   2.815   4.058   1.971
15343TIP3   OH267443   2.449   4.460   3.068
15343TIP3    H167444   2.387   4.460   3.141
15343TIP3    H267445   2.453   4.551   3.039
15344TIP3   OH267446   2.437   4.428   2.545
15344TIP3    H167447   2.341   4.421   2.540
15344TIP3    H267448   2.467   4.405   2.457
15345TIP3   OH267449   2.989   4.467   2.424
15345TIP3    H167450   2.966   4.555   2.393
15345TIP3    H267451   3.061   4.440   2.367
15346TIP3   OH267452   2.905   4.483   3.548
15346TIP3    H167453   2.857   4.409   3.587
15346TIP3    H267454   2.988   4.486   3.596
15347TIP3   OH267455   3.080   4.391   2.680
15347TIP3    H167456   3.037   4.441   2.611
15347TIP3    H267457   3.132   4.325   2.634
15348TIP3   OH267458   2.223   4.426   3.233
15348TIP3    H167459   2.226   4.466   3.320
15348TIP3    H267460   2.185   4.340   3.248
15349TIP3   OH267461   2.538   4.177   1.895
15349TIP3    H167462   2.498   4.164   1.981
15349TIP3    H267463   2.485   4.245   1.854
15350TIP3   OH267464   1.897   4.145   2.604
15350TIP3    H167465   1.968   4.148   2.668
15350TIP3    H267466   1.938   4.108   2.526
15351TIP3   OH267467   1.944   4.224   2.137
15351TIP3    H167468   2.011   4.266   2.083
15351TIP3    H267469   1.887   4.296   2.164
15352TIP3   OH267470   3.041   4.556   3.149
15352TIP3    H167471   3.076   4.497   3.083
15352TIP3    H267472   2.981   4.501   3.200
15353TIP3   OH267473   2.710   4.181   2.637
15353TIP3    H167474   2.627   4.169   2.683
15353TIP3    H267475   2.769   4.118   2.679
15354TIP3   OH267476   2.175   4.338   2.515
15354TIP3    H167477   2.105   4.392   2.479
15354TIP3    H267478   2.165   4.253   2.471
15355TIP3   OH267479   2.508   4.341   2.292
15355TIP3    H167480   2.601   4.350   2.313
15355TIP3    H267481   2.498   4.387   2.208
15356TIP3   OH267482   3.170   4.100   2.960
15356TIP3    H167483   3.121   4.104   3.042
15356TIP3    H267484   3.128   4.030   2.910
15357TIP3   OH267485   2.470   4.443   2.039
15357TIP3    H167486   2.412   4.431   1.963
15357TIP3    H267487   2.544   4.493   2.004
15358TIP3   OH267488   3.492   5.670   3.622
15358TIP3    H167489   3.519   5.709   3.539
15358TIP3    H267490   3.563   5.690   3.683
15359TIP3   OH267491   2.267   4.927   3.551
15359TIP3    H167492   2.328   4.928   3.625
15359TIP3    H267493   2.180   4.929   3.591
15360TIP3   OH267494   2.812   4.459   2.838
15360TIP3    H167495   2.883   4.404   2.804
15360TIP3    H267496   2.780   4.412   2.915
15361TIP3   OH267497   2.371   3.993   2.459
15361TIP3    H167498   2.291   3.947   2.484
15361TIP3    H267499   2.390   4.051   2.533
15362TIP3   OH267500   2.704   4.343   3.070
15362TIP3    H167501   2.624   4.395   3.080
15362TIP3    H267502   2.758   4.368   3.145
15363TIP3   OH267503   2.729   4.911   2.266
15363TIP3    H167504   2.655   4.872   2.221
15363TIP3    H267505   2.697   4.929   2.355
15364TIP3   OH267506   3.470   4.860   3.089
15364TIP3    H167507   3.532   4.914   3.040
15364TIP3    H267508   3.400   4.842   3.027
15365TIP3   OH267509   3.118   4.185   2.083
15365TIP3    H167510   3.024   4.182   2.065
15365TIP3    H267511   3.130   4.270   2.126
15366TIP3   OH267512   2.867   4.948   3.354
15366TIP3    H167513   2.897   4.902   3.433
15366TIP3    H267514   2.852   5.038   3.383
15367TIP3   OH267515   3.195   4.401   2.241
15367TIP3    H167516   3.282   4.382   2.277
15367TIP3    H267517   3.202   4.491   2.209
15368TIP3   OH267518   2.274   4.831   2.792
15368TIP3    H167519   2.337   4.824   2.721
15368TIP3    H267520   2.313   4.781   2.864
15369TIP3   OH267521   2.945   5.050   2.174
15369TIP3    H167522   2.920   5.142   2.181
15369TIP3    H267523   2.867   5.001   2.199
15370TIP3   OH267524   2.005   4.685   3.371
15370TIP3    H167525   2.031   4.672   3.462
15370TIP3    H267526   1.929   4.628   3.358
15371TIP3   OH267527   2.695   4.669   3.557
15371TIP3    H167528   2.628   4.620   3.511
15371TIP3    H267529   2.774   4.615   3.550
15372TIP3   OH267530   3.101   5.216   3.352
15372TIP3    H167531   3.006   5.225   3.346
15372TIP3    H267532   3.120   5.231   3.445
15373TIP3   OH267533   3.650   4.438   2.190
15373TIP3    H167534   3.609   4.416   2.107
15373TIP3    H267535   3.676   4.530   2.181
15374TIP3   OH267536   3.710   5.015   3.479
15374TIP3    H167537   3.620   5.025   3.450
15374TIP3    H267538   3.760   5.001   3.398
15375TIP3   OH267539   3.537   5.292   2.247
15375TIP3    H167540   3.483   5.217   2.273
15375TIP3    H267541   3.574   5.266   2.163
15376TIP3   OH267542   3.267   4.791   2.901
15376TIP3    H167543   3.173   4.780   2.914
15376TIP3    H267544   3.296   4.711   2.858
15377TIP3   OH267545   2.507   5.216   2.515
15377TIP3    H167546   2.528   5.307   2.491
15377TIP3    H267547   2.423   5.222   2.559
15378TIP3   OH267548   2.083   4.676   2.027
15378TIP3    H167549   2.132   4.740   2.078
15378TIP3    H267550   1.994   4.679   2.063
15379TIP3   OH267551   2.643   4.983   2.529
15379TIP3    H167552   2.592   5.064   2.518
15379TIP3    H267553   2.578   4.917   2.553
15380TIP3   OH267554   2.724   5.381   3.141
15380TIP3    H167555   2.778   5.458   3.128
15380TIP3    H267556   2.768   5.332   3.211
15381TIP3   OH267557   2.512   5.490   2.459
15381TIP3    H167558   2.422   5.500   2.488
15381TIP3    H267559   2.559   5.563   2.498
15382TIP3   OH267560   3.018   4.985   3.126
15382TIP3    H167561   2.959   4.971   3.200
15382TIP3    H267562   3.103   4.952   3.157
15383TIP3   OH267563   3.306   5.096   2.050
15383TIP3    H167564   3.322   5.055   2.135
15383TIP3    H267565   3.215   5.073   2.029
15384TIP3   OH267566   3.309   5.418   3.341
15384TIP3    H167567   3.228   5.369   3.323
15384TIP3    H267568   3.305   5.493   3.281
15385TIP3   OH267569   3.725   5.526   2.042
15385TIP3    H167570   3.790   5.595   2.024
15385TIP3    H267571   3.647   5.574   2.069
15386TIP3   OH267572   2.115   4.167   3.284
15386TIP3    H167573   2.024   4.194   3.277
15386TIP3    H267574   2.118   4.110   3.360
15387TIP3   OH267575   3.399   4.970   2.285
15387TIP3    H167576   3.357   4.890   2.318
15387TIP3    H267577   3.492   4.951   2.288
15388TIP3   OH267578   2.109   5.336   3.140
15388TIP3    H167579   2.131   5.260   3.195
15388TIP3    H267580   2.110   5.410   3.199
15389TIP3   OH267581   2.687   5.185   1.881
15389TIP3    H167582   2.687   5.098   1.841
15389TIP3    H267583   2.638   5.173   1.963
15390TIP3   OH267584   2.549   5.165   2.123
15390TIP3    H167585   2.595   5.114   2.190
15390TIP3    H267586   2.557   5.256   2.152
15391TIP3   OH267587   2.192   4.880   2.188
15391TIP3    H167588   2.123   4.926   2.237
15391TIP3    H267589   2.237   4.949   2.139
15392TIP3   OH267590   3.031   4.112   3.190
15392TIP3    H167591   3.087   4.150   3.257
15392TIP3    H267592   2.989   4.037   3.234
15393TIP3   OH267593   3.113   4.070   2.340
15393TIP3    H167594   3.123   4.112   2.254
15393TIP3    H267595   3.154   4.130   2.402
15394TIP3   OH267596   2.847   5.301   2.196
15394TIP3    H167597   2.758   5.334   2.212
15394TIP3    H267598   2.897   5.378   2.168
15395TIP3   OH267599   2.761   4.313   2.403
15395TIP3    H167600   2.839   4.368   2.413
15395TIP3    H267601   2.746   4.278   2.491
15396TIP3   OH267602   2.879   4.382   3.289
15396TIP3    H167603   2.882   4.417   3.378
15396TIP3    H267604   2.908   4.291   3.299
15397TIP3   OH267605   2.897   3.947   2.448
15397TIP3    H167606   2.902   3.966   2.542
15397TIP3    H267607   2.977   3.985   2.412
15398TIP3   OH267608   2.596   5.418   2.210
15398TIP3    H167609   2.605   5.499   2.159
15398TIP3    H267610   2.565   5.446   2.295
15399TIP3   OH267611   2.471   4.094   2.160
15399TIP3    H167612   2.440   4.170   2.210
15399TIP3    H267613   2.566   4.099   2.166
15400TIP3   OH267614   3.452   4.166   3.384
15400TIP3    H167615   3.360   4.191   3.376
15400TIP3    H267616   3.473   4.124   3.300
15401TIP3   OH267617   3.329   4.540   2.781
15401TIP3    H167618   3.243   4.500   2.777
15401TIP3    H267619   3.380   4.483   2.839
15402TIP3   OH267620   2.294   5.093   2.034
15402TIP3    H167621   2.367   5.140   2.075
15402TIP3    H267622   2.337   5.036   1.969
15403TIP3   OH267623   2.077   4.400   1.972
15403TIP3    H167624   2.094   4.489   2.002
15403TIP3    H267625   2.013   4.411   1.901
15404TIP3   OH267626   3.456   5.499   2.939
15404TIP3    H167627   3.448   5.567   2.872
15404TIP3    H267628   3.550   5.494   2.957
15405TIP3   OH267629   2.188   3.876   2.820
15405TIP3    H167630   2.174   3.860   2.727
15405TIP3    H267631   2.155   3.797   2.863
15406TIP3   OH267632   2.066   5.291   2.447
15406TIP3    H167633   2.013   5.320   2.521
15406TIP3    H267634   2.050   5.355   2.378
15407TIP3   OH267635   2.042   5.572   3.614
15407TIP3    H167636   2.106   5.559   3.684
15407TIP3    H267637   2.002   5.485   3.602
15408TIP3   OH267638   2.471   5.418   3.728
15408TIP3    H167639   2.542   5.373   3.773
15408TIP3    H267640   2.453   5.363   3.651
15409TIP3   OH267641   2.884   5.377   1.868
15409TIP3    H167642   2.819   5.308   1.881
15409TIP3    H267643   2.962   5.331   1.838
15410TIP3   OH267644   3.144   5.252   3.615
15410TIP3    H167645   3.104   5.183   3.668
15410TIP3    H267646   3.208   5.293   3.674
15411TIP3   OH267647   3.327   5.337   1.911
15411TIP3    H167648   3.337   5.259   1.965
15411TIP3    H267649   3.403   5.337   1.853
15412TIP3   OH267650   2.013   4.925   3.667
15412TIP3    H167651   1.983   4.846   3.711
15412TIP3    H267652   1.938   4.954   3.615
15413TIP3   OH267653   2.435   4.910   1.887
15413TIP3    H167654   2.459   4.865   1.968
15413TIP3    H267655   2.518   4.921   1.841
15414TIP3   OH267656   2.670   4.943   3.625
15414TIP3    H167657   2.644   4.984   3.542
15414TIP3    H267658   2.689   4.852   3.603
15415TIP3   OH267659   3.050   5.044   1.919
15415TIP3    H167660   3.003   5.042   2.002
15415TIP3    H267661   3.024   4.964   1.874
15416TIP3   OH267662   3.222   4.960   3.356
15416TIP3    H167663   3.314   4.983   3.352
15416TIP3    H267664   3.176   5.044   3.361
15417TIP3   OH267665   2.108   4.619   3.621
15417TIP3    H167666   2.171   4.547   3.632
15417TIP3    H267667   2.097   4.655   3.709
15418TIP3   OH267668   2.533   4.778   2.119
15418TIP3    H167669   2.479   4.734   2.184
15418TIP3    H267670   2.579   4.707   2.074
15419TIP3   OH267671   2.492   4.553   3.367
15419TIP3    H167672   2.422   4.618   3.367
15419TIP3    H267673   2.555   4.587   3.303
15420TIP3   OH267674   2.679   4.602   1.954
15420TIP3    H167675   2.677   4.629   1.862
15420TIP3    H267676   2.772   4.592   1.974
15421TIP3   OH267677   3.006   4.810   3.693
15421TIP3    H167678   3.097   4.782   3.695
15421TIP3    H267679   2.960   4.748   3.748
15422TIP3   OH267680   3.565   4.794   1.907
15422TIP3    H167681   3.570   4.771   1.814
15422TIP3    H267682   3.559   4.890   1.908
15423TIP3   OH267683   2.539   4.295   3.457
15423TIP3    H167684   2.550   4.235   3.383
15423TIP3    H267685   2.524   4.381   3.416
15424TIP3   OH267686   2.574   4.134   3.221
15424TIP3    H167687   2.625   4.188   3.160
15424TIP3    H267688   2.487   4.129   3.182
15425TIP3   OH267689   2.686   4.657   3.204
15425TIP3    H167690   2.775   4.665   3.239
15425TIP3    H267691   2.666   4.744   3.170
15426TIP3   OH267692   3.130   4.451   3.721
15426TIP3    H167693   3.135   4.369   3.771
15426TIP3    H267694   3.208   4.499   3.747
15427TIP3   OH267695   3.297   4.742   3.515
15427TIP3    H167696   3.260   4.818   3.470
15427TIP3    H267697   3.392   4.757   3.512
15428TIP3   OH267698   2.361   4.363   3.666
15428TIP3    H167699   2.287   4.303   3.662
15428TIP3    H267700   2.416   4.339   3.591
15429TIP3   OH267701   2.632   3.865   3.279
15429TIP3    H167702   2.611   3.957   3.264
15429TIP3    H267703   2.560   3.816   3.241
15430TIP3   OH267704   2.762   4.263   3.625
15430TIP3    H167705   2.730   4.234   3.711
15430TIP3    H267706   2.683   4.265   3.571
15431TIP3   OH267707   3.013   4.187   3.523
15431TIP3    H167708   2.930   4.198   3.569
15431TIP3    H267709   3.071   4.146   3.587
15432TIP3   OH267710   3.212   4.081   3.697
15432TIP3    H167711   3.201   3.986   3.708
15432TIP3    H267712   3.179   4.118   3.779
15433TIP3   OH267713   2.171   4.158   3.646
15433TIP3    H167714   2.170   4.075   3.598
15433TIP3    H267715   2.180   4.131   3.738
15434TIP3   OH267716   2.629   3.790   3.546
15434TIP3    H167717   2.688   3.715   3.543
15434TIP3    H267718   2.623   3.819   3.455
15435TIP3   OH267719   2.699   3.959   3.753
15435TIP3    H167720   2.676   3.904   3.678
15435TIP3    H267721   2.634   4.029   3.751
15436TIP3   OH267722   2.660   5.642   2.067
15436TIP3    H167723   2.754   5.628   2.075
15436TIP3    H267724   2.652   5.715   2.005
15437TIP3   OH267725   2.028   5.137   1.986
15437TIP3    H167726   2.120   5.132   2.012
15437TIP3    H267727   2.014   5.060   1.930
15438TIP3   OH267728   1.899   5.620   2.540
15438TIP3    H167729   1.840   5.590   2.471
15438TIP3    H267730   1.914   5.543   2.594
15439TIP3   OH267731   1.969   5.399   2.694
15439TIP3    H167732   1.930   5.329   2.747
15439TIP3    H267733   2.020   5.450   2.757
15440TIP3   OH267734   3.722   5.498   3.020
15440TIP3    H167735   3.712   5.493   3.115
15440TIP3    H267736   3.787   5.567   3.006
15441TIP3   OH267737   3.668   5.466   3.292
15441TIP3    H167738   3.611   5.396   3.261
15441TIP3    H267739   3.714   5.429   3.367
15442TIP3   OH267740   3.515   5.059   3.768
15442TIP3    H167741   3.432   5.069   3.814
15442TIP3    H267742   3.570   5.130   3.802
15443TIP3   OH267743   3.665   4.893   2.309
15443TIP3    H167744   3.739   4.954   2.309
15443TIP3    H267745   3.684   4.832   2.380
15444TIP3   OH267746   3.717   4.693   2.494
15444TIP3    H167747   3.634   4.660   2.528
15444TIP3    H267748   3.771   4.705   2.572
15445TIP3   OH267749   3.695   4.991   3.000
15445TIP3    H167750   3.751   4.924   2.962
15445TIP3    H267751   3.728   5.073   2.962
15446TIP3   OH267752   3.497   5.267   3.201
15446TIP3    H167753   3.425   5.310   3.247
15446TIP3    H267754   3.462   5.250   3.113
15447TIP3   OH267755   3.710   4.698   2.119
15447TIP3    H167756   3.659   4.726   2.043
15447TIP3    H267757   3.693   4.764   2.186
15448TIP3   OH267758   3.545   4.396   1.939
15448TIP3    H167759   3.524   4.453   1.865
15448TIP3    H267760   3.530   4.308   1.906
15449TIP3   OH267761   3.461   4.573   2.540
15449TIP3    H167762   3.463   4.482   2.509
15449TIP3    H267763   3.421   4.568   2.627
15450TIP3   OH267764   1.962   4.767   2.960
15450TIP3    H167765   1.975   4.750   2.866
15450TIP3    H267766   2.044   4.738   3.000
15451TIP3   OH267767   3.573   4.761   3.517
15451TIP3    H167768   3.626   4.683   3.500
15451TIP3    H267769   3.629   4.834   3.493
15452TIP3   OH267770   3.697   4.517   3.491
15452TIP3    H167771   3.610   4.482   3.512
15452TIP3    H267772   3.758   4.447   3.517
15453TIP3   OH267773   3.483   4.146   1.832
15453TIP3    H167774   3.522   4.101   1.907
15453TIP3    H267775   3.390   4.121   1.835
15454TIP3   OH267776   3.451   4.326   2.360
15454TIP3    H167777   3.480   4.235   2.365
15454TIP3    H267778   3.520   4.370   2.310
15455TIP3   OH267779   3.484   4.361   2.929
15455TIP3    H167780   3.577   4.372   2.911
15455TIP3    H267781   3.476   4.377   3.023
15456TIP3   OH267782   3.505   4.439   3.196
15456TIP3    H167783   3.429   4.468   3.247
15456TIP3    H267784   3.559   4.518   3.187
15457TIP3   OH267785   1.950   4.281   3.532
15457TIP3    H167786   2.030   4.262   3.582
15457TIP3    H267787   1.894   4.205   3.546
15458TIP3   OH267788   3.743   3.866   3.723
15458TIP3    H167789   3.807   3.803   3.690
15458TIP3    H267790   3.740   3.935   3.657
15459TIP3   OH267791   3.512   4.055   2.380
15459TIP3    H167792   3.535   4.019   2.466
15459TIP3    H267793   3.448   3.995   2.345
15460TIP3   OH267794   2.108   4.136   2.780
15460TIP3    H167795   2.124   4.046   2.810
15460TIP3    H267796   2.134   4.190   2.855
15461TIP3   OH267797   1.863   4.392   2.931
15461TIP3    H167798   1.935   4.416   2.871
15461TIP3    H267799   1.870   4.455   3.003
15462TIP3   OH267800   3.675   4.056   3.540
15462TIP3    H167801   3.603   4.095   3.589
15462TIP3    H267802   3.634   4.018   3.462
15463TIP3   OH267803   3.644   4.038   2.030
15463TIP3    H167804   3.695   3.979   1.975
15463TIP3    H267805   3.709   4.097   2.068
15464TIP3   OH267806   1.921   4.039   2.337
15464TIP3    H167807   1.826   4.033   2.348
15464TIP3    H267808   1.932   4.109   2.272
15465TIP3   OH267809   3.379   5.544   2.542
15465TIP3    H167810   3.458   5.543   2.488
15465TIP3    H267811   3.403   5.597   2.619
15466TIP3   OH267812   1.906   3.890   3.159
15466TIP3    H167813   1.845   3.879   3.231
15466TIP3    H267814   1.874   3.966   3.111
15467TIP3   OH267815   2.129   5.250   3.583
15467TIP3    H167816   2.041   5.270   3.552
15467TIP3    H267817   2.118   5.228   3.676
15468TIP3   OH267818   2.456   5.355   3.210
15468TIP3    H167819   2.424   5.444   3.194
15468TIP3    H267820   2.551   5.362   3.199
15469TIP3   OH267821   2.844   5.475   3.507
15469TIP3    H167822   2.852   5.441   3.596
15469TIP3    H267823   2.924   5.526   3.493
15470TIP3   OH267824   3.080   5.615   3.472
15470TIP3    H167825   3.149   5.553   3.446
15470TIP3    H267826   3.114   5.655   3.552
15471TIP3   OH267827   3.580   3.850   3.351
15471TIP3    H167828   3.505   3.867   3.294
15471TIP3    H267829   3.601   3.758   3.335
15472TIP3   OH267830   2.149   5.658   3.240
15472TIP3    H167831   2.068   5.694   3.203
15472TIP3    H267832   2.157   5.699   3.326
15473TIP3   OH267833   2.406   5.620   3.153
15473TIP3    H167834   2.317   5.634   3.185
15473TIP3    H267835   2.412   5.674   3.074
15474TIP3   OH267836   2.864   5.609   3.065
15474TIP3    H167837   2.810   5.652   2.999
15474TIP3    H267838   2.875   5.675   3.134
15475TIP3   OH267839   3.097   5.479   3.132
15475TIP3    H167840   3.016   5.527   3.115
15475TIP3    H267841   3.165   5.546   3.137
15476TIP3   OH267842   3.334   5.627   3.153
15476TIP3    H167843   3.355   5.720   3.140
15476TIP3    H267844   3.376   5.583   3.080
15477TIP3   OH267845   2.132   5.508   2.896
15477TIP3    H167846   2.106   5.472   2.981
15477TIP3    H267847   2.210   5.460   2.872
15478TIP3   OH267848   2.347   5.363   2.799
15478TIP3    H167849   2.343   5.273   2.830
15478TIP3    H267850   2.431   5.396   2.831
15479TIP3   OH267851   2.607   5.414   2.890
15479TIP3    H167852   2.640   5.334   2.850
15479TIP3    H267853   2.634   5.409   2.982
15480TIP3   OH267854   2.869   3.966   2.721
15480TIP3    H167855   2.816   3.908   2.776
15480TIP3    H267856   2.959   3.937   2.737
15481TIP3   OH267857   3.426   3.829   2.779
15481TIP3    H167858   3.493   3.879   2.733
15481TIP3    H267859   3.358   3.893   2.800
15482TIP3   OH267860   3.608   3.938   2.610
15482TIP3    H167861   3.671   3.869   2.588
15482TIP3    H267862   3.662   4.015   2.627
15483TIP3   OH267863   2.156   3.840   2.545
15483TIP3    H167864   2.062   3.829   2.531
15483TIP3    H267865   2.191   3.751   2.540
15484TIP3   OH267866   2.044   3.861   2.151
15484TIP3    H167867   2.099   3.921   2.101
15484TIP3    H267868   2.007   3.915   2.221
15485TIP3   OH267869   2.641   3.858   2.533
15485TIP3    H167870   2.734   3.879   2.523
15485TIP3    H267871   2.627   3.856   2.628
15486TIP3   OH267872   3.130   3.874   2.722
15486TIP3    H167873   3.190   3.857   2.650
15486TIP3    H267874   3.109   3.787   2.757
15487TIP3   OH267875   3.310   3.882   2.290
15487TIP3    H167876   3.236   3.941   2.305
15487TIP3    H267877   3.276   3.795   2.308
15488TIP3   OH267878   2.032   5.468   2.241
15488TIP3    H167879   1.952   5.458   2.189
15488TIP3    H267880   2.055   5.560   2.233
15489TIP3   OH267881   2.248   4.011   1.992
15489TIP3    H167882   2.291   3.950   1.933
15489TIP3    H267883   2.316   4.035   2.056
15490TIP3   OH267884   2.721   4.075   2.279
15490TIP3    H167885   2.788   4.024   2.326
15490TIP3    H267886   2.728   4.163   2.316
15491TIP3   OH267887   2.922   5.547   2.083
15491TIP3    H167888   3.006   5.589   2.068
15491TIP3    H267889   2.905   5.496   2.003
15492TIP3   OH267890   3.592   5.535   2.361
15492TIP3    H167891   3.577   5.446   2.329
15492TIP3    H267892   3.575   5.591   2.285
15493TIP3   OH267893   2.163   3.912   3.500
15493TIP3    H167894   2.102   3.844   3.531
15493TIP3    H267895   2.244   3.895   3.549
15494TIP3   OH267896   2.365   3.843   3.676
15494TIP3    H167897   2.452   3.812   3.650
15494TIP3    H267898   2.326   3.769   3.723
15495TIP3   OH267899   2.210   5.525   1.923
15495TIP3    H167900   2.188   5.521   2.016
15495TIP3    H267901   2.290   5.472   1.915
15496TIP3   OH267902   3.222   3.802   3.697
15496TIP3    H167903   3.208   3.754   3.779
15496TIP3    H267904   3.316   3.792   3.680
15497TIP3   OH267905   3.495   5.401   3.557
15497TIP3    H167906   3.426   5.394   3.492
15497TIP3    H267907   3.488   5.490   3.591
15498TIP3   OH267908   4.966   4.821   2.538
15498TIP3    H167909   4.959   4.914   2.515
15498TIP3    H267910   4.894   4.779   2.490
15499TIP3   OH267911   4.812   4.711   2.930
15499TIP3    H167912   4.840   4.673   3.013
15499TIP3    H267913   4.772   4.639   2.882
15500TIP3   OH267914   4.057   4.654   3.074
15500TIP3    H167915   4.064   4.577   3.130
15500TIP3    H267916   4.141   4.699   3.084
15501TIP3   OH267917   5.181   5.045   2.690
15501TIP3    H167918   5.117   4.979   2.718
15501TIP3    H267919   5.262   5.018   2.732
15502TIP3   OH267920   4.203   5.116   2.853
15502TIP3    H167921   4.169   5.028   2.841
15502TIP3    H267922   4.295   5.104   2.877
15503TIP3   OH267923   3.851   4.460   2.398
15503TIP3    H167924   3.821   4.543   2.436
15503TIP3    H267925   3.782   4.437   2.336
15504TIP3   OH267926   3.913   4.705   2.695
15504TIP3    H167927   3.941   4.616   2.716
15504TIP3    H267928   3.991   4.759   2.711
15505TIP3   OH267929   4.954   5.486   2.805
15505TIP3    H167930   4.990   5.433   2.734
15505TIP3    H267931   4.932   5.423   2.874
15506TIP3   OH267932   4.688   4.965   2.949
15506TIP3    H167933   4.723   4.881   2.920
15506TIP3    H267934   4.758   5.003   3.002
15507TIP3   OH267935   5.569   4.108   3.040
15507TIP3    H167936   5.572   4.182   3.100
15507TIP3    H267937   5.630   4.132   2.970
15508TIP3   OH267938   4.996   4.386   2.956
15508TIP3    H167939   5.020   4.295   2.974
15508TIP3    H267940   4.978   4.389   2.862
15509TIP3   OH267941   4.348   4.193   2.687
15509TIP3    H167942   4.355   4.278   2.644
15509TIP3    H267943   4.292   4.141   2.628
15510TIP3   OH267944   5.124   4.226   2.530
15510TIP3    H167945   5.165   4.196   2.611
15510TIP3    H267946   5.195   4.266   2.480
15511TIP3   OH267947   3.987   4.448   2.766
15511TIP3    H167948   4.051   4.409   2.825
15511TIP3    H267949   4.008   4.412   2.680
15512TIP3   OH267950   4.473   4.592   2.728
15512TIP3    H167951   4.556   4.554   2.757
15512TIP3    H267952   4.435   4.526   2.671
15513TIP3   OH267953   5.559   4.258   3.288
15513TIP3    H167954   5.504   4.331   3.259
15513TIP3    H267955   5.614   4.296   3.357
15514TIP3   OH267956   4.210   4.110   3.106
15514TIP3    H167957   4.185   4.171   3.037
15514TIP3    H267958   4.140   4.117   3.171
15515TIP3   OH267959   4.940   5.069   2.412
15515TIP3    H167960   4.912   5.063   2.321
15515TIP3    H267961   4.890   5.143   2.448
15516TIP3   OH267962   4.469   4.883   3.094
15516TIP3    H167963   4.417   4.954   3.132
15516TIP3    H267964   4.541   4.926   3.049
15517TIP3   OH267965   5.228   4.172   2.778
15517TIP3    H167966   5.164   4.146   2.844
15517TIP3    H267967   5.288   4.230   2.825
15518TIP3   OH267968   4.179   4.282   2.890
15518TIP3    H167969   4.233   4.340   2.943
15518TIP3    H267970   4.239   4.245   2.825
15519TIP3   OH267971   4.316   5.088   3.200
15519TIP3    H167972   4.325   5.183   3.192
15519TIP3    H267973   4.226   5.075   3.229
15520TIP3   OH267974   3.887   5.063   2.281
15520TIP3    H167975   3.884   5.110   2.197
15520TIP3    H267976   3.912   5.130   2.345
15521TIP3   OH267977   5.234   5.272   3.025
15521TIP3    H167978   5.157   5.243   2.976
15521TIP3    H267979   5.264   5.350   2.978
15522TIP3   OH267980   5.321   3.992   3.111
15522TIP3    H167981   5.252   4.046   3.073
15522TIP3    H267982   5.402   4.028   3.076
15523TIP3   OH267983   4.564   3.800   2.856
15523TIP3    H167984   4.538   3.708   2.859
15523TIP3    H267985   4.487   3.848   2.886
15524TIP3   OH267986   5.075   5.372   2.581
15524TIP3    H167987   5.117   5.288   2.563
15524TIP3    H267988   5.146   5.436   2.582
15525TIP3   OH267989   5.207   5.160   2.447
15525TIP3    H167990   5.126   5.120   2.416
15525TIP3    H267991   5.225   5.118   2.531
15526TIP3   OH267992   5.382   5.003   3.320
15526TIP3    H167993   5.368   4.949   3.242
15526TIP3    H267994   5.391   5.092   3.286
15527TIP3   OH267995   4.818   4.713   2.320
15527TIP3    H167996   4.752   4.776   2.291
15527TIP3    H267997   4.888   4.721   2.255
15528TIP3   OH267998   4.843   4.594   1.974
15528TIP3    H167999   4.896   4.618   2.050
15528TIP3    H268000   4.895   4.527   1.930
15529TIP3   OH268001   5.543   4.676   3.164
15529TIP3    H168002   5.469   4.736   3.149
15529TIP3    H268003   5.599   4.688   3.087
15530TIP3   OH268004   5.177   4.735   2.386
15530TIP3    H168005   5.114   4.765   2.451
15530TIP3    H268006   5.243   4.687   2.436
15531TIP3   OH268007   5.136   4.553   3.304
15531TIP3    H168008   5.138   4.623   3.370
15531TIP3    H268009   5.068   4.580   3.243
15532TIP3   OH268010   4.337   4.789   2.583
15532TIP3    H168011   4.314   4.748   2.499
15532TIP3    H268012   4.392   4.723   2.627
15533TIP3   OH268013   4.488   5.139   2.846
15533TIP3    H168014   4.498   5.142   2.751
15533TIP3    H268015   4.561   5.084   2.876
15534TIP3   OH268016   4.335   4.693   2.949
15534TIP3    H168017   4.392   4.668   2.876
15534TIP3    H268018   4.387   4.757   2.998
15535TIP3   OH268019   4.944   5.260   2.996
15535TIP3    H168020   4.964   5.318   3.069
15535TIP3    H268021   4.930   5.174   3.036
15536TIP3   OH268022   4.476   5.111   3.428
15536TIP3    H168023   4.415   5.169   3.473
15536TIP3    H268024   4.429   5.084   3.349
15537TIP3   OH268025   5.046   4.670   2.155
15537TIP3    H168026   5.097   4.702   2.229
15537TIP3    H268027   5.100   4.689   2.078
15538TIP3   OH268028   4.157   4.714   3.375
15538TIP3    H168029   4.166   4.792   3.429
15538TIP3    H268030   4.064   4.710   3.352
15539TIP3   OH268031   4.825   5.312   2.484
15539TIP3    H168032   4.904   5.336   2.532
15539TIP3    H268033   4.792   5.395   2.448
15540TIP3   OH268034   4.275   5.287   3.498
15540TIP3    H168035   4.273   5.321   3.409
15540TIP3    H268036   4.183   5.279   3.523
15541TIP3   OH268037   5.414   3.816   2.143
15541TIP3    H168038   5.330   3.841   2.182
15541TIP3    H268039   5.453   3.899   2.114
15542TIP3   OH268040   4.250   4.699   2.325
15542TIP3    H168041   4.188   4.763   2.289
15542TIP3    H268042   4.200   4.617   2.326
15543TIP3   OH268043   5.553   5.254   1.994
15543TIP3    H168044   5.564   5.348   2.010
15543TIP3    H268045   5.642   5.219   1.994
15544TIP3   OH268046   3.837   4.948   3.246
15544TIP3    H168047   3.786   4.952   3.166
15544TIP3    H268048   3.852   4.855   3.262
15545TIP3   OH268049   3.815   5.240   2.926
15545TIP3    H168050   3.899   5.236   2.970
15545TIP3    H268051   3.771   5.316   2.965
15546TIP3   OH268052   5.639   5.312   3.522
15546TIP3    H168053   5.628   5.218   3.510
15546TIP3    H268054   5.553   5.343   3.552
15547TIP3   OH268055   4.714   5.239   3.374
15547TIP3    H168056   4.713   5.322   3.421
15547TIP3    H268057   4.630   5.198   3.397
15548TIP3   OH268058   4.799   5.577   2.359
15548TIP3    H168059   4.778   5.588   2.267
15548TIP3    H268060   4.771   5.659   2.400
15549TIP3   OH268061   4.140   5.477   2.553
15549TIP3    H168062   4.163   5.446   2.641
15549TIP3    H268063   4.088   5.406   2.515
15550TIP3   OH268064   5.085   5.545   2.040
15550TIP3    H168065   5.134   5.471   2.003
15550TIP3    H268066   5.094   5.535   2.134
15551TIP3   OH268067   5.067   5.527   2.315
15551TIP3    H168068   4.975   5.535   2.339
15551TIP3    H268069   5.105   5.472   2.384
15552TIP3   OH268070   5.328   4.424   3.559
15552TIP3    H168071   5.274   4.502   3.553
15552TIP3    H268072   5.279   4.357   3.511
15553TIP3   OH268073   4.062   5.096   3.308
15553TIP3    H168074   4.086   5.064   3.395
15553TIP3    H268075   3.983   5.047   3.286
15554TIP3   OH268076   4.319   3.912   2.941
15554TIP3    H168077   4.242   3.904   2.885
15554TIP3    H268078   4.298   3.984   3.001
15555TIP3   OH268079   4.793   3.875   3.283
15555TIP3    H168080   4.839   3.828   3.353
15555TIP3    H268081   4.701   3.868   3.306
15556TIP3   OH268082   5.123   4.297   3.407
15556TIP3    H168083   5.034   4.282   3.437
15556TIP3    H268084   5.118   4.380   3.359
15557TIP3   OH268085   5.189   4.688   1.918
15557TIP3    H168086   5.178   4.713   1.826
15557TIP3    H268087   5.276   4.720   1.941
15558TIP3   OH268088   4.742   4.131   2.011
15558TIP3    H168089   4.691   4.123   2.092
15558TIP3    H268090   4.708   4.062   1.954
15559TIP3   OH268091   4.329   4.439   3.059
15559TIP3    H168092   4.265   4.440   3.131
15559TIP3    H268093   4.330   4.529   3.027
15560TIP3   OH268094   4.332   4.431   2.551
15560TIP3    H168095   4.237   4.420   2.549
15560TIP3    H268096   4.359   4.412   2.461
15561TIP3   OH268097   4.872   4.464   2.425
15561TIP3    H168098   4.850   4.552   2.396
15561TIP3    H268099   4.945   4.437   2.369
15562TIP3   OH268100   4.797   4.484   3.548
15562TIP3    H168101   4.745   4.415   3.588
15562TIP3    H268102   4.879   4.483   3.597
15563TIP3   OH268103   4.953   4.392   2.686
15563TIP3    H168104   4.917   4.444   2.614
15563TIP3    H268105   5.008   4.326   2.643
15564TIP3   OH268106   4.115   4.431   3.235
15564TIP3    H168107   4.130   4.470   3.321
15564TIP3    H268108   4.075   4.346   3.254
15565TIP3   OH268109   4.426   4.171   1.903
15565TIP3    H168110   4.396   4.157   1.993
15565TIP3    H268111   4.369   4.241   1.870
15566TIP3   OH268112   3.787   4.138   2.625
15566TIP3    H168113   3.834   4.150   2.708
15566TIP3    H268114   3.856   4.130   2.559
15567TIP3   OH268115   3.823   4.225   2.137
15567TIP3    H168116   3.893   4.265   2.086
15567TIP3    H268117   3.767   4.298   2.163
15568TIP3   OH268118   4.898   4.558   3.145
15568TIP3    H168119   4.941   4.503   3.079
15568TIP3    H268120   4.843   4.498   3.195
15569TIP3   OH268121   4.630   4.149   2.634
15569TIP3    H168122   4.542   4.156   2.671
15569TIP3    H268123   4.684   4.118   2.707
15570TIP3   OH268124   4.071   4.347   2.524
15570TIP3    H168125   3.997   4.374   2.470
15570TIP3    H268126   4.090   4.258   2.496
15571TIP3   OH268127   4.393   4.355   2.294
15571TIP3    H168128   4.488   4.351   2.311
15571TIP3    H268129   4.386   4.397   2.208
15572TIP3   OH268130   5.034   4.108   2.968
15572TIP3    H168131   5.001   4.106   3.058
15572TIP3    H268132   4.965   4.069   2.916
15573TIP3   OH268133   4.354   4.450   2.038
15573TIP3    H168134   4.300   4.430   1.962
15573TIP3    H268135   4.429   4.497   2.003
15574TIP3   OH268136   5.378   5.675   3.624
15574TIP3    H168137   5.405   5.707   3.538
15574TIP3    H268138   5.451   5.697   3.682
15575TIP3   OH268139   4.141   4.937   3.546
15575TIP3    H168140   4.207   4.932   3.615
15575TIP3    H268141   4.058   4.945   3.593
15576TIP3   OH268142   4.699   4.466   2.833
15576TIP3    H168143   4.775   4.420   2.796
15576TIP3    H268144   4.672   4.412   2.907
15577TIP3   OH268145   4.174   4.083   2.490
15577TIP3    H168146   4.124   4.005   2.514
15577TIP3    H268147   4.225   4.056   2.414
15578TIP3   OH268148   4.590   4.339   3.064
15578TIP3    H168149   4.507   4.385   3.069
15578TIP3    H268150   4.639   4.368   3.141
15579TIP3   OH268151   4.628   4.901   2.237
15579TIP3    H168152   4.555   4.866   2.186
15579TIP3    H268153   4.588   4.930   2.320
15580TIP3   OH268154   5.330   4.839   3.107
15580TIP3    H168155   5.365   4.873   3.025
15580TIP3    H268156   5.243   4.805   3.083
15581TIP3   OH268157   5.001   4.179   2.092
15581TIP3    H168158   4.909   4.180   2.067
15581TIP3    H268159   5.016   4.264   2.134
15582TIP3   OH268160   4.789   4.953   3.366
15582TIP3    H168161   4.813   4.920   3.453
15582TIP3    H268162   4.760   5.043   3.382
15583TIP3   OH268163   5.079   4.401   2.241
15583TIP3    H168164   5.165   4.383   2.278
15583TIP3    H268165   5.085   4.492   2.211
15584TIP3   OH268166   4.151   4.833   2.785
15584TIP3    H168167   4.212   4.831   2.711
15584TIP3    H268168   4.194   4.781   2.853
15585TIP3   OH268169   4.834   5.058   2.152
15585TIP3    H168170   4.800   5.147   2.161
15585TIP3    H268171   4.762   5.001   2.180
15586TIP3   OH268172   3.879   4.694   3.357
15586TIP3    H168173   3.882   4.671   3.450
15586TIP3    H268174   3.807   4.641   3.322
15587TIP3   OH268175   4.581   4.668   3.563
15587TIP3    H168176   4.517   4.628   3.503
15587TIP3    H268177   4.662   4.621   3.545
15588TIP3   OH268178   4.997   5.215   3.374
15588TIP3    H168179   4.905   5.224   3.351
15588TIP3    H268180   5.001   5.235   3.467
15589TIP3   OH268181   5.536   4.437   2.194
15589TIP3    H168182   5.497   4.415   2.109
15589TIP3    H268183   5.561   4.529   2.185
15590TIP3   OH268184   5.604   5.036   3.481
15590TIP3    H168185   5.513   5.036   3.452
15590TIP3    H268186   5.654   5.010   3.403
15591TIP3   OH268187   5.395   5.284   2.277
15591TIP3    H168188   5.335   5.236   2.335
15591TIP3    H268189   5.415   5.222   2.207
15592TIP3   OH268190   5.104   4.748   2.974
15592TIP3    H168191   5.016   4.745   2.937
15592TIP3    H268192   5.161   4.722   2.901
15593TIP3   OH268193   4.416   5.220   2.577
15593TIP3    H168194   4.436   5.306   2.539
15593TIP3    H268195   4.327   5.229   2.611
15594TIP3   OH268196   3.970   4.674   2.030
15594TIP3    H168197   4.020   4.738   2.082
15594TIP3    H268198   3.882   4.679   2.066
15595TIP3   OH268199   4.487   4.985   2.452
15595TIP3    H168200   4.474   5.069   2.496
15595TIP3    H268201   4.438   4.923   2.505
15596TIP3   OH268202   4.606   5.388   3.154
15596TIP3    H168203   4.666   5.458   3.132
15596TIP3    H268204   4.656   5.329   3.211
15597TIP3   OH268205   4.403   5.484   2.467
15597TIP3    H168206   4.310   5.495   2.491
15597TIP3    H268207   4.446   5.562   2.502
15598TIP3   OH268208   4.907   5.003   3.117
15598TIP3    H168209   4.872   4.981   3.204
15598TIP3    H268210   4.984   4.947   3.108
15599TIP3   OH268211   5.179   5.099   2.040
15599TIP3    H168212   5.213   5.045   2.112
15599TIP3    H268213   5.086   5.078   2.036
15600TIP3   OH268214   5.192   5.428   3.363
15600TIP3    H168215   5.121   5.370   3.337
15600TIP3    H268216   5.196   5.494   3.294
15601TIP3   OH268217   5.598   5.530   2.031
15601TIP3    H168218   5.617   5.589   1.958
15601TIP3    H268219   5.523   5.569   2.075
15602TIP3   OH268220   4.003   4.172   3.282
15602TIP3    H168221   3.911   4.197   3.271
15602TIP3    H268222   4.003   4.111   3.355
15603TIP3   OH268223   5.289   4.933   2.226
15603TIP3    H168224   5.245   4.875   2.289
15603TIP3    H268225   5.381   4.930   2.251
15604TIP3   OH268226   3.999   5.354   3.142
15604TIP3    H168227   4.024   5.275   3.190
15604TIP3    H268228   4.008   5.425   3.206
15605TIP3   OH268229   4.557   5.194   1.887
15605TIP3    H168230   4.565   5.109   1.845
15605TIP3    H268231   4.519   5.176   1.973
15606TIP3   OH268232   4.432   5.165   2.135
15606TIP3    H168233   4.471   5.114   2.206
15606TIP3    H268234   4.442   5.256   2.162
15607TIP3   OH268235   4.077   4.876   2.193
15607TIP3    H168236   4.009   4.924   2.240
15607TIP3    H268237   4.126   4.943   2.146
15608TIP3   OH268238   4.928   4.104   3.221
15608TIP3    H168239   4.939   4.137   3.310
15608TIP3    H268240   4.876   4.025   3.231
15609TIP3   OH268241   4.982   4.064   2.352
15609TIP3    H168242   4.992   4.106   2.267
15609TIP3    H268243   5.025   4.124   2.413
15610TIP3   OH268244   4.727   5.304   2.173
15610TIP3    H168245   4.640   5.337   2.198
15610TIP3    H268246   4.779   5.383   2.159
15611TIP3   OH268247   4.649   4.304   2.403
15611TIP3    H168248   4.724   4.362   2.410
15611TIP3    H268249   4.642   4.262   2.489
15612TIP3   OH268250   4.753   4.378   3.292
15612TIP3    H168251   4.761   4.421   3.377
15612TIP3    H268252   4.784   4.288   3.307
15613TIP3   OH268253   4.743   3.963   2.455
15613TIP3    H168254   4.717   4.030   2.518
15613TIP3    H268255   4.830   3.991   2.424
15614TIP3   OH268256   4.480   5.423   2.212
15614TIP3    H168257   4.488   5.507   2.167
15614TIP3    H268258   4.453   5.445   2.301
15615TIP3   OH268259   4.335   4.113   2.160
15615TIP3    H168260   4.328   4.196   2.208
15615TIP3    H268261   4.420   4.078   2.186
15616TIP3   OH268262   5.326   4.121   3.422
15616TIP3    H168263   5.250   4.177   3.405
15616TIP3    H268264   5.387   4.139   3.351
15617TIP3   OH268265   5.217   4.528   2.774
15617TIP3    H168266   5.127   4.496   2.783
15617TIP3    H268267   5.267   4.477   2.838
15618TIP3   OH268268   4.183   5.088   2.040
15618TIP3    H168269   4.256   5.132   2.082
15618TIP3    H268270   4.223   5.033   1.972
15619TIP3   OH268271   3.963   4.399   1.977
15619TIP3    H168272   3.988   4.485   2.011
15619TIP3    H268273   3.914   4.418   1.897
15620TIP3   OH268274   5.345   5.516   2.950
15620TIP3    H168275   5.334   5.582   2.882
15620TIP3    H268276   5.440   5.512   2.964
15621TIP3   OH268277   4.068   3.888   2.823
15621TIP3    H168278   4.058   3.876   2.728
15621TIP3    H268279   4.037   3.805   2.860
15622TIP3   OH268280   3.948   5.294   2.440
15622TIP3    H168281   3.896   5.325   2.514
15622TIP3    H268282   3.935   5.359   2.372
15623TIP3   OH268283   3.920   5.575   3.611
15623TIP3    H168284   3.984   5.556   3.680
15623TIP3    H268285   3.888   5.489   3.584
15624TIP3   OH268286   4.341   5.403   3.742
15624TIP3    H168287   4.422   5.363   3.774
15624TIP3    H268288   4.326   5.363   3.656
15625TIP3   OH268289   4.765   5.378   1.867
15625TIP3    H168290   4.699   5.311   1.884
15625TIP3    H268291   4.842   5.329   1.838
15626TIP3   OH268292   4.996   5.268   3.642
15626TIP3    H168293   4.975   5.187   3.688
15626TIP3    H268294   5.072   5.303   3.688
15627TIP3   OH268295   5.214   5.340   1.911
15627TIP3    H168296   5.217   5.260   1.964
15627TIP3    H268297   5.293   5.334   1.856
15628TIP3   OH268298   3.893   4.937   3.674
15628TIP3    H168299   3.894   4.842   3.670
15628TIP3    H268300   3.819   4.963   3.619
15629TIP3   OH268301   4.316   4.909   1.881
15629TIP3    H168302   4.340   4.862   1.961
15629TIP3    H268303   4.400   4.925   1.837
15630TIP3   OH268304   4.554   4.943   3.633
15630TIP3    H168305   4.537   4.989   3.551
15630TIP3    H268306   4.578   4.854   3.607
15631TIP3   OH268307   4.910   5.054   1.890
15631TIP3    H168308   4.875   5.050   1.979
15631TIP3    H268309   4.893   4.967   1.854
15632TIP3   OH268310   5.115   4.958   3.389
15632TIP3    H168311   5.206   4.980   3.369
15632TIP3    H268312   5.067   5.040   3.378
15633TIP3   OH268313   3.965   4.662   3.637
15633TIP3    H168314   4.050   4.625   3.614
15633TIP3    H268315   3.964   4.663   3.732
15634TIP3   OH268316   4.414   4.778   2.107
15634TIP3    H168317   4.368   4.739   2.181
15634TIP3    H268318   4.461   4.705   2.066
15635TIP3   OH268319   4.384   4.551   3.369
15635TIP3    H168320   4.311   4.614   3.369
15635TIP3    H268321   4.447   4.589   3.308
15636TIP3   OH268322   4.565   4.602   1.950
15636TIP3    H168323   4.565   4.631   1.859
15636TIP3    H268324   4.658   4.593   1.972
15637TIP3   OH268325   4.880   4.804   3.673
15637TIP3    H168326   4.954   4.758   3.634
15637TIP3    H268327   4.846   4.743   3.739
15638TIP3   OH268328   5.447   4.793   1.906
15638TIP3    H168329   5.455   4.772   1.813
15638TIP3    H268330   5.438   4.888   1.908
15639TIP3   OH268331   4.422   4.292   3.450
15639TIP3    H168332   4.433   4.235   3.374
15639TIP3    H268333   4.411   4.380   3.412
15640TIP3   OH268334   4.461   4.133   3.217
15640TIP3    H168335   4.512   4.184   3.155
15640TIP3    H268336   4.373   4.128   3.178
15641TIP3   OH268337   4.581   4.665   3.221
15641TIP3    H168338   4.675   4.683   3.231
15641TIP3    H268339   4.546   4.744   3.180
15642TIP3   OH268340   5.021   4.461   3.721
15642TIP3    H168341   5.030   4.381   3.773
15642TIP3    H268342   5.092   4.517   3.752
15643TIP3   OH268343   5.174   4.731   3.526
15643TIP3    H168344   5.138   4.809   3.485
15643TIP3    H268345   5.269   4.742   3.521
15644TIP3   OH268346   4.259   4.350   3.673
15644TIP3    H168347   4.178   4.299   3.665
15644TIP3    H268348   4.306   4.334   3.591
15645TIP3   OH268349   4.514   3.865   3.285
15645TIP3    H168350   4.495   3.957   3.264
15645TIP3    H268351   4.444   3.816   3.243
15646TIP3   OH268352   4.643   4.266   3.614
15646TIP3    H168353   4.607   4.237   3.698
15646TIP3    H268354   4.568   4.273   3.556
15647TIP3   OH268355   4.882   4.186   3.492
15647TIP3    H168356   4.797   4.206   3.532
15647TIP3    H268357   4.929   4.137   3.559
15648TIP3   OH268358   5.031   4.061   3.690
15648TIP3    H168359   4.995   3.980   3.727
15648TIP3    H268360   5.027   4.124   3.762
15649TIP3   OH268361   4.054   4.157   3.645
15649TIP3    H168362   4.055   4.075   3.596
15649TIP3    H268363   4.063   4.131   3.736
15650TIP3   OH268364   4.513   3.791   3.550
15650TIP3    H168365   4.568   3.713   3.546
15650TIP3    H268366   4.505   3.821   3.460
15651TIP3   OH268367   4.599   3.959   3.752
15651TIP3    H168368   4.570   3.903   3.680
15651TIP3    H268369   4.535   4.030   3.755
15652TIP3   OH268370   4.555   5.657   2.084
15652TIP3    H168371   4.645   5.627   2.080
15652TIP3    H268372   4.549   5.724   2.016
15653TIP3   OH268373   3.918   5.131   1.985
15653TIP3    H168374   4.010   5.125   2.011
15653TIP3    H268375   3.904   5.056   1.928
15654TIP3   OH268376   3.778   5.630   2.542
15654TIP3    H168377   3.720   5.598   2.473
15654TIP3    H268378   3.796   5.553   2.596
15655TIP3   OH268379   3.850   5.408   2.693
15655TIP3    H168380   3.814   5.333   2.739
15655TIP3    H268381   3.902   5.454   2.760
15656TIP3   OH268382   5.611   5.525   3.019
15656TIP3    H168383   5.613   5.519   3.114
15656TIP3    H268384   5.701   5.543   2.993
15657TIP3   OH268385   5.566   5.477   3.296
15657TIP3    H168386   5.509   5.407   3.266
15657TIP3    H268387   5.615   5.438   3.369
15658TIP3   OH268388   5.407   5.054   3.778
15658TIP3    H168389   5.322   5.067   3.821
15658TIP3    H268390   5.460   5.128   3.807
15659TIP3   OH268391   5.554   4.894   2.303
15659TIP3    H168392   5.627   4.955   2.309
15659TIP3    H268393   5.564   4.837   2.380
15660TIP3   OH268394   5.595   4.698   2.495
15660TIP3    H168395   5.509   4.670   2.526
15660TIP3    H268396   5.644   4.718   2.575
15661TIP3   OH268397   5.671   4.982   2.993
15661TIP3    H168398   5.709   4.897   2.969
15661TIP3    H268399   5.587   4.985   2.947
15662TIP3   OH268400   5.390   5.270   3.244
15662TIP3    H168401   5.325   5.313   3.298
15662TIP3    H268402   5.348   5.260   3.158
15663TIP3   OH268403   5.596   4.697   2.117
15663TIP3    H168404   5.542   4.725   2.043
15663TIP3    H268405   5.580   4.763   2.185
15664TIP3   OH268406   5.437   4.397   1.939
15664TIP3    H168407   5.410   4.454   1.867
15664TIP3    H268408   5.421   4.308   1.907
15665TIP3   OH268409   5.344   4.574   2.535
15665TIP3    H168410   5.345   4.482   2.509
15665TIP3    H268411   5.308   4.574   2.624
15666TIP3   OH268412   3.836   4.758   2.955
15666TIP3    H168413   3.850   4.743   2.862
15666TIP3    H268414   3.917   4.729   2.997
15667TIP3   OH268415   5.447   4.755   3.512
15667TIP3    H168416   5.507   4.683   3.491
15667TIP3    H268417   5.475   4.826   3.454
15668TIP3   OH268418   5.582   4.515   3.495
15668TIP3    H168419   5.496   4.479   3.517
15668TIP3    H268420   5.644   4.449   3.526
15669TIP3   OH268421   5.366   4.149   1.833
15669TIP3    H168422   5.408   4.104   1.907
15669TIP3    H268423   5.274   4.124   1.838
15670TIP3   OH268424   5.331   4.327   2.361
15670TIP3    H168425   5.360   4.236   2.368
15670TIP3    H268426   5.402   4.371   2.313
15671TIP3   OH268427   5.368   4.356   2.939
15671TIP3    H168428   5.460   4.374   2.918
15671TIP3    H268429   5.359   4.381   3.031
15672TIP3   OH268430   5.382   4.453   3.204
15672TIP3    H168431   5.299   4.490   3.235
15672TIP3    H268432   5.439   4.530   3.192
15673TIP3   OH268433   3.833   4.279   3.531
15673TIP3    H168434   3.914   4.259   3.576
15673TIP3    H268435   3.777   4.203   3.545
15674TIP3   OH268436   5.625   3.863   3.713
15674TIP3    H168437   5.692   3.799   3.690
15674TIP3    H268438   5.635   3.933   3.647
15675TIP3   OH268439   5.391   4.057   2.387
15675TIP3    H168440   5.417   4.018   2.470
15675TIP3    H268441   5.326   3.997   2.351
15676TIP3   OH268442   3.937   4.132   2.857
15676TIP3    H168443   3.977   4.045   2.858
15676TIP3    H268444   4.010   4.191   2.875
15677TIP3   OH268445   3.752   4.416   2.919
15677TIP3    H168446   3.827   4.422   2.859
15677TIP3    H268447   3.777   4.472   2.993
15678TIP3   OH268448   5.582   4.038   3.506
15678TIP3    H168449   5.502   4.090   3.497
15678TIP3    H268450   5.576   3.972   3.437
15679TIP3   OH268451   5.529   4.040   2.025
15679TIP3    H168452   5.580   3.978   1.974
15679TIP3    H268453   5.594   4.094   2.070
15680TIP3   OH268454   3.804   4.022   2.320
15680TIP3    H168455   3.713   4.029   2.347
15680TIP3    H268456   3.819   4.100   2.266
15681TIP3   OH268457   5.261   5.564   2.548
15681TIP3    H168458   5.339   5.555   2.493
15681TIP3    H268459   5.293   5.608   2.627
15682TIP3   OH268460   3.797   3.887   3.169
15682TIP3    H168461   3.734   3.881   3.240
15682TIP3    H268462   3.767   3.960   3.116
15683TIP3   OH268463   4.014   5.267   3.595
15683TIP3    H168464   3.924   5.272   3.562
15683TIP3    H268465   4.004   5.239   3.686
15684TIP3   OH268466   4.340   5.364   3.228
15684TIP3    H168467   4.311   5.452   3.205
15684TIP3    H268468   4.435   5.365   3.212
15685TIP3   OH268469   4.720   5.486   3.506
15685TIP3    H168470   4.728   5.455   3.596
15685TIP3    H268471   4.802   5.531   3.488
15686TIP3   OH268472   4.961   5.617   3.467
15686TIP3    H168473   5.026   5.556   3.432
15686TIP3    H268474   5.002   5.653   3.546
15687TIP3   OH268475   5.475   3.834   3.334
15687TIP3    H168476   5.408   3.858   3.270
15687TIP3    H268477   5.498   3.744   3.313
15688TIP3   OH268478   4.036   5.661   3.245
15688TIP3    H168479   3.955   5.697   3.209
15688TIP3    H268480   4.046   5.704   3.330
15689TIP3   OH268481   4.295   5.628   3.159
15689TIP3    H168482   4.204   5.640   3.187
15689TIP3    H268483   4.301   5.673   3.075
15690TIP3   OH268484   4.754   5.607   3.067
15690TIP3    H168485   4.703   5.647   2.997
15690TIP3    H268486   4.763   5.677   3.132
15691TIP3   OH268487   4.984   5.481   3.159
15691TIP3    H168488   4.907   5.524   3.123
15691TIP3    H268489   5.054   5.545   3.150
15692TIP3   OH268490   5.225   5.633   3.167
15692TIP3    H168491   5.243   5.725   3.149
15692TIP3    H268492   5.266   5.586   3.095
15693TIP3   OH268493   4.008   5.511   2.907
15693TIP3    H168494   3.995   5.468   2.991
15693TIP3    H268495   4.088   5.472   2.871
15694TIP3   OH268496   4.223   5.382   2.797
15694TIP3    H168497   4.207   5.291   2.822
15694TIP3    H268498   4.307   5.404   2.836
15695TIP3   OH268499   4.479   5.414   2.907
15695TIP3    H168500   4.491   5.324   2.877
15695TIP3    H268501   4.513   5.415   2.996
15696TIP3   OH268502   4.797   3.996   2.799
15696TIP3    H168503   4.739   3.923   2.820
15696TIP3    H268504   4.873   3.955   2.757
15697TIP3   OH268505   5.306   3.828   2.775
15697TIP3    H168506   5.375   3.880   2.734
15697TIP3    H268507   5.231   3.887   2.781
15698TIP3   OH268508   5.498   3.934   2.609
15698TIP3    H168509   5.557   3.862   2.587
15698TIP3    H268510   5.555   4.009   2.621
15699TIP3   OH268511   4.037   3.848   2.549
15699TIP3    H168512   3.945   3.829   2.531
15699TIP3    H268513   4.081   3.763   2.539
15700TIP3   OH268514   3.927   3.851   2.136
15700TIP3    H168515   3.988   3.909   2.090
15700TIP3    H268516   3.889   3.905   2.205
15701TIP3   OH268517   4.526   3.816   2.571
15701TIP3    H168518   4.597   3.867   2.532
15701TIP3    H268519   4.542   3.820   2.665
15702TIP3   OH268520   5.020   3.869   2.698
15702TIP3    H168521   5.068   3.849   2.618
15702TIP3    H268522   5.001   3.784   2.737
15703TIP3   OH268523   5.191   3.887   2.291
15703TIP3    H168524   5.115   3.944   2.308
15703TIP3    H268525   5.158   3.799   2.305
15704TIP3   OH268526   3.919   5.475   2.237
15704TIP3    H168527   3.841   5.463   2.182
15704TIP3    H268528   3.942   5.567   2.224
15705TIP3   OH268529   4.129   4.012   1.993
15705TIP3    H168530   4.181   3.956   1.935
15705TIP3    H268531   4.192   4.046   2.056
15706TIP3   OH268532   4.599   4.086   2.244
15706TIP3    H168533   4.635   4.016   2.299
15706TIP3    H268534   4.615   4.166   2.294
15707TIP3   OH268535   4.810   5.556   2.070
15707TIP3    H168536   4.904   5.572   2.062
15707TIP3    H268537   4.788   5.502   1.995
15708TIP3   OH268538   5.468   5.531   2.361
15708TIP3    H168539   5.447   5.441   2.336
15708TIP3    H268540   5.447   5.583   2.284
15709TIP3   OH268541   4.050   3.910   3.500
15709TIP3    H168542   3.990   3.842   3.532
15709TIP3    H268543   4.131   3.894   3.548
15710TIP3   OH268544   4.253   3.843   3.676
15710TIP3    H168545   4.340   3.815   3.648
15710TIP3    H268546   4.217   3.767   3.722
15711TIP3   OH268547   4.106   5.516   1.928
15711TIP3    H168548   4.088   5.503   2.021
15711TIP3    H268549   4.185   5.464   1.912
15712TIP3   OH268550   5.120   3.786   3.691
15712TIP3    H168551   5.092   3.748   3.774
15712TIP3    H268552   5.208   3.751   3.677
15713TIP3   OH268553   5.382   5.404   3.570
15713TIP3    H168554   5.311   5.400   3.505
15713TIP3    H268555   5.379   5.494   3.602
15714TIP3   OH268556   6.845   4.811   2.532
15714TIP3    H168557   6.834   4.905   2.521
15714TIP3    H268558   6.776   4.772   2.478
15715TIP3   OH268559   6.708   4.735   2.913
15715TIP3    H168560   6.713   4.693   2.999
15715TIP3    H268561   6.666   4.669   2.857
15716TIP3   OH268562   5.971   4.659   3.068
15716TIP3    H168563   5.968   4.573   3.110
15716TIP3    H268564   6.019   4.714   3.130
15717TIP3   OH268565   7.111   5.014   2.775
15717TIP3    H168566   7.067   4.946   2.825
15717TIP3    H268567   7.130   5.083   2.838
15718TIP3   OH268568   6.097   5.121   2.855
15718TIP3    H168569   6.060   5.033   2.849
15718TIP3    H268570   6.189   5.107   2.876
15719TIP3   OH268571   5.736   4.471   2.402
15719TIP3    H168572   5.702   4.552   2.441
15719TIP3    H268573   5.666   4.441   2.344
15720TIP3   OH268574   5.799   4.705   2.694
15720TIP3    H168575   5.828   4.615   2.710
15720TIP3    H268576   5.877   4.758   2.710
15721TIP3   OH268577   6.812   5.507   2.802
15721TIP3    H168578   6.839   5.433   2.747
15721TIP3    H268579   6.782   5.466   2.883
15722TIP3   OH268580   6.577   4.979   2.946
15722TIP3    H168581   6.614   4.900   2.907
15722TIP3    H268582   6.643   5.009   3.009
15723TIP3   OH268583   6.851   4.412   2.954
15723TIP3    H168584   6.881   4.322   2.963
15723TIP3    H268585   6.924   4.457   2.911
15724TIP3   OH268586   6.210   4.195   2.697
15724TIP3    H168587   6.206   4.267   2.635
15724TIP3    H268588   6.171   4.121   2.651
15725TIP3   OH268589   7.006   4.218   2.511
15725TIP3    H168590   7.048   4.172   2.583
15725TIP3    H268591   7.078   4.258   2.463
15726TIP3   OH268592   5.870   4.445   2.761
15726TIP3    H168593   5.931   4.401   2.820
15726TIP3    H268594   5.890   4.410   2.674
15727TIP3   OH268595   6.378   4.581   2.715
15727TIP3    H168596   6.457   4.534   2.742
15727TIP3    H268597   6.330   4.518   2.661
15728TIP3   OH268598   6.084   4.103   3.105
15728TIP3    H168599   6.057   4.161   3.034
15728TIP3    H268600   6.015   4.111   3.171
15729TIP3   OH268601   6.812   5.065   2.429
15729TIP3    H168602   6.799   5.061   2.334
15729TIP3    H268603   6.757   5.139   2.457
15730TIP3   OH268604   6.364   4.882   3.096
15730TIP3    H168605   6.306   4.950   3.130
15730TIP3    H268606   6.431   4.931   3.046
15731TIP3   OH268607   7.097   4.109   2.746
15731TIP3    H168608   7.025   4.067   2.792
15731TIP3    H268609   7.142   4.161   2.812
15732TIP3   OH268610   6.049   4.282   2.899
15732TIP3    H168611   6.107   4.336   2.952
15732TIP3    H268612   6.105   4.247   2.829
15733TIP3   OH268613   6.206   5.085   3.200
15733TIP3    H168614   6.212   5.179   3.188
15733TIP3    H268615   6.117   5.070   3.232
15734TIP3   OH268616   5.779   5.063   2.275
15734TIP3    H168617   5.768   5.109   2.191
15734TIP3    H268618   5.804   5.132   2.337
15735TIP3   OH268619   7.141   5.232   2.959
15735TIP3    H168620   7.046   5.231   2.973
15735TIP3    H268621   7.162   5.324   2.943
15736TIP3   OH268622   7.136   4.019   3.078
15736TIP3    H168623   7.145   4.051   3.168
15736TIP3    H268624   7.167   4.092   3.024
15737TIP3   OH268625   6.465   3.791   2.873
15737TIP3    H168626   6.432   3.704   2.851
15737TIP3    H268627   6.388   3.840   2.901
15738TIP3   OH268628   6.923   5.343   2.606
15738TIP3    H168629   6.967   5.261   2.587
15738TIP3    H268630   6.993   5.408   2.611
15739TIP3   OH268631   7.091   5.140   2.530
15739TIP3    H168632   7.037   5.083   2.475
15739TIP3    H268633   7.107   5.089   2.609
15740TIP3   OH268634   7.247   4.992   3.376
15740TIP3    H168635   7.249   4.931   3.302
15740TIP3    H268636   7.259   5.078   3.337
15741TIP3   OH268637   6.702   4.715   2.310
15741TIP3    H168638   6.635   4.778   2.284
15741TIP3    H268639   6.772   4.726   2.245
15742TIP3   OH268640   6.747   4.588   1.972
15742TIP3    H168641   6.802   4.611   2.047
15742TIP3    H268642   6.800   4.528   1.920
15743TIP3   OH268643   7.068   4.713   2.412
15743TIP3    H168644   6.996   4.750   2.462
15743TIP3    H268645   7.110   4.651   2.472
15744TIP3   OH268646   6.979   4.552   3.301
15744TIP3    H168647   6.987   4.617   3.370
15744TIP3    H268648   6.904   4.580   3.249
15745TIP3   OH268649   6.223   4.780   2.593
15745TIP3    H168650   6.194   4.747   2.509
15745TIP3    H268651   6.281   4.712   2.628
15746TIP3   OH268652   6.379   5.149   2.845
15746TIP3    H168653   6.383   5.150   2.750
15746TIP3    H268654   6.453   5.094   2.872
15747TIP3   OH268655   6.263   4.664   2.957
15747TIP3    H168656   6.309   4.655   2.874
15747TIP3    H268657   6.301   4.742   2.998
15748TIP3   OH268658   6.875   5.232   3.021
15748TIP3    H168659   6.860   5.304   3.083
15748TIP3    H268660   6.836   5.156   3.063
15749TIP3   OH268661   6.360   5.109   3.431
15749TIP3    H168662   6.298   5.167   3.475
15749TIP3    H268663   6.314   5.083   3.350
15750TIP3   OH268664   6.949   4.671   2.164
15750TIP3    H168665   6.990   4.694   2.247
15750TIP3    H268666   7.006   4.709   2.097
15751TIP3   OH268667   6.034   4.717   3.361
15751TIP3    H168668   6.041   4.793   3.419
15751TIP3    H268669   5.939   4.704   3.351
15752TIP3   OH268670   6.680   5.308   2.488
15752TIP3    H168671   6.758   5.324   2.541
15752TIP3    H268672   6.659   5.393   2.449
15753TIP3   OH268673   6.162   5.287   3.500
15753TIP3    H168674   6.158   5.319   3.410
15753TIP3    H268675   6.070   5.277   3.525
15754TIP3   OH268676   6.134   4.701   2.330
15754TIP3    H168677   6.074   4.765   2.292
15754TIP3    H268678   6.086   4.619   2.330
15755TIP3   OH268679   5.734   4.945   3.259
15755TIP3    H168680   5.707   4.961   3.169
15755TIP3    H268681   5.744   4.849   3.264
15756TIP3   OH268682   5.705   5.243   2.886
15756TIP3    H168683   5.702   5.150   2.910
15756TIP3    H268684   5.665   5.288   2.960
15757TIP3   OH268685   6.594   5.241   3.374
15757TIP3    H168686   6.594   5.324   3.421
15757TIP3    H268687   6.510   5.201   3.397
15758TIP3   OH268688   6.682   5.577   2.364
15758TIP3    H168689   6.661   5.586   2.271
15758TIP3    H268690   6.651   5.659   2.404
15759TIP3   OH268691   6.036   5.450   2.551
15759TIP3    H168692   6.047   5.423   2.642
15759TIP3    H268693   5.977   5.385   2.513
15760TIP3   OH268694   6.967   5.525   2.041
15760TIP3    H168695   7.014   5.450   2.004
15760TIP3    H268696   6.976   5.515   2.136
15761TIP3   OH268697   6.947   5.506   2.319
15761TIP3    H168698   6.855   5.515   2.344
15761TIP3    H268699   6.985   5.452   2.388
15762TIP3   OH268700   7.188   4.455   3.526
15762TIP3    H168701   7.198   4.464   3.431
15762TIP3    H268702   7.262   4.401   3.553
15763TIP3   OH268703   5.960   5.086   3.318
15763TIP3    H168704   5.982   5.052   3.404
15763TIP3    H268705   5.878   5.043   3.295
15764TIP3   OH268706   6.234   3.917   2.955
15764TIP3    H168707   6.204   3.906   2.865
15764TIP3    H268708   6.174   3.981   2.993
15765TIP3   OH268709   6.684   3.890   3.289
15765TIP3    H168710   6.732   3.836   3.352
15765TIP3    H268711   6.591   3.875   3.310
15766TIP3   OH268712   6.977   4.269   3.361
15766TIP3    H168713   6.924   4.257   3.440
15766TIP3    H268714   6.981   4.364   3.349
15767TIP3   OH268715   7.113   4.785   1.977
15767TIP3    H168716   7.091   4.767   1.886
15767TIP3    H268717   7.109   4.881   1.984
15768TIP3   OH268718   6.626   4.116   2.033
15768TIP3    H168719   6.574   4.101   2.112
15768TIP3    H268720   6.591   4.055   1.968
15769TIP3   OH268721   6.219   4.420   3.069
15769TIP3    H168722   6.151   4.427   3.137
15769TIP3    H268723   6.227   4.509   3.035
15770TIP3   OH268724   6.222   4.426   2.545
15770TIP3    H168725   6.126   4.421   2.539
15770TIP3    H268726   6.252   4.408   2.456
15771TIP3   OH268727   6.745   4.462   2.413
15771TIP3    H168728   6.721   4.550   2.385
15771TIP3    H268729   6.818   4.438   2.357
15772TIP3   OH268730   6.752   4.464   3.541
15772TIP3    H168731   6.759   4.369   3.554
15772TIP3    H268732   6.836   4.498   3.571
15773TIP3   OH268733   6.798   4.327   2.651
15773TIP3    H168734   6.770   4.397   2.592
15773TIP3    H268735   6.875   4.289   2.608
15774TIP3   OH268736   5.991   4.426   3.230
15774TIP3    H168737   5.975   4.477   3.309
15774TIP3    H268738   5.953   4.340   3.250
15775TIP3   OH268739   6.320   4.177   1.902
15775TIP3    H168740   6.285   4.159   1.989
15775TIP3    H268741   6.261   4.243   1.866
15776TIP3   OH268742   5.698   4.116   2.614
15776TIP3    H168743   5.730   4.138   2.701
15776TIP3    H268744   5.766   4.060   2.576
15777TIP3   OH268745   5.712   4.225   2.141
15777TIP3    H168746   5.782   4.265   2.090
15777TIP3    H268747   5.657   4.298   2.169
15778TIP3   OH268748   6.741   4.576   3.143
15778TIP3    H168749   6.789   4.520   3.082
15778TIP3    H268750   6.694   4.515   3.200
15779TIP3   OH268751   6.483   4.187   2.681
15779TIP3    H168752   6.389   4.199   2.694
15779TIP3    H268753   6.494   4.092   2.680
15780TIP3   OH268754   5.959   4.355   2.516
15780TIP3    H168755   5.881   4.382   2.468
15780TIP3    H268756   5.980   4.268   2.481
15781TIP3   OH268757   6.294   4.361   2.290
15781TIP3    H168758   6.388   4.341   2.286
15781TIP3    H268759   6.274   4.397   2.204
15782TIP3   OH268760   6.842   4.130   2.950
15782TIP3    H168761   6.824   4.132   3.044
15782TIP3    H268762   6.861   4.038   2.931
15783TIP3   OH268763   6.240   4.455   2.037
15783TIP3    H168764   6.186   4.432   1.962
15783TIP3    H268765   6.317   4.498   1.999
15784TIP3   OH268766   7.228   5.678   3.599
15784TIP3    H168767   7.226   5.762   3.552
15784TIP3    H268768   7.321   5.658   3.609
15785TIP3   OH268769   6.016   4.928   3.544
15785TIP3    H168770   6.084   4.938   3.610
15785TIP3    H268771   5.934   4.934   3.592
15786TIP3   OH268772   6.600   4.458   2.853
15786TIP3    H168773   6.690   4.460   2.885
15786TIP3    H268774   6.548   4.427   2.928
15787TIP3   OH268775   6.071   4.104   2.453
15787TIP3    H168776   5.997   4.047   2.474
15787TIP3    H268777   6.144   4.044   2.438
15788TIP3   OH268778   6.479   4.330   3.061
15788TIP3    H168779   6.389   4.362   3.068
15788TIP3    H268780   6.518   4.348   3.146
15789TIP3   OH268781   6.512   4.907   2.238
15789TIP3    H168782   6.440   4.868   2.188
15789TIP3    H268783   6.473   4.930   2.322
15790TIP3   OH268784   7.211   4.860   3.112
15790TIP3    H168785   7.272   4.837   3.042
15790TIP3    H268786   7.125   4.856   3.070
15791TIP3   OH268787   6.883   4.204   2.060
15791TIP3    H168788   6.789   4.189   2.055
15791TIP3    H268789   6.891   4.283   2.115
15792TIP3   OH268790   6.663   4.954   3.381
15792TIP3    H168791   6.699   4.927   3.466
15792TIP3    H268792   6.635   5.045   3.394
15793TIP3   OH268793   6.960   4.403   2.241
15793TIP3    H168794   7.045   4.383   2.280
15793TIP3    H268795   6.968   4.492   2.209
15794TIP3   OH268796   6.044   4.834   2.806
15794TIP3    H168797   6.108   4.821   2.736
15794TIP3    H268798   6.069   4.772   2.874
15795TIP3   OH268799   6.728   5.055   2.157
15795TIP3    H168800   6.695   5.145   2.164
15795TIP3    H268801   6.654   5.000   2.183
15796TIP3   OH268802   5.763   4.670   3.336
15796TIP3    H168803   5.739   4.633   3.421
15796TIP3    H268804   5.688   4.651   3.280
15797TIP3   OH268805   6.469   4.649   3.534
15797TIP3    H168806   6.381   4.615   3.517
15797TIP3    H268807   6.502   4.672   3.448
15798TIP3   OH268808   6.873   5.201   3.374
15798TIP3    H168809   6.781   5.219   3.355
15798TIP3    H268810   6.884   5.226   3.466
15799TIP3   OH268811   6.988   4.804   2.933
15799TIP3    H168812   6.894   4.806   2.917
15799TIP3    H268813   7.016   4.718   2.901
15800TIP3   OH268814   6.305   5.216   2.578
15800TIP3    H168815   6.327   5.301   2.541
15800TIP3    H268816   6.214   5.224   2.606
15801TIP3   OH268817   5.857   4.673   2.031
15801TIP3    H168818   5.906   4.736   2.083
15801TIP3    H268819   5.768   4.677   2.066
15802TIP3   OH268820   6.376   4.976   2.462
15802TIP3    H168821   6.362   5.061   2.503
15802TIP3    H268822   6.325   4.914   2.514
15803TIP3   OH268823   6.487   5.390   3.155
15803TIP3    H168824   6.545   5.464   3.135
15803TIP3    H268825   6.538   5.335   3.214
15804TIP3   OH268826   6.294   5.487   2.469
15804TIP3    H168827   6.202   5.481   2.492
15804TIP3    H268828   6.322   5.572   2.504
15805TIP3   OH268829   6.781   4.992   3.134
15805TIP3    H168830   6.739   4.976   3.219
15805TIP3    H268831   6.864   4.945   3.140
15806TIP3   OH268832   7.054   5.060   2.037
15806TIP3    H168833   7.088   5.030   2.121
15806TIP3    H268834   6.960   5.064   2.049
15807TIP3   OH268835   7.087   5.415   3.340
15807TIP3    H168836   7.005   5.371   3.319
15807TIP3    H268837   7.089   5.491   3.281
15808TIP3   OH268838   5.886   4.162   3.291
15808TIP3    H168839   5.793   4.154   3.270
15808TIP3    H268840   5.900   4.101   3.363
15809TIP3   OH268841   7.150   4.948   2.267
15809TIP3    H168842   7.136   4.872   2.323
15809TIP3    H268843   7.238   4.977   2.288
15810TIP3   OH268844   5.877   5.364   3.150
15810TIP3    H168845   5.896   5.270   3.152
15810TIP3    H268846   5.891   5.392   3.241
15811TIP3   OH268847   6.440   5.195   1.885
15811TIP3    H168848   6.450   5.109   1.843
15811TIP3    H268849   6.401   5.175   1.970
15812TIP3   OH268850   6.319   5.165   2.134
15812TIP3    H168851   6.361   5.111   2.201
15812TIP3    H268852   6.332   5.255   2.164
15813TIP3   OH268853   5.966   4.875   2.191
15813TIP3    H168854   5.896   4.921   2.238
15813TIP3    H268855   6.013   4.944   2.144
15814TIP3   OH268856   6.779   4.137   3.215
15814TIP3    H168857   6.854   4.158   3.271
15814TIP3    H268858   6.749   4.052   3.247
15815TIP3   OH268859   6.876   4.076   2.312
15815TIP3    H168860   6.887   4.118   2.226
15815TIP3    H268861   6.917   4.137   2.373
15816TIP3   OH268862   6.620   5.302   2.172
15816TIP3    H168863   6.533   5.331   2.200
15816TIP3    H268864   6.665   5.382   2.146
15817TIP3   OH268865   6.558   4.259   2.420
15817TIP3    H168866   6.624   4.329   2.419
15817TIP3    H268867   6.531   4.253   2.511
15818TIP3   OH268868   6.636   4.370   3.287
15818TIP3    H168869   6.654   4.394   3.378
15818TIP3    H268870   6.679   4.286   3.275
15819TIP3   OH268871   6.698   3.952   2.472
15819TIP3    H168872   6.624   4.013   2.476
15819TIP3    H268873   6.761   3.994   2.414
15820TIP3   OH268874   6.373   5.421   2.215
15820TIP3    H168875   6.378   5.505   2.170
15820TIP3    H268876   6.346   5.443   2.304
15821TIP3   OH268877   6.215   4.115   2.149
15821TIP3    H168878   6.192   4.184   2.211
15821TIP3    H268879   6.299   4.081   2.180
15822TIP3   OH268880   7.213   4.130   3.324
15822TIP3    H168881   7.129   4.174   3.339
15822TIP3    H268882   7.275   4.181   3.376
15823TIP3   OH268883   7.067   4.545   2.847
15823TIP3    H168884   7.086   4.546   2.753
15823TIP3    H268885   7.152   4.530   2.888
15824TIP3   OH268886   6.069   5.089   2.038
15824TIP3    H168887   6.144   5.132   2.081
15824TIP3    H268888   6.109   5.033   1.972
15825TIP3   OH268889   5.851   4.398   1.977
15825TIP3    H168890   5.876   4.485   2.010
15825TIP3    H268891   5.790   4.417   1.906
15826TIP3   OH268892   7.231   5.501   2.942
15826TIP3    H168893   7.211   5.570   2.880
15826TIP3    H268894   7.326   5.497   2.944
15827TIP3   OH268895   5.930   3.897   2.863
15827TIP3    H168896   5.996   3.883   2.796
15827TIP3    H268897   5.905   3.808   2.892
15828TIP3   OH268898   5.837   5.301   2.419
15828TIP3    H168899   5.771   5.322   2.486
15828TIP3    H268900   5.821   5.366   2.350
15829TIP3   OH268901   5.801   5.573   3.610
15829TIP3    H168902   5.866   5.552   3.677
15829TIP3    H268903   5.764   5.489   3.585
15830TIP3   OH268904   6.225   5.403   3.744
15830TIP3    H168905   6.307   5.366   3.774
15830TIP3    H268906   6.210   5.363   3.658
15831TIP3   OH268907   6.649   5.376   1.865
15831TIP3    H168908   6.583   5.309   1.881
15831TIP3    H268909   6.726   5.328   1.836
15832TIP3   OH268910   6.880   5.257   3.643
15832TIP3    H168911   6.852   5.176   3.685
15832TIP3    H268912   6.957   5.285   3.693
15833TIP3   OH268913   7.099   5.314   1.920
15833TIP3    H168914   7.108   5.226   1.957
15833TIP3    H268915   7.169   5.318   1.854
15834TIP3   OH268916   5.773   4.935   3.678
15834TIP3    H168917   5.754   4.842   3.686
15834TIP3    H268918   5.704   4.968   3.620
15835TIP3   OH268919   6.203   4.909   1.883
15835TIP3    H168920   6.226   4.859   1.962
15835TIP3    H268921   6.287   4.923   1.839
15836TIP3   OH268922   6.448   4.941   3.630
15836TIP3    H168923   6.426   4.989   3.550
15836TIP3    H268924   6.473   4.854   3.600
15837TIP3   OH268925   6.772   5.055   1.885
15837TIP3    H168926   6.746   5.049   1.977
15837TIP3    H268927   6.765   4.965   1.852
15838TIP3   OH268928   6.980   4.940   3.386
15838TIP3    H168929   7.072   4.966   3.383
15838TIP3    H268930   6.933   5.023   3.377
15839TIP3   OH268931   5.855   4.630   3.636
15839TIP3    H168932   5.948   4.621   3.616
15839TIP3    H268933   5.852   4.653   3.729
15840TIP3   OH268934   6.304   4.775   2.109
15840TIP3    H168935   6.255   4.736   2.181
15840TIP3    H268936   6.349   4.701   2.068
15841TIP3   OH268937   6.262   4.557   3.360
15841TIP3    H168938   6.185   4.614   3.355
15841TIP3    H268939   6.328   4.602   3.307
15842TIP3   OH268940   6.460   4.600   1.951
15842TIP3    H168941   6.458   4.629   1.860
15842TIP3    H268942   6.553   4.588   1.970
15843TIP3   OH268943   6.782   4.783   3.673
15843TIP3    H168944   6.866   4.771   3.629
15843TIP3    H268945   6.781   4.718   3.743
15844TIP3   OH268946   6.311   4.299   3.443
15844TIP3    H168947   6.318   4.237   3.370
15844TIP3    H268948   6.294   4.383   3.401
15845TIP3   OH268949   6.334   4.128   3.218
15845TIP3    H168950   6.386   4.166   3.147
15845TIP3    H268951   6.246   4.117   3.180
15846TIP3   OH268952   6.486   4.691   3.255
15846TIP3    H168953   6.576   4.690   3.225
15846TIP3    H268954   6.444   4.762   3.206
15847TIP3   OH268955   6.982   4.418   3.707
15847TIP3    H168956   7.009   4.336   3.748
15847TIP3    H268957   7.056   4.443   3.652
15848TIP3   OH268958   7.034   4.734   3.560
15848TIP3    H168959   7.025   4.808   3.500
15848TIP3    H268960   7.120   4.697   3.539
15849TIP3   OH268961   6.142   4.341   3.661
15849TIP3    H168962   6.061   4.290   3.650
15849TIP3    H268963   6.189   4.329   3.579
15850TIP3   OH268964   6.403   3.865   3.285
15850TIP3    H168965   6.380   3.955   3.264
15850TIP3    H268966   6.336   3.812   3.242
15851TIP3   OH268967   6.503   4.317   3.643
15851TIP3    H168968   6.466   4.262   3.711
15851TIP3    H268969   6.444   4.307   3.569
15852TIP3   OH268970   6.789   4.195   3.558
15852TIP3    H168971   6.703   4.170   3.592
15852TIP3    H268972   6.852   4.148   3.612
15853TIP3   OH268973   6.965   4.069   3.726
15853TIP3    H168974   6.960   3.973   3.723
15853TIP3    H268975   6.939   4.092   3.815
15854TIP3   OH268976   5.939   4.152   3.646
15854TIP3    H168977   5.939   4.070   3.597
15854TIP3    H268978   5.947   4.126   3.738
15855TIP3   OH268979   6.393   3.786   3.548
15855TIP3    H168980   6.450   3.710   3.545
15855TIP3    H268981   6.389   3.817   3.458
15856TIP3   OH268982   6.474   3.953   3.751
15856TIP3    H168983   6.449   3.897   3.678
15856TIP3    H268984   6.408   4.023   3.752
15857TIP3   OH268985   6.442   5.662   2.092
15857TIP3    H168986   6.531   5.628   2.085
15857TIP3    H268987   6.433   5.724   2.020
15858TIP3   OH268988   5.805   5.137   1.981
15858TIP3    H168989   5.897   5.127   2.009
15858TIP3    H268990   5.789   5.060   1.927
15859TIP3   OH268991   5.653   5.626   2.535
15859TIP3    H168992   5.592   5.592   2.469
15859TIP3    H268993   5.668   5.552   2.594
15860TIP3   OH268994   5.750   5.433   2.698
15860TIP3    H168995   5.719   5.351   2.736
15860TIP3    H268996   5.793   5.479   2.770
15861TIP3   OH268997   7.246   5.215   3.221
15861TIP3    H168998   7.203   5.291   3.261
15861TIP3    H268999   7.213   5.214   3.131
15862TIP3   OH269000   7.196   4.536   2.598
15862TIP3    H169001   7.228   4.446   2.595
15862TIP3    H269002   7.274   4.588   2.613
15863TIP3   OH269003   5.724   4.703   2.960
15863TIP3    H169004   5.727   4.715   2.865
15863TIP3    H269005   5.815   4.691   2.986
15864TIP3   OH269006   7.236   4.152   1.898
15864TIP3    H169007   7.266   4.065   1.924
15864TIP3    H269008   7.146   4.139   1.869
15865TIP3   OH269009   7.214   4.323   2.358
15865TIP3    H169010   7.269   4.289   2.429
15865TIP3    H269011   7.261   4.299   2.278
15866TIP3   OH269012   7.246   4.236   2.940
15866TIP3    H169013   7.330   4.203   2.909
15866TIP3    H269014   7.261   4.328   2.960
15867TIP3   OH269015   7.247   4.483   3.252
15867TIP3    H169016   7.156   4.507   3.238
15867TIP3    H269017   7.284   4.479   3.164
15868TIP3   OH269018   5.715   4.280   3.542
15868TIP3    H169019   5.799   4.265   3.585
15868TIP3    H269020   5.672   4.194   3.543
15869TIP3   OH269021   7.243   4.003   2.469
15869TIP3    H169022   7.289   3.922   2.492
15869TIP3    H269023   7.171   3.975   2.413
15870TIP3   OH269024   5.801   4.137   2.873
15870TIP3    H169025   5.839   4.049   2.873
15870TIP3    H269026   5.876   4.195   2.884
15871TIP3   OH269027   5.633   4.433   2.920
15871TIP3    H169028   5.703   4.415   2.858
15871TIP3    H269029   5.646   4.524   2.946
15872TIP3   OH269030   5.666   4.002   2.295
15872TIP3    H169031   5.583   4.022   2.339
15872TIP3    H269032   5.696   4.087   2.263
15873TIP3   OH269033   7.130   5.512   2.601
15873TIP3    H169034   7.207   5.458   2.618
15873TIP3    H269035   7.145   5.592   2.652
15874TIP3   OH269036   5.701   3.915   3.188
15874TIP3    H169037   5.624   3.886   3.237
15874TIP3    H269038   5.666   3.974   3.121
15875TIP3   OH269039   5.903   5.264   3.601
15875TIP3    H169040   5.814   5.274   3.566
15875TIP3    H269041   5.890   5.239   3.692
15876TIP3   OH269042   6.223   5.361   3.228
15876TIP3    H169043   6.190   5.448   3.204
15876TIP3    H269044   6.317   5.366   3.212
15877TIP3   OH269045   6.605   5.485   3.504
15877TIP3    H169046   6.614   5.456   3.594
15877TIP3    H269047   6.685   5.533   3.485
15878TIP3   OH269048   6.842   5.622   3.469
15878TIP3    H169049   6.915   5.573   3.432
15878TIP3    H269050   6.875   5.655   3.553
15879TIP3   OH269051   5.939   5.702   3.246
15879TIP3    H169052   5.853   5.729   3.214
15879TIP3    H269053   5.942   5.734   3.336
15880TIP3   OH269054   6.184   5.626   3.157
15880TIP3    H169055   6.097   5.649   3.189
15880TIP3    H269056   6.192   5.673   3.073
15881TIP3   OH269057   6.635   5.608   3.063
15881TIP3    H169058   6.585   5.649   2.992
15881TIP3    H269059   6.648   5.678   3.127
15882TIP3   OH269060   6.851   5.468   3.160
15882TIP3    H169061   6.775   5.518   3.130
15882TIP3    H269062   6.925   5.529   3.151
15883TIP3   OH269063   7.081   5.617   3.145
15883TIP3    H169064   7.101   5.710   3.136
15883TIP3    H269065   7.137   5.574   3.080
15884TIP3   OH269066   5.892   5.523   2.927
15884TIP3    H169067   5.882   5.476   3.010
15884TIP3    H269068   5.966   5.479   2.884
15885TIP3   OH269069   6.100   5.389   2.809
15885TIP3    H169070   6.085   5.297   2.832
15885TIP3    H269071   6.186   5.409   2.847
15886TIP3   OH269072   6.363   5.421   2.906
15886TIP3    H169073   6.374   5.331   2.875
15886TIP3    H269074   6.394   5.420   2.997
15887TIP3   OH269075   6.643   3.984   2.786
15887TIP3    H169076   6.585   3.914   2.815
15887TIP3    H269077   6.721   3.938   2.753
15888TIP3   OH269078   7.183   3.820   2.769
15888TIP3    H169079   7.227   3.903   2.753
15888TIP3    H269080   7.090   3.843   2.776
15889TIP3   OH269081   5.880   3.922   2.531
15889TIP3    H169082   5.813   3.854   2.519
15889TIP3    H269083   5.955   3.874   2.566
15890TIP3   OH269084   5.805   3.846   2.116
15890TIP3    H169085   5.870   3.906   2.079
15890TIP3    H269086   5.763   3.897   2.185
15891TIP3   OH269087   6.409   3.930   2.490
15891TIP3    H169088   6.469   3.858   2.511
15891TIP3    H269089   6.329   3.909   2.539
15892TIP3   OH269090   6.906   3.881   2.741
15892TIP3    H169091   6.905   3.877   2.646
15892TIP3    H269092   6.878   3.793   2.768
15893TIP3   OH269093   7.063   3.875   2.311
15893TIP3    H169094   6.984   3.929   2.299
15893TIP3    H269095   7.031   3.785   2.308
15894TIP3   OH269096   5.806   5.489   2.213
15894TIP3    H169097   5.730   5.483   2.156
15894TIP3    H269098   5.832   5.581   2.209
15895TIP3   OH269099   6.012   4.009   1.985
15895TIP3    H169100   6.065   3.952   1.929
15895TIP3    H269101   6.073   4.044   2.050
15896TIP3   OH269102   6.465   4.067   2.255
15896TIP3    H169103   6.441   3.999   2.319
15896TIP3    H269104   6.501   4.138   2.308
15897TIP3   OH269105   6.693   5.553   2.069
15897TIP3    H169106   6.788   5.565   2.063
15897TIP3    H269107   6.670   5.503   1.992
15898TIP3   OH269108   5.939   3.909   3.503
15898TIP3    H169109   5.881   3.839   3.535
15898TIP3    H269110   6.022   3.894   3.549
15899TIP3   OH269111   6.144   3.844   3.677
15899TIP3    H169112   6.228   3.816   3.642
15899TIP3    H269113   6.110   3.767   3.723
15900TIP3   OH269114   5.995   5.514   1.935
15900TIP3    H169115   5.966   5.482   2.020
15900TIP3    H269116   6.074   5.465   1.916
15901TIP3   OH269117   6.977   3.794   3.702
15901TIP3    H169118   6.969   3.742   3.781
15901TIP3    H269119   7.069   3.783   3.676
15902TIP3   OH269120   7.244   5.387   3.574
15902TIP3    H169121   7.194   5.378   3.493
15902TIP3    H269122   7.243   5.480   3.593
15903TIP3   OH269123   1.197   6.688   2.533
15903TIP3    H169124   1.189   6.783   2.524
15903TIP3    H269125   1.118   6.653   2.491
15904TIP3   OH269126   1.076   6.594   2.929
15904TIP3    H169127   1.099   6.559   3.015
15904TIP3    H269128   1.026   6.524   2.887
15905TIP3   OH269129   0.296   6.541   3.090
15905TIP3    H169130   0.300   6.456   3.134
15905TIP3    H269131   0.347   6.599   3.147
15906TIP3   OH269132   1.456   6.903   2.749
15906TIP3    H169133   1.421   6.828   2.797
15906TIP3    H269134   1.480   6.966   2.816
15907TIP3   OH269135   0.399   6.990   2.872
15907TIP3    H169136   0.372   6.900   2.850
15907TIP3    H269137   0.492   6.982   2.891
15908TIP3   OH269138   0.111   6.403   2.416
15908TIP3    H169139   0.157   6.468   2.470
15908TIP3    H269140   0.021   6.405   2.448
15909TIP3   OH269141   0.216   6.556   2.620
15909TIP3    H169142   0.203   6.489   2.687
15909TIP3    H269143   0.263   6.627   2.664
15910TIP3   OH269144   0.921   6.843   2.953
15910TIP3    H169145   0.955   6.764   2.912
15910TIP3    H269146   0.990   6.872   3.012
15911TIP3   OH269147   1.802   6.000   3.048
15911TIP3    H169148   1.817   6.060   3.121
15911TIP3    H269149   1.845   6.041   2.974
15912TIP3   OH269150   1.233   6.274   2.956
15912TIP3    H169151   1.244   6.181   2.974
15912TIP3    H269152   1.215   6.279   2.862
15913TIP3   OH269153   0.587   6.085   2.687
15913TIP3    H169154   0.593   6.172   2.648
15913TIP3    H269155   0.534   6.035   2.626
15914TIP3   OH269156   1.355   6.109   2.532
15914TIP3    H169157   1.395   6.077   2.613
15914TIP3    H269158   1.428   6.148   2.484
15915TIP3   OH269159   0.216   6.328   2.781
15915TIP3    H169160   0.288   6.293   2.834
15915TIP3    H269161   0.231   6.293   2.693
15916TIP3   OH269162   0.721   6.486   2.717
15916TIP3    H169163   0.799   6.444   2.752
15916TIP3    H269164   0.679   6.419   2.663
15917TIP3   OH269165   1.843   6.162   3.268
15917TIP3    H169166   1.762   6.212   3.253
15917TIP3    H269167   1.859   6.169   3.362
15918TIP3   OH269168   0.435   6.001   3.119
15918TIP3    H169169   0.406   6.063   3.052
15918TIP3    H269170   0.372   6.009   3.190
15919TIP3   OH269171   1.173   6.945   2.428
15919TIP3    H169172   1.148   6.946   2.335
15919TIP3    H269173   1.134   7.026   2.463
15920TIP3   OH269174   0.701   6.759   3.099
15920TIP3    H169175   0.646   6.830   3.131
15920TIP3    H269176   0.772   6.803   3.052
15921TIP3   OH269177   1.461   6.051   2.776
15921TIP3    H169178   1.390   6.027   2.835
15921TIP3    H269179   1.515   6.111   2.826
15922TIP3   OH269180   0.417   6.166   2.892
15922TIP3    H169181   0.469   6.225   2.946
15922TIP3    H269182   0.479   6.131   2.828
15923TIP3   OH269183   0.550   6.971   3.198
15923TIP3    H169184   0.558   7.064   3.179
15923TIP3    H269185   0.461   6.961   3.231
15924TIP3   OH269186   0.111   6.943   2.254
15924TIP3    H169187   0.099   6.985   2.169
15924TIP3    H269188   0.134   7.014   2.313
15925TIP3   OH269189   1.490   7.116   2.931
15925TIP3    H169190   1.401   7.120   2.967
15925TIP3    H269191   1.497   7.193   2.875
15926TIP3   OH269192   1.553   5.887   3.126
15926TIP3    H169193   1.485   5.943   3.089
15926TIP3    H269194   1.634   5.921   3.089
15927TIP3   OH269195   0.789   5.690   2.858
15927TIP3    H169196   0.763   5.598   2.864
15927TIP3    H269197   0.714   5.739   2.891
15928TIP3   OH269198   1.368   7.265   2.546
15928TIP3    H169199   1.395   7.175   2.525
15928TIP3    H269200   1.420   7.288   2.623
15929TIP3   OH269201   1.439   7.006   2.494
15929TIP3    H169202   1.355   6.970   2.466
15929TIP3    H269203   1.457   6.963   2.578
15930TIP3   OH269204   1.603   6.912   3.312
15930TIP3    H169205   1.597   6.855   3.236
15930TIP3    H269206   1.605   7.001   3.275
15931TIP3   OH269207   1.042   6.595   2.313
15931TIP3    H169208   0.977   6.661   2.290
15931TIP3    H269209   1.113   6.609   2.252
15932TIP3   OH269210   1.067   6.482   1.978
15932TIP3    H169211   1.120   6.502   2.055
15932TIP3    H269212   1.117   6.415   1.932
15933TIP3   OH269213   1.769   6.552   3.146
15933TIP3    H169214   1.698   6.616   3.141
15933TIP3    H269215   1.832   6.580   3.080
15934TIP3   OH269216   1.411   6.603   2.389
15934TIP3    H169217   1.344   6.633   2.450
15934TIP3    H269218   1.477   6.561   2.444
15935TIP3   OH269219   1.376   6.422   3.340
15935TIP3    H169220   1.375   6.493   3.405
15935TIP3    H269221   1.310   6.448   3.276
15936TIP3   OH269222   0.561   6.675   2.587
15936TIP3    H169223   0.537   6.634   2.503
15936TIP3    H269224   0.621   6.612   2.627
15937TIP3   OH269225   0.682   6.981   2.854
15937TIP3    H169226   0.701   7.014   2.767
15937TIP3    H269227   0.765   6.943   2.883
15938TIP3   OH269228   0.575   6.577   2.936
15938TIP3    H169229   0.636   6.559   2.864
15938TIP3    H269230   0.622   6.640   2.991
15939TIP3   OH269231   1.253   7.108   3.066
15939TIP3    H169232   1.243   7.131   3.158
15939TIP3    H269233   1.207   7.024   3.057
15940TIP3   OH269234   0.701   6.986   3.427
15940TIP3    H169235   0.636   7.041   3.471
15940TIP3    H269236   0.659   6.960   3.345
15941TIP3   OH269237   1.278   6.543   2.157
15941TIP3    H169238   1.327   6.575   2.232
15941TIP3    H269239   1.332   6.565   2.081
15942TIP3   OH269240   0.397   6.627   3.359
15942TIP3    H169241   0.405   6.699   3.421
15942TIP3    H269242   0.305   6.600   3.365
15943TIP3   OH269243   1.097   7.203   2.497
15943TIP3    H169244   1.185   7.233   2.518
15943TIP3    H269245   1.047   7.283   2.481
15944TIP3   OH269246   0.497   7.157   3.505
15944TIP3    H169247   0.483   7.198   3.419
15944TIP3    H269248   0.409   7.152   3.543
15945TIP3   OH269249   1.641   5.700   2.144
15945TIP3    H169250   1.556   5.721   2.183
15945TIP3    H269251   1.676   5.784   2.116
15946TIP3   OH269252   0.475   6.585   2.325
15946TIP3    H169253   0.414   6.650   2.288
15946TIP3    H269254   0.421   6.508   2.341
15947TIP3   OH269255   1.772   7.163   1.960
15947TIP3    H169256   1.741   7.219   2.032
15947TIP3    H269257   1.856   7.129   1.990
15948TIP3   OH269258   0.137   6.786   3.229
15948TIP3    H169259   0.068   6.777   3.163
15948TIP3    H269260   0.139   6.701   3.273
15949TIP3   OH269261   0.164   7.177   2.906
15949TIP3    H169262   0.231   7.109   2.897
15949TIP3    H269263   0.117   7.153   2.986
15950TIP3   OH269264   1.892   7.143   3.528
15950TIP3    H169265   1.866   7.051   3.527
15950TIP3    H269266   1.811   7.191   3.540
15951TIP3   OH269267   0.952   7.095   3.405
15951TIP3    H169268   0.942   7.172   3.461
15951TIP3    H269269   0.865   7.055   3.404
15952TIP3   OH269270   1.563   6.297   3.546
15952TIP3    H169271   1.493   6.333   3.490
15952TIP3    H269272   1.569   6.205   3.521
15953TIP3   OH269273   0.303   6.983   3.324
15953TIP3    H169274   0.324   6.949   3.411
15953TIP3    H269275   0.241   6.919   3.288
15954TIP3   OH269276   0.548   5.807   2.949
15954TIP3    H169277   0.470   5.800   2.894
15954TIP3    H269278   0.527   5.878   3.010
15955TIP3   OH269279   1.034   5.763   3.289
15955TIP3    H169280   1.082   5.718   3.358
15955TIP3    H269281   0.942   5.758   3.317
15956TIP3   OH269282   1.309   6.152   3.348
15956TIP3    H169283   1.250   6.137   3.422
15956TIP3    H269284   1.320   6.247   3.347
15957TIP3   OH269285   1.432   6.577   1.929
15957TIP3    H169286   1.417   6.601   1.837
15957TIP3    H269287   1.504   6.633   1.957
15958TIP3   OH269288   0.989   5.999   2.023
15958TIP3    H169289   0.932   5.995   2.101
15958TIP3    H269290   0.948   5.940   1.961
15959TIP3   OH269291   0.562   6.329   3.055
15959TIP3    H169292   0.505   6.334   3.132
15959TIP3    H269293   0.561   6.418   3.019
15960TIP3   OH269294   0.571   6.322   2.551
15960TIP3    H169295   0.476   6.314   2.554
15960TIP3    H269296   0.594   6.299   2.460
15961TIP3   OH269297   1.102   6.352   2.428
15961TIP3    H169298   1.077   6.438   2.395
15961TIP3    H269299   1.173   6.324   2.370
15962TIP3   OH269300   1.026   6.366   3.552
15962TIP3    H169301   0.972   6.295   3.586
15962TIP3    H269302   1.110   6.356   3.598
15963TIP3   OH269303   1.197   6.286   2.685
15963TIP3    H169304   1.152   6.334   2.615
15963TIP3    H269305   1.243   6.215   2.640
15964TIP3   OH269306   0.346   6.307   3.239
15964TIP3    H169307   0.397   6.338   3.313
15964TIP3    H269308   0.309   6.224   3.268
15965TIP3   OH269309   0.666   6.062   1.908
15965TIP3    H169310   0.634   6.048   1.997
15965TIP3    H269311   0.610   6.131   1.873
15966TIP3   OH269312   0.024   6.124   2.618
15966TIP3    H169313   0.082   6.097   2.689
15966TIP3    H269314  -0.012   6.041   2.585
15967TIP3   OH269315   0.092   6.159   2.150
15967TIP3    H169316   0.162   6.193   2.094
15967TIP3    H269317   0.018   6.218   2.135
15968TIP3   OH269318   1.156   6.444   3.155
15968TIP3    H169319   1.190   6.386   3.087
15968TIP3    H269320   1.093   6.390   3.203
15969TIP3   OH269321   0.862   6.039   2.634
15969TIP3    H169322   0.774   6.048   2.669
15969TIP3    H269323   0.914   6.004   2.706
15970TIP3   OH269324   0.310   6.238   2.534
15970TIP3    H169325   0.239   6.267   2.477
15970TIP3    H269326   0.328   6.148   2.506
15971TIP3   OH269327   0.625   6.238   2.294
15971TIP3    H169328   0.720   6.238   2.309
15971TIP3    H269329   0.614   6.283   2.210
15972TIP3   OH269330   1.247   5.995   2.940
15972TIP3    H169331   1.215   5.989   3.030
15972TIP3    H269332   1.177   5.957   2.887
15973TIP3   OH269333   0.583   6.336   2.041
15973TIP3    H169334   0.526   6.317   1.966
15973TIP3    H269335   0.657   6.384   2.005
15974TIP3   OH269336   0.377   6.825   3.557
15974TIP3    H169337   0.438   6.816   3.630
15974TIP3    H269338   0.291   6.827   3.597
15975TIP3   OH269339   0.935   6.357   2.841
15975TIP3    H169340   1.007   6.304   2.807
15975TIP3    H269341   0.901   6.307   2.916
15976TIP3   OH269342   0.424   5.979   2.486
15976TIP3    H169343   0.384   5.897   2.514
15976TIP3    H269344   0.456   5.961   2.397
15977TIP3   OH269345   0.824   6.230   3.067
15977TIP3    H169346   0.740   6.275   3.074
15977TIP3    H269347   0.872   6.257   3.145
15978TIP3   OH269348   0.859   6.795   2.238
15978TIP3    H169349   0.789   6.752   2.189
15978TIP3    H269350   0.820   6.821   2.321
15979TIP3   OH269351   1.577   6.747   3.088
15979TIP3    H169352   1.641   6.798   3.038
15979TIP3    H269353   1.506   6.731   3.026
15980TIP3   OH269354   1.235   6.119   2.027
15980TIP3    H169355   1.146   6.084   2.035
15980TIP3    H269356   1.249   6.168   2.108
15981TIP3   OH269357   1.023   6.821   3.377
15981TIP3    H169358   1.047   6.779   3.460
15981TIP3    H269359   1.002   6.911   3.402
15982TIP3   OH269360   1.307   6.276   2.245
15982TIP3    H169361   1.392   6.261   2.286
15982TIP3    H269362   1.309   6.367   2.216
15983TIP3   OH269363   0.375   6.715   2.792
15983TIP3    H169364   0.439   6.719   2.721
15983TIP3    H269365   0.418   6.663   2.860
15984TIP3   OH269366   1.075   6.947   2.159
15984TIP3    H169367   1.043   7.037   2.159
15984TIP3    H269368   1.000   6.894   2.186
15985TIP3   OH269369   0.130   6.556   3.377
15985TIP3    H169370   0.143   6.528   3.468
15985TIP3    H269371   0.072   6.489   3.340
15986TIP3   OH269372   0.815   6.547   3.565
15986TIP3    H169373   0.758   6.509   3.498
15986TIP3    H269374   0.897   6.499   3.557
15987TIP3   OH269375   1.224   7.099   3.342
15987TIP3    H169376   1.129   7.101   3.349
15987TIP3    H269377   1.255   7.108   3.432
15988TIP3   OH269378   1.770   6.314   2.198
15988TIP3    H169379   1.735   6.292   2.112
15988TIP3    H269380   1.787   6.408   2.193
15989TIP3   OH269381   1.817   6.872   3.479
15989TIP3    H169382   1.731   6.898   3.445
15989TIP3    H269383   1.873   6.866   3.402
15990TIP3   OH269384   1.740   7.134   2.310
15990TIP3    H169385   1.666   7.085   2.346
15990TIP3    H269386   1.701   7.201   2.254
15991TIP3   OH269387   1.365   6.681   2.902
15991TIP3    H169388   1.270   6.671   2.903
15991TIP3    H269389   1.397   6.600   2.861
15992TIP3   OH269390   0.661   7.100   2.580
15992TIP3    H169391   0.707   7.180   2.553
15992TIP3    H269392   0.582   7.132   2.624
15993TIP3   OH269393   0.166   6.579   2.022
15993TIP3    H169394   0.225   6.630   2.077
15993TIP3    H269395   0.079   6.601   2.053
15994TIP3   OH269396   0.716   6.865   2.455
15994TIP3    H169397   0.703   6.950   2.497
15994TIP3    H269398   0.665   6.804   2.507
15995TIP3   OH269399   0.865   7.264   3.073
15995TIP3    H169400   0.909   7.322   3.135
15995TIP3    H269401   0.870   7.177   3.113
15996TIP3   OH269402   1.137   6.858   3.128
15996TIP3    H169403   1.095   6.845   3.213
15996TIP3    H269404   1.216   6.804   3.132
15997TIP3   OH269405   1.406   6.979   2.047
15997TIP3    H169406   1.444   6.920   2.112
15997TIP3    H269407   1.311   6.972   2.062
15998TIP3   OH269408   0.260   6.052   3.336
15998TIP3    H169409   0.189   6.090   3.386
15998TIP3    H269410   0.277   5.967   3.378
15999TIP3   OH269411   1.517   6.789   2.212
15999TIP3    H169412   1.475   6.738   2.281
15999TIP3    H269413   1.608   6.798   2.241
16000TIP3   OH269414   0.273   7.244   3.209
16000TIP3    H169415   0.255   7.159   3.249
16000TIP3    H269416   0.190   7.291   3.214
16001TIP3   OH269417   0.825   7.061   1.863
16001TIP3    H169418   0.817   6.972   1.828
16001TIP3    H269419   0.790   7.054   1.952
16002TIP3   OH269420   0.686   7.068   2.112
16002TIP3    H169421   0.699   6.995   2.171
16002TIP3    H269422   0.703   7.146   2.165
16003TIP3   OH269423   0.304   6.758   2.186
16003TIP3    H169424   0.234   6.804   2.231
16003TIP3    H269425   0.352   6.826   2.139
16004TIP3   OH269426   1.148   5.993   3.189
16004TIP3    H169427   1.203   6.035   3.256
16004TIP3    H269428   1.109   5.918   3.234
16005TIP3   OH269429   1.214   5.954   2.355
16005TIP3    H169430   1.205   6.016   2.283
16005TIP3    H269431   1.256   6.004   2.425
16006TIP3   OH269432   0.974   7.199   2.140
16006TIP3    H169433   0.902   7.240   2.188
16006TIP3    H269434   1.003   7.266   2.078
16007TIP3   OH269435   0.882   6.189   2.402
16007TIP3    H169436   0.955   6.250   2.412
16007TIP3    H269437   0.872   6.148   2.488
16008TIP3   OH269438   0.993   6.267   3.292
16008TIP3    H169439   0.997   6.302   3.381
16008TIP3    H269440   1.018   6.175   3.301
16009TIP3   OH269441   0.974   5.849   2.458
16009TIP3    H169442   0.948   5.916   2.521
16009TIP3    H269443   1.061   5.876   2.429
16010TIP3   OH269444   0.738  -0.001   2.253
16010TIP3    H169445   0.710   0.085   2.219
16010TIP3    H269446   0.731   0.008   2.348
16011TIP3   OH269447   0.569   5.998   2.162
16011TIP3    H169448   0.562   6.081   2.209
16011TIP3    H269449   0.654   5.963   2.190
16012TIP3   OH269450   1.562   6.061   3.385
16012TIP3    H169451   1.469   6.082   3.372
16012TIP3    H269452   1.582   5.999   3.315
16013TIP3   OH269453   1.442   6.430   2.785
16013TIP3    H169454   1.355   6.392   2.775
16013TIP3    H269455   1.488   6.370   2.844
16014TIP3   OH269456   0.403   6.973   2.038
16014TIP3    H169457   0.457   7.046   2.069
16014TIP3    H269458   0.460   6.924   1.979
16015TIP3   OH269459   0.210   6.310   1.954
16015TIP3    H169460   0.208   6.399   1.989
16015TIP3    H269461   0.166   6.316   1.870
16016TIP3   OH269462   0.301   5.776   2.826
16016TIP3    H169463   0.308   5.761   2.731
16016TIP3    H269464   0.268   5.693   2.860
16017TIP3   OH269465   0.161   7.196   2.373
16017TIP3    H169466   0.070   7.220   2.391
16017TIP3    H269467   0.183   7.246   2.294
16018TIP3   OH269468   0.612   7.250   3.737
16018TIP3    H169469   0.675   7.190   3.776
16018TIP3    H269470   0.566   7.197   3.671
16019TIP3   OH269471   1.049   7.217   1.843
16019TIP3    H169472   0.963   7.182   1.865
16019TIP3    H269473   1.109   7.143   1.852
16020TIP3   OH269474   1.278   7.091   3.607
16020TIP3    H169475   1.236   7.023   3.660
16020TIP3    H269476   1.348   7.124   3.663
16021TIP3   OH269477   1.453   7.208   1.889
16021TIP3    H169478   1.446   7.147   1.963
16021TIP3    H269479   1.547   7.225   1.882
16022TIP3   OH269480   0.112   6.813   3.643
16022TIP3    H169481   0.104   6.717   3.640
16022TIP3    H269482   0.049   6.845   3.579
16023TIP3   OH269483   0.556   6.800   1.891
16023TIP3    H169484   0.580   6.752   1.969
16023TIP3    H269485   0.637   6.807   1.840
16024TIP3   OH269486   0.787   6.819   3.630
16024TIP3    H169487   0.765   6.862   3.548
16024TIP3    H269488   0.810   6.730   3.605
16025TIP3   OH269489   1.130   6.937   1.886
16025TIP3    H169490   1.103   6.932   1.978
16025TIP3    H269491   1.116   6.849   1.852
16026TIP3   OH269492   1.344   6.836   3.372
16026TIP3    H169493   1.435   6.864   3.363
16026TIP3    H269494   1.293   6.916   3.363
16027TIP3   OH269495   0.220   6.511   3.633
16027TIP3    H169496   0.302   6.462   3.627
16027TIP3    H269497   0.215   6.540   3.724
16028TIP3   OH269498   0.649   6.664   2.115
16028TIP3    H169499   0.597   6.627   2.186
16028TIP3    H269500   0.689   6.588   2.072
16029TIP3   OH269501   0.587   6.431   3.341
16029TIP3    H169502   0.528   6.506   3.352
16029TIP3    H269503   0.664   6.467   3.296
16030TIP3   OH269504   0.791   6.487   1.949
16030TIP3    H169505   0.789   6.512   1.857
16030TIP3    H269506   0.884   6.481   1.971
16031TIP3   OH269507   1.116   6.674   3.666
16031TIP3    H169508   1.197   6.637   3.632
16031TIP3    H269509   1.085   6.609   3.730
16032TIP3   OH269510   1.725   6.686   1.895
16032TIP3    H169511   1.701   6.659   1.807
16032TIP3    H269512   1.694   6.777   1.901
16033TIP3   OH269513   0.645   6.189   3.453
16033TIP3    H169514   0.662   6.122   3.386
16033TIP3    H269515   0.630   6.269   3.404
16034TIP3   OH269516   0.691   6.019   3.221
16034TIP3    H169517   0.742   6.070   3.159
16034TIP3    H269518   0.602   6.018   3.184
16035TIP3   OH269519   0.808   6.545   3.234
16035TIP3    H169520   0.900   6.567   3.252
16035TIP3    H269521   0.774   6.622   3.189
16036TIP3   OH269522   1.252   6.320   3.720
16036TIP3    H169523   1.270   6.228   3.736
16036TIP3    H269524   1.333   6.365   3.743
16037TIP3   OH269525   1.393   6.624   3.537
16037TIP3    H169526   1.364   6.699   3.486
16037TIP3    H269527   1.488   6.627   3.533
16038TIP3   OH269528   0.433   6.306   3.628
16038TIP3    H169529   0.391   6.224   3.652
16038TIP3    H269530   0.515   6.279   3.586
16039TIP3   OH269531   0.749   5.750   3.278
16039TIP3    H169532   0.729   5.842   3.263
16039TIP3    H269533   0.677   5.702   3.238
16040TIP3   OH269534   0.866   6.158   3.621
16040TIP3    H169535   0.854   6.094   3.691
16040TIP3    H269536   0.781   6.161   3.577
16041TIP3   OH269537   1.131   6.076   3.535
16041TIP3    H169538   1.044   6.079   3.575
16041TIP3    H269539   1.186   6.031   3.600
16042TIP3   OH269540   1.332   5.973   3.712
16042TIP3    H169541   1.322   5.878   3.709
16042TIP3    H269542   1.317   5.996   3.804
16043TIP3   OH269543   0.301   6.060   3.655
16043TIP3    H169544   0.347   5.996   3.599
16043TIP3    H269545   0.314   6.027   3.744
16044TIP3   OH269546   0.751   5.671   3.540
16044TIP3    H169547   0.808   5.594   3.539
16044TIP3    H269548   0.746   5.699   3.449
16045TIP3   OH269549   0.892   5.862   3.689
16045TIP3    H169550   0.843   5.796   3.639
16045TIP3    H269551   0.848   5.865   3.774
16046TIP3   OH269552   0.141   7.017   1.964
16046TIP3    H169553   0.230   7.003   1.994
16046TIP3    H269554   0.123   6.943   1.905
16047TIP3   OH269555   1.630   6.937   3.776
16047TIP3    H169556   1.550   6.954   3.825
16047TIP3    H269557   1.682   7.017   3.786
16048TIP3   OH269558   1.778   6.769   2.307
16048TIP3    H169559   1.845   6.837   2.310
16048TIP3    H269560   1.797   6.714   2.384
16049TIP3   OH269561   1.836   6.571   2.496
16049TIP3    H169562   1.752   6.541   2.530
16049TIP3    H269563   1.889   6.588   2.573
16050TIP3   OH269564   1.810   6.868   3.006
16050TIP3    H169565   1.865   6.800   2.967
16050TIP3    H269566   1.852   6.950   2.980
16051TIP3   OH269567   1.563   7.165   3.200
16051TIP3    H169568   1.471   7.173   3.226
16051TIP3    H269569   1.560   7.147   3.106
16052TIP3   OH269570   1.821   6.573   2.123
16052TIP3    H169571   1.780   6.609   2.044
16052TIP3    H269572   1.803   6.638   2.190
16053TIP3   OH269573   1.716   6.280   1.929
16053TIP3    H169574   1.673   6.347   1.877
16053TIP3    H269575   1.680   6.197   1.897
16054TIP3   OH269576   1.584   6.455   2.550
16054TIP3    H169577   1.580   6.363   2.524
16054TIP3    H269578   1.542   6.457   2.636
16055TIP3   OH269579   0.109   6.654   2.928
16055TIP3    H169580   0.151   6.703   2.858
16055TIP3    H269581   0.181   6.624   2.983
16056TIP3   OH269582   1.669   6.636   3.521
16056TIP3    H169583   1.725   6.561   3.502
16056TIP3    H269584   1.722   6.712   3.500
16057TIP3   OH269585   1.810   6.402   3.494
16057TIP3    H169586   1.725   6.364   3.516
16057TIP3    H269587   1.874   6.335   3.519
16058TIP3   OH269588   1.598   6.043   1.833
16058TIP3    H169589   1.631   5.996   1.910
16058TIP3    H269590   1.506   6.017   1.827
16059TIP3   OH269591   1.562   6.208   2.365
16059TIP3    H169592   1.590   6.116   2.369
16059TIP3    H269593   1.633   6.252   2.319
16060TIP3   OH269594   1.593   6.241   2.930
16060TIP3    H169595   1.686   6.252   2.911
16060TIP3    H269596   1.585   6.260   3.024
16061TIP3   OH269597   1.617   6.327   3.195
16061TIP3    H169598   1.541   6.355   3.246
16061TIP3    H269599   1.670   6.405   3.186
16062TIP3   OH269600   0.072   6.152   3.544
16062TIP3    H169601   0.158   6.134   3.581
16062TIP3    H269602   0.010   6.116   3.608
16063TIP3   OH269603   1.823   5.723   3.692
16063TIP3    H169604   1.903   5.671   3.685
16063TIP3    H269605   1.850   5.812   3.669
16064TIP3   OH269606   1.625   5.937   2.380
16064TIP3    H169607   1.646   5.902   2.467
16064TIP3    H269608   1.556   5.880   2.347
16065TIP3   OH269609   0.182   6.024   2.836
16065TIP3    H169610   0.215   5.935   2.840
16065TIP3    H269611   0.258   6.079   2.856
16066TIP3   OH269612   0.019   6.394   2.963
16066TIP3    H169613   0.086   6.364   2.901
16066TIP3    H269614   0.036   6.487   2.973
16067TIP3   OH269615   1.803   5.953   3.531
16067TIP3    H169616   1.730   5.982   3.585
16067TIP3    H269617   1.764   5.891   3.469
16068TIP3   OH269618   1.757   5.926   2.029
16068TIP3    H169619   1.806   5.867   1.973
16068TIP3    H269620   1.823   5.978   2.074
16069TIP3   OH269621   0.128   5.914   2.268
16069TIP3    H169622   0.061   5.915   2.337
16069TIP3    H269623   0.121   6.000   2.227
16070TIP3   OH269624   0.045   5.805   3.202
16070TIP3    H169625   0.018   5.868   3.269
16070TIP3    H269626  -0.016   5.820   3.129
16071TIP3   OH269627   0.248   7.166   3.623
16071TIP3    H169628   0.174   7.218   3.593
16071TIP3    H269629   0.219   7.127   3.705
16072TIP3   OH269630   0.543   7.253   3.184
16072TIP3    H169631   0.448   7.257   3.193
16072TIP3    H269632   0.561   7.288   3.097
16073TIP3   OH269633   1.698   5.739   3.346
16073TIP3    H169634   1.627   5.754   3.283
16073TIP3    H269635   1.716   5.645   3.337
16074TIP3   OH269636   0.467   7.216   2.735
16074TIP3    H169637   0.433   7.139   2.781
16074TIP3    H269638   0.507   7.270   2.804
16075TIP3   OH269639   1.026   5.878   2.790
16075TIP3    H169640   0.967   5.808   2.820
16075TIP3    H269641   1.099   5.832   2.750
16076TIP3   OH269642   1.534   5.714   2.776
16076TIP3    H169643   1.599   5.771   2.735
16076TIP3    H269644   1.456   5.769   2.784
16077TIP3   OH269645   1.723   5.824   2.610
16077TIP3    H169646   1.787   5.755   2.592
16077TIP3    H269647   1.777   5.902   2.627
16078TIP3   OH269648   0.314   5.735   2.553
16078TIP3    H169649   0.225   5.727   2.519
16078TIP3    H269650   0.352   5.648   2.541
16079TIP3   OH269651   0.230   5.706   2.129
16079TIP3    H169652   0.278   5.759   2.065
16079TIP3    H269653   0.190   5.770   2.188
16080TIP3   OH269654   0.758   5.701   2.574
16080TIP3    H169655   0.828   5.754   2.537
16080TIP3    H269656   0.771   5.706   2.668
16081TIP3   OH269657   1.249   5.750   2.691
16081TIP3    H169658   1.300   5.723   2.614
16081TIP3    H269659   1.228   5.668   2.735
16082TIP3   OH269660   1.417   5.772   2.291
16082TIP3    H169661   1.343   5.830   2.308
16082TIP3    H269662   1.384   5.684   2.308
16083TIP3   OH269663   0.385   5.889   1.982
16083TIP3    H169664   0.445   5.842   1.923
16083TIP3    H269665   0.442   5.923   2.051
16084TIP3   OH269666   0.831   5.970   2.248
16084TIP3    H169667   0.864   5.901   2.305
16084TIP3    H269668   0.845   6.051   2.297
16085TIP3   OH269669   0.311   5.808   3.483
16085TIP3    H169670   0.246   5.749   3.522
16085TIP3    H269671   0.391   5.790   3.532
16086TIP3   OH269672   0.505   5.717   3.655
16086TIP3    H169673   0.595   5.712   3.622
16086TIP3    H269674   0.495   5.639   3.709
16087TIP3   OH269675   1.322   5.697   3.700
16087TIP3    H169676   1.311   5.648   3.781
16087TIP3    H269677   1.413   5.682   3.674
16088TIP3   OH269678   1.652   7.273   3.559
16088TIP3    H169679   1.563   7.267   3.595
16088TIP3    H269680   1.652   7.354   3.509
16089TIP3   OH269681   3.090   6.693   2.540
16089TIP3    H169682   3.081   6.787   2.526
16089TIP3    H269683   3.016   6.654   2.492
16090TIP3   OH269684   2.964   6.594   2.928
16090TIP3    H169685   2.986   6.559   3.014
16090TIP3    H269686   2.913   6.525   2.886
16091TIP3   OH269687   2.175   6.543   3.085
16091TIP3    H169688   2.179   6.458   3.129
16091TIP3    H269689   2.232   6.600   3.137
16092TIP3   OH269690   3.354   6.902   2.754
16092TIP3    H169691   3.312   6.829   2.799
16092TIP3    H269692   3.363   6.969   2.821
16093TIP3   OH269693   2.298   6.983   2.874
16093TIP3    H169694   2.266   6.896   2.854
16093TIP3    H269695   2.392   6.972   2.888
16094TIP3   OH269696   1.974   6.346   2.396
16094TIP3    H169697   1.946   6.427   2.438
16094TIP3    H269698   1.899   6.320   2.343
16095TIP3   OH269699   2.030   6.589   2.696
16095TIP3    H169700   2.056   6.500   2.720
16095TIP3    H269701   2.106   6.642   2.715
16096TIP3   OH269702   2.810   6.842   2.953
16096TIP3    H169703   2.844   6.760   2.914
16096TIP3    H269704   2.879   6.870   3.013
16097TIP3   OH269705   3.686   5.999   3.047
16097TIP3    H169706   3.702   6.061   3.119
16097TIP3    H269707   3.729   6.038   2.971
16098TIP3   OH269708   3.119   6.274   2.954
16098TIP3    H169709   3.131   6.181   2.970
16098TIP3    H269710   3.102   6.281   2.861
16099TIP3   OH269711   2.464   6.081   2.687
16099TIP3    H169712   2.471   6.167   2.644
16099TIP3    H269713   2.406   6.031   2.631
16100TIP3   OH269714   3.229   6.101   2.534
16100TIP3    H169715   3.271   6.069   2.614
16100TIP3    H269716   3.298   6.147   2.487
16101TIP3   OH269717   2.101   6.333   2.770
16101TIP3    H169718   2.165   6.296   2.830
16101TIP3    H269719   2.125   6.297   2.685
16102TIP3   OH269720   2.601   6.480   2.718
16102TIP3    H169721   2.681   6.440   2.753
16102TIP3    H269722   2.562   6.411   2.664
16103TIP3   OH269723   3.732   6.165   3.264
16103TIP3    H169724   3.649   6.211   3.253
16103TIP3    H269725   3.753   6.176   3.357
16104TIP3   OH269726   2.324   5.996   3.108
16104TIP3    H169727   2.298   6.059   3.041
16104TIP3    H269728   2.254   6.000   3.174
16105TIP3   OH269729   3.071   6.947   2.428
16105TIP3    H169730   3.041   6.943   2.338
16105TIP3    H269731   3.030   7.027   2.463
16106TIP3   OH269732   2.584   6.761   3.096
16106TIP3    H169733   2.527   6.830   3.130
16106TIP3    H269734   2.654   6.807   3.050
16107TIP3   OH269735   3.347   6.052   2.775
16107TIP3    H169736   3.277   6.026   2.835
16107TIP3    H269737   3.400   6.114   2.826
16108TIP3   OH269738   2.296   6.169   2.892
16108TIP3    H169739   2.349   6.227   2.947
16108TIP3    H269740   2.357   6.133   2.829
16109TIP3   OH269741   2.427   6.965   3.200
16109TIP3    H169742   2.436   7.058   3.179
16109TIP3    H269743   2.338   6.956   3.231
16110TIP3   OH269744   1.999   6.939   2.276
16110TIP3    H169745   1.981   6.979   2.191
16110TIP3    H269746   2.013   7.013   2.335
16111TIP3   OH269747   3.378   7.126   2.925
16111TIP3    H169748   3.290   7.127   2.962
16111TIP3    H269749   3.388   7.211   2.883
16112TIP3   OH269750   3.435   5.893   3.125
16112TIP3    H169751   3.366   5.944   3.082
16112TIP3    H269752   3.516   5.924   3.087
16113TIP3   OH269753   2.680   5.693   2.857
16113TIP3    H169754   2.655   5.600   2.860
16113TIP3    H269755   2.603   5.739   2.889
16114TIP3   OH269756   3.300   7.300   2.554
16114TIP3    H169757   3.306   7.208   2.529
16114TIP3    H269758   3.357   7.308   2.630
16115TIP3   OH269759   3.324   7.031   2.509
16115TIP3    H169760   3.244   6.991   2.474
16115TIP3    H269761   3.344   6.979   2.587
16116TIP3   OH269762   3.493   6.902   3.318
16116TIP3    H169763   3.479   6.843   3.245
16116TIP3    H269764   3.486   6.990   3.280
16117TIP3   OH269765   2.933   6.600   2.326
16117TIP3    H169766   2.867   6.663   2.297
16117TIP3    H269767   3.002   6.606   2.259
16118TIP3   OH269768   2.946   6.530   1.992
16118TIP3    H169769   3.014   6.543   2.057
16118TIP3    H269770   2.951   6.437   1.970
16119TIP3   OH269771   3.660   6.552   3.152
16119TIP3    H169772   3.586   6.612   3.147
16119TIP3    H269773   3.717   6.578   3.080
16120TIP3   OH269774   3.306   6.619   2.393
16120TIP3    H169775   3.237   6.644   2.454
16120TIP3    H269776   3.370   6.573   2.447
16121TIP3   OH269777   3.263   6.423   3.335
16121TIP3    H169778   3.262   6.493   3.400
16121TIP3    H269779   3.195   6.449   3.272
16122TIP3   OH269780   2.451   6.671   2.587
16122TIP3    H169781   2.430   6.631   2.502
16122TIP3    H269782   2.508   6.608   2.629
16123TIP3   OH269783   2.577   6.974   2.853
16123TIP3    H169784   2.594   7.010   2.766
16123TIP3    H269785   2.661   6.939   2.881
16124TIP3   OH269786   2.459   6.571   2.941
16124TIP3    H169787   2.519   6.552   2.869
16124TIP3    H269788   2.505   6.638   2.993
16125TIP3   OH269789   3.143   7.107   3.063
16125TIP3    H169790   3.131   7.132   3.155
16125TIP3    H269791   3.097   7.023   3.055
16126TIP3   OH269792   2.586   6.982   3.424
16126TIP3    H169793   2.523   7.038   3.469
16126TIP3    H269794   2.541   6.954   3.344
16127TIP3   OH269795   3.165   6.564   2.163
16127TIP3    H169796   3.219   6.595   2.236
16127TIP3    H269797   3.218   6.582   2.085
16128TIP3   OH269798   2.273   6.611   3.361
16128TIP3    H169799   2.283   6.684   3.422
16128TIP3    H269800   2.178   6.599   3.355
16129TIP3   OH269801   2.967   7.191   2.502
16129TIP3    H169802   2.952   7.252   2.575
16129TIP3    H269803   2.916   7.228   2.430
16130TIP3   OH269804   2.382   7.156   3.498
16130TIP3    H169805   2.362   7.192   3.412
16130TIP3    H269806   2.297   7.150   3.542
16131TIP3   OH269807   3.535   5.701   2.143
16131TIP3    H169808   3.448   5.723   2.176
16131TIP3    H269809   3.572   5.785   2.116
16132TIP3   OH269810   2.359   6.587   2.325
16132TIP3    H169811   2.304   6.657   2.290
16132TIP3    H269812   2.298   6.518   2.348
16133TIP3   OH269813   3.682   7.159   2.016
16133TIP3    H169814   3.707   7.245   1.983
16133TIP3    H269815   3.763   7.108   2.014
16134TIP3   OH269816   1.958   6.829   3.249
16134TIP3    H169817   1.904   6.835   3.170
16134TIP3    H269818   1.970   6.735   3.263
16135TIP3   OH269819   1.962   7.098   2.965
16135TIP3    H169820   2.057   7.090   2.978
16135TIP3    H269821   1.937   7.175   3.015
16136TIP3   OH269822   3.777   7.161   3.514
16136TIP3    H169823   3.755   7.068   3.520
16136TIP3    H269824   3.693   7.206   3.527
16137TIP3   OH269825   2.835   7.097   3.398
16137TIP3    H169826   2.824   7.176   3.451
16137TIP3    H269827   2.748   7.055   3.400
16138TIP3   OH269828   3.457   6.295   3.536
16138TIP3    H169829   3.379   6.328   3.491
16138TIP3    H269830   3.456   6.201   3.521
16139TIP3   OH269831   2.178   6.980   3.321
16139TIP3    H169832   2.203   6.941   3.405
16139TIP3    H269833   2.099   6.933   3.296
16140TIP3   OH269834   2.434   5.800   2.944
16140TIP3    H169835   2.357   5.792   2.888
16140TIP3    H269836   2.412   5.871   3.004
16141TIP3   OH269837   2.919   5.760   3.290
16141TIP3    H169838   2.966   5.716   3.360
16141TIP3    H269839   2.827   5.756   3.317
16142TIP3   OH269840   3.206   6.153   3.358
16142TIP3    H169841   3.140   6.139   3.426
16142TIP3    H269842   3.210   6.248   3.349
16143TIP3   OH269843   3.306   6.584   1.927
16143TIP3    H169844   3.285   6.604   1.836
16143TIP3    H269845   3.393   6.622   1.941
16144TIP3   OH269846   2.891   5.864   2.036
16144TIP3    H169847   2.846   5.913   2.105
16144TIP3    H269848   2.827   5.859   1.965
16145TIP3   OH269849   2.443   6.325   3.063
16145TIP3    H169850   2.378   6.327   3.134
16145TIP3    H269851   2.443   6.415   3.029
16146TIP3   OH269852   2.453   6.316   2.546
16146TIP3    H169853   2.357   6.308   2.548
16146TIP3    H269854   2.476   6.297   2.455
16147TIP3   OH269855   2.982   6.349   2.428
16147TIP3    H169856   2.959   6.437   2.398
16147TIP3    H269857   3.054   6.322   2.370
16148TIP3   OH269858   2.908   6.366   3.550
16148TIP3    H169859   2.857   6.294   3.587
16148TIP3    H269860   2.992   6.362   3.596
16149TIP3   OH269861   3.083   6.288   2.684
16149TIP3    H169862   3.037   6.335   2.615
16149TIP3    H269863   3.124   6.214   2.639
16150TIP3   OH269864   2.226   6.311   3.236
16150TIP3    H169865   2.239   6.349   3.323
16150TIP3    H269866   2.185   6.226   3.252
16151TIP3   OH269867   2.531   6.078   1.907
16151TIP3    H169868   2.501   6.024   1.981
16151TIP3    H269869   2.551   6.163   1.946
16152TIP3   OH269870   1.907   6.022   2.617
16152TIP3    H169871   1.949   6.035   2.702
16152TIP3    H269872   1.978   6.003   2.557
16153TIP3   OH269873   1.943   6.100   2.151
16153TIP3    H169874   2.014   6.144   2.103
16153TIP3    H269875   1.888   6.172   2.182
16154TIP3   OH269876   3.043   6.443   3.153
16154TIP3    H169877   3.077   6.385   3.085
16154TIP3    H269878   2.979   6.390   3.201
16155TIP3   OH269879   2.744   6.037   2.635
16155TIP3    H169880   2.656   6.045   2.671
16155TIP3    H269881   2.798   6.005   2.707
16156TIP3   OH269882   2.191   6.235   2.527
16156TIP3    H169883   2.116   6.261   2.474
16156TIP3    H269884   2.208   6.144   2.502
16157TIP3   OH269885   2.511   6.231   2.287
16157TIP3    H169886   2.603   6.226   2.313
16157TIP3    H269887   2.512   6.276   2.203
16158TIP3   OH269888   3.137   5.996   2.945
16158TIP3    H169889   3.106   5.990   3.036
16158TIP3    H269890   3.065   5.960   2.893
16159TIP3   OH269891   2.495   6.326   2.025
16159TIP3    H169892   2.426   6.345   1.962
16159TIP3    H269893   2.564   6.388   2.005
16160TIP3   OH269894   2.258   6.824   3.550
16160TIP3    H169895   2.324   6.818   3.619
16160TIP3    H269896   2.174   6.826   3.596
16161TIP3   OH269897   2.819   6.358   2.842
16161TIP3    H169898   2.891   6.303   2.809
16161TIP3    H269899   2.785   6.310   2.917
16162TIP3   OH269900   2.289   5.969   2.491
16162TIP3    H169901   2.239   5.891   2.514
16162TIP3    H269902   2.346   5.941   2.420
16163TIP3   OH269903   2.707   6.232   3.068
16163TIP3    H169904   2.623   6.277   3.076
16163TIP3    H269905   2.757   6.260   3.145
16164TIP3   OH269906   2.743   6.791   2.246
16164TIP3    H169907   2.671   6.756   2.193
16164TIP3    H269908   2.702   6.816   2.329
16165TIP3   OH269909   3.460   6.737   3.095
16165TIP3    H169910   3.518   6.792   3.043
16165TIP3    H269911   3.385   6.720   3.037
16166TIP3   OH269912   3.128   6.077   2.119
16166TIP3    H169913   3.065   6.110   2.055
16166TIP3    H269914   3.160   6.155   2.164
16167TIP3   OH269915   2.912   6.825   3.378
16167TIP3    H169916   2.928   6.784   3.462
16167TIP3    H269917   2.887   6.915   3.399
16168TIP3   OH269918   3.202   6.300   2.261
16168TIP3    H169919   3.288   6.296   2.303
16168TIP3    H269920   3.200   6.387   2.220
16169TIP3   OH269921   2.263   6.709   2.791
16169TIP3    H169922   2.327   6.710   2.719
16169TIP3    H269923   2.305   6.658   2.860
16170TIP3   OH269924   2.953   6.948   2.170
16170TIP3    H169925   2.924   7.038   2.182
16170TIP3    H269926   2.877   6.895   2.194
16171TIP3   OH269927   1.997   6.574   3.360
16171TIP3    H169928   2.000   6.554   3.453
16171TIP3    H269929   1.923   6.523   3.327
16172TIP3   OH269930   2.694   6.548   3.560
16172TIP3    H169931   2.627   6.504   3.506
16172TIP3    H269932   2.773   6.495   3.547
16173TIP3   OH269933   3.111   7.100   3.339
16173TIP3    H169934   3.016   7.106   3.351
16173TIP3    H269935   3.146   7.103   3.429
16174TIP3   OH269936   3.600   6.326   2.204
16174TIP3    H169937   3.586   6.381   2.127
16174TIP3    H269938   3.670   6.370   2.252
16175TIP3   OH269939   3.711   6.881   3.479
16175TIP3    H169940   3.623   6.901   3.448
16175TIP3    H269941   3.764   6.875   3.400
16176TIP3   OH269942   3.633   7.130   2.308
16176TIP3    H169943   3.552   7.088   2.336
16176TIP3    H269944   3.619   7.150   2.216
16177TIP3   OH269945   3.251   6.680   2.904
16177TIP3    H169946   3.156   6.671   2.906
16177TIP3    H269947   3.282   6.600   2.861
16178TIP3   OH269948   2.539   7.103   2.577
16178TIP3    H169949   2.586   7.184   2.558
16178TIP3    H269950   2.459   7.131   2.623
16179TIP3   OH269951   2.082   6.573   2.037
16179TIP3    H169952   2.134   6.637   2.085
16179TIP3    H269953   1.994   6.581   2.075
16180TIP3   OH269954   2.598   6.868   2.458
16180TIP3    H169955   2.581   6.953   2.499
16180TIP3    H269956   2.549   6.805   2.511
16181TIP3   OH269957   2.734   7.255   3.077
16181TIP3    H169958   2.716   7.314   3.151
16181TIP3    H269959   2.774   7.178   3.117
16182TIP3   OH269960   3.026   6.858   3.128
16182TIP3    H169961   2.982   6.849   3.212
16182TIP3    H269962   3.103   6.802   3.134
16183TIP3   OH269963   3.295   6.997   2.036
16183TIP3    H169964   3.317   6.934   2.105
16183TIP3    H269965   3.211   6.967   2.002
16184TIP3   OH269966   2.113   6.055   3.282
16184TIP3    H169967   2.022   6.082   3.276
16184TIP3    H269968   2.116   5.997   3.359
16185TIP3   OH269969   3.397   6.817   2.220
16185TIP3    H169970   3.354   6.763   2.287
16185TIP3    H269971   3.491   6.808   2.239
16186TIP3   OH269972   2.151   7.228   3.158
16186TIP3    H169973   2.132   7.159   3.221
16186TIP3    H269974   2.078   7.289   3.166
16187TIP3   OH269975   2.700   7.056   1.888
16187TIP3    H169976   2.702   6.972   1.842
16187TIP3    H269977   2.664   7.036   1.974
16188TIP3   OH269978   2.566   7.048   2.131
16188TIP3    H169979   2.584   6.987   2.203
16188TIP3    H269980   2.579   7.135   2.169
16189TIP3   OH269981   2.199   6.771   2.192
16189TIP3    H169982   2.128   6.816   2.239
16189TIP3    H269983   2.243   6.841   2.144
16190TIP3   OH269984   3.044   5.989   3.196
16190TIP3    H169985   3.095   6.029   3.267
16190TIP3    H269986   3.000   5.915   3.239
16191TIP3   OH269987   3.091   5.938   2.355
16191TIP3    H169988   3.092   5.982   2.269
16191TIP3    H269989   3.131   6.002   2.414
16192TIP3   OH269990   2.870   7.210   2.197
16192TIP3    H169991   2.782   7.246   2.208
16192TIP3    H269992   2.893   7.230   2.106
16193TIP3   OH269993   2.761   6.186   2.399
16193TIP3    H169994   2.837   6.244   2.406
16193TIP3    H269995   2.755   6.145   2.486
16194TIP3   OH269996   2.881   6.267   3.291
16194TIP3    H169997   2.883   6.304   3.379
16194TIP3    H269998   2.906   6.175   3.304
16195TIP3   OH269999   2.854   5.845   2.459
16195TIP3    H170000   2.830   5.914   2.521
16195TIP3    H270001   2.940   5.872   2.426
16196TIP3   OH270002   2.610  -0.003   2.240
16196TIP3    H170003   2.578   0.076   2.196
16196TIP3    H270004   2.593   0.014   2.333
16197TIP3   OH270005   2.455   5.987   2.161
16197TIP3    H170006   2.448   6.069   2.208
16197TIP3    H270007   2.541   5.953   2.183
16198TIP3   OH270008   3.452   6.041   3.374
16198TIP3    H170009   3.363   6.075   3.374
16198TIP3    H270010   3.458   5.988   3.295
16199TIP3   OH270011   3.326   6.431   2.783
16199TIP3    H170012   3.240   6.393   2.767
16199TIP3    H270013   3.369   6.370   2.842
16200TIP3   OH270014   2.294   6.988   2.036
16200TIP3    H170015   2.363   7.039   2.078
16200TIP3    H270016   2.339   6.933   1.973
16201TIP3   OH270017   2.023   6.309   1.973
16201TIP3    H170018   2.047   6.393   2.011
16201TIP3    H270019   1.927   6.310   1.969
16202TIP3   OH270020   2.188   5.771   2.820
16202TIP3    H170021   2.176   5.762   2.726
16202TIP3    H270022   2.158   5.687   2.857
16203TIP3   OH270023   2.017   7.200   2.381
16203TIP3    H170024   1.922   7.192   2.370
16203TIP3    H270025   2.045   7.259   2.311
16204TIP3   OH270026   2.523   7.267   3.705
16204TIP3    H170027   2.575   7.203   3.753
16204TIP3    H270028   2.472   7.214   3.643
16205TIP3   OH270029   2.916   7.234   1.926
16205TIP3    H170030   2.850   7.170   1.899
16205TIP3    H270031   2.914   7.301   1.857
16206TIP3   OH270032   3.193   7.070   3.597
16206TIP3    H170033   3.134   7.023   3.655
16206TIP3    H270034   3.254   7.116   3.655
16207TIP3   OH270035   3.379   7.254   1.998
16207TIP3    H170036   3.345   7.167   2.020
16207TIP3    H270037   3.444   7.238   1.930
16208TIP3   OH270038   2.009   6.816   3.674
16208TIP3    H170039   2.012   6.720   3.674
16208TIP3    H270040   1.933   6.837   3.620
16209TIP3   OH270041   2.433   6.806   1.888
16209TIP3    H170042   2.459   6.762   1.969
16209TIP3    H270043   2.513   6.812   1.837
16210TIP3   OH270044   2.675   6.820   3.631
16210TIP3    H170045   2.652   6.864   3.549
16210TIP3    H270046   2.693   6.729   3.605
16211TIP3   OH270047   3.056   6.921   1.912
16211TIP3    H170048   3.008   6.925   1.994
16211TIP3    H270049   3.020   6.845   1.866
16212TIP3   OH270050   3.229   6.830   3.368
16212TIP3    H170051   3.319   6.864   3.368
16212TIP3    H270052   3.173   6.907   3.366
16213TIP3   OH270053   2.087   6.537   3.636
16213TIP3    H170054   2.158   6.475   3.621
16213TIP3    H270055   2.084   6.547   3.731
16214TIP3   OH270056   2.526   6.678   2.116
16214TIP3    H170057   2.480   6.634   2.188
16214TIP3    H270058   2.573   6.607   2.071
16215TIP3   OH270059   2.495   6.438   3.369
16215TIP3    H170060   2.424   6.502   3.367
16215TIP3    H270061   2.560   6.472   3.307
16216TIP3   OH270062   2.673   6.513   1.951
16216TIP3    H170063   2.672   6.529   1.856
16216TIP3    H270064   2.765   6.518   1.975
16217TIP3   OH270065   3.002   6.690   3.670
16217TIP3    H170066   3.083   6.648   3.641
16217TIP3    H270067   2.965   6.628   3.733
16218TIP3   OH270068   3.562   6.689   1.899
16218TIP3    H170069   3.562   6.670   1.805
16218TIP3    H270070   3.557   6.784   1.905
16219TIP3   OH270071   2.542   6.179   3.452
16219TIP3    H170072   2.551   6.120   3.378
16219TIP3    H270073   2.527   6.265   3.413
16220TIP3   OH270074   2.576   6.018   3.217
16220TIP3    H170075   2.627   6.072   3.155
16220TIP3    H270076   2.488   6.015   3.180
16221TIP3   OH270077   2.695   6.541   3.216
16221TIP3    H170078   2.783   6.568   3.245
16221TIP3    H270079   2.658   6.619   3.175
16222TIP3   OH270080   3.133   6.333   3.719
16222TIP3    H170081   3.137   6.251   3.768
16222TIP3    H270082   3.213   6.380   3.744
16223TIP3   OH270083   3.286   6.621   3.534
16223TIP3    H170084   3.254   6.695   3.482
16223TIP3    H270085   3.381   6.628   3.528
16224TIP3   OH270086   2.373   6.245   3.669
16224TIP3    H170087   2.296   6.189   3.663
16224TIP3    H270088   2.425   6.223   3.592
16225TIP3   OH270089   2.633   5.747   3.274
16225TIP3    H170090   2.613   5.839   3.259
16225TIP3    H270091   2.558   5.700   3.237
16226TIP3   OH270092   2.758   6.150   3.625
16226TIP3    H170093   2.721   6.121   3.708
16226TIP3    H270094   2.684   6.153   3.565
16227TIP3   OH270095   3.009   6.071   3.524
16227TIP3    H170096   2.925   6.081   3.569
16227TIP3    H270097   3.067   6.030   3.589
16228TIP3   OH270098   3.212   5.969   3.697
16228TIP3    H170099   3.203   5.874   3.707
16228TIP3    H270100   3.179   6.005   3.780
16229TIP3   OH270101   2.180   6.043   3.633
16229TIP3    H170102   2.179   5.960   3.585
16229TIP3    H270103   2.193   6.018   3.725
16230TIP3   OH270104   2.648   5.680   3.542
16230TIP3    H170105   2.700   5.600   3.539
16230TIP3    H270106   2.634   5.703   3.450
16231TIP3   OH270107   2.711   5.849   3.749
16231TIP3    H170108   2.688   5.794   3.674
16231TIP3    H270109   2.642   5.915   3.752
16232TIP3   OH270110   2.017   7.021   2.004
16232TIP3    H170111   2.111   7.022   2.020
16232TIP3    H270112   2.005   6.955   1.935
16233TIP3   OH270113   3.528   6.945   3.774
16233TIP3    H170114   3.445   6.959   3.819
16233TIP3    H270115   3.575   7.027   3.785
16234TIP3   OH270116   3.660   6.755   2.302
16234TIP3    H170117   3.732   6.818   2.301
16234TIP3    H270118   3.680   6.697   2.375
16235TIP3   OH270119   3.725   6.551   2.488
16235TIP3    H170120   3.638   6.530   2.524
16235TIP3    H270121   3.777   6.576   2.564
16236TIP3   OH270122   3.686   6.867   2.997
16236TIP3    H170123   3.740   6.793   2.967
16236TIP3    H270124   3.677   6.922   2.919
16237TIP3   OH270125   3.445   7.145   3.201
16237TIP3    H170126   3.358   7.170   3.234
16237TIP3    H270127   3.433   7.138   3.106
16238TIP3   OH270128   3.712   6.578   2.100
16238TIP3    H170129   3.662   6.612   2.025
16238TIP3    H270130   3.691   6.637   2.172
16239TIP3   OH270131   3.551   6.321   1.930
16239TIP3    H170132   3.584   6.381   1.863
16239TIP3    H270133   3.460   6.305   1.904
16240TIP3   OH270134   3.471   6.454   2.550
16240TIP3    H170135   3.458   6.364   2.518
16240TIP3    H270136   3.426   6.456   2.635
16241TIP3   OH270137   1.953   6.637   2.958
16241TIP3    H170138   1.968   6.625   2.864
16241TIP3    H270139   2.035   6.611   2.999
16242TIP3   OH270140   3.563   6.638   3.521
16242TIP3    H170141   3.619   6.563   3.504
16242TIP3    H270142   3.616   6.714   3.496
16243TIP3   OH270143   3.703   6.403   3.498
16243TIP3    H170144   3.616   6.367   3.513
16243TIP3    H270145   3.763   6.332   3.521
16244TIP3   OH270146   3.461   6.030   1.916
16244TIP3    H170147   3.485   5.950   1.868
16244TIP3    H270148   3.367   6.039   1.901
16245TIP3   OH270149   3.445   6.211   2.395
16245TIP3    H170150   3.474   6.120   2.393
16245TIP3    H270151   3.501   6.255   2.331
16246TIP3   OH270152   3.479   6.243   2.930
16246TIP3    H170153   3.572   6.255   2.911
16246TIP3    H270154   3.471   6.262   3.023
16247TIP3   OH270155   3.503   6.326   3.196
16247TIP3    H170156   3.426   6.353   3.245
16247TIP3    H270157   3.557   6.405   3.190
16248TIP3   OH270158   1.957   6.175   3.537
16248TIP3    H170159   2.040   6.151   3.579
16248TIP3    H270160   1.902   6.097   3.547
16249TIP3   OH270161   3.743   5.755   3.723
16249TIP3    H170162   3.805   5.690   3.691
16249TIP3    H270163   3.740   5.821   3.654
16250TIP3   OH270164   3.521   5.943   2.369
16250TIP3    H170165   3.539   5.909   2.457
16250TIP3    H270166   3.449   5.888   2.337
16251TIP3   OH270167   2.059   6.018   2.846
16251TIP3    H170168   2.097   5.930   2.853
16251TIP3    H270169   2.130   6.077   2.871
16252TIP3   OH270170   1.864   6.292   2.920
16252TIP3    H170171   1.939   6.302   2.861
16252TIP3    H270172   1.881   6.353   2.992
16253TIP3   OH270173   3.674   5.944   3.538
16253TIP3    H170174   3.603   5.981   3.591
16253TIP3    H270175   3.631   5.911   3.459
16254TIP3   OH270176   3.701   5.909   2.045
16254TIP3    H170177   3.714   5.855   1.968
16254TIP3    H270178   3.771   5.883   2.105
16255TIP3   OH270179   1.909   5.887   2.317
16255TIP3    H170180   1.819   5.897   2.349
16255TIP3    H270181   1.928   5.970   2.272
16256TIP3   OH270182   1.906   5.763   3.150
16256TIP3    H170183   1.851   5.761   3.228
16256TIP3    H270184   1.881   5.844   3.105
16257TIP3   OH270185   2.143   7.174   3.640
16257TIP3    H170186   2.062   7.175   3.589
16257TIP3    H270187   2.118   7.137   3.724
16258TIP3   OH270188   2.422   7.249   3.180
16258TIP3    H170189   2.327   7.250   3.173
16258TIP3    H270190   2.453   7.278   3.094
16259TIP3   OH270191   3.582   5.729   3.350
16259TIP3    H170192   3.504   5.744   3.296
16259TIP3    H270193   3.603   5.637   3.336
16260TIP3   OH270194   2.344   7.214   2.737
16260TIP3    H170195   2.315   7.135   2.784
16260TIP3    H270196   2.383   7.269   2.805
16261TIP3   OH270197   2.911   5.883   2.796
16261TIP3    H170198   2.853   5.813   2.824
16261TIP3    H270199   2.986   5.838   2.757
16262TIP3   OH270200   3.421   5.711   2.761
16262TIP3    H170201   3.483   5.775   2.724
16262TIP3    H270202   3.339   5.759   2.767
16263TIP3   OH270203   3.614   5.845   2.608
16263TIP3    H170204   3.676   5.773   2.595
16263TIP3    H270205   3.669   5.921   2.625
16264TIP3   OH270206   2.154   5.733   2.546
16264TIP3    H170207   2.061   5.714   2.531
16264TIP3    H270208   2.197   5.647   2.542
16265TIP3   OH270209   2.037   5.727   2.131
16265TIP3    H170210   2.100   5.787   2.091
16265TIP3    H270211   1.996   5.778   2.201
16266TIP3   OH270212   2.638   5.703   2.574
16266TIP3    H170213   2.710   5.752   2.534
16266TIP3    H270214   2.654   5.709   2.668
16267TIP3   OH270215   3.139   5.760   2.697
16267TIP3    H170216   3.162   5.742   2.606
16267TIP3    H270217   3.117   5.674   2.735
16268TIP3   OH270218   3.311   5.778   2.287
16268TIP3    H170219   3.235   5.835   2.297
16268TIP3    H270220   3.276   5.690   2.299
16269TIP3   OH270221   2.248   5.887   2.001
16269TIP3    H170222   2.297   5.829   1.944
16269TIP3    H270223   2.311   5.917   2.066
16270TIP3   OH270224   2.719   5.962   2.242
16270TIP3    H170225   2.753   5.899   2.306
16270TIP3    H270226   2.738   6.047   2.281
16271TIP3   OH270227   2.166   5.791   3.493
16271TIP3    H170228   2.106   5.726   3.530
16271TIP3    H270229   2.248   5.777   3.541
16272TIP3   OH270230   2.371   5.727   3.666
16272TIP3    H170231   2.460   5.695   3.652
16272TIP3    H270232   2.328   5.659   3.718
16273TIP3   OH270233   3.223   5.692   3.698
16273TIP3    H170234   3.209   5.645   3.780
16273TIP3    H270235   3.316   5.680   3.679
16274TIP3   OH270236   3.519   7.275   3.555
16274TIP3    H170237   3.477   7.222   3.623
16274TIP3    H270238   3.479   7.361   3.564
16275TIP3   OH270239   4.965   6.684   2.532
16275TIP3    H170240   4.949   6.778   2.528
16275TIP3    H270241   4.893   6.645   2.483
16276TIP3   OH270242   4.845   6.598   2.930
16276TIP3    H170243   4.869   6.559   3.014
16276TIP3    H270244   4.797   6.528   2.884
16277TIP3   OH270245   4.052   6.539   3.079
16277TIP3    H170246   4.057   6.458   3.130
16277TIP3    H270247   4.122   6.594   3.114
16278TIP3   OH270248   5.222   6.904   2.742
16278TIP3    H170249   5.187   6.828   2.789
16278TIP3    H270250   5.249   6.965   2.810
16279TIP3   OH270251   4.186   6.984   2.865
16279TIP3    H170252   4.160   6.894   2.845
16279TIP3    H270253   4.278   6.977   2.890
16280TIP3   OH270254   3.823   6.300   2.411
16280TIP3    H170255   3.801   6.390   2.436
16280TIP3    H270256   3.787   6.247   2.482
16281TIP3   OH270257   3.914   6.588   2.695
16281TIP3    H170258   3.942   6.499   2.715
16281TIP3    H270259   3.991   6.642   2.711
16282TIP3   OH270260   4.691   6.851   2.946
16282TIP3    H170261   4.723   6.772   2.904
16282TIP3    H270262   4.760   6.876   3.007
16283TIP3   OH270263   5.563   6.005   3.047
16283TIP3    H170264   5.584   6.064   3.119
16283TIP3    H270265   5.612   6.041   2.972
16284TIP3   OH270266   5.003   6.275   2.955
16284TIP3    H170267   5.020   6.182   2.971
16284TIP3    H270268   4.985   6.280   2.861
16285TIP3   OH270269   4.338   6.082   2.693
16285TIP3    H170270   4.349   6.165   2.647
16285TIP3    H270271   4.287   6.028   2.632
16286TIP3   OH270272   5.125   6.110   2.526
16286TIP3    H170273   5.166   6.079   2.607
16286TIP3    H270274   5.197   6.151   2.478
16287TIP3   OH270275   3.987   6.331   2.760
16287TIP3    H170276   4.048   6.293   2.823
16287TIP3    H270277   4.013   6.294   2.676
16288TIP3   OH270278   4.479   6.478   2.724
16288TIP3    H170279   4.561   6.441   2.756
16288TIP3    H270280   4.442   6.410   2.669
16289TIP3   OH270281   5.618   6.164   3.266
16289TIP3    H170282   5.535   6.211   3.255
16289TIP3    H270283   5.639   6.173   3.359
16290TIP3   OH270284   4.210   5.994   3.107
16290TIP3    H170285   4.183   6.055   3.038
16290TIP3    H270286   4.140   5.999   3.172
16291TIP3   OH270287   4.893   6.936   2.448
16291TIP3    H170288   4.900   6.950   2.353
16291TIP3    H270289   4.871   7.022   2.483
16292TIP3   OH270290   4.477   6.754   3.093
16292TIP3    H170291   4.421   6.821   3.130
16292TIP3    H270292   4.546   6.802   3.047
16293TIP3   OH270293   5.230   6.060   2.773
16293TIP3    H170294   5.165   6.033   2.839
16293TIP3    H270295   5.289   6.118   2.820
16294TIP3   OH270296   4.173   6.170   2.895
16294TIP3    H170297   4.228   6.227   2.949
16294TIP3    H270298   4.233   6.132   2.830
16295TIP3   OH270299   4.313   6.945   3.203
16295TIP3    H170300   4.320   7.040   3.189
16295TIP3    H270301   4.224   6.932   3.235
16296TIP3   OH270302   3.882   6.919   2.265
16296TIP3    H170303   3.873   6.955   2.177
16296TIP3    H270304   3.894   6.995   2.321
16297TIP3   OH270305   5.261   7.115   2.930
16297TIP3    H170306   5.173   7.119   2.966
16297TIP3    H270307   5.268   7.190   2.872
16298TIP3   OH270308   5.314   5.900   3.127
16298TIP3    H170309   5.247   5.949   3.079
16298TIP3    H270310   5.397   5.929   3.089
16299TIP3   OH270311   4.563   5.685   2.853
16299TIP3    H170312   4.542   5.592   2.859
16299TIP3    H270313   4.485   5.730   2.886
16300TIP3   OH270314   5.127   7.262   2.549
16300TIP3    H170315   5.155   7.174   2.524
16300TIP3    H270316   5.183   7.285   2.623
16301TIP3   OH270317   5.232   7.020   2.488
16301TIP3    H170318   5.235   6.953   2.421
16301TIP3    H270319   5.228   6.971   2.571
16302TIP3   OH270320   5.372   6.914   3.312
16302TIP3    H170321   5.369   6.855   3.237
16302TIP3    H270322   5.379   7.002   3.273
16303TIP3   OH270323   4.812   6.595   2.312
16303TIP3    H170324   4.751   6.665   2.289
16303TIP3    H270325   4.883   6.604   2.249
16304TIP3   OH270326   4.843   6.471   1.977
16304TIP3    H170327   4.897   6.496   2.052
16304TIP3    H270328   4.896   6.406   1.930
16305TIP3   OH270329   5.539   6.552   3.151
16305TIP3    H170330   5.468   6.616   3.144
16305TIP3    H270331   5.601   6.579   3.083
16306TIP3   OH270332   5.183   6.606   2.388
16306TIP3    H170333   5.114   6.632   2.449
16306TIP3    H270334   5.247   6.562   2.442
16307TIP3   OH270335   5.148   6.422   3.340
16307TIP3    H170336   5.148   6.493   3.404
16307TIP3    H270337   5.082   6.449   3.275
16308TIP3   OH270338   4.335   6.670   2.583
16308TIP3    H170339   4.313   6.631   2.499
16308TIP3    H270340   4.391   6.606   2.626
16309TIP3   OH270341   4.472   7.017   2.862
16309TIP3    H170342   4.476   7.028   2.767
16309TIP3    H270343   4.549   6.964   2.884
16310TIP3   OH270344   4.337   6.572   2.943
16310TIP3    H170345   4.394   6.547   2.870
16310TIP3    H270346   4.390   6.633   2.994
16311TIP3   OH270347   5.025   7.109   3.070
16311TIP3    H170348   5.017   7.126   3.164
16311TIP3    H270349   4.980   7.026   3.057
16312TIP3   OH270350   4.478   6.981   3.421
16312TIP3    H170351   4.417   7.042   3.463
16312TIP3    H270352   4.430   6.948   3.345
16313TIP3   OH270353   5.045   6.552   2.156
16313TIP3    H170354   5.098   6.582   2.230
16313TIP3    H270355   5.098   6.571   2.079
16314TIP3   OH270356   4.156   6.616   3.364
16314TIP3    H170357   4.163   6.687   3.427
16314TIP3    H270358   4.062   6.602   3.354
16315TIP3   OH270359   4.854   7.205   2.515
16315TIP3    H170360   4.946   7.228   2.528
16315TIP3    H270361   4.815   7.283   2.477
16316TIP3   OH270362   4.297   7.180   3.488
16316TIP3    H170363   4.281   7.194   3.394
16316TIP3    H270364   4.210   7.175   3.526
16317TIP3   OH270365   5.413   5.696   2.146
16317TIP3    H170366   5.329   5.724   2.182
16317TIP3    H270367   5.457   5.777   2.123
16318TIP3   OH270368   4.257   6.583   2.324
16318TIP3    H170369   4.197   6.648   2.287
16318TIP3    H270370   4.212   6.499   2.313
16319TIP3   OH270371   5.535   7.147   1.966
16319TIP3    H170372   5.516   7.214   2.033
16319TIP3    H270373   5.623   7.116   1.988
16320TIP3   OH270374   3.844   6.838   3.243
16320TIP3    H170375   3.786   6.842   3.167
16320TIP3    H270376   3.855   6.745   3.260
16321TIP3   OH270377   3.854   7.194   2.885
16321TIP3    H170378   3.919   7.124   2.892
16321TIP3    H270379   3.815   7.199   2.972
16322TIP3   OH270380   5.651   7.142   3.558
16322TIP3    H170381   5.630   7.050   3.546
16322TIP3    H270382   5.566   7.186   3.564
16323TIP3   OH270383   4.724   7.097   3.404
16323TIP3    H170384   4.711   7.169   3.466
16323TIP3    H270385   4.640   7.051   3.402
16324TIP3   OH270386   5.333   6.297   3.540
16324TIP3    H170387   5.266   6.330   3.481
16324TIP3    H270388   5.338   6.203   3.521
16325TIP3   OH270389   4.065   6.983   3.321
16325TIP3    H170390   4.087   6.944   3.406
16325TIP3    H270391   3.985   6.938   3.294
16326TIP3   OH270392   4.318   5.797   2.941
16326TIP3    H170393   4.240   5.789   2.886
16326TIP3    H270394   4.297   5.868   3.001
16327TIP3   OH270395   4.802   5.768   3.288
16327TIP3    H170396   4.851   5.718   3.354
16327TIP3    H270397   4.711   5.757   3.314
16328TIP3   OH270398   5.083   6.152   3.353
16328TIP3    H170399   5.023   6.137   3.426
16328TIP3    H270400   5.093   6.247   3.349
16329TIP3   OH270401   5.193   6.576   1.926
16329TIP3    H170402   5.174   6.603   1.837
16329TIP3    H270403   5.283   6.605   1.942
16330TIP3   OH270404   4.747   6.009   2.018
16330TIP3    H170405   4.693   6.001   2.097
16330TIP3    H270406   4.710   5.944   1.958
16331TIP3   OH270407   4.326   6.324   3.062
16331TIP3    H170408   4.262   6.325   3.133
16331TIP3    H270409   4.326   6.413   3.028
16332TIP3   OH270410   4.335   6.317   2.550
16332TIP3    H170411   4.240   6.308   2.546
16332TIP3    H270412   4.364   6.298   2.461
16333TIP3   OH270413   4.872   6.351   2.426
16333TIP3    H170414   4.846   6.437   2.392
16333TIP3    H270415   4.942   6.322   2.367
16334TIP3   OH270416   4.797   6.362   3.548
16334TIP3    H170417   4.746   6.289   3.584
16334TIP3    H270418   4.881   6.357   3.594
16335TIP3   OH270419   4.972   6.288   2.682
16335TIP3    H170420   4.926   6.336   2.613
16335TIP3    H270421   5.016   6.217   2.637
16336TIP3   OH270422   4.110   6.313   3.236
16336TIP3    H170423   4.135   6.345   3.323
16336TIP3    H270424   4.070   6.227   3.252
16337TIP3   OH270425   4.432   6.058   1.906
16337TIP3    H170426   4.400   6.045   1.995
16337TIP3    H270427   4.373   6.123   1.868
16338TIP3   OH270428   3.808   6.053   2.593
16338TIP3    H170429   3.845   6.053   2.681
16338TIP3    H270430   3.865   5.995   2.542
16339TIP3   OH270431   3.831   6.149   2.179
16339TIP3    H170432   3.886   6.188   2.111
16339TIP3    H270433   3.836   6.210   2.252
16340TIP3   OH270434   4.926   6.445   3.153
16340TIP3    H170435   4.962   6.388   3.084
16340TIP3    H270436   4.865   6.390   3.201
16341TIP3   OH270437   4.618   6.070   2.647
16341TIP3    H170438   4.530   6.063   2.683
16341TIP3    H270439   4.671   6.010   2.699
16342TIP3   OH270440   4.076   6.229   2.518
16342TIP3    H170441   4.000   6.244   2.462
16342TIP3    H270442   4.101   6.139   2.501
16343TIP3   OH270443   4.393   6.241   2.293
16343TIP3    H170444   4.487   6.237   2.310
16343TIP3    H270445   4.386   6.283   2.207
16344TIP3   OH270446   5.035   5.994   2.959
16344TIP3    H170447   4.990   5.996   3.043
16344TIP3    H270448   4.982   5.937   2.904
16345TIP3   OH270449   4.353   6.337   2.038
16345TIP3    H170450   4.302   6.314   1.961
16345TIP3    H270451   4.429   6.384   2.004
16346TIP3   OH270452   4.144   6.830   3.552
16346TIP3    H170453   4.209   6.822   3.621
16346TIP3    H270454   4.059   6.827   3.597
16347TIP3   OH270455   4.704   6.361   2.841
16347TIP3    H170456   4.768   6.304   2.798
16347TIP3    H270457   4.671   6.310   2.914
16348TIP3   OH270458   4.174   5.968   2.490
16348TIP3    H170459   4.126   5.888   2.513
16348TIP3    H270460   4.233   5.940   2.419
16349TIP3   OH270461   4.591   6.229   3.063
16349TIP3    H170462   4.506   6.273   3.073
16349TIP3    H270463   4.641   6.256   3.140
16350TIP3   OH270464   4.633   6.801   2.237
16350TIP3    H170465   4.562   6.759   2.187
16350TIP3    H270466   4.593   6.823   2.321
16351TIP3   OH270467   5.347   6.747   3.089
16351TIP3    H170468   5.411   6.798   3.039
16351TIP3    H270469   5.276   6.730   3.027
16352TIP3   OH270470   5.005   6.062   2.094
16352TIP3    H170471   4.912   6.059   2.069
16352TIP3    H270472   5.016   6.149   2.133
16353TIP3   OH270473   4.800   6.820   3.379
16353TIP3    H170474   4.824   6.771   3.458
16353TIP3    H270475   4.778   6.907   3.410
16354TIP3   OH270476   5.077   6.286   2.242
16354TIP3    H170477   5.164   6.271   2.279
16354TIP3    H270478   5.080   6.376   2.209
16355TIP3   OH270479   4.150   6.712   2.786
16355TIP3    H170480   4.212   6.710   2.713
16355TIP3    H270481   4.192   6.659   2.854
16356TIP3   OH270482   4.855   6.945   2.157
16356TIP3    H170483   4.824   7.036   2.163
16356TIP3    H270484   4.779   6.893   2.185
16357TIP3   OH270485   3.877   6.581   3.353
16357TIP3    H170486   3.873   6.549   3.443
16357TIP3    H270487   3.806   6.536   3.308
16358TIP3   OH270488   4.581   6.540   3.561
16358TIP3    H170489   4.517   6.497   3.504
16358TIP3    H270490   4.662   6.490   3.547
16359TIP3   OH270491   4.995   7.104   3.344
16359TIP3    H170492   4.899   7.098   3.350
16359TIP3    H270493   5.024   7.111   3.435
16360TIP3   OH270494   5.536   6.324   2.192
16360TIP3    H170495   5.493   6.301   2.109
16360TIP3    H270496   5.563   6.415   2.180
16361TIP3   OH270497   5.587   6.875   3.480
16361TIP3    H170498   5.502   6.899   3.444
16361TIP3    H270499   5.644   6.869   3.404
16362TIP3   OH270500   5.521   7.154   2.320
16362TIP3    H170501   5.447   7.102   2.351
16362TIP3    H270502   5.483   7.215   2.257
16363TIP3   OH270503   5.134   6.680   2.900
16363TIP3    H170504   5.039   6.668   2.898
16363TIP3    H270505   5.169   6.601   2.859
16364TIP3   OH270506   4.426   7.097   2.594
16364TIP3    H170507   4.471   7.176   2.565
16364TIP3    H270508   4.333   7.122   2.596
16365TIP3   OH270509   3.979   6.551   2.038
16365TIP3    H170510   4.026   6.618   2.088
16365TIP3    H270511   3.888   6.561   2.064
16366TIP3   OH270512   4.486   6.867   2.455
16366TIP3    H170513   4.477   6.948   2.505
16366TIP3    H270514   4.437   6.802   2.505
16367TIP3   OH270515   4.590   7.281   3.166
16367TIP3    H170516   4.661   7.341   3.188
16367TIP3    H270517   4.624   7.195   3.191
16368TIP3   OH270518   4.904   6.861   3.125
16368TIP3    H170519   4.867   6.844   3.212
16368TIP3    H270520   4.973   6.795   3.115
16369TIP3   OH270521   5.173   6.979   2.062
16369TIP3    H170522   5.212   6.936   2.138
16369TIP3    H270523   5.078   6.965   2.073
16370TIP3   OH270524   4.001   6.055   3.281
16370TIP3    H170525   3.909   6.081   3.272
16370TIP3    H270526   4.002   5.993   3.354
16371TIP3   OH270527   5.281   6.838   2.276
16371TIP3    H170528   5.243   6.758   2.312
16371TIP3    H270529   5.376   6.824   2.279
16372TIP3   OH270530   4.039   7.254   3.142
16372TIP3    H170531   4.029   7.178   3.199
16372TIP3    H270532   3.960   7.305   3.155
16373TIP3   OH270533   4.581   7.062   1.889
16373TIP3    H170534   4.591   6.977   1.844
16373TIP3    H270535   4.547   7.039   1.976
16374TIP3   OH270536   4.448   7.047   2.134
16374TIP3    H170537   4.485   6.988   2.200
16374TIP3    H270538   4.464   7.135   2.168
16375TIP3   OH270539   4.090   6.758   2.189
16375TIP3    H170540   4.017   6.801   2.232
16375TIP3    H270541   4.135   6.828   2.141
16376TIP3   OH270542   4.906   6.007   3.198
16376TIP3    H170543   4.970   6.038   3.261
16376TIP3    H270544   4.870   5.927   3.236
16377TIP3   OH270545   4.983   5.948   2.350
16377TIP3    H170546   4.991   5.990   2.264
16377TIP3    H270547   5.024   6.010   2.410
16378TIP3   OH270548   4.752   7.198   2.160
16378TIP3    H170549   4.672   7.245   2.183
16378TIP3    H270550   4.778   7.234   2.076
16379TIP3   OH270551   4.647   6.193   2.403
16379TIP3    H170552   4.724   6.249   2.411
16379TIP3    H270553   4.636   6.155   2.490
16380TIP3   OH270554   4.765   6.263   3.283
16380TIP3    H170555   4.772   6.287   3.375
16380TIP3    H270556   4.798   6.174   3.278
16381TIP3   OH270557   4.751   5.842   2.457
16381TIP3    H170558   4.752   5.879   2.545
16381TIP3    H270559   4.831   5.874   2.416
16382TIP3   OH270560   4.499   0.003   2.228
16382TIP3    H170561   4.467   0.081   2.182
16382TIP3    H270562   4.488   0.023   2.321
16383TIP3   OH270563   4.337   5.998   2.162
16383TIP3    H170564   4.331   6.082   2.209
16383TIP3    H270565   4.422   5.962   2.187
16384TIP3   OH270566   5.333   6.050   3.380
16384TIP3    H170567   5.242   6.078   3.372
16384TIP3    H270568   5.348   5.995   3.303
16385TIP3   OH270569   5.212   6.431   2.783
16385TIP3    H170570   5.127   6.390   2.768
16385TIP3    H270571   5.258   6.371   2.842
16386TIP3   OH270572   4.186   6.978   2.037
16386TIP3    H170573   4.259   7.023   2.079
16386TIP3    H270574   4.228   6.922   1.971
16387TIP3   OH270575   3.941   6.285   1.974
16387TIP3    H170576   3.968   6.373   1.998
16387TIP3    H270577   3.932   6.287   1.879
16388TIP3   OH270578   4.067   5.771   2.822
16388TIP3    H170579   4.059   5.757   2.728
16388TIP3    H270580   4.038   5.688   2.861
16389TIP3   OH270581   3.893   7.175   2.377
16389TIP3    H170582   3.799   7.164   2.363
16389TIP3    H270583   3.921   7.233   2.307
16390TIP3   OH270584   4.396   7.277   3.807
16390TIP3    H170585   4.410   7.256   3.899
16390TIP3    H270586   4.406   7.194   3.761
16391TIP3   OH270587   4.815   7.229   1.885
16391TIP3    H170588   4.732   7.182   1.879
16391TIP3    H270589   4.877   7.174   1.836
16392TIP3   OH270590   5.035   7.099   3.611
16392TIP3    H170591   4.997   7.027   3.661
16392TIP3    H270592   5.109   7.128   3.664
16393TIP3   OH270593   5.223   7.201   1.901
16393TIP3    H170594   5.210   7.138   1.971
16393TIP3    H270595   5.318   7.212   1.897
16394TIP3   OH270596   3.896   6.815   3.675
16394TIP3    H170597   3.897   6.719   3.675
16394TIP3    H270598   3.820   6.838   3.621
16395TIP3   OH270599   4.322   6.798   1.883
16395TIP3    H170600   4.346   6.750   1.962
16395TIP3    H270601   4.404   6.807   1.835
16396TIP3   OH270602   4.558   6.812   3.624
16396TIP3    H170603   4.538   6.852   3.539
16396TIP3    H270604   4.579   6.721   3.603
16397TIP3   OH270605   4.894   6.927   1.881
16397TIP3    H170606   4.872   6.924   1.974
16397TIP3    H270607   4.882   6.837   1.851
16398TIP3   OH270608   5.117   6.839   3.381
16398TIP3    H170609   5.207   6.867   3.366
16398TIP3    H270610   5.064   6.917   3.363
16399TIP3   OH270611   3.979   6.537   3.639
16399TIP3    H170612   4.050   6.476   3.622
16399TIP3    H270613   3.977   6.545   3.735
16400TIP3   OH270614   4.424   6.668   2.109
16400TIP3    H170615   4.377   6.627   2.182
16400TIP3    H270616   4.469   6.595   2.066
16401TIP3   OH270617   4.370   6.435   3.370
16401TIP3    H170618   4.302   6.502   3.368
16401TIP3    H270619   4.437   6.466   3.309
16402TIP3   OH270620   4.566   6.486   1.953
16402TIP3    H170621   4.564   6.512   1.861
16402TIP3    H270622   4.659   6.475   1.973
16403TIP3   OH270623   4.890   6.679   3.664
16403TIP3    H170624   4.974   6.645   3.635
16403TIP3    H270625   4.858   6.615   3.727
16404TIP3   OH270626   5.454   6.667   1.909
16404TIP3    H170627   5.458   6.646   1.816
16404TIP3    H270628   5.441   6.762   1.911
16405TIP3   OH270629   4.421   6.177   3.457
16405TIP3    H170630   4.434   6.118   3.383
16405TIP3    H270631   4.407   6.263   3.416
16406TIP3   OH270632   4.459   6.021   3.221
16406TIP3    H170633   4.512   6.070   3.157
16406TIP3    H270634   4.373   6.015   3.180
16407TIP3   OH270635   4.575   6.532   3.222
16407TIP3    H170636   4.668   6.545   3.237
16407TIP3    H270637   4.547   6.613   3.178
16408TIP3   OH270638   5.024   6.321   3.720
16408TIP3    H170639   5.044   6.228   3.735
16408TIP3    H270640   5.105   6.367   3.738
16409TIP3   OH270641   5.169   6.623   3.536
16409TIP3    H170642   5.141   6.700   3.487
16409TIP3    H270643   5.265   6.626   3.533
16410TIP3   OH270644   4.252   6.244   3.673
16410TIP3    H170645   4.175   6.188   3.666
16410TIP3    H270646   4.304   6.223   3.595
16411TIP3   OH270647   4.518   5.753   3.284
16411TIP3    H170648   4.498   5.844   3.265
16411TIP3    H270649   4.448   5.703   3.243
16412TIP3   OH270650   4.645   6.149   3.624
16412TIP3    H170651   4.614   6.119   3.710
16412TIP3    H270652   4.566   6.150   3.569
16413TIP3   OH270653   4.904   6.076   3.539
16413TIP3    H170654   4.817   6.081   3.577
16413TIP3    H270655   4.957   6.030   3.604
16414TIP3   OH270656   5.090   5.973   3.723
16414TIP3    H170657   5.089   5.878   3.715
16414TIP3    H270658   5.064   5.990   3.813
16415TIP3   OH270659   4.057   6.042   3.646
16415TIP3    H170660   4.058   5.960   3.596
16415TIP3    H270661   4.066   6.013   3.737
16416TIP3   OH270662   4.511   5.673   3.548
16416TIP3    H170663   4.569   5.597   3.545
16416TIP3    H270664   4.507   5.704   3.458
16417TIP3   OH270665   4.586   5.840   3.755
16417TIP3    H170666   4.563   5.784   3.680
16417TIP3    H270667   4.521   5.910   3.753
16418TIP3   OH270668   3.912   7.002   1.995
16418TIP3    H170669   4.007   7.002   2.012
16418TIP3    H270670   3.900   6.934   1.928
16419TIP3   OH270671   5.389   6.931   3.767
16419TIP3    H170672   5.305   6.950   3.808
16419TIP3    H270673   5.446   7.004   3.792
16420TIP3   OH270674   5.548   6.772   2.308
16420TIP3    H170675   5.620   6.835   2.306
16420TIP3    H270676   5.569   6.715   2.382
16421TIP3   OH270677   5.603   6.579   2.499
16421TIP3    H170678   5.519   6.548   2.533
16421TIP3    H270679   5.656   6.594   2.577
16422TIP3   OH270680   5.580   6.870   3.006
16422TIP3    H170681   5.630   6.797   2.970
16422TIP3    H270682   5.627   6.948   2.977
16423TIP3   OH270683   5.334   7.168   3.198
16423TIP3    H170684   5.240   7.168   3.217
16423TIP3    H270685   5.338   7.148   3.104
16424TIP3   OH270686   5.604   6.580   2.120
16424TIP3    H170687   5.554   6.606   2.043
16424TIP3    H270688   5.585   6.647   2.185
16425TIP3   OH270689   5.434   6.273   1.943
16425TIP3    H170690   5.416   6.333   1.871
16425TIP3    H270691   5.415   6.186   1.907
16426TIP3   OH270692   5.354   6.456   2.548
16426TIP3    H170693   5.347   6.366   2.516
16426TIP3    H270694   5.311   6.454   2.633
16427TIP3   OH270695   3.833   6.641   2.953
16427TIP3    H170696   3.849   6.624   2.860
16427TIP3    H270697   3.913   6.612   2.997
16428TIP3   OH270698   5.445   6.636   3.529
16428TIP3    H170699   5.502   6.562   3.508
16428TIP3    H270700   5.497   6.713   3.507
16429TIP3   OH270701   5.582   6.401   3.497
16429TIP3    H170702   5.496   6.364   3.515
16429TIP3    H270703   5.643   6.331   3.521
16430TIP3   OH270704   5.367   6.019   1.851
16430TIP3    H170705   5.391   5.972   1.931
16430TIP3    H270706   5.273   6.005   1.842
16431TIP3   OH270707   5.335   6.217   2.365
16431TIP3    H170708   5.361   6.125   2.367
16431TIP3    H270709   5.402   6.261   2.313
16432TIP3   OH270710   5.367   6.246   2.928
16432TIP3    H170711   5.460   6.257   2.910
16432TIP3    H270712   5.359   6.261   3.022
16433TIP3   OH270713   5.389   6.325   3.196
16433TIP3    H170714   5.312   6.355   3.244
16433TIP3    H270715   5.443   6.404   3.187
16434TIP3   OH270716   3.836   6.164   3.532
16434TIP3    H170717   3.917   6.142   3.579
16434TIP3    H270718   3.779   6.088   3.545
16435TIP3   OH270719   5.629   5.757   3.722
16435TIP3    H170720   5.691   5.691   3.691
16435TIP3    H270721   5.627   5.823   3.653
16436TIP3   OH270722   5.398   5.947   2.379
16436TIP3    H170723   5.417   5.910   2.465
16436TIP3    H270724   5.330   5.889   2.342
16437TIP3   OH270725   3.938   6.017   2.834
16437TIP3    H170726   3.974   5.929   2.845
16437TIP3    H270727   4.006   6.076   2.866
16438TIP3   OH270728   3.751   6.292   2.917
16438TIP3    H170729   3.826   6.302   2.858
16438TIP3    H270730   3.775   6.343   2.995
16439TIP3   OH270731   5.559   5.941   3.534
16439TIP3    H170732   5.483   5.979   3.578
16439TIP3    H270733   5.523   5.895   3.458
16440TIP3   OH270734   5.563   5.903   2.049
16440TIP3    H170735   5.602   5.861   1.972
16440TIP3    H270736   5.617   5.981   2.064
16441TIP3   OH270737   3.811   5.914   2.317
16441TIP3    H170738   3.719   5.914   2.345
16441TIP3    H270739   3.824   6.000   2.277
16442TIP3   OH270740   3.796   5.772   3.166
16442TIP3    H170741   3.733   5.764   3.238
16442TIP3    H270742   3.764   5.847   3.115
16443TIP3   OH270743   4.034   7.207   3.612
16443TIP3    H170744   3.950   7.197   3.567
16443TIP3    H270745   4.020   7.168   3.698
16444TIP3   OH270746   4.310   7.222   3.207
16444TIP3    H170747   4.228   7.250   3.167
16444TIP3    H270748   4.378   7.258   3.150
16445TIP3   OH270749   5.466   5.731   3.354
16445TIP3    H170750   5.387   5.735   3.300
16445TIP3    H270751   5.499   5.642   3.339
16446TIP3   OH270752   4.229   7.234   2.770
16446TIP3    H170753   4.204   7.146   2.799
16446TIP3    H270754   4.323   7.238   2.785
16447TIP3   OH270755   4.768   5.861   2.747
16447TIP3    H170756   4.714   5.798   2.796
16447TIP3    H270757   4.853   5.819   2.739
16448TIP3   OH270758   5.300   5.721   2.773
16448TIP3    H170759   5.362   5.781   2.730
16448TIP3    H270760   5.218   5.770   2.778
16449TIP3   OH270761   5.489   5.837   2.610
16449TIP3    H170762   5.549   5.764   2.594
16449TIP3    H270763   5.546   5.910   2.634
16450TIP3   OH270764   4.036   5.733   2.547
16450TIP3    H170765   3.944   5.711   2.533
16450TIP3    H270766   4.082   5.649   2.539
16451TIP3   OH270767   3.933   5.740   2.139
16451TIP3    H170768   4.002   5.789   2.094
16451TIP3    H270769   3.913   5.793   2.216
16452TIP3   OH270770   4.518   5.711   2.569
16452TIP3    H170771   4.592   5.758   2.530
16452TIP3    H270772   4.538   5.710   2.663
16453TIP3   OH270773   5.012   5.738   2.713
16453TIP3    H170774   5.056   5.714   2.632
16453TIP3    H270775   4.993   5.654   2.756
16454TIP3   OH270776   5.193   5.774   2.291
16454TIP3    H170777   5.116   5.830   2.308
16454TIP3    H270778   5.161   5.685   2.308
16455TIP3   OH270779   4.135   5.887   1.998
16455TIP3    H170780   4.186   5.833   1.938
16455TIP3    H270781   4.199   5.925   2.058
16456TIP3   OH270782   4.600   5.970   2.251
16456TIP3    H170783   4.635   5.901   2.307
16456TIP3    H270784   4.616   6.051   2.300
16457TIP3   OH270785   4.050   5.795   3.499
16457TIP3    H170786   3.990   5.729   3.532
16457TIP3    H270787   4.132   5.779   3.547
16458TIP3   OH270788   4.253   5.728   3.675
16458TIP3    H170789   4.340   5.700   3.645
16458TIP3    H270790   4.218   5.652   3.722
16459TIP3   OH270791   5.108   5.697   3.692
16459TIP3    H170792   5.093   5.648   3.773
16459TIP3    H270793   5.201   5.684   3.674
16460TIP3   OH270794   5.417  -0.021   3.568
16460TIP3    H170795   5.322  -0.025   3.553
16460TIP3    H270796   5.443   0.065   3.535
16461TIP3   OH270797   6.842   6.685   2.539
16461TIP3    H170798   6.838   6.780   2.528
16461TIP3    H270799   6.775   6.651   2.479
16462TIP3   OH270800   6.701   6.600   2.913
16462TIP3    H170801   6.724   6.561   2.998
16462TIP3    H270802   6.660   6.529   2.864
16463TIP3   OH270803   5.943   6.533   3.072
16463TIP3    H170804   5.950   6.459   3.132
16463TIP3    H270805   6.028   6.577   3.077
16464TIP3   OH270806   7.104   6.897   2.767
16464TIP3    H170807   7.057   6.828   2.815
16464TIP3    H270808   7.126   6.962   2.834
16465TIP3   OH270809   6.056   6.980   2.868
16465TIP3    H170810   6.033   6.890   2.843
16465TIP3    H270811   6.150   6.978   2.885
16466TIP3   OH270812   5.717   6.340   2.413
16466TIP3    H170813   5.690   6.427   2.445
16466TIP3    H270814   5.657   6.323   2.340
16467TIP3   OH270815   5.797   6.588   2.700
16467TIP3    H170816   5.826   6.499   2.720
16467TIP3    H270817   5.874   6.642   2.715
16468TIP3   OH270818   6.567   6.847   2.946
16468TIP3    H170819   6.598   6.767   2.904
16468TIP3    H270820   6.638   6.873   3.004
16469TIP3   OH270821   6.898   6.275   2.943
16469TIP3    H170822   6.905   6.182   2.967
16469TIP3    H270823   6.865   6.274   2.853
16470TIP3   OH270824   6.229   6.079   2.689
16470TIP3    H170825   6.235   6.164   2.645
16470TIP3    H270826   6.175   6.026   2.630
16471TIP3   OH270827   6.970   6.107   2.526
16471TIP3    H170828   7.012   6.066   2.602
16471TIP3    H270829   7.042   6.149   2.480
16472TIP3   OH270830   5.873   6.329   2.762
16472TIP3    H170831   5.937   6.294   2.824
16472TIP3    H270832   5.901   6.293   2.677
16473TIP3   OH270833   6.357   6.479   2.729
16473TIP3    H170834   6.440   6.441   2.758
16473TIP3    H270835   6.319   6.411   2.672
16474TIP3   OH270836   6.100   5.999   3.109
16474TIP3    H170837   6.074   6.063   3.043
16474TIP3    H270838   6.030   6.000   3.174
16475TIP3   OH270839   6.828   6.940   2.431
16475TIP3    H170840   6.809   6.941   2.337
16475TIP3    H270841   6.788   7.020   2.465
16476TIP3   OH270842   6.355   6.761   3.099
16476TIP3    H170843   6.300   6.832   3.132
16476TIP3    H270844   6.423   6.805   3.049
16477TIP3   OH270845   7.073   6.018   2.762
16477TIP3    H170846   7.002   5.998   2.823
16477TIP3    H270847   7.139   6.061   2.815
16478TIP3   OH270848   6.068   6.174   2.895
16478TIP3    H170849   6.121   6.232   2.949
16478TIP3    H270850   6.130   6.135   2.833
16479TIP3   OH270851   6.201   6.967   3.199
16479TIP3    H170852   6.211   7.060   3.183
16479TIP3    H270853   6.111   6.957   3.230
16480TIP3   OH270854   5.770   6.936   2.272
16480TIP3    H170855   5.760   6.971   2.184
16480TIP3    H270856   5.786   7.013   2.327
16481TIP3   OH270857   7.132   7.119   2.945
16481TIP3    H170858   7.044   7.116   2.984
16481TIP3    H270859   7.128   7.192   2.883
16482TIP3   OH270860   7.135   5.885   3.038
16482TIP3    H170861   7.043   5.905   3.023
16482TIP3    H270862   7.180   5.969   3.027
16483TIP3   OH270863   6.445   5.689   2.845
16483TIP3    H170864   6.424   5.597   2.853
16483TIP3    H270865   6.371   5.735   2.883
16484TIP3   OH270866   7.002   7.245   2.609
16484TIP3    H170867   7.031   7.164   2.567
16484TIP3    H270868   7.078   7.276   2.658
16485TIP3   OH270869   7.090   7.005   2.513
16485TIP3    H170870   7.011   6.965   2.477
16485TIP3    H270871   7.105   6.957   2.595
16486TIP3   OH270872   7.236   6.913   3.370
16486TIP3    H170873   7.292   6.855   3.319
16486TIP3    H270874   7.239   6.997   3.323
16487TIP3   OH270875   6.706   6.603   2.308
16487TIP3    H170876   6.640   6.668   2.283
16487TIP3    H270877   6.776   6.613   2.244
16488TIP3   OH270878   6.744   6.459   1.980
16488TIP3    H170879   6.800   6.485   2.053
16488TIP3    H270880   6.799   6.401   1.927
16489TIP3   OH270881   7.064   6.595   2.406
16489TIP3    H170882   6.995   6.629   2.464
16489TIP3    H270883   7.110   6.531   2.459
16490TIP3   OH270884   6.990   6.447   3.294
16490TIP3    H170885   6.992   6.533   3.337
16490TIP3    H270886   6.915   6.452   3.235
16491TIP3   OH270887   6.219   6.671   2.581
16491TIP3    H170888   6.198   6.631   2.497
16491TIP3    H270889   6.276   6.608   2.625
16492TIP3   OH270890   6.338   6.987   2.852
16492TIP3    H170891   6.353   7.019   2.764
16492TIP3    H270892   6.421   6.946   2.878
16493TIP3   OH270893   6.218   6.577   2.950
16493TIP3    H170894   6.275   6.553   2.877
16493TIP3    H270895   6.270   6.641   3.000
16494TIP3   OH270896   6.890   7.105   3.066
16494TIP3    H170897   6.897   7.121   3.160
16494TIP3    H270898   6.845   7.021   3.060
16495TIP3   OH270899   6.359   6.985   3.425
16495TIP3    H170900   6.295   7.044   3.463
16495TIP3    H270901   6.318   6.955   3.343
16496TIP3   OH270902   6.948   6.552   2.160
16496TIP3    H170903   6.989   6.577   2.243
16496TIP3    H270904   7.005   6.591   2.093
16497TIP3   OH270905   6.041   6.603   3.380
16497TIP3    H170906   6.047   6.683   3.433
16497TIP3    H270907   5.948   6.597   3.356
16498TIP3   OH270908   6.744   7.191   2.509
16498TIP3    H170909   6.827   7.218   2.547
16498TIP3    H270910   6.705   7.272   2.476
16499TIP3   OH270911   6.175   7.176   3.481
16499TIP3    H170912   6.152   7.211   3.395
16499TIP3    H270913   6.092   7.173   3.529
16500TIP3   OH270914   6.134   6.584   2.323
16500TIP3    H170915   6.085   6.658   2.288
16500TIP3    H270916   6.076   6.509   2.314
16501TIP3   OH270917   5.728   6.834   3.251
16501TIP3    H170918   5.678   6.839   3.169
16501TIP3    H270919   5.743   6.740   3.264
16502TIP3   OH270920   5.770   7.063   2.941
16502TIP3    H170921   5.854   7.033   2.906
16502TIP3    H270922   5.793   7.127   3.009
16503TIP3   OH270923   6.613   7.089   3.427
16503TIP3    H170924   6.615   7.141   3.507
16503TIP3    H270925   6.523   7.058   3.421
16504TIP3   OH270926   7.184   6.378   3.530
16504TIP3    H170927   7.195   6.373   3.435
16504TIP3    H270928   7.250   6.318   3.565
16505TIP3   OH270929   5.951   6.986   3.314
16505TIP3    H170930   5.971   6.957   3.403
16505TIP3    H270931   5.871   6.938   3.290
16506TIP3   OH270932   6.210   5.803   2.943
16506TIP3    H170933   6.129   5.793   2.892
16506TIP3    H270934   6.190   5.873   3.006
16507TIP3   OH270935   6.687   5.767   3.284
16507TIP3    H170936   6.735   5.721   3.352
16507TIP3    H270937   6.595   5.759   3.309
16508TIP3   OH270938   6.990   6.157   3.353
16508TIP3    H170939   6.930   6.142   3.426
16508TIP3    H270940   6.992   6.253   3.344
16509TIP3   OH270941   7.112   6.666   1.971
16509TIP3    H170942   7.084   6.655   1.881
16509TIP3    H270943   7.109   6.761   1.986
16510TIP3   OH270944   6.625   6.013   2.012
16510TIP3    H170945   6.572   6.006   2.091
16510TIP3    H270946   6.592   5.943   1.955
16511TIP3   OH270947   6.220   6.325   3.064
16511TIP3    H170948   6.159   6.326   3.137
16511TIP3    H270949   6.221   6.416   3.033
16512TIP3   OH270950   6.215   6.315   2.554
16512TIP3    H170951   6.119   6.316   2.548
16512TIP3    H270952   6.244   6.302   2.464
16513TIP3   OH270953   6.747   6.353   2.416
16513TIP3    H170954   6.729   6.442   2.384
16513TIP3    H270955   6.821   6.323   2.363
16514TIP3   OH270956   6.682   6.364   3.541
16514TIP3    H170957   6.634   6.292   3.581
16514TIP3    H270958   6.768   6.362   3.584
16515TIP3   OH270959   6.812   6.276   2.683
16515TIP3    H170960   6.790   6.341   2.617
16515TIP3    H270961   6.863   6.210   2.636
16516TIP3   OH270962   6.002   6.313   3.237
16516TIP3    H170963   6.029   6.346   3.322
16516TIP3    H270964   5.961   6.229   3.255
16517TIP3   OH270965   6.313   6.053   1.905
16517TIP3    H170966   6.284   6.052   1.996
16517TIP3    H270967   6.259   6.120   1.863
16518TIP3   OH270968   5.663   6.043   2.646
16518TIP3    H170969   5.716   6.039   2.726
16518TIP3    H270970   5.676   6.131   2.613
16519TIP3   OH270971   5.716   6.120   2.129
16519TIP3    H170972   5.781   6.163   2.073
16519TIP3    H270973   5.655   6.190   2.153
16520TIP3   OH270974   6.771   6.439   3.126
16520TIP3    H170975   6.816   6.381   3.064
16520TIP3    H270976   6.719   6.380   3.180
16521TIP3   OH270977   6.510   6.034   2.638
16521TIP3    H170978   6.423   6.044   2.677
16521TIP3    H270979   6.565   6.002   2.709
16522TIP3   OH270980   5.951   6.242   2.508
16522TIP3    H170981   5.870   6.280   2.474
16522TIP3    H270982   5.974   6.175   2.444
16523TIP3   OH270983   6.275   6.239   2.296
16523TIP3    H170984   6.369   6.236   2.317
16523TIP3    H270985   6.271   6.285   2.211
16524TIP3   OH270986   6.876   5.989   2.959
16524TIP3    H170987   6.841   5.998   3.048
16524TIP3    H270988   6.803   5.955   2.908
16525TIP3   OH270989   6.245   6.328   2.039
16525TIP3    H170990   6.192   6.312   1.961
16525TIP3    H270991   6.321   6.377   2.006
16526TIP3   OH270992   6.025   6.825   3.555
16526TIP3    H170993   6.092   6.822   3.623
16526TIP3    H270994   5.943   6.835   3.602
16527TIP3   OH270995   6.582   6.354   2.830
16527TIP3    H170996   6.656   6.310   2.788
16527TIP3    H270997   6.559   6.298   2.904
16528TIP3   OH270998   6.114   5.910   2.432
16528TIP3    H170999   6.176   5.854   2.478
16528TIP3    H271000   6.161   5.940   2.354
16529TIP3   OH271001   6.479   6.221   3.060
16529TIP3    H171002   6.396   6.268   3.068
16529TIP3    H271003   6.528   6.245   3.139
16530TIP3   OH271004   6.518   6.795   2.237
16530TIP3    H171005   6.446   6.759   2.184
16530TIP3    H271006   6.475   6.821   2.319
16531TIP3   OH271007   7.207   6.744   3.084
16531TIP3    H171008   7.266   6.717   3.013
16531TIP3    H271009   7.119   6.737   3.046
16532TIP3   OH271010   6.883   6.064   2.087
16532TIP3    H171011   6.790   6.065   2.062
16532TIP3    H271012   6.897   6.149   2.130
16533TIP3   OH271013   6.704   6.822   3.384
16533TIP3    H171014   6.707   6.774   3.467
16533TIP3    H271015   6.671   6.909   3.408
16534TIP3   OH271016   6.955   6.282   2.240
16534TIP3    H171017   7.038   6.254   2.278
16534TIP3    H271018   6.971   6.372   2.212
16535TIP3   OH271019   6.034   6.710   2.784
16535TIP3    H171020   6.095   6.712   2.710
16535TIP3    H271021   6.079   6.661   2.852
16536TIP3   OH271022   6.738   6.945   2.159
16536TIP3    H171023   6.711   7.036   2.167
16536TIP3    H271024   6.660   6.895   2.183
16537TIP3   OH271025   5.762   6.576   3.352
16537TIP3    H171026   5.758   6.546   3.443
16537TIP3    H271027   5.689   6.530   3.309
16538TIP3   OH271028   6.472   6.546   3.560
16538TIP3    H171029   6.410   6.504   3.500
16538TIP3    H271030   6.554   6.498   3.546
16539TIP3   OH271031   6.874   7.094   3.337
16539TIP3    H171032   6.781   7.094   3.358
16539TIP3    H271033   6.917   7.091   3.423
16540TIP3   OH271034   6.978   6.690   2.918
16540TIP3    H171035   6.884   6.680   2.902
16540TIP3    H271036   7.018   6.615   2.876
16541TIP3   OH271037   6.317   7.099   2.589
16541TIP3    H171038   6.363   7.178   2.558
16541TIP3    H271039   6.235   7.132   2.626
16542TIP3   OH271040   5.868   6.559   2.037
16542TIP3    H171041   5.915   6.628   2.084
16542TIP3    H271042   5.778   6.566   2.068
16543TIP3   OH271043   6.365   6.870   2.448
16543TIP3    H171044   6.357   6.952   2.497
16543TIP3    H271045   6.317   6.806   2.501
16544TIP3   OH271046   6.501   7.250   3.091
16544TIP3    H171047   6.555   7.314   3.137
16544TIP3    H271048   6.543   7.166   3.108
16545TIP3   OH271049   6.782   6.853   3.118
16545TIP3    H171050   6.756   6.839   3.209
16545TIP3    H271051   6.859   6.798   3.106
16546TIP3   OH271052   7.042   6.955   2.051
16546TIP3    H171053   7.078   6.912   2.129
16546TIP3    H271054   6.947   6.952   2.065
16547TIP3   OH271055   5.888   6.057   3.283
16547TIP3    H171056   5.796   6.078   3.268
16547TIP3    H271057   5.887   5.988   3.350
16548TIP3   OH271058   7.158   6.812   2.250
16548TIP3    H171059   7.138   6.746   2.316
16548TIP3    H271060   7.241   6.851   2.279
16549TIP3   OH271061   5.892   7.231   3.123
16549TIP3    H171062   5.909   7.176   3.200
16549TIP3    H271063   5.835   7.300   3.156
16550TIP3   OH271064   6.472   7.044   1.915
16550TIP3    H171065   6.475   6.962   1.865
16550TIP3    H271066   6.429   7.020   1.997
16551TIP3   OH271067   6.321   7.041   2.151
16551TIP3    H171068   6.346   6.988   2.227
16551TIP3    H271069   6.341   7.131   2.177
16552TIP3   OH271070   5.973   6.767   2.190
16552TIP3    H171071   5.902   6.812   2.236
16552TIP3    H271072   6.016   6.836   2.140
16553TIP3   OH271073   6.787   6.016   3.214
16553TIP3    H171074   6.858   6.041   3.273
16553TIP3    H271075   6.753   5.934   3.248
16554TIP3   OH271076   6.837   5.951   2.341
16554TIP3    H171077   6.857   5.989   2.256
16554TIP3    H271078   6.878   6.009   2.404
16555TIP3   OH271079   6.646   7.201   2.174
16555TIP3    H171080   6.561   7.237   2.198
16555TIP3    H271081   6.660   7.231   2.084
16556TIP3   OH271082   6.528   6.189   2.407
16556TIP3    H171083   6.603   6.248   2.410
16556TIP3    H271084   6.526   6.149   2.493
16557TIP3   OH271085   6.643   6.257   3.283
16557TIP3    H171086   6.654   6.287   3.373
16557TIP3    H271087   6.684   6.170   3.281
16558TIP3   OH271088   6.612   5.844   2.456
16558TIP3    H171089   6.590   5.910   2.522
16558TIP3    H271090   6.695   5.874   2.419
16559TIP3   OH271091   6.387  -0.007   2.238
16559TIP3    H171092   6.367   0.071   2.187
16559TIP3    H271093   6.375   0.020   2.329
16560TIP3   OH271094   6.217   5.998   2.172
16560TIP3    H171095   6.218   6.087   2.206
16560TIP3    H271096   6.306   5.966   2.185
16561TIP3   OH271097   7.228   6.004   3.356
16561TIP3    H171098   7.143   6.046   3.345
16561TIP3    H271099   7.276   6.063   3.413
16562TIP3   OH271100   7.086   6.446   2.826
16562TIP3    H171101   7.020   6.390   2.867
16562TIP3    H271102   7.167   6.428   2.875
16563TIP3   OH271103   6.065   6.982   2.036
16563TIP3    H171104   6.136   7.028   2.079
16563TIP3    H271105   6.108   6.929   1.969
16564TIP3   OH271106   5.855   6.290   1.969
16564TIP3    H171107   5.877   6.376   2.005
16564TIP3    H271108   5.828   6.308   1.879
16565TIP3   OH271109   5.959   5.775   2.831
16565TIP3    H171110   5.946   5.750   2.740
16565TIP3    H271111   5.928   5.698   2.881
16566TIP3   OH271112   5.788   7.199   2.381
16566TIP3    H171113   5.693   7.187   2.369
16566TIP3    H271114   5.813   7.259   2.311
16567TIP3   OH271115   6.246   7.256   3.796
16567TIP3    H171116   6.275   7.195   3.865
16567TIP3    H271117   6.316   7.253   3.731
16568TIP3   OH271118   6.666   7.247   1.905
16568TIP3    H171119   6.606   7.174   1.892
16568TIP3    H271120   6.706   7.261   1.819
16569TIP3   OH271121   6.944   7.070   3.597
16569TIP3    H171122   6.890   7.016   3.654
16569TIP3    H271123   7.013   7.104   3.655
16570TIP3   OH271124   7.147   7.167   1.912
16570TIP3    H171125   7.109   7.100   1.968
16570TIP3    H271126   7.239   7.171   1.940
16571TIP3   OH271127   5.774   6.815   3.679
16571TIP3    H171128   5.784   6.720   3.668
16571TIP3    H271129   5.701   6.838   3.622
16572TIP3   OH271130   6.201   6.797   1.885
16572TIP3    H171131   6.225   6.750   1.965
16572TIP3    H271132   6.284   6.809   1.839
16573TIP3   OH271133   6.440   6.815   3.628
16573TIP3    H171134   6.419   6.859   3.546
16573TIP3    H271135   6.462   6.726   3.602
16574TIP3   OH271136   6.786   6.931   1.878
16574TIP3    H171137   6.751   6.939   1.966
16574TIP3    H271138   6.765   6.841   1.852
16575TIP3   OH271139   6.998   6.770   3.376
16575TIP3    H171140   7.076   6.826   3.369
16575TIP3    H271141   6.925   6.832   3.375
16576TIP3   OH271142   5.851   6.545   3.636
16576TIP3    H171143   5.940   6.517   3.611
16576TIP3    H271144   5.852   6.543   3.732
16577TIP3   OH271145   6.308   6.662   2.107
16577TIP3    H171146   6.262   6.620   2.179
16577TIP3    H271147   6.357   6.592   2.065
16578TIP3   OH271148   6.257   6.430   3.366
16578TIP3    H171149   6.190   6.497   3.372
16578TIP3    H271150   6.324   6.467   3.309
16579TIP3   OH271151   6.460   6.480   1.956
16579TIP3    H171152   6.458   6.509   1.864
16579TIP3    H271153   6.553   6.468   1.975
16580TIP3   OH271154   6.774   6.676   3.662
16580TIP3    H171155   6.863   6.651   3.640
16580TIP3    H271156   6.746   6.611   3.726
16581TIP3   OH271157   6.309   6.176   3.460
16581TIP3    H171158   6.324   6.116   3.386
16581TIP3    H271159   6.296   6.262   3.419
16582TIP3   OH271160   6.349   6.019   3.224
16582TIP3    H171161   6.402   6.068   3.161
16582TIP3    H271162   6.262   6.016   3.185
16583TIP3   OH271163   6.460   6.541   3.226
16583TIP3    H171164   6.555   6.553   3.233
16583TIP3    H271165   6.429   6.622   3.185
16584TIP3   OH271166   6.920   6.324   3.693
16584TIP3    H171167   6.944   6.234   3.717
16584TIP3    H271168   7.001   6.362   3.659
16585TIP3   OH271169   7.038   6.611   3.593
16585TIP3    H171170   7.034   6.668   3.517
16585TIP3    H271171   7.095   6.539   3.565
16586TIP3   OH271172   6.141   6.243   3.675
16586TIP3    H171173   6.063   6.188   3.666
16586TIP3    H271174   6.192   6.224   3.596
16587TIP3   OH271175   6.405   5.751   3.283
16587TIP3    H171176   6.385   5.842   3.266
16587TIP3    H271177   6.334   5.702   3.242
16588TIP3   OH271178   6.538   6.147   3.622
16588TIP3    H171179   6.513   6.119   3.710
16588TIP3    H271180   6.457   6.148   3.573
16589TIP3   OH271181   6.795   6.075   3.528
16589TIP3    H171182   6.708   6.086   3.564
16589TIP3    H271183   6.844   6.030   3.597
16590TIP3   OH271184   6.954   5.964   3.727
16590TIP3    H171185   6.951   5.869   3.725
16590TIP3    H271186   6.929   5.987   3.817
16591TIP3   OH271187   5.940   6.046   3.649
16591TIP3    H171188   5.941   5.965   3.598
16591TIP3    H271189   5.950   6.017   3.740
16592TIP3   OH271190   6.395   5.671   3.547
16592TIP3    H171191   6.454   5.596   3.543
16592TIP3    H271192   6.391   5.703   3.457
16593TIP3   OH271193   6.468   5.835   3.756
16593TIP3    H171194   6.445   5.782   3.679
16593TIP3    H271195   6.405   5.907   3.754
16594TIP3   OH271196   5.788   7.008   2.000
16594TIP3    H171197   5.882   7.014   2.014
16594TIP3    H271198   5.777   6.941   1.933
16595TIP3   OH271199   7.272   7.123   3.189
16595TIP3    H171200   7.280   7.218   3.200
16595TIP3    H271201   7.221   7.112   3.109
16596TIP3   OH271202   7.180   6.392   2.566
16596TIP3    H171203   7.220   6.308   2.588
16596TIP3    H271204   7.144   6.424   2.649
16597TIP3   OH271205   5.719   6.638   2.959
16597TIP3    H171206   5.733   6.626   2.866
16597TIP3    H271207   5.800   6.609   3.000
16598TIP3   OH271208   7.230   6.042   1.849
16598TIP3    H171209   7.257   6.010   1.935
16598TIP3    H271210   7.139   6.015   1.841
16599TIP3   OH271211   7.185   6.162   2.352
16599TIP3    H171212   7.203   6.076   2.390
16599TIP3    H271213   7.272   6.201   2.339
16600TIP3   OH271214   7.252   6.120   2.946
16600TIP3    H171215   7.337   6.090   2.915
16600TIP3    H271216   7.266   6.212   2.967
16601TIP3   OH271217   7.256   6.382   3.252
16601TIP3    H171218   7.163   6.402   3.244
16601TIP3    H271219   7.286   6.370   3.162
16602TIP3   OH271220   5.717   6.164   3.537
16602TIP3    H171221   5.800   6.140   3.578
16602TIP3    H271222   5.662   6.086   3.547
16603TIP3   OH271223   7.236   5.901   2.464
16603TIP3    H171224   7.282   5.824   2.498
16603TIP3    H271225   7.161   5.864   2.417
16604TIP3   OH271226   5.833   6.021   2.858
16604TIP3    H171227   5.870   5.933   2.863
16604TIP3    H271228   5.905   6.080   2.881
16605TIP3   OH271229   5.638   6.295   2.916
16605TIP3    H171230   5.715   6.305   2.859
16605TIP3    H271231   5.659   6.347   2.994
16606TIP3   OH271232   5.696   5.957   2.348
16606TIP3    H171233   5.604   5.953   2.373
16606TIP3    H271234   5.699   6.018   2.274
16607TIP3   OH271235   5.689   5.800   3.190
16607TIP3    H171236   5.618   5.779   3.251
16607TIP3    H271237   5.650   5.860   3.126
16608TIP3   OH271238   5.923   7.171   3.598
16608TIP3    H171239   5.830   7.161   3.576
16608TIP3    H271240   5.926   7.171   3.693
16609TIP3   OH271241   6.232   7.246   3.179
16609TIP3    H171242   6.172   7.282   3.114
16609TIP3    H271243   6.317   7.245   3.136
16610TIP3   OH271244   6.112   7.214   2.736
16610TIP3    H171245   6.081   7.135   2.781
16610TIP3    H271246   6.160   7.263   2.803
16611TIP3   OH271247   6.672   5.873   2.798
16611TIP3    H171248   6.608   5.803   2.814
16611TIP3    H271249   6.747   5.829   2.760
16612TIP3   OH271250   7.170   5.720   2.778
16612TIP3    H171251   7.215   5.795   2.819
16612TIP3    H271252   7.080   5.750   2.766
16613TIP3   OH271253   5.913   5.692   2.567
16613TIP3    H171254   5.822   5.663   2.571
16613TIP3    H271255   5.965   5.612   2.563
16614TIP3   OH271256   5.852   5.769   2.178
16614TIP3    H171257   5.909   5.799   2.106
16614TIP3    H271258   5.764   5.792   2.149
16615TIP3   OH271259   6.367   5.741   2.565
16615TIP3    H171260   6.448   5.769   2.524
16615TIP3    H271261   6.389   5.728   2.658
16616TIP3   OH271262   6.896   5.743   2.701
16616TIP3    H171263   6.921   5.721   2.611
16616TIP3    H271264   6.870   5.659   2.739
16617TIP3   OH271265   7.044   5.766   2.329
16617TIP3    H171266   6.962   5.815   2.320
16617TIP3    H271267   7.018   5.675   2.317
16618TIP3   OH271268   6.024   5.889   1.990
16618TIP3    H171269   6.073   5.836   1.928
16618TIP3    H271270   6.090   5.927   2.048
16619TIP3   OH271271   6.479   5.974   2.245
16619TIP3    H171272   6.517   5.903   2.296
16619TIP3    H271273   6.500   6.053   2.295
16620TIP3   OH271274   5.933   5.800   3.509
16620TIP3    H171275   5.874   5.730   3.536
16620TIP3    H271276   6.014   5.782   3.557
16621TIP3   OH271277   6.139   5.728   3.679
16621TIP3    H171278   6.225   5.699   3.647
16621TIP3    H271279   6.103   5.651   3.723
16622TIP3   OH271280   6.973   5.687   3.706
16622TIP3    H171281   6.967   5.634   3.785
16622TIP3    H271282   7.064   5.678   3.678
16623TIP3   OH271283   7.334   0.019   3.539
16623TIP3    H171284   7.269  -0.043   3.507
16623TIP3    H271285   7.282   0.092   3.573
16624TIP3   OH271286   1.194   1.033   4.414
16624TIP3    H171287   1.181   1.127   4.407
16624TIP3    H271288   1.119   0.995   4.368
16625TIP3   OH271289   1.056   0.947   4.813
16625TIP3    H171290   1.086   0.911   4.897
16625TIP3    H271291   1.015   0.873   4.769
16626TIP3   OH271292   0.295   0.896   4.972
16626TIP3    H171293   0.291   0.806   5.005
16626TIP3    H271294   0.346   0.944   5.037
16627TIP3   OH271295   1.457   1.255   4.644
16627TIP3    H171296   1.423   1.178   4.690
16627TIP3    H271297   1.476   1.318   4.713
16628TIP3   OH271298   0.444   1.345   4.801
16628TIP3    H171299   0.411   1.263   4.765
16628TIP3    H271300   0.538   1.342   4.785
16629TIP3   OH271301   0.121   0.761   4.312
16629TIP3    H171302   0.157   0.827   4.371
16629TIP3    H271303   0.027   0.758   4.334
16630TIP3   OH271304   0.211   0.917   4.522
16630TIP3    H171305   0.208   0.843   4.581
16630TIP3    H271306   0.275   0.977   4.561
16631TIP3   OH271307   1.192   1.719   4.689
16631TIP3    H171308   1.222   1.665   4.617
16631TIP3    H271309   1.180   1.658   4.762
16632TIP3   OH271310   0.928   1.197   4.835
16632TIP3    H171311   0.964   1.114   4.805
16632TIP3    H271312   0.996   1.233   4.893
16633TIP3   OH271313   1.822   0.336   4.925
16633TIP3    H171314   1.830   0.398   4.997
16633TIP3    H271315   1.878   0.372   4.856
16634TIP3   OH271316   1.239   0.622   4.835
16634TIP3    H171317   1.263   0.533   4.863
16634TIP3    H271318   1.210   0.612   4.745
16635TIP3   OH271319   0.558   0.434   4.582
16635TIP3    H171320   0.570   0.518   4.537
16635TIP3    H271321   0.505   0.382   4.522
16636TIP3   OH271322   1.358   0.451   4.414
16636TIP3    H171323   1.403   0.426   4.495
16636TIP3    H271324   1.426   0.496   4.363
16637TIP3   OH271325   0.223   0.681   4.667
16637TIP3    H171326   0.288   0.643   4.726
16637TIP3    H271327   0.242   0.642   4.581
16638TIP3   OH271328   0.723   0.828   4.598
16638TIP3    H171329   0.802   0.787   4.634
16638TIP3    H271330   0.682   0.759   4.545
16639TIP3   OH271331   1.833   0.497   5.148
16639TIP3    H171332   1.763   0.559   5.130
16639TIP3    H271333   1.853   0.507   5.241
16640TIP3   OH271334   0.432   0.338   5.008
16640TIP3    H171335   0.408   0.403   4.942
16640TIP3    H271336   0.368   0.349   5.078
16641TIP3   OH271337   1.152   1.289   4.316
16641TIP3    H171338   1.137   1.290   4.221
16641TIP3    H271339   1.108   1.368   4.348
16642TIP3   OH271340   0.718   1.090   4.974
16642TIP3    H171341   0.664   1.159   5.014
16642TIP3    H271342   0.790   1.137   4.933
16643TIP3   OH271343   1.472   0.400   4.656
16643TIP3    H171344   1.410   0.380   4.726
16643TIP3    H271345   1.534   0.461   4.696
16644TIP3   OH271346   0.408   0.517   4.795
16644TIP3    H171347   0.460   0.576   4.850
16644TIP3    H271348   0.470   0.484   4.729
16645TIP3   OH271349   0.564   1.282   5.095
16645TIP3    H171350   0.627   1.313   5.160
16645TIP3    H271351   0.493   1.244   5.146
16646TIP3   OH271352   0.120   1.291   4.147
16646TIP3    H171353   0.115   1.335   4.062
16646TIP3    H271354   0.148   1.359   4.208
16647TIP3   OH271355   1.481   1.459   4.839
16647TIP3    H171356   1.386   1.463   4.850
16647TIP3    H271357   1.506   1.549   4.817
16648TIP3   OH271358   1.564   0.251   4.995
16648TIP3    H171359   1.494   0.307   4.963
16648TIP3    H271360   1.644   0.287   4.957
16649TIP3   OH271361   0.763   0.052   4.725
16649TIP3    H171362   0.803   0.008   4.800
16649TIP3    H271363   0.683   0.091   4.760
16650TIP3   OH271364   1.306   1.601   4.463
16650TIP3    H171365   1.349   1.518   4.445
16650TIP3    H271366   1.376   1.666   4.465
16651TIP3   OH271367   1.430   1.368   4.395
16651TIP3    H171368   1.362   1.313   4.357
16651TIP3    H271369   1.452   1.326   4.478
16652TIP3   OH271370   1.605   1.246   5.187
16652TIP3    H171371   1.603   1.185   5.113
16652TIP3    H271372   1.620   1.332   5.147
16653TIP3   OH271373   1.040   0.939   4.196
16653TIP3    H171374   0.977   1.006   4.170
16653TIP3    H271375   1.112   0.949   4.134
16654TIP3   OH271376   1.078   0.816   3.857
16654TIP3    H171377   1.131   0.842   3.932
16654TIP3    H271378   1.130   0.748   3.814
16655TIP3   OH271379   1.763   0.879   5.005
16655TIP3    H171380   1.693   0.945   5.006
16655TIP3    H271381   1.833   0.919   4.953
16656TIP3   OH271382   1.413   0.959   4.270
16656TIP3    H171383   1.344   0.984   4.331
16656TIP3    H271384   1.478   0.914   4.324
16657TIP3   OH271385   1.377   0.770   5.210
16657TIP3    H171386   1.387   0.827   5.286
16657TIP3    H271387   1.306   0.809   5.159
16658TIP3   OH271388   0.567   1.019   4.469
16658TIP3    H171389   0.542   0.978   4.386
16658TIP3    H271390   0.626   0.955   4.510
16659TIP3   OH271391   0.713   1.359   4.732
16659TIP3    H171392   0.724   1.366   4.637
16659TIP3    H271393   0.789   1.308   4.761
16660TIP3   OH271394   0.578   0.923   4.811
16660TIP3    H171395   0.639   0.898   4.741
16660TIP3    H271396   0.630   0.979   4.869
16661TIP3   OH271397   1.214   1.475   4.897
16661TIP3    H171398   1.205   1.543   4.963
16661TIP3    H271399   1.184   1.395   4.940
16662TIP3   OH271400   0.710   1.360   5.313
16662TIP3    H171401   0.641   1.411   5.355
16662TIP3    H271402   0.729   1.289   5.375
16663TIP3   OH271403   1.274   0.904   4.039
16663TIP3    H171404   1.328   0.936   4.111
16663TIP3    H271405   1.327   0.922   3.961
16664TIP3   OH271406   0.394   0.976   5.234
16664TIP3    H171407   0.401   1.042   5.303
16664TIP3    H271408   0.306   0.940   5.243
16665TIP3   OH271409   1.051   1.544   4.375
16665TIP3    H171410   1.134   1.566   4.417
16665TIP3    H271411   1.021   1.626   4.336
16666TIP3   OH271412   0.504   1.514   5.405
16666TIP3    H171413   0.498   1.564   5.324
16666TIP3    H271414   0.415   1.512   5.439
16667TIP3   OH271415   1.642   0.035   4.022
16667TIP3    H171416   1.564   0.062   4.071
16667TIP3    H271417   1.683   0.118   3.996
16668TIP3   OH271418   0.475   0.925   4.213
16668TIP3    H171419   0.416   0.989   4.174
16668TIP3    H271420   0.421   0.848   4.228
16669TIP3   OH271421   1.776   1.488   3.893
16669TIP3    H171422   1.795   1.582   3.897
16669TIP3    H271423   1.862   1.446   3.895
16670TIP3   OH271424   0.111   1.138   5.127
16670TIP3    H171425   0.041   1.129   5.063
16670TIP3    H271426   0.120   1.051   5.166
16671TIP3   OH271427   0.086   1.446   4.721
16671TIP3    H171428   0.129   1.364   4.745
16671TIP3    H271429   0.001   1.442   4.764
16672TIP3   OH271430   1.854   1.555   5.401
16672TIP3    H171431   1.856   1.460   5.389
16672TIP3    H271432   1.770   1.571   5.445
16673TIP3   OH271433   0.944   1.473   5.226
16673TIP3    H171434   0.964   1.536   5.295
16673TIP3    H271435   0.863   1.431   5.253
16674TIP3   OH271436   1.026   1.804   4.247
16674TIP3    H171437   1.007   1.817   4.155
16674TIP3    H271438   1.002   1.886   4.289
16675TIP3   OH271439   0.375   1.699   4.436
16675TIP3    H171440   0.394   1.665   4.523
16675TIP3    H271441   0.319   1.633   4.396
16676TIP3   OH271442   1.312   1.774   3.925
16676TIP3    H171443   1.360   1.700   3.888
16676TIP3    H271444   1.323   1.765   4.019
16677TIP3   OH271445   1.295   1.756   4.201
16677TIP3    H171446   1.203   1.763   4.226
16677TIP3    H271447   1.336   1.706   4.271
16678TIP3   OH271448   1.569   0.632   5.443
16678TIP3    H171449   1.484   0.646   5.485
16678TIP3    H271450   1.577   0.537   5.436
16679TIP3   OH271451   0.309   1.312   5.196
16679TIP3    H171452   0.323   1.293   5.289
16679TIP3    H271453   0.235   1.257   5.171
16680TIP3   OH271454   0.512   0.121   4.841
16680TIP3    H171455   0.425   0.124   4.801
16680TIP3    H271456   0.512   0.193   4.904
16681TIP3   OH271457   1.042   0.130   5.189
16681TIP3    H171458   1.066   0.127   5.282
16681TIP3    H271459   0.946   0.123   5.189
16682TIP3   OH271460   1.325   0.497   5.243
16682TIP3    H171461   1.266   0.483   5.317
16682TIP3    H271462   1.341   0.591   5.242
16683TIP3   OH271463   1.415   0.921   3.802
16683TIP3    H171464   1.405   0.942   3.709
16683TIP3    H271465   1.502   0.954   3.824
16684TIP3   OH271466   0.974   0.378   3.920
16684TIP3    H171467   0.924   0.353   3.997
16684TIP3    H271468   0.950   0.315   3.853
16685TIP3   OH271469   0.571   0.681   4.938
16685TIP3    H171470   0.557   0.700   5.030
16685TIP3    H271471   0.566   0.766   4.894
16686TIP3   OH271472   0.568   0.666   4.435
16686TIP3    H171473   0.472   0.656   4.435
16686TIP3    H271474   0.594   0.644   4.345
16687TIP3   OH271475   1.103   0.695   4.307
16687TIP3    H171476   1.077   0.782   4.277
16687TIP3    H271477   1.179   0.672   4.254
16688TIP3   OH271478   0.999   0.705   5.418
16688TIP3    H171479   0.970   0.629   5.470
16688TIP3    H271480   1.022   0.771   5.484
16689TIP3   OH271481   1.181   0.615   4.567
16689TIP3    H171482   1.143   0.667   4.496
16689TIP3    H271483   1.237   0.551   4.522
16690TIP3   OH271484   0.316   0.654   5.109
16690TIP3    H171485   0.388   0.676   5.168
16690TIP3    H271486   0.284   0.570   5.142
16691TIP3   OH271487   0.618   0.356   3.771
16691TIP3    H171488   0.611   0.356   3.866
16691TIP3    H271489   0.589   0.443   3.744
16692TIP3   OH271490   0.038   0.431   4.473
16692TIP3    H171491   0.092   0.422   4.552
16692TIP3    H271492   0.003   0.343   4.458
16693TIP3   OH271493   0.080   0.484   4.043
16693TIP3    H171494   0.167   0.444   4.034
16693TIP3    H271495   0.080   0.557   3.982
16694TIP3   OH271496   1.143   0.794   5.029
16694TIP3    H171497   1.187   0.737   4.965
16694TIP3    H271498   1.090   0.734   5.081
16695TIP3   OH271499   0.830   0.435   4.517
16695TIP3    H171500   0.745   0.430   4.560
16695TIP3    H271501   0.883   0.369   4.561
16696TIP3   OH271502   0.308   0.582   4.420
16696TIP3    H171503   0.237   0.618   4.366
16696TIP3    H271504   0.310   0.489   4.398
16697TIP3   OH271505   0.625   0.582   4.178
16697TIP3    H171506   0.719   0.580   4.196
16697TIP3    H271507   0.618   0.627   4.093
16698TIP3   OH271508   1.294   0.339   4.853
16698TIP3    H171509   1.243   0.343   4.934
16698TIP3    H271510   1.252   0.271   4.801
16699TIP3   OH271511   0.596   0.672   3.923
16699TIP3    H171512   0.546   0.655   3.843
16699TIP3    H271513   0.671   0.724   3.893
16700TIP3   OH271514   1.601   1.904   5.506
16700TIP3    H171515   1.630   1.941   5.423
16700TIP3    H271516   1.676   1.915   5.565
16701TIP3   OH271517   0.370   1.168   5.439
16701TIP3    H171518   0.444   1.158   5.499
16701TIP3    H271519   0.293   1.157   5.494
16702TIP3   OH271520   0.937   0.702   4.723
16702TIP3    H171521   1.006   0.651   4.680
16702TIP3    H271522   0.908   0.646   4.795
16703TIP3   OH271523   0.401   0.308   4.388
16703TIP3    H171524   0.359   0.226   4.413
16703TIP3    H271525   0.444   0.289   4.304
16704TIP3   OH271526   0.826   0.564   4.946
16704TIP3    H171527   0.748   0.619   4.951
16704TIP3    H271528   0.879   0.590   5.021
16705TIP3   OH271529   0.856   1.137   4.120
16705TIP3    H171530   0.783   1.099   4.072
16705TIP3    H271531   0.818   1.163   4.204
16706TIP3   OH271532   1.580   1.084   4.965
16706TIP3    H171533   1.642   1.138   4.916
16706TIP3    H271534   1.507   1.071   4.905
16707TIP3   OH271535   1.235   0.421   3.991
16707TIP3    H171536   1.142   0.423   3.969
16707TIP3    H271537   1.252   0.505   4.034
16708TIP3   OH271538   1.027   1.174   5.260
16708TIP3    H171539   1.084   1.154   5.334
16708TIP3    H271540   0.955   1.223   5.298
16709TIP3   OH271541   1.317   0.640   4.135
16709TIP3    H171542   1.404   0.623   4.170
16709TIP3    H271543   1.322   0.730   4.102
16710TIP3   OH271544   0.389   1.074   4.677
16710TIP3    H171545   0.450   1.071   4.603
16710TIP3    H271546   0.429   1.018   4.743
16711TIP3   OH271547   1.071   1.287   4.041
16711TIP3    H171548   1.037   1.376   4.049
16711TIP3    H271549   0.998   1.231   4.067
16712TIP3   OH271550   0.134   0.900   5.265
16712TIP3    H171551   0.127   0.873   5.356
16712TIP3    H271552   0.079   0.837   5.217
16713TIP3   OH271553   0.780   0.890   5.433
16713TIP3    H171554   0.820   0.826   5.374
16713TIP3    H271555   0.849   0.910   5.497
16714TIP3   OH271556   1.230   1.442   5.251
16714TIP3    H171557   1.138   1.440   5.224
16714TIP3    H271558   1.227   1.451   5.346
16715TIP3   OH271559   1.765   0.671   4.081
16715TIP3    H171560   1.725   0.649   3.998
16715TIP3    H271561   1.792   0.762   4.072
16716TIP3   OH271562   1.825   1.282   5.347
16716TIP3    H171563   1.736   1.271   5.312
16716TIP3    H271564   1.882   1.243   5.281
16717TIP3   OH271565   1.637   1.523   4.141
16717TIP3    H171566   1.595   1.447   4.181
16717TIP3    H271567   1.674   1.490   4.059
16718TIP3   OH271568   1.368   1.026   4.785
16718TIP3    H171569   1.273   1.017   4.787
16718TIP3    H271570   1.399   0.945   4.743
16719TIP3   OH271571   0.644   1.448   4.460
16719TIP3    H171572   0.675   1.535   4.434
16719TIP3    H271573   0.552   1.446   4.431
16720TIP3   OH271574   0.176   0.921   3.911
16720TIP3    H171575   0.235   0.974   3.964
16720TIP3    H271576   0.089   0.935   3.950
16721TIP3   OH271577   0.720   1.213   4.340
16721TIP3    H171578   0.711   1.296   4.387
16721TIP3    H271579   0.671   1.150   4.393
16722TIP3   OH271580   0.824   1.626   5.032
16722TIP3    H171581   0.883   1.700   5.015
16722TIP3    H271582   0.876   1.566   5.086
16723TIP3   OH271583   0.639   1.712   4.354
16723TIP3    H171584   0.547   1.724   4.378
16723TIP3    H271585   0.682   1.790   4.389
16724TIP3   OH271586   1.139   1.230   5.016
16724TIP3    H171587   1.095   1.212   5.099
16724TIP3    H271588   1.220   1.178   5.021
16725TIP3   OH271589   1.407   1.327   3.933
16725TIP3    H171590   1.444   1.279   4.007
16725TIP3    H271591   1.313   1.310   3.939
16726TIP3   OH271592   1.419   1.654   5.235
16726TIP3    H171593   1.345   1.595   5.220
16726TIP3    H271594   1.414   1.718   5.164
16727TIP3   OH271595   1.836   1.757   3.933
16727TIP3    H171596   1.901   1.826   3.919
16727TIP3    H271597   1.757   1.803   3.959
16728TIP3   OH271598   0.243   0.401   5.213
16728TIP3    H171599   0.167   0.439   5.258
16728TIP3    H271600   0.258   0.317   5.257
16729TIP3   OH271601   1.519   1.176   4.130
16729TIP3    H171602   1.478   1.110   4.185
16729TIP3    H271603   1.613   1.168   4.149
16730TIP3   OH271604   0.234   1.601   5.035
16730TIP3    H171605   0.150   1.563   5.058
16730TIP3    H271606   0.238   1.683   5.084
16731TIP3   OH271607   0.786   1.422   3.772
16731TIP3    H171608   0.795   1.337   3.730
16731TIP3    H271609   0.750   1.402   3.859
16732TIP3   OH271610   0.665   1.391   4.022
16732TIP3    H171611   0.714   1.341   4.087
16732TIP3    H271612   0.675   1.482   4.048
16733TIP3   OH271613   0.308   1.100   4.076
16733TIP3    H171614   0.239   1.149   4.120
16733TIP3    H271615   0.359   1.167   4.030
16734TIP3   OH271616   1.150   0.358   5.080
16734TIP3    H171617   1.212   0.392   5.145
16734TIP3    H271618   1.114   0.279   5.121
16735TIP3   OH271619   1.222   0.288   4.236
16735TIP3    H171620   1.228   0.332   4.151
16735TIP3    H271621   1.262   0.349   4.298
16736TIP3   OH271622   0.959   1.532   4.061
16736TIP3    H171623   0.872   1.565   4.084
16736TIP3    H271624   1.012   1.610   4.046
16737TIP3   OH271625   0.881   0.536   4.271
16737TIP3    H171626   0.958   0.593   4.279
16737TIP3    H271627   0.863   0.507   4.361
16738TIP3   OH271628   0.994   0.605   5.163
16738TIP3    H171629   0.995   0.636   5.254
16738TIP3    H271630   1.037   0.520   5.167
16739TIP3   OH271631   0.995   0.171   4.340
16739TIP3    H171632   0.994   0.203   4.430
16739TIP3    H271633   1.076   0.207   4.303
16740TIP3   OH271634   0.711   1.650   4.098
16740TIP3    H171635   0.718   1.733   4.052
16740TIP3    H271636   0.687   1.674   4.187
16741TIP3   OH271637   0.578   0.341   4.047
16741TIP3    H171638   0.564   0.426   4.089
16741TIP3    H271639   0.664   0.313   4.078
16742TIP3   OH271640   1.572   0.379   5.282
16742TIP3    H171641   1.482   0.412   5.275
16742TIP3    H271642   1.609   0.392   5.195
16743TIP3   OH271643   1.443   0.771   4.673
16743TIP3    H171644   1.355   0.736   4.684
16743TIP3    H271645   1.499   0.717   4.728
16744TIP3   OH271646   0.416   1.311   3.926
16744TIP3    H171647   0.488   1.357   3.968
16744TIP3    H271648   0.458   1.256   3.860
16745TIP3   OH271649   0.167   0.651   3.845
16745TIP3    H171650   0.189   0.739   3.877
16745TIP3    H271651   0.152   0.663   3.751
16746TIP3   OH271652   1.571   1.723   4.826
16746TIP3    H171653   1.563   1.794   4.763
16746TIP3    H271654   1.665   1.717   4.843
16747TIP3   OH271655   0.264   0.118   4.719
16747TIP3    H171656   0.270   0.100   4.625
16747TIP3    H271657   0.217   0.042   4.754
16748TIP3   OH271658   0.186   1.523   4.309
16748TIP3    H171659   0.122   1.529   4.380
16748TIP3    H271660   0.161   1.591   4.247
16749TIP3   OH271661   0.204   1.808   5.483
16749TIP3    H171662   0.266   1.757   5.536
16749TIP3    H271663   0.145   1.743   5.445
16750TIP3   OH271664   0.994   1.606   3.753
16750TIP3    H171665   0.928   1.539   3.771
16750TIP3    H271666   1.071   1.558   3.725
16751TIP3   OH271667   1.208   1.467   5.529
16751TIP3    H171668   1.208   1.374   5.550
16751TIP3    H271669   1.279   1.503   5.582
16752TIP3   OH271670   1.439   1.567   3.797
16752TIP3    H171671   1.446   1.488   3.851
16752TIP3    H271672   1.517   1.565   3.742
16753TIP3   OH271673   0.146   1.099   5.604
16753TIP3    H171674   0.168   1.012   5.569
16753TIP3    H271675   0.050   1.100   5.605
16754TIP3   OH271676   0.546   1.131   3.769
16754TIP3    H171677   0.572   1.084   3.848
16754TIP3    H271678   0.628   1.148   3.723
16755TIP3   OH271679   0.778   1.160   5.482
16755TIP3    H171680   0.761   1.072   5.447
16755TIP3    H271681   0.830   1.144   5.561
16756TIP3   OH271682   1.127   1.286   3.772
16756TIP3    H171683   1.101   1.280   3.864
16756TIP3    H271684   1.115   1.197   3.738
16757TIP3   OH271685   1.349   1.175   5.248
16757TIP3    H171686   1.439   1.201   5.232
16757TIP3    H271687   1.300   1.257   5.249
16758TIP3   OH271688   0.206   0.835   5.541
16758TIP3    H171689   0.287   0.787   5.530
16758TIP3    H271690   0.146   0.773   5.582
16759TIP3   OH271691   0.644   1.004   3.997
16759TIP3    H171692   0.598   0.963   4.070
16759TIP3    H271693   0.694   0.933   3.957
16760TIP3   OH271694   0.569   0.761   5.203
16760TIP3    H171695   0.517   0.836   5.231
16760TIP3    H271696   0.655   0.797   5.183
16761TIP3   OH271697   0.800   0.833   3.839
16761TIP3    H171698   0.797   0.863   3.748
16761TIP3    H271699   0.893   0.822   3.858
16762TIP3   OH271700   1.173   1.161   5.503
16762TIP3    H171701   1.252   1.111   5.482
16762TIP3    H271702   1.118   1.100   5.553
16763TIP3   OH271703   1.673   1.021   3.795
16763TIP3    H171704   1.684   1.000   3.703
16763TIP3    H271705   1.667   1.116   3.799
16764TIP3   OH271706   0.650   0.539   5.353
16764TIP3    H171707   0.667   0.472   5.287
16764TIP3    H271708   0.632   0.618   5.302
16765TIP3   OH271709   0.685   0.374   5.117
16765TIP3    H171710   0.738   0.423   5.054
16765TIP3    H271711   0.598   0.369   5.077
16766TIP3   OH271712   0.803   0.867   5.112
16766TIP3    H171713   0.897   0.876   5.127
16766TIP3    H271714   0.778   0.948   5.067
16767TIP3   OH271715   1.331   0.684   5.566
16767TIP3    H171716   1.278   0.666   5.643
16767TIP3    H271717   1.305   0.772   5.539
16768TIP3   OH271718   1.410   0.976   5.430
16768TIP3    H171719   1.389   1.040   5.361
16768TIP3    H271720   1.506   0.978   5.435
16769TIP3   OH271721   0.422   0.640   5.500
16769TIP3    H171722   0.372   0.560   5.517
16769TIP3    H271723   0.503   0.610   5.458
16770TIP3   OH271724   0.763   0.113   5.172
16770TIP3    H171725   0.735   0.204   5.163
16770TIP3    H271726   0.681   0.063   5.173
16771TIP3   OH271727   0.887   0.468   5.515
16771TIP3    H171728   0.869   0.432   5.602
16771TIP3    H271729   0.800   0.485   5.478
16772TIP3   OH271730   1.136   0.391   5.414
16772TIP3    H171731   1.052   0.415   5.454
16772TIP3    H271732   1.192   0.368   5.487
16773TIP3   OH271733   1.316   0.313   5.627
16773TIP3    H171734   1.332   0.221   5.646
16773TIP3    H271735   1.262   0.343   5.701
16774TIP3   OH271736   0.284   0.406   5.542
16774TIP3    H171737   0.312   0.330   5.492
16774TIP3    H271738   0.288   0.377   5.634
16775TIP3   OH271739   0.808  -0.012   5.440
16775TIP3    H171740   0.879  -0.001   5.504
16775TIP3    H271741   0.801   0.073   5.397
16776TIP3   OH271742   0.782   1.885   3.968
16776TIP3    H171743   0.873   1.855   3.966
16776TIP3    H271744   0.778   1.953   3.901
16777TIP3   OH271745   0.155   1.363   3.855
16777TIP3    H171746   0.245   1.346   3.881
16777TIP3    H271747   0.133   1.291   3.797
16778TIP3   OH271748   0.065   1.873   4.369
16778TIP3    H171749   0.057   1.829   4.284
16778TIP3    H271750   0.065   1.802   4.433
16779TIP3   OH271751   0.080   1.663   4.557
16779TIP3    H171752   0.074   1.577   4.599
16779TIP3    H271753   0.133   1.715   4.617
16780TIP3   OH271754   1.837   1.725   4.902
16780TIP3    H171755   1.830   1.727   4.997
16780TIP3    H271756   1.907   1.789   4.883
16781TIP3   OH271757   1.777   1.699   5.174
16781TIP3    H171758   1.722   1.630   5.138
16781TIP3    H271759   1.819   1.659   5.250
16782TIP3   OH271760   1.622   1.272   5.684
16782TIP3    H171761   1.536   1.298   5.719
16782TIP3    H271762   1.676   1.351   5.693
16783TIP3   OH271763   1.785   1.120   4.193
16783TIP3    H171764   1.857   1.182   4.197
16783TIP3    H271765   1.801   1.060   4.266
16784TIP3   OH271766   1.833   0.921   4.382
16784TIP3    H171767   1.749   0.891   4.417
16784TIP3    H271768   1.886   0.938   4.459
16785TIP3   OH271769   1.804   1.218   4.880
16785TIP3    H171770   1.865   1.152   4.847
16785TIP3    H271771   1.838   1.301   4.846
16786TIP3   OH271772   1.609   1.501   5.083
16786TIP3    H171773   1.536   1.539   5.132
16786TIP3    H271774   1.572   1.482   4.997
16787TIP3   OH271775   1.829   0.927   4.002
16787TIP3    H171776   1.776   0.955   3.927
16787TIP3    H271777   1.814   0.995   4.068
16788TIP3   OH271778   1.665   0.627   3.830
16788TIP3    H171779   1.640   0.691   3.764
16788TIP3    H271780   1.653   0.542   3.788
16789TIP3   OH271781   1.578   0.804   4.432
16789TIP3    H171782   1.579   0.713   4.404
16789TIP3    H271783   1.535   0.802   4.518
16790TIP3   OH271784   0.107   1.002   4.804
16790TIP3    H171785   0.146   1.023   4.719
16790TIP3    H271786   0.181   0.977   4.859
16791TIP3   OH271787   1.693   0.995   5.426
16791TIP3    H171788   1.741   0.920   5.392
16791TIP3    H271789   1.749   1.071   5.408
16792TIP3   OH271790   1.796   0.747   5.352
16792TIP3    H171791   1.709   0.715   5.376
16792TIP3    H271792   1.856   0.681   5.387
16793TIP3   OH271793   1.606   0.376   3.724
16793TIP3    H171794   1.647   0.329   3.796
16793TIP3    H271795   1.512   0.366   3.737
16794TIP3   OH271796   1.567   0.557   4.253
16794TIP3    H171797   1.597   0.467   4.259
16794TIP3    H271798   1.636   0.602   4.203
16795TIP3   OH271799   1.599   0.588   4.815
16795TIP3    H171800   1.692   0.602   4.800
16795TIP3    H271801   1.587   0.605   4.909
16796TIP3   OH271802   1.613   0.660   5.084
16796TIP3    H171803   1.538   0.691   5.135
16796TIP3    H271804   1.665   0.739   5.069
16797TIP3   OH271805   0.035   0.452   5.433
16797TIP3    H171806   0.121   0.447   5.474
16797TIP3    H271807  -0.026   0.429   5.503
16798TIP3   OH271808   1.896   0.102   5.655
16798TIP3    H171809   1.845   0.023   5.671
16798TIP3    H271810   1.860   0.139   5.575
16799TIP3   OH271811   1.629   0.284   4.276
16799TIP3    H171812   1.649   0.246   4.362
16799TIP3    H271813   1.561   0.227   4.240
16800TIP3   OH271814   0.183   0.378   4.710
16800TIP3    H171815   0.208   0.287   4.723
16800TIP3    H271816   0.258   0.428   4.742
16801TIP3   OH271817   0.021   0.741   4.847
16801TIP3    H171818   0.090   0.712   4.788
16801TIP3    H271819   0.036   0.834   4.860
16802TIP3   OH271820   1.782   0.250   5.440
16802TIP3    H171821   1.712   0.298   5.484
16802TIP3    H271822   1.748   0.234   5.352
16803TIP3   OH271823   1.779   0.254   3.910
16803TIP3    H171824   1.843   0.206   3.857
16803TIP3    H271825   1.831   0.321   3.954
16804TIP3   OH271826   0.100   0.251   4.194
16804TIP3    H171827   0.038   0.237   4.266
16804TIP3    H271828   0.074   0.334   4.156
16805TIP3   OH271829   1.490   1.796   4.433
16805TIP3    H171830   1.566   1.789   4.376
16805TIP3    H271831   1.523   1.839   4.512
16806TIP3   OH271832   0.029   0.096   5.091
16806TIP3    H171833   0.007   0.155   5.163
16806TIP3    H271834  -0.009   0.138   5.014
16807TIP3   OH271835   0.238   1.512   5.492
16807TIP3    H171836   0.148   1.526   5.464
16807TIP3    H271837   0.231   1.463   5.573
16808TIP3   OH271838   0.557   1.594   5.108
16808TIP3    H171839   0.529   1.676   5.068
16808TIP3    H271840   0.652   1.593   5.097
16809TIP3   OH271841   1.020   1.643   5.422
16809TIP3    H171842   1.082   1.591   5.473
16809TIP3    H271843   1.069   1.722   5.400
16810TIP3   OH271844   1.208   1.840   5.358
16810TIP3    H171845   1.280   1.788   5.322
16810TIP3    H271846   1.243   1.877   5.440
16811TIP3   OH271847   1.689   0.093   5.193
16811TIP3    H171848   1.637   0.153   5.139
16811TIP3    H271849   1.660   0.006   5.166
16812TIP3   OH271850   0.242   1.867   5.131
16812TIP3    H171851   0.169   1.927   5.115
16812TIP3    H271852   0.285   1.902   5.209
16813TIP3   OH271853   0.470   1.812   4.977
16813TIP3    H171854   0.397   1.852   5.025
16813TIP3    H271855   0.511   1.886   4.930
16814TIP3   OH271856   0.974   1.850   4.970
16814TIP3    H171857   0.936   1.901   4.899
16814TIP3    H271858   0.982   1.912   5.042
16815TIP3   OH271859   1.205   1.712   5.033
16815TIP3    H171860   1.126   1.760   5.009
16815TIP3    H271861   1.276   1.776   5.025
16816TIP3   OH271862   1.444   1.854   5.034
16816TIP3    H171863   1.470   1.945   5.022
16816TIP3    H271864   1.489   1.807   4.964
16817TIP3   OH271865   0.226   1.750   4.783
16817TIP3    H171866   0.229   1.730   4.876
16817TIP3    H271867   0.302   1.705   4.746
16818TIP3   OH271868   0.441   1.607   4.687
16818TIP3    H171869   0.435   1.515   4.712
16818TIP3    H271870   0.526   1.636   4.719
16819TIP3   OH271871   0.701   1.638   4.785
16819TIP3    H171872   0.719   1.548   4.757
16819TIP3    H271873   0.738   1.643   4.873
16820TIP3   OH271874   0.962   0.214   4.610
16820TIP3    H171875   0.905   0.161   4.665
16820TIP3    H271876   1.051   0.196   4.643
16821TIP3   OH271877   1.502   0.051   4.659
16821TIP3    H171878   1.576   0.076   4.603
16821TIP3    H271879   1.505   0.112   4.732
16822TIP3   OH271880   1.711   0.140   4.503
16822TIP3    H171881   1.779   0.075   4.486
16822TIP3    H271882   1.758   0.220   4.525
16823TIP3   OH271883   0.311   0.048   4.452
16823TIP3    H171884   0.264  -0.006   4.389
16823TIP3    H271885   0.370  -0.012   4.497
16824TIP3   OH271886   0.196   0.054   4.038
16824TIP3    H171887   0.245   0.103   3.972
16824TIP3    H271888   0.158   0.122   4.094
16825TIP3   OH271889   0.756   0.049   4.417
16825TIP3    H171890   0.838   0.092   4.392
16825TIP3    H271891   0.750   0.062   4.512
16826TIP3   OH271892   1.224   0.149   4.658
16826TIP3    H171893   1.289   0.175   4.592
16826TIP3    H271894   1.248   0.059   4.681
16827TIP3   OH271895   1.430   0.105   4.198
16827TIP3    H171896   1.353   0.161   4.194
16827TIP3    H271897   1.413   0.044   4.269
16828TIP3   OH271898   0.105   1.719   4.132
16828TIP3    H171899   0.063   1.677   4.057
16828TIP3    H271900   0.154   1.792   4.094
16829TIP3   OH271901   0.340   0.267   3.905
16829TIP3    H171902   0.380   0.216   3.834
16829TIP3    H271903   0.413   0.289   3.963
16830TIP3   OH271904   0.833   0.297   4.148
16830TIP3    H171905   0.884   0.238   4.203
16830TIP3    H271906   0.845   0.383   4.187
16831TIP3   OH271907   1.038   1.785   3.957
16831TIP3    H171908   1.132   1.800   3.949
16831TIP3    H271909   1.016   1.730   3.882
16832TIP3   OH271910   1.698   1.766   4.249
16832TIP3    H171911   1.681   1.677   4.218
16832TIP3    H271912   1.687   1.822   4.172
16833TIP3   OH271913   0.265   0.168   5.360
16833TIP3    H171914   0.196   0.107   5.386
16833TIP3    H271915   0.338   0.149   5.418
16834TIP3   OH271916   0.474   0.148   5.532
16834TIP3    H171917   0.523   0.225   5.561
16834TIP3    H271918   0.515   0.074   5.576
16835TIP3   OH271919   0.366   1.776   3.813
16835TIP3    H171920   0.348   1.786   3.907
16835TIP3    H271921   0.437   1.712   3.809
16836TIP3   OH271922   1.590   1.632   5.459
16836TIP3    H171923   1.532   1.630   5.382
16836TIP3    H271924   1.594   1.724   5.483
16837TIP3   OH271925   3.086   1.037   4.413
16837TIP3    H171926   3.075   1.131   4.407
16837TIP3    H271927   3.008   1.000   4.373
16838TIP3   OH271928   2.956   0.945   4.806
16838TIP3    H171929   2.979   0.911   4.893
16838TIP3    H271930   2.907   0.874   4.765
16839TIP3   OH271931   2.177   0.892   4.970
16839TIP3    H171932   2.177   0.808   5.016
16839TIP3    H271933   2.236   0.948   5.022
16840TIP3   OH271934   3.349   1.250   4.635
16840TIP3    H171935   3.309   1.177   4.683
16840TIP3    H271936   3.365   1.316   4.702
16841TIP3   OH271937   2.313   1.345   4.743
16841TIP3    H171938   2.279   1.256   4.730
16841TIP3    H271939   2.403   1.332   4.774
16842TIP3   OH271940   1.959   0.684   4.293
16842TIP3    H171941   1.932   0.768   4.330
16842TIP3    H271942   1.894   0.667   4.224
16843TIP3   OH271943   2.028   0.940   4.582
16843TIP3    H171944   2.056   0.851   4.604
16843TIP3    H271945   2.106   0.993   4.598
16844TIP3   OH271946   3.071   1.738   4.685
16844TIP3    H171947   3.103   1.668   4.627
16844TIP3    H271948   3.053   1.694   4.768
16845TIP3   OH271949   2.810   1.194   4.841
16845TIP3    H171950   2.847   1.113   4.804
16845TIP3    H271951   2.876   1.224   4.903
16846TIP3   OH271952   3.710   0.336   4.921
16846TIP3    H171953   3.716   0.394   4.997
16846TIP3    H271954   3.751   0.386   4.850
16847TIP3   OH271955   3.126   0.613   4.841
16847TIP3    H171956   3.146   0.522   4.862
16847TIP3    H271957   3.099   0.611   4.749
16848TIP3   OH271958   2.440   0.431   4.578
16848TIP3    H171959   2.448   0.516   4.535
16848TIP3    H271960   2.385   0.378   4.519
16849TIP3   OH271961   3.244   0.449   4.415
16849TIP3    H171962   3.288   0.423   4.496
16849TIP3    H271963   3.311   0.496   4.365
16850TIP3   OH271964   2.102   0.685   4.656
16850TIP3    H171965   2.165   0.647   4.717
16850TIP3    H271966   2.124   0.646   4.572
16851TIP3   OH271967   2.600   0.827   4.603
16851TIP3    H171968   2.679   0.786   4.638
16851TIP3    H271969   2.558   0.758   4.552
16852TIP3   OH271970   3.717   0.487   5.151
16852TIP3    H171971   3.646   0.550   5.137
16852TIP3    H271972   3.695   0.444   5.234
16853TIP3   OH271973   2.327   0.335   4.996
16853TIP3    H171974   2.303   0.396   4.926
16853TIP3    H271975   2.255   0.343   5.060
16854TIP3   OH271976   3.056   1.295   4.314
16854TIP3    H171977   3.032   1.289   4.222
16854TIP3    H271978   3.007   1.371   4.347
16855TIP3   OH271979   2.581   1.111   4.979
16855TIP3    H171980   2.528   1.179   5.021
16855TIP3    H271981   2.653   1.159   4.939
16856TIP3   OH271982   3.364   0.398   4.654
16856TIP3    H171983   3.299   0.375   4.720
16856TIP3    H271984   3.421   0.462   4.696
16857TIP3   OH271985   2.285   0.517   4.789
16857TIP3    H171986   2.340   0.575   4.842
16857TIP3    H271987   2.344   0.483   4.722
16858TIP3   OH271988   2.424   1.310   5.096
16858TIP3    H171989   2.429   1.405   5.083
16858TIP3    H271990   2.336   1.295   5.132
16859TIP3   OH271991   2.005   1.289   4.173
16859TIP3    H171992   1.999   1.331   4.087
16859TIP3    H271993   2.030   1.360   4.232
16860TIP3   OH271994   3.380   1.452   4.829
16860TIP3    H171995   3.287   1.449   4.851
16860TIP3    H271996   3.397   1.545   4.811
16861TIP3   OH271997   3.451   0.271   5.022
16861TIP3    H171998   3.376   0.306   4.976
16861TIP3    H271999   3.527   0.299   4.970
16862TIP3   OH272000   2.656   0.057   4.711
16862TIP3    H172001   2.690   0.003   4.783
16862TIP3    H272002   2.574   0.093   4.746
16863TIP3   OH272003   3.197   1.599   4.469
16863TIP3    H172004   3.242   1.517   4.450
16863TIP3    H272005   3.267   1.665   4.470
16864TIP3   OH272006   3.319   1.364   4.385
16864TIP3    H172007   3.234   1.328   4.357
16864TIP3    H272008   3.339   1.319   4.467
16865TIP3   OH272009   3.489   1.245   5.194
16865TIP3    H172010   3.480   1.185   5.120
16865TIP3    H272011   3.499   1.332   5.154
16866TIP3   OH272012   2.929   0.936   4.199
16866TIP3    H172013   2.862   1.000   4.178
16866TIP3    H272014   2.998   0.952   4.135
16867TIP3   OH272015   2.961   0.812   3.866
16867TIP3    H172016   3.016   0.838   3.940
16867TIP3    H272017   3.012   0.745   3.821
16868TIP3   OH272018   3.661   0.895   5.009
16868TIP3    H172019   3.585   0.953   5.010
16868TIP3    H272020   3.718   0.931   4.941
16869TIP3   OH272021   3.303   0.960   4.270
16869TIP3    H172022   3.233   0.988   4.329
16869TIP3    H272023   3.366   0.916   4.327
16870TIP3   OH272024   3.260   0.770   5.193
16870TIP3    H172025   3.264   0.829   5.268
16870TIP3    H272026   3.188   0.804   5.140
16871TIP3   OH272027   2.450   1.019   4.470
16871TIP3    H172028   2.425   0.979   4.387
16871TIP3    H272029   2.507   0.954   4.512
16872TIP3   OH272030   2.605   1.369   4.736
16872TIP3    H172031   2.612   1.369   4.640
16872TIP3    H272032   2.678   1.314   4.764
16873TIP3   OH272033   2.459   0.918   4.827
16873TIP3    H172034   2.519   0.898   4.755
16873TIP3    H272035   2.505   0.984   4.878
16874TIP3   OH272036   3.123   1.446   4.908
16874TIP3    H172037   3.103   1.525   4.957
16874TIP3    H272038   3.076   1.376   4.955
16875TIP3   OH272039   2.588   1.329   5.325
16875TIP3    H172040   2.534   1.392   5.373
16875TIP3    H272041   2.536   1.305   5.249
16876TIP3   OH272042   3.167   0.897   4.040
16876TIP3    H172043   3.217   0.934   4.112
16876TIP3    H272044   3.220   0.915   3.962
16877TIP3   OH272045   2.272   0.959   5.245
16877TIP3    H172046   2.276   1.025   5.314
16877TIP3    H272047   2.179   0.941   5.234
16878TIP3   OH272048   2.944   1.540   4.378
16878TIP3    H172049   3.024   1.569   4.422
16878TIP3    H272050   2.907   1.620   4.340
16879TIP3   OH272051   2.397   1.517   5.378
16879TIP3    H172052   2.382   1.551   5.289
16879TIP3    H272053   2.312   1.523   5.421
16880TIP3   OH272054   3.506   0.033   4.005
16880TIP3    H172055   3.437   0.060   4.065
16880TIP3    H272056   3.556   0.113   3.987
16881TIP3   OH272057   2.362   0.929   4.211
16881TIP3    H172058   2.304   0.996   4.174
16881TIP3    H272059   2.308   0.850   4.214
16882TIP3   OH272060   3.669   1.494   3.878
16882TIP3    H172061   3.681   1.587   3.895
16882TIP3    H272062   3.758   1.458   3.875
16883TIP3   OH272063   1.952   1.160   5.134
16883TIP3    H172064   1.900   1.159   5.054
16883TIP3    H272065   1.965   1.067   5.155
16884TIP3   OH272066   1.930   1.464   4.808
16884TIP3    H172067   2.016   1.457   4.848
16884TIP3    H272068   1.889   1.539   4.852
16885TIP3   OH272069   3.757   1.502   5.392
16885TIP3    H172070   3.739   1.409   5.404
16885TIP3    H272071   3.675   1.546   5.414
16886TIP3   OH272072   2.817   1.473   5.268
16886TIP3    H172073   2.826   1.546   5.329
16886TIP3    H272074   2.736   1.429   5.295
16887TIP3   OH272075   2.913   1.806   4.245
16887TIP3    H172076   2.882   1.817   4.155
16887TIP3    H272077   2.887   1.886   4.290
16888TIP3   OH272078   2.255   1.705   4.438
16888TIP3    H172079   2.276   1.673   4.526
16888TIP3    H272080   2.202   1.635   4.400
16889TIP3   OH272081   3.199   1.774   3.929
16889TIP3    H172082   3.249   1.700   3.893
16889TIP3    H272083   3.205   1.763   4.024
16890TIP3   OH272084   3.180   1.754   4.204
16890TIP3    H172085   3.087   1.764   4.224
16890TIP3    H272086   3.216   1.706   4.279
16891TIP3   OH272087   3.475   0.661   5.438
16891TIP3    H172088   3.430   0.676   5.521
16891TIP3    H272089   3.447   0.574   5.410
16892TIP3   OH272090   2.172   1.307   5.212
16892TIP3    H172091   2.188   1.271   5.299
16892TIP3    H272092   2.094   1.261   5.180
16893TIP3   OH272093   2.412   0.124   4.828
16893TIP3    H172094   2.326   0.131   4.787
16893TIP3    H272095   2.412   0.190   4.897
16894TIP3   OH272096   2.918   0.128   5.196
16894TIP3    H172097   2.940   0.067   5.266
16894TIP3    H272098   2.822   0.124   5.190
16895TIP3   OH272099   3.206   0.503   5.234
16895TIP3    H172100   3.138   0.499   5.302
16895TIP3    H272101   3.222   0.596   5.222
16896TIP3   OH272102   3.314   0.900   3.803
16896TIP3    H172103   3.291   0.930   3.715
16896TIP3    H272104   3.397   0.942   3.823
16897TIP3   OH272105   2.871   0.371   3.926
16897TIP3    H172106   2.812   0.352   3.998
16897TIP3    H272107   2.843   0.313   3.855
16898TIP3   OH272108   2.438   0.674   4.955
16898TIP3    H172109   2.374   0.678   5.026
16898TIP3    H272110   2.439   0.763   4.919
16899TIP3   OH272111   2.443   0.665   4.438
16899TIP3    H172112   2.347   0.658   4.435
16899TIP3    H272113   2.471   0.643   4.349
16900TIP3   OH272114   2.989   0.694   4.313
16900TIP3    H172115   2.962   0.781   4.283
16900TIP3    H272116   3.063   0.671   4.256
16901TIP3   OH272117   2.900   0.738   5.421
16901TIP3    H172118   2.861   0.661   5.463
16901TIP3    H272119   2.984   0.749   5.464
16902TIP3   OH272120   3.078   0.621   4.571
16902TIP3    H172121   3.033   0.672   4.504
16902TIP3    H272122   3.125   0.554   4.521
16903TIP3   OH272123   2.218   0.660   5.127
16903TIP3    H172124   2.213   0.701   5.213
16903TIP3    H272125   2.181   0.573   5.140
16904TIP3   OH272126   2.541   0.372   3.785
16904TIP3    H172127   2.513   0.364   3.876
16904TIP3    H272128   2.488   0.443   3.749
16905TIP3   OH272129   1.875   0.352   4.524
16905TIP3    H172130   1.924   0.377   4.602
16905TIP3    H272131   1.934   0.371   4.451
16906TIP3   OH272132   1.933   0.454   4.030
16906TIP3    H172133   2.007   0.492   3.983
16906TIP3    H272134   1.879   0.530   4.054
16907TIP3   OH272135   3.029   0.790   5.027
16907TIP3    H172136   3.069   0.730   4.963
16907TIP3    H272137   2.968   0.735   5.076
16908TIP3   OH272138   2.713   0.440   4.521
16908TIP3    H172139   2.626   0.432   4.559
16908TIP3    H272140   2.765   0.373   4.566
16909TIP3   OH272141   2.183   0.578   4.414
16909TIP3    H172142   2.107   0.606   4.362
16909TIP3    H272143   2.198   0.487   4.389
16910TIP3   OH272144   2.509   0.581   4.186
16910TIP3    H172145   2.604   0.581   4.200
16910TIP3    H272146   2.498   0.622   4.100
16911TIP3   OH272147   3.186   0.326   4.845
16911TIP3    H172148   3.136   0.328   4.926
16911TIP3    H272149   3.141   0.261   4.790
16912TIP3   OH272150   2.470   0.662   3.930
16912TIP3    H172151   2.421   0.643   3.851
16912TIP3    H272152   2.545   0.714   3.900
16913TIP3   OH272153   3.503   1.907   5.494
16913TIP3    H172154   3.421   1.950   5.470
16913TIP3    H272155   3.543   1.965   5.559
16914TIP3   OH272156   2.208   1.153   5.449
16914TIP3    H172157   2.289   1.161   5.499
16914TIP3    H272158   2.139   1.164   5.513
16915TIP3   OH272159   2.817   0.704   4.727
16915TIP3    H172160   2.878   0.643   4.686
16915TIP3    H272161   2.782   0.656   4.802
16916TIP3   OH272162   2.278   0.309   4.382
16916TIP3    H172163   2.235   0.228   4.411
16916TIP3    H272164   2.322   0.285   4.300
16917TIP3   OH272165   2.702   0.577   4.954
16917TIP3    H172166   2.619   0.624   4.963
16917TIP3    H272167   2.754   0.605   5.029
16918TIP3   OH272168   2.744   1.130   4.131
16918TIP3    H172169   2.672   1.094   4.079
16918TIP3    H272170   2.704   1.160   4.212
16919TIP3   OH272171   3.466   1.086   4.967
16919TIP3    H172172   3.522   1.147   4.919
16919TIP3    H272173   3.390   1.073   4.910
16920TIP3   OH272174   3.130   0.422   3.985
16920TIP3    H172175   3.036   0.417   3.967
16920TIP3    H272176   3.141   0.504   4.031
16921TIP3   OH272177   2.883   1.196   5.267
16921TIP3    H172178   2.852   1.164   5.352
16921TIP3    H272179   2.860   1.290   5.268
16922TIP3   OH272180   3.201   0.638   4.137
16922TIP3    H172181   3.288   0.626   4.175
16922TIP3    H272182   3.201   0.729   4.106
16923TIP3   OH272183   2.265   1.062   4.676
16923TIP3    H172184   2.328   1.058   4.604
16923TIP3    H272185   2.305   1.009   4.745
16924TIP3   OH272186   2.952   1.288   4.053
16924TIP3    H172187   2.917   1.377   4.059
16924TIP3    H272188   2.878   1.232   4.078
16925TIP3   OH272189   2.000   0.906   5.247
16925TIP3    H172190   2.025   0.895   5.339
16925TIP3    H272191   1.921   0.852   5.238
16926TIP3   OH272192   2.665   0.882   5.465
16926TIP3    H172193   2.599   0.851   5.403
16926TIP3    H272194   2.748   0.848   5.432
16927TIP3   OH272195   3.108   1.448   5.271
16927TIP3    H172196   3.013   1.455   5.259
16927TIP3    H272197   3.121   1.465   5.364
16928TIP3   OH272198   3.655   0.664   4.079
16928TIP3    H172199   3.622   0.641   3.992
16928TIP3    H272200   3.674   0.758   4.074
16929TIP3   OH272201   3.698   1.225   5.365
16929TIP3    H172202   3.616   1.242   5.319
16929TIP3    H272203   3.763   1.216   5.296
16930TIP3   OH272204   3.526   1.514   4.158
16930TIP3    H172205   3.469   1.457   4.210
16930TIP3    H272206   3.537   1.469   4.075
16931TIP3   OH272207   3.254   1.026   4.785
16931TIP3    H172208   3.158   1.022   4.791
16931TIP3    H272209   3.279   0.945   4.742
16932TIP3   OH272210   2.527   1.449   4.462
16932TIP3    H172211   2.544   1.535   4.424
16932TIP3    H272212   2.438   1.456   4.497
16933TIP3   OH272213   2.090   0.902   3.912
16933TIP3    H172214   2.139   0.968   3.962
16933TIP3    H272215   2.000   0.909   3.945
16934TIP3   OH272216   2.605   1.213   4.345
16934TIP3    H172217   2.588   1.298   4.386
16934TIP3    H272218   2.554   1.152   4.397
16935TIP3   OH272219   2.714   1.616   5.045
16935TIP3    H172220   2.776   1.687   5.024
16935TIP3    H272221   2.760   1.564   5.111
16936TIP3   OH272222   2.517   1.712   4.352
16936TIP3    H172223   2.425   1.723   4.375
16936TIP3    H272224   2.559   1.791   4.388
16937TIP3   OH272225   3.016   1.216   5.032
16937TIP3    H172226   2.965   1.205   5.112
16937TIP3    H272227   3.101   1.177   5.053
16938TIP3   OH272228   3.301   1.325   3.913
16938TIP3    H172229   3.324   1.270   3.987
16938TIP3    H272230   3.211   1.302   3.893
16939TIP3   OH272231   3.314   1.639   5.221
16939TIP3    H172232   3.232   1.589   5.220
16939TIP3    H272233   3.294   1.718   5.170
16940TIP3   OH272234   3.725   1.762   3.931
16940TIP3    H172235   3.789   1.833   3.930
16940TIP3    H272236   3.643   1.805   3.957
16941TIP3   OH272237   2.112   0.397   5.164
16941TIP3    H172238   2.019   0.422   5.159
16941TIP3    H272239   2.115   0.329   5.230
16942TIP3   OH272240   3.407   1.159   4.104
16942TIP3    H172241   3.361   1.105   4.169
16942TIP3    H272242   3.499   1.156   4.131
16943TIP3   OH272243   2.107   1.584   5.025
16943TIP3    H172244   2.134   1.505   5.073
16943TIP3    H272245   2.115   1.655   5.089
16944TIP3   OH272246   2.671   1.431   3.774
16944TIP3    H172247   2.677   1.347   3.727
16944TIP3    H272248   2.629   1.408   3.857
16945TIP3   OH272249   2.541   1.398   4.020
16945TIP3    H172250   2.574   1.347   4.093
16945TIP3    H272251   2.554   1.489   4.046
16946TIP3   OH272252   2.194   1.106   4.077
16946TIP3    H172253   2.126   1.152   4.126
16946TIP3    H272254   2.237   1.175   4.026
16947TIP3   OH272255   3.049   0.337   5.073
16947TIP3    H172256   3.098   0.385   5.140
16947TIP3    H272257   3.003   0.269   5.122
16948TIP3   OH272258   3.109   0.289   4.233
16948TIP3    H172259   3.112   0.335   4.149
16948TIP3    H272260   3.146   0.351   4.296
16949TIP3   OH272261   2.846   1.536   4.063
16949TIP3    H172262   2.758   1.566   4.085
16949TIP3    H272263   2.894   1.617   4.043
16950TIP3   OH272264   2.769   0.534   4.274
16950TIP3    H172265   2.844   0.593   4.283
16950TIP3    H272266   2.748   0.507   4.363
16951TIP3   OH272267   2.873   0.614   5.174
16951TIP3    H172268   2.873   0.665   5.255
16951TIP3    H272269   2.906   0.528   5.199
16952TIP3   OH272270   2.881   0.176   4.344
16952TIP3    H172271   2.879   0.212   4.432
16952TIP3    H272272   2.960   0.213   4.304
16953TIP3   OH272273   2.599   1.654   4.098
16953TIP3    H172274   2.604   1.738   4.053
16953TIP3    H272275   2.570   1.676   4.186
16954TIP3   OH272276   2.458   0.340   4.051
16954TIP3    H172277   2.440   0.425   4.091
16954TIP3    H272278   2.544   0.316   4.083
16955TIP3   OH272279   3.448   0.385   5.279
16955TIP3    H172280   3.360   0.422   5.280
16955TIP3    H272281   3.455   0.343   5.193
16956TIP3   OH272282   3.326   0.770   4.667
16956TIP3    H172283   3.237   0.735   4.665
16956TIP3    H272284   3.373   0.714   4.728
16957TIP3   OH272285   2.289   1.324   3.922
16957TIP3    H172286   2.362   1.371   3.963
16957TIP3    H272287   2.331   1.264   3.860
16958TIP3   OH272288   2.085   0.626   3.879
16958TIP3    H172289   2.105   0.716   3.905
16958TIP3    H272290   2.050   0.635   3.790
16959TIP3   OH272291   3.457   1.720   4.818
16959TIP3    H172292   3.443   1.792   4.755
16959TIP3    H272293   3.550   1.726   4.840
16960TIP3   OH272294   2.155   0.129   4.728
16960TIP3    H172295   2.150   0.103   4.636
16960TIP3    H272296   2.112   0.058   4.776
16961TIP3   OH272297   2.065   1.523   4.326
16961TIP3    H172298   2.012   1.553   4.399
16961TIP3    H272299   2.051   1.589   4.258
16962TIP3   OH272300   2.032   1.777   5.463
16962TIP3    H172301   2.094   1.712   5.495
16962TIP3    H272302   1.957   1.725   5.433
16963TIP3   OH272303   2.884   1.604   3.750
16963TIP3    H172304   2.813   1.542   3.767
16963TIP3    H272305   2.957   1.549   3.722
16964TIP3   OH272306   3.131   1.501   5.538
16964TIP3    H172307   3.071   1.441   5.581
16964TIP3    H272308   3.187   1.534   5.608
16965TIP3   OH272309   3.334   1.572   3.799
16965TIP3    H172310   3.333   1.490   3.849
16965TIP3    H272311   3.414   1.567   3.747
16966TIP3   OH272312   2.430   1.139   3.787
16966TIP3    H172313   2.466   1.091   3.862
16966TIP3    H272314   2.504   1.148   3.727
16967TIP3   OH272315   2.727   1.154   5.493
16967TIP3    H172316   2.667   1.211   5.445
16967TIP3    H272317   2.685   1.068   5.491
16968TIP3   OH272318   3.047   1.278   3.798
16968TIP3    H172319   3.003   1.281   3.883
16968TIP3    H272320   3.017   1.197   3.758
16969TIP3   OH272321   3.225   1.189   5.252
16969TIP3    H172322   3.316   1.218   5.243
16969TIP3    H272323   3.175   1.271   5.262
16970TIP3   OH272324   2.078   0.858   5.506
16970TIP3    H172325   2.079   0.793   5.576
16970TIP3    H272326   2.096   0.941   5.549
16971TIP3   OH272327   2.539   1.001   4.002
16971TIP3    H172328   2.485   0.965   4.073
16971TIP3    H272329   2.581   0.925   3.962
16972TIP3   OH272330   2.494   0.785   5.262
16972TIP3    H172331   2.420   0.846   5.257
16972TIP3    H272332   2.557   0.819   5.199
16973TIP3   OH272333   2.683   0.814   3.856
16973TIP3    H172334   2.678   0.843   3.765
16973TIP3    H272335   2.777   0.807   3.873
16974TIP3   OH272336   3.040   1.014   5.606
16974TIP3    H172337   3.090   0.993   5.527
16974TIP3    H272338   3.013   0.928   5.640
16975TIP3   OH272339   3.566   1.020   3.790
16975TIP3    H172340   3.569   1.002   3.696
16975TIP3    H272341   3.558   1.115   3.796
16976TIP3   OH272342   2.539   0.529   5.351
16976TIP3    H172343   2.549   0.472   5.274
16976TIP3    H272344   2.520   0.615   5.315
16977TIP3   OH272345   2.574   0.370   5.112
16977TIP3    H172346   2.625   0.425   5.052
16977TIP3    H272347   2.487   0.365   5.073
16978TIP3   OH272348   2.690   0.892   5.105
16978TIP3    H172349   2.781   0.917   5.124
16978TIP3    H272350   2.652   0.969   5.064
16979TIP3   OH272351   3.265   0.962   5.401
16979TIP3    H172352   3.242   1.040   5.350
16979TIP3    H272353   3.360   0.968   5.413
16980TIP3   OH272354   2.388   0.555   5.587
16980TIP3    H172355   2.298   0.532   5.565
16980TIP3    H272356   2.435   0.553   5.504
16981TIP3   OH272357   2.638   0.103   5.174
16981TIP3    H172358   2.618   0.196   5.159
16981TIP3    H272359   2.556   0.058   5.154
16982TIP3   OH272360   2.759   0.523   5.516
16982TIP3    H172361   2.732   0.537   5.607
16982TIP3    H272362   2.677   0.531   5.466
16983TIP3   OH272363   2.999   0.448   5.401
16983TIP3    H172364   2.917   0.454   5.450
16983TIP3    H272365   3.061   0.412   5.465
16984TIP3   OH272366   3.194   0.356   5.569
16984TIP3    H172367   3.178   0.263   5.587
16984TIP3    H272368   3.267   0.379   5.627
16985TIP3   OH272369   2.157   0.416   5.525
16985TIP3    H172370   2.159   0.346   5.459
16985TIP3    H272371   2.151   0.370   5.609
16986TIP3   OH272372   2.648   0.037   5.449
16986TIP3    H172373   2.735   0.003   5.470
16986TIP3    H272374   2.650   0.051   5.355
16987TIP3   OH272375   2.638   0.259   5.609
16987TIP3    H172376   2.641   0.177   5.560
16987TIP3    H272377   2.622   0.326   5.543
16988TIP3   OH272378   2.671   1.891   3.970
16988TIP3    H172379   2.760   1.858   3.963
16988TIP3    H272380   2.664   1.958   3.902
16989TIP3   OH272381   2.018   1.354   3.896
16989TIP3    H172382   2.113   1.355   3.905
16989TIP3    H272383   2.000   1.283   3.835
16990TIP3   OH272384   1.894   1.850   4.423
16990TIP3    H172385   1.835   1.819   4.355
16990TIP3    H272386   1.912   1.773   4.477
16991TIP3   OH272387   1.965   1.632   4.578
16991TIP3    H172388   1.930   1.556   4.625
16991TIP3    H272389   2.014   1.680   4.644
16992TIP3   OH272390   3.718   1.744   4.902
16992TIP3    H172391   3.715   1.712   4.992
16992TIP3    H272392   3.750   1.834   4.909
16993TIP3   OH272393   3.715   1.648   5.155
16993TIP3    H172394   3.638   1.596   5.133
16993TIP3    H272395   3.734   1.625   5.246
16994TIP3   OH272396   3.672   1.118   4.189
16994TIP3    H172397   3.741   1.183   4.197
16994TIP3    H272398   3.684   1.061   4.265
16995TIP3   OH272399   3.718   0.918   4.378
16995TIP3    H172400   3.633   0.888   4.412
16995TIP3    H272401   3.770   0.937   4.456
16996TIP3   OH272402   3.700   1.228   4.898
16996TIP3    H172403   3.754   1.164   4.851
16996TIP3    H272404   3.721   1.312   4.858
16997TIP3   OH272405   3.499   1.494   5.079
16997TIP3    H172406   3.432   1.542   5.128
16997TIP3    H272407   3.460   1.478   4.993
16998TIP3   OH272408   3.710   0.923   4.002
16998TIP3    H172409   3.658   0.952   3.927
16998TIP3    H272410   3.695   0.989   4.069
16999TIP3   OH272411   3.591   0.621   3.814
16999TIP3    H172412   3.547   0.687   3.760
16999TIP3    H272413   3.563   0.537   3.778
17000TIP3   OH272414   3.468   0.802   4.432
17000TIP3    H172415   3.460   0.711   4.402
17000TIP3    H272416   3.422   0.802   4.517
17001TIP3   OH272417   1.957   0.992   4.844
17001TIP3    H172418   1.973   0.978   4.750
17001TIP3    H272419   2.039   0.964   4.886
17002TIP3   OH272420   3.543   1.001   5.436
17002TIP3    H172421   3.603   0.926   5.437
17002TIP3    H272422   3.600   1.077   5.420
17003TIP3   OH272423   3.721   0.769   5.410
17003TIP3    H172424   3.630   0.741   5.414
17003TIP3    H272425   3.771   0.688   5.418
17004TIP3   OH272426   3.493   0.375   3.724
17004TIP3    H172427   3.524   0.326   3.801
17004TIP3    H272428   3.398   0.368   3.728
17005TIP3   OH272429   3.454   0.557   4.256
17005TIP3    H172430   3.483   0.466   4.262
17005TIP3    H272431   3.523   0.600   4.204
17006TIP3   OH272432   3.485   0.587   4.815
17006TIP3    H172433   3.579   0.600   4.800
17006TIP3    H272434   3.473   0.606   4.908
17007TIP3   OH272435   3.507   0.670   5.082
17007TIP3    H172436   3.428   0.696   5.129
17007TIP3    H272437   3.555   0.751   5.068
17008TIP3   OH272438   1.918   0.500   5.411
17008TIP3    H172439   2.001   0.497   5.458
17008TIP3    H272440   1.872   0.421   5.439
17009TIP3   OH272441   3.735   0.107   5.593
17009TIP3    H172442   3.758   0.025   5.637
17009TIP3    H272443   3.780   0.175   5.643
17010TIP3   OH272444   3.519   0.282   4.273
17010TIP3    H172445   3.535   0.246   4.360
17010TIP3    H272446   3.448   0.228   4.238
17011TIP3   OH272447   2.041   0.379   4.744
17011TIP3    H172448   2.081   0.292   4.746
17011TIP3    H272449   2.113   0.439   4.766
17012TIP3   OH272450   1.863   0.651   4.807
17012TIP3    H172451   1.942   0.662   4.754
17012TIP3    H272452   1.872   0.717   4.877
17013TIP3   OH272453   3.691   0.320   5.390
17013TIP3    H172454   3.599   0.332   5.369
17013TIP3    H272455   3.693   0.245   5.450
17014TIP3   OH272456   3.665   0.249   3.914
17014TIP3    H172457   3.730   0.203   3.861
17014TIP3    H272458   3.715   0.318   3.958
17015TIP3   OH272459   1.907   0.261   4.220
17015TIP3    H172460   1.814   0.268   4.240
17015TIP3    H272461   1.924   0.335   4.162
17016TIP3   OH272462   3.385   1.789   4.431
17016TIP3    H172463   3.465   1.787   4.378
17016TIP3    H272464   3.409   1.839   4.509
17017TIP3   OH272465   1.924   0.091   5.035
17017TIP3    H172466   1.858   0.084   5.104
17017TIP3    H272467   1.902   0.171   4.988
17018TIP3   OH272468   2.154   1.536   5.512
17018TIP3    H172469   2.071   1.497   5.483
17018TIP3    H272470   2.179   1.486   5.589
17019TIP3   OH272471   2.444   1.587   5.097
17019TIP3    H172472   2.418   1.678   5.078
17019TIP3    H272473   2.539   1.587   5.089
17020TIP3   OH272474   2.853   1.690   5.433
17020TIP3    H172475   2.868   1.660   5.523
17020TIP3    H272476   2.933   1.738   5.411
17021TIP3   OH272477   3.080   1.823   5.347
17021TIP3    H172478   3.142   1.754   5.371
17021TIP3    H272479   3.128   1.905   5.365
17022TIP3   OH272480   3.579   0.074   5.175
17022TIP3    H172481   3.528   0.142   5.131
17022TIP3    H272482   3.539  -0.008   5.148
17023TIP3   OH272483   2.143   1.883   5.125
17023TIP3    H172484   2.063   1.920   5.085
17023TIP3    H272485   2.148   1.925   5.211
17024TIP3   OH272486   2.406   1.857   5.046
17024TIP3    H172487   2.314   1.868   5.070
17024TIP3    H272488   2.414   1.904   4.963
17025TIP3   OH272489   2.861   1.836   4.950
17025TIP3    H172490   2.807   1.879   4.883
17025TIP3    H272491   2.874   1.903   5.017
17026TIP3   OH272492   3.093   1.699   5.004
17026TIP3    H172493   3.013   1.750   4.993
17026TIP3    H272494   3.162   1.765   5.016
17027TIP3   OH272495   3.325   1.851   5.028
17027TIP3    H172496   3.354   1.941   5.018
17027TIP3    H272497   3.372   1.803   4.961
17028TIP3   OH272498   2.120   1.740   4.793
17028TIP3    H172499   2.108   1.695   4.876
17028TIP3    H272500   2.200   1.701   4.756
17029TIP3   OH272501   2.336   1.610   4.684
17029TIP3    H172502   2.320   1.519   4.709
17029TIP3    H272503   2.420   1.632   4.723
17030TIP3   OH272504   2.593   1.644   4.794
17030TIP3    H172505   2.604   1.553   4.765
17030TIP3    H272506   2.624   1.645   4.884
17031TIP3   OH272507   2.852   0.224   4.614
17031TIP3    H172508   2.790   0.169   4.662
17031TIP3    H272509   2.938   0.199   4.648
17032TIP3   OH272510   3.389   0.050   4.659
17032TIP3    H172511   3.464   0.080   4.608
17032TIP3    H272512   3.369   0.122   4.719
17033TIP3   OH272513   3.596   0.145   4.507
17033TIP3    H172514   3.666   0.079   4.505
17033TIP3    H272515   3.642   0.228   4.524
17034TIP3   OH272516   2.179   0.055   4.454
17034TIP3    H172517   2.127  -0.001   4.396
17034TIP3    H272518   2.241  -0.005   4.494
17035TIP3   OH272519   2.070   0.094   4.075
17035TIP3    H172520   2.113   0.153   4.013
17035TIP3    H272521   2.015   0.151   4.128
17036TIP3   OH272522   2.645   0.050   4.419
17036TIP3    H172523   2.724   0.098   4.396
17036TIP3    H272524   2.639   0.058   4.515
17037TIP3   OH272525   3.106   0.134   4.657
17037TIP3    H172526   3.159   0.139   4.577
17037TIP3    H272527   3.114   0.043   4.685
17038TIP3   OH272528   3.316   0.107   4.196
17038TIP3    H172529   3.238   0.162   4.191
17038TIP3    H272530   3.299   0.048   4.269
17039TIP3   OH272531   2.033   1.706   4.125
17039TIP3    H172532   1.956   1.691   4.069
17039TIP3    H272533   2.054   1.799   4.112
17040TIP3   OH272534   2.218   0.273   3.906
17040TIP3    H172535   2.252   0.217   3.836
17040TIP3    H272536   2.296   0.297   3.957
17041TIP3   OH272537   2.715   0.297   4.148
17041TIP3    H172538   2.765   0.239   4.205
17041TIP3    H272539   2.727   0.384   4.187
17042TIP3   OH272540   2.923   1.785   3.951
17042TIP3    H172541   3.018   1.799   3.945
17042TIP3    H272542   2.903   1.729   3.876
17043TIP3   OH272543   3.597   1.764   4.246
17043TIP3    H172544   3.575   1.675   4.219
17043TIP3    H272545   3.575   1.818   4.170
17044TIP3   OH272546   2.131   0.193   5.362
17044TIP3    H172547   2.052   0.139   5.370
17044TIP3    H272548   2.191   0.156   5.428
17045TIP3   OH272549   2.275   0.117   5.587
17045TIP3    H172550   2.349   0.058   5.599
17045TIP3    H272551   2.211   0.087   5.652
17046TIP3   OH272552   2.234   1.761   3.818
17046TIP3    H172553   2.207   1.741   3.907
17046TIP3    H272554   2.309   1.703   3.801
17047TIP3   OH272555   3.134   0.078   5.575
17047TIP3    H172556   3.182   0.038   5.648
17047TIP3    H272557   3.178   0.045   5.496
17048TIP3   OH272558   3.530   1.647   5.403
17048TIP3    H172559   3.446   1.635   5.359
17048TIP3    H272560   3.517   1.724   5.459
17049TIP3   OH272561   4.968   1.033   4.416
17049TIP3    H172562   4.958   1.127   4.407
17049TIP3    H272563   4.893   0.995   4.372
17050TIP3   OH272564   4.845   0.941   4.815
17050TIP3    H172565   4.872   0.903   4.898
17050TIP3    H272566   4.798   0.870   4.771
17051TIP3   OH272567   4.063   0.894   4.962
17051TIP3    H172568   4.064   0.806   5.000
17051TIP3    H272569   4.106   0.949   5.028
17052TIP3   OH272570   5.225   1.254   4.641
17052TIP3    H172571   5.192   1.177   4.687
17052TIP3    H272572   5.248   1.315   4.711
17053TIP3   OH272573   4.211   1.340   4.736
17053TIP3    H172574   4.170   1.254   4.728
17053TIP3    H272575   4.299   1.322   4.769
17054TIP3   OH272576   3.851   0.687   4.287
17054TIP3    H172577   3.822   0.770   4.327
17054TIP3    H272578   3.782   0.665   4.225
17055TIP3   OH272579   3.920   0.939   4.573
17055TIP3    H172580   3.945   0.851   4.599
17055TIP3    H272581   3.997   0.993   4.594
17056TIP3   OH272582   4.971   1.746   4.706
17056TIP3    H172583   5.002   1.689   4.636
17056TIP3    H272584   4.942   1.687   4.775
17057TIP3   OH272585   4.700   1.189   4.833
17057TIP3    H172586   4.736   1.107   4.801
17057TIP3    H272587   4.768   1.226   4.889
17058TIP3   OH272588   5.583   0.338   4.915
17058TIP3    H172589   5.597   0.403   4.984
17058TIP3    H272590   5.647   0.361   4.847
17059TIP3   OH272591   5.007   0.613   4.842
17059TIP3    H172592   5.030   0.522   4.858
17059TIP3    H272593   4.986   0.617   4.748
17060TIP3   OH272594   4.328   0.435   4.581
17060TIP3    H172595   4.334   0.519   4.535
17060TIP3    H272596   4.270   0.382   4.526
17061TIP3   OH272597   5.133   0.450   4.415
17061TIP3    H172598   5.176   0.422   4.496
17061TIP3    H272599   5.201   0.493   4.364
17062TIP3   OH272600   3.990   0.687   4.656
17062TIP3    H172601   4.051   0.646   4.718
17062TIP3    H272602   4.010   0.645   4.572
17063TIP3   OH272603   4.489   0.824   4.600
17063TIP3    H172604   4.569   0.782   4.634
17063TIP3    H272605   4.447   0.755   4.548
17064TIP3   OH272606   5.600   0.495   5.137
17064TIP3    H172607   5.526   0.556   5.130
17064TIP3    H272608   5.628   0.503   5.228
17065TIP3   OH272609   4.206   0.334   4.999
17065TIP3    H172610   4.180   0.394   4.929
17065TIP3    H272611   4.136   0.340   5.064
17066TIP3   OH272612   4.937   1.288   4.311
17066TIP3    H172613   4.915   1.285   4.218
17066TIP3    H272614   4.891   1.365   4.344
17067TIP3   OH272615   4.477   1.107   4.980
17067TIP3    H172616   4.422   1.178   5.015
17067TIP3    H272617   4.547   1.152   4.933
17068TIP3   OH272618   5.244   0.399   4.659
17068TIP3    H172619   5.181   0.380   4.728
17068TIP3    H272620   5.306   0.459   4.699
17069TIP3   OH272621   4.172   0.517   4.791
17069TIP3    H172622   4.226   0.573   4.847
17069TIP3    H272623   4.232   0.484   4.725
17070TIP3   OH272624   4.321   1.306   5.097
17070TIP3    H172625   4.323   1.401   5.083
17070TIP3    H272626   4.234   1.289   5.133
17071TIP3   OH272627   3.891   1.296   4.170
17071TIP3    H172628   3.872   1.348   4.092
17071TIP3    H272629   3.914   1.360   4.237
17072TIP3   OH272630   5.260   1.450   4.841
17072TIP3    H172631   5.165   1.457   4.854
17072TIP3    H272632   5.288   1.540   4.822
17073TIP3   OH272633   5.339   0.276   5.030
17073TIP3    H172634   5.264   0.313   4.982
17073TIP3    H272635   5.415   0.300   4.977
17074TIP3   OH272636   4.539   0.059   4.707
17074TIP3    H172637   4.576   0.007   4.778
17074TIP3    H272638   4.457   0.094   4.743
17075TIP3   OH272639   5.079   1.618   4.478
17075TIP3    H172640   5.113   1.530   4.462
17075TIP3    H272641   5.156   1.675   4.469
17076TIP3   OH272642   5.187   1.378   4.398
17076TIP3    H172643   5.111   1.331   4.364
17076TIP3    H272644   5.212   1.329   4.477
17077TIP3   OH272645   5.380   1.242   5.206
17077TIP3    H172646   5.372   1.183   5.131
17077TIP3    H272647   5.388   1.329   5.167
17078TIP3   OH272648   4.815   0.936   4.200
17078TIP3    H172649   4.749   1.001   4.176
17078TIP3    H272650   4.885   0.949   4.136
17079TIP3   OH272651   4.849   0.816   3.856
17079TIP3    H172652   4.900   0.842   3.932
17079TIP3    H272653   4.902   0.749   3.813
17080TIP3   OH272654   5.540   0.893   5.031
17080TIP3    H172655   5.470   0.958   5.024
17080TIP3    H272656   5.604   0.920   4.965
17081TIP3   OH272657   5.186   0.962   4.268
17081TIP3    H172658   5.117   0.987   4.330
17081TIP3    H272659   5.251   0.917   4.322
17082TIP3   OH272660   5.146   0.766   5.217
17082TIP3    H172661   5.143   0.837   5.280
17082TIP3    H272662   5.080   0.789   5.151
17083TIP3   OH272663   4.340   1.017   4.471
17083TIP3    H172664   4.313   0.978   4.388
17083TIP3    H272665   4.397   0.952   4.512
17084TIP3   OH272666   4.501   1.370   4.738
17084TIP3    H172667   4.499   1.372   4.642
17084TIP3    H272668   4.573   1.311   4.759
17085TIP3   OH272669   4.355   0.910   4.829
17085TIP3    H172670   4.412   0.893   4.754
17085TIP3    H272671   4.400   0.979   4.878
17086TIP3   OH272672   4.995   1.473   4.900
17086TIP3    H172673   4.975   1.542   4.963
17086TIP3    H272674   4.961   1.393   4.940
17087TIP3   OH272675   4.478   1.331   5.327
17087TIP3    H172676   4.417   1.390   5.371
17087TIP3    H272677   4.434   1.307   5.245
17088TIP3   OH272678   5.047   0.902   4.038
17088TIP3    H172679   5.099   0.936   4.111
17088TIP3    H272680   5.100   0.921   3.960
17089TIP3   OH272681   4.125   0.950   5.254
17089TIP3    H172682   4.127   1.014   5.325
17089TIP3    H272683   4.031   0.935   5.239
17090TIP3   OH272684   4.834   1.534   4.379
17090TIP3    H172685   4.909   1.571   4.426
17090TIP3    H272686   4.787   1.611   4.346
17091TIP3   OH272687   4.276   1.512   5.375
17091TIP3    H172688   4.292   1.552   5.289
17091TIP3    H272689   4.187   1.476   5.369
17092TIP3   OH272690   5.424   0.014   4.044
17092TIP3    H172691   5.345   0.044   4.089
17092TIP3    H272692   5.466   0.095   4.014
17093TIP3   OH272693   4.246   0.931   4.209
17093TIP3    H172694   4.188   0.999   4.175
17093TIP3    H272695   4.188   0.857   4.227
17094TIP3   OH272696   5.555   1.483   3.892
17094TIP3    H172697   5.569   1.577   3.902
17094TIP3    H272698   5.643   1.446   3.887
17095TIP3   OH272699   3.848   1.179   5.135
17095TIP3    H172700   3.790   1.197   5.061
17095TIP3    H272701   3.846   1.084   5.145
17096TIP3   OH272702   3.798   1.484   4.815
17096TIP3    H172703   3.874   1.490   4.874
17096TIP3    H272704   3.745   1.561   4.836
17097TIP3   OH272705   5.620   1.514   5.418
17097TIP3    H172706   5.613   1.419   5.402
17097TIP3    H272707   5.566   1.529   5.495
17098TIP3   OH272708   4.711   1.471   5.264
17098TIP3    H172709   4.726   1.539   5.329
17098TIP3    H272710   4.627   1.432   5.288
17099TIP3   OH272711   4.805   1.826   4.252
17099TIP3    H172712   4.768   1.830   4.164
17099TIP3    H272713   4.764   1.898   4.299
17100TIP3   OH272714   4.142   1.702   4.438
17100TIP3    H172715   4.162   1.673   4.527
17100TIP3    H272716   4.084   1.634   4.404
17101TIP3   OH272717   5.088   1.775   3.926
17101TIP3    H172718   5.135   1.700   3.889
17101TIP3    H272719   5.094   1.763   4.020
17102TIP3   OH272720   5.065   1.754   4.201
17102TIP3    H172721   4.974   1.770   4.223
17102TIP3    H272722   5.096   1.694   4.270
17103TIP3   OH272723   5.306   0.651   5.427
17103TIP3    H172724   5.265   0.692   5.351
17103TIP3    H272725   5.326   0.562   5.398
17104TIP3   OH272726   4.078   1.300   5.230
17104TIP3    H172727   4.083   1.254   5.313
17104TIP3    H272728   3.996   1.269   5.191
17105TIP3   OH272729   4.298   0.125   4.829
17105TIP3    H172730   4.210   0.127   4.792
17105TIP3    H272731   4.295   0.190   4.899
17106TIP3   OH272732   4.792   0.127   5.184
17106TIP3    H172733   4.827   0.060   5.243
17106TIP3    H272734   4.698   0.125   5.197
17107TIP3   OH272735   5.084   0.491   5.238
17107TIP3    H172736   5.021   0.481   5.310
17107TIP3    H272737   5.096   0.586   5.230
17108TIP3   OH272738   5.189   0.922   3.802
17108TIP3    H172739   5.179   0.943   3.709
17108TIP3    H272740   5.276   0.954   3.824
17109TIP3   OH272741   4.733   0.391   3.896
17109TIP3    H172742   4.694   0.366   3.980
17109TIP3    H272743   4.711   0.319   3.837
17110TIP3   OH272744   4.331   0.668   4.957
17110TIP3    H172745   4.266   0.673   5.028
17110TIP3    H272746   4.331   0.756   4.919
17111TIP3   OH272747   4.330   0.665   4.432
17111TIP3    H172748   4.234   0.657   4.432
17111TIP3    H272749   4.357   0.641   4.344
17112TIP3   OH272750   4.878   0.693   4.311
17112TIP3    H172751   4.851   0.780   4.281
17112TIP3    H272752   4.953   0.670   4.256
17113TIP3   OH272753   4.773   0.704   5.445
17113TIP3    H172754   4.734   0.619   5.467
17113TIP3    H272755   4.865   0.695   5.472
17114TIP3   OH272756   4.973   0.626   4.569
17114TIP3    H172757   4.928   0.675   4.501
17114TIP3    H272758   5.020   0.557   4.522
17115TIP3   OH272759   4.098   0.659   5.112
17115TIP3    H172760   4.092   0.703   5.197
17115TIP3    H272761   4.059   0.572   5.127
17116TIP3   OH272762   4.376   0.384   3.752
17116TIP3    H172763   4.377   0.373   3.847
17116TIP3    H272764   4.338   0.471   3.739
17117TIP3   OH272765   3.763   0.356   4.511
17117TIP3    H172766   3.817   0.379   4.587
17117TIP3    H272767   3.824   0.357   4.437
17118TIP3   OH272768   3.825   0.451   4.027
17118TIP3    H172769   3.894   0.490   3.972
17118TIP3    H272770   3.771   0.525   4.054
17119TIP3   OH272771   4.927   0.786   5.036
17119TIP3    H172772   4.961   0.727   4.968
17119TIP3    H272773   4.861   0.734   5.082
17120TIP3   OH272774   4.601   0.442   4.522
17120TIP3    H172775   4.513   0.434   4.560
17120TIP3    H272776   4.652   0.374   4.564
17121TIP3   OH272777   4.071   0.578   4.412
17121TIP3    H172778   3.994   0.606   4.362
17121TIP3    H272779   4.081   0.486   4.391
17122TIP3   OH272780   4.398   0.575   4.181
17122TIP3    H172781   4.492   0.576   4.200
17122TIP3    H272782   4.391   0.618   4.096
17123TIP3   OH272783   5.061   0.334   4.852
17123TIP3    H172784   5.006   0.337   4.930
17123TIP3    H272785   5.023   0.266   4.797
17124TIP3   OH272786   4.371   0.657   3.922
17124TIP3    H172787   4.309   0.657   3.849
17124TIP3    H272788   4.442   0.714   3.892
17125TIP3   OH272789   4.102   1.149   5.472
17125TIP3    H172790   4.179   1.141   5.528
17125TIP3    H272791   4.029   1.164   5.533
17126TIP3   OH272792   4.708   0.703   4.727
17126TIP3    H172793   4.767   0.643   4.682
17126TIP3    H272794   4.671   0.652   4.799
17127TIP3   OH272795   4.166   0.306   4.392
17127TIP3    H172796   4.118   0.228   4.420
17127TIP3    H272797   4.222   0.275   4.321
17128TIP3   OH272798   4.590   0.574   4.948
17128TIP3    H172799   4.503   0.613   4.957
17128TIP3    H272800   4.637   0.600   5.027
17129TIP3   OH272801   4.628   1.130   4.128
17129TIP3    H172802   4.555   1.096   4.076
17129TIP3    H272803   4.588   1.160   4.209
17130TIP3   OH272804   5.350   1.089   4.975
17130TIP3    H172805   5.412   1.143   4.927
17130TIP3    H272806   5.278   1.074   4.913
17131TIP3   OH272807   4.998   0.424   3.989
17131TIP3    H172808   4.906   0.435   3.964
17131TIP3    H272809   5.021   0.505   4.033
17132TIP3   OH272810   4.773   1.196   5.242
17132TIP3    H172811   4.726   1.155   5.315
17132TIP3    H272812   4.754   1.289   5.251
17133TIP3   OH272813   5.089   0.639   4.134
17133TIP3    H172814   5.176   0.622   4.171
17133TIP3    H272815   5.094   0.729   4.102
17134TIP3   OH272816   4.155   1.057   4.679
17134TIP3    H172817   4.220   1.052   4.609
17134TIP3    H272818   4.190   1.002   4.749
17135TIP3   OH272819   4.836   1.288   4.047
17135TIP3    H172820   4.803   1.378   4.056
17135TIP3    H272821   4.762   1.233   4.073
17136TIP3   OH272822   3.853   0.903   5.208
17136TIP3    H172823   3.814   0.861   5.285
17136TIP3    H272824   3.791   0.886   5.137
17137TIP3   OH272825   5.001   1.459   5.252
17137TIP3    H172826   4.906   1.466   5.247
17137TIP3    H272827   5.021   1.471   5.345
17138TIP3   OH272828   5.535   0.669   4.078
17138TIP3    H172829   5.496   0.647   3.994
17138TIP3    H272830   5.562   0.761   4.069
17139TIP3   OH272831   5.594   1.227   5.378
17139TIP3    H172832   5.508   1.241   5.339
17139TIP3    H272833   5.652   1.215   5.303
17140TIP3   OH272834   5.407   1.518   4.145
17140TIP3    H172835   5.356   1.453   4.192
17140TIP3    H272836   5.438   1.473   4.067
17141TIP3   OH272837   5.138   1.024   4.788
17141TIP3    H172838   5.043   1.015   4.787
17141TIP3    H272839   5.170   0.945   4.744
17142TIP3   OH272840   4.410   1.447   4.469
17142TIP3    H172841   4.423   1.533   4.428
17142TIP3    H272842   4.324   1.453   4.511
17143TIP3   OH272843   3.973   0.899   3.927
17143TIP3    H172844   4.020   0.966   3.975
17143TIP3    H272845   3.883   0.906   3.958
17144TIP3   OH272846   4.486   1.216   4.341
17144TIP3    H172847   4.469   1.300   4.384
17144TIP3    H272848   4.438   1.152   4.393
17145TIP3   OH272849   4.598   1.651   5.059
17145TIP3    H172850   4.604   1.737   5.100
17145TIP3    H272851   4.655   1.595   5.111
17146TIP3   OH272852   4.401   1.706   4.350
17146TIP3    H172853   4.309   1.715   4.372
17146TIP3    H272854   4.442   1.785   4.384
17147TIP3   OH272855   4.914   1.227   5.009
17147TIP3    H172856   4.869   1.212   5.093
17147TIP3    H272857   4.991   1.170   5.013
17148TIP3   OH272858   5.181   1.328   3.923
17148TIP3    H172859   5.212   1.276   3.998
17148TIP3    H272860   5.088   1.305   3.916
17149TIP3   OH272861   5.191   1.672   5.221
17149TIP3    H172862   5.111   1.621   5.210
17149TIP3    H272863   5.184   1.741   5.155
17150TIP3   OH272864   5.599   1.762   3.922
17150TIP3    H172865   5.610   1.815   3.843
17150TIP3    H272866   5.523   1.800   3.966
17151TIP3   OH272867   3.994   0.405   5.168
17151TIP3    H172868   3.901   0.430   5.167
17151TIP3    H272869   3.999   0.340   5.238
17152TIP3   OH272870   5.293   1.172   4.118
17152TIP3    H172871   5.249   1.111   4.177
17152TIP3    H272872   5.386   1.163   4.140
17153TIP3   OH272873   3.975   1.572   5.016
17153TIP3    H172874   4.015   1.507   5.074
17153TIP3    H272875   3.917   1.622   5.073
17154TIP3   OH272876   4.561   1.423   3.774
17154TIP3    H172877   4.566   1.338   3.732
17154TIP3    H272878   4.520   1.405   3.859
17155TIP3   OH272879   4.433   1.394   4.020
17155TIP3    H172880   4.460   1.344   4.097
17155TIP3    H272881   4.443   1.486   4.047
17156TIP3   OH272882   4.077   1.110   4.079
17156TIP3    H172883   4.009   1.156   4.126
17156TIP3    H272884   4.122   1.178   4.028
17157TIP3   OH272885   4.909   0.351   5.075
17157TIP3    H172886   4.972   0.384   5.139
17157TIP3    H272887   4.869   0.275   5.116
17158TIP3   OH272888   4.995   0.288   4.235
17158TIP3    H172889   4.999   0.334   4.151
17158TIP3    H272890   5.036   0.348   4.297
17159TIP3   OH272891   4.735   1.539   4.066
17159TIP3    H172892   4.645   1.567   4.086
17159TIP3    H272893   4.780   1.619   4.040
17160TIP3   OH272894   4.656   0.534   4.273
17160TIP3    H172895   4.732   0.591   4.283
17160TIP3    H272896   4.635   0.507   4.362
17161TIP3   OH272897   4.751   0.624   5.174
17161TIP3    H172898   4.748   0.655   5.264
17161TIP3    H272899   4.784   0.534   5.180
17162TIP3   OH272900   4.767   0.175   4.341
17162TIP3    H172901   4.766   0.209   4.431
17162TIP3    H272902   4.848   0.211   4.304
17163TIP3   OH272903   4.485   1.652   4.096
17163TIP3    H172904   4.490   1.737   4.053
17163TIP3    H272905   4.453   1.671   4.184
17164TIP3   OH272906   4.361   0.340   4.029
17164TIP3    H172907   4.337   0.420   4.074
17164TIP3    H272908   4.448   0.319   4.061
17165TIP3   OH272909   5.338   0.404   5.292
17165TIP3    H172910   5.244   0.418   5.279
17165TIP3    H272911   5.370   0.373   5.208
17166TIP3   OH272912   5.214   0.774   4.668
17166TIP3    H172913   5.129   0.732   4.657
17166TIP3    H272914   5.263   0.716   4.726
17167TIP3   OH272915   4.182   1.318   3.923
17167TIP3    H172916   4.254   1.364   3.965
17167TIP3    H272917   4.224   1.263   3.856
17168TIP3   OH272918   3.948   0.630   3.852
17168TIP3    H172919   3.977   0.714   3.889
17168TIP3    H272920   3.862   0.650   3.813
17169TIP3   OH272921   5.355   1.712   4.831
17169TIP3    H172922   5.350   1.782   4.766
17169TIP3    H272923   5.447   1.710   4.858
17170TIP3   OH272924   4.039   0.123   4.737
17170TIP3    H172925   4.029   0.092   4.647
17170TIP3    H272926   3.992   0.060   4.790
17171TIP3   OH272927   3.948   1.523   4.328
17171TIP3    H172928   3.896   1.554   4.402
17171TIP3    H272929   3.934   1.588   4.260
17172TIP3   OH272930   4.395   1.727   5.609
17172TIP3    H172931   4.426   1.715   5.699
17172TIP3    H272932   4.388   1.638   5.574
17173TIP3   OH272933   4.768   1.604   3.749
17173TIP3    H172934   4.700   1.539   3.768
17173TIP3    H272935   4.844   1.551   3.722
17174TIP3   OH272936   5.096   1.486   5.511
17174TIP3    H172937   5.098   1.426   5.585
17174TIP3    H272938   5.185   1.521   5.505
17175TIP3   OH272939   5.216   1.569   3.797
17175TIP3    H172940   5.217   1.489   3.849
17175TIP3    H272941   5.292   1.562   3.739
17176TIP3   OH272942   4.321   1.138   3.769
17176TIP3    H172943   4.344   1.093   3.850
17176TIP3    H272944   4.405   1.155   3.727
17177TIP3   OH272945   4.574   1.087   5.428
17177TIP3    H172946   4.531   1.173   5.417
17177TIP3    H272947   4.553   1.040   5.347
17178TIP3   OH272948   4.916   1.283   3.785
17178TIP3    H172949   4.877   1.282   3.873
17178TIP3    H272950   4.894   1.198   3.748
17179TIP3   OH272951   5.116   1.196   5.275
17179TIP3    H172952   5.208   1.217   5.261
17179TIP3    H272953   5.070   1.279   5.261
17180TIP3   OH272954   3.934   0.828   5.583
17180TIP3    H172955   3.861   0.813   5.524
17180TIP3    H272956   3.933   0.922   5.600
17181TIP3   OH272957   4.417   1.006   3.996
17181TIP3    H172958   4.366   0.970   4.069
17181TIP3    H272959   4.462   0.930   3.958
17182TIP3   OH272960   4.352   0.781   5.250
17182TIP3    H172961   4.277   0.839   5.255
17182TIP3    H272962   4.425   0.838   5.227
17183TIP3   OH272963   4.569   0.827   3.839
17183TIP3    H172964   4.567   0.862   3.751
17183TIP3    H272965   4.662   0.818   3.860
17184TIP3   OH272966   4.930   0.942   5.610
17184TIP3    H172967   4.989   0.991   5.553
17184TIP3    H272968   4.967   0.853   5.613
17185TIP3   OH272969   5.447   1.024   3.790
17185TIP3    H172970   5.456   1.002   3.697
17185TIP3    H272971   5.439   1.120   3.791
17186TIP3   OH272972   4.425   0.529   5.331
17186TIP3    H172973   4.430   0.470   5.256
17186TIP3    H272974   4.401   0.614   5.293
17187TIP3   OH272975   4.457   0.364   5.105
17187TIP3    H172976   4.507   0.413   5.040
17187TIP3    H272977   4.369   0.358   5.069
17188TIP3   OH272978   4.565   0.946   5.185
17188TIP3    H172979   4.653   0.920   5.159
17188TIP3    H272980   4.533   1.000   5.112
17189TIP3   OH272981   5.034   0.682   5.573
17189TIP3    H172982   5.035   0.593   5.607
17189TIP3    H272983   5.122   0.696   5.537
17190TIP3   OH272984   5.157   0.963   5.412
17190TIP3    H172985   5.135   1.044   5.367
17190TIP3    H272986   5.251   0.969   5.429
17191TIP3   OH272987   4.263   0.586   5.553
17191TIP3    H172988   4.184   0.532   5.549
17191TIP3    H272989   4.301   0.580   5.466
17192TIP3   OH272990   4.517   0.103   5.192
17192TIP3    H172991   4.492   0.193   5.172
17192TIP3    H272992   4.445   0.049   5.159
17193TIP3   OH272993   4.634   0.476   5.503
17193TIP3    H172994   4.595   0.447   5.586
17193TIP3    H272995   4.560   0.486   5.444
17194TIP3   OH272996   4.894   0.435   5.424
17194TIP3    H172997   4.803   0.427   5.450
17194TIP3    H272998   4.944   0.401   5.498
17195TIP3   OH272999   5.041   0.357   5.642
17195TIP3    H173000   5.063   0.266   5.620
17195TIP3    H273001   5.063   0.365   5.735
17196TIP3   OH273002   4.062   0.403   5.562
17196TIP3    H173003   4.069   0.338   5.492
17196TIP3    H273004   4.007   0.361   5.628
17197TIP3   OH273005   4.533   0.027   5.462
17197TIP3    H173006   4.625   0.003   5.476
17197TIP3    H273007   4.528   0.050   5.369
17198TIP3   OH273008   4.548   0.175   5.697
17198TIP3    H173009   4.526   0.132   5.614
17198TIP3    H273010   4.513   0.263   5.688
17199TIP3   OH273011   4.562   1.892   3.976
17199TIP3    H173012   4.651   1.859   3.964
17199TIP3    H273013   4.551   1.958   3.907
17200TIP3   OH273014   3.920   1.372   3.858
17200TIP3    H173015   4.009   1.360   3.892
17200TIP3    H273016   3.904   1.293   3.806
17201TIP3   OH273017   3.784   1.854   4.424
17201TIP3    H173018   3.724   1.823   4.356
17201TIP3    H273019   3.799   1.777   4.480
17202TIP3   OH273020   3.855   1.634   4.577
17202TIP3    H173021   3.816   1.562   4.627
17202TIP3    H273022   3.904   1.684   4.642
17203TIP3   OH273023   5.613   1.736   4.926
17203TIP3    H173024   5.600   1.719   5.019
17203TIP3    H273025   5.657   1.821   4.923
17204TIP3   OH273026   5.539   1.690   5.193
17204TIP3    H173027   5.485   1.619   5.159
17204TIP3    H273028   5.591   1.649   5.263
17205TIP3   OH273029   5.386   1.303   5.678
17205TIP3    H173030   5.331   1.302   5.756
17205TIP3    H273031   5.454   1.368   5.697
17206TIP3   OH273032   5.558   1.121   4.192
17206TIP3    H173033   5.631   1.183   4.195
17206TIP3    H273034   5.573   1.062   4.265
17207TIP3   OH273035   5.605   0.923   4.381
17207TIP3    H173036   5.522   0.892   4.415
17207TIP3    H273037   5.659   0.937   4.459
17208TIP3   OH273038   5.579   1.219   4.890
17208TIP3    H173039   5.635   1.150   4.854
17208TIP3    H273040   5.612   1.300   4.850
17209TIP3   OH273041   5.371   1.493   5.095
17209TIP3    H173042   5.298   1.542   5.133
17209TIP3    H273043   5.342   1.472   5.006
17210TIP3   OH273044   5.595   0.927   4.001
17210TIP3    H173045   5.542   0.956   3.927
17210TIP3    H273046   5.580   0.994   4.068
17211TIP3   OH273047   5.436   0.628   3.825
17211TIP3    H173048   5.409   0.684   3.753
17211TIP3    H273049   5.427   0.539   3.792
17212TIP3   OH273050   5.352   0.806   4.429
17212TIP3    H173051   5.352   0.714   4.402
17212TIP3    H273052   5.310   0.804   4.515
17213TIP3   OH273053   3.843   0.996   4.832
17213TIP3    H173054   3.857   0.983   4.738
17213TIP3    H273055   3.925   0.969   4.872
17214TIP3   OH273056   5.437   0.984   5.429
17214TIP3    H173057   5.497   0.910   5.420
17214TIP3    H273058   5.489   1.061   5.404
17215TIP3   OH273059   5.577   0.736   5.429
17215TIP3    H173060   5.485   0.716   5.446
17215TIP3    H273061   5.619   0.651   5.418
17216TIP3   OH273062   5.381   0.374   3.729
17216TIP3    H173063   5.422   0.324   3.799
17216TIP3    H273064   5.287   0.362   3.742
17217TIP3   OH273065   5.340   0.557   4.253
17217TIP3    H173066   5.369   0.466   4.260
17217TIP3    H273067   5.408   0.600   4.202
17218TIP3   OH273068   5.371   0.592   4.814
17218TIP3    H173069   5.464   0.606   4.796
17218TIP3    H273070   5.362   0.607   4.908
17219TIP3   OH273071   5.386   0.672   5.084
17219TIP3    H173072   5.306   0.707   5.123
17219TIP3    H273073   5.441   0.749   5.069
17220TIP3   OH273074   3.850   0.536   5.447
17220TIP3    H173075   3.927   0.499   5.492
17220TIP3    H273076   3.791   0.461   5.436
17221TIP3   OH273077   5.628   0.050   5.586
17221TIP3    H173078   5.631  -0.017   5.518
17221TIP3    H273079   5.624   0.133   5.539
17222TIP3   OH273080   5.400   0.284   4.278
17222TIP3    H173081   5.420   0.245   4.363
17222TIP3    H273082   5.335   0.226   4.240
17223TIP3   OH273083   3.937   0.379   4.722
17223TIP3    H173084   3.970   0.290   4.738
17223TIP3    H273085   4.006   0.436   4.755
17224TIP3   OH273086   3.754   0.640   4.809
17224TIP3    H173087   3.829   0.655   4.751
17224TIP3    H273088   3.764   0.705   4.879
17225TIP3   OH273089   5.545   0.250   5.404
17225TIP3    H173090   5.466   0.304   5.399
17225TIP3    H273091   5.536   0.188   5.332
17226TIP3   OH273092   5.543   0.246   3.920
17226TIP3    H173093   5.602   0.195   3.865
17226TIP3    H273094   5.600   0.311   3.962
17227TIP3   OH273095   3.798   0.262   4.221
17227TIP3    H173096   3.705   0.266   4.241
17227TIP3    H273097   3.813   0.335   4.161
17228TIP3   OH273098   5.285   1.783   4.428
17228TIP3    H173099   5.362   1.774   4.372
17228TIP3    H273100   5.317   1.825   4.508
17229TIP3   OH273101   3.814   0.086   5.023
17229TIP3    H173102   3.748   0.075   5.092
17229TIP3    H273103   3.792   0.170   4.981
17230TIP3   OH273104   4.335   1.582   5.109
17230TIP3    H173105   4.289   1.661   5.078
17230TIP3    H273106   4.427   1.599   5.091
17231TIP3   OH273107   4.760   1.666   5.444
17231TIP3    H173108   4.727   1.687   5.532
17231TIP3    H273109   4.815   1.741   5.421
17232TIP3   OH273110   4.967   1.858   5.385
17232TIP3    H173111   5.046   1.807   5.367
17232TIP3    H273112   4.997   1.932   5.438
17233TIP3   OH273113   5.453   0.084   5.196
17233TIP3    H173114   5.402   0.145   5.142
17233TIP3    H273115   5.431  -0.002   5.162
17234TIP3   OH273116   4.021   1.898   5.118
17234TIP3    H173117   3.940   1.932   5.081
17234TIP3    H273118   4.022   1.930   5.208
17235TIP3   OH273119   4.266   1.835   5.023
17235TIP3    H173120   4.179   1.853   5.059
17235TIP3    H273121   4.274   1.893   4.947
17236TIP3   OH273122   4.791   1.917   4.937
17236TIP3    H173123   4.700   1.913   4.908
17236TIP3    H273124   4.786   1.952   5.026
17237TIP3   OH273125   4.965   1.716   5.024
17237TIP3    H173126   4.891   1.776   5.012
17237TIP3    H273127   5.042   1.773   5.019
17238TIP3   OH273128   5.199   1.860   5.006
17238TIP3    H173129   5.232   1.949   4.995
17238TIP3    H273130   5.255   1.806   4.950
17239TIP3   OH273131   4.014   1.743   4.782
17239TIP3    H173132   3.989   1.708   4.867
17239TIP3    H273133   4.093   1.695   4.758
17240TIP3   OH273134   4.231   1.606   4.682
17240TIP3    H173135   4.214   1.516   4.708
17240TIP3    H273136   4.314   1.628   4.725
17241TIP3   OH273137   4.488   1.642   4.800
17241TIP3    H173138   4.499   1.550   4.776
17241TIP3    H273139   4.523   1.649   4.889
17242TIP3   OH273140   4.739   0.223   4.610
17242TIP3    H173141   4.676   0.168   4.658
17242TIP3    H273142   4.824   0.198   4.646
17243TIP3   OH273143   5.275   0.054   4.656
17243TIP3    H173144   5.351   0.078   4.602
17243TIP3    H273145   5.270   0.122   4.723
17244TIP3   OH273146   5.485   0.142   4.505
17244TIP3    H173147   5.555   0.076   4.497
17244TIP3    H273148   5.532   0.223   4.525
17245TIP3   OH273149   4.063   0.054   4.457
17245TIP3    H173150   4.012  -0.002   4.399
17245TIP3    H273151   4.126  -0.005   4.499
17246TIP3   OH273152   3.957   0.092   4.072
17246TIP3    H173153   3.994   0.149   4.005
17246TIP3    H273154   3.903   0.150   4.125
17247TIP3   OH273155   4.529   0.052   4.417
17247TIP3    H173156   4.610   0.098   4.396
17247TIP3    H273157   4.522   0.059   4.513
17248TIP3   OH273158   4.992   0.136   4.667
17248TIP3    H173159   5.058   0.144   4.598
17248TIP3    H273160   5.002   0.046   4.699
17249TIP3   OH273161   5.203   0.102   4.201
17249TIP3    H173162   5.126   0.158   4.194
17249TIP3    H273163   5.184   0.044   4.274
17250TIP3   OH273164   3.922   1.701   4.120
17250TIP3    H173165   3.841   1.690   4.070
17250TIP3    H273166   3.942   1.794   4.112
17251TIP3   OH273167   4.114   0.266   3.894
17251TIP3    H173168   4.159   0.216   3.825
17251TIP3    H273169   4.183   0.293   3.954
17252TIP3   OH273170   4.615   0.301   4.137
17252TIP3    H173171   4.661   0.239   4.194
17252TIP3    H273172   4.624   0.386   4.180
17253TIP3   OH273173   4.812   1.784   3.951
17253TIP3    H173174   4.907   1.800   3.944
17253TIP3    H273175   4.792   1.730   3.875
17254TIP3   OH273176   5.490   1.759   4.241
17254TIP3    H173177   5.465   1.671   4.213
17254TIP3    H273178   5.459   1.817   4.171
17255TIP3   OH273179   4.028   0.206   5.369
17255TIP3    H173180   3.946   0.158   5.382
17255TIP3    H273181   4.092   0.159   5.422
17256TIP3   OH273182   4.189   0.078   5.553
17256TIP3    H173183   4.272   0.047   5.589
17256TIP3    H273184   4.127   0.007   5.572
17257TIP3   OH273185   4.104   1.752   3.808
17257TIP3    H173186   4.075   1.742   3.898
17257TIP3    H273187   4.182   1.696   3.801
17258TIP3   OH273188   5.092   0.084   5.592
17258TIP3    H173189   5.116   0.012   5.651
17258TIP3    H273190   5.161   0.085   5.526
17259TIP3   OH273191   5.329   1.647   5.458
17259TIP3    H173192   5.289   1.652   5.372
17259TIP3    H273193   5.406   1.703   5.452
17260TIP3   OH273194   6.848   1.044   4.415
17260TIP3    H173195   6.835   1.139   4.404
17260TIP3    H273196   6.775   1.004   4.368
17261TIP3   OH273197   6.704   0.951   4.802
17261TIP3    H173198   6.728   0.913   4.886
17261TIP3    H273199   6.663   0.880   4.753
17262TIP3   OH273200   5.937   0.871   4.970
17262TIP3    H173201   5.939   0.790   5.021
17262TIP3    H273202   6.005   0.926   5.010
17263TIP3   OH273203   7.103   1.254   4.656
17263TIP3    H173204   7.059   1.178   4.694
17263TIP3    H273205   7.114   1.315   4.729
17264TIP3   OH273206   6.078   1.341   4.749
17264TIP3    H173207   6.047   1.253   4.727
17264TIP3    H273208   6.160   1.325   4.797
17265TIP3   OH273209   5.728   0.683   4.289
17265TIP3    H173210   5.702   0.767   4.327
17265TIP3    H273211   5.662   0.666   4.221
17266TIP3   OH273212   5.799   0.938   4.584
17266TIP3    H173213   5.826   0.848   4.603
17266TIP3    H273214   5.877   0.990   4.600
17267TIP3   OH273215   6.818   1.736   4.697
17267TIP3    H173216   6.839   1.661   4.642
17267TIP3    H273217   6.804   1.699   4.784
17268TIP3   OH273218   6.576   1.199   4.842
17268TIP3    H173219   6.612   1.118   4.805
17268TIP3    H273220   6.643   1.228   4.904
17269TIP3   OH273221   6.895   0.629   4.825
17269TIP3    H173222   6.895   0.537   4.852
17269TIP3    H273223   6.859   0.628   4.737
17270TIP3   OH273224   6.204   0.437   4.582
17270TIP3    H173225   6.219   0.521   4.539
17270TIP3    H273226   6.159   0.384   4.516
17271TIP3   OH273227   6.978   0.449   4.403
17271TIP3    H173228   7.013   0.410   4.483
17271TIP3    H273229   7.056   0.472   4.352
17272TIP3   OH273230   5.870   0.679   4.648
17272TIP3    H173231   5.929   0.639   4.711
17272TIP3    H273232   5.896   0.642   4.564
17273TIP3   OH273233   6.362   0.826   4.609
17273TIP3    H173234   6.443   0.787   4.641
17273TIP3    H273235   6.322   0.758   4.555
17274TIP3   OH273236   6.098   0.334   4.996
17274TIP3    H173237   6.069   0.398   4.931
17274TIP3    H273238   6.032   0.337   5.065
17275TIP3   OH273239   6.815   1.299   4.310
17275TIP3    H173240   6.803   1.294   4.215
17275TIP3    H273241   6.759   1.372   4.337
17276TIP3   OH273242   6.359   1.105   4.986
17276TIP3    H173243   6.305   1.175   5.022
17276TIP3    H273244   6.431   1.151   4.942
17277TIP3   OH273245   7.057   0.357   4.646
17277TIP3    H173246   6.992   0.364   4.716
17277TIP3    H273247   7.136   0.398   4.682
17278TIP3   OH273248   6.046   0.516   4.792
17278TIP3    H173249   6.099   0.574   4.847
17278TIP3    H273250   6.107   0.483   4.726
17279TIP3   OH273251   6.196   1.314   5.077
17279TIP3    H173252   6.207   1.409   5.072
17279TIP3    H273253   6.108   1.301   5.110
17280TIP3   OH273254   5.779   1.292   4.166
17280TIP3    H173255   5.774   1.340   4.083
17280TIP3    H273256   5.805   1.358   4.230
17281TIP3   OH273257   7.143   1.473   4.842
17281TIP3    H173258   7.051   1.459   4.865
17281TIP3    H273259   7.152   1.568   4.836
17282TIP3   OH273260   7.178   0.224   4.899
17282TIP3    H173261   7.120   0.235   4.975
17282TIP3    H273262   7.203   0.313   4.875
17283TIP3   OH273263   6.427   0.041   4.722
17283TIP3    H173264   6.458  -0.018   4.791
17283TIP3    H273265   6.349   0.082   4.760
17284TIP3   OH273266   6.918   1.571   4.498
17284TIP3    H173267   6.962   1.488   4.479
17284TIP3    H273268   6.988   1.636   4.499
17285TIP3   OH273269   7.089   1.374   4.411
17285TIP3    H173270   7.030   1.318   4.360
17285TIP3    H273271   7.106   1.324   4.491
17286TIP3   OH273272   7.220   1.284   5.260
17286TIP3    H173273   7.285   1.218   5.234
17286TIP3    H273274   7.245   1.363   5.211
17287TIP3   OH273275   6.702   0.946   4.193
17287TIP3    H173276   6.638   1.010   4.165
17287TIP3    H273277   6.773   0.953   4.129
17288TIP3   OH273278   6.749   0.813   3.853
17288TIP3    H173279   6.802   0.837   3.929
17288TIP3    H273280   6.802   0.749   3.806
17289TIP3   OH273281   7.068   0.959   4.281
17289TIP3    H173282   6.998   0.992   4.338
17289TIP3    H273283   7.114   0.895   4.335
17290TIP3   OH273284   6.990   0.760   5.194
17290TIP3    H173285   6.983   0.810   5.275
17290TIP3    H273286   6.921   0.797   5.138
17291TIP3   OH273287   6.224   1.019   4.467
17291TIP3    H173288   6.202   0.977   4.384
17291TIP3    H273289   6.278   0.955   4.513
17292TIP3   OH273290   6.384   1.377   4.733
17292TIP3    H173291   6.389   1.366   4.638
17292TIP3    H273292   6.452   1.320   4.768
17293TIP3   OH273293   6.223   0.925   4.829
17293TIP3    H173294   6.282   0.900   4.758
17293TIP3    H273295   6.274   0.986   4.883
17294TIP3   OH273296   6.885   1.452   4.917
17294TIP3    H173297   6.868   1.528   4.972
17294TIP3    H273298   6.843   1.379   4.963
17295TIP3   OH273299   6.364   1.332   5.305
17295TIP3    H173300   6.312   1.389   5.363
17295TIP3    H273301   6.306   1.314   5.231
17296TIP3   OH273302   6.943   0.905   4.044
17296TIP3    H173303   6.985   0.932   4.126
17296TIP3    H273304   7.000   0.939   3.975
17297TIP3   OH273305   6.038   0.973   5.234
17297TIP3    H173306   6.049   1.040   5.301
17297TIP3    H273307   5.944   0.958   5.230
17298TIP3   OH273308   6.681   1.540   4.367
17298TIP3    H173309   6.755   1.554   4.427
17298TIP3    H273310   6.661   1.627   4.334
17299TIP3   OH273311   6.157   1.509   5.382
17299TIP3    H173312   6.148   1.543   5.293
17299TIP3    H273313   6.067   1.501   5.414
17300TIP3   OH273314   6.140   0.927   4.208
17300TIP3    H173315   6.076   0.990   4.173
17300TIP3    H273316   6.091   0.845   4.214
17301TIP3   OH273317   5.722   1.186   5.138
17301TIP3    H173318   5.669   1.190   5.058
17301TIP3    H273319   5.736   1.092   5.153
17302TIP3   OH273320   5.707   1.465   4.812
17302TIP3    H173321   5.796   1.450   4.844
17302TIP3    H273322   5.675   1.540   4.863
17303TIP3   OH273323   6.589   1.491   5.273
17303TIP3    H173324   6.591   1.554   5.345
17303TIP3    H273325   6.514   1.435   5.292
17304TIP3   OH273326   6.681   1.808   4.250
17304TIP3    H173327   6.661   1.817   4.157
17304TIP3    H273328   6.651   1.889   4.289
17305TIP3   OH273329   6.025   1.700   4.441
17305TIP3    H173330   6.049   1.669   4.529
17305TIP3    H273331   5.974   1.629   4.404
17306TIP3   OH273332   6.965   1.756   3.927
17306TIP3    H173333   7.012   1.681   3.890
17306TIP3    H273334   6.975   1.745   4.021
17307TIP3   OH273335   6.947   1.735   4.204
17307TIP3    H173336   6.855   1.743   4.231
17307TIP3    H273337   6.987   1.682   4.273
17308TIP3   OH273338   7.230   0.739   5.415
17308TIP3    H173339   7.242   0.719   5.322
17308TIP3    H273340   7.238   0.654   5.459
17309TIP3   OH273341   5.946   1.336   5.193
17309TIP3    H173342   5.970   1.311   5.282
17309TIP3    H273343   5.867   1.285   5.174
17310TIP3   OH273344   6.188   0.127   4.829
17310TIP3    H173345   6.096   0.135   4.803
17310TIP3    H273346   6.198   0.189   4.902
17311TIP3   OH273347   6.676   0.143   5.208
17311TIP3    H173348   6.688   0.108   5.296
17311TIP3    H273349   6.582   0.131   5.190
17312TIP3   OH273350   6.977   0.485   5.258
17312TIP3    H173351   6.928   0.474   5.339
17312TIP3    H273352   6.984   0.579   5.245
17313TIP3   OH273353   7.106   1.010   3.853
17313TIP3    H173354   7.083   0.996   3.761
17313TIP3    H273355   7.107   1.105   3.863
17314TIP3   OH273356   6.629   0.376   3.924
17314TIP3    H173357   6.578   0.352   4.001
17314TIP3    H273358   6.600   0.315   3.856
17315TIP3   OH273359   6.212   0.674   4.945
17315TIP3    H173360   6.190   0.687   5.037
17315TIP3    H273361   6.208   0.761   4.906
17316TIP3   OH273362   6.213   0.668   4.434
17316TIP3    H173363   6.118   0.656   4.431
17316TIP3    H273364   6.243   0.646   4.346
17317TIP3   OH273365   6.750   0.699   4.303
17317TIP3    H173366   6.729   0.787   4.270
17317TIP3    H273367   6.827   0.672   4.253
17318TIP3   OH273368   6.704   0.723   5.427
17318TIP3    H173369   6.666   0.647   5.472
17318TIP3    H273370   6.783   0.744   5.477
17319TIP3   OH273371   6.811   0.616   4.564
17319TIP3    H173372   6.782   0.674   4.493
17319TIP3    H273373   6.865   0.550   4.519
17320TIP3   OH273374   5.965   0.647   5.135
17320TIP3    H173375   6.026   0.672   5.204
17320TIP3    H273376   5.942   0.557   5.155
17321TIP3   OH273377   6.265   0.357   3.777
17321TIP3    H173378   6.257   0.358   3.872
17321TIP3    H273379   6.235   0.443   3.749
17322TIP3   OH273380   5.647   0.356   4.525
17322TIP3    H173381   5.700   0.371   4.603
17322TIP3    H273382   5.704   0.381   4.452
17323TIP3   OH273383   5.703   0.449   4.033
17323TIP3    H173384   5.779   0.484   3.985
17323TIP3    H273385   5.650   0.526   4.054
17324TIP3   OH273386   6.772   0.792   5.015
17324TIP3    H173387   6.820   0.736   4.953
17324TIP3    H273388   6.725   0.731   5.072
17325TIP3   OH273389   6.480   0.434   4.523
17325TIP3    H173390   6.395   0.427   4.567
17325TIP3    H273391   6.534   0.368   4.566
17326TIP3   OH273392   5.955   0.578   4.406
17326TIP3    H173393   5.879   0.603   4.354
17326TIP3    H273394   5.977   0.490   4.376
17327TIP3   OH273395   6.278   0.587   4.179
17327TIP3    H173396   6.371   0.582   4.199
17327TIP3    H273397   6.274   0.629   4.093
17328TIP3   OH273398   6.874   0.350   4.850
17328TIP3    H173399   6.836   0.357   4.938
17328TIP3    H273400   6.849   0.263   4.820
17329TIP3   OH273401   6.254   0.673   3.922
17329TIP3    H173402   6.201   0.656   3.844
17329TIP3    H273403   6.329   0.723   3.888
17330TIP3   OH273404   7.231   1.887   5.527
17330TIP3    H173405   7.222   1.967   5.474
17330TIP3    H273406   7.323   1.885   5.552
17331TIP3   OH273407   6.032   1.163   5.439
17331TIP3    H173408   6.103   1.151   5.501
17331TIP3    H273409   5.953   1.170   5.493
17332TIP3   OH273410   6.586   0.706   4.717
17332TIP3    H173411   6.650   0.653   4.671
17332TIP3    H273412   6.558   0.651   4.790
17333TIP3   OH273413   6.071   0.322   4.360
17333TIP3    H173414   6.037   0.235   4.381
17333TIP3    H273415   6.128   0.308   4.284
17334TIP3   OH273416   6.480   0.579   4.945
17334TIP3    H173417   6.395   0.623   4.955
17334TIP3    H273418   6.526   0.599   5.026
17335TIP3   OH273419   6.518   1.140   4.115
17335TIP3    H173420   6.445   1.102   4.066
17335TIP3    H273421   6.479   1.165   4.199
17336TIP3   OH273422   7.208   1.118   4.944
17336TIP3    H173423   7.269   1.079   4.882
17336TIP3    H273424   7.122   1.095   4.910
17337TIP3   OH273425   6.890   0.428   3.981
17337TIP3    H173426   6.796   0.429   3.964
17337TIP3    H273427   6.907   0.508   4.030
17338TIP3   OH273428   6.721   1.197   5.307
17338TIP3    H173429   6.718   1.141   5.384
17338TIP3    H273430   6.671   1.275   5.332
17339TIP3   OH273431   6.968   0.639   4.137
17339TIP3    H173432   7.051   0.616   4.180
17339TIP3    H273433   6.981   0.728   4.106
17340TIP3   OH273434   6.037   1.063   4.670
17340TIP3    H173435   6.099   1.061   4.597
17340TIP3    H273436   6.079   1.012   4.739
17341TIP3   OH273437   6.736   1.288   4.034
17341TIP3    H173438   6.701   1.376   4.042
17341TIP3    H273439   6.664   1.230   4.060
17342TIP3   OH273440   5.758   0.931   5.236
17342TIP3    H173441   5.766   0.896   5.325
17342TIP3    H273442   5.694   0.874   5.194
17343TIP3   OH273443   6.489   0.898   5.432
17343TIP3    H173444   6.453   0.884   5.345
17343TIP3    H273445   6.572   0.850   5.432
17344TIP3   OH273446   6.869   1.493   5.244
17344TIP3    H173447   6.775   1.485   5.232
17344TIP3    H273448   6.883   1.480   5.338
17345TIP3   OH273449   6.983   1.036   4.787
17345TIP3    H173450   6.888   1.025   4.783
17345TIP3    H273451   7.018   0.955   4.749
17346TIP3   OH273452   6.298   1.447   4.456
17346TIP3    H173453   6.319   1.534   4.420
17346TIP3    H273454   6.217   1.461   4.506
17347TIP3   OH273455   5.855   0.904   3.912
17347TIP3    H173456   5.905   0.966   3.965
17347TIP3    H273457   5.766   0.909   3.947
17348TIP3   OH273458   6.376   1.213   4.334
17348TIP3    H173459   6.360   1.298   4.376
17348TIP3    H273460   6.328   1.150   4.387
17349TIP3   OH273461   6.488   1.622   5.047
17349TIP3    H173462   6.549   1.692   5.026
17349TIP3    H273463   6.531   1.573   5.117
17350TIP3   OH273464   6.286   1.717   4.351
17350TIP3    H173465   6.194   1.721   4.377
17350TIP3    H273466   6.325   1.795   4.389
17351TIP3   OH273467   6.780   1.218   5.034
17351TIP3    H173468   6.751   1.212   5.125
17351TIP3    H273469   6.858   1.162   5.031
17352TIP3   OH273470   7.038   1.295   3.925
17352TIP3    H173471   7.086   1.262   4.001
17352TIP3    H273472   6.946   1.295   3.952
17353TIP3   OH273473   7.098   1.640   5.214
17353TIP3    H173474   7.020   1.584   5.218
17353TIP3    H273475   7.071   1.714   5.159
17354TIP3   OH273476   5.901   0.372   5.184
17354TIP3    H173477   5.806   0.371   5.176
17354TIP3    H273478   5.920   0.307   5.252
17355TIP3   OH273479   7.162   1.178   4.134
17355TIP3    H173480   7.141   1.106   4.193
17355TIP3    H273481   7.249   1.207   4.162
17356TIP3   OH273482   5.884   1.584   5.028
17356TIP3    H173483   5.909   1.507   5.080
17356TIP3    H273484   5.897   1.658   5.087
17357TIP3   OH273485   6.434   1.427   3.771
17357TIP3    H173486   6.448   1.342   3.730
17357TIP3    H273487   6.399   1.406   3.858
17358TIP3   OH273488   6.317   1.393   4.023
17358TIP3    H173489   6.360   1.340   4.090
17358TIP3    H273490   6.331   1.483   4.052
17359TIP3   OH273491   5.964   1.102   4.077
17359TIP3    H173492   5.897   1.150   4.125
17359TIP3    H273493   6.014   1.170   4.031
17360TIP3   OH273494   6.781   0.370   5.104
17360TIP3    H173495   6.854   0.394   5.162
17360TIP3    H273496   6.747   0.289   5.142
17361TIP3   OH273497   6.851   0.289   4.221
17361TIP3    H173498   6.869   0.331   4.136
17361TIP3    H273499   6.888   0.350   4.285
17362TIP3   OH273500   6.617   1.529   4.054
17362TIP3    H173501   6.532   1.558   4.085
17362TIP3    H273502   6.664   1.610   4.034
17363TIP3   OH273503   6.531   0.535   4.276
17363TIP3    H173504   6.607   0.592   4.283
17363TIP3    H273505   6.515   0.506   4.366
17364TIP3   OH273506   6.643   0.610   5.171
17364TIP3    H173507   6.659   0.637   5.262
17364TIP3    H273508   6.682   0.523   5.165
17365TIP3   OH273509   6.642   0.167   4.345
17365TIP3    H173510   6.644   0.201   4.434
17365TIP3    H273511   6.718   0.207   4.302
17366TIP3   OH273512   6.371   1.651   4.100
17366TIP3    H173513   6.377   1.735   4.055
17366TIP3    H273514   6.342   1.673   4.188
17367TIP3   OH273515   6.227   0.344   4.052
17367TIP3    H173516   6.215   0.431   4.091
17367TIP3    H273517   6.314   0.317   4.081
17368TIP3   OH273518   7.210   0.336   5.211
17368TIP3    H173519   7.124   0.378   5.218
17368TIP3    H273520   7.260   0.371   5.285
17369TIP3   OH273521   7.089   0.788   4.708
17369TIP3    H173522   7.023   0.734   4.752
17369TIP3    H273523   7.169   0.772   4.758
17370TIP3   OH273524   6.069   1.318   3.926
17370TIP3    H173525   6.143   1.360   3.970
17370TIP3    H273526   6.109   1.262   3.859
17371TIP3   OH273527   5.850   0.626   3.881
17371TIP3    H173528   5.872   0.716   3.906
17371TIP3    H273529   5.810   0.634   3.795
17372TIP3   OH273530   7.232   1.743   4.829
17372TIP3    H173531   7.212   1.809   4.763
17372TIP3    H273532   7.326   1.726   4.819
17373TIP3   OH273533   5.916   0.095   4.774
17373TIP3    H173534   5.951   0.024   4.720
17373TIP3    H273535   5.892   0.053   4.857
17374TIP3   OH273536   5.836   1.524   4.321
17374TIP3    H173537   5.778   1.554   4.391
17374TIP3    H273538   5.820   1.585   4.249
17375TIP3   OH273539   5.827   1.803   5.461
17375TIP3    H173540   5.879   1.792   5.541
17375TIP3    H273541   5.785   1.718   5.447
17376TIP3   OH273542   6.234   1.658   5.611
17376TIP3    H173543   6.312   1.630   5.659
17376TIP3    H273544   6.228   1.599   5.537
17377TIP3   OH273545   6.647   1.606   3.750
17377TIP3    H173546   6.580   1.539   3.768
17377TIP3    H273547   6.724   1.556   3.722
17378TIP3   OH273548   6.887   1.488   5.512
17378TIP3    H173549   6.837   1.428   5.567
17378TIP3    H273550   6.955   1.523   5.570
17379TIP3   OH273551   7.094   1.544   3.805
17379TIP3    H173552   7.097   1.457   3.845
17379TIP3    H273553   7.165   1.544   3.741
17380TIP3   OH273554   5.800   1.125   5.592
17380TIP3    H173555   5.805   1.036   5.556
17380TIP3    H273556   5.718   1.160   5.558
17381TIP3   OH273557   6.200   1.138   3.768
17381TIP3    H173558   6.225   1.089   3.846
17381TIP3    H273559   6.283   1.154   3.723
17382TIP3   OH273560   6.430   1.159   5.512
17382TIP3    H173561   6.415   1.202   5.427
17382TIP3    H273562   6.459   1.071   5.489
17383TIP3   OH273563   6.755   1.286   3.757
17383TIP3    H173564   6.743   1.280   3.851
17383TIP3    H273565   6.755   1.195   3.727
17384TIP3   OH273566   6.995   1.122   5.255
17384TIP3    H173567   7.065   1.187   5.256
17384TIP3    H273568   6.915   1.171   5.277
17385TIP3   OH273569   5.822   0.858   5.508
17385TIP3    H173570   5.899   0.802   5.493
17385TIP3    H273571   5.748   0.798   5.502
17386TIP3   OH273572   6.305   1.007   3.991
17386TIP3    H173573   6.260   0.967   4.066
17386TIP3    H273574   6.354   0.934   3.952
17387TIP3   OH273575   6.220   0.767   5.211
17387TIP3    H173576   6.162   0.841   5.231
17387TIP3    H273577   6.303   0.807   5.188
17388TIP3   OH273578   6.463   0.831   3.837
17388TIP3    H173579   6.462   0.861   3.746
17388TIP3    H273580   6.556   0.817   3.856
17389TIP3   OH273581   6.786   1.022   5.572
17389TIP3    H173582   6.861   0.980   5.530
17389TIP3    H273583   6.767   0.967   5.648
17390TIP3   OH273584   6.307   0.545   5.355
17390TIP3    H173585   6.320   0.478   5.288
17390TIP3    H273586   6.279   0.623   5.306
17391TIP3   OH273587   6.337   0.396   5.117
17391TIP3    H173588   6.392   0.436   5.049
17391TIP3    H273589   6.253   0.379   5.073
17392TIP3   OH273590   6.452   0.890   5.139
17392TIP3    H173591   6.545   0.882   5.119
17392TIP3    H273592   6.424   0.968   5.089
17393TIP3   OH273593   7.003   0.909   5.433
17393TIP3    H173594   7.020   0.985   5.377
17393TIP3    H273595   7.088   0.866   5.443
17394TIP3   OH273596   6.031   0.676   5.470
17394TIP3    H173597   6.000   0.586   5.479
17394TIP3    H273598   6.126   0.670   5.470
17395TIP3   OH273599   6.399   0.129   5.141
17395TIP3    H173600   6.384   0.223   5.145
17395TIP3    H273601   6.347   0.093   5.212
17396TIP3   OH273602   6.525   0.535   5.529
17396TIP3    H173603   6.504   0.605   5.591
17396TIP3    H273604   6.448   0.527   5.474
17397TIP3   OH273605   6.802   0.438   5.472
17397TIP3    H173606   6.710   0.437   5.496
17397TIP3    H273607   6.848   0.415   5.552
17398TIP3   OH273608   5.931   0.422   5.504
17398TIP3    H173609   5.945   0.334   5.469
17398TIP3    H273610   5.961   0.418   5.594
17399TIP3   OH273611   6.511   0.015   5.409
17399TIP3    H173612   6.568   0.008   5.486
17399TIP3    H273613   6.423   0.025   5.444
17400TIP3   OH273614   6.439   1.890   3.973
17400TIP3    H173615   6.529   1.856   3.969
17400TIP3    H273616   6.434   1.955   3.904
17401TIP3   OH273617   5.805   1.364   3.869
17401TIP3    H173618   5.897   1.356   3.896
17401TIP3    H273619   5.789   1.287   3.815
17402TIP3   OH273620   5.675   1.851   4.419
17402TIP3    H173621   5.614   1.816   4.354
17402TIP3    H273622   5.690   1.779   4.480
17403TIP3   OH273623   5.733   1.640   4.584
17403TIP3    H173624   5.697   1.565   4.630
17403TIP3    H273625   5.786   1.685   4.650
17404TIP3   OH273626   7.289   1.495   5.083
17404TIP3    H173627   7.224   1.548   5.130
17404TIP3    H273628   7.242   1.461   5.007
17405TIP3   OH273629   7.171   0.763   4.443
17405TIP3    H173630   7.171   0.668   4.445
17405TIP3    H273631   7.143   0.789   4.531
17406TIP3   OH273632   5.724   0.988   4.846
17406TIP3    H173633   5.738   0.973   4.752
17406TIP3    H273634   5.803   0.954   4.887
17407TIP3   OH273635   7.240   0.380   3.739
17407TIP3    H173636   7.261   0.364   3.831
17407TIP3    H273637   7.146   0.369   3.734
17408TIP3   OH273638   7.205   0.527   4.257
17408TIP3    H173639   7.261   0.502   4.330
17408TIP3    H273640   7.261   0.523   4.180
17409TIP3   OH273641   7.250   0.473   4.803
17409TIP3    H173642   7.337   0.446   4.776
17409TIP3    H273643   7.261   0.562   4.837
17410TIP3   OH273644   7.261   0.730   5.135
17410TIP3    H173645   7.165   0.737   5.137
17410TIP3    H273646   7.281   0.715   5.042
17411TIP3   OH273647   5.687   0.488   5.402
17411TIP3    H173648   5.775   0.476   5.437
17411TIP3    H273649   5.643   0.404   5.419
17412TIP3   OH273650   7.212   0.199   4.387
17412TIP3    H173651   7.179   0.162   4.469
17412TIP3    H273652   7.155   0.162   4.320
17413TIP3   OH273653   5.814   0.356   4.745
17413TIP3    H173654   5.849   0.268   4.758
17413TIP3    H273655   5.887   0.414   4.767
17414TIP3   OH273656   5.637   0.654   4.802
17414TIP3    H173657   5.710   0.658   4.740
17414TIP3    H273658   5.670   0.697   4.881
17415TIP3   OH273659   5.680   0.262   4.229
17415TIP3    H173660   5.586   0.267   4.245
17415TIP3    H273661   5.698   0.332   4.167
17416TIP3   OH273662   7.123   1.741   4.482
17416TIP3    H173663   7.201   1.687   4.493
17416TIP3    H273664   7.141   1.820   4.532
17417TIP3   OH273665   5.697   0.128   5.063
17417TIP3    H173666   5.623   0.107   5.120
17417TIP3    H273667   5.662   0.195   5.004
17418TIP3   OH273668   5.894   1.486   5.484
17418TIP3    H173669   5.802   1.492   5.460
17418TIP3    H273670   5.894   1.462   5.577
17419TIP3   OH273671   6.220   1.588   5.105
17419TIP3    H173672   6.193   1.678   5.086
17419TIP3    H273673   6.315   1.590   5.097
17420TIP3   OH273674   6.616   1.708   5.450
17420TIP3    H173675   6.640   1.687   5.541
17420TIP3    H273676   6.693   1.752   5.414
17421TIP3   OH273677   6.842   1.840   5.349
17421TIP3    H173678   6.891   1.759   5.333
17421TIP3    H273679   6.873   1.871   5.435
17422TIP3   OH273680   5.918   1.872   5.124
17422TIP3    H173681   5.842   1.916   5.086
17422TIP3    H273682   5.922   1.905   5.214
17423TIP3   OH273683   6.182   1.856   5.046
17423TIP3    H173684   6.090   1.864   5.072
17423TIP3    H273685   6.188   1.904   4.963
17424TIP3   OH273686   6.631   1.844   4.952
17424TIP3    H173687   6.574   1.881   4.884
17424TIP3    H273688   6.638   1.913   5.018
17425TIP3   OH273689   6.864   1.713   5.005
17425TIP3    H173690   6.782   1.761   4.995
17425TIP3    H273691   6.930   1.781   5.019
17426TIP3   OH273692   7.091   1.869   5.030
17426TIP3    H173693   7.092   1.959   4.998
17426TIP3    H273694   7.139   1.819   4.963
17427TIP3   OH273695   5.900   1.739   4.789
17427TIP3    H173696   5.879   1.700   4.874
17427TIP3    H273697   5.979   1.693   4.761
17428TIP3   OH273698   6.114   1.603   4.682
17428TIP3    H173699   6.097   1.513   4.709
17428TIP3    H273700   6.197   1.625   4.724
17429TIP3   OH273701   6.368   1.647   4.795
17429TIP3    H173702   6.382   1.557   4.765
17429TIP3    H273703   6.397   1.647   4.886
17430TIP3   OH273704   6.616   0.213   4.614
17430TIP3    H173705   6.560   0.157   4.667
17430TIP3    H273706   6.705   0.190   4.642
17431TIP3   OH273707   7.196   0.048   4.676
17431TIP3    H173708   7.280   0.007   4.695
17431TIP3    H273709   7.185   0.113   4.745
17432TIP3   OH273710   5.983   0.064   4.425
17432TIP3    H173711   5.894   0.064   4.459
17432TIP3    H273712   6.034   0.017   4.491
17433TIP3   OH273713   5.820   0.084   4.070
17433TIP3    H173714   5.867   0.142   4.009
17433TIP3    H273715   5.775   0.144   4.130
17434TIP3   OH273716   6.407   0.047   4.430
17434TIP3    H173717   6.488   0.090   4.403
17434TIP3    H273718   6.409   0.051   4.526
17435TIP3   OH273719   6.876   0.139   4.652
17435TIP3    H173720   6.950   0.198   4.637
17435TIP3    H273721   6.905   0.055   4.617
17436TIP3   OH273722   7.041   0.088   4.203
17436TIP3    H173723   6.969   0.150   4.199
17436TIP3    H273724   6.999   0.002   4.206
17437TIP3   OH273725   5.807   1.695   4.103
17437TIP3    H173726   5.729   1.700   4.047
17437TIP3    H273727   5.829   1.787   4.121
17438TIP3   OH273728   5.981   0.268   3.908
17438TIP3    H173729   6.018   0.213   3.839
17438TIP3    H273730   6.056   0.291   3.963
17439TIP3   OH273731   6.483   0.296   4.151
17439TIP3    H173732   6.533   0.236   4.207
17439TIP3    H273733   6.497   0.383   4.190
17440TIP3   OH273734   6.692   1.783   3.955
17440TIP3    H173735   6.787   1.794   3.949
17440TIP3    H273736   6.669   1.731   3.878
17441TIP3   OH273737   5.960   0.170   5.393
17441TIP3    H173738   5.911   0.093   5.424
17441TIP3    H273739   6.046   0.160   5.433
17442TIP3   OH273740   6.188   0.102   5.535
17442TIP3    H173741   6.200   0.010   5.510
17442TIP3    H273742   6.155   0.098   5.625
17443TIP3   OH273743   5.983   1.742   3.834
17443TIP3    H173744   5.960   1.702   3.918
17443TIP3    H273745   6.063   1.697   3.807
17444TIP3   OH273746   6.944   0.038   5.627
17444TIP3    H173747   6.926   0.126   5.662
17444TIP3    H273748   7.038   0.025   5.640
17445TIP3   OH273749   7.287   1.632   5.427
17445TIP3    H173750   7.228   1.614   5.354
17445TIP3    H273751   7.247   1.707   5.473
17446TIP3   OH273752   1.196   2.921   4.416
17446TIP3    H173753   1.184   3.015   4.408
17446TIP3    H273754   1.122   2.883   4.368
17447TIP3   OH273755   1.064   2.836   4.811
17447TIP3    H173756   1.077   2.799   4.898
17447TIP3    H273757   1.022   2.765   4.761
17448TIP3   OH273758   0.304   2.748   4.947
17448TIP3    H173759   0.314   2.682   5.016
17448TIP3    H273760   0.394   2.768   4.920
17449TIP3   OH273761   1.455   3.139   4.644
17449TIP3    H173762   1.421   3.063   4.691
17449TIP3    H273763   1.477   3.202   4.713
17450TIP3   OH273764   0.412   3.227   4.745
17450TIP3    H173765   0.392   3.136   4.722
17450TIP3    H273766   0.501   3.224   4.779
17451TIP3   OH273767   0.124   2.646   4.299
17451TIP3    H173768   0.158   2.710   4.362
17451TIP3    H273769   0.031   2.640   4.319
17452TIP3   OH273770   0.199   2.800   4.518
17452TIP3    H173771   0.201   2.724   4.577
17452TIP3    H273772   0.254   2.865   4.561
17453TIP3   OH273773   1.184   3.612   4.683
17453TIP3    H173774   1.222   3.553   4.617
17453TIP3    H273775   1.168   3.555   4.759
17454TIP3   OH273776   0.919   3.083   4.842
17454TIP3    H173777   0.958   3.003   4.805
17454TIP3    H273778   0.985   3.116   4.902
17455TIP3   OH273779   1.800   2.227   4.928
17455TIP3    H173780   1.818   2.292   4.996
17455TIP3    H273781   1.855   2.254   4.854
17456TIP3   OH273782   1.210   2.511   4.859
17456TIP3    H173783   1.234   2.419   4.874
17456TIP3    H273784   1.205   2.518   4.764
17457TIP3   OH273785   0.578   2.316   4.575
17457TIP3    H173786   0.590   2.402   4.534
17457TIP3    H273787   0.529   2.266   4.510
17458TIP3   OH273788   1.354   2.339   4.413
17458TIP3    H173789   1.395   2.307   4.493
17458TIP3    H273790   1.426   2.378   4.363
17459TIP3   OH273791   0.219   2.564   4.662
17459TIP3    H173792   0.288   2.528   4.718
17459TIP3    H273793   0.237   2.528   4.575
17460TIP3   OH273794   0.698   2.714   4.623
17460TIP3    H173795   0.785   2.682   4.648
17460TIP3    H273796   0.664   2.648   4.563
17461TIP3   OH273797   1.849   2.396   5.145
17461TIP3    H173798   1.769   2.448   5.135
17461TIP3    H273799   1.870   2.402   5.238
17462TIP3   OH273800   0.393   2.205   4.973
17462TIP3    H173801   0.392   2.286   4.922
17462TIP3    H273802   0.356   2.229   5.058
17463TIP3   OH273803   1.163   3.178   4.313
17463TIP3    H173804   1.146   3.175   4.219
17463TIP3    H273805   1.117   3.257   4.343
17464TIP3   OH273806   0.695   2.998   4.981
17464TIP3    H173807   0.644   3.068   5.022
17464TIP3    H273808   0.769   3.043   4.940
17465TIP3   OH273809   1.459   2.288   4.660
17465TIP3    H173810   1.391   2.265   4.724
17465TIP3    H273811   1.519   2.345   4.709
17466TIP3   OH273812   0.414   2.406   4.778
17466TIP3    H173813   0.471   2.456   4.837
17466TIP3    H273814   0.474   2.366   4.715
17467TIP3   OH273815   0.536   3.203   5.089
17467TIP3    H173816   0.552   3.297   5.084
17467TIP3    H273817   0.446   3.196   5.122
17468TIP3   OH273818   0.115   3.174   4.149
17468TIP3    H173819   0.117   3.212   4.061
17468TIP3    H273820   0.145   3.244   4.206
17469TIP3   OH273821   1.488   3.342   4.844
17469TIP3    H173822   1.393   3.343   4.857
17469TIP3    H273823   1.510   3.432   4.820
17470TIP3   OH273824   1.552   2.115   5.005
17470TIP3    H173825   1.484   2.174   4.973
17470TIP3    H273826   1.633   2.147   4.965
17471TIP3   OH273827   0.799   1.924   4.738
17471TIP3    H173828   0.777   1.831   4.744
17471TIP3    H273829   0.722   1.969   4.773
17472TIP3   OH273830   1.310   3.484   4.470
17472TIP3    H173831   1.354   3.401   4.450
17472TIP3    H273832   1.380   3.549   4.469
17473TIP3   OH273833   1.425   3.247   4.392
17473TIP3    H173834   1.344   3.206   4.364
17473TIP3    H273835   1.447   3.203   4.474
17474TIP3   OH273836   1.611   3.120   5.192
17474TIP3    H173837   1.604   3.068   5.113
17474TIP3    H273838   1.618   3.211   5.162
17475TIP3   OH273839   1.044   2.823   4.200
17475TIP3    H173840   0.980   2.888   4.172
17475TIP3    H273841   1.115   2.831   4.137
17476TIP3   OH273842   1.073   2.709   3.860
17476TIP3    H173843   1.127   2.732   3.936
17476TIP3    H273844   1.124   2.641   3.815
17477TIP3   OH273845   1.784   2.796   5.034
17477TIP3    H173846   1.705   2.849   5.021
17477TIP3    H273847   1.835   2.810   4.955
17478TIP3   OH273848   1.414   2.846   4.271
17478TIP3    H173849   1.347   2.872   4.333
17478TIP3    H273850   1.479   2.799   4.324
17479TIP3   OH273851   1.387   2.664   5.223
17479TIP3    H173852   1.396   2.722   5.299
17479TIP3    H273853   1.348   2.719   5.156
17480TIP3   OH273854   0.563   2.904   4.469
17480TIP3    H173855   0.541   2.862   4.386
17480TIP3    H273856   0.617   2.840   4.515
17481TIP3   OH273857   0.707   3.252   4.736
17481TIP3    H173858   0.720   3.256   4.641
17481TIP3    H273859   0.781   3.200   4.768
17482TIP3   OH273860   0.556   2.807   4.844
17482TIP3    H173861   0.613   2.780   4.771
17482TIP3    H273862   0.608   2.871   4.893
17483TIP3   OH273863   1.222   3.347   4.904
17483TIP3    H173864   1.207   3.421   4.963
17483TIP3    H273865   1.182   3.273   4.949
17484TIP3   OH273866   0.724   3.239   5.303
17484TIP3    H173867   0.662   3.284   5.361
17484TIP3    H273868   0.669   3.202   5.234
17485TIP3   OH273869   1.276   2.785   4.042
17485TIP3    H173870   1.329   2.816   4.115
17485TIP3    H273871   1.329   2.803   3.964
17486TIP3   OH273872   0.396   2.894   5.221
17486TIP3    H173873   0.397   2.944   5.302
17486TIP3    H273874   0.323   2.930   5.170
17487TIP3   OH273875   1.058   3.430   4.371
17487TIP3    H173876   1.139   3.452   4.418
17487TIP3    H273877   1.025   3.513   4.338
17488TIP3   OH273878   0.500   3.387   5.391
17488TIP3    H173879   0.503   3.429   5.305
17488TIP3    H273880   0.407   3.389   5.415
17489TIP3   OH273881   1.643   1.929   4.030
17489TIP3    H173882   1.558   1.953   4.069
17489TIP3    H273883   1.679   2.012   3.999
17490TIP3   OH273884   0.477   2.809   4.212
17490TIP3    H173885   0.416   2.873   4.175
17490TIP3    H273886   0.426   2.728   4.219
17491TIP3   OH273887   1.783   3.375   3.888
17491TIP3    H173888   1.797   3.469   3.900
17491TIP3    H273889   1.871   3.338   3.880
17492TIP3   OH273890   0.147   2.997   5.130
17492TIP3    H173891   0.128   2.973   5.039
17492TIP3    H273892   0.120   2.920   5.181
17493TIP3   OH273893   0.151   3.341   4.749
17493TIP3    H173894   0.236   3.296   4.747
17493TIP3    H273895   0.134   3.356   4.842
17494TIP3   OH273896   1.886   3.421   5.396
17494TIP3    H173897   1.871   3.327   5.383
17494TIP3    H273898   1.801   3.455   5.424
17495TIP3   OH273899   0.953   3.383   5.257
17495TIP3    H173900   0.949   3.456   5.319
17495TIP3    H273901   0.876   3.330   5.279
17496TIP3   OH273902   1.025   3.690   4.247
17496TIP3    H173903   1.007   3.707   4.155
17496TIP3    H273904   1.004   3.772   4.292
17497TIP3   OH273905   0.374   3.586   4.432
17497TIP3    H173906   0.395   3.553   4.519
17497TIP3    H273907   0.327   3.514   4.390
17498TIP3   OH273908   1.311   3.656   3.928
17498TIP3    H173909   1.362   3.583   3.892
17498TIP3    H273910   1.322   3.648   4.022
17499TIP3   OH273911   1.296   3.644   4.204
17499TIP3    H173912   1.204   3.649   4.231
17499TIP3    H273913   1.341   3.604   4.278
17500TIP3   OH273914   1.569   2.525   5.413
17500TIP3    H173915   1.492   2.549   5.361
17500TIP3    H273916   1.577   2.431   5.403
17501TIP3   OH273917   0.270   3.249   5.184
17501TIP3    H173918   0.259   3.271   5.277
17501TIP3    H273919   0.222   3.167   5.172
17502TIP3   OH273920   0.556   2.032   4.832
17502TIP3    H173921   0.482   2.032   4.771
17502TIP3    H273922   0.532   2.095   4.899
17503TIP3   OH273923   1.018   1.981   5.213
17503TIP3    H173924   1.094   1.936   5.251
17503TIP3    H273925   0.952   1.981   5.282
17504TIP3   OH273926   1.339   2.391   5.205
17504TIP3    H173927   1.273   2.369   5.271
17504TIP3    H273928   1.342   2.487   5.206
17505TIP3   OH273929   1.419   2.805   3.807
17505TIP3    H173930   1.406   2.828   3.715
17505TIP3    H273931   1.506   2.838   3.828
17506TIP3   OH273932   0.970   2.247   3.900
17506TIP3    H173933   0.921   2.237   3.981
17506TIP3    H273934   0.937   2.177   3.843
17507TIP3   OH273935   0.570   2.545   4.952
17507TIP3    H173936   0.517   2.547   5.032
17507TIP3    H273937   0.583   2.637   4.930
17508TIP3   OH273938   0.570   2.554   4.437
17508TIP3    H173939   0.475   2.541   4.437
17508TIP3    H273940   0.597   2.532   4.348
17509TIP3   OH273941   1.104   2.579   4.316
17509TIP3    H173942   1.080   2.665   4.283
17509TIP3    H273943   1.175   2.550   4.258
17510TIP3   OH273944   1.042   2.547   5.459
17510TIP3    H173945   0.979   2.548   5.531
17510TIP3    H273946   1.125   2.573   5.498
17511TIP3   OH273947   1.201   2.518   4.577
17511TIP3    H173948   1.160   2.565   4.505
17511TIP3    H273949   1.244   2.444   4.536
17512TIP3   OH273950   0.353   2.543   5.135
17512TIP3    H173951   0.407   2.571   5.209
17512TIP3    H273952   0.316   2.459   5.163
17513TIP3   OH273953   0.656   2.286   3.790
17513TIP3    H173954   0.629   2.274   3.881
17513TIP3    H273955   0.603   2.358   3.758
17514TIP3   OH273956   0.019   2.342   4.488
17514TIP3    H173957   0.082   2.328   4.559
17514TIP3    H273958  -0.010   2.254   4.464
17515TIP3   OH273959   0.069   2.388   4.037
17515TIP3    H173960   0.152   2.432   4.016
17515TIP3    H273961   0.017   2.396   3.957
17516TIP3   OH273962   1.087   2.678   5.041
17516TIP3    H173963   1.130   2.616   4.983
17516TIP3    H273964   1.096   2.639   5.128
17517TIP3   OH273965   0.856   2.279   4.521
17517TIP3    H173966   0.769   2.283   4.561
17517TIP3    H273967   0.911   2.239   4.588
17518TIP3   OH273968   0.310   2.468   4.418
17518TIP3    H173969   0.244   2.499   4.357
17518TIP3    H273970   0.331   2.379   4.388
17519TIP3   OH273971   0.624   2.471   4.179
17519TIP3    H173972   0.718   2.467   4.197
17519TIP3    H273973   0.617   2.514   4.094
17520TIP3   OH273974   1.252   2.229   4.834
17520TIP3    H173975   1.219   2.215   4.922
17520TIP3    H273976   1.186   2.190   4.776
17521TIP3   OH273977   0.585   2.566   3.924
17521TIP3    H173978   0.531   2.548   3.847
17521TIP3    H273979   0.661   2.613   3.889
17522TIP3   OH273980   1.598   3.799   5.517
17522TIP3    H173981   1.623   3.835   5.432
17522TIP3    H273982   1.675   3.814   5.572
17523TIP3   OH273983   0.382   3.042   5.448
17523TIP3    H173984   0.461   3.059   5.500
17523TIP3    H273985   0.310   3.074   5.502
17524TIP3   OH273986   0.937   2.601   4.708
17524TIP3    H173987   1.010   2.550   4.672
17524TIP3    H273988   0.906   2.549   4.782
17525TIP3   OH273989   0.424   2.214   4.363
17525TIP3    H173990   0.384   2.131   4.389
17525TIP3    H273991   0.470   2.194   4.281
17526TIP3   OH273992   0.832   2.454   4.916
17526TIP3    H173993   0.741   2.480   4.933
17526TIP3    H273994   0.864   2.422   5.000
17527TIP3   OH273995   0.858   3.018   4.121
17527TIP3    H173996   0.785   2.981   4.071
17527TIP3    H273997   0.819   3.045   4.204
17528TIP3   OH273998   1.585   2.972   4.959
17528TIP3    H173999   1.641   3.030   4.907
17528TIP3    H274000   1.508   2.957   4.904
17529TIP3   OH274001   1.231   2.297   3.974
17529TIP3    H174002   1.138   2.296   3.951
17529TIP3    H274003   1.244   2.382   4.018
17530TIP3   OH274004   1.001   3.057   5.273
17530TIP3    H174005   1.035   3.016   5.353
17530TIP3    H274006   0.931   3.115   5.304
17531TIP3   OH274007   1.307   2.516   4.129
17531TIP3    H174008   1.394   2.497   4.165
17531TIP3    H274009   1.314   2.606   4.098
17532TIP3   OH274010   0.382   2.953   4.673
17532TIP3    H174011   0.441   2.950   4.597
17532TIP3    H274012   0.427   2.903   4.741
17533TIP3   OH274013   1.071   3.172   4.043
17533TIP3    H174014   1.036   3.261   4.051
17533TIP3    H274015   0.999   3.115   4.069
17534TIP3   OH274016   0.055   2.804   5.300
17534TIP3    H174017   0.098   2.774   5.379
17534TIP3    H274018   0.036   2.723   5.251
17535TIP3   OH274019   1.225   3.310   5.270
17535TIP3    H174020   1.131   3.326   5.258
17535TIP3    H274021   1.243   3.339   5.360
17536TIP3   OH274022   1.765   2.551   4.076
17536TIP3    H174023   1.724   2.528   3.992
17536TIP3    H274024   1.789   2.643   4.067
17537TIP3   OH274025   1.852   3.138   5.363
17537TIP3    H174026   1.790   3.099   5.426
17537TIP3    H274027   1.809   3.127   5.278
17538TIP3   OH274028   1.634   3.406   4.144
17538TIP3    H174029   1.587   3.337   4.191
17538TIP3    H274030   1.667   3.363   4.065
17539TIP3   OH274031   1.366   2.908   4.788
17539TIP3    H174032   1.270   2.902   4.790
17539TIP3    H274033   1.394   2.828   4.744
17540TIP3   OH274034   0.650   3.334   4.464
17540TIP3    H174035   0.676   3.417   4.425
17540TIP3    H274036   0.561   3.348   4.496
17541TIP3   OH274037   0.182   2.805   3.908
17541TIP3    H174038   0.241   2.858   3.961
17541TIP3    H274039   0.097   2.812   3.952
17542TIP3   OH274040   0.717   3.098   4.337
17542TIP3    H174041   0.706   3.182   4.382
17542TIP3    H274042   0.667   3.036   4.390
17543TIP3   OH274043   0.836   3.507   5.037
17543TIP3    H174044   0.892   3.582   5.016
17543TIP3    H274045   0.886   3.457   5.101
17544TIP3   OH274046   0.640   3.596   4.353
17544TIP3    H174047   0.548   3.609   4.375
17544TIP3    H274048   0.684   3.674   4.388
17545TIP3   OH274049   1.125   3.111   5.030
17545TIP3    H174050   1.079   3.098   5.113
17545TIP3    H274051   1.210   3.069   5.044
17546TIP3   OH274052   1.409   3.212   3.927
17546TIP3    H174053   1.445   3.159   3.998
17546TIP3    H274054   1.315   3.194   3.929
17547TIP3   OH274055   1.415   3.536   5.219
17547TIP3    H174056   1.333   3.495   5.191
17547TIP3    H274057   1.424   3.612   5.161
17548TIP3   OH274058   1.839   3.645   3.934
17548TIP3    H174059   1.904   3.715   3.929
17548TIP3    H274060   1.758   3.690   3.958
17549TIP3   OH274061   0.246   2.286   5.202
17549TIP3    H174062   0.151   2.290   5.216
17549TIP3    H274063   0.275   2.211   5.254
17550TIP3   OH274064   1.523   3.051   4.115
17550TIP3    H174065   1.478   2.992   4.176
17550TIP3    H274066   1.615   3.044   4.138
17551TIP3   OH274067   0.211   3.485   5.019
17551TIP3    H174068   0.233   3.408   5.071
17551TIP3    H274069   0.233   3.559   5.075
17552TIP3   OH274070   0.785   3.307   3.773
17552TIP3    H174071   0.793   3.222   3.731
17552TIP3    H274072   0.749   3.288   3.860
17553TIP3   OH274073   0.663   3.276   4.022
17553TIP3    H174074   0.706   3.226   4.092
17553TIP3    H274075   0.673   3.368   4.049
17554TIP3   OH274076   0.308   2.986   4.076
17554TIP3    H174077   0.240   3.035   4.122
17554TIP3    H274078   0.360   3.053   4.031
17555TIP3   OH274079   1.141   2.197   5.079
17555TIP3    H174080   1.179   2.253   5.147
17555TIP3    H274081   1.093   2.130   5.127
17556TIP3   OH274082   1.213   2.179   4.233
17556TIP3    H174083   1.223   2.222   4.148
17556TIP3    H274084   1.254   2.239   4.295
17557TIP3   OH274085   0.957   3.417   4.060
17557TIP3    H174086   0.870   3.451   4.081
17557TIP3    H274087   1.013   3.494   4.058
17558TIP3   OH274088   0.878   2.423   4.288
17558TIP3    H174089   0.955   2.480   4.297
17558TIP3    H274090   0.869   2.381   4.373
17559TIP3   OH274091   0.980   2.073   4.341
17559TIP3    H174092   0.966   2.132   4.415
17559TIP3    H274093   1.064   2.100   4.305
17560TIP3   OH274094   0.710   3.535   4.096
17560TIP3    H174095   0.717   3.619   4.049
17560TIP3    H274096   0.687   3.559   4.185
17561TIP3   OH274097   0.571   2.228   4.050
17561TIP3    H174098   0.565   2.312   4.096
17561TIP3    H274099   0.656   2.192   4.076
17562TIP3   OH274100   1.577   2.271   5.265
17562TIP3    H174101   1.489   2.304   5.248
17562TIP3    H274102   1.601   2.224   5.185
17563TIP3   OH274103   1.439   2.658   4.667
17563TIP3    H174104   1.357   2.613   4.651
17563TIP3    H274105   1.488   2.599   4.725
17564TIP3   OH274106   0.414   3.198   3.925
17564TIP3    H174107   0.486   3.244   3.968
17564TIP3    H274108   0.457   3.142   3.859
17565TIP3   OH274109   0.205   2.534   3.845
17565TIP3    H174110   0.211   2.627   3.870
17565TIP3    H274111   0.171   2.536   3.756
17566TIP3   OH274112   1.572   3.610   4.819
17566TIP3    H174113   1.560   3.682   4.756
17566TIP3    H274114   1.666   3.609   4.836
17567TIP3   OH274115   0.305   2.009   4.701
17567TIP3    H174116   0.314   1.995   4.607
17567TIP3    H274117   0.277   1.925   4.735
17568TIP3   OH274118   0.179   3.408   4.309
17568TIP3    H174119   0.129   3.427   4.389
17568TIP3    H274120   0.156   3.479   4.250
17569TIP3   OH274121   0.212   3.696   5.425
17569TIP3    H174122   0.257   3.689   5.510
17569TIP3    H274123   0.142   3.631   5.430
17570TIP3   OH274124   0.544   3.513   5.651
17570TIP3    H174125   0.610   3.489   5.716
17570TIP3    H274126   0.566   3.459   5.575
17571TIP3   OH274127   0.994   3.491   3.754
17571TIP3    H174128   0.928   3.424   3.773
17571TIP3    H274129   1.072   3.441   3.728
17572TIP3   OH274130   1.444   3.452   3.797
17572TIP3    H174131   1.445   3.373   3.851
17572TIP3    H274132   1.526   3.449   3.748
17573TIP3   OH274133   0.102   3.028   5.544
17573TIP3    H174134   0.121   2.935   5.529
17573TIP3    H274135   0.051   3.055   5.468
17574TIP3   OH274136   0.546   3.017   3.769
17574TIP3    H174137   0.572   2.970   3.849
17574TIP3    H274138   0.628   3.033   3.723
17575TIP3   OH274139   1.132   3.172   3.775
17575TIP3    H174140   1.102   3.166   3.866
17575TIP3    H274141   1.119   3.084   3.740
17576TIP3   OH274142   1.346   3.058   5.247
17576TIP3    H174143   1.437   3.085   5.237
17576TIP3    H274144   1.297   3.140   5.256
17577TIP3   OH274145   0.175   2.747   5.550
17577TIP3    H174146   0.247   2.687   5.533
17577TIP3    H274147   0.187   2.773   5.642
17578TIP3   OH274148   0.644   2.890   3.996
17578TIP3    H174149   0.599   2.849   4.069
17578TIP3    H274150   0.692   2.818   3.954
17579TIP3   OH274151   0.583   2.700   5.221
17579TIP3    H174152   0.523   2.773   5.202
17579TIP3    H274153   0.659   2.716   5.164
17580TIP3   OH274154   0.796   2.718   3.836
17580TIP3    H174155   0.795   2.746   3.744
17580TIP3    H274156   0.889   2.709   3.857
17581TIP3   OH274157   1.101   2.945   5.556
17581TIP3    H174158   1.194   2.930   5.543
17581TIP3    H274159   1.072   2.871   5.609
17582TIP3   OH274160   1.676   2.911   3.791
17582TIP3    H174161   1.683   2.889   3.698
17582TIP3    H274162   1.668   3.006   3.793
17583TIP3   OH274163   0.809   2.761   5.084
17583TIP3    H174164   0.902   2.743   5.070
17583TIP3    H274165   0.796   2.851   5.056
17584TIP3   OH274166   1.294   2.559   5.602
17584TIP3    H174167   1.344   2.477   5.595
17584TIP3    H274168   1.359   2.624   5.629
17585TIP3   OH274169   1.425   2.857   5.420
17585TIP3    H174170   1.391   2.930   5.369
17585TIP3    H274171   1.519   2.874   5.427
17586TIP3   OH274172   0.519   2.540   5.522
17586TIP3    H174173   0.441   2.515   5.572
17586TIP3    H274174   0.586   2.557   5.588
17587TIP3   OH274175   1.152   2.304   5.377
17587TIP3    H174176   1.098   2.373   5.417
17587TIP3    H274177   1.198   2.263   5.450
17588TIP3   OH274178   1.315   2.195   5.581
17588TIP3    H174179   1.313   2.100   5.586
17588TIP3    H274180   1.265   2.225   5.657
17589TIP3   OH274181   0.277   2.242   5.548
17589TIP3    H174182   0.297   2.173   5.485
17589TIP3    H274183   0.333   2.222   5.624
17590TIP3   OH274184   0.779   3.770   3.964
17590TIP3    H174185   0.870   3.741   3.965
17590TIP3    H274186   0.776   3.839   3.899
17591TIP3   OH274187   0.148   3.236   3.867
17591TIP3    H174188   0.242   3.225   3.884
17591TIP3    H274189   0.128   3.170   3.801
17592TIP3   OH274190   0.061   3.753   4.377
17592TIP3    H174191   0.061   3.713   4.290
17592TIP3    H274192   0.063   3.679   4.437
17593TIP3   OH274193   0.082   3.533   4.562
17593TIP3    H174194   0.082   3.449   4.607
17593TIP3    H274195   0.134   3.590   4.618
17594TIP3   OH274196   1.838   3.621   4.903
17594TIP3    H174197   1.822   3.608   4.996
17594TIP3    H274198   1.884   3.705   4.899
17595TIP3   OH274199   1.775   3.587   5.167
17595TIP3    H174200   1.717   3.514   5.147
17595TIP3    H274201   1.820   3.560   5.248
17596TIP3   OH274202   1.787   3.005   4.190
17596TIP3    H174203   1.859   3.068   4.196
17596TIP3    H274204   1.801   2.946   4.264
17597TIP3   OH274205   1.832   2.807   4.378
17597TIP3    H174206   1.749   2.774   4.413
17597TIP3    H274207   1.887   2.819   4.456
17598TIP3   OH274208   1.800   3.118   4.860
17598TIP3    H174209   1.859   3.051   4.825
17598TIP3    H274210   1.835   3.201   4.828
17599TIP3   OH274211   1.607   3.378   5.096
17599TIP3    H174212   1.536   3.421   5.143
17599TIP3    H274213   1.572   3.362   5.008
17600TIP3   OH274214   1.823   2.810   4.001
17600TIP3    H174215   1.770   2.839   3.927
17600TIP3    H274216   1.808   2.876   4.069
17601TIP3   OH274217   1.666   2.510   3.822
17601TIP3    H174218   1.640   2.566   3.749
17601TIP3    H274219   1.649   2.421   3.790
17602TIP3   OH274220   1.580   2.687   4.430
17602TIP3    H174221   1.578   2.596   4.401
17602TIP3    H274222   1.538   2.686   4.516
17603TIP3   OH274223   0.098   2.899   4.865
17603TIP3    H174224   0.119   2.947   4.784
17603TIP3    H274225   0.178   2.852   4.886
17604TIP3   OH274226   1.699   2.878   5.469
17604TIP3    H174227   1.746   2.801   5.436
17604TIP3    H274228   1.708   2.873   5.564
17605TIP3   OH274229   1.822   2.633   5.400
17605TIP3    H174230   1.733   2.603   5.419
17605TIP3    H274231   1.878   2.560   5.426
17606TIP3   OH274232   1.596   2.260   3.719
17606TIP3    H174233   1.636   2.214   3.793
17606TIP3    H274234   1.504   2.236   3.723
17607TIP3   OH274235   1.563   2.441   4.247
17607TIP3    H174236   1.591   2.349   4.252
17607TIP3    H274237   1.632   2.484   4.198
17608TIP3   OH274238   1.596   2.478   4.816
17608TIP3    H174239   1.689   2.488   4.795
17608TIP3    H274240   1.590   2.496   4.910
17609TIP3   OH274241   1.629   2.565   5.081
17609TIP3    H174242   1.556   2.590   5.137
17609TIP3    H274243   1.683   2.643   5.075
17610TIP3   OH274244   0.055   2.388   5.490
17610TIP3    H174245   0.140   2.345   5.506
17610TIP3    H274246   0.022   2.347   5.411
17611TIP3   OH274247   1.859   1.946   5.607
17611TIP3    H174248   1.928   1.897   5.561
17611TIP3    H274249   1.855   2.030   5.562
17612TIP3   OH274250   1.627   2.170   4.266
17612TIP3    H174251   1.649   2.133   4.351
17612TIP3    H274252   1.560   2.112   4.231
17613TIP3   OH274253   0.184   2.257   4.716
17613TIP3    H174254   0.218   2.168   4.720
17613TIP3    H274255   0.258   2.313   4.739
17614TIP3   OH274256   0.018   2.624   4.842
17614TIP3    H174257   0.089   2.602   4.782
17614TIP3    H274258   0.035   2.715   4.867
17615TIP3   OH274259   1.783   2.165   5.450
17615TIP3    H174260   1.719   2.210   5.504
17615TIP3    H274261   1.737   2.145   5.369
17616TIP3   OH274262   1.760   2.151   3.914
17616TIP3    H174263   1.811   2.091   3.860
17616TIP3    H274264   1.826   2.210   3.953
17617TIP3   OH274265   0.120   2.143   4.157
17617TIP3    H174266   0.056   2.141   4.228
17617TIP3    H274267   0.109   2.230   4.118
17618TIP3   OH274268   1.494   3.676   4.430
17618TIP3    H174269   1.573   3.674   4.376
17618TIP3    H274270   1.519   3.728   4.507
17619TIP3   OH274271   7.313   2.023   5.119
17619TIP3    H174272   7.256   1.948   5.133
17619TIP3    H274273   7.276   2.068   5.043
17620TIP3   OH274274   0.210   3.356   5.448
17620TIP3    H174275   0.131   3.410   5.441
17620TIP3    H274276   0.211   3.326   5.539
17621TIP3   OH274277   0.572   3.475   5.116
17621TIP3    H174278   0.543   3.563   5.093
17621TIP3    H274279   0.667   3.476   5.102
17622TIP3   OH274280   0.962   3.600   5.428
17622TIP3    H174281   0.989   3.558   5.510
17622TIP3    H274282   1.039   3.648   5.399
17623TIP3   OH274283   1.194   3.727   5.345
17623TIP3    H174284   1.259   3.673   5.302
17623TIP3    H274285   1.231   3.746   5.431
17624TIP3   OH274286   1.692   1.959   5.236
17624TIP3    H174287   1.618   1.976   5.178
17624TIP3    H274288   1.716   1.868   5.219
17625TIP3   OH274289   0.264   3.732   5.144
17625TIP3    H174290   0.195   3.795   5.124
17625TIP3    H274291   0.265   3.727   5.239
17626TIP3   OH274292   0.526   3.738   5.046
17626TIP3    H174293   0.437   3.748   5.078
17626TIP3    H274294   0.531   3.794   4.969
17627TIP3   OH274295   0.978   3.729   4.952
17627TIP3    H174296   0.928   3.771   4.882
17627TIP3    H274297   0.992   3.799   5.017
17628TIP3   OH274298   1.205   3.591   5.028
17628TIP3    H174299   1.126   3.639   5.002
17628TIP3    H274300   1.275   3.656   5.021
17629TIP3   OH274301   1.443   3.737   5.028
17629TIP3    H174302   1.470   3.828   5.017
17629TIP3    H274303   1.487   3.690   4.958
17630TIP3   OH274304   0.231   3.634   4.784
17630TIP3    H174305   0.223   3.599   4.873
17630TIP3    H274306   0.308   3.590   4.747
17631TIP3   OH274307   0.446   3.495   4.680
17631TIP3    H174308   0.431   3.405   4.708
17631TIP3    H274309   0.529   3.519   4.720
17632TIP3   OH274310   0.698   3.528   4.795
17632TIP3    H174311   0.712   3.437   4.769
17632TIP3    H274312   0.734   3.533   4.884
17633TIP3   OH274313   1.019   2.104   4.657
17633TIP3    H174314   0.961   2.035   4.691
17633TIP3    H274315   1.096   2.056   4.627
17634TIP3   OH274316   1.537   1.943   4.664
17634TIP3    H174317   1.604   1.995   4.619
17634TIP3    H274318   1.465   2.005   4.680
17635TIP3   OH274319   1.721   2.053   4.496
17635TIP3    H174320   1.784   1.984   4.475
17635TIP3    H274321   1.775   2.130   4.513
17636TIP3   OH274322   0.315   1.969   4.429
17636TIP3    H174323   0.226   1.958   4.396
17636TIP3    H274324   0.354   1.882   4.422
17637TIP3   OH274325   0.227   1.937   4.017
17637TIP3    H174326   0.278   1.989   3.955
17637TIP3    H274327   0.188   2.002   4.076
17638TIP3   OH274328   0.754   1.938   4.455
17638TIP3    H174329   0.826   1.986   4.415
17638TIP3    H274330   0.772   1.943   4.549
17639TIP3   OH274331   1.243   1.966   4.581
17639TIP3    H174332   1.307   1.942   4.513
17639TIP3    H274333   1.226   1.884   4.627
17640TIP3   OH274334   1.420   2.002   4.177
17640TIP3    H174335   1.345   2.058   4.194
17640TIP3    H274336   1.388   1.913   4.193
17641TIP3   OH274337   0.104   3.613   4.138
17641TIP3    H174338   0.061   3.571   4.064
17641TIP3    H274339   0.153   3.685   4.100
17642TIP3   OH274340   0.386   2.118   3.868
17642TIP3    H174341   0.445   2.071   3.809
17642TIP3    H274342   0.443   2.152   3.937
17643TIP3   OH274343   0.833   2.201   4.135
17643TIP3    H174344   0.870   2.132   4.191
17643TIP3    H274345   0.849   2.281   4.184
17644TIP3   OH274346   1.037   3.673   3.957
17644TIP3    H174347   1.131   3.687   3.949
17644TIP3    H274348   1.015   3.615   3.884
17645TIP3   OH274349   1.702   3.651   4.245
17645TIP3    H174350   1.681   3.563   4.215
17645TIP3    H274351   1.686   3.707   4.169
17646TIP3   OH274352   0.306   2.033   5.358
17646TIP3    H174353   0.270   1.961   5.409
17646TIP3    H274354   0.398   2.009   5.344
17647TIP3   OH274355   0.367   3.663   3.820
17647TIP3    H174356   0.353   3.673   3.914
17647TIP3    H274357   0.438   3.599   3.813
17648TIP3   OH274358   1.337   1.918   5.591
17648TIP3    H174359   1.326   1.871   5.674
17648TIP3    H274360   1.430   1.909   5.571
17649TIP3   OH274361   1.640   3.531   5.436
17649TIP3    H174362   1.556   3.489   5.416
17649TIP3    H274363   1.617   3.612   5.482
17650TIP3   OH274364   3.074   2.921   4.399
17650TIP3    H174365   3.065   3.016   4.387
17650TIP3    H274366   3.008   2.899   4.464
17651TIP3   OH274367   2.950   2.826   4.811
17651TIP3    H174368   2.979   2.797   4.897
17651TIP3    H274369   2.902   2.752   4.776
17652TIP3   OH274370   2.163   2.764   4.959
17652TIP3    H174371   2.173   2.688   5.016
17652TIP3    H274372   2.250   2.805   4.957
17653TIP3   OH274373   3.343   3.142   4.632
17653TIP3    H174374   3.313   3.066   4.680
17653TIP3    H274375   3.363   3.207   4.699
17654TIP3   OH274376   2.315   3.230   4.749
17654TIP3    H174377   2.279   3.143   4.730
17654TIP3    H274378   2.393   3.212   4.801
17655TIP3   OH274379   1.966   2.575   4.282
17655TIP3    H174380   1.936   2.658   4.320
17655TIP3    H274381   1.897   2.550   4.222
17656TIP3   OH274382   2.032   2.819   4.576
17656TIP3    H174383   2.058   2.730   4.598
17656TIP3    H274384   2.110   2.872   4.593
17657TIP3   OH274385   3.065   3.626   4.683
17657TIP3    H174386   3.101   3.550   4.636
17657TIP3    H274387   3.038   3.590   4.767
17658TIP3   OH274388   2.814   3.077   4.846
17658TIP3    H174389   2.849   2.993   4.816
17658TIP3    H274390   2.879   3.109   4.907
17659TIP3   OH274391   3.678   2.240   4.933
17659TIP3    H174392   3.696   2.290   5.012
17659TIP3    H274393   3.712   2.295   4.862
17660TIP3   OH274394   3.122   2.511   4.836
17660TIP3    H174395   3.131   2.418   4.858
17660TIP3    H274396   3.092   2.511   4.745
17661TIP3   OH274397   2.448   2.311   4.575
17661TIP3    H174398   2.458   2.395   4.530
17661TIP3    H274399   2.396   2.258   4.515
17662TIP3   OH274400   3.244   2.336   4.422
17662TIP3    H174401   3.283   2.304   4.503
17662TIP3    H274402   3.317   2.375   4.374
17663TIP3   OH274403   2.100   2.562   4.648
17663TIP3    H174404   2.162   2.521   4.708
17663TIP3    H274405   2.121   2.524   4.563
17664TIP3   OH274406   2.588   2.709   4.615
17664TIP3    H174407   2.669   2.670   4.647
17664TIP3    H274408   2.548   2.641   4.560
17665TIP3   OH274409   3.727   2.396   5.155
17665TIP3    H174410   3.650   2.451   5.143
17665TIP3    H274411   3.745   2.401   5.249
17666TIP3   OH274412   2.325   2.224   4.991
17666TIP3    H174413   2.300   2.286   4.923
17666TIP3    H274414   2.255   2.229   5.056
17667TIP3   OH274415   3.051   3.184   4.309
17667TIP3    H174416   3.024   3.179   4.218
17667TIP3    H274417   3.006   3.261   4.344
17668TIP3   OH274418   2.583   2.995   4.984
17668TIP3    H174419   2.529   3.064   5.023
17668TIP3    H274420   2.658   3.042   4.946
17669TIP3   OH274421   3.348   2.280   4.666
17669TIP3    H174422   3.275   2.258   4.725
17669TIP3    H274423   3.401   2.342   4.716
17670TIP3   OH274424   2.286   2.398   4.779
17670TIP3    H174425   2.342   2.456   4.831
17670TIP3    H274426   2.345   2.361   4.713
17671TIP3   OH274427   2.410   3.192   5.074
17671TIP3    H174428   2.422   3.286   5.076
17671TIP3    H274429   2.327   3.177   5.120
17672TIP3   OH274430   2.006   3.180   4.168
17672TIP3    H174431   1.993   3.232   4.089
17672TIP3    H274432   2.029   3.244   4.235
17673TIP3   OH274433   3.376   3.345   4.827
17673TIP3    H174434   3.283   3.340   4.851
17673TIP3    H274435   3.393   3.438   4.814
17674TIP3   OH274436   3.424   2.109   4.966
17674TIP3    H174437   3.362   2.182   4.962
17674TIP3    H274438   3.509   2.149   4.951
17675TIP3   OH274439   2.674   1.915   4.738
17675TIP3    H174440   2.653   1.822   4.745
17675TIP3    H274441   2.597   1.960   4.771
17676TIP3   OH274442   3.197   3.485   4.468
17676TIP3    H174443   3.243   3.402   4.450
17676TIP3    H274444   3.267   3.550   4.472
17677TIP3   OH274445   3.317   3.251   4.378
17677TIP3    H174446   3.233   3.213   4.354
17677TIP3    H274447   3.340   3.208   4.460
17678TIP3   OH274448   3.491   3.135   5.193
17678TIP3    H174449   3.483   3.072   5.121
17678TIP3    H274450   3.506   3.219   5.150
17679TIP3   OH274451   2.918   2.796   4.152
17679TIP3    H174452   2.860   2.872   4.153
17679TIP3    H274453   3.006   2.833   4.155
17680TIP3   OH274454   2.952   2.702   3.874
17680TIP3    H174455   2.969   2.714   3.967
17680TIP3    H274456   3.019   2.640   3.845
17681TIP3   OH274457   3.665   2.781   5.025
17681TIP3    H174458   3.591   2.841   5.022
17681TIP3    H274459   3.724   2.812   4.956
17682TIP3   OH274460   3.309   2.850   4.281
17682TIP3    H174461   3.234   2.872   4.337
17682TIP3    H274462   3.368   2.800   4.338
17683TIP3   OH274463   3.271   2.659   5.216
17683TIP3    H174464   3.266   2.726   5.284
17683TIP3    H274465   3.203   2.683   5.153
17684TIP3   OH274466   2.461   2.907   4.464
17684TIP3    H174467   2.433   2.865   4.383
17684TIP3    H274468   2.510   2.839   4.511
17685TIP3   OH274469   2.619   3.255   4.736
17685TIP3    H174470   2.622   3.238   4.642
17685TIP3    H274471   2.687   3.199   4.773
17686TIP3   OH274472   2.445   2.812   4.835
17686TIP3    H174473   2.504   2.786   4.764
17686TIP3    H274474   2.497   2.873   4.887
17687TIP3   OH274475   3.118   3.339   4.909
17687TIP3    H174476   3.100   3.418   4.961
17687TIP3    H274477   3.074   3.269   4.957
17688TIP3   OH274478   2.632   3.209   5.355
17688TIP3    H174479   2.623   3.257   5.438
17688TIP3    H274480   2.545   3.218   5.314
17689TIP3   OH274481   3.188   2.765   4.054
17689TIP3    H174482   3.235   2.801   4.130
17689TIP3    H274483   3.231   2.805   3.979
17690TIP3   OH274484   2.256   2.817   5.288
17690TIP3    H174485   2.253   2.829   5.383
17690TIP3    H274486   2.169   2.784   5.266
17691TIP3   OH274487   2.948   3.433   4.368
17691TIP3    H174488   3.026   3.457   4.417
17691TIP3    H274489   2.899   3.514   4.359
17692TIP3   OH274490   2.371   3.356   5.358
17692TIP3    H174491   2.403   3.431   5.308
17692TIP3    H274492   2.406   3.369   5.446
17693TIP3   OH274493   3.527   1.929   4.030
17693TIP3    H174494   3.441   1.949   4.068
17693TIP3    H274495   3.560   2.014   4.001
17694TIP3   OH274496   2.368   2.818   4.207
17694TIP3    H174497   2.302   2.879   4.174
17694TIP3    H274498   2.322   2.734   4.210
17695TIP3   OH274499   3.659   3.369   3.865
17695TIP3    H174500   3.676   3.461   3.885
17695TIP3    H274501   3.746   3.328   3.865
17696TIP3   OH274502   1.914   3.045   5.104
17696TIP3    H174503   1.879   3.091   5.028
17696TIP3    H274504   1.881   2.956   5.096
17697TIP3   OH274505   1.929   3.368   4.815
17697TIP3    H174506   2.011   3.364   4.864
17697TIP3    H274507   1.886   3.447   4.846
17698TIP3   OH274508   3.747   3.410   5.394
17698TIP3    H174509   3.747   3.316   5.409
17698TIP3    H274510   3.661   3.440   5.423
17699TIP3   OH274511   2.829   3.366   5.244
17699TIP3    H174512   2.828   3.444   5.299
17699TIP3    H274513   2.762   3.309   5.283
17700TIP3   OH274514   2.911   3.701   4.237
17700TIP3    H174515   2.889   3.721   4.146
17700TIP3    H274516   2.883   3.778   4.286
17701TIP3   OH274517   2.257   3.588   4.437
17701TIP3    H174518   2.280   3.558   4.525
17701TIP3    H274519   2.202   3.518   4.401
17702TIP3   OH274520   3.197   3.650   3.927
17702TIP3    H174521   3.250   3.577   3.897
17702TIP3    H274522   3.202   3.645   4.023
17703TIP3   OH274523   3.177   3.641   4.203
17703TIP3    H174524   3.085   3.654   4.225
17703TIP3    H274525   3.213   3.593   4.279
17704TIP3   OH274526   3.447   2.534   5.416
17704TIP3    H174527   3.386   2.578   5.356
17704TIP3    H274528   3.449   2.444   5.386
17705TIP3   OH274529   2.163   3.227   5.221
17705TIP3    H174530   2.223   3.269   5.282
17705TIP3    H274531   2.109   3.298   5.187
17706TIP3   OH274532   2.432   2.026   4.827
17706TIP3    H174533   2.354   2.017   4.772
17706TIP3    H274534   2.411   2.098   4.886
17707TIP3   OH274535   2.917   1.983   5.175
17707TIP3    H174536   2.965   1.929   5.238
17707TIP3    H274537   2.826   1.977   5.203
17708TIP3   OH274538   3.162   2.401   5.216
17708TIP3    H174539   3.143   2.378   5.307
17708TIP3    H274540   3.204   2.487   5.222
17709TIP3   OH274541   3.315   2.856   3.824
17709TIP3    H174542   3.312   2.790   3.754
17709TIP3    H274543   3.409   2.867   3.842
17710TIP3   OH274544   2.869   2.228   3.914
17710TIP3    H174545   2.814   2.222   3.992
17710TIP3    H274546   2.828   2.169   3.851
17711TIP3   OH274547   2.445   2.555   4.938
17711TIP3    H174548   2.389   2.556   5.015
17711TIP3    H274549   2.446   2.646   4.908
17712TIP3   OH274550   2.443   2.549   4.436
17712TIP3    H174551   2.348   2.537   4.434
17712TIP3    H274552   2.472   2.527   4.348
17713TIP3   OH274553   2.987   2.580   4.312
17713TIP3    H174554   2.957   2.660   4.268
17713TIP3    H274555   3.058   2.548   4.256
17714TIP3   OH274556   2.904   2.589   5.426
17714TIP3    H174557   2.868   2.510   5.465
17714TIP3    H274558   2.990   2.599   5.467
17715TIP3   OH274559   3.073   2.510   4.567
17715TIP3    H174560   3.031   2.553   4.493
17715TIP3    H274561   3.125   2.439   4.528
17716TIP3   OH274562   2.228   2.542   5.117
17716TIP3    H174563   2.279   2.562   5.195
17716TIP3    H274564   2.186   2.458   5.137
17717TIP3   OH274565   2.551   2.293   3.794
17717TIP3    H174566   2.519   2.273   3.882
17717TIP3    H274567   2.488   2.356   3.759
17718TIP3   OH274568   1.901   2.253   4.509
17718TIP3    H174569   1.949   2.263   4.591
17718TIP3    H274570   1.968   2.237   4.443
17719TIP3   OH274571   1.939   2.338   4.022
17719TIP3    H174572   2.010   2.379   3.972
17719TIP3    H274573   1.884   2.412   4.048
17720TIP3   OH274574   3.046   2.681   5.035
17720TIP3    H174575   3.080   2.621   4.967
17720TIP3    H274576   2.982   2.629   5.083
17721TIP3   OH274577   2.728   2.308   4.535
17721TIP3    H174578   2.640   2.298   4.570
17721TIP3    H274579   2.780   2.243   4.581
17722TIP3   OH274580   2.185   2.460   4.407
17722TIP3    H174581   2.111   2.487   4.353
17722TIP3    H274582   2.203   2.370   4.379
17723TIP3   OH274583   2.507   2.468   4.181
17723TIP3    H174584   2.601   2.465   4.197
17723TIP3    H274585   2.498   2.511   4.096
17724TIP3   OH274586   3.130   2.231   4.825
17724TIP3    H174587   3.094   2.222   4.913
17724TIP3    H274588   3.072   2.179   4.770
17725TIP3   OH274589   2.465   2.570   3.928
17725TIP3    H174590   2.410   2.544   3.854
17725TIP3    H274591   2.540   2.614   3.889
17726TIP3   OH274592   3.450   3.773   5.510
17726TIP3    H174593   3.410   3.847   5.466
17726TIP3    H274594   3.538   3.803   5.533
17727TIP3   OH274595   2.217   3.067   5.466
17727TIP3    H174596   2.311   3.071   5.481
17727TIP3    H274597   2.183   3.148   5.503
17728TIP3   OH274598   2.815   2.589   4.725
17728TIP3    H174599   2.876   2.531   4.679
17728TIP3    H274600   2.783   2.536   4.798
17729TIP3   OH274601   2.287   2.194   4.375
17729TIP3    H174602   2.236   2.117   4.400
17729TIP3    H274603   2.343   2.163   4.304
17730TIP3   OH274604   2.707   2.453   4.946
17730TIP3    H174605   2.623   2.498   4.956
17730TIP3    H274606   2.757   2.479   5.024
17731TIP3   OH274607   2.756   3.024   4.119
17731TIP3    H174608   2.683   2.986   4.070
17731TIP3    H274609   2.718   3.052   4.202
17732TIP3   OH274610   3.470   2.969   4.970
17732TIP3    H174611   3.530   3.027   4.923
17732TIP3    H274612   3.396   2.957   4.910
17733TIP3   OH274613   3.113   2.346   3.911
17733TIP3    H174614   3.025   2.310   3.921
17733TIP3    H274615   3.130   2.392   3.994
17734TIP3   OH274616   2.889   3.046   5.276
17734TIP3    H174617   2.931   3.010   5.354
17734TIP3    H274618   2.821   3.104   5.311
17735TIP3   OH274619   3.190   2.499   4.131
17735TIP3    H174620   3.275   2.481   4.171
17735TIP3    H274621   3.195   2.589   4.101
17736TIP3   OH274622   2.269   2.950   4.664
17736TIP3    H174623   2.331   2.950   4.592
17736TIP3    H274624   2.312   2.899   4.733
17737TIP3   OH274625   2.964   3.182   4.031
17737TIP3    H174626   2.927   3.270   4.043
17737TIP3    H274627   2.895   3.123   4.059
17738TIP3   OH274628   1.979   2.801   5.250
17738TIP3    H174629   1.946   2.747   5.322
17738TIP3    H274630   1.924   2.777   5.176
17739TIP3   OH274631   2.695   2.765   5.476
17739TIP3    H174632   2.634   2.731   5.411
17739TIP3    H274633   2.778   2.721   5.457
17740TIP3   OH274634   3.107   3.335   5.279
17740TIP3    H174635   3.013   3.337   5.260
17740TIP3    H274636   3.111   3.341   5.375
17741TIP3   OH274637   3.649   2.547   4.077
17741TIP3    H174638   3.606   2.528   3.993
17741TIP3    H274639   3.676   2.639   4.069
17742TIP3   OH274640   3.694   3.110   5.374
17742TIP3    H174641   3.611   3.127   5.330
17742TIP3    H274642   3.757   3.102   5.302
17743TIP3   OH274643   3.485   3.397   4.132
17743TIP3    H174644   3.436   3.350   4.200
17743TIP3    H274645   3.543   3.331   4.094
17744TIP3   OH274646   3.262   2.913   4.781
17744TIP3    H174647   3.168   2.905   4.799
17744TIP3    H274648   3.287   2.829   4.743
17745TIP3   OH274649   2.522   3.333   4.450
17745TIP3    H174650   2.536   3.421   4.415
17745TIP3    H274651   2.444   3.342   4.504
17746TIP3   OH274652   2.084   2.789   3.917
17746TIP3    H174653   2.132   2.852   3.970
17746TIP3    H274654   1.994   2.792   3.950
17747TIP3   OH274655   2.613   3.102   4.335
17747TIP3    H174656   2.590   3.186   4.374
17747TIP3    H274657   2.563   3.037   4.385
17748TIP3   OH274658   2.712   3.503   5.035
17748TIP3    H174659   2.770   3.578   5.022
17748TIP3    H274660   2.757   3.449   5.100
17749TIP3   OH274661   2.517   3.598   4.346
17749TIP3    H174662   2.425   3.608   4.370
17749TIP3    H274663   2.561   3.674   4.384
17750TIP3   OH274664   3.017   3.106   5.038
17750TIP3    H174665   2.963   3.093   5.116
17750TIP3    H274666   3.104   3.072   5.063
17751TIP3   OH274667   3.238   3.147   3.936
17751TIP3    H174668   3.297   3.113   4.003
17751TIP3    H274669   3.160   3.174   3.984
17752TIP3   OH274670   3.310   3.511   5.221
17752TIP3    H174671   3.232   3.456   5.230
17752TIP3    H274672   3.282   3.583   5.164
17753TIP3   OH274673   3.717   3.637   3.930
17753TIP3    H174674   3.782   3.705   3.915
17753TIP3    H274675   3.639   3.685   3.959
17754TIP3   OH274676   2.114   2.287   5.161
17754TIP3    H174677   2.024   2.315   5.149
17754TIP3    H274678   2.113   2.237   5.243
17755TIP3   OH274679   3.415   3.042   4.114
17755TIP3    H174680   3.373   2.985   4.179
17755TIP3    H274681   3.508   3.039   4.136
17756TIP3   OH274682   2.147   3.498   5.021
17756TIP3    H174683   2.237   3.468   5.038
17756TIP3    H274684   2.138   3.576   5.075
17757TIP3   OH274685   2.691   3.299   3.776
17757TIP3    H174686   2.686   3.214   3.732
17757TIP3    H274687   2.643   3.286   3.858
17758TIP3   OH274688   2.549   3.279   4.016
17758TIP3    H174689   2.573   3.226   4.092
17758TIP3    H274690   2.559   3.369   4.045
17759TIP3   OH274691   2.191   2.992   4.077
17759TIP3    H174692   2.123   3.038   4.126
17759TIP3    H274693   2.236   3.060   4.028
17760TIP3   OH274694   3.023   2.216   5.070
17760TIP3    H174695   3.079   2.263   5.133
17760TIP3    H274696   2.993   2.139   5.118
17761TIP3   OH274697   3.101   2.186   4.242
17761TIP3    H174698   3.089   2.253   4.175
17761TIP3    H274699   3.144   2.232   4.314
17762TIP3   OH274700   2.853   3.426   4.062
17762TIP3    H174701   2.762   3.454   4.073
17762TIP3    H274702   2.904   3.493   4.107
17763TIP3   OH274703   2.762   2.423   4.289
17763TIP3    H174704   2.838   2.480   4.299
17763TIP3    H274705   2.748   2.386   4.377
17764TIP3   OH274706   2.878   2.501   5.162
17764TIP3    H174707   2.880   2.532   5.253
17764TIP3    H274708   2.931   2.421   5.163
17765TIP3   OH274709   2.869   2.068   4.345
17765TIP3    H174710   2.874   2.092   4.438
17765TIP3    H274711   2.950   2.102   4.307
17766TIP3   OH274712   2.600   3.536   4.092
17766TIP3    H174713   2.603   3.620   4.047
17766TIP3    H274714   2.570   3.557   4.180
17767TIP3   OH274715   2.455   2.226   4.045
17767TIP3    H174716   2.446   2.307   4.096
17767TIP3    H274717   2.538   2.189   4.074
17768TIP3   OH274718   3.451   2.282   5.309
17768TIP3    H174719   3.383   2.226   5.346
17768TIP3    H274720   3.451   2.261   5.216
17769TIP3   OH274721   3.326   2.657   4.669
17769TIP3    H174722   3.238   2.619   4.668
17769TIP3    H274723   3.376   2.600   4.727
17770TIP3   OH274724   2.297   3.201   3.921
17770TIP3    H174725   2.368   3.248   3.964
17770TIP3    H274726   2.340   3.147   3.855
17771TIP3   OH274727   2.079   2.514   3.863
17771TIP3    H174728   2.102   2.602   3.895
17771TIP3    H274729   2.019   2.530   3.790
17772TIP3   OH274730   3.456   3.613   4.826
17772TIP3    H174731   3.445   3.683   4.763
17772TIP3    H274732   3.550   3.612   4.845
17773TIP3   OH274733   2.180   2.001   4.710
17773TIP3    H174734   2.171   1.989   4.615
17773TIP3    H274735   2.151   1.918   4.747
17774TIP3   OH274736   2.063   3.405   4.328
17774TIP3    H174737   2.014   3.437   4.403
17774TIP3    H274738   2.050   3.472   4.261
17775TIP3   OH274739   2.011   3.663   5.506
17775TIP3    H174740   2.028   3.631   5.595
17775TIP3    H274741   1.980   3.585   5.459
17776TIP3   OH274742   2.882   3.497   3.751
17776TIP3    H174743   2.819   3.429   3.773
17776TIP3    H274744   2.964   3.450   3.735
17777TIP3   OH274745   3.121   3.354   5.551
17777TIP3    H174746   3.059   3.309   5.608
17777TIP3    H274747   3.155   3.426   5.604
17778TIP3   OH274748   3.359   3.455   3.814
17778TIP3    H174749   3.420   3.440   3.886
17778TIP3    H274750   3.416   3.464   3.737
17779TIP3   OH274751   2.446   3.028   3.767
17779TIP3    H174752   2.463   2.981   3.848
17779TIP3    H274753   2.531   3.037   3.725
17780TIP3   OH274754   2.604   3.012   5.585
17780TIP3    H174755   2.623   3.080   5.521
17780TIP3    H274756   2.641   2.932   5.547
17781TIP3   OH274757   3.001   3.165   3.757
17781TIP3    H174758   2.982   3.176   3.850
17781TIP3    H274759   2.928   3.113   3.724
17782TIP3   OH274760   3.227   3.081   5.248
17782TIP3    H174761   3.319   3.108   5.240
17782TIP3    H274762   3.179   3.162   5.264
17783TIP3   OH274763   2.115   2.743   5.530
17783TIP3    H174764   2.164   2.668   5.562
17783TIP3    H274765   2.036   2.745   5.584
17784TIP3   OH274766   2.539   2.898   3.996
17784TIP3    H174767   2.488   2.862   4.069
17784TIP3    H274768   2.578   2.821   3.955
17785TIP3   OH274769   2.471   2.647   5.231
17785TIP3    H174770   2.410   2.718   5.252
17785TIP3    H274771   2.545   2.691   5.188
17786TIP3   OH274772   2.676   2.716   3.832
17786TIP3    H174773   2.678   2.740   3.740
17786TIP3    H274774   2.768   2.704   3.856
17787TIP3   OH274775   3.016   2.930   5.525
17787TIP3    H174776   3.101   2.900   5.492
17787TIP3    H274777   3.000   2.878   5.603
17788TIP3   OH274778   3.582   2.920   3.796
17788TIP3    H174779   3.589   2.902   3.703
17788TIP3    H274780   3.557   3.013   3.800
17789TIP3   OH274781   2.549   2.404   5.337
17789TIP3    H174782   2.559   2.341   5.266
17789TIP3    H274783   2.528   2.487   5.293
17790TIP3   OH274784   2.576   2.243   5.106
17790TIP3    H174785   2.630   2.290   5.043
17790TIP3    H274786   2.489   2.239   5.065
17791TIP3   OH274787   2.683   2.776   5.120
17791TIP3    H174788   2.773   2.795   5.147
17791TIP3    H274789   2.654   2.857   5.077
17792TIP3   OH274790   3.153   2.567   5.547
17792TIP3    H174791   3.140   2.474   5.532
17792TIP3    H274792   3.248   2.576   5.559
17793TIP3   OH274793   3.272   2.859   5.406
17793TIP3    H174794   3.255   2.938   5.355
17793TIP3    H274795   3.361   2.869   5.438
17794TIP3   OH274796   2.350   2.485   5.523
17794TIP3    H174797   2.286   2.414   5.521
17794TIP3    H274798   2.420   2.456   5.465
17795TIP3   OH274799   2.635   1.973   5.172
17795TIP3    H174800   2.616   2.066   5.156
17795TIP3    H274801   2.561   1.926   5.132
17796TIP3   OH274802   2.774   2.356   5.499
17796TIP3    H174803   2.733   2.316   5.576
17796TIP3    H274804   2.702   2.369   5.438
17797TIP3   OH274805   3.072   2.319   5.463
17797TIP3    H174806   2.983   2.297   5.491
17797TIP3    H274807   3.115   2.234   5.455
17798TIP3   OH274808   2.180   2.261   5.517
17798TIP3    H174809   2.172   2.176   5.473
17798TIP3    H274810   2.199   2.239   5.608
17799TIP3   OH274811   2.630   1.860   5.425
17799TIP3    H174812   2.699   1.794   5.424
17799TIP3    H274813   2.634   1.900   5.338
17800TIP3   OH274814   2.661   3.770   3.957
17800TIP3    H174815   2.754   3.747   3.958
17800TIP3    H274816   2.654   3.842   3.895
17801TIP3   OH274817   2.034   3.254   3.859
17801TIP3    H174818   2.123   3.243   3.891
17801TIP3    H274819   2.017   3.175   3.807
17802TIP3   OH274820   1.902   3.731   4.415
17802TIP3    H174821   1.840   3.702   4.348
17802TIP3    H274822   1.917   3.654   4.470
17803TIP3   OH274823   1.968   3.515   4.572
17803TIP3    H174824   1.932   3.443   4.625
17803TIP3    H274825   2.018   3.567   4.634
17804TIP3   OH274826   3.722   3.622   4.906
17804TIP3    H174827   3.712   3.603   5.000
17804TIP3    H274828   3.770   3.705   4.904
17805TIP3   OH274829   3.682   3.568   5.173
17805TIP3    H174830   3.618   3.504   5.142
17805TIP3    H274831   3.720   3.528   5.252
17806TIP3   OH274832   3.476   3.235   5.674
17806TIP3    H174833   3.421   3.172   5.722
17806TIP3    H274834   3.415   3.279   5.615
17807TIP3   OH274835   3.679   3.006   4.192
17807TIP3    H174836   3.752   3.067   4.198
17807TIP3    H274837   3.690   2.948   4.267
17808TIP3   OH274838   3.717   2.808   4.381
17808TIP3    H174839   3.635   2.772   4.415
17808TIP3    H274840   3.771   2.821   4.459
17809TIP3   OH274841   3.697   3.109   4.893
17809TIP3    H174842   3.754   3.042   4.854
17809TIP3    H274843   3.725   3.191   4.853
17810TIP3   OH274844   3.502   3.383   5.074
17810TIP3    H174845   3.430   3.423   5.123
17810TIP3    H274846   3.465   3.364   4.988
17811TIP3   OH274847   3.715   2.806   4.007
17811TIP3    H174848   3.668   2.840   3.931
17811TIP3    H274849   3.701   2.872   4.075
17812TIP3   OH274850   3.547   2.515   3.821
17812TIP3    H174851   3.541   2.566   3.741
17812TIP3    H274852   3.529   2.425   3.794
17813TIP3   OH274853   3.469   2.682   4.435
17813TIP3    H174854   3.465   2.591   4.403
17813TIP3    H274855   3.426   2.680   4.520
17814TIP3   OH274856   1.948   2.878   4.831
17814TIP3    H174857   1.964   2.860   4.738
17814TIP3    H274858   2.027   2.848   4.875
17815TIP3   OH274859   3.548   2.880   5.465
17815TIP3    H174860   3.608   2.807   5.449
17815TIP3    H274861   3.598   2.958   5.443
17816TIP3   OH274862   3.701   2.646   5.398
17816TIP3    H174863   3.613   2.609   5.408
17816TIP3    H274864   3.759   2.578   5.432
17817TIP3   OH274865   3.487   2.265   3.711
17817TIP3    H174866   3.523   2.220   3.788
17817TIP3    H274867   3.396   2.237   3.707
17818TIP3   OH274868   3.447   2.436   4.249
17818TIP3    H174869   3.476   2.345   4.253
17818TIP3    H274870   3.516   2.481   4.199
17819TIP3   OH274871   3.479   2.476   4.817
17819TIP3    H174872   3.572   2.482   4.799
17819TIP3    H274873   3.470   2.493   4.910
17820TIP3   OH274874   3.505   2.560   5.083
17820TIP3    H174875   3.427   2.592   5.127
17820TIP3    H274876   3.560   2.638   5.072
17821TIP3   OH274877   1.951   2.380   5.406
17821TIP3    H174878   2.032   2.364   5.454
17821TIP3    H274879   1.892   2.310   5.435
17822TIP3   OH274880   3.513   2.166   4.262
17822TIP3    H174881   3.534   2.132   4.349
17822TIP3    H274882   3.443   2.109   4.230
17823TIP3   OH274883   2.049   2.245   4.742
17823TIP3    H174884   2.088   2.158   4.744
17823TIP3    H274885   2.121   2.304   4.763
17824TIP3   OH274886   1.867   2.529   4.804
17824TIP3    H174887   1.937   2.536   4.739
17824TIP3    H274888   1.905   2.564   4.884
17825TIP3   OH274889   3.675   2.148   5.407
17825TIP3    H174890   3.593   2.196   5.397
17825TIP3    H274891   3.661   2.067   5.357
17826TIP3   OH274892   3.643   2.154   3.913
17826TIP3    H174893   3.694   2.095   3.858
17826TIP3    H274894   3.708   2.212   3.953
17827TIP3   OH274895   1.918   2.140   4.209
17827TIP3    H174896   1.826   2.146   4.233
17827TIP3    H274897   1.933   2.216   4.153
17828TIP3   OH274898   3.383   3.677   4.429
17828TIP3    H174899   3.462   3.670   4.376
17828TIP3    H274900   3.410   3.724   4.508
17829TIP3   OH274901   1.906   2.000   5.051
17829TIP3    H174902   1.845   1.995   5.125
17829TIP3    H274903   1.876   2.075   5.000
17830TIP3   OH274904   2.094   3.295   5.553
17830TIP3    H174905   2.029   3.336   5.496
17830TIP3    H274906   2.073   3.328   5.640
17831TIP3   OH274907   2.439   3.472   5.081
17831TIP3    H174908   2.423   3.566   5.073
17831TIP3    H274909   2.534   3.463   5.073
17832TIP3   OH274910   2.835   3.596   5.383
17832TIP3    H174911   2.841   3.579   5.477
17832TIP3    H274912   2.912   3.650   5.363
17833TIP3   OH274913   3.069   3.730   5.327
17833TIP3    H174914   3.127   3.654   5.326
17833TIP3    H274915   3.085   3.771   5.412
17834TIP3   OH274916   3.592   1.950   5.212
17834TIP3    H174917   3.498   1.970   5.221
17834TIP3    H274918   3.602   1.863   5.250
17835TIP3   OH274919   2.147   3.761   5.134
17835TIP3    H174920   2.070   3.804   5.097
17835TIP3    H274921   2.157   3.801   5.221
17836TIP3   OH274922   2.407   3.740   5.040
17836TIP3    H174923   2.318   3.757   5.073
17836TIP3    H274924   2.414   3.795   4.962
17837TIP3   OH274925   2.865   3.723   4.943
17837TIP3    H174926   2.805   3.760   4.878
17837TIP3    H274927   2.875   3.792   5.008
17838TIP3   OH274928   3.098   3.593   5.012
17838TIP3    H174929   3.015   3.639   4.998
17838TIP3    H274930   3.163   3.663   5.022
17839TIP3   OH274931   3.332   3.742   5.040
17839TIP3    H174932   3.359   3.833   5.026
17839TIP3    H274933   3.375   3.693   4.969
17840TIP3   OH274934   2.127   3.631   4.773
17840TIP3    H174935   2.111   3.596   4.861
17840TIP3    H274936   2.206   3.587   4.744
17841TIP3   OH274937   2.343   3.491   4.679
17841TIP3    H174938   2.326   3.401   4.708
17841TIP3    H274939   2.427   3.514   4.719
17842TIP3   OH274940   2.598   3.528   4.786
17842TIP3    H174941   2.611   3.437   4.759
17842TIP3    H274942   2.629   3.531   4.876
17843TIP3   OH274943   2.876   2.091   4.626
17843TIP3    H174944   2.826   2.029   4.678
17843TIP3    H274945   2.962   2.051   4.617
17844TIP3   OH274946   3.421   1.944   4.657
17844TIP3    H174947   3.487   1.998   4.614
17844TIP3    H274948   3.371   2.006   4.710
17845TIP3   OH274949   3.609   2.057   4.495
17845TIP3    H174950   3.674   1.989   4.478
17845TIP3    H274951   3.661   2.136   4.510
17846TIP3   OH274952   2.150   1.961   4.436
17846TIP3    H174953   2.058   1.942   4.418
17846TIP3    H274954   2.194   1.877   4.427
17847TIP3   OH274955   2.039   1.967   4.023
17847TIP3    H174956   2.101   2.024   3.978
17847TIP3    H274957   2.002   2.022   4.093
17848TIP3   OH274958   2.633   1.940   4.454
17848TIP3    H174959   2.706   1.989   4.417
17848TIP3    H274960   2.649   1.938   4.548
17849TIP3   OH274961   3.121   1.982   4.580
17849TIP3    H174962   3.201   1.968   4.531
17849TIP3    H274963   3.103   1.898   4.622
17850TIP3   OH274964   3.303   2.002   4.176
17850TIP3    H174965   3.228   2.059   4.193
17850TIP3    H274966   3.270   1.914   4.195
17851TIP3   OH274967   2.035   3.587   4.124
17851TIP3    H174968   1.956   3.578   4.071
17851TIP3    H274969   2.057   3.680   4.119
17852TIP3   OH274970   2.246   2.127   3.878
17852TIP3    H174971   2.296   2.069   3.821
17852TIP3    H274972   2.309   2.159   3.942
17853TIP3   OH274973   2.717   2.197   4.142
17853TIP3    H174974   2.750   2.129   4.200
17853TIP3    H274975   2.730   2.279   4.191
17854TIP3   OH274976   2.923   3.692   3.948
17854TIP3    H174977   3.018   3.697   3.942
17854TIP3    H274978   2.898   3.624   3.885
17855TIP3   OH274979   3.587   3.637   4.238
17855TIP3    H174980   3.555   3.554   4.205
17855TIP3    H274981   3.571   3.700   4.168
17856TIP3   OH274982   2.168   2.007   5.385
17856TIP3    H174983   2.114   1.934   5.416
17856TIP3    H274984   2.258   1.978   5.401
17857TIP3   OH274985   2.213   3.646   3.809
17857TIP3    H174986   2.187   3.640   3.901
17857TIP3    H274987   2.290   3.591   3.802
17858TIP3   OH274988   3.495   3.511   5.430
17858TIP3    H174989   3.427   3.492   5.365
17858TIP3    H274990   3.474   3.598   5.462
17859TIP3   OH274991   4.971   2.918   4.413
17859TIP3    H174992   4.960   3.012   4.408
17859TIP3    H274993   4.892   2.881   4.374
17860TIP3   OH274994   4.842   2.832   4.810
17860TIP3    H174995   4.861   2.801   4.898
17860TIP3    H274996   4.786   2.764   4.772
17861TIP3   OH274997   4.063   2.786   4.972
17861TIP3    H174998   4.065   2.696   5.005
17861TIP3    H274999   4.104   2.838   5.041
17862TIP3   OH275000   5.230   3.143   4.641
17862TIP3    H175001   5.194   3.069   4.688
17862TIP3    H275002   5.251   3.207   4.710
17863TIP3   OH275003   4.205   3.226   4.741
17863TIP3    H175004   4.165   3.140   4.727
17863TIP3    H275005   4.287   3.208   4.786
17864TIP3   OH275006   3.855   2.581   4.283
17864TIP3    H175007   3.822   2.662   4.321
17864TIP3    H275008   3.782   2.548   4.230
17865TIP3   OH275009   3.916   2.821   4.579
17865TIP3    H175010   3.941   2.731   4.603
17865TIP3    H275011   3.994   2.873   4.598
17866TIP3   OH275012   4.955   3.622   4.681
17866TIP3    H175013   4.991   3.554   4.623
17866TIP3    H275014   4.929   3.574   4.759
17867TIP3   OH275015   4.699   3.081   4.842
17867TIP3    H175016   4.736   3.000   4.807
17867TIP3    H275017   4.765   3.112   4.904
17868TIP3   OH275018   5.570   2.232   4.925
17868TIP3    H175019   5.570   2.280   5.008
17868TIP3    H275020   5.607   2.293   4.862
17869TIP3   OH275021   4.976   2.486   4.824
17869TIP3    H175022   5.062   2.473   4.866
17869TIP3    H275023   4.997   2.506   4.733
17870TIP3   OH275024   4.340   2.308   4.564
17870TIP3    H175025   4.340   2.395   4.525
17870TIP3    H275026   4.279   2.257   4.511
17871TIP3   OH275027   5.135   2.323   4.418
17871TIP3    H175028   5.172   2.296   4.502
17871TIP3    H275029   5.208   2.366   4.372
17872TIP3   OH275030   3.986   2.565   4.656
17872TIP3    H175031   4.050   2.525   4.715
17872TIP3    H275032   4.005   2.526   4.571
17873TIP3   OH275033   4.499   2.702   4.601
17873TIP3    H175034   4.573   2.653   4.638
17873TIP3    H275035   4.450   2.637   4.551
17874TIP3   OH275036   5.581   2.389   5.147
17874TIP3    H175037   5.506   2.447   5.138
17874TIP3    H275038   5.614   2.405   5.235
17875TIP3   OH275039   4.204   2.228   5.000
17875TIP3    H175040   4.176   2.291   4.934
17875TIP3    H275041   4.137   2.233   5.068
17876TIP3   OH275042   4.940   3.176   4.311
17876TIP3    H175043   4.916   3.171   4.218
17876TIP3    H275044   4.893   3.253   4.344
17877TIP3   OH275045   4.469   2.994   4.975
17877TIP3    H175046   4.417   3.063   5.016
17877TIP3    H275047   4.544   3.040   4.938
17878TIP3   OH275048   5.238   2.278   4.668
17878TIP3    H175049   5.204   2.221   4.737
17878TIP3    H275050   5.290   2.343   4.715
17879TIP3   OH275051   4.180   2.398   4.778
17879TIP3    H175052   4.234   2.456   4.831
17879TIP3    H275053   4.241   2.360   4.715
17880TIP3   OH275054   4.316   3.199   5.086
17880TIP3    H175055   4.324   3.294   5.078
17880TIP3    H275056   4.227   3.185   5.118
17881TIP3   OH275057   3.895   3.183   4.168
17881TIP3    H175058   3.889   3.234   4.087
17881TIP3    H275059   3.918   3.247   4.235
17882TIP3   OH275060   5.263   3.345   4.841
17882TIP3    H175061   5.169   3.342   4.857
17882TIP3    H275062   5.281   3.437   4.821
17883TIP3   OH275063   5.312   2.111   4.953
17883TIP3    H175064   5.299   2.151   5.039
17883TIP3    H275065   5.398   2.143   4.925
17884TIP3   OH275066   4.536   1.913   4.730
17884TIP3    H175067   4.519   1.820   4.748
17884TIP3    H275068   4.463   1.959   4.770
17885TIP3   OH275069   5.084   3.488   4.466
17885TIP3    H175070   5.128   3.405   4.448
17885TIP3    H275071   5.155   3.552   4.468
17886TIP3   OH275072   5.200   3.249   4.388
17886TIP3    H175073   5.117   3.209   4.361
17886TIP3    H275074   5.221   3.207   4.471
17887TIP3   OH275075   5.379   3.133   5.202
17887TIP3    H175076   5.370   3.075   5.126
17887TIP3    H275077   5.389   3.220   5.164
17888TIP3   OH275078   4.813   2.817   4.200
17888TIP3    H175079   4.747   2.881   4.176
17888TIP3    H275080   4.885   2.833   4.138
17889TIP3   OH275081   4.839   2.714   3.859
17889TIP3    H175082   4.891   2.735   3.937
17889TIP3    H275083   4.890   2.647   3.814
17890TIP3   OH275084   5.534   2.772   5.005
17890TIP3    H175085   5.466   2.839   5.006
17890TIP3    H275086   5.604   2.809   4.950
17891TIP3   OH275087   5.188   2.847   4.266
17891TIP3    H175088   5.119   2.873   4.327
17891TIP3    H275089   5.253   2.804   4.321
17892TIP3   OH275090   5.131   2.651   5.210
17892TIP3    H175091   5.131   2.721   5.275
17892TIP3    H275092   5.062   2.675   5.148
17893TIP3   OH275093   4.345   2.900   4.472
17893TIP3    H175094   4.317   2.860   4.391
17893TIP3    H275095   4.402   2.834   4.513
17894TIP3   OH275096   4.504   3.259   4.736
17894TIP3    H175097   4.506   3.247   4.641
17894TIP3    H275098   4.573   3.202   4.769
17895TIP3   OH275099   4.350   2.802   4.818
17895TIP3    H175100   4.415   2.782   4.750
17895TIP3    H275101   4.393   2.867   4.873
17896TIP3   OH275102   5.000   3.342   4.905
17896TIP3    H175103   4.983   3.417   4.962
17896TIP3    H275104   4.961   3.267   4.951
17897TIP3   OH275105   4.475   3.228   5.318
17897TIP3    H175106   4.410   3.279   5.367
17897TIP3    H275107   4.427   3.194   5.243
17898TIP3   OH275108   5.049   2.780   4.039
17898TIP3    H175109   5.101   2.814   4.112
17898TIP3    H275110   5.102   2.798   3.961
17899TIP3   OH275111   4.144   2.844   5.245
17899TIP3    H175112   4.162   2.914   5.307
17899TIP3    H275113   4.049   2.829   5.252
17900TIP3   OH275114   4.834   3.424   4.372
17900TIP3    H175115   4.913   3.452   4.417
17900TIP3    H275116   4.787   3.505   4.353
17901TIP3   OH275117   4.261   3.399   5.368
17901TIP3    H175118   4.282   3.436   5.283
17901TIP3    H275119   4.182   3.346   5.352
17902TIP3   OH275120   5.419   1.936   4.038
17902TIP3    H175121   5.333   1.955   4.074
17902TIP3    H275122   5.454   2.022   4.014
17903TIP3   OH275123   4.247   2.814   4.212
17903TIP3    H175124   4.187   2.880   4.177
17903TIP3    H275125   4.193   2.736   4.223
17904TIP3   OH275126   5.552   3.376   3.886
17904TIP3    H175127   5.567   3.469   3.900
17904TIP3    H275128   5.640   3.338   3.882
17905TIP3   OH275129   3.844   3.069   5.141
17905TIP3    H175130   3.787   3.074   5.064
17905TIP3    H275131   3.851   2.976   5.160
17906TIP3   OH275132   3.806   3.364   4.814
17906TIP3    H175133   3.883   3.364   4.871
17906TIP3    H275134   3.755   3.440   4.842
17907TIP3   OH275135   5.653   3.379   5.394
17907TIP3    H175136   5.632   3.286   5.398
17907TIP3    H275137   5.569   3.423   5.404
17908TIP3   OH275138   4.707   3.366   5.264
17908TIP3    H175139   4.707   3.444   5.320
17908TIP3    H275140   4.625   3.321   5.287
17909TIP3   OH275141   4.796   3.701   4.244
17909TIP3    H175142   4.766   3.716   4.154
17909TIP3    H275143   4.767   3.779   4.292
17910TIP3   OH275144   4.141   3.590   4.438
17910TIP3    H175145   4.164   3.560   4.525
17910TIP3    H275146   4.087   3.520   4.401
17911TIP3   OH275147   5.081   3.654   3.929
17911TIP3    H175148   5.133   3.580   3.897
17911TIP3    H275149   5.088   3.649   4.024
17912TIP3   OH275150   5.063   3.647   4.204
17912TIP3    H175151   4.970   3.657   4.226
17912TIP3    H275152   5.099   3.597   4.277
17913TIP3   OH275153   5.324   2.534   5.409
17913TIP3    H175154   5.245   2.578   5.378
17913TIP3    H275155   5.313   2.529   5.504
17914TIP3   OH275156   4.068   3.213   5.211
17914TIP3    H175157   4.098   3.163   5.287
17914TIP3    H275158   3.986   3.173   5.185
17915TIP3   OH275159   4.309   2.032   4.833
17915TIP3    H175160   4.232   2.025   4.777
17915TIP3    H275161   4.287   2.101   4.895
17916TIP3   OH275162   4.796   1.978   5.204
17916TIP3    H175163   4.855   1.934   5.265
17916TIP3    H275164   4.712   1.980   5.249
17917TIP3   OH275165   5.096   2.374   5.236
17917TIP3    H175166   5.036   2.362   5.310
17917TIP3    H275167   5.109   2.469   5.233
17918TIP3   OH275168   5.194   2.794   3.801
17918TIP3    H175169   5.179   2.823   3.711
17918TIP3    H275170   5.279   2.831   3.824
17919TIP3   OH275171   4.751   2.235   3.901
17919TIP3    H175172   4.695   2.231   3.978
17919TIP3    H275173   4.713   2.173   3.839
17920TIP3   OH275174   4.328   2.557   4.943
17920TIP3    H175175   4.264   2.560   5.014
17920TIP3    H275176   4.330   2.647   4.909
17921TIP3   OH275177   4.334   2.549   4.434
17921TIP3    H175178   4.239   2.542   4.435
17921TIP3    H275179   4.359   2.528   4.344
17922TIP3   OH275180   4.877   2.574   4.312
17922TIP3    H175181   4.848   2.661   4.283
17922TIP3    H275182   4.946   2.550   4.252
17923TIP3   OH275183   4.778   2.612   5.435
17923TIP3    H175184   4.738   2.531   5.466
17923TIP3    H275185   4.825   2.648   5.511
17924TIP3   OH275186   5.012   2.530   4.558
17924TIP3    H175187   4.950   2.572   4.499
17924TIP3    H275188   5.042   2.453   4.510
17925TIP3   OH275189   4.108   2.548   5.110
17925TIP3    H175190   4.133   2.586   5.194
17925TIP3    H275191   4.067   2.465   5.132
17926TIP3   OH275192   4.434   2.289   3.791
17926TIP3    H175193   4.400   2.274   3.880
17926TIP3    H275194   4.375   2.356   3.755
17927TIP3   OH275195   3.790   2.259   4.488
17927TIP3    H175196   3.840   2.268   4.569
17927TIP3    H275197   3.853   2.227   4.424
17928TIP3   OH275198   3.825   2.338   4.022
17928TIP3    H175199   3.894   2.380   3.971
17928TIP3    H275200   3.769   2.411   4.049
17929TIP3   OH275201   4.913   2.669   5.027
17929TIP3    H175202   4.929   2.601   4.961
17929TIP3    H275203   4.850   2.629   5.087
17930TIP3   OH275204   4.615   2.289   4.533
17930TIP3    H175205   4.521   2.282   4.549
17930TIP3    H275206   4.652   2.320   4.615
17931TIP3   OH275207   4.073   2.468   4.410
17931TIP3    H175208   3.997   2.496   4.360
17931TIP3    H275209   4.084   2.375   4.387
17932TIP3   OH275210   4.399   2.467   4.179
17932TIP3    H175211   4.494   2.466   4.191
17932TIP3    H275212   4.386   2.511   4.095
17933TIP3   OH275213   4.989   2.199   4.833
17933TIP3    H175214   4.975   2.197   4.928
17933TIP3    H275215   4.965   2.288   4.807
17934TIP3   OH275216   4.353   2.562   3.927
17934TIP3    H175217   4.295   2.543   3.853
17934TIP3    H275218   4.426   2.610   3.888
17935TIP3   OH275219   5.341   3.810   5.493
17935TIP3    H175220   5.395   3.818   5.414
17935TIP3    H275221   5.397   3.767   5.557
17936TIP3   OH275222   4.169   3.065   5.423
17936TIP3    H175223   4.232   3.065   5.495
17936TIP3    H275224   4.084   3.054   5.465
17937TIP3   OH275225   4.707   2.559   4.743
17937TIP3    H175226   4.797   2.534   4.764
17937TIP3    H275227   4.655   2.526   4.817
17938TIP3   OH275228   4.167   2.198   4.371
17938TIP3    H175229   4.119   2.120   4.398
17938TIP3    H275230   4.208   2.173   4.288
17939TIP3   OH275231   4.584   2.454   4.968
17939TIP3    H175232   4.501   2.501   4.973
17939TIP3    H275233   4.634   2.484   5.044
17940TIP3   OH275234   4.629   3.012   4.126
17940TIP3    H175235   4.555   2.978   4.075
17940TIP3    H275236   4.589   3.043   4.207
17941TIP3   OH275237   5.351   2.977   4.972
17941TIP3    H175238   5.411   3.033   4.924
17941TIP3    H275239   5.276   2.965   4.914
17942TIP3   OH275240   5.007   2.288   3.982
17942TIP3    H175241   4.914   2.286   3.957
17942TIP3    H275242   5.018   2.374   4.022
17943TIP3   OH275243   4.770   3.082   5.259
17943TIP3    H175244   4.747   3.037   5.341
17943TIP3    H275245   4.743   3.172   5.274
17944TIP3   OH275246   5.081   2.514   4.128
17944TIP3    H175247   5.167   2.500   4.167
17944TIP3    H275248   5.083   2.604   4.097
17945TIP3   OH275249   4.152   2.944   4.674
17945TIP3    H175250   4.218   2.940   4.605
17945TIP3    H275251   4.188   2.891   4.745
17946TIP3   OH275252   4.837   3.171   4.045
17946TIP3    H175253   4.802   3.259   4.054
17946TIP3    H275254   4.765   3.114   4.072
17947TIP3   OH275255   3.861   2.802   5.229
17947TIP3    H175256   3.830   2.761   5.309
17947TIP3    H275257   3.798   2.774   5.162
17948TIP3   OH275258   4.579   2.802   5.392
17948TIP3    H175259   4.499   2.751   5.406
17948TIP3    H275260   4.650   2.741   5.413
17949TIP3   OH275261   4.993   3.339   5.249
17949TIP3    H175262   4.897   3.341   5.240
17949TIP3    H275263   5.008   3.350   5.342
17950TIP3   OH275264   5.559   2.538   4.078
17950TIP3    H175265   5.517   2.511   3.996
17950TIP3    H275266   5.575   2.632   4.067
17951TIP3   OH275267   5.588   3.100   5.373
17951TIP3    H175268   5.504   3.120   5.333
17951TIP3    H275269   5.647   3.084   5.299
17952TIP3   OH275270   5.404   3.406   4.149
17952TIP3    H175271   5.354   3.341   4.198
17952TIP3    H275272   5.432   3.360   4.070
17953TIP3   OH275273   5.139   2.919   4.788
17953TIP3    H175274   5.044   2.910   4.794
17953TIP3    H275275   5.168   2.839   4.744
17954TIP3   OH275276   4.407   3.334   4.456
17954TIP3    H175277   4.421   3.421   4.419
17954TIP3    H275278   4.328   3.343   4.509
17955TIP3   OH275279   3.974   2.783   3.920
17955TIP3    H175280   4.023   2.848   3.971
17955TIP3    H275281   3.885   2.786   3.956
17956TIP3   OH275282   4.488   3.100   4.339
17956TIP3    H175283   4.468   3.185   4.379
17956TIP3    H275284   4.441   3.036   4.392
17957TIP3   OH275285   4.605   3.507   5.041
17957TIP3    H175286   4.665   3.580   5.021
17957TIP3    H275287   4.653   3.455   5.105
17958TIP3   OH275288   4.401   3.598   4.348
17958TIP3    H175289   4.309   3.608   4.372
17958TIP3    H275290   4.445   3.674   4.386
17959TIP3   OH275291   4.908   3.105   5.028
17959TIP3    H175292   4.854   3.093   5.106
17959TIP3    H275293   4.991   3.063   5.048
17960TIP3   OH275294   5.179   3.215   3.924
17960TIP3    H175295   5.212   3.161   3.996
17960TIP3    H275296   5.086   3.194   3.920
17961TIP3   OH275297   5.183   3.548   5.235
17961TIP3    H175298   5.111   3.488   5.215
17961TIP3    H275299   5.181   3.613   5.165
17962TIP3   OH275300   5.609   3.645   3.935
17962TIP3    H175301   5.677   3.713   3.930
17962TIP3    H275302   5.529   3.693   3.958
17963TIP3   OH275303   4.004   2.303   5.183
17963TIP3    H175304   3.910   2.315   5.170
17963TIP3    H275305   4.013   2.285   5.277
17964TIP3   OH275306   5.296   3.050   4.108
17964TIP3    H175307   5.251   2.993   4.170
17964TIP3    H275308   5.389   3.042   4.132
17965TIP3   OH275309   3.989   3.452   5.019
17965TIP3    H175310   4.024   3.377   5.068
17965TIP3    H275311   3.965   3.516   5.087
17966TIP3   OH275312   4.558   3.307   3.774
17966TIP3    H175313   4.564   3.221   3.732
17966TIP3    H275314   4.518   3.289   3.859
17967TIP3   OH275315   4.430   3.280   4.021
17967TIP3    H175316   4.458   3.229   4.096
17967TIP3    H275317   4.441   3.371   4.048
17968TIP3   OH275318   4.078   2.992   4.078
17968TIP3    H175319   4.011   3.039   4.127
17968TIP3    H275320   4.124   3.060   4.028
17969TIP3   OH275321   4.934   2.198   5.094
17969TIP3    H175322   4.985   2.252   5.154
17969TIP3    H275323   4.884   2.140   5.151
17970TIP3   OH275324   4.978   2.176   4.245
17970TIP3    H175325   4.984   2.217   4.158
17970TIP3    H275326   5.025   2.235   4.303
17971TIP3   OH275327   4.730   3.419   4.061
17971TIP3    H175328   4.642   3.450   4.079
17971TIP3    H275329   4.785   3.497   4.071
17972TIP3   OH275330   4.659   2.409   4.287
17972TIP3    H175331   4.733   2.469   4.295
17972TIP3    H275332   4.637   2.385   4.377
17973TIP3   OH275333   4.763   2.499   5.183
17973TIP3    H175334   4.761   2.548   5.266
17973TIP3    H275335   4.783   2.409   5.209
17974TIP3   OH275336   4.736   2.097   4.369
17974TIP3    H175337   4.705   2.176   4.411
17974TIP3    H275338   4.818   2.123   4.327
17975TIP3   OH275339   4.483   3.538   4.094
17975TIP3    H175340   4.487   3.623   4.049
17975TIP3    H275341   4.453   3.560   4.182
17976TIP3   OH275342   4.334   2.228   4.045
17976TIP3    H175343   4.326   2.311   4.093
17976TIP3    H275344   4.419   2.194   4.071
17977TIP3   OH275345   5.315   2.206   5.211
17977TIP3    H175346   5.241   2.264   5.223
17977TIP3    H275347   5.383   2.242   5.269
17978TIP3   OH275348   5.222   2.676   4.666
17978TIP3    H175349   5.144   2.629   4.635
17978TIP3    H275350   5.267   2.613   4.723
17979TIP3   OH275351   4.179   3.204   3.922
17979TIP3    H175352   4.251   3.250   3.965
17979TIP3    H275353   4.221   3.149   3.856
17980TIP3   OH275354   3.967   2.509   3.857
17980TIP3    H175355   3.984   2.598   3.888
17980TIP3    H275356   3.907   2.521   3.783
17981TIP3   OH275357   5.341   3.614   4.824
17981TIP3    H175358   5.330   3.684   4.759
17981TIP3    H275359   5.435   3.610   4.840
17982TIP3   OH275360   4.072   2.000   4.702
17982TIP3    H175361   4.060   1.989   4.607
17982TIP3    H275362   4.039   1.919   4.740
17983TIP3   OH275363   3.947   3.408   4.328
17983TIP3    H175364   3.900   3.439   4.406
17983TIP3    H275365   3.932   3.476   4.262
17984TIP3   OH275366   4.300   3.565   5.590
17984TIP3    H175367   4.320   3.516   5.670
17984TIP3    H275368   4.307   3.500   5.520
17985TIP3   OH275369   4.767   3.487   3.751
17985TIP3    H175370   4.698   3.424   3.772
17985TIP3    H275371   4.843   3.433   3.730
17986TIP3   OH275372   5.032   3.370   5.516
17986TIP3    H175373   4.999   3.295   5.566
17986TIP3    H275374   5.103   3.406   5.570
17987TIP3   OH275375   5.222   3.455   3.799
17987TIP3    H175376   5.217   3.376   3.852
17987TIP3    H275377   5.305   3.447   3.752
17988TIP3   OH275378   3.922   3.027   5.519
17988TIP3    H175379   3.920   2.942   5.562
17988TIP3    H275380   3.830   3.046   5.502
17989TIP3   OH275381   4.319   3.026   3.769
17989TIP3    H175382   4.341   2.978   3.849
17989TIP3    H275383   4.403   3.039   3.725
17990TIP3   OH275384   4.609   3.061   5.496
17990TIP3    H175385   4.550   3.110   5.439
17990TIP3    H275386   4.589   2.969   5.478
17991TIP3   OH275387   4.912   3.173   3.782
17991TIP3    H175388   4.875   3.169   3.870
17991TIP3    H275389   4.893   3.088   3.743
17992TIP3   OH275390   5.112   3.075   5.249
17992TIP3    H175391   5.204   3.101   5.245
17992TIP3    H275392   5.064   3.157   5.252
17993TIP3   OH275393   3.948   2.771   5.621
17993TIP3    H175394   4.025   2.716   5.631
17993TIP3    H275395   3.902   2.764   5.704
17994TIP3   OH275396   4.414   2.892   3.996
17994TIP3    H175397   4.364   2.855   4.069
17994TIP3    H275398   4.456   2.817   3.954
17995TIP3   OH275399   4.355   2.654   5.246
17995TIP3    H175400   4.291   2.725   5.252
17995TIP3    H275401   4.425   2.688   5.190
17996TIP3   OH275402   4.561   2.715   3.834
17996TIP3    H175403   4.558   2.745   3.743
17996TIP3    H275404   4.654   2.710   3.855
17997TIP3   OH275405   4.952   2.909   5.606
17997TIP3    H175406   5.011   2.875   5.538
17997TIP3    H275407   4.904   2.832   5.636
17998TIP3   OH275408   5.451   2.904   3.793
17998TIP3    H175409   5.456   2.887   3.699
17998TIP3    H275410   5.442   3.000   3.798
17999TIP3   OH275411   4.465   2.406   5.327
17999TIP3    H175412   4.445   2.343   5.258
17999TIP3    H275413   4.417   2.485   5.304
18000TIP3   OH275414   4.466   2.218   5.087
18000TIP3    H175415   4.513   2.286   5.038
18000TIP3    H275416   4.375   2.228   5.059
18001TIP3   OH275417   4.563   2.764   5.099
18001TIP3    H175418   4.610   2.794   5.177
18001TIP3    H275419   4.534   2.845   5.056
18002TIP3   OH275420   5.147   2.847   5.403
18002TIP3    H175421   5.127   2.927   5.354
18002TIP3    H275422   5.240   2.854   5.423
18003TIP3   OH275423   4.504   1.939   5.120
18003TIP3    H175424   4.496   2.034   5.113
18003TIP3    H275425   4.418   1.906   5.093
18004TIP3   OH275426   4.662   2.379   5.513
18004TIP3    H175427   4.620   2.380   5.600
18004TIP3    H275428   4.588   2.380   5.452
18005TIP3   OH275429   4.902   2.287   5.409
18005TIP3    H175430   4.819   2.311   5.450
18005TIP3    H275431   4.943   2.228   5.472
18006TIP3   OH275432   5.036   2.125   5.604
18006TIP3    H175433   5.119   2.169   5.624
18006TIP3    H275434   4.976   2.157   5.671
18007TIP3   OH275435   4.067   2.277   5.496
18007TIP3    H175436   4.145   2.222   5.502
18007TIP3    H275437   4.074   2.336   5.571
18008TIP3   OH275438   4.588   1.910   5.384
18008TIP3    H175439   4.541   1.854   5.445
18008TIP3    H275440   4.530   1.919   5.309
18009TIP3   OH275441   4.552   3.775   3.963
18009TIP3    H175442   4.642   3.743   3.959
18009TIP3    H275443   4.549   3.846   3.899
18010TIP3   OH275444   3.915   3.250   3.858
18010TIP3    H175445   4.005   3.243   3.890
18010TIP3    H275446   3.902   3.172   3.804
18011TIP3   OH275447   3.779   3.731   4.417
18011TIP3    H175448   3.722   3.696   4.349
18011TIP3    H275449   3.797   3.656   4.474
18012TIP3   OH275450   3.855   3.516   4.577
18012TIP3    H175451   3.818   3.443   4.627
18012TIP3    H275452   3.905   3.567   4.641
18013TIP3   OH275453   5.608   3.622   4.896
18013TIP3    H175454   5.596   3.606   4.989
18013TIP3    H275455   5.663   3.700   4.892
18014TIP3   OH275456   5.567   3.584   5.162
18014TIP3    H175457   5.507   3.509   5.158
18014TIP3    H275458   5.625   3.565   5.236
18015TIP3   OH275459   5.365   3.203   5.675
18015TIP3    H175460   5.309   3.274   5.644
18015TIP3    H275461   5.436   3.248   5.721
18016TIP3   OH275462   5.561   3.001   4.187
18016TIP3    H175463   5.631   3.066   4.192
18016TIP3    H275464   5.576   2.945   4.263
18017TIP3   OH275465   5.611   2.806   4.379
18017TIP3    H175466   5.525   2.777   4.411
18017TIP3    H275467   5.662   2.823   4.458
18018TIP3   OH275468   5.581   3.108   4.892
18018TIP3    H175469   5.640   3.043   4.853
18018TIP3    H275470   5.612   3.192   4.857
18019TIP3   OH275471   5.378   3.387   5.096
18019TIP3    H175472   5.308   3.431   5.144
18019TIP3    H275473   5.341   3.370   5.009
18020TIP3   OH275474   5.598   2.802   4.002
18020TIP3    H175475   5.546   2.831   3.927
18020TIP3    H275476   5.584   2.868   4.069
18021TIP3   OH275477   5.454   2.494   3.828
18021TIP3    H175478   5.428   2.564   3.768
18021TIP3    H275479   5.424   2.413   3.786
18022TIP3   OH275480   5.358   2.694   4.427
18022TIP3    H175481   5.347   2.602   4.403
18022TIP3    H275482   5.318   2.700   4.514
18023TIP3   OH275483   3.843   2.880   4.839
18023TIP3    H175484   3.858   2.863   4.746
18023TIP3    H275485   3.925   2.854   4.881
18024TIP3   OH275486   5.427   2.865   5.429
18024TIP3    H175487   5.478   2.787   5.408
18024TIP3    H275488   5.484   2.939   5.406
18025TIP3   OH275489   5.570   2.634   5.360
18025TIP3    H175490   5.484   2.594   5.377
18025TIP3    H275491   5.633   2.570   5.394
18026TIP3   OH275492   5.360   2.250   3.732
18026TIP3    H175493   5.384   2.210   3.815
18026TIP3    H275494   5.266   2.237   3.724
18027TIP3   OH275495   5.337   2.443   4.250
18027TIP3    H175496   5.360   2.350   4.252
18027TIP3    H275497   5.408   2.485   4.203
18028TIP3   OH275498   5.357   2.482   4.813
18028TIP3    H175499   5.451   2.487   4.795
18028TIP3    H275500   5.350   2.498   4.907
18029TIP3   OH275501   5.370   2.561   5.076
18029TIP3    H175502   5.299   2.591   5.133
18029TIP3    H275503   5.427   2.638   5.067
18030TIP3   OH275504   3.818   2.381   5.419
18030TIP3    H175505   3.901   2.365   5.463
18030TIP3    H275506   3.767   2.301   5.433
18031TIP3   OH275507   5.389   2.173   4.266
18031TIP3    H175508   5.416   2.135   4.349
18031TIP3    H275509   5.321   2.114   4.234
18032TIP3   OH275510   3.953   2.250   4.706
18032TIP3    H175511   3.985   2.161   4.722
18032TIP3    H275512   4.021   2.306   4.743
18033TIP3   OH275513   3.752   2.510   4.811
18033TIP3    H175514   3.824   2.525   4.750
18033TIP3    H275515   3.772   2.566   4.885
18034TIP3   OH275516   5.513   2.207   5.433
18034TIP3    H175517   5.452   2.203   5.506
18034TIP3    H275518   5.520   2.117   5.402
18035TIP3   OH275519   5.557   2.151   3.927
18035TIP3    H175520   5.597   2.098   3.859
18035TIP3    H275521   5.618   2.225   3.939
18036TIP3   OH275522   3.804   2.134   4.203
18036TIP3    H175523   3.712   2.140   4.231
18036TIP3    H275524   3.817   2.213   4.151
18037TIP3   OH275525   5.268   3.683   4.430
18037TIP3    H175526   5.346   3.676   4.375
18037TIP3    H275527   5.297   3.728   4.509
18038TIP3   OH275528   3.779   1.993   5.014
18038TIP3    H175529   3.717   1.979   5.085
18038TIP3    H275530   3.753   2.077   4.976
18039TIP3   OH275531   4.341   3.475   5.111
18039TIP3    H175532   4.308   3.561   5.087
18039TIP3    H275533   4.435   3.480   5.094
18040TIP3   OH275534   4.715   3.598   5.417
18040TIP3    H175535   4.728   3.562   5.505
18040TIP3    H275536   4.798   3.640   5.395
18041TIP3   OH275537   4.955   3.717   5.346
18041TIP3    H175538   5.022   3.661   5.308
18041TIP3    H275539   4.992   3.746   5.429
18042TIP3   OH275540   5.503   1.980   5.244
18042TIP3    H175541   5.420   2.021   5.221
18042TIP3    H275542   5.489   1.887   5.226
18043TIP3   OH275543   4.044   3.796   5.130
18043TIP3    H175544   3.963   3.824   5.089
18043TIP3    H275545   4.047   3.844   5.213
18044TIP3   OH275546   4.296   3.738   5.041
18044TIP3    H175547   4.207   3.755   5.074
18044TIP3    H275548   4.301   3.787   4.959
18045TIP3   OH275549   4.751   3.728   4.947
18045TIP3    H175550   4.693   3.766   4.881
18045TIP3    H275551   4.760   3.797   5.013
18046TIP3   OH275552   4.980   3.594   5.015
18046TIP3    H175553   4.900   3.641   4.994
18046TIP3    H275554   5.049   3.661   5.015
18047TIP3   OH275555   5.216   3.743   5.034
18047TIP3    H175556   5.243   3.835   5.025
18047TIP3    H275557   5.261   3.698   4.963
18048TIP3   OH275558   4.014   3.624   4.785
18048TIP3    H175559   3.994   3.581   4.869
18048TIP3    H275560   4.094   3.580   4.755
18049TIP3   OH275561   4.229   3.490   4.678
18049TIP3    H175562   4.212   3.400   4.705
18049TIP3    H275563   4.312   3.513   4.720
18050TIP3   OH275564   4.482   3.531   4.792
18050TIP3    H175565   4.496   3.440   4.763
18050TIP3    H275566   4.513   3.532   4.882
18051TIP3   OH275567   4.771   2.026   4.643
18051TIP3    H175568   4.687   1.993   4.675
18051TIP3    H275569   4.755   2.049   4.552
18052TIP3   OH275570   5.331   1.923   4.661
18052TIP3    H175571   5.391   1.987   4.624
18052TIP3    H275572   5.244   1.962   4.649
18053TIP3   OH275573   5.499   2.054   4.487
18053TIP3    H175574   5.564   1.984   4.479
18053TIP3    H275575   5.550   2.130   4.515
18054TIP3   OH275576   4.039   1.960   4.429
18054TIP3    H175577   3.946   1.941   4.415
18054TIP3    H275578   4.082   1.875   4.423
18055TIP3   OH275579   3.924   1.963   4.019
18055TIP3    H175580   3.985   2.023   3.974
18055TIP3    H275581   3.885   2.017   4.089
18056TIP3   OH275582   4.516   1.933   4.448
18056TIP3    H175583   4.582   1.999   4.426
18056TIP3    H275584   4.514   1.933   4.544
18057TIP3   OH275585   5.074   1.978   4.572
18057TIP3    H175586   5.075   2.016   4.484
18057TIP3    H275587   5.046   1.887   4.560
18058TIP3   OH275588   5.188   2.000   4.177
18058TIP3    H175589   5.111   2.055   4.190
18058TIP3    H275590   5.157   1.911   4.192
18059TIP3   OH275591   3.913   3.588   4.124
18059TIP3    H175592   3.835   3.578   4.071
18059TIP3    H275593   3.938   3.680   4.114
18060TIP3   OH275594   4.129   2.123   3.879
18060TIP3    H175595   4.182   2.067   3.823
18060TIP3    H275596   4.192   2.159   3.943
18061TIP3   OH275597   4.598   2.196   4.127
18061TIP3    H175598   4.619   2.122   4.183
18061TIP3    H275599   4.618   2.273   4.180
18062TIP3   OH275600   4.807   3.675   3.949
18062TIP3    H175601   4.902   3.683   3.946
18062TIP3    H275602   4.785   3.612   3.881
18063TIP3   OH275603   5.477   3.652   4.245
18063TIP3    H175604   5.454   3.564   4.215
18063TIP3    H275605   5.459   3.708   4.169
18064TIP3   OH275606   4.035   1.993   5.378
18064TIP3    H175607   3.983   2.064   5.417
18064TIP3    H275608   4.109   1.983   5.438
18065TIP3   OH275609   4.235   1.961   5.569
18065TIP3    H175610   4.304   1.895   5.561
18065TIP3    H275611   4.232   1.981   5.663
18066TIP3   OH275612   4.105   3.642   3.807
18066TIP3    H175613   4.081   3.636   3.900
18066TIP3    H275614   4.183   3.586   3.799
18067TIP3   OH275615   5.411   3.501   5.405
18067TIP3    H175616   5.323   3.520   5.373
18067TIP3    H275617   5.415   3.543   5.491
18068TIP3   OH275618   6.841   2.924   4.418
18068TIP3    H175619   6.814   3.016   4.422
18068TIP3    H275620   6.777   2.882   4.361
18069TIP3   OH275621   6.701   2.826   4.806
18069TIP3    H175622   6.722   2.787   4.891
18069TIP3    H275623   6.658   2.756   4.758
18070TIP3   OH275624   5.947   2.771   4.968
18070TIP3    H175625   5.944   2.684   5.009
18070TIP3    H275626   5.998   2.824   5.028
18071TIP3   OH275627   7.100   3.140   4.648
18071TIP3    H175628   7.053   3.071   4.695
18071TIP3    H275629   7.126   3.202   4.715
18072TIP3   OH275630   6.084   3.222   4.751
18072TIP3    H175631   6.047   3.137   4.725
18072TIP3    H275632   6.130   3.203   4.833
18073TIP3   OH275633   5.740   2.571   4.291
18073TIP3    H175634   5.714   2.654   4.331
18073TIP3    H275635   5.672   2.554   4.226
18074TIP3   OH275636   5.804   2.819   4.581
18074TIP3    H175637   5.829   2.730   4.606
18074TIP3    H275638   5.881   2.872   4.600
18075TIP3   OH275639   6.755   3.616   4.680
18075TIP3    H175640   6.802   3.533   4.673
18075TIP3    H275641   6.732   3.623   4.773
18076TIP3   OH275642   6.575   3.077   4.834
18076TIP3    H175643   6.605   2.993   4.801
18076TIP3    H275644   6.645   3.108   4.891
18077TIP3   OH275645   6.891   2.508   4.839
18077TIP3    H175646   6.898   2.415   4.861
18077TIP3    H275647   6.864   2.509   4.747
18078TIP3   OH275648   6.242   2.312   4.589
18078TIP3    H175649   6.238   2.393   4.538
18078TIP3    H275650   6.176   2.255   4.548
18079TIP3   OH275651   6.978   2.330   4.413
18079TIP3    H175652   7.019   2.286   4.487
18079TIP3    H275653   7.052   2.359   4.359
18080TIP3   OH275654   5.872   2.562   4.655
18080TIP3    H175655   5.936   2.528   4.718
18080TIP3    H275656   5.892   2.515   4.573
18081TIP3   OH275657   6.368   2.708   4.600
18081TIP3    H175658   6.448   2.666   4.634
18081TIP3    H275659   6.324   2.638   4.551
18082TIP3   OH275660   6.092   2.222   4.994
18082TIP3    H175661   6.067   2.291   4.933
18082TIP3    H275662   6.025   2.224   5.062
18083TIP3   OH275663   6.786   3.189   4.325
18083TIP3    H175664   6.786   3.182   4.229
18083TIP3    H275665   6.877   3.209   4.347
18084TIP3   OH275666   6.353   2.997   4.979
18084TIP3    H175667   6.297   3.066   5.015
18084TIP3    H275668   6.423   3.044   4.935
18085TIP3   OH275669   7.075   2.238   4.652
18085TIP3    H175670   7.003   2.223   4.713
18085TIP3    H275671   7.141   2.285   4.704
18086TIP3   OH275672   6.069   2.406   4.786
18086TIP3    H175673   6.116   2.466   4.845
18086TIP3    H275674   6.137   2.371   4.728
18087TIP3   OH275675   6.188   3.204   5.071
18087TIP3    H175676   6.200   3.299   5.070
18087TIP3    H275677   6.099   3.191   5.104
18088TIP3   OH275678   5.777   3.181   4.168
18088TIP3    H175679   5.768   3.231   4.087
18088TIP3    H275680   5.801   3.246   4.234
18089TIP3   OH275681   7.130   3.343   4.846
18089TIP3    H175682   7.035   3.349   4.854
18089TIP3    H275683   7.159   3.433   4.832
18090TIP3   OH275684   7.126   2.140   4.949
18090TIP3    H175685   7.036   2.162   4.927
18090TIP3    H275686   7.177   2.215   4.918
18091TIP3   OH275687   6.446   1.918   4.739
18091TIP3    H175688   6.426   1.824   4.746
18091TIP3    H275689   6.368   1.962   4.773
18092TIP3   OH275690   6.919   3.450   4.501
18092TIP3    H175691   6.961   3.367   4.478
18092TIP3    H275692   6.991   3.511   4.514
18093TIP3   OH275693   7.048   3.233   4.395
18093TIP3    H175694   7.096   3.187   4.326
18093TIP3    H275695   7.077   3.192   4.477
18094TIP3   OH275696   7.230   3.089   5.282
18094TIP3    H175697   7.301   3.046   5.236
18094TIP3    H275698   7.223   3.175   5.240
18095TIP3   OH275699   6.704   2.825   4.196
18095TIP3    H175700   6.639   2.890   4.168
18095TIP3    H275701   6.773   2.830   4.129
18096TIP3   OH275702   6.746   2.698   3.857
18096TIP3    H175703   6.801   2.721   3.932
18096TIP3    H275704   6.800   2.638   3.804
18097TIP3   OH275705   7.067   2.841   4.284
18097TIP3    H175706   6.997   2.871   4.343
18097TIP3    H275707   7.113   2.774   4.334
18098TIP3   OH275708   7.013   2.702   5.163
18098TIP3    H175709   7.062   2.776   5.125
18098TIP3    H275710   6.931   2.700   5.114
18099TIP3   OH275711   6.225   2.904   4.469
18099TIP3    H175712   6.200   2.865   4.386
18099TIP3    H275713   6.281   2.839   4.511
18100TIP3   OH275714   6.406   3.274   4.726
18100TIP3    H175715   6.385   3.244   4.637
18100TIP3    H275716   6.466   3.207   4.759
18101TIP3   OH275717   6.231   2.803   4.825
18101TIP3    H175718   6.292   2.781   4.754
18101TIP3    H275719   6.278   2.868   4.877
18102TIP3   OH275720   6.861   3.357   4.893
18102TIP3    H175721   6.853   3.423   4.963
18102TIP3    H275722   6.830   3.276   4.933
18103TIP3   OH275723   6.344   3.221   5.311
18103TIP3    H175724   6.290   3.288   5.353
18103TIP3    H275725   6.295   3.195   5.233
18104TIP3   OH275726   6.943   2.783   4.046
18104TIP3    H175727   6.985   2.808   4.128
18104TIP3    H275728   6.998   2.821   3.978
18105TIP3   OH275729   6.044   2.850   5.228
18105TIP3    H175730   6.054   2.920   5.292
18105TIP3    H275731   5.951   2.828   5.231
18106TIP3   OH275732   6.667   3.463   4.405
18106TIP3    H175733   6.750   3.435   4.443
18106TIP3    H275734   6.637   3.388   4.354
18107TIP3   OH275735   6.165   3.418   5.374
18107TIP3    H175736   6.160   3.448   5.283
18107TIP3    H275737   6.075   3.397   5.398
18108TIP3   OH275738   6.135   2.817   4.210
18108TIP3    H175739   6.079   2.885   4.175
18108TIP3    H275740   6.078   2.740   4.217
18109TIP3   OH275741   5.725   3.048   5.139
18109TIP3    H175742   5.668   3.054   5.062
18109TIP3    H275743   5.736   2.954   5.153
18110TIP3   OH275744   5.695   3.363   4.820
18110TIP3    H175745   5.771   3.367   4.878
18110TIP3    H275746   5.643   3.440   4.843
18111TIP3   OH275747   6.574   3.370   5.254
18111TIP3    H175748   6.576   3.441   5.318
18111TIP3    H275749   6.502   3.314   5.282
18112TIP3   OH275750   6.696   3.737   4.240
18112TIP3    H175751   6.677   3.719   4.148
18112TIP3    H275752   6.668   3.828   4.253
18113TIP3   OH275753   6.034   3.588   4.438
18113TIP3    H175754   6.052   3.556   4.527
18113TIP3    H275755   5.978   3.521   4.399
18114TIP3   OH275756   6.967   3.633   3.927
18114TIP3    H175757   7.014   3.558   3.889
18114TIP3    H275758   6.978   3.621   4.021
18115TIP3   OH275759   6.945   3.610   4.204
18115TIP3    H175760   6.854   3.629   4.228
18115TIP3    H275761   6.980   3.560   4.278
18116TIP3   OH275762   7.165   2.581   5.430
18116TIP3    H175763   7.176   2.587   5.335
18116TIP3    H275764   7.237   2.525   5.459
18117TIP3   OH275765   5.934   3.224   5.179
18117TIP3    H175766   5.946   3.219   5.274
18117TIP3    H275767   5.861   3.164   5.161
18118TIP3   OH275768   6.204   2.029   4.828
18118TIP3    H175769   6.126   2.016   4.775
18118TIP3    H275770   6.180   2.099   4.889
18119TIP3   OH275771   6.687   1.996   5.178
18119TIP3    H175772   6.736   1.942   5.239
18119TIP3    H275773   6.596   1.983   5.202
18120TIP3   OH275774   7.000   2.397   5.235
18120TIP3    H175775   6.935   2.382   5.303
18120TIP3    H275776   6.996   2.491   5.218
18121TIP3   OH275777   7.102   2.903   3.862
18121TIP3    H175778   7.087   2.884   3.770
18121TIP3    H275779   7.102   2.999   3.867
18122TIP3   OH275780   6.623   2.247   3.896
18122TIP3    H175781   6.574   2.237   3.978
18122TIP3    H275782   6.591   2.176   3.841
18123TIP3   OH275783   6.213   2.560   4.957
18123TIP3    H175784   6.151   2.563   5.030
18123TIP3    H275785   6.215   2.649   4.923
18124TIP3   OH275786   6.211   2.539   4.440
18124TIP3    H175787   6.116   2.529   4.437
18124TIP3    H275788   6.239   2.527   4.349
18125TIP3   OH275789   6.753   2.581   4.312
18125TIP3    H175790   6.732   2.667   4.277
18125TIP3    H275791   6.825   2.550   4.257
18126TIP3   OH275792   6.749   2.681   5.447
18126TIP3    H175793   6.656   2.675   5.468
18126TIP3    H275794   6.792   2.622   5.509
18127TIP3   OH275795   6.833   2.509   4.574
18127TIP3    H175796   6.802   2.568   4.505
18127TIP3    H275797   6.882   2.442   4.528
18128TIP3   OH275798   5.988   2.535   5.124
18128TIP3    H175799   5.981   2.582   5.208
18128TIP3    H275800   5.955   2.447   5.143
18129TIP3   OH275801   6.314   2.286   3.790
18129TIP3    H175802   6.296   2.293   3.884
18129TIP3    H275803   6.259   2.353   3.750
18130TIP3   OH275804   5.673   2.256   4.511
18130TIP3    H175805   5.716   2.263   4.596
18130TIP3    H275806   5.736   2.293   4.449
18131TIP3   OH275807   5.765   2.350   4.011
18131TIP3    H175808   5.808   2.401   3.943
18131TIP3    H275809   5.705   2.412   4.053
18132TIP3   OH275810   6.773   2.672   5.028
18132TIP3    H175811   6.815   2.616   4.963
18132TIP3    H275812   6.721   2.612   5.081
18133TIP3   OH275813   6.515   2.265   4.526
18133TIP3    H175814   6.428   2.276   4.565
18133TIP3    H275815   6.568   2.229   4.597
18134TIP3   OH275816   5.951   2.444   4.409
18134TIP3    H175817   5.880   2.488   4.362
18134TIP3    H275818   5.964   2.362   4.362
18135TIP3   OH275819   6.281   2.476   4.182
18135TIP3    H175820   6.374   2.472   4.203
18135TIP3    H275821   6.278   2.519   4.096
18136TIP3   OH275822   6.872   2.224   4.850
18136TIP3    H175823   6.835   2.228   4.938
18136TIP3    H275824   6.803   2.186   4.796
18137TIP3   OH275825   6.250   2.559   3.921
18137TIP3    H175826   6.196   2.543   3.844
18137TIP3    H275827   6.325   2.608   3.888
18138TIP3   OH275828   7.244   3.802   5.543
18138TIP3    H175829   7.265   3.875   5.485
18138TIP3    H275830   7.299   3.815   5.620
18139TIP3   OH275831   6.018   3.052   5.422
18139TIP3    H175832   6.075   3.103   5.480
18139TIP3    H275833   5.936   3.044   5.470
18140TIP3   OH275834   6.585   2.582   4.717
18140TIP3    H175835   6.657   2.531   4.680
18140TIP3    H275836   6.554   2.529   4.790
18141TIP3   OH275837   6.021   2.181   4.295
18141TIP3    H175838   5.989   2.110   4.350
18141TIP3    H275839   6.116   2.167   4.292
18142TIP3   OH275840   6.472   2.456   4.944
18142TIP3    H175841   6.389   2.502   4.953
18142TIP3    H275842   6.521   2.478   5.023
18143TIP3   OH275843   6.519   3.020   4.120
18143TIP3    H175844   6.446   2.985   4.069
18143TIP3    H275845   6.479   3.047   4.203
18144TIP3   OH275846   7.153   2.883   4.998
18144TIP3    H175847   7.238   2.902   4.958
18144TIP3    H275848   7.089   2.915   4.935
18145TIP3   OH275849   6.882   2.296   3.972
18145TIP3    H175850   6.789   2.298   3.948
18145TIP3    H275851   6.897   2.379   4.016
18146TIP3   OH275852   6.688   3.026   5.330
18146TIP3    H175853   6.614   3.039   5.389
18146TIP3    H275854   6.714   3.115   5.304
18147TIP3   OH275855   6.956   2.512   4.129
18147TIP3    H175856   7.039   2.485   4.170
18147TIP3    H275857   6.972   2.601   4.098
18148TIP3   OH275858   6.037   2.943   4.674
18148TIP3    H175859   6.102   2.942   4.604
18148TIP3    H275860   6.076   2.891   4.744
18149TIP3   OH275861   6.734   3.173   4.043
18149TIP3    H175862   6.700   3.262   4.055
18149TIP3    H275863   6.662   3.116   4.067
18150TIP3   OH275864   5.773   2.792   5.252
18150TIP3    H175865   5.805   2.776   5.341
18150TIP3    H275866   5.692   2.742   5.246
18151TIP3   OH275867   6.448   2.788   5.490
18151TIP3    H175868   6.380   2.734   5.450
18151TIP3    H275869   6.449   2.761   5.582
18152TIP3   OH275870   6.829   3.265   5.264
18152TIP3    H175871   6.749   3.313   5.242
18152TIP3    H275872   6.857   3.301   5.348
18153TIP3   OH275873   6.967   2.926   4.793
18153TIP3    H175874   6.874   2.907   4.780
18153TIP3    H275875   7.013   2.855   4.748
18154TIP3   OH275876   6.288   3.331   4.451
18154TIP3    H175877   6.303   3.419   4.415
18154TIP3    H275878   6.208   3.340   4.504
18155TIP3   OH275879   5.863   2.790   3.919
18155TIP3    H175880   5.909   2.856   3.971
18155TIP3    H275881   5.773   2.793   3.951
18156TIP3   OH275882   6.373   3.099   4.335
18156TIP3    H175883   6.351   3.184   4.374
18156TIP3    H275884   6.327   3.035   4.387
18157TIP3   OH275885   6.487   3.516   5.039
18157TIP3    H175886   6.553   3.583   5.023
18157TIP3    H275887   6.526   3.459   5.106
18158TIP3   OH275888   6.297   3.598   4.353
18158TIP3    H175889   6.205   3.612   4.378
18158TIP3    H275890   6.345   3.665   4.401
18159TIP3   OH275891   6.803   3.098   4.991
18159TIP3    H175892   6.818   3.082   5.084
18159TIP3    H275893   6.872   3.048   4.947
18160TIP3   OH275894   7.053   3.174   3.936
18160TIP3    H175895   7.090   3.152   4.021
18160TIP3    H275896   6.958   3.177   3.951
18161TIP3   OH275897   7.088   3.539   5.236
18161TIP3    H175898   7.005   3.503   5.205
18161TIP3    H275899   7.104   3.614   5.179
18162TIP3   OH275900   5.896   2.265   5.187
18162TIP3    H175901   5.809   2.297   5.207
18162TIP3    H275902   5.908   2.189   5.244
18163TIP3   OH275903   7.154   3.089   4.180
18163TIP3    H175904   7.141   2.999   4.212
18163TIP3    H275905   7.249   3.099   4.177
18164TIP3   OH275906   5.880   3.459   5.019
18164TIP3    H175907   5.900   3.383   5.073
18164TIP3    H275908   5.882   3.533   5.080
18165TIP3   OH275909   6.441   3.307   3.773
18165TIP3    H175910   6.451   3.222   3.730
18165TIP3    H275911   6.401   3.286   3.858
18166TIP3   OH275912   6.317   3.279   4.021
18166TIP3    H175913   6.350   3.227   4.094
18166TIP3    H275914   6.330   3.370   4.048
18167TIP3   OH275915   5.965   2.995   4.080
18167TIP3    H175916   5.897   3.042   4.127
18167TIP3    H275917   6.011   3.063   4.030
18168TIP3   OH275918   6.786   2.241   5.107
18168TIP3    H175919   6.859   2.258   5.167
18168TIP3    H275920   6.750   2.157   5.136
18169TIP3   OH275921   6.838   2.182   4.227
18169TIP3    H175922   6.861   2.219   4.142
18169TIP3    H275923   6.882   2.238   4.290
18170TIP3   OH275924   6.625   3.419   4.084
18170TIP3    H175925   6.535   3.449   4.097
18170TIP3    H275926   6.671   3.496   4.049
18171TIP3   OH275927   6.532   2.418   4.295
18171TIP3    H175928   6.608   2.476   4.300
18171TIP3    H275929   6.527   2.376   4.380
18172TIP3   OH275930   6.644   2.474   5.167
18172TIP3    H175931   6.628   2.472   5.261
18172TIP3    H275932   6.685   2.390   5.148
18173TIP3   OH275933   6.617   2.074   4.345
18173TIP3    H175934   6.594   2.141   4.409
18173TIP3    H275935   6.699   2.105   4.307
18174TIP3   OH275936   6.375   3.536   4.097
18174TIP3    H175937   6.378   3.619   4.050
18174TIP3    H275938   6.344   3.559   4.185
18175TIP3   OH275939   6.221   2.238   4.057
18175TIP3    H175940   6.224   2.322   4.103
18175TIP3    H275941   6.306   2.198   4.075
18176TIP3   OH275942   7.264   2.273   5.257
18176TIP3    H175943   7.178   2.310   5.237
18176TIP3    H275944   7.265   2.188   5.214
18177TIP3   OH275945   7.087   2.687   4.700
18177TIP3    H175946   7.018   2.626   4.726
18177TIP3    H275947   7.162   2.662   4.755
18178TIP3   OH275948   6.067   3.204   3.923
18178TIP3    H175949   6.139   3.250   3.965
18178TIP3    H275950   6.108   3.149   3.856
18179TIP3   OH275951   5.855   2.528   3.832
18179TIP3    H175952   5.877   2.611   3.874
18179TIP3    H275953   5.811   2.553   3.751
18180TIP3   OH275954   7.231   3.607   4.830
18180TIP3    H175955   7.219   3.682   4.771
18180TIP3    H275956   7.325   3.597   4.837
18181TIP3   OH275957   5.960   1.996   4.705
18181TIP3    H175958   5.947   1.983   4.611
18181TIP3    H275959   5.929   1.915   4.745
18182TIP3   OH275960   5.838   3.407   4.330
18182TIP3    H175961   5.788   3.436   4.406
18182TIP3    H275962   5.821   3.474   4.263
18183TIP3   OH275963   5.779   3.647   5.371
18183TIP3    H175964   5.758   3.709   5.440
18183TIP3    H275965   5.759   3.561   5.409
18184TIP3   OH275966   6.224   3.554   5.607
18184TIP3    H175967   6.302   3.508   5.640
18184TIP3    H275968   6.203   3.509   5.525
18185TIP3   OH275969   6.648   3.489   3.757
18185TIP3    H175970   6.581   3.421   3.768
18185TIP3    H275971   6.725   3.441   3.725
18186TIP3   OH275972   6.878   3.349   5.518
18186TIP3    H175973   6.842   3.282   5.576
18186TIP3    H275974   6.951   3.387   5.568
18187TIP3   OH275975   7.097   3.422   3.806
18187TIP3    H175976   7.109   3.335   3.845
18187TIP3    H275977   7.164   3.427   3.738
18188TIP3   OH275978   5.786   3.057   5.581
18188TIP3    H175979   5.783   2.980   5.637
18188TIP3    H275980   5.703   3.057   5.535
18189TIP3   OH275981   6.202   3.024   3.769
18189TIP3    H175982   6.226   2.976   3.848
18189TIP3    H275983   6.285   3.038   3.723
18190TIP3   OH275984   6.478   3.072   5.501
18190TIP3    H175985   6.416   3.108   5.437
18190TIP3    H275986   6.456   2.979   5.505
18191TIP3   OH275987   6.768   3.168   3.768
18191TIP3    H175988   6.748   3.162   3.861
18191TIP3    H275989   6.764   3.078   3.736
18192TIP3   OH275990   6.965   3.028   5.235
18192TIP3    H175991   7.060   3.039   5.238
18192TIP3    H275992   6.930   3.117   5.246
18193TIP3   OH275993   5.884   2.725   5.494
18193TIP3    H175994   5.957   2.668   5.517
18193TIP3    H275995   5.857   2.763   5.578
18194TIP3   OH275996   6.306   2.892   3.992
18194TIP3    H175997   6.259   2.852   4.066
18194TIP3    H275998   6.354   2.819   3.953
18195TIP3   OH275999   6.263   2.670   5.253
18195TIP3    H176000   6.192   2.735   5.247
18195TIP3    H276001   6.331   2.704   5.194
18196TIP3   OH276002   6.462   2.714   3.838
18196TIP3    H176003   6.459   2.744   3.747
18196TIP3    H276004   6.555   2.702   3.857
18197TIP3   OH276005   6.322   2.411   5.323
18197TIP3    H176006   6.326   2.352   5.248
18197TIP3    H276007   6.300   2.496   5.285
18198TIP3   OH276008   6.346   2.242   5.097
18198TIP3    H176009   6.394   2.293   5.032
18198TIP3    H276010   6.257   2.236   5.063
18199TIP3   OH276011   6.458   2.764   5.083
18199TIP3    H176012   6.552   2.780   5.095
18199TIP3    H276013   6.423   2.847   5.052
18200TIP3   OH276014   6.932   2.509   5.584
18200TIP3    H176015   6.897   2.438   5.531
18200TIP3    H276016   7.009   2.540   5.535
18201TIP3   OH276017   7.071   2.843   5.451
18201TIP3    H176018   7.135   2.895   5.403
18201TIP3    H276019   7.106   2.754   5.450
18202TIP3   OH276020   6.151   2.458   5.539
18202TIP3    H176021   6.072   2.406   5.525
18202TIP3    H276022   6.204   2.442   5.461
18203TIP3   OH276023   6.408   1.973   5.172
18203TIP3    H176024   6.385   2.064   5.154
18203TIP3    H276025   6.336   1.922   5.135
18204TIP3   OH276026   6.544   2.405   5.485
18204TIP3    H176027   6.508   2.387   5.571
18204TIP3    H276028   6.468   2.406   5.427
18205TIP3   OH276029   6.803   2.331   5.417
18205TIP3    H176030   6.711   2.346   5.440
18205TIP3    H276031   6.831   2.259   5.474
18206TIP3   OH276032   6.914   2.171   5.608
18206TIP3    H176033   6.919   2.076   5.596
18206TIP3    H276034   6.932   2.184   5.702
18207TIP3   OH276035   5.937   2.281   5.515
18207TIP3    H176036   5.932   2.203   5.458
18207TIP3    H276037   5.953   2.246   5.602
18208TIP3   OH276038   6.422   1.916   5.449
18208TIP3    H176039   6.472   1.835   5.460
18208TIP3    H276040   6.414   1.926   5.354
18209TIP3   OH276041   6.486   2.079   5.666
18209TIP3    H176042   6.468   2.026   5.588
18209TIP3    H276043   6.434   2.159   5.653
18210TIP3   OH276044   6.442   3.775   3.968
18210TIP3    H176045   6.532   3.742   3.964
18210TIP3    H276046   6.437   3.841   3.899
18211TIP3   OH276047   5.802   3.252   3.867
18211TIP3    H176048   5.893   3.244   3.894
18211TIP3    H276049   5.786   3.175   3.812
18212TIP3   OH276050   5.673   3.732   4.420
18212TIP3    H176051   5.613   3.701   4.353
18212TIP3    H276052   5.689   3.655   4.475
18213TIP3   OH276053   5.743   3.515   4.579
18213TIP3    H176054   5.706   3.442   4.629
18213TIP3    H276055   5.792   3.566   4.644
18214TIP3   OH276056   7.211   3.307   5.118
18214TIP3    H176057   7.193   3.394   5.153
18214TIP3    H276058   7.196   3.315   5.024
18215TIP3   OH276059   7.180   2.639   4.440
18215TIP3    H176060   7.211   2.550   4.457
18215TIP3    H276061   7.149   2.670   4.525
18216TIP3   OH276062   5.731   2.881   4.841
18216TIP3    H176063   5.745   2.864   4.748
18216TIP3    H276064   5.811   2.849   4.883
18217TIP3   OH276065   7.228   2.278   3.759
18217TIP3    H176066   7.259   2.209   3.818
18217TIP3    H276067   7.138   2.252   3.738
18218TIP3   OH276068   7.193   2.403   4.246
18218TIP3    H176069   7.245   2.375   4.321
18218TIP3    H276070   7.255   2.406   4.173
18219TIP3   OH276071   7.256   2.352   4.829
18219TIP3    H176072   7.340   2.319   4.796
18219TIP3    H276073   7.270   2.445   4.844
18220TIP3   OH276074   7.271   2.593   5.145
18220TIP3    H176075   7.181   2.616   5.122
18220TIP3    H276076   7.315   2.577   5.061
18221TIP3   OH276077   5.712   2.393   5.395
18221TIP3    H176078   5.788   2.370   5.448
18221TIP3    H276079   5.644   2.331   5.422
18222TIP3   OH276080   7.237   2.112   4.363
18222TIP3    H176081   7.283   2.030   4.380
18222TIP3    H276082   7.162   2.087   4.309
18223TIP3   OH276083   5.845   2.250   4.719
18223TIP3    H176084   5.878   2.161   4.734
18223TIP3    H276085   5.913   2.307   4.757
18224TIP3   OH276086   5.632   2.513   4.807
18224TIP3    H176087   5.709   2.531   4.754
18224TIP3    H276088   5.638   2.572   4.882
18225TIP3   OH276089   5.701   2.169   4.228
18225TIP3    H176090   5.652   2.129   4.300
18225TIP3    H276091   5.638   2.230   4.188
18226TIP3   OH276092   7.124   3.623   4.511
18226TIP3    H176093   7.205   3.573   4.523
18226TIP3    H276094   7.141   3.706   4.555
18227TIP3   OH276095   5.686   1.999   5.034
18227TIP3    H176096   5.634   1.998   5.114
18227TIP3    H276097   5.658   2.077   4.988
18228TIP3   OH276098   5.916   3.348   5.456
18228TIP3    H176099   5.826   3.359   5.427
18228TIP3    H276100   5.910   3.341   5.552
18229TIP3   OH276101   6.221   3.477   5.103
18229TIP3    H176102   6.187   3.564   5.083
18229TIP3    H276103   6.315   3.484   5.090
18230TIP3   OH276104   6.607   3.585   5.425
18230TIP3    H176105   6.625   3.540   5.508
18230TIP3    H276106   6.689   3.631   5.405
18231TIP3   OH276107   6.838   3.725   5.360
18231TIP3    H176108   6.912   3.676   5.325
18231TIP3    H276109   6.872   3.768   5.439
18232TIP3   OH276110   5.907   3.734   5.135
18232TIP3    H176111   5.840   3.792   5.098
18232TIP3    H276112   5.878   3.716   5.224
18233TIP3   OH276113   6.172   3.744   5.050
18233TIP3    H176114   6.082   3.749   5.081
18233TIP3    H276115   6.172   3.793   4.968
18234TIP3   OH276116   6.652   3.724   4.937
18234TIP3    H176117   6.579   3.760   4.888
18234TIP3    H276118   6.666   3.786   5.009
18235TIP3   OH276119   6.864   3.582   5.052
18235TIP3    H176120   6.789   3.632   5.022
18235TIP3    H276121   6.938   3.642   5.044
18236TIP3   OH276122   7.095   3.730   5.037
18236TIP3    H176123   7.128   3.820   5.039
18236TIP3    H276124   7.146   3.687   4.968
18237TIP3   OH276125   5.903   3.626   4.786
18237TIP3    H176126   5.882   3.584   4.870
18237TIP3    H276127   5.981   3.579   4.755
18238TIP3   OH276128   6.115   3.484   4.680
18238TIP3    H176129   6.098   3.394   4.707
18238TIP3    H276130   6.198   3.507   4.723
18239TIP3   OH276131   6.369   3.534   4.791
18239TIP3    H176132   6.387   3.446   4.758
18239TIP3    H276133   6.396   3.531   4.883
18240TIP3   OH276134   6.673   2.102   4.689
18240TIP3    H176135   6.610   2.033   4.709
18240TIP3    H276136   6.747   2.057   4.648
18241TIP3   OH276137   7.170   1.951   4.656
18241TIP3    H176138   7.220   2.033   4.653
18241TIP3    H276139   7.078   1.980   4.649
18242TIP3   OH276140   5.929   1.957   4.426
18242TIP3    H176141   5.836   1.935   4.421
18242TIP3    H276142   5.974   1.873   4.427
18243TIP3   OH276143   5.803   1.973   4.022
18243TIP3    H176144   5.814   1.925   3.940
18243TIP3    H276145   5.709   1.969   4.040
18244TIP3   OH276146   6.391   1.947   4.459
18244TIP3    H176147   6.469   1.986   4.419
18244TIP3    H276148   6.413   1.941   4.552
18245TIP3   OH276149   6.894   1.970   4.586
18245TIP3    H176150   6.919   1.946   4.497
18245TIP3    H276151   6.869   1.887   4.627
18246TIP3   OH276152   7.044   1.996   4.210
18246TIP3    H176153   6.961   2.043   4.204
18246TIP3    H276154   7.019   1.904   4.200
18247TIP3   OH276155   5.803   3.590   4.129
18247TIP3    H176156   5.725   3.579   4.075
18247TIP3    H276157   5.826   3.683   4.120
18248TIP3   OH276158   6.028   2.148   3.886
18248TIP3    H176159   6.062   2.082   3.826
18248TIP3    H276160   6.105   2.181   3.932
18249TIP3   OH276161   6.484   2.203   4.132
18249TIP3    H176162   6.518   2.131   4.184
18249TIP3    H276163   6.504   2.282   4.183
18250TIP3   OH276164   6.696   3.665   3.959
18250TIP3    H176165   6.791   3.675   3.949
18250TIP3    H276166   6.669   3.612   3.884
18251TIP3   OH276167   5.936   2.039   5.373
18251TIP3    H176168   5.875   1.972   5.403
18251TIP3    H276169   6.017   2.020   5.420
18252TIP3   OH276170   6.137   1.965   5.556
18252TIP3    H176171   6.227   1.938   5.536
18252TIP3    H276172   6.098   1.888   5.598
18253TIP3   OH276173   6.001   3.640   3.810
18253TIP3    H176174   5.975   3.628   3.901
18253TIP3    H276175   6.078   3.584   3.799
18254TIP3   OH276176   6.935   1.896   5.605
18254TIP3    H176177   6.871   1.835   5.642
18254TIP3    H276178   7.019   1.852   5.616
18255TIP3   OH276179   7.276   3.536   5.450
18255TIP3    H176180   7.211   3.524   5.381
18255TIP3    H276181   7.256   3.622   5.487
18256TIP3   OH276182   1.190   4.804   4.414
18256TIP3    H176183   1.182   4.899   4.407
18256TIP3    H276184   1.108   4.769   4.380
18257TIP3   OH276185   1.000   4.718   4.809
18257TIP3    H176186   1.049   4.690   4.886
18257TIP3    H276187   0.975   4.637   4.764
18258TIP3   OH276188   0.298   4.643   4.958
18258TIP3    H176189   0.299   4.571   5.021
18258TIP3    H276190   0.390   4.666   4.946
18259TIP3   OH276191   1.473   5.064   4.614
18259TIP3    H176192   1.520   4.983   4.632
18259TIP3    H276193   1.481   5.115   4.695
18260TIP3   OH276194   0.410   5.115   4.748
18260TIP3    H176195   0.389   5.024   4.728
18260TIP3    H276196   0.502   5.113   4.774
18261TIP3   OH276197   0.107   4.513   4.280
18261TIP3    H176198   0.156   4.574   4.334
18261TIP3    H276199   0.019   4.513   4.316
18262TIP3   OH276200   0.209   4.669   4.488
18262TIP3    H176201   0.200   4.603   4.557
18262TIP3    H276202   0.255   4.742   4.530
18263TIP3   OH276203   1.185   5.505   4.679
18263TIP3    H176204   1.222   5.448   4.612
18263TIP3    H276205   1.168   5.448   4.753
18264TIP3   OH276206   0.906   4.976   4.844
18264TIP3    H176207   0.932   4.889   4.815
18264TIP3    H276208   0.982   5.009   4.893
18265TIP3   OH276209   1.803   4.110   4.941
18265TIP3    H176210   1.812   4.170   5.015
18265TIP3    H276211   1.843   4.157   4.867
18266TIP3   OH276212   1.214   4.402   4.832
18266TIP3    H176213   1.241   4.313   4.850
18266TIP3    H276214   1.196   4.404   4.738
18267TIP3   OH276215   0.572   4.207   4.586
18267TIP3    H176216   0.587   4.292   4.543
18267TIP3    H276217   0.524   4.156   4.520
18268TIP3   OH276218   1.346   4.215   4.440
18268TIP3    H176219   1.391   4.184   4.519
18268TIP3    H276220   1.412   4.268   4.394
18269TIP3   OH276221   0.220   4.445   4.656
18269TIP3    H176222   0.287   4.414   4.717
18269TIP3    H276223   0.247   4.410   4.571
18270TIP3   OH276224   0.697   4.600   4.617
18270TIP3    H176225   0.779   4.561   4.650
18270TIP3    H276226   0.662   4.535   4.557
18271TIP3   OH276227   1.825   4.270   5.165
18271TIP3    H176228   1.765   4.341   5.142
18271TIP3    H276229   1.855   4.290   5.253
18272TIP3   OH276230   0.437   4.116   5.006
18272TIP3    H176231   0.412   4.187   4.947
18272TIP3    H276232   0.374   4.123   5.079
18273TIP3   OH276233   1.158   5.061   4.310
18273TIP3    H176234   1.141   5.063   4.216
18273TIP3    H276235   1.112   5.139   4.344
18274TIP3   OH276236   0.691   4.882   4.991
18274TIP3    H176237   0.644   4.947   5.043
18274TIP3    H276238   0.765   4.929   4.953
18275TIP3   OH276239   1.469   4.129   4.678
18275TIP3    H176240   1.393   4.132   4.737
18275TIP3    H276241   1.530   4.194   4.714
18276TIP3   OH276242   0.411   4.295   4.792
18276TIP3    H176243   0.462   4.353   4.848
18276TIP3    H276244   0.474   4.259   4.730
18277TIP3   OH276245   0.540   5.069   5.133
18277TIP3    H176246   0.535   5.161   5.108
18277TIP3    H276247   0.454   5.049   5.168
18278TIP3   OH276248   0.103   5.052   4.157
18278TIP3    H176249   0.108   5.085   4.067
18278TIP3    H276250   0.129   5.126   4.211
18279TIP3   OH276251   1.482   5.237   4.842
18279TIP3    H176252   1.388   5.241   4.862
18279TIP3    H276253   1.506   5.327   4.823
18280TIP3   OH276254   1.548   3.990   4.984
18280TIP3    H176255   1.485   4.057   4.958
18280TIP3    H276256   1.634   4.028   4.962
18281TIP3   OH276257   0.787   3.803   4.742
18281TIP3    H176258   0.763   3.711   4.749
18281TIP3    H276259   0.712   3.850   4.777
18282TIP3   OH276260   1.306   5.371   4.468
18282TIP3    H176261   1.347   5.288   4.444
18282TIP3    H276262   1.377   5.435   4.467
18283TIP3   OH276263   1.425   5.144   4.358
18283TIP3    H176264   1.342   5.098   4.342
18283TIP3    H276265   1.455   5.111   4.443
18284TIP3   OH276266   1.601   5.022   5.202
18284TIP3    H176267   1.597   4.954   5.135
18284TIP3    H276268   1.625   5.102   5.154
18285TIP3   OH276269   1.036   4.710   4.188
18285TIP3    H176270   0.977   4.782   4.164
18285TIP3    H276271   1.116   4.726   4.139
18286TIP3   OH276272   1.063   4.597   3.867
18286TIP3    H176273   1.113   4.617   3.946
18286TIP3    H276274   1.116   4.533   3.820
18287TIP3   OH276275   1.770   4.659   5.052
18287TIP3    H176276   1.704   4.727   5.046
18287TIP3    H276277   1.824   4.671   4.973
18288TIP3   OH276278   1.409   4.724   4.273
18288TIP3    H176279   1.339   4.752   4.332
18288TIP3    H276280   1.476   4.686   4.330
18289TIP3   OH276281   1.360   4.527   5.193
18289TIP3    H176282   1.367   4.597   5.259
18289TIP3    H276283   1.307   4.566   5.123
18290TIP3   OH276284   0.560   4.792   4.471
18290TIP3    H176285   0.543   4.750   4.386
18290TIP3    H276286   0.616   4.730   4.517
18291TIP3   OH276287   0.700   5.136   4.734
18291TIP3    H176288   0.722   5.135   4.641
18291TIP3    H276289   0.771   5.086   4.776
18292TIP3   OH276290   0.555   4.705   4.833
18292TIP3    H176291   0.614   4.680   4.762
18292TIP3    H276292   0.606   4.766   4.887
18293TIP3   OH276293   1.219   5.259   4.923
18293TIP3    H176294   1.209   5.308   5.005
18293TIP3    H276295   1.189   5.171   4.945
18294TIP3   OH276296   0.768   5.101   5.309
18294TIP3    H176297   0.738   5.088   5.399
18294TIP3    H276298   0.690   5.084   5.255
18295TIP3   OH276299   1.277   4.661   4.041
18295TIP3    H176300   1.329   4.691   4.116
18295TIP3    H276301   1.330   4.685   3.965
18296TIP3   OH276302   1.054   5.311   4.372
18296TIP3    H176303   1.134   5.336   4.419
18296TIP3    H276304   1.023   5.392   4.333
18297TIP3   OH276305   1.640   3.815   4.027
18297TIP3    H176306   1.556   3.838   4.067
18297TIP3    H276307   1.678   3.899   4.001
18298TIP3   OH276308   0.482   4.698   4.212
18298TIP3    H176309   0.420   4.762   4.176
18298TIP3    H276310   0.429   4.619   4.227
18299TIP3   OH276311   1.781   5.264   3.868
18299TIP3    H176312   1.793   5.356   3.893
18299TIP3    H276313   1.870   5.228   3.865
18300TIP3   OH276314   0.114   4.904   5.130
18300TIP3    H176315   0.039   4.897   5.072
18300TIP3    H276316   0.108   4.828   5.188
18301TIP3   OH276317   0.139   5.214   4.726
18301TIP3    H176318   0.226   5.180   4.743
18301TIP3    H276319   0.089   5.195   4.805
18302TIP3   OH276320   1.868   5.316   5.398
18302TIP3    H176321   1.861   5.222   5.382
18302TIP3    H276322   1.781   5.342   5.430
18303TIP3   OH276323   0.956   5.291   5.249
18303TIP3    H176324   0.948   5.356   5.319
18303TIP3    H276325   0.893   5.223   5.273
18304TIP3   OH276326   1.025   5.563   4.244
18304TIP3    H176327   1.001   5.593   4.156
18304TIP3    H276328   1.026   5.642   4.297
18305TIP3   OH276329   0.367   5.472   4.431
18305TIP3    H176330   0.395   5.442   4.518
18305TIP3    H276331   0.327   5.395   4.390
18306TIP3   OH276332   1.309   5.540   3.925
18306TIP3    H176333   1.362   5.469   3.891
18306TIP3    H276334   1.319   5.534   4.020
18307TIP3   OH276335   1.297   5.525   4.200
18307TIP3    H176336   1.205   5.524   4.227
18307TIP3    H276337   1.343   5.485   4.273
18308TIP3   OH276338   1.597   4.415   5.406
18308TIP3    H176339   1.515   4.464   5.399
18308TIP3    H276340   1.571   4.323   5.402
18309TIP3   OH276341   0.543   3.919   4.837
18309TIP3    H176342   0.465   3.918   4.781
18309TIP3    H276343   0.527   3.992   4.897
18310TIP3   OH276344   1.036   3.884   5.176
18310TIP3    H176345   1.087   3.832   5.238
18310TIP3    H276346   0.945   3.870   5.201
18311TIP3   OH276347   1.308   4.261   5.258
18311TIP3    H176348   1.252   4.257   5.335
18311TIP3    H276349   1.317   4.354   5.240
18312TIP3   OH276350   1.414   4.684   3.796
18312TIP3    H176351   1.408   4.704   3.703
18312TIP3    H276352   1.498   4.721   3.824
18313TIP3   OH276353   0.973   4.127   3.902
18313TIP3    H176354   0.926   4.117   3.985
18313TIP3    H276355   0.936   4.058   3.846
18314TIP3   OH276356   0.573   4.452   4.945
18314TIP3    H176357   0.562   4.468   5.039
18314TIP3    H276358   0.574   4.539   4.906
18315TIP3   OH276359   0.569   4.438   4.435
18315TIP3    H176360   0.474   4.426   4.434
18315TIP3    H276361   0.596   4.415   4.346
18316TIP3   OH276362   1.093   4.463   4.299
18316TIP3    H176363   1.071   4.551   4.268
18316TIP3    H276364   1.168   4.437   4.246
18317TIP3   OH276365   1.060   4.509   5.415
18317TIP3    H176366   1.014   4.564   5.479
18317TIP3    H276367   1.144   4.552   5.402
18318TIP3   OH276368   1.140   4.376   4.563
18318TIP3    H176369   1.118   4.425   4.484
18318TIP3    H276370   1.215   4.322   4.537
18319TIP3   OH276371   0.323   4.425   5.128
18319TIP3    H176372   0.393   4.451   5.189
18319TIP3    H276373   0.293   4.341   5.162
18320TIP3   OH276374   0.652   4.173   3.787
18320TIP3    H176375   0.628   4.159   3.878
18320TIP3    H276376   0.601   4.250   3.760
18321TIP3   OH276377   0.034   4.220   4.475
18321TIP3    H176378   0.087   4.221   4.555
18321TIP3    H276379   0.026   4.127   4.453
18322TIP3   OH276380   0.091   4.308   4.078
18322TIP3    H176381   0.127   4.328   3.992
18322TIP3    H276382   0.113   4.384   4.132
18323TIP3   OH276383   1.105   4.569   5.020
18323TIP3    H176384   1.153   4.518   4.955
18323TIP3    H276385   1.064   4.503   5.076
18324TIP3   OH276386   0.845   4.162   4.518
18324TIP3    H176387   0.761   4.170   4.563
18324TIP3    H276388   0.904   4.124   4.583
18325TIP3   OH276389   0.310   4.351   4.412
18325TIP3    H176390   0.235   4.367   4.354
18325TIP3    H276391   0.337   4.261   4.390
18326TIP3   OH276392   0.618   4.353   4.176
18326TIP3    H176393   0.712   4.350   4.196
18326TIP3    H276394   0.613   4.398   4.092
18327TIP3   OH276395   1.249   4.122   4.844
18327TIP3    H176396   1.211   4.123   4.931
18327TIP3    H276397   1.183   4.080   4.789
18328TIP3   OH276398   0.582   4.450   3.921
18328TIP3    H176399   0.529   4.436   3.842
18328TIP3    H276400   0.658   4.500   3.890
18329TIP3   OH276401   1.585   5.683   5.496
18329TIP3    H176402   1.624   5.713   5.415
18329TIP3    H276403   1.652   5.698   5.563
18330TIP3   OH276404   0.916   4.461   4.715
18330TIP3    H176405   0.990   4.422   4.670
18330TIP3    H276406   0.900   4.403   4.789
18331TIP3   OH276407   0.425   4.098   4.372
18331TIP3    H176408   0.384   4.015   4.396
18331TIP3    H276409   0.477   4.078   4.295
18332TIP3   OH276410   0.820   4.321   4.950
18332TIP3    H176411   0.743   4.377   4.952
18332TIP3    H276412   0.873   4.350   5.024
18333TIP3   OH276413   0.858   4.916   4.117
18333TIP3    H176414   0.786   4.875   4.069
18333TIP3    H276415   0.820   4.939   4.202
18334TIP3   OH276416   1.569   4.840   4.999
18334TIP3    H176417   1.606   4.850   4.911
18334TIP3    H276418   1.480   4.808   4.983
18335TIP3   OH276419   1.226   4.235   3.901
18335TIP3    H176420   1.136   4.203   3.912
18335TIP3    H276421   1.245   4.281   3.982
18336TIP3   OH276422   1.011   4.961   5.238
18336TIP3    H176423   1.066   4.939   5.313
18336TIP3    H276424   0.935   5.005   5.276
18337TIP3   OH276425   1.301   4.385   4.121
18337TIP3    H176426   1.383   4.363   4.164
18337TIP3    H276427   1.311   4.478   4.098
18338TIP3   OH276428   0.370   4.839   4.667
18338TIP3    H176429   0.433   4.839   4.595
18338TIP3    H276430   0.414   4.790   4.737
18339TIP3   OH276431   1.076   5.064   4.035
18339TIP3    H176432   1.042   5.153   4.045
18339TIP3    H276433   1.003   5.008   4.061
18340TIP3   OH276434   0.040   4.701   5.310
18340TIP3    H176435   0.108   4.677   5.374
18340TIP3    H276436   0.032   4.624   5.254
18341TIP3   OH276437   1.231   5.227   5.264
18341TIP3    H176438   1.138   5.241   5.248
18341TIP3    H276439   1.238   5.216   5.359
18342TIP3   OH276440   1.796   4.440   4.068
18342TIP3    H176441   1.745   4.416   3.990
18342TIP3    H276442   1.807   4.535   4.061
18343TIP3   OH276443   1.832   5.043   5.355
18343TIP3    H176444   1.739   5.027   5.338
18343TIP3    H276445   1.876   5.011   5.276
18344TIP3   OH276446   1.613   5.294   4.143
18344TIP3    H176447   1.565   5.235   4.201
18344TIP3    H276448   1.658   5.236   4.082
18345TIP3   OH276449   1.352   4.755   4.841
18345TIP3    H176450   1.281   4.781   4.782
18345TIP3    H276451   1.431   4.765   4.788
18346TIP3   OH276452   0.646   5.219   4.462
18346TIP3    H176453   0.671   5.301   4.420
18346TIP3    H276454   0.570   5.241   4.516
18347TIP3   OH276455   0.197   4.692   3.904
18347TIP3    H176456   0.254   4.747   3.958
18347TIP3    H276457   0.109   4.710   3.937
18348TIP3   OH276458   0.716   4.983   4.337
18348TIP3    H176459   0.703   5.068   4.379
18348TIP3    H276460   0.667   4.922   4.392
18349TIP3   OH276461   0.833   5.397   5.027
18349TIP3    H176462   0.891   5.469   5.005
18349TIP3    H276463   0.878   5.349   5.097
18350TIP3   OH276464   0.633   5.478   4.352
18350TIP3    H176465   0.540   5.492   4.370
18350TIP3    H276466   0.675   5.557   4.386
18351TIP3   OH276467   1.140   5.001   4.999
18351TIP3    H176468   1.097   4.988   5.084
18351TIP3    H276469   1.215   4.941   5.001
18352TIP3   OH276470   1.405   5.092   3.936
18352TIP3    H176471   1.447   5.036   4.002
18352TIP3    H276472   1.311   5.087   3.957
18353TIP3   OH276473   1.446   5.399   5.234
18353TIP3    H176474   1.370   5.342   5.240
18353TIP3    H276475   1.418   5.470   5.176
18354TIP3   OH276476   1.840   5.527   3.938
18354TIP3    H176477   1.908   5.594   3.929
18354TIP3    H276478   1.760   5.577   3.956
18355TIP3   OH276479   0.255   4.160   5.217
18355TIP3    H176480   0.180   4.194   5.266
18355TIP3    H276481   0.286   4.086   5.269
18356TIP3   OH276482   1.525   4.920   4.110
18356TIP3    H176483   1.481   4.865   4.175
18356TIP3    H276484   1.617   4.921   4.138
18357TIP3   OH276485   0.219   5.407   5.009
18357TIP3    H176486   0.235   5.323   5.053
18357TIP3    H276487   0.245   5.473   5.073
18358TIP3   OH276488   0.787   5.192   3.769
18358TIP3    H176489   0.796   5.105   3.730
18358TIP3    H276490   0.746   5.176   3.854
18359TIP3   OH276491   0.663   5.153   4.016
18359TIP3    H176492   0.711   5.100   4.080
18359TIP3    H276493   0.672   5.243   4.047
18360TIP3   OH276494   0.309   4.875   4.081
18360TIP3    H176495   0.239   4.922   4.128
18360TIP3    H276496   0.358   4.943   4.036
18361TIP3   OH276497   1.134   4.128   5.092
18361TIP3    H176498   1.202   4.155   5.154
18361TIP3    H276499   1.101   4.045   5.127
18362TIP3   OH276500   1.218   4.076   4.243
18362TIP3    H176501   1.219   4.147   4.178
18362TIP3    H276502   1.256   4.115   4.321
18363TIP3   OH276503   0.961   5.307   4.059
18363TIP3    H176504   0.872   5.334   4.083
18363TIP3    H276505   1.012   5.388   4.060
18364TIP3   OH276506   0.869   4.307   4.285
18364TIP3    H176507   0.945   4.364   4.292
18364TIP3    H276508   0.862   4.266   4.371
18365TIP3   OH276509   0.987   4.370   5.170
18365TIP3    H176510   1.003   4.398   5.260
18365TIP3    H276511   1.032   4.286   5.163
18366TIP3   OH276512   0.981   3.959   4.341
18366TIP3    H176513   0.966   4.015   4.418
18366TIP3    H276514   1.067   3.986   4.309
18367TIP3   OH276515   0.705   5.406   4.099
18367TIP3    H176516   0.713   5.487   4.049
18367TIP3    H276517   0.683   5.435   4.187
18368TIP3   OH276518   0.573   4.111   4.047
18368TIP3    H176519   0.566   4.194   4.094
18368TIP3    H276520   0.658   4.075   4.074
18369TIP3   OH276521   1.562   4.159   5.289
18369TIP3    H176522   1.472   4.181   5.268
18369TIP3    H276523   1.614   4.195   5.217
18370TIP3   OH276524   1.441   4.455   4.635
18370TIP3    H176525   1.390   4.514   4.690
18370TIP3    H276526   1.504   4.415   4.696
18371TIP3   OH276527   0.409   5.086   3.923
18371TIP3    H176528   0.480   5.133   3.967
18371TIP3    H276529   0.453   5.030   3.859
18372TIP3   OH276530   0.188   4.418   3.845
18372TIP3    H176531   0.213   4.504   3.880
18372TIP3    H276532   0.187   4.430   3.750
18373TIP3   OH276533   1.570   5.500   4.828
18373TIP3    H176534   1.557   5.567   4.762
18373TIP3    H276535   1.665   5.497   4.842
18374TIP3   OH276536   0.293   3.895   4.708
18374TIP3    H176537   0.307   3.879   4.615
18374TIP3    H276538   0.270   3.809   4.744
18375TIP3   OH276539   0.146   5.286   4.311
18375TIP3    H176540   0.123   5.325   4.395
18375TIP3    H276541   0.140   5.358   4.249
18376TIP3   OH276542   0.195   5.524   5.511
18376TIP3    H176543   0.267   5.468   5.539
18376TIP3    H276544   0.127   5.462   5.484
18377TIP3   OH276545   0.997   5.372   3.750
18377TIP3    H176546   0.928   5.308   3.770
18377TIP3    H276547   1.075   5.319   3.733
18378TIP3   OH276548   1.249   5.200   5.533
18378TIP3    H176549   1.268   5.110   5.561
18378TIP3    H276550   1.310   5.254   5.583
18379TIP3   OH276551   1.449   5.333   3.806
18379TIP3    H176552   1.444   5.258   3.864
18379TIP3    H276553   1.540   5.336   3.777
18380TIP3   OH276554   0.546   4.905   3.773
18380TIP3    H176555   0.573   4.860   3.854
18380TIP3    H276556   0.628   4.921   3.726
18381TIP3   OH276557   1.117   5.066   3.762
18381TIP3    H176558   1.098   5.063   3.856
18381TIP3    H276559   1.108   4.975   3.734
18382TIP3   OH276560   1.333   4.957   5.256
18382TIP3    H176561   1.428   4.971   5.257
18382TIP3    H276562   1.296   5.045   5.257
18383TIP3   OH276563   0.233   4.617   5.486
18383TIP3    H176564   0.314   4.571   5.464
18383TIP3    H276565   0.211   4.586   5.573
18384TIP3   OH276566   0.647   4.778   3.998
18384TIP3    H176567   0.603   4.739   4.073
18384TIP3    H276568   0.693   4.706   3.955
18385TIP3   OH276569   0.580   4.527   5.211
18385TIP3    H176570   0.557   4.559   5.298
18385TIP3    H276571   0.659   4.576   5.187
18386TIP3   OH276572   0.789   4.603   3.832
18386TIP3    H176573   0.791   4.632   3.741
18386TIP3    H276574   0.881   4.596   3.857
18387TIP3   OH276575   1.153   4.737   5.594
18387TIP3    H176576   1.233   4.729   5.542
18387TIP3    H276577   1.162   4.820   5.640
18388TIP3   OH276578   1.670   4.795   3.789
18388TIP3    H176579   1.675   4.776   3.696
18388TIP3    H276580   1.660   4.890   3.794
18389TIP3   OH276581   0.646   4.286   5.338
18389TIP3    H176582   0.677   4.210   5.288
18389TIP3    H276583   0.645   4.357   5.274
18390TIP3   OH276584   0.696   4.114   5.106
18390TIP3    H176585   0.747   4.169   5.046
18390TIP3    H276586   0.606   4.120   5.074
18391TIP3   OH276587   0.799   4.652   5.107
18391TIP3    H176588   0.894   4.653   5.104
18391TIP3    H276589   0.772   4.737   5.073
18392TIP3   OH276590   1.361   4.714   5.393
18392TIP3    H176591   1.337   4.801   5.360
18392TIP3    H276592   1.452   4.723   5.420
18393TIP3   OH276593   0.449   4.435   5.462
18393TIP3    H176594   0.395   4.381   5.520
18393TIP3    H276595   0.519   4.377   5.433
18394TIP3   OH276596   0.756   3.852   5.175
18394TIP3    H176597   0.736   3.943   5.156
18394TIP3    H276598   0.684   3.803   5.135
18395TIP3   OH276599   1.123   4.158   5.452
18395TIP3    H176600   1.031   4.154   5.479
18395TIP3    H276601   1.157   4.070   5.469
18396TIP3   OH276602   0.316   4.196   5.548
18396TIP3    H176603   0.327   4.116   5.497
18396TIP3    H276604   0.327   4.168   5.639
18397TIP3   OH276605   0.764   3.798   5.447
18397TIP3    H176606   0.822   3.723   5.455
18397TIP3    H276607   0.757   3.814   5.353
18398TIP3   OH276608   0.858   4.013   5.609
18398TIP3    H176609   0.823   3.948   5.549
18398TIP3    H276610   0.836   3.980   5.697
18399TIP3   OH276611   0.765   5.627   3.953
18399TIP3    H176612   0.860   5.616   3.946
18399TIP3    H276613   0.752   5.722   3.962
18400TIP3   OH276614   0.137   5.101   3.882
18400TIP3    H176615   0.232   5.104   3.890
18400TIP3    H276616   0.121   5.048   3.804
18401TIP3   OH276617   0.066   5.647   4.366
18401TIP3    H176618   0.061   5.607   4.279
18401TIP3    H276619   0.064   5.572   4.426
18402TIP3   OH276620   0.080   5.417   4.553
18402TIP3    H176621   0.085   5.335   4.602
18402TIP3    H276622   0.130   5.480   4.606
18403TIP3   OH276623   1.837   5.511   4.896
18403TIP3    H176624   1.839   5.516   4.992
18403TIP3    H276625   1.922   5.546   4.869
18404TIP3   OH276626   1.791   5.475   5.173
18404TIP3    H176627   1.737   5.408   5.131
18404TIP3    H276628   1.833   5.429   5.246
18405TIP3   OH276629   1.792   4.894   4.190
18405TIP3    H176630   1.860   4.962   4.197
18405TIP3    H276631   1.807   4.838   4.266
18406TIP3   OH276632   1.842   4.694   4.379
18406TIP3    H176633   1.758   4.670   4.418
18406TIP3    H276634   1.898   4.714   4.455
18407TIP3   OH276635   1.833   4.971   4.873
18407TIP3    H176636   1.782   4.917   4.813
18407TIP3    H276637   1.837   5.057   4.830
18408TIP3   OH276638   1.632   5.270   5.076
18408TIP3    H176639   1.561   5.305   5.130
18408TIP3    H276640   1.591   5.248   4.993
18409TIP3   OH276641   1.825   4.704   3.996
18409TIP3    H176642   1.764   4.732   3.928
18409TIP3    H276643   1.813   4.767   4.067
18410TIP3   OH276644   1.692   4.395   3.813
18410TIP3    H176645   1.651   4.452   3.749
18410TIP3    H276646   1.666   4.307   3.787
18411TIP3   OH276647   1.580   4.614   4.459
18411TIP3    H176648   1.534   4.544   4.505
18411TIP3    H276649   1.597   4.680   4.526
18412TIP3   OH276650   0.119   4.782   4.811
18412TIP3    H176651   0.176   4.825   4.747
18412TIP3    H276652   0.180   4.747   4.877
18413TIP3   OH276653   1.630   4.749   5.430
18413TIP3    H176654   1.715   4.706   5.437
18413TIP3    H276655   1.632   4.818   5.496
18414TIP3   OH276656   1.840   4.537   5.417
18414TIP3    H176657   1.750   4.503   5.417
18414TIP3    H276658   1.894   4.460   5.435
18415TIP3   OH276659   1.600   4.149   3.719
18415TIP3    H176660   1.633   4.104   3.797
18415TIP3    H276661   1.508   4.123   3.714
18416TIP3   OH276662   1.536   4.311   4.247
18416TIP3    H176663   1.578   4.224   4.247
18416TIP3    H276664   1.608   4.372   4.264
18417TIP3   OH276665   1.608   4.333   4.819
18417TIP3    H176666   1.698   4.356   4.798
18417TIP3    H276667   1.595   4.363   4.909
18418TIP3   OH276668   1.612   4.436   5.081
18418TIP3    H176669   1.532   4.467   5.124
18418TIP3    H276670   1.667   4.514   5.073
18419TIP3   OH276671   0.068   4.223   5.430
18419TIP3    H176672   0.157   4.243   5.460
18419TIP3    H276673   0.023   4.193   5.509
18420TIP3   OH276674   1.850   3.862   5.613
18420TIP3    H176675   1.910   3.798   5.576
18420TIP3    H276676   1.847   3.933   5.548
18421TIP3   OH276677   1.633   4.048   4.263
18421TIP3    H176678   1.654   4.013   4.349
18421TIP3    H276679   1.561   3.993   4.231
18422TIP3   OH276680   0.184   4.146   4.718
18422TIP3    H176681   0.219   4.057   4.724
18422TIP3    H276682   0.256   4.202   4.748
18423TIP3   OH276683   0.028   4.511   4.845
18423TIP3    H176684   0.097   4.483   4.785
18423TIP3    H276685   0.051   4.601   4.868
18424TIP3   OH276686   1.780   4.045   5.422
18424TIP3    H176687   1.699   4.096   5.427
18424TIP3    H276688   1.768   3.988   5.346
18425TIP3   OH276689   1.761   4.039   3.915
18425TIP3    H176690   1.812   3.978   3.862
18425TIP3    H276691   1.826   4.095   3.956
18426TIP3   OH276692   0.120   4.040   4.158
18426TIP3    H176693   0.047   4.032   4.220
18426TIP3    H276694   0.118   4.132   4.131
18427TIP3   OH276695   1.497   5.554   4.425
18427TIP3    H176696   1.576   5.554   4.370
18427TIP3    H276697   1.522   5.603   4.503
18428TIP3   OH276698   0.053   3.904   5.097
18428TIP3    H176699   0.028   3.967   5.164
18428TIP3    H276700   0.012   3.938   5.017
18429TIP3   OH276701   0.562   5.337   5.067
18429TIP3    H176702   0.538   5.430   5.066
18429TIP3    H276703   0.657   5.336   5.061
18430TIP3   OH276704   0.949   5.487   5.448
18430TIP3    H176705   0.965   5.431   5.524
18430TIP3    H276706   1.034   5.525   5.427
18431TIP3   OH276707   1.185   5.593   5.344
18431TIP3    H176708   1.198   5.548   5.260
18431TIP3    H276709   1.266   5.576   5.393
18432TIP3   OH276710   1.703   3.854   5.232
18432TIP3    H176711   1.628   3.883   5.180
18432TIP3    H276712   1.710   3.760   5.215
18433TIP3   OH276713   0.278   5.647   5.146
18433TIP3    H176714   0.208   5.707   5.122
18433TIP3    H276715   0.292   5.663   5.240
18434TIP3   OH276716   0.538   5.619   5.046
18434TIP3    H176717   0.447   5.632   5.075
18434TIP3    H276718   0.544   5.668   4.964
18435TIP3   OH276719   0.988   5.614   4.953
18435TIP3    H176720   0.943   5.653   4.878
18435TIP3    H276721   0.998   5.687   5.015
18436TIP3   OH276722   1.210   5.505   5.082
18436TIP3    H176723   1.135   5.531   5.028
18436TIP3    H276724   1.283   5.556   5.049
18437TIP3   OH276725   1.449   5.631   5.037
18437TIP3    H176726   1.475   5.721   5.022
18437TIP3    H276727   1.492   5.581   4.967
18438TIP3   OH276728   0.230   5.523   4.766
18438TIP3    H176729   0.221   5.489   4.855
18438TIP3    H276730   0.308   5.479   4.731
18439TIP3   OH276731   0.448   5.380   4.675
18439TIP3    H176732   0.431   5.293   4.710
18439TIP3    H276733   0.531   5.406   4.715
18440TIP3   OH276734   0.702   5.416   4.784
18440TIP3    H176735   0.714   5.324   4.760
18440TIP3    H276736   0.736   5.422   4.873
18441TIP3   OH276737   1.005   3.989   4.656
18441TIP3    H176738   0.952   3.919   4.694
18441TIP3    H276739   1.085   3.946   4.626
18442TIP3   OH276740   1.532   3.837   4.656
18442TIP3    H176741   1.606   3.875   4.608
18442TIP3    H276742   1.488   3.912   4.696
18443TIP3   OH276743   1.727   3.929   4.493
18443TIP3    H176744   1.793   3.863   4.470
18443TIP3    H276745   1.778   4.008   4.511
18444TIP3   OH276746   0.311   3.854   4.436
18444TIP3    H176747   0.222   3.842   4.401
18444TIP3    H276748   0.352   3.768   4.427
18445TIP3   OH276749   0.226   3.830   4.025
18445TIP3    H176750   0.278   3.878   3.960
18445TIP3    H276751   0.188   3.897   4.080
18446TIP3   OH276752   0.752   3.823   4.457
18446TIP3    H176753   0.825   3.872   4.419
18446TIP3    H276754   0.769   3.825   4.551
18447TIP3   OH276755   1.230   3.859   4.576
18447TIP3    H176756   1.320   3.854   4.545
18447TIP3    H276757   1.214   3.774   4.618
18448TIP3   OH276758   1.418   3.891   4.174
18448TIP3    H176759   1.345   3.951   4.194
18448TIP3    H276760   1.383   3.804   4.192
18449TIP3   OH276761   0.113   5.491   4.130
18449TIP3    H176762   0.080   5.448   4.051
18449TIP3    H276763   0.165   5.565   4.098
18450TIP3   OH276764   0.386   4.003   3.871
18450TIP3    H176765   0.444   3.956   3.812
18450TIP3    H276766   0.443   4.037   3.939
18451TIP3   OH276767   0.833   4.082   4.137
18451TIP3    H176768   0.872   4.015   4.193
18451TIP3    H276769   0.845   4.164   4.184
18452TIP3   OH276770   1.034   5.562   3.948
18452TIP3    H176771   1.128   5.576   3.944
18452TIP3    H276772   1.015   5.501   3.877
18453TIP3   OH276773   1.701   5.538   4.236
18453TIP3    H176774   1.676   5.450   4.207
18453TIP3    H276775   1.688   5.593   4.159
18454TIP3   OH276776   0.315   3.953   5.392
18454TIP3    H176777   0.260   3.876   5.403
18454TIP3    H276778   0.396   3.932   5.438
18455TIP3   OH276779   0.511   3.851   5.554
18455TIP3    H176780   0.600   3.829   5.530
18455TIP3    H276781   0.476   3.772   5.596
18456TIP3   OH276782   0.311   5.510   3.824
18456TIP3    H176783   0.312   5.563   3.903
18456TIP3    H276784   0.400   5.475   3.818
18457TIP3   OH276785   1.332   3.745   5.576
18457TIP3    H176786   1.331   3.663   5.624
18457TIP3    H276787   1.425   3.767   5.568
18458TIP3   OH276788   1.618   5.414   5.457
18458TIP3    H176789   1.558   5.391   5.387
18458TIP3    H276790   1.598   5.505   5.478
18459TIP3   OH276791   3.080   4.804   4.400
18459TIP3    H176792   3.070   4.898   4.385
18459TIP3    H276793   2.998   4.778   4.442
18460TIP3   OH276794   2.955   4.712   4.809
18460TIP3    H176795   2.978   4.680   4.896
18460TIP3    H276796   2.904   4.642   4.770
18461TIP3   OH276797   2.196   4.661   4.970
18461TIP3    H176798   2.188   4.574   5.009
18461TIP3    H276799   2.231   4.716   5.039
18462TIP3   OH276800   3.342   5.025   4.640
18462TIP3    H176801   3.309   4.950   4.688
18462TIP3    H276802   3.362   5.090   4.708
18463TIP3   OH276803   2.315   5.112   4.755
18463TIP3    H176804   2.279   5.025   4.740
18463TIP3    H276805   2.406   5.096   4.781
18464TIP3   OH276806   1.972   4.460   4.287
18464TIP3    H176807   1.942   4.539   4.331
18464TIP3    H276808   1.906   4.443   4.220
18465TIP3   OH276809   2.043   4.711   4.573
18465TIP3    H176810   2.062   4.624   4.606
18465TIP3    H276811   2.113   4.766   4.608
18466TIP3   OH276812   3.072   5.508   4.678
18466TIP3    H176813   3.108   5.445   4.616
18466TIP3    H276814   3.036   5.455   4.749
18467TIP3   OH276815   2.814   4.965   4.832
18467TIP3    H176816   2.848   4.880   4.804
18467TIP3    H276817   2.881   4.998   4.892
18468TIP3   OH276818   3.687   4.119   4.935
18468TIP3    H176819   3.701   4.177   5.009
18468TIP3    H276820   3.728   4.163   4.861
18469TIP3   OH276821   3.116   4.390   4.841
18469TIP3    H176822   3.127   4.297   4.859
18469TIP3    H276823   3.102   4.394   4.746
18470TIP3   OH276824   2.463   4.197   4.571
18470TIP3    H176825   2.466   4.283   4.530
18470TIP3    H276826   2.402   4.146   4.517
18471TIP3   OH276827   3.246   4.223   4.421
18471TIP3    H176828   3.286   4.190   4.501
18471TIP3    H276829   3.319   4.262   4.372
18472TIP3   OH276830   2.107   4.451   4.650
18472TIP3    H176831   2.169   4.412   4.712
18472TIP3    H276832   2.131   4.414   4.565
18473TIP3   OH276833   2.613   4.597   4.591
18473TIP3    H176834   2.686   4.552   4.632
18473TIP3    H276835   2.565   4.529   4.545
18474TIP3   OH276836   3.722   4.275   5.161
18474TIP3    H176837   3.648   4.333   5.142
18474TIP3    H276838   3.744   4.293   5.252
18475TIP3   OH276839   2.323   4.110   4.996
18475TIP3    H176840   2.300   4.174   4.928
18475TIP3    H276841   2.253   4.117   5.060
18476TIP3   OH276842   3.053   5.062   4.307
18476TIP3    H176843   3.029   5.061   4.214
18476TIP3    H276844   3.006   5.138   4.343
18477TIP3   OH276845   2.586   4.884   4.975
18477TIP3    H176846   2.532   4.952   5.016
18477TIP3    H276847   2.657   4.933   4.933
18478TIP3   OH276848   3.351   4.162   4.664
18478TIP3    H176849   3.277   4.140   4.720
18478TIP3    H276850   3.402   4.225   4.714
18479TIP3   OH276851   2.296   4.284   4.779
18479TIP3    H176852   2.348   4.343   4.834
18479TIP3    H276853   2.359   4.249   4.716
18480TIP3   OH276854   2.434   5.088   5.091
18480TIP3    H176855   2.437   5.184   5.082
18480TIP3    H276856   2.342   5.070   5.113
18481TIP3   OH276857   2.007   5.081   4.179
18481TIP3    H176858   1.994   5.159   4.125
18481TIP3    H276859   2.041   5.113   4.262
18482TIP3   OH276860   3.376   5.231   4.834
18482TIP3    H176861   3.283   5.230   4.855
18482TIP3    H276862   3.396   5.323   4.816
18483TIP3   OH276863   3.437   4.000   5.000
18483TIP3    H176864   3.369   4.058   4.968
18483TIP3    H276865   3.519   4.036   4.966
18484TIP3   OH276866   2.675   3.801   4.738
18484TIP3    H176867   2.650   3.709   4.744
18484TIP3    H276868   2.600   3.849   4.773
18485TIP3   OH276869   3.198   5.377   4.462
18485TIP3    H176870   3.239   5.293   4.446
18485TIP3    H276871   3.270   5.440   4.465
18486TIP3   OH276872   3.312   5.137   4.388
18486TIP3    H176873   3.231   5.096   4.358
18486TIP3    H276874   3.333   5.092   4.470
18487TIP3   OH276875   3.494   5.018   5.201
18487TIP3    H176876   3.484   4.955   5.130
18487TIP3    H276877   3.507   5.102   5.157
18488TIP3   OH276878   2.918   4.685   4.162
18488TIP3    H176879   2.856   4.758   4.159
18488TIP3    H276880   3.004   4.726   4.152
18489TIP3   OH276881   2.941   4.599   3.866
18489TIP3    H176882   2.974   4.612   3.955
18489TIP3    H276883   3.003   4.538   3.825
18490TIP3   OH276884   3.661   4.664   5.031
18490TIP3    H176885   3.588   4.725   5.027
18490TIP3    H276886   3.721   4.694   4.962
18491TIP3   OH276887   3.305   4.732   4.267
18491TIP3    H176888   3.232   4.756   4.323
18491TIP3    H276889   3.366   4.686   4.324
18492TIP3   OH276890   3.257   4.533   5.198
18492TIP3    H176891   3.259   4.597   5.269
18492TIP3    H276892   3.185   4.562   5.142
18493TIP3   OH276893   2.457   4.793   4.473
18493TIP3    H176894   2.426   4.753   4.392
18493TIP3    H276895   2.514   4.726   4.512
18494TIP3   OH276896   2.608   5.143   4.734
18494TIP3    H176897   2.603   5.142   4.638
18494TIP3    H276898   2.681   5.084   4.755
18495TIP3   OH276899   2.476   4.682   4.822
18495TIP3    H176900   2.537   4.668   4.750
18495TIP3    H276901   2.516   4.751   4.874
18496TIP3   OH276902   3.117   5.240   4.914
18496TIP3    H176903   3.100   5.310   4.977
18496TIP3    H276904   3.077   5.162   4.952
18497TIP3   OH276905   2.588   5.125   5.322
18497TIP3    H176906   2.526   5.186   5.361
18497TIP3    H276907   2.543   5.091   5.244
18498TIP3   OH276908   3.181   4.644   4.039
18498TIP3    H176909   3.230   4.685   4.110
18498TIP3    H276910   3.221   4.677   3.959
18499TIP3   OH276911   2.266   4.726   5.240
18499TIP3    H176912   2.278   4.796   5.304
18499TIP3    H276913   2.174   4.703   5.246
18500TIP3   OH276914   2.945   5.304   4.380
18500TIP3    H176915   3.025   5.340   4.418
18500TIP3    H276916   2.894   5.380   4.354
18501TIP3   OH276917   2.397   5.313   5.395
18501TIP3    H176918   2.392   5.336   5.303
18501TIP3    H276919   2.306   5.301   5.422
18502TIP3   OH276920   3.525   3.811   4.030
18502TIP3    H176921   3.441   3.835   4.069
18502TIP3    H276922   3.563   3.895   4.002
18503TIP3   OH276923   2.353   4.710   4.208
18503TIP3    H176924   2.292   4.775   4.173
18503TIP3    H276925   2.298   4.636   4.232
18504TIP3   OH276926   3.665   5.260   3.881
18504TIP3    H176927   3.678   5.353   3.897
18504TIP3    H276928   3.754   5.223   3.879
18505TIP3   OH276929   1.955   4.946   5.125
18505TIP3    H176930   1.911   4.948   5.040
18505TIP3    H276931   1.964   4.853   5.145
18506TIP3   OH276932   1.922   5.237   4.791
18506TIP3    H176933   2.002   5.205   4.832
18506TIP3    H276934   1.887   5.302   4.852
18507TIP3   OH276935   3.760   5.298   5.386
18507TIP3    H176936   3.751   5.203   5.390
18507TIP3    H276937   3.674   5.332   5.412
18508TIP3   OH276938   2.829   5.250   5.273
18508TIP3    H176939   2.824   5.333   5.321
18508TIP3    H276940   2.745   5.207   5.291
18509TIP3   OH276941   2.918   5.594   4.245
18509TIP3    H176942   2.873   5.600   4.160
18509TIP3    H276943   2.885   5.669   4.294
18510TIP3   OH276944   2.269   5.479   4.453
18510TIP3    H176945   2.282   5.444   4.541
18510TIP3    H276946   2.213   5.415   4.409
18511TIP3   OH276947   3.201   5.543   3.927
18511TIP3    H176948   3.251   5.469   3.893
18511TIP3    H276949   3.207   5.534   4.022
18512TIP3   OH276950   3.179   5.527   4.203
18512TIP3    H176951   3.086   5.543   4.220
18512TIP3    H276952   3.208   5.471   4.275
18513TIP3   OH276953   3.470   4.410   5.418
18513TIP3    H176954   3.386   4.436   5.455
18513TIP3    H276955   3.456   4.320   5.389
18514TIP3   OH276956   2.173   5.099   5.191
18514TIP3    H176957   2.203   5.059   5.273
18514TIP3    H276958   2.096   5.049   5.166
18515TIP3   OH276959   2.435   3.917   4.829
18515TIP3    H176960   2.358   3.910   4.773
18515TIP3    H276961   2.415   3.989   4.889
18516TIP3   OH276962   2.921   3.888   5.157
18516TIP3    H176963   2.967   3.835   5.221
18516TIP3    H276964   2.829   3.879   5.180
18517TIP3   OH276965   3.217   4.262   5.248
18517TIP3    H176966   3.146   4.259   5.312
18517TIP3    H276967   3.227   4.356   5.228
18518TIP3   OH276968   3.295   4.697   3.789
18518TIP3    H176969   3.294   4.709   3.694
18518TIP3    H276970   3.380   4.730   3.816
18519TIP3   OH276971   2.870   4.116   3.906
18519TIP3    H176972   2.818   4.110   3.986
18519TIP3    H276973   2.829   4.054   3.846
18520TIP3   OH276974   2.442   4.440   4.951
18520TIP3    H176975   2.379   4.444   5.022
18520TIP3    H276976   2.445   4.529   4.916
18521TIP3   OH276977   2.450   4.434   4.434
18521TIP3    H176978   2.355   4.425   4.437
18521TIP3    H276979   2.474   4.411   4.344
18522TIP3   OH276980   2.989   4.464   4.312
18522TIP3    H176981   2.959   4.545   4.271
18522TIP3    H276982   3.059   4.433   4.256
18523TIP3   OH276983   2.877   4.488   5.459
18523TIP3    H176984   2.827   4.412   5.489
18523TIP3    H276985   2.968   4.463   5.471
18524TIP3   OH276986   3.088   4.402   4.569
18524TIP3    H176987   3.040   4.446   4.499
18524TIP3    H276988   3.134   4.330   4.525
18525TIP3   OH276989   2.231   4.427   5.131
18525TIP3    H176990   2.237   4.462   5.219
18525TIP3    H276991   2.188   4.342   5.142
18526TIP3   OH276992   2.539   4.177   3.788
18526TIP3    H176993   2.512   4.159   3.877
18526TIP3    H276994   2.484   4.250   3.760
18527TIP3   OH276995   1.901   4.133   4.507
18527TIP3    H176996   1.946   4.147   4.590
18527TIP3    H276997   1.969   4.140   4.441
18528TIP3   OH276998   1.951   4.218   4.021
18528TIP3    H176999   2.023   4.258   3.973
18528TIP3    H277000   1.899   4.293   4.052
18529TIP3   OH277001   3.029   4.562   5.033
18529TIP3    H177002   3.064   4.501   4.968
18529TIP3    H277003   2.969   4.509   5.086
18530TIP3   OH277004   2.740   4.154   4.519
18530TIP3    H177005   2.651   4.162   4.553
18530TIP3    H277006   2.791   4.119   4.592
18531TIP3   OH277007   2.192   4.348   4.409
18531TIP3    H177008   2.116   4.377   4.359
18531TIP3    H277009   2.206   4.258   4.382
18532TIP3   OH277010   2.509   4.348   4.179
18532TIP3    H177011   2.603   4.351   4.196
18532TIP3    H277012   2.499   4.393   4.095
18533TIP3   OH277013   3.132   4.110   4.820
18533TIP3    H177014   3.105   4.105   4.912
18533TIP3    H277015   3.059   4.072   4.772
18534TIP3   OH277016   2.465   4.444   3.924
18534TIP3    H177017   2.405   4.434   3.850
18534TIP3    H277018   2.538   4.495   3.888
18535TIP3   OH277019   3.481   5.683   5.524
18535TIP3    H177020   3.513   5.691   5.434
18535TIP3    H277021   3.558   5.702   5.578
18536TIP3   OH277022   2.267   4.956   5.417
18536TIP3    H177023   2.326   4.963   5.492
18536TIP3    H277024   2.181   4.941   5.456
18537TIP3   OH277025   2.818   4.470   4.729
18537TIP3    H177026   2.890   4.413   4.702
18537TIP3    H277027   2.781   4.427   4.806
18538TIP3   OH277028   2.290   4.082   4.377
18538TIP3    H177029   2.237   4.005   4.400
18538TIP3    H277030   2.346   4.052   4.306
18539TIP3   OH277031   2.707   4.350   4.957
18539TIP3    H177032   2.621   4.391   4.963
18539TIP3    H277033   2.754   4.378   5.035
18540TIP3   OH277034   2.747   4.903   4.128
18540TIP3    H177035   2.673   4.869   4.078
18540TIP3    H277036   2.709   4.934   4.210
18541TIP3   OH277037   3.467   4.856   4.975
18541TIP3    H177038   3.527   4.911   4.926
18541TIP3    H277039   3.394   4.841   4.916
18542TIP3   OH277040   3.115   4.238   3.901
18542TIP3    H177041   3.027   4.202   3.911
18542TIP3    H277042   3.134   4.280   3.984
18543TIP3   OH277043   2.891   4.958   5.254
18543TIP3    H177044   2.896   4.906   5.334
18543TIP3    H277045   2.861   5.044   5.284
18544TIP3   OH277046   3.191   4.382   4.128
18544TIP3    H177047   3.276   4.368   4.168
18544TIP3    H277048   3.192   4.472   4.097
18545TIP3   OH277049   2.271   4.833   4.688
18545TIP3    H177050   2.336   4.825   4.618
18545TIP3    H277051   2.303   4.775   4.757
18546TIP3   OH277052   2.952   5.065   4.041
18546TIP3    H177053   2.916   5.153   4.054
18546TIP3    H277054   2.881   5.006   4.068
18547TIP3   OH277055   1.985   4.681   5.227
18547TIP3    H177056   1.959   4.643   5.310
18547TIP3    H277057   1.914   4.659   5.167
18548TIP3   OH277058   2.693   4.699   5.430
18548TIP3    H177059   2.622   4.649   5.390
18548TIP3    H277060   2.762   4.635   5.445
18549TIP3   OH277061   3.115   5.230   5.283
18549TIP3    H177062   3.020   5.230   5.271
18549TIP3    H277063   3.128   5.240   5.377
18550TIP3   OH277064   3.653   4.435   4.077
18550TIP3    H177065   3.615   4.412   3.992
18550TIP3    H277066   3.675   4.528   4.070
18551TIP3   OH277067   3.708   5.003   5.372
18551TIP3    H177068   3.620   5.015   5.335
18551TIP3    H277069   3.764   4.987   5.296
18552TIP3   OH277070   3.522   5.288   4.154
18552TIP3    H177071   3.470   5.226   4.204
18552TIP3    H277072   3.545   5.240   4.074
18553TIP3   OH277073   3.256   4.796   4.787
18553TIP3    H177074   3.161   4.786   4.794
18553TIP3    H277075   3.285   4.715   4.746
18554TIP3   OH277076   2.519   5.220   4.462
18554TIP3    H177077   2.535   5.306   4.424
18554TIP3    H277078   2.426   5.221   4.485
18555TIP3   OH277079   2.077   4.693   3.890
18555TIP3    H177080   2.129   4.751   3.945
18555TIP3    H277081   1.990   4.691   3.931
18556TIP3   OH277082   2.608   4.988   4.343
18556TIP3    H177083   2.587   5.073   4.383
18556TIP3    H277084   2.557   4.925   4.395
18557TIP3   OH277085   2.720   5.389   5.045
18557TIP3    H177086   2.778   5.462   5.024
18557TIP3    H277087   2.770   5.335   5.106
18558TIP3   OH277088   2.523   5.478   4.349
18558TIP3    H177089   2.430   5.493   4.363
18558TIP3    H277090   2.566   5.556   4.384
18559TIP3   OH277091   3.023   4.998   5.019
18559TIP3    H177092   2.972   4.984   5.099
18559TIP3    H277093   3.101   4.944   5.031
18560TIP3   OH277094   3.292   5.096   3.927
18560TIP3    H177095   3.330   5.042   3.997
18560TIP3    H277096   3.198   5.084   3.937
18561TIP3   OH277097   3.318   5.413   5.229
18561TIP3    H177098   3.241   5.355   5.235
18561TIP3    H277099   3.293   5.479   5.165
18562TIP3   OH277100   3.721   5.529   3.933
18562TIP3    H177101   3.785   5.599   3.923
18562TIP3    H277102   3.640   5.573   3.960
18563TIP3   OH277103   2.112   4.171   5.169
18563TIP3    H177104   2.020   4.195   5.164
18563TIP3    H277105   2.121   4.126   5.253
18564TIP3   OH277106   3.412   4.933   4.109
18564TIP3    H177107   3.367   4.875   4.169
18564TIP3    H277108   3.504   4.927   4.134
18565TIP3   OH277109   2.102   5.346   5.035
18565TIP3    H177110   2.127   5.262   5.074
18565TIP3    H277111   2.105   5.408   5.107
18566TIP3   OH277112   2.667   5.192   3.767
18566TIP3    H177113   2.678   5.105   3.729
18566TIP3    H277114   2.628   5.176   3.853
18567TIP3   OH277115   2.548   5.167   4.016
18567TIP3    H177116   2.571   5.117   4.094
18567TIP3    H277117   2.555   5.259   4.043
18568TIP3   OH277118   2.179   4.885   4.070
18568TIP3    H177119   2.112   4.931   4.120
18568TIP3    H277120   2.226   4.954   4.023
18569TIP3   OH277121   3.052   4.115   5.075
18569TIP3    H177122   3.103   4.149   5.148
18569TIP3    H277123   3.004   4.041   5.112
18570TIP3   OH277124   3.101   4.072   4.244
18570TIP3    H177125   3.084   4.140   4.180
18570TIP3    H277126   3.145   4.117   4.316
18571TIP3   OH277127   2.846   5.312   4.063
18571TIP3    H177128   2.756   5.339   4.082
18571TIP3    H277129   2.892   5.394   4.048
18572TIP3   OH277130   2.766   4.304   4.287
18572TIP3    H177131   2.839   4.364   4.299
18572TIP3    H277132   2.754   4.263   4.373
18573TIP3   OH277133   2.873   4.391   5.186
18573TIP3    H177134   2.858   4.429   5.273
18573TIP3    H277135   2.902   4.302   5.204
18574TIP3   OH277136   2.859   3.964   4.345
18574TIP3    H177137   2.833   4.029   4.410
18574TIP3    H277138   2.948   3.990   4.320
18575TIP3   OH277139   2.596   5.425   4.089
18575TIP3    H177140   2.592   5.509   4.042
18575TIP3    H277141   2.559   5.445   4.176
18576TIP3   OH277142   2.454   4.109   4.043
18576TIP3    H177143   2.445   4.190   4.093
18576TIP3    H277144   2.539   4.074   4.071
18577TIP3   OH277145   3.459   4.150   5.299
18577TIP3    H177146   3.366   4.172   5.290
18577TIP3    H277147   3.490   4.137   5.210
18578TIP3   OH277148   3.328   4.545   4.668
18578TIP3    H177149   3.241   4.506   4.655
18578TIP3    H277150   3.373   4.485   4.727
18579TIP3   OH277151   2.290   5.095   3.924
18579TIP3    H177152   2.355   5.147   3.969
18579TIP3    H277153   2.340   5.042   3.862
18580TIP3   OH277154   2.071   4.409   3.853
18580TIP3    H177155   2.098   4.496   3.884
18580TIP3    H277156   1.980   4.420   3.827
18581TIP3   OH277157   3.456   5.500   4.831
18581TIP3    H177158   3.443   5.570   4.767
18581TIP3    H277159   3.551   5.495   4.842
18582TIP3   OH277160   2.191   3.891   4.701
18582TIP3    H177161   2.179   3.882   4.607
18582TIP3    H277162   2.159   3.808   4.737
18583TIP3   OH277163   2.085   5.286   4.361
18583TIP3    H177164   2.031   5.323   4.431
18583TIP3    H277165   2.051   5.325   4.281
18584TIP3   OH277166   2.020   5.546   5.478
18584TIP3    H177167   2.088   5.487   5.511
18584TIP3    H277168   1.955   5.487   5.440
18585TIP3   OH277169   2.518   5.415   5.624
18585TIP3    H177170   2.576   5.342   5.645
18585TIP3    H277171   2.474   5.389   5.543
18586TIP3   OH277172   2.884   5.360   3.750
18586TIP3    H177173   2.804   5.310   3.767
18586TIP3    H277174   2.953   5.294   3.751
18587TIP3   OH277175   3.154   5.262   5.555
18587TIP3    H177176   3.116   5.180   5.586
18587TIP3    H277177   3.218   5.285   5.623
18588TIP3   OH277178   3.333   5.337   3.800
18588TIP3    H177179   3.329   5.258   3.854
18588TIP3    H277180   3.418   5.332   3.756
18589TIP3   OH277181   2.023   4.923   5.526
18589TIP3    H177182   2.018   4.828   5.526
18589TIP3    H277183   1.942   4.951   5.485
18590TIP3   OH277184   2.441   4.919   3.775
18590TIP3    H177185   2.462   4.872   3.856
18590TIP3    H277186   2.525   4.930   3.731
18591TIP3   OH277187   2.636   4.951   5.534
18591TIP3    H177188   2.626   5.000   5.452
18591TIP3    H277189   2.664   4.864   5.505
18592TIP3   OH277190   3.009   5.077   3.773
18592TIP3    H177191   2.982   5.072   3.864
18592TIP3    H277192   2.998   4.988   3.739
18593TIP3   OH277193   3.229   4.964   5.264
18593TIP3    H177194   3.322   4.987   5.254
18593TIP3    H277195   3.183   5.047   5.268
18594TIP3   OH277196   2.139   4.653   5.521
18594TIP3    H177197   2.189   4.573   5.505
18594TIP3    H277198   2.111   4.646   5.612
18595TIP3   OH277199   2.531   4.782   4.000
18595TIP3    H177200   2.477   4.748   4.072
18595TIP3    H277201   2.569   4.703   3.960
18596TIP3   OH277202   2.503   4.558   5.264
18596TIP3    H177203   2.424   4.610   5.255
18596TIP3    H277204   2.560   4.588   5.193
18597TIP3   OH277205   2.668   4.601   3.831
18597TIP3    H177206   2.670   4.635   3.742
18597TIP3    H277207   2.760   4.595   3.857
18598TIP3   OH277208   3.028   4.787   5.575
18598TIP3    H177209   3.103   4.753   5.527
18598TIP3    H277210   2.987   4.711   5.615
18599TIP3   OH277211   3.557   4.792   3.790
18599TIP3    H177212   3.566   4.773   3.697
18599TIP3    H277213   3.549   4.887   3.794
18600TIP3   OH277214   2.547   4.299   5.359
18600TIP3    H177215   2.552   4.237   5.286
18600TIP3    H277216   2.534   4.384   5.318
18601TIP3   OH277217   2.574   4.136   5.114
18601TIP3    H177218   2.624   4.189   5.052
18601TIP3    H277219   2.486   4.132   5.076
18602TIP3   OH277220   2.689   4.655   5.088
18602TIP3    H177221   2.774   4.681   5.125
18602TIP3    H277222   2.653   4.736   5.051
18603TIP3   OH277223   3.262   4.725   5.402
18603TIP3    H177224   3.242   4.807   5.357
18603TIP3    H277225   3.353   4.734   5.430
18604TIP3   OH277226   2.282   4.408   5.457
18604TIP3    H177227   2.245   4.331   5.499
18604TIP3    H277228   2.376   4.391   5.452
18605TIP3   OH277229   2.646   3.862   5.147
18605TIP3    H177230   2.619   3.954   5.147
18605TIP3    H277231   2.567   3.813   5.123
18606TIP3   OH277232   2.762   4.255   5.537
18606TIP3    H177233   2.755   4.195   5.611
18606TIP3    H277234   2.676   4.252   5.495
18607TIP3   OH277235   3.008   4.225   5.415
18607TIP3    H177236   2.921   4.220   5.455
18607TIP3    H277237   3.064   4.174   5.474
18608TIP3   OH277238   3.167   4.085   5.585
18608TIP3    H177239   3.152   3.990   5.591
18608TIP3    H277240   3.169   4.115   5.676
18609TIP3   OH277241   2.170   4.150   5.526
18609TIP3    H177242   2.172   4.065   5.482
18609TIP3    H277243   2.211   4.133   5.612
18610TIP3   OH277244   2.588   3.765   5.409
18610TIP3    H177245   2.639   3.697   5.451
18610TIP3    H277246   2.637   3.786   5.329
18611TIP3   OH277247   2.673   5.658   3.952
18611TIP3    H177248   2.763   5.626   3.949
18611TIP3    H277249   2.670   5.730   3.889
18612TIP3   OH277250   2.035   5.151   3.829
18612TIP3    H177251   2.113   5.147   3.884
18612TIP3    H277252   2.029   5.064   3.789
18613TIP3   OH277253   1.884   5.631   4.422
18613TIP3    H177254   1.831   5.596   4.350
18613TIP3    H277255   1.908   5.553   4.473
18614TIP3   OH277256   1.965   5.414   4.579
18614TIP3    H177257   1.928   5.340   4.628
18614TIP3    H277258   2.015   5.463   4.643
18615TIP3   OH277259   3.726   5.496   4.893
18615TIP3    H177260   3.721   5.491   4.988
18615TIP3    H277261   3.797   5.557   4.875
18616TIP3   OH277262   3.685   5.453   5.163
18616TIP3    H177263   3.620   5.390   5.130
18616TIP3    H277264   3.728   5.408   5.236
18617TIP3   OH277265   3.495   5.113   5.695
18617TIP3    H177266   3.421   5.173   5.703
18617TIP3    H277267   3.572   5.170   5.697
18618TIP3   OH277268   3.675   4.889   4.190
18618TIP3    H177269   3.747   4.952   4.196
18618TIP3    H277270   3.688   4.831   4.265
18619TIP3   OH277271   3.719   4.692   4.381
18619TIP3    H177272   3.635   4.659   4.413
18619TIP3    H277273   3.772   4.706   4.460
18620TIP3   OH277274   3.696   4.989   4.892
18620TIP3    H177275   3.751   4.921   4.854
18620TIP3    H277276   3.725   5.070   4.849
18621TIP3   OH277277   3.501   5.266   5.081
18621TIP3    H177278   3.430   5.309   5.129
18621TIP3    H277279   3.465   5.247   4.995
18622TIP3   OH277280   3.708   4.695   3.999
18622TIP3    H177281   3.652   4.723   3.927
18622TIP3    H277282   3.694   4.761   4.067
18623TIP3   OH277283   3.568   4.392   3.819
18623TIP3    H177284   3.533   4.450   3.751
18623TIP3    H277285   3.545   4.304   3.788
18624TIP3   OH277286   3.467   4.573   4.431
18624TIP3    H177287   3.462   4.482   4.401
18624TIP3    H277288   3.425   4.573   4.517
18625TIP3   OH277289   1.948   4.675   4.848
18625TIP3    H177290   1.944   4.725   4.766
18625TIP3    H277291   2.038   4.685   4.878
18626TIP3   OH277292   3.539   4.761   5.454
18626TIP3    H177293   3.599   4.689   5.439
18626TIP3    H277294   3.590   4.840   5.434
18627TIP3   OH277295   3.707   4.537   5.409
18627TIP3    H177296   3.620   4.496   5.409
18627TIP3    H277297   3.767   4.465   5.429
18628TIP3   OH277298   3.485   4.145   3.719
18628TIP3    H177299   3.516   4.100   3.797
18628TIP3    H277300   3.393   4.123   3.712
18629TIP3   OH277301   3.449   4.325   4.249
18629TIP3    H177302   3.477   4.234   4.252
18629TIP3    H277303   3.518   4.370   4.200
18630TIP3   OH277304   3.478   4.358   4.817
18630TIP3    H177305   3.571   4.368   4.799
18630TIP3    H277306   3.469   4.377   4.910
18631TIP3   OH277307   3.504   4.439   5.085
18631TIP3    H177308   3.425   4.466   5.132
18631TIP3    H277309   3.555   4.519   5.075
18632TIP3   OH277310   1.944   4.271   5.420
18632TIP3    H177311   2.028   4.250   5.462
18632TIP3    H277312   1.887   4.197   5.440
18633TIP3   OH277313   3.692   3.837   5.629
18633TIP3    H177314   3.757   3.841   5.699
18633TIP3    H277315   3.707   3.916   5.577
18634TIP3   OH277316   3.512   4.054   4.262
18634TIP3    H177317   3.534   4.018   4.348
18634TIP3    H277318   3.442   3.998   4.230
18635TIP3   OH277319   2.060   4.135   4.730
18635TIP3    H177320   2.100   4.049   4.735
18635TIP3    H277321   2.129   4.196   4.757
18636TIP3   OH277322   1.869   4.412   4.799
18636TIP3    H177323   1.943   4.406   4.738
18636TIP3    H277324   1.875   4.502   4.833
18637TIP3   OH277325   3.673   4.028   5.423
18637TIP3    H177326   3.595   4.081   5.404
18637TIP3    H277327   3.670   3.958   5.358
18638TIP3   OH277328   3.644   4.035   3.918
18638TIP3    H177329   3.697   3.976   3.864
18638TIP3    H277330   3.708   4.095   3.957
18639TIP3   OH277331   1.914   4.012   4.197
18639TIP3    H177332   1.824   4.023   4.228
18639TIP3    H277333   1.933   4.093   4.150
18640TIP3   OH277334   3.391   5.562   4.434
18640TIP3    H177335   3.468   5.558   4.378
18640TIP3    H277336   3.420   5.610   4.511
18641TIP3   OH277337   1.912   3.874   5.038
18641TIP3    H177338   1.852   3.869   5.113
18641TIP3    H277339   1.887   3.955   4.993
18642TIP3   OH277340   2.144   5.289   5.511
18642TIP3    H177341   2.057   5.265   5.477
18642TIP3    H277342   2.157   5.230   5.586
18643TIP3   OH277343   2.454   5.365   5.120
18643TIP3    H177344   2.422   5.451   5.093
18643TIP3    H277345   2.548   5.367   5.101
18644TIP3   OH277346   2.829   5.492   5.409
18644TIP3    H177347   2.846   5.454   5.495
18644TIP3    H277348   2.910   5.540   5.388
18645TIP3   OH277349   3.065   5.623   5.350
18645TIP3    H177350   3.125   5.561   5.307
18645TIP3    H277351   3.111   5.649   5.430
18646TIP3   OH277352   3.608   3.837   5.225
18646TIP3    H177353   3.521   3.850   5.187
18646TIP3    H277354   3.622   3.743   5.222
18647TIP3   OH277355   2.160   5.674   5.139
18647TIP3    H177356   2.079   5.709   5.102
18647TIP3    H277357   2.164   5.710   5.227
18648TIP3   OH277358   2.414   5.630   5.048
18648TIP3    H177359   2.324   5.644   5.077
18648TIP3    H277360   2.420   5.673   4.963
18649TIP3   OH277361   2.867   5.609   4.951
18649TIP3    H177362   2.811   5.642   4.881
18649TIP3    H277363   2.874   5.682   5.013
18650TIP3   OH277364   3.099   5.489   5.043
18650TIP3    H177365   3.018   5.527   5.010
18650TIP3    H277366   3.166   5.556   5.027
18651TIP3   OH277367   3.340   5.637   5.043
18651TIP3    H177368   3.361   5.729   5.024
18651TIP3    H277369   3.379   5.588   4.970
18652TIP3   OH277370   2.114   5.510   4.808
18652TIP3    H177371   2.105   5.461   4.890
18652TIP3    H277372   2.192   5.473   4.766
18653TIP3   OH277373   2.329   5.380   4.702
18653TIP3    H177374   2.316   5.288   4.724
18653TIP3    H277375   2.417   5.400   4.736
18654TIP3   OH277376   2.596   5.415   4.795
18654TIP3    H177377   2.605   5.325   4.763
18654TIP3    H277378   2.627   5.412   4.886
18655TIP3   OH277379   2.906   3.992   4.672
18655TIP3    H177380   2.848   3.923   4.704
18655TIP3    H277381   2.980   3.945   4.633
18656TIP3   OH277382   3.420   3.829   4.657
18656TIP3    H177383   3.485   3.885   4.616
18656TIP3    H277384   3.347   3.888   4.677
18657TIP3   OH277385   3.609   3.937   4.491
18657TIP3    H177386   3.672   3.868   4.472
18657TIP3    H277387   3.663   4.014   4.509
18658TIP3   OH277388   2.155   3.846   4.430
18658TIP3    H177389   2.063   3.829   4.413
18658TIP3    H277390   2.197   3.760   4.424
18659TIP3   OH277391   2.038   3.847   4.013
18659TIP3    H177392   2.100   3.907   3.971
18659TIP3    H277393   1.998   3.899   4.083
18660TIP3   OH277394   2.641   3.817   4.456
18660TIP3    H177395   2.712   3.871   4.422
18660TIP3    H277396   2.651   3.819   4.551
18661TIP3   OH277397   3.128   3.863   4.571
18661TIP3    H177398   3.191   3.836   4.504
18661TIP3    H277399   3.107   3.783   4.617
18662TIP3   OH277400   3.301   3.888   4.174
18662TIP3    H177401   3.228   3.947   4.193
18662TIP3    H277402   3.267   3.801   4.193
18663TIP3   OH277403   2.000   5.363   4.108
18663TIP3    H177404   1.932   5.412   4.062
18663TIP3    H277405   2.075   5.422   4.110
18664TIP3   OH277406   2.245   4.013   3.878
18664TIP3    H177407   2.297   3.957   3.821
18664TIP3    H277408   2.307   4.046   3.943
18665TIP3   OH277409   2.717   4.083   4.134
18665TIP3    H177410   2.750   4.016   4.194
18665TIP3    H277411   2.729   4.165   4.181
18666TIP3   OH277412   2.926   5.555   3.943
18666TIP3    H177413   3.021   5.569   3.939
18666TIP3    H277414   2.908   5.495   3.870
18667TIP3   OH277415   3.596   5.535   4.245
18667TIP3    H177416   3.574   5.446   4.217
18667TIP3    H277417   3.574   5.590   4.170
18668TIP3   OH277418   2.165   3.876   5.400
18668TIP3    H177419   2.107   3.809   5.434
18668TIP3    H277420   2.247   3.864   5.448
18669TIP3   OH277421   2.379   3.820   5.570
18669TIP3    H177422   2.453   3.816   5.510
18669TIP3    H277423   2.400   3.756   5.638
18670TIP3   OH277424   2.232   5.534   3.804
18670TIP3    H177425   2.220   5.550   3.898
18670TIP3    H277426   2.311   5.480   3.800
18671TIP3   OH277427   3.149   3.807   5.574
18671TIP3    H177428   3.096   3.778   5.647
18671TIP3    H277429   3.221   3.743   5.569
18672TIP3   OH277430   3.517   5.411   5.426
18672TIP3    H177431   3.444   5.402   5.365
18672TIP3    H277432   3.482   5.465   5.497
18673TIP3   OH277433   4.967   4.806   4.416
18673TIP3    H177434   4.956   4.901   4.407
18673TIP3    H277435   4.886   4.769   4.382
18674TIP3   OH277436   4.844   4.716   4.819
18674TIP3    H177437   4.866   4.676   4.903
18674TIP3    H277438   4.793   4.649   4.773
18675TIP3   OH277439   4.059   4.658   4.976
18675TIP3    H177440   4.060   4.569   5.012
18675TIP3    H277441   4.106   4.710   5.041
18676TIP3   OH277442   5.225   5.007   4.638
18676TIP3    H177443   5.186   4.932   4.682
18676TIP3    H277444   5.246   5.068   4.708
18677TIP3   OH277445   4.198   5.115   4.743
18677TIP3    H177446   4.161   5.028   4.729
18677TIP3    H277447   4.284   5.098   4.783
18678TIP3   OH277448   3.854   4.463   4.283
18678TIP3    H177449   3.824   4.544   4.323
18678TIP3    H277450   3.783   4.436   4.225
18679TIP3   OH277451   3.915   4.707   4.583
18679TIP3    H177452   3.941   4.617   4.605
18679TIP3    H277453   3.993   4.759   4.601
18680TIP3   OH277454   4.957   5.510   4.679
18680TIP3    H177455   4.997   5.451   4.615
18680TIP3    H277456   4.932   5.453   4.752
18681TIP3   OH277457   4.694   4.967   4.835
18681TIP3    H177458   4.733   4.886   4.804
18681TIP3    H277459   4.757   5.002   4.897
18682TIP3   OH277460   5.577   4.110   4.930
18682TIP3    H177461   5.593   4.174   4.999
18682TIP3    H277462   5.631   4.139   4.857
18683TIP3   OH277463   5.003   4.390   4.842
18683TIP3    H177464   5.012   4.296   4.860
18683TIP3    H277465   4.986   4.394   4.748
18684TIP3   OH277466   4.350   4.196   4.573
18684TIP3    H177467   4.352   4.282   4.531
18684TIP3    H277468   4.289   4.145   4.520
18685TIP3   OH277469   5.131   4.225   4.425
18685TIP3    H177470   5.171   4.191   4.505
18685TIP3    H277471   5.205   4.262   4.376
18686TIP3   OH277472   3.985   4.450   4.655
18686TIP3    H177473   4.048   4.411   4.716
18686TIP3    H277474   4.006   4.412   4.570
18687TIP3   OH277475   4.490   4.597   4.599
18687TIP3    H177476   4.567   4.555   4.636
18687TIP3    H277477   4.445   4.528   4.550
18688TIP3   OH277478   5.619   4.273   5.151
18688TIP3    H177479   5.540   4.325   5.136
18688TIP3    H277480   5.634   4.279   5.245
18689TIP3   OH277481   4.210   4.112   4.994
18689TIP3    H177482   4.185   4.177   4.929
18689TIP3    H277483   4.140   4.115   5.059
18690TIP3   OH277484   4.934   5.062   4.314
18690TIP3    H177485   4.914   5.059   4.221
18690TIP3    H277486   4.889   5.141   4.346
18691TIP3   OH277487   4.473   4.879   4.981
18691TIP3    H177488   4.416   4.947   5.017
18691TIP3    H277489   4.543   4.927   4.937
18692TIP3   OH277490   5.235   4.162   4.668
18692TIP3    H177491   5.161   4.141   4.726
18692TIP3    H277492   5.288   4.223   4.719
18693TIP3   OH277493   4.179   4.287   4.779
18693TIP3    H177494   4.229   4.346   4.835
18693TIP3    H277495   4.243   4.251   4.718
18694TIP3   OH277496   4.307   5.083   5.075
18694TIP3    H177497   4.313   5.178   5.066
18694TIP3    H277498   4.219   5.068   5.110
18695TIP3   OH277499   3.893   5.066   4.168
18695TIP3    H177500   3.881   5.117   4.088
18695TIP3    H277501   3.917   5.131   4.234
18696TIP3   OH277502   5.263   5.184   4.851
18696TIP3    H177503   5.169   5.195   4.869
18696TIP3    H277504   5.290   5.268   4.813
18697TIP3   OH277505   5.325   4.007   5.016
18697TIP3    H177506   5.257   4.060   4.975
18697TIP3    H277507   5.406   4.038   4.975
18698TIP3   OH277508   4.562   3.803   4.741
18698TIP3    H177509   4.537   3.710   4.746
18698TIP3    H277510   4.485   3.850   4.773
18699TIP3   OH277511   5.086   5.370   4.479
18699TIP3    H177512   5.126   5.286   4.457
18699TIP3    H277513   5.156   5.434   4.467
18700TIP3   OH277514   5.194   5.131   4.393
18700TIP3    H177515   5.111   5.093   4.363
18700TIP3    H277516   5.215   5.083   4.473
18701TIP3   OH277517   5.360   5.021   5.190
18701TIP3    H177518   5.357   4.961   5.116
18701TIP3    H277519   5.373   5.107   5.150
18702TIP3   OH277520   4.813   4.704   4.195
18702TIP3    H177521   4.745   4.768   4.174
18702TIP3    H277522   4.888   4.730   4.142
18703TIP3   OH277523   4.832   4.603   3.867
18703TIP3    H177524   4.881   4.619   3.947
18703TIP3    H277525   4.886   4.540   3.819
18704TIP3   OH277526   5.545   4.671   5.019
18704TIP3    H177527   5.472   4.732   5.014
18704TIP3    H277528   5.603   4.697   4.947
18705TIP3   OH277529   5.182   4.727   4.271
18705TIP3    H177530   5.114   4.756   4.332
18705TIP3    H277531   5.246   4.682   4.326
18706TIP3   OH277532   5.155   4.541   5.204
18706TIP3    H177533   5.161   4.606   5.274
18706TIP3    H277534   5.080   4.569   5.152
18707TIP3   OH277535   4.338   4.790   4.469
18707TIP3    H177536   4.312   4.750   4.387
18707TIP3    H277537   4.394   4.725   4.511
18708TIP3   OH277538   4.495   5.146   4.734
18708TIP3    H177539   4.496   5.142   4.638
18708TIP3    H277540   4.566   5.087   4.760
18709TIP3   OH277541   4.347   4.694   4.820
18709TIP3    H177542   4.410   4.673   4.750
18709TIP3    H277543   4.394   4.755   4.877
18710TIP3   OH277544   5.003   5.233   4.916
18710TIP3    H177545   4.982   5.308   4.971
18710TIP3    H277546   4.956   5.160   4.956
18711TIP3   OH277547   4.474   5.144   5.293
18711TIP3    H177548   4.414   5.195   5.348
18711TIP3    H277549   4.417   5.103   5.228
18712TIP3   OH277550   5.056   4.650   4.041
18712TIP3    H177551   5.104   4.686   4.115
18712TIP3    H277552   5.108   4.674   3.964
18713TIP3   OH277553   4.147   4.734   5.240
18713TIP3    H177554   4.160   4.802   5.306
18713TIP3    H277555   4.055   4.710   5.249
18714TIP3   OH277556   4.835   5.313   4.376
18714TIP3    H177557   4.915   5.339   4.423
18714TIP3    H277558   4.801   5.394   4.340
18715TIP3   OH277559   4.279   5.327   5.383
18715TIP3    H177560   4.269   5.335   5.288
18715TIP3    H277561   4.190   5.311   5.415
18716TIP3   OH277562   5.414   3.820   4.027
18716TIP3    H177563   5.330   3.845   4.066
18716TIP3    H277564   5.456   3.903   4.006
18717TIP3   OH277565   4.246   4.701   4.210
18717TIP3    H177566   4.185   4.766   4.175
18717TIP3    H277567   4.193   4.622   4.222
18718TIP3   OH277568   5.551   5.262   3.887
18718TIP3    H177569   5.565   5.356   3.897
18718TIP3    H277570   5.639   5.224   3.880
18719TIP3   OH277571   3.842   4.952   5.138
18719TIP3    H177572   3.787   4.956   5.059
18719TIP3    H277573   3.853   4.858   5.154
18720TIP3   OH277574   3.811   5.237   4.809
18720TIP3    H177575   3.892   5.235   4.860
18720TIP3    H277576   3.764   5.313   4.842
18721TIP3   OH277577   5.641   5.302   5.425
18721TIP3    H177578   5.614   5.211   5.410
18721TIP3    H277579   5.616   5.348   5.345
18722TIP3   OH277580   4.712   5.270   5.262
18722TIP3    H177581   4.714   5.307   5.350
18722TIP3    H277582   4.638   5.208   5.264
18723TIP3   OH277583   4.803   5.573   4.249
18723TIP3    H177584   4.782   5.583   4.157
18723TIP3    H277585   4.776   5.655   4.289
18724TIP3   OH277586   4.141   5.476   4.438
18724TIP3    H177587   4.162   5.444   4.525
18724TIP3    H277588   4.087   5.407   4.400
18725TIP3   OH277589   5.082   5.545   3.922
18725TIP3    H177590   5.132   5.472   3.885
18725TIP3    H277591   5.093   5.535   4.017
18726TIP3   OH277592   5.074   5.528   4.198
18726TIP3    H177593   4.983   5.526   4.229
18726TIP3    H277594   5.125   5.502   4.275
18727TIP3   OH277595   4.063   5.101   5.203
18727TIP3    H177596   4.092   5.061   5.285
18727TIP3    H277597   3.984   5.051   5.179
18728TIP3   OH277598   4.319   3.916   4.829
18728TIP3    H177599   4.241   3.905   4.774
18728TIP3    H277600   4.297   3.987   4.889
18729TIP3   OH277601   4.805   3.882   5.172
18729TIP3    H177602   4.848   3.827   5.238
18729TIP3    H277603   4.712   3.875   5.194
18730TIP3   OH277604   5.098   4.272   5.264
18730TIP3    H177605   5.028   4.263   5.329
18730TIP3    H277606   5.100   4.366   5.244
18731TIP3   OH277607   5.195   4.674   3.798
18731TIP3    H177608   5.176   4.705   3.709
18731TIP3    H277609   5.277   4.716   3.821
18732TIP3   OH277610   4.778   4.103   3.908
18732TIP3    H177611   4.723   4.103   3.986
18732TIP3    H277612   4.730   4.050   3.845
18733TIP3   OH277613   4.331   4.446   4.940
18733TIP3    H177614   4.300   4.456   5.030
18733TIP3    H277615   4.328   4.534   4.903
18734TIP3   OH277616   4.334   4.432   4.435
18734TIP3    H177617   4.238   4.424   4.437
18734TIP3    H277618   4.358   4.410   4.346
18735TIP3   OH277619   4.877   4.463   4.310
18735TIP3    H177620   4.850   4.549   4.277
18735TIP3    H277621   4.948   4.436   4.253
18736TIP3   OH277622   4.812   4.521   5.399
18736TIP3    H177623   4.761   4.502   5.478
18736TIP3    H277624   4.851   4.606   5.415
18737TIP3   OH277625   4.971   4.403   4.571
18737TIP3    H177626   4.926   4.450   4.501
18737TIP3    H277627   5.018   4.332   4.527
18738TIP3   OH277628   4.087   4.420   5.119
18738TIP3    H177629   4.130   4.448   5.200
18738TIP3    H277630   4.054   4.332   5.139
18739TIP3   OH277631   4.440   4.177   3.791
18739TIP3    H177632   4.409   4.159   3.880
18739TIP3    H277633   4.379   4.242   3.756
18740TIP3   OH277634   3.792   4.135   4.503
18740TIP3    H177635   3.837   4.147   4.587
18740TIP3    H277636   3.862   4.121   4.440
18741TIP3   OH277637   3.826   4.223   4.024
18741TIP3    H177638   3.895   4.264   3.972
18741TIP3    H277639   3.771   4.295   4.052
18742TIP3   OH277640   4.923   4.562   5.038
18742TIP3    H177641   4.958   4.502   4.972
18742TIP3    H277642   4.862   4.508   5.088
18743TIP3   OH277643   4.627   4.154   4.521
18743TIP3    H177644   4.539   4.161   4.556
18743TIP3    H277645   4.679   4.120   4.594
18744TIP3   OH277646   4.073   4.351   4.412
18744TIP3    H177647   3.997   4.377   4.359
18744TIP3    H277648   4.088   4.260   4.387
18745TIP3   OH277649   4.395   4.349   4.180
18745TIP3    H177650   4.489   4.351   4.196
18745TIP3    H277651   4.384   4.394   4.096
18746TIP3   OH277652   5.017   4.111   4.830
18746TIP3    H177653   4.992   4.104   4.922
18746TIP3    H277654   4.944   4.073   4.781
18747TIP3   OH277655   4.352   4.447   3.927
18747TIP3    H177656   4.296   4.426   3.852
18747TIP3    H277657   4.424   4.497   3.890
18748TIP3   OH277658   5.356   5.652   5.510
18748TIP3    H177659   5.383   5.669   5.420
18748TIP3    H277660   5.432   5.677   5.563
18749TIP3   OH277661   4.147   4.949   5.431
18749TIP3    H177662   4.215   4.952   5.499
18749TIP3    H277663   4.066   4.935   5.479
18750TIP3   OH277664   4.705   4.474   4.727
18750TIP3    H177665   4.778   4.420   4.696
18750TIP3    H277666   4.669   4.427   4.802
18751TIP3   OH277667   4.171   4.083   4.381
18751TIP3    H177668   4.120   4.005   4.405
18751TIP3    H277669   4.225   4.054   4.308
18752TIP3   OH277670   4.594   4.346   4.951
18752TIP3    H177671   4.510   4.392   4.957
18752TIP3    H277672   4.642   4.372   5.029
18753TIP3   OH277673   4.627   4.898   4.126
18753TIP3    H177674   4.553   4.865   4.075
18753TIP3    H277675   4.588   4.929   4.208
18754TIP3   OH277676   5.349   4.859   4.967
18754TIP3    H177677   5.406   4.918   4.918
18754TIP3    H277678   5.274   4.844   4.910
18755TIP3   OH277679   5.013   4.245   3.894
18755TIP3    H177680   4.928   4.204   3.909
18755TIP3    H277681   5.037   4.283   3.978
18756TIP3   OH277682   4.810   4.945   5.283
18756TIP3    H177683   4.854   4.877   5.333
18756TIP3    H277684   4.730   4.963   5.331
18757TIP3   OH277685   5.083   4.382   4.125
18757TIP3    H177686   5.167   4.369   4.170
18757TIP3    H277687   5.085   4.474   4.098
18758TIP3   OH277688   4.151   4.833   4.674
18758TIP3    H177689   4.214   4.830   4.602
18758TIP3    H277690   4.190   4.781   4.744
18759TIP3   OH277691   4.837   5.054   4.048
18759TIP3    H177692   4.803   5.144   4.055
18759TIP3    H277693   4.763   4.999   4.074
18760TIP3   OH277694   3.865   4.692   5.234
18760TIP3    H177695   3.845   4.651   5.318
18760TIP3    H277696   3.799   4.657   5.174
18761TIP3   OH277697   4.982   5.210   5.302
18761TIP3    H177698   4.900   5.229   5.257
18761TIP3    H277699   4.958   5.151   5.373
18762TIP3   OH277700   5.539   4.430   4.087
18762TIP3    H177701   5.497   4.405   4.004
18762TIP3    H277702   5.561   4.522   4.076
18763TIP3   OH277703   5.574   5.040   5.355
18763TIP3    H177704   5.490   5.037   5.309
18763TIP3    H277705   5.639   5.018   5.288
18764TIP3   OH277706   5.413   5.293   4.145
18764TIP3    H177707   5.361   5.225   4.187
18764TIP3    H277708   5.441   5.253   4.062
18765TIP3   OH277709   5.133   4.788   4.790
18765TIP3    H177710   5.038   4.777   4.792
18765TIP3    H277711   5.166   4.708   4.749
18766TIP3   OH277712   4.412   5.219   4.462
18766TIP3    H177713   4.429   5.305   4.424
18766TIP3    H277714   4.323   5.225   4.497
18767TIP3   OH277715   3.968   4.676   3.912
18767TIP3    H177716   4.017   4.739   3.964
18767TIP3    H277717   3.879   4.680   3.947
18768TIP3   OH277718   4.490   4.985   4.341
18768TIP3    H177719   4.474   5.070   4.383
18768TIP3    H277720   4.440   4.923   4.393
18769TIP3   OH277721   4.598   5.399   5.043
18769TIP3    H177722   4.657   5.471   5.021
18769TIP3    H277723   4.645   5.350   5.111
18770TIP3   OH277724   4.403   5.482   4.351
18770TIP3    H177725   4.310   5.493   4.374
18770TIP3    H277726   4.445   5.560   4.386
18771TIP3   OH277727   4.893   5.002   5.029
18771TIP3    H177728   4.855   4.988   5.115
18771TIP3    H277729   4.955   4.929   5.018
18772TIP3   OH277730   5.180   5.099   3.925
18772TIP3    H177731   5.209   5.043   3.997
18772TIP3    H277732   5.086   5.081   3.916
18773TIP3   OH277733   5.194   5.411   5.227
18773TIP3    H177734   5.112   5.363   5.223
18773TIP3    H277735   5.177   5.494   5.183
18774TIP3   OH277736   5.610   5.531   3.932
18774TIP3    H177737   5.676   5.600   3.926
18774TIP3    H277738   5.530   5.576   3.957
18775TIP3   OH277739   3.998   4.157   5.172
18775TIP3    H177740   3.906   4.180   5.170
18775TIP3    H277741   4.005   4.093   5.243
18776TIP3   OH277742   5.289   4.925   4.106
18776TIP3    H177743   5.247   4.870   4.172
18776TIP3    H277744   5.381   4.925   4.130
18777TIP3   OH277745   3.994   5.344   5.025
18777TIP3    H177746   4.023   5.265   5.070
18777TIP3    H277747   3.995   5.412   5.093
18778TIP3   OH277748   4.560   5.193   3.773
18778TIP3    H177749   4.566   5.107   3.731
18778TIP3    H277750   4.520   5.175   3.858
18779TIP3   OH277751   4.432   5.166   4.019
18779TIP3    H177752   4.466   5.114   4.093
18779TIP3    H277753   4.443   5.257   4.046
18780TIP3   OH277754   4.076   4.877   4.076
18780TIP3    H177755   4.009   4.924   4.124
18780TIP3    H277756   4.123   4.945   4.028
18781TIP3   OH277757   4.944   4.106   5.088
18781TIP3    H177758   4.991   4.146   5.162
18781TIP3    H277759   4.895   4.033   5.127
18782TIP3   OH277760   4.983   4.076   4.249
18782TIP3    H177761   4.960   4.148   4.189
18782TIP3    H277762   5.030   4.119   4.321
18783TIP3   OH277763   4.731   5.302   4.062
18783TIP3    H177764   4.644   5.334   4.084
18783TIP3    H277765   4.783   5.382   4.048
18784TIP3   OH277766   4.653   4.303   4.287
18784TIP3    H177767   4.727   4.363   4.299
18784TIP3    H277768   4.641   4.263   4.374
18785TIP3   OH277769   4.762   4.381   5.173
18785TIP3    H177770   4.768   4.426   5.257
18785TIP3    H277771   4.783   4.290   5.194
18786TIP3   OH277772   4.741   3.965   4.346
18786TIP3    H177773   4.714   4.031   4.409
18786TIP3    H277774   4.831   3.991   4.322
18787TIP3   OH277775   4.484   5.422   4.096
18787TIP3    H177776   4.489   5.507   4.051
18787TIP3    H277777   4.455   5.444   4.185
18788TIP3   OH277778   4.342   4.110   4.042
18788TIP3    H177779   4.332   4.191   4.093
18788TIP3    H277780   4.427   4.075   4.070
18789TIP3   OH277781   5.347   4.164   5.285
18789TIP3    H177782   5.260   4.202   5.286
18789TIP3    H277783   5.351   4.116   5.202
18790TIP3   OH277784   5.214   4.541   4.672
18790TIP3    H177785   5.128   4.502   4.660
18790TIP3    H277786   5.259   4.482   4.731
18791TIP3   OH277787   4.181   5.090   3.923
18791TIP3    H177788   4.254   5.134   3.966
18791TIP3    H277789   4.222   5.035   3.856
18792TIP3   OH277790   3.959   4.401   3.858
18792TIP3    H177791   3.987   4.486   3.892
18792TIP3    H277792   3.883   4.420   3.803
18793TIP3   OH277793   5.323   5.437   4.782
18793TIP3    H177794   5.291   5.497   4.715
18793TIP3    H277795   5.367   5.493   4.846
18794TIP3   OH277796   4.072   3.885   4.707
18794TIP3    H177797   4.058   3.874   4.613
18794TIP3    H277798   4.042   3.802   4.745
18795TIP3   OH277799   3.950   5.295   4.327
18795TIP3    H177800   3.898   5.325   4.401
18795TIP3    H277801   3.936   5.360   4.258
18796TIP3   OH277802   3.901   5.566   5.478
18796TIP3    H177803   3.968   5.509   5.516
18796TIP3    H277804   3.836   5.505   5.441
18797TIP3   OH277805   4.763   5.381   3.752
18797TIP3    H177806   4.698   5.313   3.770
18797TIP3    H277807   4.841   5.332   3.724
18798TIP3   OH277808   5.214   5.340   3.796
18798TIP3    H177809   5.217   5.261   3.849
18798TIP3    H277810   5.295   5.337   3.745
18799TIP3   OH277811   3.903   4.908   5.557
18799TIP3    H177812   3.914   4.814   5.546
18799TIP3    H277813   3.826   4.930   5.503
18800TIP3   OH277814   4.318   4.911   3.767
18800TIP3    H177815   4.340   4.864   3.848
18800TIP3    H277816   4.402   4.925   3.724
18801TIP3   OH277817   4.613   4.939   5.473
18801TIP3    H177818   4.519   4.931   5.455
18801TIP3    H277819   4.628   4.879   5.546
18802TIP3   OH277820   4.916   5.054   3.786
18802TIP3    H177821   4.877   5.051   3.873
18802TIP3    H277822   4.894   4.971   3.746
18803TIP3   OH277823   5.114   4.941   5.280
18803TIP3    H177824   5.196   4.978   5.248
18803TIP3    H277825   5.048   5.006   5.258
18804TIP3   OH277826   3.984   4.643   5.526
18804TIP3    H177827   4.047   4.576   5.500
18804TIP3    H277828   3.968   4.626   5.619
18805TIP3   OH277829   4.412   4.779   3.995
18805TIP3    H177830   4.363   4.741   4.068
18805TIP3    H277831   4.454   4.705   3.953
18806TIP3   OH277832   4.343   4.529   5.214
18806TIP3    H177833   4.285   4.602   5.235
18806TIP3    H277834   4.423   4.571   5.182
18807TIP3   OH277835   4.557   4.602   3.833
18807TIP3    H177836   4.556   4.631   3.742
18807TIP3    H277837   4.649   4.599   3.857
18808TIP3   OH277838   4.892   4.775   5.489
18808TIP3    H177839   4.921   4.852   5.538
18808TIP3    H277840   4.820   4.739   5.542
18809TIP3   OH277841   5.448   4.787   3.785
18809TIP3    H177842   5.456   4.774   3.690
18809TIP3    H277843   5.440   4.881   3.795
18810TIP3   OH277844   4.425   4.296   5.340
18810TIP3    H177845   4.438   4.230   5.271
18810TIP3    H277846   4.402   4.376   5.294
18811TIP3   OH277847   4.463   4.131   5.103
18811TIP3    H177848   4.513   4.186   5.043
18811TIP3    H277849   4.374   4.130   5.066
18812TIP3   OH277850   4.563   4.647   5.103
18812TIP3    H177851   4.648   4.665   5.143
18812TIP3    H277852   4.536   4.731   5.065
18813TIP3   OH277853   5.210   4.725   5.414
18813TIP3    H177854   5.165   4.798   5.371
18813TIP3    H277855   5.300   4.756   5.425
18814TIP3   OH277856   4.156   4.430   5.450
18814TIP3    H177857   4.122   4.350   5.489
18814TIP3    H277858   4.250   4.415   5.441
18815TIP3   OH277859   4.523   3.863   5.156
18815TIP3    H177860   4.501   3.955   5.141
18815TIP3    H277861   4.450   3.814   5.120
18816TIP3   OH277862   4.646   4.268   5.513
18816TIP3    H177863   4.606   4.242   5.596
18816TIP3    H277864   4.572   4.284   5.454
18817TIP3   OH277865   4.905   4.205   5.441
18817TIP3    H177866   4.816   4.228   5.465
18817TIP3    H277867   4.932   4.140   5.506
18818TIP3   OH277868   5.055   4.036   5.626
18818TIP3    H177869   5.040   3.946   5.595
18818TIP3    H277870   5.140   4.032   5.670
18819TIP3   OH277871   4.057   4.181   5.530
18819TIP3    H177872   4.081   4.110   5.471
18819TIP3    H277873   4.093   4.156   5.615
18820TIP3   OH277874   4.524   3.809   5.425
18820TIP3    H177875   4.576   3.729   5.435
18820TIP3    H277876   4.524   3.826   5.331
18821TIP3   OH277877   4.603   3.984   5.628
18821TIP3    H177878   4.564   3.931   5.559
18821TIP3    H277879   4.533   4.043   5.656
18822TIP3   OH277880   4.553   5.658   3.967
18822TIP3    H177881   4.644   5.629   3.966
18822TIP3    H277882   4.550   5.726   3.899
18823TIP3   OH277883   3.917   5.140   3.864
18823TIP3    H177884   4.008   5.131   3.895
18823TIP3    H277885   3.903   5.062   3.811
18824TIP3   OH277886   3.782   5.624   4.425
18824TIP3    H177887   3.725   5.593   4.355
18824TIP3    H277888   3.799   5.546   4.478
18825TIP3   OH277889   3.853   5.403   4.577
18825TIP3    H177890   3.816   5.327   4.623
18825TIP3    H277891   3.902   5.450   4.645
18826TIP3   OH277892   5.639   5.471   4.906
18826TIP3    H177893   5.568   5.530   4.933
18826TIP3    H277894   5.679   5.515   4.831
18827TIP3   OH277895   5.588   5.434   5.190
18827TIP3    H177896   5.516   5.381   5.156
18827TIP3    H277897   5.647   5.445   5.115
18828TIP3   OH277898   5.556   4.892   4.182
18828TIP3    H177899   5.626   4.956   4.188
18828TIP3    H277900   5.569   4.834   4.257
18829TIP3   OH277901   5.591   4.693   4.370
18829TIP3    H177902   5.508   4.657   4.402
18829TIP3    H277903   5.646   4.701   4.448
18830TIP3   OH277904   5.593   4.987   4.897
18830TIP3    H177905   5.642   4.918   4.854
18830TIP3    H277906   5.621   5.068   4.853
18831TIP3   OH277907   5.388   5.274   5.090
18831TIP3    H177908   5.317   5.322   5.132
18831TIP3    H277909   5.354   5.254   5.002
18832TIP3   OH277910   5.584   4.687   4.001
18832TIP3    H177911   5.538   4.725   3.926
18832TIP3    H277912   5.577   4.754   4.070
18833TIP3   OH277913   5.424   4.416   3.831
18833TIP3    H177914   5.431   4.511   3.827
18833TIP3    H277915   5.405   4.390   3.741
18834TIP3   OH277916   5.347   4.570   4.432
18834TIP3    H177917   5.345   4.478   4.405
18834TIP3    H277918   5.307   4.571   4.519
18835TIP3   OH277919   3.842   4.759   4.844
18835TIP3    H177920   3.856   4.744   4.751
18835TIP3    H277921   3.923   4.730   4.886
18836TIP3   OH277922   5.483   4.788   5.452
18836TIP3    H177923   5.542   4.716   5.430
18836TIP3    H277924   5.527   4.867   5.420
18837TIP3   OH277925   5.603   4.533   5.398
18837TIP3    H177926   5.514   4.506   5.378
18837TIP3    H277927   5.649   4.452   5.420
18838TIP3   OH277928   5.330   4.122   3.781
18838TIP3    H177929   5.410   4.094   3.827
18838TIP3    H277930   5.298   4.196   3.832
18839TIP3   OH277931   5.334   4.323   4.253
18839TIP3    H177932   5.362   4.232   4.256
18839TIP3    H277933   5.405   4.368   4.207
18840TIP3   OH277934   5.366   4.356   4.822
18840TIP3    H177935   5.458   4.368   4.801
18840TIP3    H277936   5.360   4.373   4.916
18841TIP3   OH277937   5.398   4.443   5.091
18841TIP3    H177938   5.314   4.471   5.128
18841TIP3    H277939   5.443   4.525   5.069
18842TIP3   OH277940   3.815   4.272   5.428
18842TIP3    H177941   3.902   4.258   5.466
18842TIP3    H277942   3.770   4.188   5.439
18843TIP3   OH277943   5.711   3.844   5.558
18843TIP3    H177944   5.661   3.784   5.613
18843TIP3    H277945   5.655   3.922   5.551
18844TIP3   OH277946   5.395   4.054   4.266
18844TIP3    H177947   5.421   4.015   4.349
18844TIP3    H277948   5.325   3.997   4.233
18845TIP3   OH277949   3.946   4.133   4.729
18845TIP3    H177950   3.984   4.045   4.738
18845TIP3    H277951   4.017   4.192   4.756
18846TIP3   OH277952   3.751   4.403   4.810
18846TIP3    H177953   3.823   4.414   4.749
18846TIP3    H277954   3.772   4.461   4.884
18847TIP3   OH277955   5.553   4.043   5.418
18847TIP3    H177956   5.474   4.089   5.391
18847TIP3    H277957   5.554   3.963   5.364
18848TIP3   OH277958   5.551   4.040   3.916
18848TIP3    H177959   5.603   3.977   3.866
18848TIP3    H277960   5.616   4.097   3.957
18849TIP3   OH277961   3.801   4.015   4.200
18849TIP3    H177962   3.711   4.024   4.231
18849TIP3    H277963   3.818   4.095   4.150
18850TIP3   OH277964   5.265   5.564   4.414
18850TIP3    H177965   5.347   5.559   4.364
18850TIP3    H277966   5.287   5.614   4.492
18851TIP3   OH277967   3.800   3.882   5.030
18851TIP3    H177968   3.737   3.869   5.101
18851TIP3    H277969   3.771   3.961   4.985
18852TIP3   OH277970   4.020   5.306   5.488
18852TIP3    H177971   3.940   5.297   5.436
18852TIP3    H277972   4.007   5.248   5.563
18853TIP3   OH277973   4.329   5.359   5.100
18853TIP3    H177974   4.303   5.449   5.080
18853TIP3    H277975   4.425   5.359   5.091
18854TIP3   OH277976   4.932   5.636   5.368
18854TIP3    H177977   4.980   5.569   5.318
18854TIP3    H277978   4.986   5.653   5.445
18855TIP3   OH277979   5.482   3.837   5.237
18855TIP3    H177980   5.403   3.853   5.186
18855TIP3    H277981   5.504   3.745   5.219
18856TIP3   OH277982   4.038   5.670   5.136
18856TIP3    H177983   3.957   5.703   5.097
18856TIP3    H277984   4.043   5.713   5.222
18857TIP3   OH277985   4.296   5.629   5.051
18857TIP3    H177986   4.205   5.643   5.078
18857TIP3    H277987   4.304   5.675   4.967
18858TIP3   OH277988   4.749   5.616   4.952
18858TIP3    H177989   4.695   5.648   4.880
18858TIP3    H277990   4.756   5.691   5.012
18859TIP3   OH277991   4.963   5.472   5.047
18859TIP3    H177992   4.886   5.516   5.011
18859TIP3    H277993   5.031   5.540   5.048
18860TIP3   OH277994   5.159   5.658   5.090
18860TIP3    H177995   5.158   5.752   5.111
18860TIP3    H277996   5.237   5.647   5.035
18861TIP3   OH277997   4.009   5.508   4.795
18861TIP3    H177998   3.997   5.460   4.877
18861TIP3    H277999   4.087   5.470   4.756
18862TIP3   OH278000   4.222   5.380   4.682
18862TIP3    H178001   4.206   5.289   4.707
18862TIP3    H278002   4.307   5.401   4.721
18863TIP3   OH278003   4.478   5.416   4.793
18863TIP3    H178004   4.491   5.326   4.763
18863TIP3    H278005   4.508   5.416   4.884
18864TIP3   OH278006   4.797   3.993   4.677
18864TIP3    H178007   4.738   3.924   4.705
18864TIP3    H278008   4.870   3.948   4.635
18865TIP3   OH278009   5.309   3.833   4.658
18865TIP3    H178010   5.376   3.888   4.616
18865TIP3    H278011   5.234   3.892   4.671
18866TIP3   OH278012   5.502   3.938   4.490
18866TIP3    H178013   5.564   3.868   4.472
18866TIP3    H278014   5.557   4.014   4.508
18867TIP3   OH278015   4.034   3.847   4.433
18867TIP3    H178016   3.942   3.828   4.415
18867TIP3    H278017   4.078   3.762   4.426
18868TIP3   OH278018   3.927   3.847   4.017
18868TIP3    H178019   3.987   3.907   3.973
18868TIP3    H278020   3.886   3.900   4.086
18869TIP3   OH278021   4.524   3.818   4.457
18869TIP3    H178022   4.596   3.870   4.423
18869TIP3    H278023   4.536   3.819   4.552
18870TIP3   OH278024   5.017   3.861   4.571
18870TIP3    H178025   5.076   3.833   4.501
18870TIP3    H278026   4.995   3.781   4.617
18871TIP3   OH278027   5.185   3.894   4.170
18871TIP3    H178028   5.111   3.952   4.190
18871TIP3    H278029   5.153   3.806   4.189
18872TIP3   OH278030   3.919   5.475   4.122
18872TIP3    H178031   3.839   5.462   4.071
18872TIP3    H278032   3.940   5.567   4.112
18873TIP3   OH278033   4.131   4.012   3.877
18873TIP3    H178034   4.183   3.956   3.819
18873TIP3    H278035   4.194   4.046   3.941
18874TIP3   OH278036   4.609   4.085   4.127
18874TIP3    H178037   4.638   4.017   4.188
18874TIP3    H278038   4.619   4.167   4.177
18875TIP3   OH278039   4.809   5.556   3.959
18875TIP3    H178040   4.903   5.571   3.949
18875TIP3    H278041   4.786   5.502   3.883
18876TIP3   OH278042   5.484   5.537   4.244
18876TIP3    H178043   5.463   5.449   4.213
18876TIP3    H278044   5.466   5.593   4.168
18877TIP3   OH278045   4.052   3.941   5.377
18877TIP3    H178046   3.982   3.912   5.434
18877TIP3    H278047   4.131   3.903   5.414
18878TIP3   OH278048   4.260   3.820   5.508
18878TIP3    H178049   4.350   3.840   5.479
18878TIP3    H278050   4.266   3.732   5.545
18879TIP3   OH278051   4.106   5.526   3.809
18879TIP3    H178052   4.081   5.516   3.901
18879TIP3    H278053   4.184   5.472   3.799
18880TIP3   OH278054   5.090   3.763   5.581
18880TIP3    H178055   5.099   3.680   5.626
18880TIP3    H278056   5.178   3.783   5.549
18881TIP3   OH278057   6.835   4.802   4.457
18881TIP3    H178058   6.788   4.765   4.532
18881TIP3    H278059   6.780   4.781   4.382
18882TIP3   OH278060   6.708   4.708   4.792
18882TIP3    H178061   6.729   4.682   4.882
18882TIP3    H278062   6.660   4.633   4.757
18883TIP3   OH278063   5.945   4.633   4.944
18883TIP3    H178064   5.955   4.566   5.012
18883TIP3    H278065   6.035   4.659   4.923
18884TIP3   OH278066   7.061   5.013   4.661
18884TIP3    H178067   7.047   4.939   4.720
18884TIP3    H278068   7.099   5.081   4.716
18885TIP3   OH278069   6.090   5.126   4.772
18885TIP3    H178070   6.059   5.039   4.747
18885TIP3    H278071   6.184   5.114   4.785
18886TIP3   OH278072   5.724   4.432   4.307
18886TIP3    H178073   5.725   4.525   4.330
18886TIP3    H278074   5.657   4.425   4.239
18887TIP3   OH278075   5.786   4.692   4.569
18887TIP3    H178076   5.817   4.605   4.595
18887TIP3    H278077   5.866   4.742   4.551
18888TIP3   OH278078   6.809   5.505   4.686
18888TIP3    H178079   6.834   5.416   4.660
18888TIP3    H278080   6.760   5.494   4.768
18889TIP3   OH278081   6.582   4.960   4.830
18889TIP3    H178082   6.612   4.874   4.800
18889TIP3    H278083   6.653   4.991   4.886
18890TIP3   OH278084   6.899   4.404   4.825
18890TIP3    H178085   6.898   4.313   4.853
18890TIP3    H278086   6.860   4.403   4.737
18891TIP3   OH278087   6.225   4.202   4.560
18891TIP3    H178088   6.230   4.290   4.522
18891TIP3    H278089   6.169   4.153   4.499
18892TIP3   OH278090   6.974   4.207   4.421
18892TIP3    H178091   7.015   4.162   4.494
18892TIP3    H278092   7.047   4.237   4.367
18893TIP3   OH278093   5.872   4.443   4.650
18893TIP3    H178094   5.935   4.406   4.713
18893TIP3    H278095   5.901   4.410   4.565
18894TIP3   OH278096   6.354   4.592   4.648
18894TIP3    H178097   6.437   4.550   4.672
18894TIP3    H278098   6.314   4.533   4.585
18895TIP3   OH278099   6.096   4.109   4.995
18895TIP3    H178100   6.067   4.170   4.927
18895TIP3    H278101   6.028   4.114   5.062
18896TIP3   OH278102   6.806   5.085   4.300
18896TIP3    H178103   6.785   5.066   4.209
18896TIP3    H278104   6.753   5.162   4.322
18897TIP3   OH278105   6.363   4.875   4.982
18897TIP3    H178106   6.316   4.947   5.026
18897TIP3    H278107   6.435   4.918   4.937
18898TIP3   OH278108   7.063   4.094   4.655
18898TIP3    H178109   6.990   4.102   4.716
18898TIP3    H278110   7.131   4.150   4.693
18899TIP3   OH278111   6.065   4.280   4.777
18899TIP3    H178112   6.124   4.335   4.830
18899TIP3    H278113   6.121   4.246   4.707
18900TIP3   OH278114   6.220   5.074   5.106
18900TIP3    H178115   6.206   5.168   5.092
18900TIP3    H278116   6.137   5.043   5.141
18901TIP3   OH278117   5.771   5.072   4.165
18901TIP3    H178118   5.761   5.123   4.085
18901TIP3    H278119   5.798   5.136   4.231
18902TIP3   OH278120   7.128   5.236   4.817
18902TIP3    H178121   7.035   5.238   4.837
18902TIP3    H278122   7.153   5.328   4.812
18903TIP3   OH278123   7.157   4.021   4.945
18903TIP3    H178124   7.137   4.053   5.033
18903TIP3    H278125   7.182   4.100   4.896
18904TIP3   OH278126   6.442   3.800   4.759
18904TIP3    H178127   6.416   3.708   4.765
18904TIP3    H278128   6.365   3.849   4.789
18905TIP3   OH278129   6.937   5.322   4.500
18905TIP3    H178130   6.998   5.260   4.460
18905TIP3    H278131   6.989   5.401   4.513
18906TIP3   OH278132   7.119   5.145   4.391
18906TIP3    H178133   7.137   5.111   4.304
18906TIP3    H278134   7.204   5.150   4.434
18907TIP3   OH278135   7.246   5.052   5.291
18907TIP3    H178136   7.320   4.996   5.269
18907TIP3    H278137   7.246   5.120   5.224
18908TIP3   OH278138   6.725   4.726   4.214
18908TIP3    H178139   6.647   4.778   4.193
18908TIP3    H278140   6.778   4.730   4.135
18909TIP3   OH278141   6.782   4.557   3.833
18909TIP3    H178142   6.814   4.584   3.919
18909TIP3    H278143   6.853   4.505   3.797
18910TIP3   OH278144   7.054   4.718   4.294
18910TIP3    H178145   6.981   4.735   4.353
18910TIP3    H278146   7.106   4.651   4.338
18911TIP3   OH278147   7.003   4.549   5.196
18911TIP3    H178148   7.016   4.607   5.271
18911TIP3    H278149   6.929   4.587   5.149
18912TIP3   OH278150   6.257   4.802   4.496
18912TIP3    H178151   6.259   4.764   4.408
18912TIP3    H278152   6.300   4.736   4.551
18913TIP3   OH278153   6.375   5.137   4.736
18913TIP3    H178154   6.376   5.139   4.641
18913TIP3    H278155   6.447   5.080   4.760
18914TIP3   OH278156   6.206   4.689   4.858
18914TIP3    H178157   6.262   4.661   4.785
18914TIP3    H278158   6.259   4.754   4.905
18915TIP3   OH278159   6.868   5.231   4.894
18915TIP3    H178160   6.854   5.300   4.959
18915TIP3    H278161   6.841   5.151   4.938
18916TIP3   OH278162   6.362   5.103   5.346
18916TIP3    H178163   6.285   5.145   5.385
18916TIP3    H278164   6.332   5.073   5.260
18917TIP3   OH278165   6.949   4.661   4.043
18917TIP3    H178166   6.990   4.690   4.124
18917TIP3    H278167   7.001   4.702   3.974
18918TIP3   OH278168   6.024   4.727   5.260
18918TIP3    H178169   6.027   4.823   5.250
18918TIP3    H278170   5.935   4.703   5.236
18919TIP3   OH278171   6.690   5.321   4.376
18919TIP3    H178172   6.765   5.335   4.434
18919TIP3    H278173   6.667   5.408   4.344
18920TIP3   OH278174   6.103   5.230   5.365
18920TIP3    H178175   6.134   5.312   5.325
18920TIP3    H278176   6.049   5.259   5.439
18921TIP3   OH278177   5.996   4.655   4.219
18921TIP3    H178178   5.977   4.735   4.171
18921TIP3    H278179   6.091   4.652   4.223
18922TIP3   OH278180   5.726   4.956   5.144
18922TIP3    H178181   5.679   4.970   5.062
18922TIP3    H278182   5.736   4.861   5.151
18923TIP3   OH278183   5.719   5.225   4.808
18923TIP3    H178184   5.807   5.219   4.846
18923TIP3    H278185   5.678   5.298   4.853
18924TIP3   OH278186   6.587   5.254   5.282
18924TIP3    H178187   6.595   5.330   5.341
18924TIP3    H278188   6.508   5.208   5.313
18925TIP3   OH278189   6.690   5.583   4.254
18925TIP3    H178190   6.663   5.589   4.162
18925TIP3    H278191   6.657   5.664   4.293
18926TIP3   OH278192   6.028   5.476   4.439
18926TIP3    H178193   6.049   5.445   4.527
18926TIP3    H278194   5.972   5.408   4.402
18927TIP3   OH278195   6.970   5.519   3.927
18927TIP3    H178196   7.017   5.444   3.891
18927TIP3    H278197   6.980   5.511   4.021
18928TIP3   OH278198   6.954   5.508   4.205
18928TIP3    H178199   6.862   5.518   4.230
18928TIP3    H278200   6.996   5.475   4.284
18929TIP3   OH278201   7.153   4.425   5.441
18929TIP3    H178202   7.188   4.463   5.361
18929TIP3    H278203   7.223   4.369   5.474
18930TIP3   OH278204   5.986   5.003   5.236
18930TIP3    H178205   5.999   5.082   5.289
18930TIP3    H278206   5.896   5.008   5.206
18931TIP3   OH278207   6.200   3.915   4.829
18931TIP3    H178208   6.122   3.907   4.774
18931TIP3    H278209   6.179   3.986   4.890
18932TIP3   OH278210   6.688   3.866   5.168
18932TIP3    H178211   6.734   3.825   5.241
18932TIP3    H278212   6.596   3.867   5.195
18933TIP3   OH278213   6.984   4.269   5.222
18933TIP3    H178214   6.926   4.254   5.297
18933TIP3    H278215   6.999   4.363   5.221
18934TIP3   OH278216   7.087   4.785   3.843
18934TIP3    H178217   7.078   4.774   3.748
18934TIP3    H278218   7.092   4.880   3.856
18935TIP3   OH278219   6.632   4.130   3.893
18935TIP3    H178220   6.580   4.125   3.973
18935TIP3    H278221   6.594   4.063   3.836
18936TIP3   OH278222   6.222   4.427   4.952
18936TIP3    H178223   6.156   4.422   5.021
18936TIP3    H278224   6.225   4.520   4.929
18937TIP3   OH278225   6.222   4.453   4.447
18937TIP3    H178226   6.130   4.439   4.427
18937TIP3    H278227   6.253   4.511   4.377
18938TIP3   OH278228   6.750   4.470   4.312
18938TIP3    H178229   6.733   4.559   4.281
18938TIP3    H278230   6.820   4.438   4.256
18939TIP3   OH278231   6.685   4.493   5.438
18939TIP3    H178232   6.637   4.419   5.476
18939TIP3    H278233   6.770   4.492   5.483
18940TIP3   OH278234   6.801   4.376   4.567
18940TIP3    H178235   6.775   4.425   4.490
18940TIP3    H278236   6.860   4.308   4.534
18941TIP3   OH278237   6.006   4.419   5.124
18941TIP3    H178238   6.046   4.447   5.206
18941TIP3    H278239   5.961   4.337   5.146
18942TIP3   OH278240   6.314   4.171   3.789
18942TIP3    H178241   6.282   4.156   3.878
18942TIP3    H278242   6.249   4.229   3.750
18943TIP3   OH278243   5.677   4.144   4.512
18943TIP3    H178244   5.721   4.146   4.598
18943TIP3    H278245   5.712   4.221   4.467
18944TIP3   OH278246   5.725   4.228   4.029
18944TIP3    H178247   5.790   4.271   3.973
18944TIP3    H278248   5.670   4.299   4.062
18945TIP3   OH278249   6.776   4.564   5.018
18945TIP3    H178250   6.828   4.509   4.959
18945TIP3    H278251   6.733   4.502   5.077
18946TIP3   OH278252   6.498   4.154   4.521
18946TIP3    H178253   6.409   4.168   4.552
18946TIP3    H278254   6.545   4.120   4.597
18947TIP3   OH278255   5.967   4.345   4.412
18947TIP3    H178256   5.894   4.374   4.356
18947TIP3    H278257   5.985   4.256   4.382
18948TIP3   OH278258   6.311   4.367   4.122
18948TIP3    H178259   6.385   4.341   4.177
18948TIP3    H278260   6.293   4.457   4.146
18949TIP3   OH278261   6.848   4.130   4.818
18949TIP3    H178262   6.836   4.120   4.913
18949TIP3    H278263   6.768   4.094   4.779
18950TIP3   OH278264   6.149   4.495   3.892
18950TIP3    H178265   6.146   4.442   3.812
18950TIP3    H278266   6.196   4.441   3.955
18951TIP3   OH278267   7.226   5.719   5.412
18951TIP3    H178268   7.195   5.794   5.361
18951TIP3    H278269   7.321   5.726   5.410
18952TIP3   OH278270   6.585   4.464   4.726
18952TIP3    H178271   6.652   4.414   4.679
18952TIP3    H278272   6.562   4.409   4.801
18953TIP3   OH278273   6.062   4.083   4.362
18953TIP3    H178274   6.010   4.007   4.390
18953TIP3    H278275   6.088   4.063   4.272
18954TIP3   OH278276   6.487   4.334   4.956
18954TIP3    H178277   6.403   4.378   4.966
18954TIP3    H278278   6.536   4.357   5.035
18955TIP3   OH278279   6.510   4.891   4.153
18955TIP3    H178280   6.447   4.818   4.152
18955TIP3    H278281   6.490   4.938   4.234
18956TIP3   OH278282   7.205   4.869   4.954
18956TIP3    H178283   7.274   4.843   4.893
18956TIP3    H278284   7.124   4.840   4.912
18957TIP3   OH278285   6.890   4.188   3.961
18957TIP3    H178286   6.797   4.184   3.940
18957TIP3    H278287   6.900   4.269   4.011
18958TIP3   OH278288   6.636   4.979   5.218
18958TIP3    H178289   6.623   4.940   5.305
18958TIP3    H278290   6.623   5.073   5.232
18959TIP3   OH278291   6.953   4.395   4.133
18959TIP3    H178292   7.034   4.366   4.174
18959TIP3    H278293   6.972   4.483   4.101
18960TIP3   OH278294   6.056   4.860   4.682
18960TIP3    H178295   6.118   4.850   4.609
18960TIP3    H278296   6.088   4.799   4.748
18961TIP3   OH278297   6.709   5.044   4.038
18961TIP3    H178298   6.678   5.135   4.043
18961TIP3    H278299   6.635   4.992   4.069
18962TIP3   OH278300   5.747   4.680   5.213
18962TIP3    H178301   5.713   4.627   5.285
18962TIP3    H278302   5.687   4.663   5.140
18963TIP3   OH278303   6.475   4.671   5.442
18963TIP3    H178304   6.415   4.628   5.381
18963TIP3    H278305   6.555   4.619   5.437
18964TIP3   OH278306   6.866   5.204   5.256
18964TIP3    H178307   6.773   5.227   5.261
18964TIP3    H278308   6.908   5.256   5.325
18965TIP3   OH278309   6.988   4.786   4.794
18965TIP3    H178310   6.894   4.771   4.805
18965TIP3    H278311   7.022   4.704   4.759
18966TIP3   OH278312   6.295   5.224   4.466
18966TIP3    H178313   6.314   5.309   4.426
18966TIP3    H278314   6.202   5.228   4.488
18967TIP3   OH278315   5.843   4.690   3.899
18967TIP3    H178316   5.894   4.750   3.954
18967TIP3    H278317   5.760   4.680   3.945
18968TIP3   OH278318   6.422   4.998   4.384
18968TIP3    H178319   6.386   5.083   4.408
18968TIP3    H278320   6.366   4.934   4.428
18969TIP3   OH278321   6.482   5.386   5.049
18969TIP3    H178322   6.540   5.459   5.026
18969TIP3    H278323   6.527   5.341   5.120
18970TIP3   OH278324   6.289   5.481   4.350
18970TIP3    H178325   6.196   5.493   4.372
18970TIP3    H278326   6.332   5.558   4.387
18971TIP3   OH278327   6.802   4.981   5.006
18971TIP3    H178328   6.742   4.973   5.080
18971TIP3    H278329   6.886   4.951   5.040
18972TIP3   OH278330   7.058   5.051   3.929
18972TIP3    H178331   7.085   5.031   4.019
18972TIP3    H278332   6.963   5.063   3.935
18973TIP3   OH278333   7.067   5.432   5.213
18973TIP3    H178334   6.987   5.401   5.170
18973TIP3    H278335   7.092   5.510   5.164
18974TIP3   OH278336   5.893   4.162   5.178
18974TIP3    H178337   5.800   4.182   5.167
18974TIP3    H278338   5.896   4.097   5.248
18975TIP3   OH278339   7.146   4.964   4.180
18975TIP3    H178340   7.134   4.876   4.216
18975TIP3    H278341   7.241   4.973   4.173
18976TIP3   OH278342   5.925   5.386   5.019
18976TIP3    H178343   6.009   5.348   5.043
18976TIP3    H278344   5.918   5.466   5.071
18977TIP3   OH278345   6.452   5.191   3.771
18977TIP3    H178346   6.460   5.105   3.730
18977TIP3    H278347   6.408   5.175   3.854
18978TIP3   OH278348   6.321   5.165   4.014
18978TIP3    H178349   6.354   5.109   4.086
18978TIP3    H278350   6.334   5.254   4.046
18979TIP3   OH278351   5.949   4.885   4.064
18979TIP3    H178352   5.886   4.938   4.113
18979TIP3    H278353   6.006   4.950   4.022
18980TIP3   OH278354   6.798   4.111   5.081
18980TIP3    H178355   6.857   4.152   5.143
18980TIP3    H278356   6.763   4.035   5.127
18981TIP3   OH278357   6.849   4.071   4.217
18981TIP3    H178358   6.875   4.110   4.133
18981TIP3    H278359   6.892   4.125   4.283
18982TIP3   OH278360   6.622   5.299   4.059
18982TIP3    H178361   6.535   5.330   4.086
18982TIP3    H278362   6.669   5.379   4.035
18983TIP3   OH278363   6.531   4.301   4.287
18983TIP3    H178364   6.601   4.365   4.298
18983TIP3    H278365   6.517   4.267   4.376
18984TIP3   OH278366   6.652   4.382   5.182
18984TIP3    H178367   6.658   4.424   5.268
18984TIP3    H278368   6.687   4.294   5.196
18985TIP3   OH278369   6.623   3.985   4.340
18985TIP3    H178370   6.592   4.051   4.403
18985TIP3    H278371   6.706   4.019   4.307
18986TIP3   OH278372   6.376   5.418   4.099
18986TIP3    H178373   6.379   5.502   4.053
18986TIP3    H278374   6.344   5.441   4.187
18987TIP3   OH278375   6.220   4.117   4.045
18987TIP3    H178376   6.227   4.206   4.078
18987TIP3    H278377   6.303   4.076   4.070
18988TIP3   OH278378   7.214   4.116   5.223
18988TIP3    H178379   7.133   4.167   5.226
18988TIP3    H278380   7.269   4.154   5.292
18989TIP3   OH278381   7.099   4.549   4.705
18989TIP3    H178382   7.037   4.494   4.753
18989TIP3    H278383   7.181   4.540   4.754
18990TIP3   OH278384   6.065   5.103   3.921
18990TIP3    H178385   6.139   5.145   3.966
18990TIP3    H278386   6.105   5.055   3.848
18991TIP3   OH278387   5.865   4.397   3.864
18991TIP3    H178388   5.925   4.460   3.904
18991TIP3    H278389   5.816   4.448   3.800
18992TIP3   OH278390   7.225   5.500   4.823
18992TIP3    H178391   7.214   5.573   4.761
18992TIP3    H278392   7.320   5.490   4.829
18993TIP3   OH278393   5.955   3.888   4.705
18993TIP3    H178394   5.944   3.879   4.610
18993TIP3    H278395   5.926   3.804   4.741
18994TIP3   OH278396   5.840   5.293   4.326
18994TIP3    H178397   5.786   5.322   4.400
18994TIP3    H278398   5.824   5.359   4.258
18995TIP3   OH278399   5.787   5.548   5.489
18995TIP3    H178400   5.871   5.501   5.491
18995TIP3    H278401   5.723   5.482   5.463
18996TIP3   OH278402   6.652   5.380   3.749
18996TIP3    H178403   6.587   5.312   3.766
18996TIP3    H278404   6.730   5.332   3.720
18997TIP3   OH278405   7.100   5.306   3.805
18997TIP3    H178406   7.117   5.220   3.843
18997TIP3    H278407   7.169   5.317   3.738
18998TIP3   OH278408   6.200   4.941   3.746
18998TIP3    H178409   6.205   4.877   3.817
18998TIP3    H278410   6.289   4.947   3.713
18999TIP3   OH278411   6.553   4.935   5.481
18999TIP3    H178412   6.479   4.991   5.459
18999TIP3    H278413   6.518   4.846   5.478
19000TIP3   OH278414   6.783   5.042   3.773
19000TIP3    H178415   6.746   5.040   3.861
19000TIP3    H278416   6.770   4.954   3.739
19001TIP3   OH278417   6.994   4.958   5.223
19001TIP3    H178418   7.085   4.987   5.234
19001TIP3    H278419   6.942   5.037   5.235
19002TIP3   OH278420   6.227   4.752   3.937
19002TIP3    H178421   6.246   4.751   4.031
19002TIP3    H278422   6.178   4.671   3.921
19003TIP3   OH278423   6.235   4.544   5.263
19003TIP3    H178424   6.170   4.615   5.264
19003TIP3    H278425   6.303   4.576   5.204
19004TIP3   OH278426   6.456   4.600   3.880
19004TIP3    H178427   6.382   4.660   3.876
19004TIP3    H278428   6.461   4.574   3.972
19005TIP3   OH278429   6.319   4.286   5.347
19005TIP3    H178430   6.325   4.230   5.269
19005TIP3    H278431   6.287   4.369   5.314
19006TIP3   OH278432   6.347   4.128   5.107
19006TIP3    H178433   6.401   4.178   5.045
19006TIP3    H278434   6.260   4.126   5.067
19007TIP3   OH278435   6.442   4.647   5.116
19007TIP3    H178436   6.537   4.647   5.121
19007TIP3    H278437   6.419   4.730   5.075
19008TIP3   OH278438   6.920   4.453   5.598
19008TIP3    H178439   6.926   4.378   5.656
19008TIP3    H278440   6.999   4.449   5.545
19009TIP3   OH278441   7.074   4.748   5.388
19009TIP3    H178442   7.047   4.820   5.331
19009TIP3    H278443   7.168   4.739   5.373
19010TIP3   OH278444   6.404   3.860   5.168
19010TIP3    H178445   6.385   3.952   5.152
19010TIP3    H278446   6.328   3.814   5.132
19011TIP3   OH278447   6.541   4.271   5.508
19011TIP3    H178448   6.509   4.255   5.597
19011TIP3    H278449   6.462   4.271   5.454
19012TIP3   OH278450   6.771   4.192   5.380
19012TIP3    H178451   6.691   4.209   5.428
19012TIP3    H278452   6.829   4.150   5.443
19013TIP3   OH278453   6.935   4.084   5.564
19013TIP3    H178454   6.945   3.991   5.585
19013TIP3    H278455   6.934   4.127   5.650
19014TIP3   OH278456   5.931   4.193   5.543
19014TIP3    H178457   5.943   4.115   5.489
19014TIP3    H278458   5.943   4.163   5.633
19015TIP3   OH278459   6.422   3.799   5.436
19015TIP3    H178460   6.472   3.718   5.437
19015TIP3    H278461   6.413   3.821   5.343
19016TIP3   OH278462   6.469   3.934   5.675
19016TIP3    H178463   6.465   3.893   5.588
19016TIP3    H278464   6.413   4.011   5.667
19017TIP3   OH278465   6.440   5.654   3.968
19017TIP3    H178466   6.532   5.627   3.964
19017TIP3    H278467   6.433   5.722   3.901
19018TIP3   OH278468   5.800   5.141   3.865
19018TIP3    H178469   5.891   5.135   3.895
19018TIP3    H278470   5.787   5.063   3.812
19019TIP3   OH278471   5.674   5.620   4.425
19019TIP3    H178472   5.613   5.594   4.356
19019TIP3    H278473   5.686   5.541   4.477
19020TIP3   OH278474   5.741   5.394   4.572
19020TIP3    H178475   5.709   5.320   4.624
19020TIP3    H278476   5.795   5.445   4.634
19021TIP3   OH278477   7.229   5.231   5.086
19021TIP3    H178478   7.176   5.304   5.119
19021TIP3    H278479   7.196   5.216   4.997
19022TIP3   OH278480   7.175   4.514   4.441
19022TIP3    H178481   7.204   4.423   4.451
19022TIP3    H278482   7.148   4.539   4.530
19023TIP3   OH278483   5.727   4.754   4.832
19023TIP3    H178484   5.738   4.741   4.737
19023TIP3    H278485   5.808   4.721   4.870
19024TIP3   OH278486   7.222   4.164   3.735
19024TIP3    H178487   7.254   4.142   3.823
19024TIP3    H278488   7.136   4.123   3.729
19025TIP3   OH278489   7.182   4.278   4.250
19025TIP3    H178490   7.235   4.245   4.323
19025TIP3    H278491   7.244   4.285   4.177
19026TIP3   OH278492   7.246   4.242   4.802
19026TIP3    H178493   7.334   4.210   4.780
19026TIP3    H278494   7.261   4.331   4.834
19027TIP3   OH278495   7.270   4.493   5.146
19027TIP3    H178496   7.175   4.508   5.140
19027TIP3    H278497   7.298   4.482   5.055
19028TIP3   OH278498   5.697   4.276   5.425
19028TIP3    H178499   5.781   4.264   5.469
19028TIP3    H278500   5.651   4.192   5.436
19029TIP3   OH278501   7.227   3.987   4.346
19029TIP3    H178502   7.270   3.905   4.369
19029TIP3    H278503   7.156   3.962   4.287
19030TIP3   OH278504   5.821   4.130   4.749
19030TIP3    H178505   5.860   4.043   4.746
19030TIP3    H278506   5.894   4.190   4.765
19031TIP3   OH278507   5.635   4.414   4.803
19031TIP3    H178508   5.709   4.419   4.742
19031TIP3    H278509   5.659   4.473   4.875
19032TIP3   OH278510   5.690   4.008   4.190
19032TIP3    H178511   5.608   4.021   4.236
19032TIP3    H278512   5.712   4.093   4.153
19033TIP3   OH278513   7.128   5.510   4.486
19033TIP3    H178514   7.208   5.462   4.504
19033TIP3    H278515   7.138   5.593   4.532
19034TIP3   OH278516   5.688   3.881   5.042
19034TIP3    H178517   5.627   3.870   5.115
19034TIP3    H278518   5.656   3.957   4.995
19035TIP3   OH278519   5.882   5.253   5.553
19035TIP3    H178520   5.798   5.266   5.508
19035TIP3    H278521   5.866   5.179   5.611
19036TIP3   OH278522   6.208   5.359   5.095
19036TIP3    H178523   6.191   5.451   5.078
19036TIP3    H278524   6.303   5.351   5.088
19037TIP3   OH278525   6.614   5.471   5.445
19037TIP3    H178526   6.611   5.477   5.541
19037TIP3    H278527   6.688   5.525   5.420
19038TIP3   OH278528   6.827   5.611   5.338
19038TIP3    H178529   6.902   5.567   5.300
19038TIP3    H278530   6.863   5.662   5.411
19039TIP3   OH278531   5.920   5.648   5.131
19039TIP3    H178532   5.849   5.697   5.090
19039TIP3    H278533   5.932   5.689   5.217
19040TIP3   OH278534   6.179   5.626   5.037
19040TIP3    H178535   6.090   5.643   5.068
19040TIP3    H278536   6.187   5.679   4.958
19041TIP3   OH278537   6.635   5.599   4.936
19041TIP3    H178538   6.574   5.637   4.872
19041TIP3    H278539   6.647   5.667   5.001
19042TIP3   OH278540   6.859   5.472   5.031
19042TIP3    H178541   6.778   5.516   5.005
19042TIP3    H278542   6.927   5.539   5.021
19043TIP3   OH278543   7.089   5.631   5.025
19043TIP3    H178544   7.103   5.724   5.007
19043TIP3    H278545   7.139   5.585   4.957
19044TIP3   OH278546   5.890   5.519   4.773
19044TIP3    H178547   5.876   5.485   4.862
19044TIP3    H278548   5.973   5.479   4.745
19045TIP3   OH278549   6.110   5.383   4.685
19045TIP3    H178550   6.093   5.294   4.718
19045TIP3    H278551   6.196   5.406   4.721
19046TIP3   OH278552   6.368   5.413   4.793
19046TIP3    H178553   6.378   5.322   4.765
19046TIP3    H278554   6.396   5.413   4.885
19047TIP3   OH278555   6.647   3.988   4.685
19047TIP3    H178556   6.591   3.922   4.724
19047TIP3    H278557   6.715   3.938   4.639
19048TIP3   OH278558   7.200   3.836   4.672
19048TIP3    H178559   7.282   3.879   4.647
19048TIP3    H278560   7.146   3.907   4.707
19049TIP3   OH278561   5.930   3.846   4.430
19049TIP3    H178562   5.837   3.832   4.414
19049TIP3    H278563   5.969   3.759   4.424
19050TIP3   OH278564   5.805   3.846   4.000
19050TIP3    H178565   5.871   3.903   3.961
19050TIP3    H278566   5.766   3.899   4.071
19051TIP3   OH278567   6.464   3.789   4.482
19051TIP3    H178568   6.472   3.875   4.442
19051TIP3    H278569   6.439   3.807   4.573
19052TIP3   OH278570   6.844   3.845   4.542
19052TIP3    H178571   6.918   3.904   4.525
19052TIP3    H278572   6.879   3.781   4.604
19053TIP3   OH278573   7.041   3.872   4.183
19053TIP3    H178574   6.959   3.922   4.186
19053TIP3    H278575   7.013   3.780   4.183
19054TIP3   OH278576   5.806   5.473   4.122
19054TIP3    H178577   5.727   5.462   4.070
19054TIP3    H278578   5.829   5.565   4.113
19055TIP3   OH278579   6.015   4.007   3.878
19055TIP3    H178580   6.070   3.954   3.821
19055TIP3    H278581   6.076   4.043   3.943
19056TIP3   OH278582   6.486   4.089   4.123
19056TIP3    H178583   6.522   4.022   4.181
19056TIP3    H278584   6.499   4.171   4.170
19057TIP3   OH278585   6.697   5.552   3.957
19057TIP3    H178586   6.791   5.564   3.950
19057TIP3    H278587   6.673   5.503   3.879
19058TIP3   OH278588   5.929   3.951   5.412
19058TIP3    H178589   5.856   3.911   5.459
19058TIP3    H278590   6.006   3.903   5.443
19059TIP3   OH278591   6.161   3.825   5.552
19059TIP3    H178592   6.244   3.847   5.509
19059TIP3    H278593   6.169   3.733   5.575
19060TIP3   OH278594   5.988   5.526   3.807
19060TIP3    H178595   5.963   5.518   3.899
19060TIP3    H278596   6.066   5.470   3.799
19061TIP3   OH278597   6.970   3.808   5.586
19061TIP3    H178598   6.954   3.754   5.664
19061TIP3    H278599   7.065   3.805   5.574
19062TIP3   OH278600   7.231   5.440   5.443
19062TIP3    H178601   7.189   5.400   5.367
19062TIP3    H278602   7.228   5.534   5.425
19063TIP3   OH278603   1.185   6.688   4.419
19063TIP3    H178604   1.168   6.782   4.414
19063TIP3    H278605   1.121   6.648   4.359
19064TIP3   OH278606   1.093   6.557   4.811
19064TIP3    H178607   1.123   6.528   4.897
19064TIP3    H278608   1.054   6.479   4.772
19065TIP3   OH278609   0.301   6.558   4.943
19065TIP3    H178610   0.309   6.477   4.994
19065TIP3    H278611   0.298   6.628   5.009
19066TIP3   OH278612   1.450   6.904   4.625
19066TIP3    H178613   1.423   6.825   4.672
19066TIP3    H278614   1.474   6.966   4.694
19067TIP3   OH278615   0.364   6.995   4.786
19067TIP3    H178616   0.357   6.907   4.750
19067TIP3    H278617   0.400   6.983   4.873
19068TIP3   OH278618   0.119   6.411   4.294
19068TIP3    H178619   0.158   6.475   4.354
19068TIP3    H278620   0.028   6.403   4.323
19069TIP3   OH278621   0.210   6.564   4.509
19069TIP3    H178622   0.200   6.493   4.572
19069TIP3    H278623   0.257   6.632   4.557
19070TIP3   OH278624   0.974   6.797   4.801
19070TIP3    H178625   1.015   6.710   4.805
19070TIP3    H278626   1.025   6.849   4.863
19071TIP3   OH278627   1.799   5.995   4.926
19071TIP3    H178628   1.819   6.063   4.991
19071TIP3    H278629   1.846   6.022   4.848
19072TIP3   OH278630   1.232   6.268   4.838
19072TIP3    H178631   1.249   6.174   4.849
19072TIP3    H278632   1.213   6.278   4.745
19073TIP3   OH278633   0.588   6.099   4.568
19073TIP3    H178634   0.604   6.183   4.526
19073TIP3    H278635   0.540   6.048   4.503
19074TIP3   OH278636   1.364   6.116   4.412
19074TIP3    H178637   1.397   6.081   4.495
19074TIP3    H278638   1.441   6.150   4.367
19075TIP3   OH278639   0.218   6.331   4.663
19075TIP3    H178640   0.289   6.297   4.719
19075TIP3    H278641   0.238   6.299   4.576
19076TIP3   OH278642   0.756   6.508   4.604
19076TIP3    H178643   0.826   6.457   4.646
19076TIP3    H278644   0.710   6.444   4.549
19077TIP3   OH278645   1.849   6.164   5.144
19077TIP3    H178646   1.770   6.216   5.131
19077TIP3    H278647   1.867   6.170   5.238
19078TIP3   OH278648   0.452   6.001   4.991
19078TIP3    H178649   0.431   6.061   4.919
19078TIP3    H278650   0.382   6.015   5.055
19079TIP3   OH278651   1.099   6.937   4.337
19079TIP3    H178652   1.120   6.947   4.245
19079TIP3    H278653   1.091   7.026   4.371
19080TIP3   OH278654   0.707   6.776   4.986
19080TIP3    H178655   0.639   6.836   5.017
19080TIP3    H278656   0.787   6.827   4.989
19081TIP3   OH278657   1.452   6.062   4.663
19081TIP3    H178658   1.392   6.028   4.729
19081TIP3    H278659   1.514   6.116   4.712
19082TIP3   OH278660   0.421   6.172   4.774
19082TIP3    H178661   0.474   6.232   4.827
19082TIP3    H278662   0.481   6.140   4.707
19083TIP3   OH278663   0.523   6.970   5.077
19083TIP3    H178664   0.536   7.065   5.085
19083TIP3    H278665   0.456   6.950   5.143
19084TIP3   OH278666   0.112   6.947   4.132
19084TIP3    H178667   0.107   6.991   4.047
19084TIP3    H278668   0.134   7.017   4.194
19085TIP3   OH278669   1.484   7.114   4.815
19085TIP3    H178670   1.398   7.121   4.854
19085TIP3    H278671   1.491   7.191   4.759
19086TIP3   OH278672   1.549   5.895   5.011
19086TIP3    H178673   1.480   5.939   4.961
19086TIP3    H278674   1.631   5.923   4.970
19087TIP3   OH278675   0.801   5.693   4.741
19087TIP3    H178676   0.779   5.600   4.736
19087TIP3    H278677   0.722   5.735   4.773
19088TIP3   OH278678   1.363   7.263   4.430
19088TIP3    H178679   1.393   7.175   4.407
19088TIP3    H278680   1.413   7.286   4.508
19089TIP3   OH278681   1.463   7.018   4.372
19089TIP3    H178682   1.468   6.949   4.306
19089TIP3    H278683   1.460   6.971   4.455
19090TIP3   OH278684   1.605   6.910   5.198
19090TIP3    H178685   1.601   6.852   5.122
19090TIP3    H278686   1.609   6.998   5.161
19091TIP3   OH278687   1.040   6.604   4.198
19091TIP3    H178688   0.982   6.675   4.172
19091TIP3    H278689   1.111   6.606   4.133
19092TIP3   OH278690   1.067   6.474   3.863
19092TIP3    H178691   1.122   6.499   3.937
19092TIP3    H278692   1.115   6.404   3.819
19093TIP3   OH278693   1.773   6.556   5.037
19093TIP3    H178694   1.700   6.618   5.032
19093TIP3    H278695   1.829   6.578   4.963
19094TIP3   OH278696   1.406   6.609   4.277
19094TIP3    H178697   1.340   6.633   4.341
19094TIP3    H278698   1.472   6.560   4.327
19095TIP3   OH278699   1.385   6.407   5.220
19095TIP3    H178700   1.386   6.483   5.279
19095TIP3    H278701   1.317   6.429   5.155
19096TIP3   OH278702   0.546   6.665   4.476
19096TIP3    H178703   0.512   6.635   4.391
19096TIP3    H278704   0.594   6.590   4.510
19097TIP3   OH278705   0.737   6.991   4.694
19097TIP3    H178706   0.701   7.047   4.626
19097TIP3    H278707   0.746   7.049   4.770
19098TIP3   OH278708   0.592   6.585   4.820
19098TIP3    H178709   0.661   6.558   4.759
19098TIP3    H278710   0.635   6.646   4.879
19099TIP3   OH278711   1.250   7.117   4.959
19099TIP3    H178712   1.235   7.148   5.049
19099TIP3    H278713   1.212   7.030   4.957
19100TIP3   OH278714   0.695   6.983   5.308
19100TIP3    H178715   0.638   7.049   5.347
19100TIP3    H278716   0.643   6.945   5.237
19101TIP3   OH278717   1.269   6.560   4.043
19101TIP3    H178718   1.323   6.589   4.116
19101TIP3    H278719   1.324   6.576   3.965
19102TIP3   OH278720   0.403   6.624   5.254
19102TIP3    H178721   0.403   6.720   5.260
19102TIP3    H278722   0.310   6.600   5.259
19103TIP3   OH278723   1.090   7.206   4.397
19103TIP3    H178724   1.181   7.229   4.413
19103TIP3    H278725   1.049   7.287   4.368
19104TIP3   OH278726   0.490   7.155   5.359
19104TIP3    H178727   0.493   7.246   5.331
19104TIP3    H278728   0.404   7.144   5.398
19105TIP3   OH278729   1.639   5.701   4.016
19105TIP3    H178730   1.557   5.725   4.059
19105TIP3    H278731   1.677   5.785   3.990
19106TIP3   OH278732   0.467   6.588   4.215
19106TIP3    H178733   0.406   6.648   4.173
19106TIP3    H278734   0.418   6.506   4.222
19107TIP3   OH278735   1.776   7.165   3.842
19107TIP3    H178736   1.753   7.218   3.918
19107TIP3    H278737   1.862   7.129   3.863
19108TIP3   OH278738   0.169   6.762   5.095
19108TIP3    H178739   0.089   6.790   5.052
19108TIP3    H278740   0.141   6.696   5.158
19109TIP3   OH278741   0.133   7.189   4.785
19109TIP3    H178742   0.198   7.120   4.774
19109TIP3    H278743   0.086   7.166   4.865
19110TIP3   OH278744   1.878   7.148   5.416
19110TIP3    H178745   1.854   7.056   5.417
19110TIP3    H278746   1.796   7.194   5.437
19111TIP3   OH278747   0.940   7.093   5.282
19111TIP3    H178748   0.934   7.167   5.343
19111TIP3    H278749   0.853   7.052   5.284
19112TIP3   OH278750   1.530   6.278   5.436
19112TIP3    H178751   1.491   6.331   5.366
19112TIP3    H278752   1.556   6.197   5.393
19113TIP3   OH278753   0.334   6.899   5.270
19113TIP3    H178754   0.299   6.967   5.328
19113TIP3    H278755   0.259   6.873   5.216
19114TIP3   OH278756   0.553   5.796   4.832
19114TIP3    H178757   0.477   5.792   4.775
19114TIP3    H278758   0.536   5.870   4.891
19115TIP3   OH278759   1.031   5.772   5.185
19115TIP3    H178760   1.078   5.716   5.246
19115TIP3    H278761   0.939   5.757   5.204
19116TIP3   OH278762   1.307   6.138   5.256
19116TIP3    H178763   1.245   6.130   5.329
19116TIP3    H278764   1.322   6.233   5.248
19117TIP3   OH278765   1.419   6.577   3.813
19117TIP3    H178766   1.402   6.600   3.721
19117TIP3    H278767   1.508   6.606   3.829
19118TIP3   OH278768   1.042   6.030   3.849
19118TIP3    H178769   0.970   6.023   3.912
19118TIP3    H278770   1.023   5.963   3.784
19119TIP3   OH278771   0.556   6.339   4.942
19119TIP3    H178772   0.489   6.341   5.011
19119TIP3    H278773   0.561   6.429   4.910
19120TIP3   OH278774   0.583   6.350   4.439
19120TIP3    H178775   0.489   6.331   4.442
19120TIP3    H278776   0.609   6.327   4.350
19121TIP3   OH278777   1.097   6.351   4.307
19121TIP3    H178778   1.074   6.437   4.272
19121TIP3    H278779   1.171   6.322   4.254
19122TIP3   OH278780   0.997   6.385   5.437
19122TIP3    H178781   0.954   6.310   5.479
19122TIP3    H278782   1.052   6.422   5.505
19123TIP3   OH278783   1.211   6.293   4.564
19123TIP3    H178784   1.158   6.333   4.495
19123TIP3    H278785   1.256   6.221   4.519
19124TIP3   OH278786   0.331   6.327   5.103
19124TIP3    H178787   0.342   6.357   5.193
19124TIP3    H278788   0.290   6.241   5.111
19125TIP3   OH278789   0.590   6.074   3.766
19125TIP3    H178790   0.648   6.018   3.817
19125TIP3    H278791   0.582   6.154   3.818
19126TIP3   OH278792   0.029   6.113   4.489
19126TIP3    H178793   0.087   6.098   4.563
19126TIP3    H278794  -0.005   6.025   4.467
19127TIP3   OH278795   0.085   6.171   4.055
19127TIP3    H178796   0.150   6.167   3.984
19127TIP3    H278797   0.078   6.264   4.076
19128TIP3   OH278798   1.169   6.430   5.044
19128TIP3    H178799   1.198   6.369   4.976
19128TIP3    H278800   1.099   6.382   5.090
19129TIP3   OH278801   0.876   6.097   4.570
19129TIP3    H178802   0.785   6.076   4.593
19129TIP3    H278803   0.927   6.027   4.610
19130TIP3   OH278804   0.323   6.249   4.418
19130TIP3    H178805   0.252   6.273   4.359
19130TIP3    H278806   0.344   6.159   4.395
19131TIP3   OH278807   0.626   6.256   4.178
19131TIP3    H178808   0.717   6.230   4.197
19131TIP3    H278809   0.627   6.276   4.084
19132TIP3   OH278810   1.257   5.991   4.852
19132TIP3    H178811   1.209   5.996   4.935
19132TIP3    H278812   1.199   5.942   4.794
19133TIP3   OH278813   0.580   6.319   3.902
19133TIP3    H178814   0.511   6.341   3.840
19133TIP3    H278815   0.654   6.373   3.875
19134TIP3   OH278816   0.933   6.337   4.728
19134TIP3    H178817   0.957   6.265   4.669
19134TIP3    H278818   0.900   6.294   4.806
19135TIP3   OH278819   0.423   5.992   4.367
19135TIP3    H178820   0.389   5.906   4.391
19135TIP3    H278821   0.448   5.983   4.276
19136TIP3   OH278822   0.813   6.226   4.957
19136TIP3    H178823   0.731   6.276   4.962
19136TIP3    H278824   0.865   6.257   5.031
19137TIP3   OH278825   0.844   6.819   4.146
19137TIP3    H178826   0.775   6.767   4.105
19137TIP3    H278827   0.819   6.825   4.238
19138TIP3   OH278828   1.579   6.746   4.974
19138TIP3    H178829   1.643   6.797   4.924
19138TIP3    H278830   1.510   6.727   4.911
19139TIP3   OH278831   1.283   6.089   3.957
19139TIP3    H178832   1.191   6.080   3.932
19139TIP3    H278833   1.285   6.167   4.013
19140TIP3   OH278834   0.996   6.821   5.232
19140TIP3    H178835   1.024   6.775   5.311
19140TIP3    H278836   0.975   6.909   5.262
19141TIP3   OH278837   1.317   6.294   4.137
19141TIP3    H178838   1.402   6.274   4.177
19141TIP3    H278839   1.324   6.385   4.109
19142TIP3   OH278840   0.368   6.721   4.689
19142TIP3    H178841   0.435   6.712   4.621
19142TIP3    H278842   0.400   6.665   4.760
19143TIP3   OH278843   1.072   6.940   4.043
19143TIP3    H178844   1.049   7.033   4.047
19143TIP3    H278845   0.995   6.895   4.078
19144TIP3   OH278846   0.139   6.550   5.271
19144TIP3    H178847   0.142   6.520   5.362
19144TIP3    H278848   0.079   6.489   5.228
19145TIP3   OH278849   0.758   6.536   5.474
19145TIP3    H178850   0.708   6.500   5.401
19145TIP3    H278851   0.846   6.500   5.462
19146TIP3   OH278852   1.218   7.094   5.246
19146TIP3    H178853   1.123   7.098   5.250
19146TIP3    H278854   1.246   7.107   5.337
19147TIP3   OH278855   1.771   6.320   4.078
19147TIP3    H178856   1.732   6.298   3.993
19147TIP3    H278857   1.795   6.413   4.069
19148TIP3   OH278858   1.821   6.872   5.367
19148TIP3    H178859   1.734   6.896   5.335
19148TIP3    H278860   1.875   6.868   5.288
19149TIP3   OH278861   1.750   7.145   4.189
19149TIP3    H178862   1.678   7.097   4.231
19149TIP3    H278863   1.707   7.211   4.136
19150TIP3   OH278864   1.379   6.675   4.780
19150TIP3    H178865   1.285   6.659   4.790
19150TIP3    H278866   1.412   6.594   4.740
19151TIP3   OH278867   0.647   7.102   4.450
19151TIP3    H178868   0.694   7.182   4.424
19151TIP3    H278869   0.570   7.134   4.496
19152TIP3   OH278870   0.180   6.579   3.900
19152TIP3    H178871   0.235   6.635   3.955
19152TIP3    H278872   0.091   6.596   3.930
19153TIP3   OH278873   0.739   6.847   4.411
19153TIP3    H178874   0.709   6.938   4.412
19153TIP3    H278875   0.659   6.795   4.419
19154TIP3   OH278876   0.843   7.238   4.965
19154TIP3    H178877   0.820   7.306   5.029
19154TIP3    H278878   0.900   7.178   5.013
19155TIP3   OH278879   1.149   6.861   5.009
19155TIP3    H178880   1.090   6.847   5.084
19155TIP3    H278881   1.233   6.827   5.038
19156TIP3   OH278882   1.407   6.982   3.942
19156TIP3    H178883   1.444   6.938   4.019
19156TIP3    H278884   1.314   6.962   3.947
19157TIP3   OH278885   0.232   6.059   5.149
19157TIP3    H178886   0.185   6.090   5.226
19157TIP3    H278887   0.188   5.977   5.126
19158TIP3   OH278888   1.508   6.835   4.158
19158TIP3    H178889   1.471   6.757   4.197
19158TIP3    H278890   1.603   6.822   4.163
19159TIP3   OH278891   0.264   7.243   5.078
19159TIP3    H178892   0.203   7.169   5.084
19159TIP3    H278893   0.208   7.320   5.089
19160TIP3   OH278894   0.814   7.065   3.766
19160TIP3    H178895   0.821   6.980   3.723
19160TIP3    H278896   0.785   7.044   3.855
19161TIP3   OH278897   0.693   7.046   4.015
19161TIP3    H178898   0.742   6.985   4.070
19161TIP3    H278899   0.703   7.131   4.058
19162TIP3   OH278900   0.306   6.761   4.068
19162TIP3    H178901   0.235   6.809   4.111
19162TIP3    H278902   0.357   6.829   4.024
19163TIP3   OH278903   1.123   6.016   5.092
19163TIP3    H178904   1.193   6.043   5.151
19163TIP3    H278905   1.091   5.933   5.128
19164TIP3   OH278906   1.235   5.967   4.219
19164TIP3    H178907   1.255   6.011   4.136
19164TIP3    H278908   1.272   6.024   4.286
19165TIP3   OH278909   0.981   7.195   4.042
19165TIP3    H178910   0.906   7.245   4.074
19165TIP3    H278911   1.007   7.239   3.961
19166TIP3   OH278912   0.868   6.193   4.313
19166TIP3    H178913   0.947   6.245   4.301
19166TIP3    H278914   0.872   6.165   4.405
19167TIP3   OH278915   0.985   6.271   5.173
19167TIP3    H178916   0.991   6.299   5.265
19167TIP3    H278917   1.021   6.183   5.172
19168TIP3   OH278918   1.055   5.812   4.357
19168TIP3    H178919   0.969   5.853   4.344
19168TIP3    H278920   1.116   5.869   4.310
19169TIP3   OH278921   0.733  -0.004   4.132
19169TIP3    H178922   0.705   0.079   4.093
19169TIP3    H278923   0.729   0.010   4.226
19170TIP3   OH278924   0.501   6.015   4.098
19170TIP3    H178925   0.525   6.103   4.127
19170TIP3    H278926   0.583   5.978   4.065
19171TIP3   OH278927   1.567   6.051   5.274
19171TIP3    H178928   1.473   6.066   5.264
19171TIP3    H278929   1.593   6.007   5.193
19172TIP3   OH278930   1.446   6.426   4.667
19172TIP3    H178931   1.362   6.384   4.649
19172TIP3    H278932   1.491   6.365   4.725
19173TIP3   OH278933   0.417   6.975   3.924
19173TIP3    H178934   0.483   7.030   3.966
19173TIP3    H278935   0.466   6.920   3.864
19174TIP3   OH278936   0.213   6.307   3.852
19174TIP3    H178937   0.211   6.398   3.881
19174TIP3    H278938   0.201   6.311   3.757
19175TIP3   OH278939   0.303   5.783   4.707
19175TIP3    H178940   0.313   5.774   4.612
19175TIP3    H278941   0.272   5.697   4.736
19176TIP3   OH278942   0.162   7.198   4.259
19176TIP3    H178943   0.072   7.222   4.281
19176TIP3    H278944   0.181   7.245   4.179
19177TIP3   OH278945   0.627   7.263   5.657
19177TIP3    H178946   0.678   7.284   5.735
19177TIP3    H278947   0.692   7.259   5.587
19178TIP3   OH278948   1.050   7.225   3.766
19178TIP3    H178949   0.961   7.191   3.757
19178TIP3    H278950   1.107   7.154   3.736
19179TIP3   OH278951   1.269   7.105   5.515
19179TIP3    H178952   1.216   7.052   5.574
19179TIP3    H278953   1.330   7.151   5.572
19180TIP3   OH278954   1.463   7.204   3.784
19180TIP3    H178955   1.439   7.141   3.851
19180TIP3    H278956   1.555   7.226   3.802
19181TIP3   OH278957   0.091   6.792   5.546
19181TIP3    H178958   0.102   6.703   5.513
19181TIP3    H278959   0.036   6.836   5.481
19182TIP3   OH278960   0.558   6.793   3.780
19182TIP3    H178961   0.585   6.748   3.860
19182TIP3    H278962   0.639   6.802   3.730
19183TIP3   OH278963   1.131   6.931   3.771
19183TIP3    H178964   1.102   6.927   3.862
19183TIP3    H278965   1.116   6.842   3.737
19184TIP3   OH278966   1.340   6.841   5.236
19184TIP3    H178967   1.433   6.865   5.237
19184TIP3    H278968   1.293   6.923   5.247
19185TIP3   OH278969   0.216   6.488   5.534
19185TIP3    H178970   0.300   6.443   5.525
19185TIP3    H278971   0.225   6.537   5.616
19186TIP3   OH278972   0.654   6.664   4.014
19186TIP3    H178973   0.600   6.620   4.080
19186TIP3    H278974   0.697   6.592   3.967
19187TIP3   OH278975   0.598   6.432   5.260
19187TIP3    H178976   0.532   6.502   5.258
19187TIP3    H278977   0.664   6.459   5.196
19188TIP3   OH278978   0.787   6.490   3.839
19188TIP3    H178979   0.788   6.515   3.746
19188TIP3    H278980   0.879   6.475   3.861
19189TIP3   OH278981   1.125   6.714   5.619
19189TIP3    H178982   1.218   6.707   5.639
19189TIP3    H278983   1.088   6.630   5.644
19190TIP3   OH278984   1.678   6.672   3.794
19190TIP3    H178985   1.681   6.650   3.701
19190TIP3    H278986   1.669   6.768   3.796
19191TIP3   OH278987   0.645   6.179   5.355
19191TIP3    H178988   0.663   6.116   5.285
19191TIP3    H278989   0.636   6.263   5.311
19192TIP3   OH278990   0.694   6.019   5.120
19192TIP3    H178991   0.750   6.068   5.061
19192TIP3    H278992   0.610   6.014   5.075
19193TIP3   OH278993   0.792   6.533   5.099
19193TIP3    H178994   0.883   6.540   5.126
19193TIP3    H278995   0.769   6.620   5.067
19194TIP3   OH278996   1.331   6.311   5.641
19194TIP3    H178997   1.390   6.288   5.570
19194TIP3    H278998   1.352   6.402   5.662
19195TIP3   OH278999   1.406   6.619   5.390
19195TIP3    H179000   1.371   6.697   5.347
19195TIP3    H279001   1.500   6.634   5.395
19196TIP3   OH279002   0.425   6.294   5.534
19196TIP3    H179003   0.392   6.205   5.531
19196TIP3    H279004   0.503   6.293   5.479
19197TIP3   OH279005   0.752   5.748   5.186
19197TIP3    H179006   0.730   5.838   5.163
19197TIP3    H279007   0.688   5.695   5.138
19198TIP3   OH279008   0.862   6.168   5.529
19198TIP3    H179009   0.828   6.138   5.614
19198TIP3    H279010   0.786   6.164   5.471
19199TIP3   OH279011   1.102   6.066   5.428
19199TIP3    H179012   1.024   6.105   5.467
19199TIP3    H279013   1.093   5.972   5.446
19200TIP3   OH279014   0.295   6.041   5.551
19200TIP3    H179015   0.289   5.967   5.490
19200TIP3    H279016   0.334   6.004   5.630
19201TIP3   OH279017   0.750   5.679   5.455
19201TIP3    H179018   0.809   5.603   5.461
19201TIP3    H279019   0.748   5.701   5.362
19202TIP3   OH279020   0.896   5.867   5.612
19202TIP3    H179021   0.849   5.797   5.566
19202TIP3    H279022   0.827   5.923   5.647
19203TIP3   OH279023   0.152   7.012   3.845
19203TIP3    H179024   0.242   7.002   3.876
19203TIP3    H279025   0.137   6.937   3.788
19204TIP3   OH279026   1.623   6.968   5.641
19204TIP3    H179027   1.544   6.968   5.695
19204TIP3    H279028   1.670   7.047   5.667
19205TIP3   OH279029   1.775   6.773   4.195
19205TIP3    H179030   1.848   6.834   4.194
19205TIP3    H279031   1.795   6.713   4.267
19206TIP3   OH279032   1.831   6.578   4.381
19206TIP3    H179033   1.749   6.541   4.415
19206TIP3    H279034   1.886   6.588   4.459
19207TIP3   OH279035   1.809   6.869   4.888
19207TIP3    H179036   1.862   6.799   4.850
19207TIP3    H279037   1.853   6.950   4.861
19208TIP3   OH279038   1.568   7.161   5.083
19208TIP3    H179039   1.477   7.174   5.107
19208TIP3    H279040   1.566   7.144   4.989
19209TIP3   OH279041   1.826   6.580   4.005
19209TIP3    H179042   1.772   6.607   3.930
19209TIP3    H279043   1.807   6.646   4.072
19210TIP3   OH279044   1.678   6.278   3.820
19210TIP3    H179045   1.641   6.329   3.748
19210TIP3    H279046   1.664   6.187   3.795
19211TIP3   OH279047   1.581   6.454   4.428
19211TIP3    H179048   1.584   6.363   4.398
19211TIP3    H279049   1.542   6.449   4.515
19212TIP3   OH279050   0.085   6.656   4.806
19212TIP3    H179051   0.108   6.705   4.727
19212TIP3    H279052   0.169   6.633   4.846
19213TIP3   OH279053   1.677   6.638   5.406
19213TIP3    H179054   1.732   6.560   5.398
19213TIP3    H279055   1.738   6.711   5.390
19214TIP3   OH279056   1.796   6.391   5.395
19214TIP3    H179057   1.713   6.361   5.432
19214TIP3    H279058   1.858   6.322   5.416
19215TIP3   OH279059   1.617   6.024   3.724
19215TIP3    H179060   1.655   5.975   3.797
19215TIP3    H279061   1.525   5.999   3.724
19216TIP3   OH279062   1.572   6.214   4.249
19216TIP3    H179063   1.595   6.121   4.253
19216TIP3    H279064   1.642   6.254   4.198
19217TIP3   OH279065   1.596   6.244   4.817
19217TIP3    H179066   1.689   6.254   4.795
19217TIP3    H279067   1.592   6.261   4.911
19218TIP3   OH279068   1.624   6.326   5.084
19218TIP3    H179069   1.544   6.354   5.128
19218TIP3    H279070   1.676   6.406   5.074
19219TIP3   OH279071   0.099   6.127   5.379
19219TIP3    H179072   0.173   6.118   5.439
19219TIP3    H279073   0.022   6.125   5.437
19220TIP3   OH279074   1.842   5.709   5.621
19220TIP3    H179075   1.909   5.657   5.577
19220TIP3    H279076   1.840   5.792   5.572
19221TIP3   OH279077   1.620   5.943   4.265
19221TIP3    H179078   1.643   5.906   4.350
19221TIP3    H279079   1.556   5.881   4.228
19222TIP3   OH279080   0.186   6.030   4.721
19222TIP3    H179081   0.220   5.940   4.721
19222TIP3    H279082   0.262   6.085   4.739
19223TIP3   OH279083   0.018   6.391   4.847
19223TIP3    H179084   0.087   6.364   4.786
19223TIP3    H279085   0.028   6.486   4.853
19224TIP3   OH279086   1.781   5.926   5.457
19224TIP3    H179087   1.710   5.967   5.506
19224TIP3    H279088   1.740   5.897   5.375
19225TIP3   OH279089   1.782   5.922   3.925
19225TIP3    H179090   1.848   5.853   3.921
19225TIP3    H279091   1.829   5.997   3.962
19226TIP3   OH279092   0.113   5.910   4.154
19226TIP3    H179093   0.052   5.909   4.227
19226TIP3    H279094   0.113   6.000   4.122
19227TIP3   OH279095   0.072   5.830   5.093
19227TIP3    H179096   0.009   5.862   5.158
19227TIP3    H279097   0.023   5.826   5.011
19228TIP3   OH279098   0.232   7.109   5.444
19228TIP3    H179099   0.166   7.178   5.445
19228TIP3    H279100   0.236   7.078   5.534
19229TIP3   OH279101   0.535   7.258   5.071
19229TIP3    H179102   0.440   7.255   5.086
19229TIP3    H279103   0.545   7.305   4.988
19230TIP3   OH279104   1.697   5.733   5.238
19230TIP3    H179105   1.623   5.748   5.178
19230TIP3    H279106   1.723   5.643   5.221
19231TIP3   OH279107   0.468   7.202   4.632
19231TIP3    H179108   0.428   7.131   4.682
19231TIP3    H279109   0.495   7.266   4.698
19232TIP3   OH279110   1.010   5.884   4.687
19232TIP3    H179111   0.949   5.813   4.705
19232TIP3    H279112   1.085   5.842   4.647
19233TIP3   OH279113   1.520   5.709   4.657
19233TIP3    H179114   1.582   5.768   4.614
19233TIP3    H279115   1.435   5.752   4.647
19234TIP3   OH279116   1.708   5.830   4.498
19234TIP3    H179117   1.776   5.765   4.479
19234TIP3    H279118   1.757   5.907   4.527
19235TIP3   OH279119   0.313   5.746   4.435
19235TIP3    H179120   0.225   5.736   4.398
19235TIP3    H279121   0.354   5.660   4.425
19236TIP3   OH279122   0.234   5.709   4.017
19236TIP3    H179123   0.283   5.765   3.957
19236TIP3    H279124   0.189   5.770   4.075
19237TIP3   OH279125   0.719   5.716   4.452
19237TIP3    H179126   0.746   5.790   4.398
19237TIP3    H279127   0.766   5.729   4.535
19238TIP3   OH279128   1.242   5.761   4.598
19238TIP3    H179129   1.217   5.758   4.506
19238TIP3    H279130   1.227   5.673   4.631
19239TIP3   OH279131   1.422   5.770   4.169
19239TIP3    H179132   1.349   5.829   4.186
19239TIP3    H279133   1.388   5.683   4.189
19240TIP3   OH279134   0.372   5.900   3.876
19240TIP3    H179135   0.449   5.879   3.822
19240TIP3    H279136   0.408   5.943   3.953
19241TIP3   OH279137   0.809   5.921   4.281
19241TIP3    H179138   0.796   5.907   4.187
19241TIP3    H279139   0.821   6.015   4.290
19242TIP3   OH279140   0.276   5.773   5.444
19242TIP3    H179141   0.238   5.688   5.466
19242TIP3    H279142   0.366   5.767   5.473
19243TIP3   OH279143   0.504   5.697   5.582
19243TIP3    H179144   0.591   5.698   5.542
19243TIP3    H279145   0.491   5.605   5.607
19244TIP3   OH279146   1.637   7.279   5.460
19244TIP3    H179147   1.543   7.261   5.457
19244TIP3    H279148   1.650   7.351   5.398
19245TIP3   OH279149   3.087   6.690   4.417
19245TIP3    H179150   3.076   6.784   4.407
19245TIP3    H279151   3.008   6.652   4.377
19246TIP3   OH279152   2.958   6.597   4.806
19246TIP3    H179153   2.981   6.563   4.893
19246TIP3    H279154   2.907   6.527   4.765
19247TIP3   OH279155   2.169   6.541   4.961
19247TIP3    H179156   2.176   6.457   5.007
19247TIP3    H279157   2.238   6.595   4.999
19248TIP3   OH279158   3.345   6.901   4.634
19248TIP3    H179159   3.308   6.826   4.680
19248TIP3    H279160   3.364   6.965   4.702
19249TIP3   OH279161   2.296   6.984   4.761
19249TIP3    H179162   2.266   6.897   4.737
19249TIP3    H279163   2.390   6.974   4.774
19250TIP3   OH279164   1.973   6.352   4.284
19250TIP3    H179165   1.940   6.434   4.320
19250TIP3    H279166   1.899   6.316   4.235
19251TIP3   OH279167   2.027   6.585   4.581
19251TIP3    H179168   2.054   6.495   4.600
19251TIP3    H279169   2.105   6.638   4.598
19252TIP3   OH279170   2.808   6.842   4.842
19252TIP3    H179171   2.840   6.762   4.802
19252TIP3    H279172   2.879   6.869   4.902
19253TIP3   OH279173   3.688   5.999   4.930
19253TIP3    H179174   3.704   6.065   4.997
19253TIP3    H279175   3.733   6.032   4.853
19254TIP3   OH279176   3.117   6.270   4.841
19254TIP3    H179177   3.129   6.176   4.855
19254TIP3    H279178   3.102   6.278   4.747
19255TIP3   OH279179   2.467   6.073   4.563
19255TIP3    H179180   2.465   6.159   4.521
19255TIP3    H279181   2.413   6.018   4.506
19256TIP3   OH279182   3.245   6.112   4.419
19256TIP3    H179183   3.283   6.078   4.500
19256TIP3    H279184   3.319   6.148   4.371
19257TIP3   OH279185   2.102   6.328   4.649
19257TIP3    H179186   2.166   6.287   4.707
19257TIP3    H279187   2.119   6.289   4.563
19258TIP3   OH279188   2.592   6.479   4.607
19258TIP3    H179189   2.672   6.437   4.639
19258TIP3    H279190   2.549   6.411   4.555
19259TIP3   OH279191   3.732   6.169   5.147
19259TIP3    H179192   3.652   6.218   5.132
19259TIP3    H279193   3.750   6.178   5.240
19260TIP3   OH279194   2.327   5.996   4.990
19260TIP3    H179195   2.301   6.053   4.918
19260TIP3    H279196   2.255   6.002   5.053
19261TIP3   OH279197   3.060   6.947   4.313
19261TIP3    H179198   3.033   6.945   4.221
19261TIP3    H279199   3.020   7.026   4.348
19262TIP3   OH279200   2.581   6.762   4.984
19262TIP3    H179201   2.527   6.833   5.020
19262TIP3    H279202   2.653   6.808   4.939
19263TIP3   OH279203   3.343   6.050   4.664
19263TIP3    H179204   3.274   6.024   4.725
19263TIP3    H279205   3.397   6.111   4.714
19264TIP3   OH279206   2.298   6.162   4.769
19264TIP3    H179207   2.353   6.220   4.821
19264TIP3    H279208   2.357   6.125   4.704
19265TIP3   OH279209   2.428   6.969   5.091
19265TIP3    H179210   2.437   7.062   5.072
19265TIP3    H279211   2.336   6.959   5.117
19266TIP3   OH279212   1.998   6.939   4.156
19266TIP3    H179213   1.971   6.984   4.075
19266TIP3    H279214   2.018   7.010   4.217
19267TIP3   OH279215   3.371   7.115   4.814
19267TIP3    H179216   3.282   7.119   4.851
19267TIP3    H279217   3.378   7.193   4.760
19268TIP3   OH279218   3.433   5.904   5.009
19268TIP3    H179219   3.365   5.949   4.959
19268TIP3    H279220   3.515   5.931   4.968
19269TIP3   OH279221   2.681   5.686   4.744
19269TIP3    H179222   2.654   5.594   4.746
19269TIP3    H279223   2.603   5.733   4.773
19270TIP3   OH279224   3.255   7.269   4.430
19270TIP3    H179225   3.278   7.178   4.409
19270TIP3    H279226   3.306   7.289   4.509
19271TIP3   OH279227   3.324   7.009   4.382
19271TIP3    H179228   3.241   6.972   4.352
19271TIP3    H279229   3.342   6.965   4.465
19272TIP3   OH279230   3.491   6.906   5.191
19272TIP3    H179231   3.481   6.849   5.114
19272TIP3    H279232   3.490   6.995   5.155
19273TIP3   OH279233   2.929   6.593   4.201
19273TIP3    H179234   2.863   6.657   4.176
19273TIP3    H279235   3.000   6.605   4.138
19274TIP3   OH279236   2.950   6.486   3.862
19274TIP3    H179237   3.002   6.503   3.940
19274TIP3    H279238   3.000   6.419   3.814
19275TIP3   OH279239   3.654   6.553   5.024
19275TIP3    H179240   3.580   6.614   5.021
19275TIP3    H279241   3.710   6.579   4.951
19276TIP3   OH279242   3.300   6.611   4.269
19276TIP3    H179243   3.232   6.639   4.330
19276TIP3    H279244   3.365   6.566   4.324
19277TIP3   OH279245   3.259   6.406   5.193
19277TIP3    H179246   3.270   6.478   5.255
19277TIP3    H279247   3.189   6.435   5.135
19278TIP3   OH279248   2.452   6.675   4.467
19278TIP3    H179249   2.426   6.634   4.385
19278TIP3    H279250   2.506   6.608   4.511
19279TIP3   OH279251   2.576   6.977   4.740
19279TIP3    H179252   2.595   7.011   4.652
19279TIP3    H279253   2.659   6.940   4.770
19280TIP3   OH279254   2.453   6.574   4.829
19280TIP3    H179255   2.511   6.553   4.756
19280TIP3    H279256   2.502   6.640   4.880
19281TIP3   OH279257   3.137   7.109   4.954
19281TIP3    H179258   3.128   7.134   5.046
19281TIP3    H279259   3.092   7.024   4.948
19282TIP3   OH279260   2.587   7.007   5.314
19282TIP3    H179261   2.522   7.063   5.356
19282TIP3    H279262   2.544   6.974   5.235
19283TIP3   OH279263   3.163   6.541   4.042
19283TIP3    H179264   3.214   6.575   4.116
19283TIP3    H279265   3.215   6.562   3.965
19284TIP3   OH279266   2.255   6.592   5.250
19284TIP3    H179267   2.264   6.672   5.301
19284TIP3    H279268   2.160   6.581   5.240
19285TIP3   OH279269   2.983   7.202   4.387
19285TIP3    H179270   3.070   7.237   4.404
19285TIP3    H279271   2.930   7.278   4.366
19286TIP3   OH279272   2.368   7.158   5.381
19286TIP3    H179273   2.345   7.208   5.303
19286TIP3    H279274   2.287   7.157   5.434
19287TIP3   OH279275   3.524   5.698   4.030
19287TIP3    H179276   3.439   5.721   4.069
19287TIP3    H279277   3.561   5.782   4.002
19288TIP3   OH279278   2.363   6.588   4.208
19288TIP3    H179279   2.300   6.651   4.173
19288TIP3    H279280   2.315   6.506   4.215
19289TIP3   OH279281   3.682   7.177   3.828
19289TIP3    H179282   3.653   7.211   3.913
19289TIP3    H279283   3.765   7.133   3.848
19290TIP3   OH279284   1.954   6.826   5.131
19290TIP3    H179285   1.900   6.832   5.053
19290TIP3    H279286   1.965   6.732   5.146
19291TIP3   OH279287   1.969   7.093   4.844
19291TIP3    H179288   2.064   7.080   4.849
19291TIP3    H279289   1.952   7.167   4.901
19292TIP3   OH279290   3.775   7.137   5.409
19292TIP3    H179291   3.753   7.043   5.408
19292TIP3    H279292   3.690   7.181   5.418
19293TIP3   OH279293   2.848   7.096   5.303
19293TIP3    H179294   2.865   7.137   5.388
19293TIP3    H279295   2.755   7.073   5.305
19294TIP3   OH279296   3.490   6.308   5.396
19294TIP3    H179297   3.405   6.350   5.393
19294TIP3    H279298   3.476   6.222   5.357
19295TIP3   OH279299   2.166   6.990   5.191
19295TIP3    H179300   2.193   6.953   5.275
19295TIP3    H279301   2.089   6.939   5.166
19296TIP3   OH279302   2.437   5.798   4.827
19296TIP3    H179303   2.360   5.784   4.772
19296TIP3    H279304   2.412   5.868   4.886
19297TIP3   OH279305   2.911   5.773   5.173
19297TIP3    H179306   2.957   5.720   5.237
19297TIP3    H279307   2.818   5.763   5.194
19298TIP3   OH279308   3.209   6.142   5.263
19298TIP3    H179309   3.140   6.135   5.330
19298TIP3    H279310   3.211   6.235   5.241
19299TIP3   OH279311   3.306   6.567   3.807
19299TIP3    H179312   3.293   6.592   3.715
19299TIP3    H279313   3.391   6.606   3.830
19300TIP3   OH279314   2.877   6.001   3.911
19300TIP3    H179315   2.820   5.995   3.988
19300TIP3    H279316   2.835   5.943   3.846
19301TIP3   OH279317   2.442   6.322   4.941
19301TIP3    H179318   2.375   6.321   5.010
19301TIP3    H279319   2.441   6.412   4.909
19302TIP3   OH279320   2.441   6.316   4.437
19302TIP3    H179321   2.347   6.300   4.436
19302TIP3    H279322   2.470   6.297   4.347
19303TIP3   OH279323   2.989   6.350   4.315
19303TIP3    H179324   2.963   6.436   4.282
19303TIP3    H279325   3.059   6.322   4.255
19304TIP3   OH279326   2.889   6.372   5.470
19304TIP3    H179327   2.847   6.289   5.491
19304TIP3    H279328   2.907   6.412   5.555
19305TIP3   OH279329   3.089   6.289   4.570
19305TIP3    H179330   3.041   6.336   4.501
19305TIP3    H279331   3.134   6.218   4.524
19306TIP3   OH279332   2.224   6.313   5.113
19306TIP3    H179333   2.228   6.356   5.198
19306TIP3    H279334   2.186   6.227   5.131
19307TIP3   OH279335   2.548   6.065   3.793
19307TIP3    H179336   2.515   6.043   3.881
19307TIP3    H279337   2.487   6.130   3.760
19308TIP3   OH279338   1.865   6.047   4.540
19308TIP3    H179339   1.938   6.043   4.602
19308TIP3    H279340   1.906   6.039   4.454
19309TIP3   OH279341   1.954   6.115   4.022
19309TIP3    H179342   2.026   6.153   3.972
19309TIP3    H279343   1.904   6.190   4.054
19310TIP3   OH279344   3.035   6.447   5.029
19310TIP3    H179345   3.067   6.385   4.964
19310TIP3    H279346   2.973   6.397   5.082
19311TIP3   OH279347   2.747   6.042   4.527
19311TIP3    H179348   2.656   6.045   4.555
19311TIP3    H279349   2.795   6.005   4.602
19312TIP3   OH279350   2.185   6.221   4.408
19312TIP3    H179351   2.111   6.251   4.355
19312TIP3    H279352   2.198   6.130   4.382
19313TIP3   OH279353   2.512   6.244   4.183
19313TIP3    H179354   2.607   6.240   4.194
19313TIP3    H279355   2.500   6.285   4.097
19314TIP3   OH279356   3.135   5.992   4.839
19314TIP3    H179357   3.100   5.993   4.928
19314TIP3    H279358   3.066   5.953   4.786
19315TIP3   OH279359   2.461   6.342   3.930
19315TIP3    H179360   2.404   6.318   3.857
19315TIP3    H279361   2.536   6.385   3.889
19316TIP3   OH279362   2.242   6.824   5.409
19316TIP3    H179363   2.311   6.852   5.470
19316TIP3    H279364   2.164   6.818   5.463
19317TIP3   OH279365   2.815   6.357   4.725
19317TIP3    H179366   2.885   6.300   4.692
19317TIP3    H279367   2.782   6.311   4.803
19318TIP3   OH279368   2.297   5.955   4.369
19318TIP3    H179369   2.239   5.887   4.403
19318TIP3    H279370   2.329   5.920   4.286
19319TIP3   OH279371   2.707   6.236   4.956
19319TIP3    H179372   2.620   6.276   4.957
19319TIP3    H279373   2.751   6.273   5.032
19320TIP3   OH279374   2.747   6.788   4.123
19320TIP3    H179375   2.675   6.751   4.072
19320TIP3    H279376   2.706   6.817   4.205
19321TIP3   OH279377   3.461   6.744   4.967
19321TIP3    H179378   3.522   6.796   4.916
19321TIP3    H279379   3.388   6.727   4.908
19322TIP3   OH279380   3.118   6.126   3.903
19322TIP3    H179381   3.031   6.087   3.913
19322TIP3    H279382   3.136   6.168   3.987
19323TIP3   OH279383   2.904   6.825   5.258
19323TIP3    H179384   2.912   6.777   5.341
19323TIP3    H279385   2.880   6.914   5.284
19324TIP3   OH279386   3.191   6.272   4.129
19324TIP3    H179387   3.277   6.257   4.169
19324TIP3    H279388   3.195   6.363   4.099
19325TIP3   OH279389   2.263   6.711   4.671
19325TIP3    H179390   2.326   6.713   4.599
19325TIP3    H279391   2.305   6.659   4.739
19326TIP3   OH279392   2.960   6.944   4.045
19326TIP3    H179393   2.928   7.034   4.051
19326TIP3    H279394   2.885   6.890   4.071
19327TIP3   OH279395   1.976   6.559   5.235
19327TIP3    H179396   1.951   6.518   5.318
19327TIP3    H279397   1.905   6.535   5.174
19328TIP3   OH279398   2.685   6.559   5.413
19328TIP3    H179399   2.617   6.505   5.374
19328TIP3    H279400   2.758   6.498   5.428
19329TIP3   OH279401   3.118   7.100   5.232
19329TIP3    H179402   3.023   7.099   5.241
19329TIP3    H279403   3.151   7.105   5.322
19330TIP3   OH279404   3.654   6.318   4.077
19330TIP3    H179405   3.616   6.295   3.992
19330TIP3    H279406   3.676   6.411   4.069
19331TIP3   OH279407   3.707   6.872   5.352
19331TIP3    H179408   3.623   6.895   5.312
19331TIP3    H279409   3.768   6.865   5.278
19332TIP3   OH279410   3.627   7.129   4.162
19332TIP3    H179411   3.564   7.074   4.209
19332TIP3    H279412   3.574   7.197   4.121
19333TIP3   OH279413   3.251   6.679   4.784
19333TIP3    H179414   3.155   6.670   4.787
19333TIP3    H279415   3.281   6.598   4.742
19334TIP3   OH279416   2.540   7.103   4.460
19334TIP3    H179417   2.584   7.184   4.436
19334TIP3    H279418   2.461   7.131   4.506
19335TIP3   OH279419   2.082   6.566   3.908
19335TIP3    H179420   2.133   6.628   3.961
19335TIP3    H279421   1.995   6.568   3.948
19336TIP3   OH279422   2.601   6.870   4.334
19336TIP3    H179423   2.585   6.953   4.378
19336TIP3    H279424   2.553   6.806   4.387
19337TIP3   OH279425   2.724   7.245   4.954
19337TIP3    H179426   2.712   7.303   5.029
19337TIP3    H279427   2.764   7.166   4.990
19338TIP3   OH279428   3.026   6.859   5.016
19338TIP3    H179429   2.979   6.847   5.098
19338TIP3    H279430   3.105   6.806   5.025
19339TIP3   OH279431   3.292   6.982   3.924
19339TIP3    H179432   3.330   6.924   3.991
19339TIP3    H279433   3.197   6.968   3.933
19340TIP3   OH279434   2.114   6.059   5.160
19340TIP3    H179435   2.023   6.085   5.143
19340TIP3    H279436   2.108   5.991   5.227
19341TIP3   OH279437   3.405   6.806   4.100
19341TIP3    H179438   3.360   6.751   4.164
19341TIP3    H279439   3.497   6.803   4.127
19342TIP3   OH279440   2.153   7.233   5.038
19342TIP3    H179441   2.137   7.160   5.097
19342TIP3    H279442   2.079   7.292   5.052
19343TIP3   OH279443   2.690   7.062   3.778
19343TIP3    H179444   2.699   6.976   3.737
19343TIP3    H279445   2.657   7.044   3.866
19344TIP3   OH279446   2.558   7.052   4.026
19344TIP3    H179447   2.578   6.992   4.098
19344TIP3    H279448   2.574   7.139   4.062
19345TIP3   OH279449   2.193   6.763   4.072
19345TIP3    H179450   2.122   6.808   4.118
19345TIP3    H279451   2.240   6.833   4.027
19346TIP3   OH279452   3.034   6.006   5.089
19346TIP3    H179453   3.094   6.033   5.158
19346TIP3    H279454   2.989   5.929   5.124
19347TIP3   OH279455   3.099   5.958   4.246
19347TIP3    H179456   3.079   6.022   4.178
19347TIP3    H279457   3.145   6.008   4.314
19348TIP3   OH279458   2.863   7.196   4.042
19348TIP3    H179459   2.785   7.241   4.076
19348TIP3    H279460   2.887   7.247   3.965
19349TIP3   OH279461   2.770   6.186   4.291
19349TIP3    H179462   2.843   6.247   4.302
19349TIP3    H279463   2.757   6.147   4.377
19350TIP3   OH279464   2.883   6.280   5.187
19350TIP3    H179465   2.885   6.306   5.278
19350TIP3    H279466   2.907   6.187   5.188
19351TIP3   OH279467   2.860   5.854   4.352
19351TIP3    H179468   2.833   5.923   4.413
19351TIP3    H279469   2.946   5.882   4.320
19352TIP3   OH279470   2.619  -0.001   4.135
19352TIP3    H179471   2.593   0.085   4.100
19352TIP3    H279472   2.613   0.009   4.230
19353TIP3   OH279473   2.451   6.004   4.045
19353TIP3    H179474   2.444   6.082   4.101
19353TIP3    H279475   2.532   5.962   4.074
19354TIP3   OH279476   3.459   6.046   5.276
19354TIP3    H179477   3.367   6.071   5.278
19354TIP3    H279478   3.471   6.004   5.191
19355TIP3   OH279479   3.328   6.428   4.667
19355TIP3    H179480   3.241   6.390   4.651
19355TIP3    H279481   3.371   6.367   4.726
19356TIP3   OH279482   2.298   6.980   3.924
19356TIP3    H179483   2.369   7.026   3.969
19356TIP3    H279484   2.342   6.925   3.859
19357TIP3   OH279485   2.086   6.293   3.850
19357TIP3    H179486   2.105   6.380   3.885
19357TIP3    H279487   2.002   6.304   3.805
19358TIP3   OH279488   2.186   5.767   4.714
19358TIP3    H179489   2.174   5.755   4.619
19358TIP3    H279490   2.152   5.686   4.752
19359TIP3   OH279491   2.019   7.202   4.263
19359TIP3    H179492   1.925   7.192   4.250
19359TIP3    H279493   2.046   7.262   4.194
19360TIP3   OH279494   2.490   7.234   5.653
19360TIP3    H179495   2.536   7.151   5.666
19360TIP3    H279496   2.528   7.270   5.573
19361TIP3   OH279497   2.943   7.217   3.761
19361TIP3    H179498   2.849   7.211   3.744
19361TIP3    H279499   2.973   7.126   3.766
19362TIP3   OH279500   3.171   7.090   5.498
19362TIP3    H179501   3.111   7.035   5.549
19362TIP3    H279502   3.237   7.118   5.562
19363TIP3   OH279503   3.359   7.211   3.793
19363TIP3    H179504   3.329   7.136   3.844
19363TIP3    H279505   3.416   7.260   3.853
19364TIP3   OH279506   2.012   6.798   5.559
19364TIP3    H179507   2.013   6.703   5.574
19364TIP3    H279508   1.934   6.813   5.506
19365TIP3   OH279509   2.439   6.802   3.770
19365TIP3    H179510   2.459   6.753   3.849
19365TIP3    H279511   2.523   6.810   3.725
19366TIP3   OH279512   2.673   6.819   5.505
19366TIP3    H179513   2.647   6.868   5.426
19366TIP3    H279514   2.680   6.728   5.476
19367TIP3   OH279515   3.018   6.947   3.775
19367TIP3    H179516   2.990   6.938   3.866
19367TIP3    H279517   3.003   6.860   3.737
19368TIP3   OH279518   3.233   6.829   5.249
19368TIP3    H179519   3.322   6.864   5.245
19368TIP3    H279520   3.176   6.906   5.253
19369TIP3   OH279521   2.057   6.521   5.565
19369TIP3    H179522   2.144   6.483   5.548
19369TIP3    H279523   2.024   6.471   5.640
19370TIP3   OH279524   2.532   6.666   3.995
19370TIP3    H179525   2.481   6.630   4.068
19370TIP3    H279526   2.571   6.589   3.954
19371TIP3   OH279527   2.487   6.432   5.250
19371TIP3    H179528   2.413   6.492   5.248
19371TIP3    H279529   2.548   6.466   5.184
19372TIP3   OH279530   2.673   6.486   3.832
19372TIP3    H179531   2.672   6.513   3.741
19372TIP3    H279532   2.766   6.480   3.855
19373TIP3   OH279533   3.012   6.669   5.608
19373TIP3    H179534   3.104   6.655   5.631
19373TIP3    H279535   2.965   6.603   5.659
19374TIP3   OH279536   3.564   6.676   3.793
19374TIP3    H179537   3.565   6.657   3.699
19374TIP3    H279538   3.557   6.771   3.797
19375TIP3   OH279539   2.545   6.176   5.329
19375TIP3    H179540   2.553   6.118   5.254
19375TIP3    H279541   2.526   6.262   5.291
19376TIP3   OH279542   2.578   6.018   5.099
19376TIP3    H179543   2.629   6.071   5.038
19376TIP3    H279544   2.491   6.013   5.060
19377TIP3   OH279545   2.686   6.532   5.091
19377TIP3    H179546   2.766   6.557   5.136
19377TIP3    H279547   2.652   6.614   5.054
19378TIP3   OH279548   3.189   6.343   5.603
19378TIP3    H179549   3.126   6.373   5.537
19378TIP3    H279550   3.222   6.423   5.642
19379TIP3   OH279551   3.312   6.600   5.377
19379TIP3    H179552   3.272   6.679   5.339
19379TIP3    H279553   3.405   6.622   5.385
19380TIP3   OH279554   2.380   6.210   5.553
19380TIP3    H179555   2.298   6.166   5.534
19380TIP3    H279556   2.429   6.206   5.471
19381TIP3   OH279557   2.632   5.754   5.179
19381TIP3    H179558   2.613   5.845   5.154
19381TIP3    H279559   2.563   5.703   5.137
19382TIP3   OH279560   2.756   6.135   5.501
19382TIP3    H179561   2.711   6.102   5.578
19382TIP3    H279562   2.687   6.146   5.435
19383TIP3   OH279563   3.006   6.059   5.424
19383TIP3    H179564   2.921   6.089   5.454
19383TIP3    H279565   3.012   5.968   5.454
19384TIP3   OH279566   2.165   6.038   5.517
19384TIP3    H179567   2.158   5.957   5.466
19384TIP3    H279568   2.184   6.009   5.606
19385TIP3   OH279569   2.623   5.679   5.446
19385TIP3    H179570   2.681   5.604   5.444
19385TIP3    H279571   2.622   5.713   5.357
19386TIP3   OH279572   2.028   7.024   3.865
19386TIP3    H179573   2.117   7.015   3.899
19386TIP3    H279574   2.016   6.948   3.808
19387TIP3   OH279575   3.500   6.943   5.664
19387TIP3    H179576   3.413   6.972   5.691
19387TIP3    H279577   3.558   6.976   5.732
19388TIP3   OH279578   3.666   6.768   4.192
19388TIP3    H179579   3.739   6.829   4.199
19388TIP3    H279580   3.679   6.708   4.266
19389TIP3   OH279581   3.717   6.573   4.380
19389TIP3    H179582   3.634   6.540   4.414
19389TIP3    H279583   3.771   6.587   4.459
19390TIP3   OH279584   3.693   6.869   4.882
19390TIP3    H179585   3.748   6.801   4.843
19390TIP3    H279586   3.734   6.952   4.857
19391TIP3   OH279587   3.443   7.155   5.081
19391TIP3    H179588   3.354   7.161   5.115
19391TIP3    H279589   3.432   7.139   4.988
19392TIP3   OH279590   3.711   6.577   4.001
19392TIP3    H179591   3.657   6.605   3.927
19392TIP3    H279592   3.693   6.641   4.069
19393TIP3   OH279593   3.572   6.277   3.817
19393TIP3    H179594   3.536   6.337   3.752
19393TIP3    H279595   3.547   6.190   3.786
19394TIP3   OH279596   3.468   6.455   4.431
19394TIP3    H179597   3.462   6.365   4.400
19394TIP3    H279598   3.424   6.455   4.516
19395TIP3   OH279599   1.947   6.637   4.839
19395TIP3    H179600   1.960   6.622   4.745
19395TIP3    H279601   2.029   6.610   4.879
19396TIP3   OH279602   3.578   6.643   5.425
19396TIP3    H179603   3.643   6.575   5.414
19396TIP3    H279604   3.624   6.725   5.407
19397TIP3   OH279605   3.738   6.418   5.418
19397TIP3    H179606   3.647   6.388   5.418
19397TIP3    H279607   3.789   6.339   5.436
19398TIP3   OH279608   3.485   6.032   3.718
19398TIP3    H179609   3.515   5.986   3.796
19398TIP3    H279610   3.393   6.009   3.711
19399TIP3   OH279611   3.450   6.210   4.249
19399TIP3    H179612   3.478   6.119   4.252
19399TIP3    H279613   3.519   6.254   4.199
19400TIP3   OH279614   3.478   6.240   4.814
19400TIP3    H179615   3.571   6.251   4.794
19400TIP3    H279616   3.472   6.258   4.908
19401TIP3   OH279617   3.506   6.322   5.078
19401TIP3    H179618   3.424   6.347   5.121
19401TIP3    H279619   3.553   6.405   5.067
19402TIP3   OH279620   1.933   6.151   5.412
19402TIP3    H179621   2.017   6.138   5.456
19402TIP3    H279622   1.881   6.074   5.434
19403TIP3   OH279623   3.744   5.759   5.605
19403TIP3    H179624   3.802   5.690   5.573
19403TIP3    H279625   3.735   5.819   5.530
19404TIP3   OH279626   3.512   5.939   4.263
19404TIP3    H179627   3.533   5.903   4.349
19404TIP3    H279628   3.442   5.883   4.229
19405TIP3   OH279629   2.058   6.014   4.736
19405TIP3    H179630   2.093   5.925   4.737
19405TIP3    H279631   2.133   6.070   4.752
19406TIP3   OH279632   1.866   6.301   4.804
19406TIP3    H179633   1.936   6.299   4.739
19406TIP3    H279634   1.901   6.354   4.876
19407TIP3   OH279635   3.675   5.917   5.388
19407TIP3    H179636   3.600   5.974   5.372
19407TIP3    H279637   3.660   5.842   5.331
19408TIP3   OH279638   3.644   5.922   3.918
19408TIP3    H179639   3.695   5.862   3.863
19408TIP3    H279640   3.709   5.980   3.956
19409TIP3   OH279641   1.914   5.994   4.272
19409TIP3    H179642   1.828   5.956   4.255
19409TIP3    H279643   1.950   6.012   4.185
19410TIP3   OH279644   1.922   5.792   5.073
19410TIP3    H179645   1.851   5.777   5.136
19410TIP3    H279646   1.885   5.853   5.010
19411TIP3   OH279647   2.128   7.146   5.525
19411TIP3    H179648   2.050   7.159   5.471
19411TIP3    H279649   2.095   7.110   5.607
19412TIP3   OH279650   2.425   7.251   5.064
19412TIP3    H179651   2.330   7.254   5.055
19412TIP3    H279652   2.458   7.275   4.977
19413TIP3   OH279653   3.584   5.702   5.235
19413TIP3    H179654   3.499   5.708   5.190
19413TIP3    H279655   3.614   5.613   5.220
19414TIP3   OH279656   2.346   7.214   4.621
19414TIP3    H179657   2.317   7.135   4.668
19414TIP3    H279658   2.389   7.267   4.688
19415TIP3   OH279659   2.912   5.877   4.687
19415TIP3    H179660   2.850   5.808   4.710
19415TIP3    H279661   2.984   5.831   4.644
19416TIP3   OH279662   3.417   5.716   4.665
19416TIP3    H179663   3.478   5.775   4.622
19416TIP3    H279664   3.332   5.760   4.660
19417TIP3   OH279665   3.604   5.825   4.495
19417TIP3    H179666   3.668   5.756   4.477
19417TIP3    H279667   3.657   5.903   4.513
19418TIP3   OH279668   2.148   5.735   4.443
19418TIP3    H179669   2.058   5.719   4.415
19418TIP3    H279670   2.197   5.658   4.413
19419TIP3   OH279671   2.012   5.767   3.947
19419TIP3    H179672   2.077   5.831   3.920
19419TIP3    H279673   2.056   5.713   4.012
19420TIP3   OH279674   2.651   5.697   4.456
19420TIP3    H179675   2.720   5.756   4.424
19420TIP3    H279676   2.658   5.702   4.552
19421TIP3   OH279677   3.139   5.753   4.583
19421TIP3    H179678   3.169   5.729   4.495
19421TIP3    H279679   3.117   5.669   4.624
19422TIP3   OH279680   3.301   5.775   4.176
19422TIP3    H179681   3.226   5.832   4.193
19422TIP3    H279682   3.268   5.687   4.193
19423TIP3   OH279683   2.246   5.915   3.867
19423TIP3    H179684   2.293   5.841   3.831
19423TIP3    H279685   2.297   5.941   3.944
19424TIP3   OH279686   2.717   5.969   4.133
19424TIP3    H179687   2.741   5.897   4.191
19424TIP3    H279688   2.731   6.048   4.184
19425TIP3   OH279689   2.159   5.780   5.402
19425TIP3    H179690   2.097   5.710   5.425
19425TIP3    H279691   2.238   5.760   5.452
19426TIP3   OH279692   2.374   5.706   5.563
19426TIP3    H179693   2.457   5.712   5.517
19426TIP3    H279694   2.373   5.618   5.601
19427TIP3   OH279695   3.213   5.675   5.577
19427TIP3    H179696   3.205   5.605   5.642
19427TIP3    H279697   3.307   5.682   5.562
19428TIP3   OH279698   3.538  -0.017   5.438
19428TIP3    H179699   3.546   0.031   5.356
19428TIP3    H279700   3.587   0.036   5.502
19429TIP3   OH279701   4.972   6.694   4.417
19429TIP3    H179702   4.960   6.788   4.406
19429TIP3    H279703   4.897   6.654   4.374
19430TIP3   OH279704   4.838   6.595   4.811
19430TIP3    H179705   4.864   6.557   4.895
19430TIP3    H279706   4.794   6.523   4.765
19431TIP3   OH279707   4.059   6.539   4.955
19431TIP3    H179708   4.063   6.452   4.995
19431TIP3    H279709   4.108   6.594   5.015
19432TIP3   OH279710   5.230   6.904   4.631
19432TIP3    H179711   5.195   6.828   4.678
19432TIP3    H279712   5.256   6.965   4.701
19433TIP3   OH279713   4.187   6.984   4.757
19433TIP3    H179714   4.154   6.896   4.738
19433TIP3    H279715   4.281   6.971   4.774
19434TIP3   OH279716   3.855   6.347   4.282
19434TIP3    H179717   3.823   6.428   4.322
19434TIP3    H279718   3.784   6.319   4.224
19435TIP3   OH279719   3.916   6.588   4.578
19435TIP3    H179720   3.941   6.498   4.600
19435TIP3    H279721   3.993   6.640   4.597
19436TIP3   OH279722   4.695   6.840   4.841
19436TIP3    H179723   4.727   6.758   4.804
19436TIP3    H279724   4.768   6.873   4.894
19437TIP3   OH279725   5.592   6.022   4.927
19437TIP3    H179726   5.604   6.083   4.999
19437TIP3    H279727   5.642   6.061   4.855
19438TIP3   OH279728   5.001   6.279   4.846
19438TIP3    H179729   5.031   6.189   4.858
19438TIP3    H279730   4.982   6.285   4.752
19439TIP3   OH279731   4.335   6.084   4.575
19439TIP3    H179732   4.343   6.168   4.530
19439TIP3    H279733   4.283   6.030   4.516
19440TIP3   OH279734   5.125   6.111   4.407
19440TIP3    H179735   5.165   6.084   4.489
19440TIP3    H279736   5.198   6.146   4.355
19441TIP3   OH279737   3.984   6.332   4.653
19441TIP3    H179738   4.047   6.292   4.712
19441TIP3    H279739   4.005   6.294   4.567
19442TIP3   OH279740   4.485   6.480   4.603
19442TIP3    H179741   4.565   6.439   4.635
19442TIP3    H279742   4.442   6.412   4.551
19443TIP3   OH279743   5.628   6.178   5.157
19443TIP3    H179744   5.547   6.226   5.143
19443TIP3    H279745   5.648   6.191   5.250
19444TIP3   OH279746   4.209   5.995   4.994
19444TIP3    H179747   4.186   6.055   4.924
19444TIP3    H279748   4.137   6.000   5.056
19445TIP3   OH279749   4.949   6.951   4.310
19445TIP3    H179750   4.923   6.947   4.218
19445TIP3    H279751   4.906   7.031   4.343
19446TIP3   OH279752   4.476   6.757   4.993
19446TIP3    H179753   4.418   6.826   5.026
19446TIP3    H279754   4.543   6.803   4.944
19447TIP3   OH279755   5.228   6.081   4.655
19447TIP3    H179756   5.174   6.042   4.724
19447TIP3    H279757   5.294   6.132   4.702
19448TIP3   OH279758   4.175   6.169   4.781
19448TIP3    H179759   4.230   6.227   4.833
19448TIP3    H279760   4.233   6.133   4.714
19449TIP3   OH279761   4.320   6.966   5.094
19449TIP3    H179762   4.327   7.059   5.073
19449TIP3    H279763   4.229   6.955   5.121
19450TIP3   OH279764   3.882   6.945   4.162
19450TIP3    H179765   3.824   6.992   4.101
19450TIP3    H279766   3.913   7.012   4.222
19451TIP3   OH279767   5.260   7.117   4.815
19451TIP3    H179768   5.173   7.124   4.856
19451TIP3    H279769   5.266   7.196   4.760
19452TIP3   OH279770   5.270   5.938   5.042
19452TIP3    H179771   5.219   5.973   4.968
19452TIP3    H279772   5.337   5.883   5.002
19453TIP3   OH279773   4.561   5.685   4.742
19453TIP3    H179774   4.538   5.592   4.745
19453TIP3    H279775   4.483   5.730   4.774
19454TIP3   OH279776   5.140   7.261   4.432
19454TIP3    H179777   5.166   7.171   4.414
19454TIP3    H279778   5.190   7.285   4.509
19455TIP3   OH279779   5.213   7.001   4.377
19455TIP3    H179780   5.127   6.970   4.351
19455TIP3    H279781   5.228   6.962   4.463
19456TIP3   OH279782   5.352   6.906   5.198
19456TIP3    H179783   5.366   6.845   5.126
19456TIP3    H279784   5.374   6.991   5.162
19457TIP3   OH279785   4.815   6.600   4.202
19457TIP3    H179786   4.750   6.664   4.173
19457TIP3    H279787   4.885   6.605   4.137
19458TIP3   OH279788   4.844   6.479   3.860
19458TIP3    H179789   4.897   6.502   3.937
19458TIP3    H279790   4.893   6.410   3.816
19459TIP3   OH279791   5.550   6.545   4.997
19459TIP3    H179792   5.486   6.616   5.008
19459TIP3    H279793   5.618   6.582   4.942
19460TIP3   OH279794   5.191   6.617   4.275
19460TIP3    H179795   5.121   6.642   4.336
19460TIP3    H279796   5.247   6.558   4.326
19461TIP3   OH279797   5.146   6.425   5.224
19461TIP3    H179798   5.140   6.493   5.291
19461TIP3    H279799   5.083   6.451   5.157
19462TIP3   OH279800   4.339   6.674   4.469
19462TIP3    H179801   4.312   6.634   4.387
19462TIP3    H279802   4.394   6.608   4.511
19463TIP3   OH279803   4.467   6.975   4.744
19463TIP3    H179804   4.486   7.006   4.655
19463TIP3    H279805   4.549   6.935   4.773
19464TIP3   OH279806   4.349   6.572   4.829
19464TIP3    H179807   4.407   6.554   4.755
19464TIP3    H279808   4.397   6.637   4.881
19465TIP3   OH279809   5.029   7.119   4.963
19465TIP3    H179810   5.017   7.141   5.055
19465TIP3    H279811   4.986   7.034   4.952
19466TIP3   OH279812   4.472   7.000   5.323
19466TIP3    H179813   4.403   7.047   5.369
19466TIP3    H279814   4.432   6.971   5.242
19467TIP3   OH279815   5.046   6.556   4.044
19467TIP3    H179816   5.100   6.589   4.117
19467TIP3    H279817   5.098   6.575   3.966
19468TIP3   OH279818   4.137   6.597   5.224
19468TIP3    H179819   4.147   6.672   5.283
19468TIP3    H279820   4.043   6.581   5.222
19469TIP3   OH279821   4.868   7.206   4.381
19469TIP3    H179822   4.956   7.235   4.404
19469TIP3    H279823   4.820   7.287   4.365
19470TIP3   OH279824   4.241   7.124   5.400
19470TIP3    H179825   4.218   7.190   5.334
19470TIP3    H279826   4.167   7.126   5.461
19471TIP3   OH279827   5.414   5.701   4.028
19471TIP3    H179828   5.328   5.723   4.064
19471TIP3    H279829   5.450   5.785   4.000
19472TIP3   OH279830   4.248   6.590   4.207
19472TIP3    H179831   4.185   6.653   4.173
19472TIP3    H279832   4.198   6.509   4.215
19473TIP3   OH279833   5.540   7.139   3.862
19473TIP3    H179834   5.517   7.202   3.930
19473TIP3    H279835   5.623   7.102   3.891
19474TIP3   OH279836   3.845   6.824   5.119
19474TIP3    H179837   3.785   6.832   5.045
19474TIP3    H279838   3.851   6.729   5.134
19475TIP3   OH279839   3.846   7.103   4.847
19475TIP3    H179840   3.939   7.095   4.868
19475TIP3    H279841   3.815   7.175   4.902
19476TIP3   OH279842   5.602   7.132   5.424
19476TIP3    H179843   5.621   7.051   5.378
19476TIP3    H279844   5.536   7.109   5.489
19477TIP3   OH279845   4.724   7.104   5.304
19477TIP3    H179846   4.742   7.142   5.390
19477TIP3    H279847   4.632   7.077   5.308
19478TIP3   OH279848   5.344   6.304   5.425
19478TIP3    H179849   5.297   6.360   5.364
19478TIP3    H279850   5.357   6.222   5.377
19479TIP3   OH279851   4.057   6.981   5.191
19479TIP3    H179852   4.075   6.944   5.277
19479TIP3    H279853   3.980   6.932   5.160
19480TIP3   OH279854   4.320   5.797   4.831
19480TIP3    H179855   4.243   5.786   4.775
19480TIP3    H279856   4.296   5.869   4.890
19481TIP3   OH279857   4.798   5.787   5.179
19481TIP3    H179858   4.840   5.730   5.244
19481TIP3    H279859   4.705   5.769   5.189
19482TIP3   OH279860   5.079   6.155   5.267
19482TIP3    H179861   5.015   6.156   5.339
19482TIP3    H279862   5.099   6.247   5.251
19483TIP3   OH279863   5.190   6.577   3.811
19483TIP3    H179864   5.179   6.598   3.718
19483TIP3    H279865   5.277   6.609   3.833
19484TIP3   OH279866   4.743   6.015   3.903
19484TIP3    H179867   4.693   6.005   3.984
19484TIP3    H279868   4.708   5.948   3.845
19485TIP3   OH279869   4.330   6.324   4.946
19485TIP3    H179870   4.265   6.325   5.016
19485TIP3    H279871   4.328   6.413   4.911
19486TIP3   OH279872   4.330   6.320   4.435
19486TIP3    H179873   4.235   6.309   4.434
19486TIP3    H279874   4.357   6.298   4.346
19487TIP3   OH279875   4.875   6.354   4.315
19487TIP3    H179876   4.849   6.440   4.282
19487TIP3    H279877   4.943   6.324   4.256
19488TIP3   OH279878   4.972   6.287   4.570
19488TIP3    H179879   4.927   6.332   4.499
19488TIP3    H279880   5.018   6.215   4.529
19489TIP3   OH279881   4.107   6.309   5.111
19489TIP3    H179882   4.111   6.355   5.195
19489TIP3    H279883   4.068   6.225   5.131
19490TIP3   OH279884   4.427   6.059   3.790
19490TIP3    H179885   4.398   6.042   3.880
19490TIP3    H279886   4.368   6.127   3.758
19491TIP3   OH279887   3.787   6.024   4.505
19491TIP3    H179888   3.837   6.033   4.586
19491TIP3    H279889   3.853   6.003   4.439
19492TIP3   OH279890   3.828   6.107   4.023
19492TIP3    H179891   3.897   6.147   3.971
19492TIP3    H279892   3.773   6.180   4.051
19493TIP3   OH279893   4.908   6.446   5.040
19493TIP3    H179894   4.948   6.391   4.973
19493TIP3    H279895   4.852   6.385   5.089
19494TIP3   OH279896   4.614   6.085   4.533
19494TIP3    H179897   4.524   6.074   4.565
19494TIP3    H279898   4.663   6.015   4.577
19495TIP3   OH279899   4.071   6.232   4.410
19495TIP3    H179900   3.997   6.259   4.357
19495TIP3    H279901   4.088   6.142   4.383
19496TIP3   OH279902   4.393   6.239   4.180
19496TIP3    H179903   4.487   6.237   4.196
19496TIP3    H279904   4.385   6.282   4.095
19497TIP3   OH279905   5.048   5.997   4.849
19497TIP3    H179906   4.995   6.000   4.929
19497TIP3    H279907   5.006   5.931   4.795
19498TIP3   OH279908   4.352   6.338   3.926
19498TIP3    H179909   4.297   6.317   3.850
19498TIP3    H279910   4.428   6.383   3.888
19499TIP3   OH279911   4.115   6.799   5.412
19499TIP3    H179912   4.193   6.823   5.463
19499TIP3    H279913   4.068   6.737   5.467
19500TIP3   OH279914   4.706   6.358   4.722
19500TIP3    H179915   4.766   6.299   4.675
19500TIP3    H279916   4.669   6.303   4.791
19501TIP3   OH279917   4.174   5.966   4.376
19501TIP3    H179918   4.123   5.889   4.401
19501TIP3    H279919   4.229   5.936   4.303
19502TIP3   OH279920   4.587   6.222   4.938
19502TIP3    H179921   4.501   6.264   4.947
19502TIP3    H279922   4.634   6.249   5.017
19503TIP3   OH279923   4.629   6.797   4.119
19503TIP3    H179924   4.559   6.752   4.072
19503TIP3    H279925   4.590   6.821   4.203
19504TIP3   OH279926   5.350   6.747   4.966
19504TIP3    H179927   5.409   6.799   4.911
19504TIP3    H279928   5.277   6.724   4.909
19505TIP3   OH279929   5.003   6.075   3.963
19505TIP3    H179930   4.910   6.068   3.946
19505TIP3    H279931   5.013   6.157   4.012
19506TIP3   OH279932   4.779   6.839   5.236
19506TIP3    H179933   4.790   6.792   5.319
19506TIP3    H279934   4.751   6.927   5.262
19507TIP3   OH279935   5.075   6.288   4.127
19507TIP3    H179936   5.162   6.269   4.162
19507TIP3    H279937   5.081   6.378   4.096
19508TIP3   OH279938   4.150   6.709   4.675
19508TIP3    H179939   4.215   6.709   4.605
19508TIP3    H279940   4.190   6.656   4.745
19509TIP3   OH279941   4.846   6.946   4.042
19509TIP3    H179942   4.813   7.036   4.048
19509TIP3    H279943   4.772   6.892   4.070
19510TIP3   OH279944   3.860   6.552   5.210
19510TIP3    H179945   3.831   6.507   5.289
19510TIP3    H279946   3.790   6.536   5.147
19511TIP3   OH279947   4.579   6.531   5.412
19511TIP3    H179948   4.494   6.487   5.405
19511TIP3    H279949   4.607   6.543   5.321
19512TIP3   OH279950   4.997   7.097   5.246
19512TIP3    H179951   4.901   7.098   5.251
19512TIP3    H279952   5.025   7.097   5.337
19513TIP3   OH279953   5.539   6.333   4.079
19513TIP3    H179954   5.501   6.311   3.994
19513TIP3    H279955   5.564   6.425   4.070
19514TIP3   OH279956   5.568   6.855   5.361
19514TIP3    H179957   5.481   6.888   5.337
19514TIP3    H279958   5.610   6.838   5.277
19515TIP3   OH279959   5.407   7.028   4.179
19515TIP3    H179960   5.346   7.042   4.252
19515TIP3    H279961   5.420   7.116   4.142
19516TIP3   OH279962   5.135   6.680   4.782
19516TIP3    H179963   5.040   6.672   4.781
19516TIP3    H279964   5.166   6.600   4.739
19517TIP3   OH279965   4.419   7.105   4.448
19517TIP3    H179966   4.465   7.187   4.432
19517TIP3    H279967   4.343   7.130   4.500
19518TIP3   OH279968   3.970   6.563   3.912
19518TIP3    H179969   4.018   6.627   3.964
19518TIP3    H279970   3.881   6.565   3.947
19519TIP3   OH279971   4.489   6.867   4.338
19519TIP3    H179972   4.468   6.952   4.376
19519TIP3    H279973   4.440   6.804   4.390
19520TIP3   OH279974   4.623   7.255   4.947
19520TIP3    H179975   4.641   7.315   5.019
19520TIP3    H279976   4.625   7.168   4.987
19521TIP3   OH279977   4.919   6.867   5.004
19521TIP3    H179978   4.870   6.855   5.085
19521TIP3    H279979   4.995   6.810   5.012
19522TIP3   OH279980   5.151   6.982   3.909
19522TIP3    H179981   5.187   6.919   3.972
19522TIP3    H279982   5.056   6.974   3.919
19523TIP3   OH279983   3.994   6.056   5.159
19523TIP3    H179984   3.904   6.087   5.145
19523TIP3    H279985   3.986   5.993   5.231
19524TIP3   OH279986   5.251   6.811   4.091
19524TIP3    H179987   5.235   6.748   4.162
19524TIP3    H279988   5.308   6.877   4.129
19525TIP3   OH279989   4.044   7.229   5.039
19525TIP3    H179990   4.028   7.157   5.099
19525TIP3    H279991   3.970   7.288   5.051
19526TIP3   OH279992   4.573   7.065   3.746
19526TIP3    H179993   4.583   6.977   3.709
19526TIP3    H279994   4.547   7.050   3.837
19527TIP3   OH279995   4.451   7.063   4.009
19527TIP3    H179996   4.478   6.987   4.061
19527TIP3    H279997   4.469   7.138   4.067
19528TIP3   OH279998   4.075   6.767   4.072
19528TIP3    H179999   4.003   6.811   4.117
19528TIP3    H280000   4.121   6.836   4.026
19529TIP3   OH280001   4.912   6.019   5.088
19529TIP3    H180002   4.983   6.042   5.149
19529TIP3    H280003   4.878   5.936   5.122
19530TIP3   OH280004   4.981   5.955   4.229
19530TIP3    H180005   4.992   5.998   4.144
19530TIP3    H280006   5.023   6.013   4.292
19531TIP3   OH280007   4.738   7.195   4.035
19531TIP3    H180008   4.670   7.249   4.075
19531TIP3    H280009   4.768   7.246   3.959
19532TIP3   OH280010   4.650   6.196   4.286
19532TIP3    H180011   4.727   6.252   4.296
19532TIP3    H280012   4.635   6.161   4.374
19533TIP3   OH280013   4.761   6.244   5.159
19533TIP3    H180014   4.738   6.223   5.249
19533TIP3    H280015   4.807   6.166   5.127
19534TIP3   OH280016   4.754   5.839   4.341
19534TIP3    H180017   4.758   5.866   4.433
19534TIP3    H280018   4.832   5.876   4.301
19535TIP3   OH280019   4.499   0.007   4.137
19535TIP3    H180020   4.469   0.096   4.118
19535TIP3    H280021   4.501   0.002   4.232
19536TIP3   OH280022   4.340   5.997   4.046
19536TIP3    H180023   4.331   6.078   4.096
19536TIP3    H280024   4.424   5.961   4.074
19537TIP3   OH280025   5.337   6.060   5.286
19537TIP3    H180026   5.243   6.081   5.290
19537TIP3    H280027   5.349   6.023   5.198
19538TIP3   OH280028   5.209   6.432   4.662
19538TIP3    H180029   5.126   6.386   4.648
19538TIP3    H280030   5.257   6.376   4.723
19539TIP3   OH280031   4.187   6.981   3.925
19539TIP3    H180032   4.259   7.026   3.970
19539TIP3    H280033   4.229   6.924   3.861
19540TIP3   OH280034   3.955   6.288   3.856
19540TIP3    H180035   3.983   6.374   3.890
19540TIP3    H280036   3.875   6.307   3.807
19541TIP3   OH280037   4.072   5.769   4.710
19541TIP3    H180038   4.060   5.758   4.616
19541TIP3    H280039   4.040   5.686   4.747
19542TIP3   OH280040   3.909   7.206   4.267
19542TIP3    H180041   3.814   7.199   4.258
19542TIP3    H280042   3.935   7.263   4.195
19543TIP3   OH280043   4.406   7.213   5.676
19543TIP3    H180044   4.484   7.178   5.719
19543TIP3    H280045   4.436   7.235   5.587
19544TIP3   OH280046   4.807   7.227   3.756
19544TIP3    H180047   4.727   7.175   3.759
19544TIP3    H280048   4.875   7.166   3.729
19545TIP3   OH280049   5.012   7.067   5.521
19545TIP3    H180050   4.943   7.023   5.571
19545TIP3    H280051   5.078   7.091   5.587
19546TIP3   OH280052   5.225   7.213   3.777
19546TIP3    H180053   5.210   7.146   3.844
19546TIP3    H280054   5.320   7.221   3.773
19547TIP3   OH280055   4.327   6.804   3.771
19547TIP3    H180056   4.346   6.752   3.849
19547TIP3    H280057   4.409   6.805   3.722
19548TIP3   OH280058   4.429   6.766   5.480
19548TIP3    H180059   4.463   6.843   5.434
19548TIP3    H280060   4.496   6.698   5.467
19549TIP3   OH280061   4.884   6.935   3.768
19549TIP3    H180062   4.861   6.927   3.860
19549TIP3    H280063   4.877   6.846   3.734
19550TIP3   OH280064   5.100   6.828   5.261
19550TIP3    H180065   5.190   6.853   5.243
19550TIP3    H280066   5.051   6.910   5.255
19551TIP3   OH280067   3.987   6.567   5.545
19551TIP3    H180068   3.982   6.483   5.590
19551TIP3    H280069   3.896   6.588   5.523
19552TIP3   OH280070   4.419   6.666   3.995
19552TIP3    H180071   4.367   6.629   4.067
19552TIP3    H280072   4.460   6.590   3.954
19553TIP3   OH280073   4.369   6.439   5.237
19553TIP3    H180074   4.294   6.499   5.233
19553TIP3    H280075   4.438   6.483   5.188
19554TIP3   OH280076   4.565   6.487   3.835
19554TIP3    H180077   4.564   6.509   3.742
19554TIP3    H280078   4.658   6.477   3.857
19555TIP3   OH280079   4.954   6.610   5.633
19555TIP3    H180080   5.012   6.610   5.557
19555TIP3    H280081   4.905   6.692   5.626
19556TIP3   OH280082   5.453   6.671   3.803
19556TIP3    H180083   5.459   6.646   3.710
19556TIP3    H280084   5.438   6.765   3.801
19557TIP3   OH280085   4.424   6.186   5.329
19557TIP3    H180086   4.436   6.123   5.258
19557TIP3    H280087   4.405   6.269   5.286
19558TIP3   OH280088   4.460   6.017   5.103
19558TIP3    H180089   4.510   6.063   5.035
19558TIP3    H280090   4.372   6.011   5.068
19559TIP3   OH280091   4.603   6.559   5.136
19559TIP3    H180092   4.692   6.557   5.101
19559TIP3    H280093   4.561   6.632   5.090
19560TIP3   OH280094   5.148   6.618   5.428
19560TIP3    H180095   5.127   6.694   5.374
19560TIP3    H280096   5.244   6.620   5.436
19561TIP3   OH280097   4.269   6.239   5.552
19561TIP3    H180098   4.184   6.199   5.534
19561TIP3    H280099   4.320   6.224   5.472
19562TIP3   OH280100   4.527   5.750   5.168
19562TIP3    H180101   4.498   5.840   5.152
19562TIP3    H280102   4.455   5.696   5.137
19563TIP3   OH280103   4.879   6.083   5.449
19563TIP3    H180104   4.838   6.007   5.409
19563TIP3    H280105   4.937   6.046   5.516
19564TIP3   OH280106   5.039   5.950   5.628
19564TIP3    H180107   5.050   5.856   5.617
19564TIP3    H280108   5.123   5.980   5.661
19565TIP3   OH280109   4.056   6.052   5.518
19565TIP3    H180110   4.051   5.971   5.468
19565TIP3    H280111   4.082   6.025   5.606
19566TIP3   OH280112   3.924   7.038   3.842
19566TIP3    H180113   4.006   7.023   3.890
19566TIP3    H280114   3.909   6.956   3.796
19567TIP3   OH280115   5.456   7.014   5.626
19567TIP3    H180116   5.408   6.958   5.687
19567TIP3    H280117   5.545   7.016   5.661
19568TIP3   OH280118   5.537   6.789   4.218
19568TIP3    H180119   5.508   6.877   4.197
19568TIP3    H280120   5.475   6.758   4.284
19569TIP3   OH280121   5.560   6.613   4.445
19569TIP3    H180122   5.485   6.554   4.433
19569TIP3    H280123   5.586   6.600   4.536
19570TIP3   OH280124   5.559   6.878   4.842
19570TIP3    H180125   5.614   6.807   4.811
19570TIP3    H280126   5.611   6.957   4.826
19571TIP3   OH280127   5.342   7.159   5.082
19571TIP3    H180128   5.251   7.155   5.111
19571TIP3    H280129   5.339   7.139   4.988
19572TIP3   OH280130   5.600   6.600   4.023
19572TIP3    H180131   5.549   6.619   3.945
19572TIP3    H280132   5.574   6.668   4.086
19573TIP3   OH280133   5.439   6.284   3.825
19573TIP3    H180134   5.413   6.339   3.751
19573TIP3    H280135   5.423   6.195   3.795
19574TIP3   OH280136   5.346   6.444   4.424
19574TIP3    H180137   5.339   6.355   4.388
19574TIP3    H280138   5.302   6.438   4.509
19575TIP3   OH280139   3.835   6.636   4.835
19575TIP3    H180140   3.848   6.624   4.741
19575TIP3    H280141   3.918   6.610   4.875
19576TIP3   OH280142   5.424   6.627   5.438
19576TIP3    H180143   5.492   6.566   5.411
19576TIP3    H280144   5.463   6.714   5.427
19577TIP3   OH280145   5.561   6.363   5.590
19577TIP3    H180146   5.486   6.344   5.534
19577TIP3    H280147   5.636   6.361   5.530
19578TIP3   OH280148   5.369   6.034   3.719
19578TIP3    H180149   5.407   5.988   3.794
19578TIP3    H280150   5.276   6.009   3.720
19579TIP3   OH280151   5.331   6.221   4.240
19579TIP3    H180152   5.353   6.128   4.241
19579TIP3    H280153   5.402   6.262   4.190
19580TIP3   OH280154   5.366   6.260   4.815
19580TIP3    H180155   5.458   6.273   4.793
19580TIP3    H280156   5.363   6.261   4.911
19581TIP3   OH280157   5.400   6.332   5.089
19581TIP3    H180158   5.321   6.372   5.126
19581TIP3    H280159   5.453   6.407   5.061
19582TIP3   OH280160   3.824   6.154   5.413
19582TIP3    H180161   3.906   6.138   5.459
19582TIP3    H280162   3.774   6.073   5.424
19583TIP3   OH280163   5.617   5.743   5.596
19583TIP3    H180164   5.682   5.681   5.564
19583TIP3    H280165   5.612   5.810   5.528
19584TIP3   OH280166   5.376   5.955   4.250
19584TIP3    H180167   5.413   5.915   4.329
19584TIP3    H280168   5.315   5.890   4.217
19585TIP3   OH280169   3.941   6.015   4.733
19585TIP3    H180170   3.980   5.927   4.738
19585TIP3    H280171   4.012   6.074   4.758
19586TIP3   OH280172   3.749   6.294   4.805
19586TIP3    H180173   3.822   6.300   4.743
19586TIP3    H280174   3.771   6.356   4.874
19587TIP3   OH280175   5.552   5.925   5.397
19587TIP3    H180176   5.480   5.982   5.371
19587TIP3    H280177   5.544   5.848   5.340
19588TIP3   OH280178   5.530   5.925   3.915
19588TIP3    H180179   5.583   5.866   3.862
19588TIP3    H280180   5.594   5.983   3.958
19589TIP3   OH280181   3.803   5.907   4.208
19589TIP3    H180182   3.711   5.913   4.232
19589TIP3    H280183   3.819   5.984   4.154
19590TIP3   OH280184   3.797   5.775   5.056
19590TIP3    H180185   3.724   5.756   5.115
19590TIP3    H280186   3.766   5.848   5.003
19591TIP3   OH280187   4.003   7.169   5.560
19591TIP3    H180188   3.932   7.161   5.495
19591TIP3    H280189   3.962   7.147   5.643
19592TIP3   OH280190   4.319   7.249   5.060
19592TIP3    H180191   4.223   7.249   5.058
19592TIP3    H280192   4.345   7.280   4.973
19593TIP3   OH280193   5.496   5.696   5.247
19593TIP3    H180194   5.453   5.709   5.162
19593TIP3    H280195   5.530   5.607   5.243
19594TIP3   OH280196   4.234   7.214   4.620
19594TIP3    H180197   4.205   7.135   4.666
19594TIP3    H280198   4.274   7.268   4.688
19595TIP3   OH280199   4.750   5.862   4.622
19595TIP3    H180200   4.700   5.801   4.676
19595TIP3    H280201   4.841   5.832   4.629
19596TIP3   OH280202   5.287   5.688   4.658
19596TIP3    H180203   5.353   5.700   4.726
19596TIP3    H280204   5.215   5.745   4.686
19597TIP3   OH280205   5.505   5.841   4.455
19597TIP3    H180206   5.562   5.765   4.466
19597TIP3    H280207   5.552   5.912   4.498
19598TIP3   OH280208   4.038   5.733   4.437
19598TIP3    H180209   3.945   5.715   4.420
19598TIP3    H280210   4.081   5.648   4.426
19599TIP3   OH280211   3.924   5.736   4.022
19599TIP3    H180212   3.985   5.795   3.978
19599TIP3    H280213   3.886   5.790   4.092
19600TIP3   OH280214   4.520   5.708   4.453
19600TIP3    H180215   4.592   5.757   4.415
19600TIP3    H280216   4.537   5.709   4.547
19601TIP3   OH280217   5.009   5.770   4.620
19601TIP3    H180218   5.065   5.763   4.543
19601TIP3    H280219   4.990   5.679   4.645
19602TIP3   OH280220   5.184   5.776   4.162
19602TIP3    H180221   5.109   5.832   4.183
19602TIP3    H280222   5.153   5.687   4.179
19603TIP3   OH280223   4.131   5.898   3.879
19603TIP3    H180224   4.183   5.840   3.822
19603TIP3    H280225   4.194   5.930   3.943
19604TIP3   OH280226   4.603   5.970   4.138
19604TIP3    H180227   4.638   5.902   4.195
19604TIP3    H280228   4.618   6.051   4.187
19605TIP3   OH280229   4.042   5.794   5.399
19605TIP3    H180230   3.979   5.725   5.421
19605TIP3    H280231   4.118   5.776   5.454
19606TIP3   OH280232   4.241   5.699   5.580
19606TIP3    H180233   4.291   5.651   5.514
19606TIP3    H280234   4.194   5.631   5.628
19607TIP3   OH280235   5.091   5.672   5.594
19607TIP3    H180236   5.083   5.628   5.679
19607TIP3    H280237   5.184   5.666   5.572
19608TIP3   OH280238   5.330   0.043   5.455
19608TIP3    H180239   5.373   0.042   5.370
19608TIP3    H280240   5.401   0.053   5.518
19609TIP3   OH280241   6.850   6.690   4.417
19609TIP3    H180242   6.839   6.784   4.407
19609TIP3    H280243   6.772   6.652   4.378
19610TIP3   OH280244   6.710   6.600   4.807
19610TIP3    H180245   6.733   6.565   4.893
19610TIP3    H280246   6.663   6.528   4.764
19611TIP3   OH280247   5.925   6.460   4.895
19611TIP3    H180248   5.947   6.404   4.970
19611TIP3    H280249   5.945   6.549   4.925
19612TIP3   OH280250   7.110   6.901   4.654
19612TIP3    H180251   7.065   6.829   4.698
19612TIP3    H280252   7.125   6.966   4.722
19613TIP3   OH280253   6.060   6.991   4.779
19613TIP3    H180254   6.029   6.912   4.822
19613TIP3    H280255   6.155   6.981   4.775
19614TIP3   OH280256   5.738   6.347   4.299
19614TIP3    H180257   5.694   6.337   4.383
19614TIP3    H280258   5.670   6.332   4.234
19615TIP3   OH280259   5.854   6.620   4.492
19615TIP3    H180260   5.848   6.529   4.523
19615TIP3    H280261   5.917   6.661   4.552
19616TIP3   OH280262   6.577   6.851   4.835
19616TIP3    H180263   6.608   6.768   4.799
19616TIP3    H280264   6.645   6.878   4.897
19617TIP3   OH280265   6.902   6.273   4.829
19617TIP3    H180266   6.907   6.181   4.855
19617TIP3    H280267   6.865   6.272   4.741
19618TIP3   OH280268   6.238   6.079   4.572
19618TIP3    H180269   6.243   6.166   4.531
19618TIP3    H280270   6.178   6.030   4.515
19619TIP3   OH280271   6.973   6.102   4.415
19619TIP3    H180272   7.017   6.061   4.489
19619TIP3    H280273   7.045   6.136   4.360
19620TIP3   OH280274   5.857   6.382   4.636
19620TIP3    H180275   5.904   6.395   4.718
19620TIP3    H280276   5.908   6.316   4.589
19621TIP3   OH280277   6.376   6.486   4.597
19621TIP3    H180278   6.453   6.443   4.636
19621TIP3    H280279   6.333   6.417   4.547
19622TIP3   OH280280   6.095   6.000   4.996
19622TIP3    H180281   6.071   6.061   4.926
19622TIP3    H280282   6.028   6.012   5.063
19623TIP3   OH280283   6.825   6.946   4.313
19623TIP3    H180284   6.806   6.946   4.219
19623TIP3    H280285   6.791   7.029   4.345
19624TIP3   OH280286   6.365   6.749   4.977
19624TIP3    H180287   6.309   6.814   5.020
19624TIP3    H280288   6.434   6.800   4.936
19625TIP3   OH280289   7.083   6.011   4.648
19625TIP3    H180290   7.008   5.995   4.705
19625TIP3    H280291   7.146   6.058   4.703
19626TIP3   OH280292   6.067   6.166   4.776
19626TIP3    H180293   6.116   6.230   4.827
19626TIP3    H280294   6.130   6.133   4.712
19627TIP3   OH280295   6.193   6.927   5.090
19627TIP3    H180296   6.167   7.019   5.089
19627TIP3    H280297   6.112   6.880   5.070
19628TIP3   OH280298   5.808   6.909   4.195
19628TIP3    H180299   5.775   6.927   4.107
19628TIP3    H280300   5.822   6.995   4.234
19629TIP3   OH280301   7.127   7.115   4.838
19629TIP3    H180302   7.042   7.111   4.882
19629TIP3    H280303   7.122   7.193   4.783
19630TIP3   OH280304   7.138   5.890   4.934
19630TIP3    H180305   7.046   5.910   4.918
19630TIP3    H280306   7.184   5.972   4.916
19631TIP3   OH280307   6.445   5.686   4.742
19631TIP3    H180308   6.417   5.595   4.745
19631TIP3    H280309   6.370   5.736   4.773
19632TIP3   OH280310   7.011   7.253   4.495
19632TIP3    H180311   7.039   7.170   4.457
19632TIP3    H280312   7.082   7.279   4.553
19633TIP3   OH280313   7.086   7.007   4.401
19633TIP3    H180314   7.005   6.967   4.368
19633TIP3    H280315   7.104   6.960   4.482
19634TIP3   OH280316   7.243   6.903   5.222
19634TIP3    H180317   7.224   6.852   5.143
19634TIP3    H280318   7.273   6.988   5.190
19635TIP3   OH280319   6.698   6.597   4.193
19635TIP3    H180320   6.638   6.667   4.168
19635TIP3    H280321   6.772   6.606   4.133
19636TIP3   OH280322   6.743   6.471   3.855
19636TIP3    H180323   6.794   6.493   3.933
19636TIP3    H280324   6.799   6.410   3.807
19637TIP3   OH280325   7.071   6.606   4.282
19637TIP3    H180326   7.002   6.639   4.340
19637TIP3    H280327   7.118   6.542   4.335
19638TIP3   OH280328   7.010   6.417   5.188
19638TIP3    H180329   7.016   6.484   5.256
19638TIP3    H280330   6.934   6.443   5.136
19639TIP3   OH280331   6.233   6.677   4.461
19639TIP3    H180332   6.208   6.631   4.381
19639TIP3    H280333   6.289   6.615   4.508
19640TIP3   OH280334   6.337   6.985   4.734
19640TIP3    H180335   6.367   7.004   4.645
19640TIP3    H280336   6.416   6.952   4.778
19641TIP3   OH280337   6.234   6.565   4.825
19641TIP3    H180338   6.295   6.550   4.752
19641TIP3    H280339   6.278   6.630   4.879
19642TIP3   OH280340   6.893   7.104   4.971
19642TIP3    H180341   6.890   7.126   5.064
19642TIP3    H280342   6.845   7.021   4.965
19643TIP3   OH280343   6.349   6.972   5.314
19643TIP3    H180344   6.294   7.036   5.361
19643TIP3    H280345   6.295   6.942   5.242
19644TIP3   OH280346   6.939   6.552   4.048
19644TIP3    H180347   6.983   6.578   4.129
19644TIP3    H280348   6.998   6.580   3.979
19645TIP3   OH280349   6.055   6.593   5.251
19645TIP3    H180350   6.052   6.659   5.320
19645TIP3    H280351   6.025   6.638   5.173
19646TIP3   OH280352   6.761   7.206   4.374
19646TIP3    H180353   6.838   7.231   4.425
19646TIP3    H280354   6.710   7.287   4.366
19647TIP3   OH280355   6.156   7.171   5.371
19647TIP3    H180356   6.146   7.187   5.277
19647TIP3    H280357   6.066   7.171   5.405
19648TIP3   OH280358   6.148   6.575   4.205
19648TIP3    H180359   6.088   6.635   4.161
19648TIP3    H280360   6.101   6.492   4.208
19649TIP3   OH280361   5.647   6.825   5.105
19649TIP3    H180362   5.613   6.857   5.022
19649TIP3    H280363   5.739   6.805   5.087
19650TIP3   OH280364   5.759   7.071   4.819
19650TIP3    H180365   5.844   7.032   4.799
19650TIP3    H280366   5.778   7.133   4.890
19651TIP3   OH280367   6.575   7.106   5.243
19651TIP3    H180368   6.568   7.183   5.298
19651TIP3    H280369   6.496   7.055   5.262
19652TIP3   OH280370   7.194   6.355   5.441
19652TIP3    H180371   7.154   6.440   5.426
19652TIP3    H280372   7.241   6.336   5.360
19653TIP3   OH280373   5.920   7.019   5.202
19653TIP3    H180374   5.956   6.983   5.283
19653TIP3    H280375   5.914   6.944   5.143
19654TIP3   OH280376   6.205   5.805   4.828
19654TIP3    H180377   6.128   5.800   4.771
19654TIP3    H280378   6.186   5.877   4.888
19655TIP3   OH280379   6.684   5.758   5.153
19655TIP3    H180380   6.723   5.712   5.226
19655TIP3    H280381   6.590   5.762   5.173
19656TIP3   OH280382   7.003   6.148   5.263
19656TIP3    H180383   6.925   6.142   5.318
19656TIP3    H280384   7.007   6.240   5.236
19657TIP3   OH280385   7.112   6.641   3.858
19657TIP3    H180386   7.088   6.644   3.765
19657TIP3    H280387   7.126   6.732   3.882
19658TIP3   OH280388   6.624   6.016   3.896
19658TIP3    H180389   6.573   6.008   3.977
19658TIP3    H280390   6.590   5.946   3.840
19659TIP3   OH280391   6.219   6.321   4.948
19659TIP3    H180392   6.157   6.326   5.021
19659TIP3    H280393   6.220   6.410   4.911
19660TIP3   OH280394   6.227   6.317   4.436
19660TIP3    H180395   6.132   6.307   4.438
19660TIP3    H280396   6.251   6.297   4.345
19661TIP3   OH280397   6.750   6.353   4.308
19661TIP3    H180398   6.728   6.440   4.274
19661TIP3    H280399   6.823   6.324   4.254
19662TIP3   OH280400   6.681   6.379   5.433
19662TIP3    H180401   6.629   6.309   5.472
19662TIP3    H280402   6.765   6.375   5.478
19663TIP3   OH280403   6.812   6.270   4.572
19663TIP3    H180404   6.786   6.333   4.505
19663TIP3    H280405   6.865   6.205   4.525
19664TIP3   OH280406   6.004   6.322   5.125
19664TIP3    H180407   6.017   6.383   5.198
19664TIP3    H280408   5.973   6.242   5.166
19665TIP3   OH280409   6.313   6.057   3.789
19665TIP3    H180410   6.283   6.042   3.879
19665TIP3    H280411   6.257   6.127   3.756
19666TIP3   OH280412   5.687   6.048   4.490
19666TIP3    H180413   5.726   6.055   4.578
19666TIP3    H280414   5.753   6.002   4.439
19667TIP3   OH280415   5.705   6.111   4.030
19667TIP3    H180416   5.775   6.150   3.977
19667TIP3    H280417   5.651   6.186   4.056
19668TIP3   OH280418   6.789   6.440   5.020
19668TIP3    H180419   6.829   6.380   4.958
19668TIP3    H280420   6.731   6.384   5.073
19669TIP3   OH280421   6.511   6.034   4.520
19669TIP3    H180422   6.423   6.045   4.555
19669TIP3    H280423   6.563   6.005   4.594
19670TIP3   OH280424   5.969   6.234   4.418
19670TIP3    H180425   5.894   6.259   4.364
19670TIP3    H280426   5.985   6.142   4.395
19671TIP3   OH280427   6.279   6.240   4.176
19671TIP3    H180428   6.373   6.237   4.195
19671TIP3    H280429   6.273   6.285   4.092
19672TIP3   OH280430   6.882   5.989   4.835
19672TIP3    H180431   6.854   5.992   4.926
19672TIP3    H280432   6.804   5.960   4.787
19673TIP3   OH280433   6.243   6.342   3.923
19673TIP3    H180434   6.190   6.320   3.846
19673TIP3    H280435   6.320   6.386   3.887
19674TIP3   OH280436   6.001   6.829   5.419
19674TIP3    H180437   6.066   6.823   5.489
19674TIP3    H280438   5.917   6.812   5.462
19675TIP3   OH280439   6.584   6.356   4.723
19675TIP3    H180440   6.656   6.306   4.684
19675TIP3    H280441   6.558   6.303   4.799
19676TIP3   OH280442   6.063   5.970   4.376
19676TIP3    H180443   6.013   5.891   4.397
19676TIP3    H280444   6.115   5.945   4.299
19677TIP3   OH280445   6.483   6.227   4.956
19677TIP3    H180446   6.400   6.273   4.961
19677TIP3    H280447   6.531   6.255   5.034
19678TIP3   OH280448   6.522   6.803   4.116
19678TIP3    H180449   6.452   6.758   4.069
19678TIP3    H280450   6.481   6.831   4.198
19679TIP3   OH280451   7.208   6.768   4.979
19679TIP3    H180452   7.266   6.731   4.912
19679TIP3    H280453   7.120   6.756   4.945
19680TIP3   OH280454   6.883   6.070   3.969
19680TIP3    H180455   6.789   6.070   3.948
19680TIP3    H280456   6.897   6.152   4.015
19681TIP3   OH280457   6.655   6.826   5.258
19681TIP3    H180458   6.667   6.794   5.347
19681TIP3    H280459   6.625   6.916   5.268
19682TIP3   OH280460   6.956   6.282   4.129
19682TIP3    H180461   7.038   6.255   4.169
19682TIP3    H280462   6.971   6.372   4.102
19683TIP3   OH280463   6.043   6.695   4.667
19683TIP3    H180464   6.115   6.710   4.607
19683TIP3    H280465   6.083   6.656   4.745
19684TIP3   OH280466   6.744   6.947   4.037
19684TIP3    H180467   6.712   7.037   4.041
19684TIP3    H280468   6.669   6.893   4.063
19685TIP3   OH280469   5.668   6.525   5.337
19685TIP3    H180470   5.754   6.509   5.375
19685TIP3    H280471   5.685   6.545   5.245
19686TIP3   OH280472   6.464   6.548   5.445
19686TIP3    H180473   6.404   6.502   5.387
19686TIP3    H280474   6.548   6.502   5.434
19687TIP3   OH280475   6.855   7.080   5.247
19687TIP3    H180476   6.761   7.095   5.243
19687TIP3    H280477   6.877   7.090   5.340
19688TIP3   OH280478   6.990   6.692   4.801
19688TIP3    H180479   6.895   6.684   4.801
19688TIP3    H280480   7.021   6.613   4.756
19689TIP3   OH280481   6.284   7.107   4.448
19689TIP3    H180482   6.332   7.188   4.435
19689TIP3    H280483   6.210   7.131   4.504
19690TIP3   OH280484   5.851   6.557   3.911
19690TIP3    H180485   5.909   6.618   3.956
19690TIP3    H280486   5.766   6.569   3.952
19691TIP3   OH280487   6.369   6.878   4.326
19691TIP3    H180488   6.344   6.961   4.367
19691TIP3    H280489   6.326   6.811   4.380
19692TIP3   OH280490   6.468   7.224   4.980
19692TIP3    H180491   6.458   7.305   5.031
19692TIP3    H280492   6.523   7.168   5.034
19693TIP3   OH280493   6.786   6.851   5.019
19693TIP3    H180494   6.735   6.842   5.099
19693TIP3    H280495   6.870   6.811   5.039
19694TIP3   OH280496   7.018   6.970   3.944
19694TIP3    H180497   7.071   6.920   4.006
19694TIP3    H280498   6.929   6.963   3.978
19695TIP3   OH280499   5.887   6.054   5.175
19695TIP3    H180500   5.800   6.088   5.155
19695TIP3    H280501   5.870   5.966   5.209
19696TIP3   OH280502   7.167   6.810   4.107
19696TIP3    H180503   7.143   6.749   4.177
19696TIP3    H280504   7.248   6.851   4.139
19697TIP3   OH280505   5.883   7.237   5.009
19697TIP3    H180506   5.901   7.175   5.080
19697TIP3    H280507   5.826   7.303   5.049
19698TIP3   OH280508   6.470   7.065   3.752
19698TIP3    H180509   6.476   6.976   3.718
19698TIP3    H280510   6.437   7.054   3.841
19699TIP3   OH280511   6.336   7.071   4.001
19699TIP3    H180512   6.358   6.997   4.058
19699TIP3    H280513   6.357   7.148   4.054
19700TIP3   OH280514   5.990   6.751   4.058
19700TIP3    H180515   5.936   6.807   4.115
19700TIP3    H280516   6.035   6.813   4.000
19701TIP3   OH280517   6.816   5.992   5.092
19701TIP3    H180518   6.852   6.030   5.173
19701TIP3    H280519   6.765   5.917   5.122
19702TIP3   OH280520   6.841   5.954   4.224
19702TIP3    H180521   6.861   5.994   4.140
19702TIP3    H280522   6.881   6.011   4.289
19703TIP3   OH280523   6.637   7.195   4.033
19703TIP3    H180524   6.565   7.244   4.075
19703TIP3    H280525   6.660   7.247   3.957
19704TIP3   OH280526   6.532   6.188   4.288
19704TIP3    H180527   6.606   6.248   4.296
19704TIP3    H280528   6.525   6.148   4.375
19705TIP3   OH280529   6.649   6.265   5.182
19705TIP3    H180530   6.651   6.316   5.263
19705TIP3    H280531   6.676   6.177   5.209
19706TIP3   OH280532   6.621   5.847   4.345
19706TIP3    H180533   6.594   5.915   4.406
19706TIP3    H280534   6.701   5.881   4.305
19707TIP3   OH280535   6.395   0.002   4.138
19707TIP3    H180536   6.374   0.091   4.110
19707TIP3    H280537   6.387   0.005   4.234
19708TIP3   OH280538   6.220   5.999   4.045
19708TIP3    H180539   6.213   6.082   4.093
19708TIP3    H280540   6.305   5.964   4.071
19709TIP3   OH280541   7.205   5.958   5.263
19709TIP3    H180542   7.123   6.006   5.253
19709TIP3    H280543   7.268   6.023   5.291
19710TIP3   OH280544   7.086   6.442   4.705
19710TIP3    H180545   7.017   6.390   4.746
19710TIP3    H280546   7.164   6.424   4.757
19711TIP3   OH280547   6.057   6.989   3.908
19711TIP3    H180548   6.117   7.054   3.945
19711TIP3    H280549   6.111   6.938   3.848
19712TIP3   OH280550   5.845   6.281   3.863
19712TIP3    H180551   5.867   6.370   3.893
19712TIP3    H280552   5.795   6.294   3.782
19713TIP3   OH280553   5.958   5.783   4.702
19713TIP3    H180554   5.949   5.774   4.607
19713TIP3    H280555   5.923   5.701   4.737
19714TIP3   OH280556   5.828   7.177   4.256
19714TIP3    H180557   5.796   7.235   4.187
19714TIP3    H280558   5.903   7.222   4.293
19715TIP3   OH280559   6.705   7.219   3.751
19715TIP3    H180560   6.613   7.196   3.747
19715TIP3    H280561   6.751   7.135   3.747
19716TIP3   OH280562   6.880   7.086   5.518
19716TIP3    H180563   6.828   7.037   5.583
19716TIP3    H280564   6.895   7.171   5.559
19717TIP3   OH280565   7.125   7.166   3.784
19717TIP3    H180566   7.090   7.101   3.845
19717TIP3    H280567   7.218   7.173   3.807
19718TIP3   OH280568   5.759   6.761   5.538
19718TIP3    H180569   5.762   6.666   5.529
19718TIP3    H280570   5.688   6.788   5.479
19719TIP3   OH280571   6.210   6.804   3.776
19719TIP3    H180572   6.235   6.753   3.853
19719TIP3    H280573   6.291   6.812   3.725
19720TIP3   OH280574   6.388   6.800   5.536
19720TIP3    H180575   6.394   6.862   5.464
19720TIP3    H280576   6.428   6.720   5.502
19721TIP3   OH280577   6.764   6.937   3.755
19721TIP3    H180578   6.755   6.931   3.850
19721TIP3    H280579   6.758   6.847   3.724
19722TIP3   OH280580   6.982   6.824   5.255
19722TIP3    H180581   7.070   6.862   5.259
19722TIP3    H280582   6.923   6.899   5.259
19723TIP3   OH280583   5.888   6.496   5.530
19723TIP3    H180584   5.949   6.423   5.515
19723TIP3    H280585   5.938   6.559   5.582
19724TIP3   OH280586   6.315   6.664   3.994
19724TIP3    H180587   6.270   6.623   4.068
19724TIP3    H280588   6.360   6.592   3.951
19725TIP3   OH280589   6.281   6.425   5.260
19725TIP3    H180590   6.209   6.488   5.258
19725TIP3    H280591   6.343   6.459   5.196
19726TIP3   OH280592   6.461   6.486   3.834
19726TIP3    H180593   6.459   6.513   3.742
19726TIP3    H280594   6.554   6.474   3.854
19727TIP3   OH280595   6.304   6.163   5.342
19727TIP3    H180596   6.319   6.108   5.266
19727TIP3    H280597   6.295   6.252   5.306
19728TIP3   OH280598   6.350   6.016   5.100
19728TIP3    H180599   6.401   6.073   5.043
19728TIP3    H280600   6.262   6.018   5.064
19729TIP3   OH280601   6.475   6.534   5.103
19729TIP3    H180602   6.558   6.568   5.136
19729TIP3    H280603   6.435   6.609   5.059
19730TIP3   OH280604   6.916   6.325   5.572
19730TIP3    H180605   6.919   6.274   5.653
19730TIP3    H280606   7.005   6.359   5.562
19731TIP3   OH280607   7.071   6.598   5.392
19731TIP3    H180608   7.034   6.675   5.348
19731TIP3    H280609   7.076   6.623   5.484
19732TIP3   OH280610   6.067   6.278   5.525
19732TIP3    H180611   6.062   6.183   5.519
19732TIP3    H280612   6.159   6.298   5.509
19733TIP3   OH280613   6.410   5.749   5.150
19733TIP3    H180614   6.388   5.842   5.141
19733TIP3    H280615   6.332   5.703   5.119
19734TIP3   OH280616   6.532   6.157   5.499
19734TIP3    H180617   6.506   6.155   5.591
19734TIP3    H280618   6.449   6.151   5.451
19735TIP3   OH280619   6.764   6.071   5.379
19735TIP3    H180620   6.680   6.091   5.419
19735TIP3    H280621   6.818   6.038   5.451
19736TIP3   OH280622   6.936   5.985   5.580
19736TIP3    H180623   6.931   5.890   5.573
19736TIP3    H280624   6.894   6.005   5.664
19737TIP3   OH280625   5.969   6.011   5.569
19737TIP3    H180626   5.971   5.947   5.498
19737TIP3    H280627   6.017   5.968   5.641
19738TIP3   OH280628   6.379   5.613   5.389
19738TIP3    H180629   6.458   5.569   5.421
19738TIP3    H280630   6.410   5.666   5.315
19739TIP3   OH280631   6.482   5.874   5.644
19739TIP3    H180632   6.439   5.790   5.661
19739TIP3    H280633   6.411   5.938   5.646
19740TIP3   OH280634   5.779   6.974   3.915
19740TIP3    H180635   5.872   6.995   3.916
19740TIP3    H280636   5.767   6.918   3.838
19741TIP3   OH280637   7.311   7.122   5.049
19741TIP3    H180638   7.299   7.212   5.079
19741TIP3    H280639   7.237   7.107   4.989
19742TIP3   OH280640   7.181   6.401   4.444
19742TIP3    H180641   7.214   6.313   4.463
19742TIP3    H280642   7.143   6.432   4.526
19743TIP3   OH280643   5.729   6.664   4.805
19743TIP3    H180644   5.780   6.595   4.762
19743TIP3    H280645   5.791   6.707   4.864
19744TIP3   OH280646   7.219   6.045   3.735
19744TIP3    H180647   7.248   6.025   3.824
19744TIP3    H280648   7.129   6.015   3.731
19745TIP3   OH280649   7.187   6.163   4.244
19745TIP3    H180650   7.236   6.128   4.319
19745TIP3    H280651   7.249   6.160   4.171
19746TIP3   OH280652   7.257   6.118   4.835
19746TIP3    H180653   7.342   6.092   4.801
19746TIP3    H280654   7.267   6.212   4.854
19747TIP3   OH280655   7.276   6.375   5.141
19747TIP3    H180656   7.181   6.386   5.147
19747TIP3    H280657   7.294   6.368   5.047
19748TIP3   OH280658   5.718   6.152   5.427
19748TIP3    H180659   5.809   6.127   5.442
19748TIP3    H280660   5.670   6.069   5.429
19749TIP3   OH280661   7.236   5.886   4.363
19749TIP3    H180662   7.280   5.804   4.382
19749TIP3    H280663   7.162   5.861   4.309
19750TIP3   OH280664   5.827   6.034   4.726
19750TIP3    H180665   5.862   5.945   4.737
19750TIP3    H280666   5.901   6.091   4.750
19751TIP3   OH280667   5.630   6.322   4.790
19751TIP3    H180668   5.707   6.330   4.734
19751TIP3    H280669   5.653   6.371   4.869
19752TIP3   OH280670   5.700   5.899   4.205
19752TIP3    H180671   5.614   5.902   4.249
19752TIP3    H280672   5.704   5.981   4.155
19753TIP3   OH280673   5.710   5.813   5.076
19753TIP3    H180674   5.637   5.776   5.125
19753TIP3    H280675   5.668   5.865   5.007
19754TIP3   OH280676   5.887   7.175   5.478
19754TIP3    H180677   5.802   7.157   5.439
19754TIP3    H280678   5.893   7.116   5.552
19755TIP3   OH280679   6.186   7.207   5.086
19755TIP3    H180680   6.129   7.255   5.027
19755TIP3    H280681   6.273   7.212   5.045
19756TIP3   OH280682   6.098   7.224   4.636
19756TIP3    H180683   6.078   7.141   4.680
19756TIP3    H280684   6.164   7.265   4.692
19757TIP3   OH280685   6.669   5.875   4.686
19757TIP3    H180686   6.607   5.806   4.709
19757TIP3    H280687   6.744   5.828   4.650
19758TIP3   OH280688   7.169   5.721   4.659
19758TIP3    H180689   7.217   5.803   4.672
19758TIP3    H280690   7.077   5.747   4.653
19759TIP3   OH280691   5.927   5.735   4.430
19759TIP3    H180692   5.834   5.715   4.414
19759TIP3    H280693   5.971   5.650   4.424
19760TIP3   OH280694   5.812   5.733   4.015
19760TIP3    H180695   5.874   5.791   3.970
19760TIP3    H280696   5.776   5.786   4.086
19761TIP3   OH280697   6.408   5.701   4.458
19761TIP3    H180698   6.478   5.755   4.420
19761TIP3    H280699   6.422   5.707   4.552
19762TIP3   OH280700   6.894   5.742   4.589
19762TIP3    H180701   6.907   5.729   4.495
19762TIP3    H280702   6.868   5.657   4.622
19763TIP3   OH280703   7.047   5.770   4.206
19763TIP3    H180704   6.966   5.821   4.200
19763TIP3    H280705   7.019   5.679   4.191
19764TIP3   OH280706   6.015   5.896   3.878
19764TIP3    H180707   6.068   5.841   3.821
19764TIP3    H280708   6.077   5.930   3.942
19765TIP3   OH280709   6.483   5.971   4.130
19765TIP3    H180710   6.516   5.900   4.185
19765TIP3    H280711   6.500   6.051   4.180
19766TIP3   OH280712   5.917   5.783   5.378
19766TIP3    H180713   5.864   5.717   5.422
19766TIP3    H280714   6.006   5.768   5.409
19767TIP3   OH280715   6.154   5.728   5.484
19767TIP3    H180716   6.232   5.689   5.443
19767TIP3    H280717   6.180   5.743   5.575
19768TIP3   OH280718   6.970   5.719   5.544
19768TIP3    H180719   6.948   5.656   5.612
19768TIP3    H280720   7.059   5.694   5.516
19769TIP3   OH280721   0.043   0.023   5.463
19769TIP3    H180722  -0.012  -0.027   5.523
19769TIP3    H280723   0.016   0.114   5.475
19770TIP3   OH280724   1.155   0.694   5.780
19770TIP3    H180725   1.106   0.770   5.749
19770TIP3    H280726   1.089   0.637   5.818
19771TIP3   OH280727   1.767   1.489   5.751
19771TIP3    H180728   1.773   1.583   5.767
19771TIP3    H280729   1.851   1.454   5.783
19772TIP3   OH280730   1.309   1.768   5.829
19772TIP3    H180731   1.351   1.694   5.785
19772TIP3    H280732   1.337   1.761   5.920
19773TIP3   OH280733   1.420   1.026   5.736
19773TIP3    H180734   1.388   0.995   5.651
19773TIP3    H280735   1.515   1.015   5.732
19774TIP3   OH280736   0.609   0.365   5.640
19774TIP3    H180737   0.618   0.338   5.731
19774TIP3    H280738   0.611   0.461   5.643
19775TIP3   OH280739   0.484   0.724   5.758
19775TIP3    H180740   0.463   0.695   5.669
19775TIP3    H280741   0.578   0.737   5.758
19776TIP3   OH280742   1.104   1.236   5.886
19776TIP3    H180743   1.023   1.253   5.934
19776TIP3    H280744   1.086   1.157   5.835
19777TIP3   OH280745   1.875   0.653   5.931
19777TIP3    H180746   1.806   0.631   5.868
19777TIP3    H280747   1.867   0.748   5.942
19778TIP3   OH280748   1.369   1.291   5.803
19778TIP3    H180749   1.379   1.199   5.778
19778TIP3    H280750   1.280   1.296   5.839
19779TIP3   OH280751   1.776   1.758   5.792
19779TIP3    H180752   1.811   1.826   5.735
19779TIP3    H280753   1.793   1.791   5.881
19780TIP3   OH280754   0.626   0.307   5.905
19780TIP3    H180755   0.609   0.358   5.984
19780TIP3    H280756   0.713   0.270   5.918
19781TIP3   OH280757   1.424   1.562   5.680
19781TIP3    H180758   1.448   1.488   5.736
19781TIP3    H280759   1.500   1.575   5.624
19782TIP3   OH280760   0.744   0.745   5.675
19782TIP3    H180761   0.731   0.787   5.590
19782TIP3    H280762   0.815   0.794   5.716
19783TIP3   OH280763   1.695   1.015   5.701
19783TIP3    H180764   1.708   0.989   5.610
19783TIP3    H280765   1.686   1.110   5.697
19784TIP3   OH280766   0.217   1.370   5.729
19784TIP3    H180767   0.252   1.358   5.817
19784TIP3    H280768   0.188   1.282   5.704
19785TIP3   OH280769   1.856   0.938   5.909
19785TIP3    H180770   1.793   0.955   5.838
19785TIP3    H280771   1.939   0.973   5.876
19786TIP3   OH280772   1.689   0.635   5.724
19786TIP3    H180773   1.661   0.697   5.657
19786TIP3    H280774   1.668   0.549   5.688
19787TIP3   OH280775   1.600   0.386   5.604
19787TIP3    H180776   1.644   0.354   5.682
19787TIP3    H280777   1.507   0.368   5.620
19788TIP3   OH280778   1.777   0.312   5.796
19788TIP3    H180779   1.825   0.237   5.760
19788TIP3    H280780   1.800   0.313   5.889
19789TIP3   OH280781   0.099   0.084   5.821
19789TIP3    H180782   0.155   0.156   5.792
19789TIP3    H280783   0.130   0.063   5.908
19790TIP3   OH280784   0.316   0.258   5.773
19790TIP3    H180785   0.381   0.192   5.749
19790TIP3    H280786   0.343   0.288   5.860
19791TIP3   OH280787   1.036   1.820   5.781
19791TIP3    H180788   1.012   1.896   5.834
19791TIP3    H280789   1.129   1.806   5.800
19792TIP3   OH280790   2.995   0.767   5.747
19792TIP3    H180791   2.987   0.801   5.836
19792TIP3    H280792   3.055   0.693   5.755
19793TIP3   OH280793   3.508   0.130   5.944
19793TIP3    H180794   3.551   0.052   5.976
19793TIP3    H280795   3.579   0.191   5.924
19794TIP3   OH280796   2.855   0.342   5.763
19794TIP3    H180797   2.883   0.265   5.814
19794TIP3    H280798   2.786   0.309   5.706
19795TIP3   OH280799   2.477   0.664   5.824
19795TIP3    H180800   2.433   0.635   5.743
19795TIP3    H280801   2.554   0.711   5.793
19796TIP3   OH280802   2.917   1.331   5.917
19796TIP3    H180803   2.930   1.423   5.941
19796TIP3    H280804   2.884   1.290   5.997
19797TIP3   OH280805   2.693   1.443   5.632
19797TIP3    H180806   2.768   1.384   5.626
19797TIP3    H280807   2.711   1.496   5.710
19798TIP3   OH280808   2.081   0.697   5.737
19798TIP3    H180809   2.143   0.729   5.803
19798TIP3    H280810   2.007   0.665   5.788
19799TIP3   OH280811   2.428   1.182   5.615
19799TIP3    H180812   2.382   1.234   5.681
19799TIP3    H280813   2.519   1.211   5.620
19800TIP3   OH280814   2.954   1.307   5.644
19800TIP3    H180815   2.940   1.313   5.739
19800TIP3    H280816   2.939   1.215   5.623
19801TIP3   OH280817   2.707   0.765   5.715
19801TIP3    H180818   2.682   0.821   5.642
19801TIP3    H280819   2.803   0.773   5.719
19802TIP3   OH280820   2.095   0.143   5.843
19802TIP3    H180821   2.028   0.127   5.777
19802TIP3    H280822   2.050   0.126   5.927
19803TIP3   OH280823   5.587   1.497   5.731
19803TIP3    H180824   5.580   1.562   5.801
19803TIP3    H280825   5.674   1.459   5.743
19804TIP3   OH280826   4.429   0.419   5.684
19804TIP3    H180827   4.395   0.427   5.773
19804TIP3    H280828   4.372   0.476   5.632
19805TIP3   OH280829   4.293   1.117   5.682
19805TIP3    H180830   4.230   1.061   5.727
19805TIP3    H280831   4.318   1.182   5.748
19806TIP3   OH280832   5.519   1.021   5.698
19806TIP3    H180833   5.473   1.022   5.614
19806TIP3    H280834   5.491   1.102   5.741
19807TIP3   OH280835   6.747   0.839   5.781
19807TIP3    H180836   6.761   0.876   5.868
19807TIP3    H280837   6.795   0.757   5.781
19808TIP3   OH280838   7.192   1.052   5.694
19808TIP3    H180839   7.132   0.978   5.694
19808TIP3    H280840   7.139   1.126   5.723
19809TIP3   OH280841   7.041   1.270   5.779
19809TIP3    H180842   6.998   1.234   5.857
19809TIP3    H280843   6.969   1.287   5.718
19810TIP3   OH280844   6.426   1.430   5.589
19810TIP3    H180845   6.439   1.336   5.574
19810TIP3    H280846   6.420   1.437   5.684
19811TIP3   OH280847   6.407   1.433   5.860
19811TIP3    H180848   6.383   1.378   5.934
19811TIP3    H280849   6.470   1.496   5.895
19812TIP3   OH280850   7.124   1.537   5.652
19812TIP3    H180851   7.128   1.456   5.703
19812TIP3    H280852   7.197   1.531   5.591
19813TIP3   OH280853   6.206   1.088   5.661
19813TIP3    H180854   6.240   1.043   5.739
19813TIP3    H280855   6.284   1.126   5.621
19814TIP3   OH280856   6.788   1.284   5.671
19814TIP3    H180857   6.754   1.284   5.761
19814TIP3    H280858   6.774   1.194   5.640
19815TIP3   OH280859   6.316   0.907   5.866
19815TIP3    H180860   6.278   0.848   5.931
19815TIP3    H280861   6.386   0.857   5.825
19816TIP3   OH280862   6.494   0.766   5.689
19816TIP3    H180863   6.482   0.830   5.619
19816TIP3    H280864   6.579   0.788   5.728
19817TIP3   OH280865   6.405   1.930   5.886
19817TIP3    H180866   6.438   1.841   5.873
19817TIP3    H280867   6.430   1.977   5.806
19818TIP3   OH280868   5.847   1.383   5.748
19818TIP3    H180869   5.902   1.382   5.826
19818TIP3    H280870   5.850   1.292   5.716
19819TIP3   OH280871   7.195   0.387   5.657
19819TIP3    H180872   7.242   0.407   5.738
19819TIP3    H280873   7.103   0.378   5.685
19820TIP3   OH280874   5.705   0.200   5.938
19820TIP3    H180875   5.754   0.253   6.001
19820TIP3    H280876   5.633   0.162   5.989
19821TIP3   OH280877   6.023   0.396   5.755
19821TIP3    H180878   6.006   0.302   5.753
19821TIP3    H280879   6.030   0.417   5.849
19822TIP3   OH280880   5.992   1.759   5.681
19822TIP3    H180881   5.958   1.721   5.762
19822TIP3    H280882   6.073   1.711   5.665
19823TIP3   OH280883   1.092   2.712   5.712
19823TIP3    H180884   1.120   2.731   5.802
19823TIP3    H280885   1.160   2.655   5.677
19824TIP3   OH280886   1.288   2.717   5.904
19824TIP3    H180887   1.313   2.762   5.985
19824TIP3    H280888   1.357   2.741   5.842
19825TIP3   OH280889   1.832   3.359   5.722
19825TIP3    H180890   1.739   3.371   5.701
19825TIP3    H280891   1.864   3.447   5.741
19826TIP3   OH280892   1.462   2.767   5.688
19826TIP3    H180893   1.449   2.808   5.603
19826TIP3    H280894   1.552   2.789   5.712
19827TIP3   OH280895   0.222   2.339   5.921
19827TIP3    H180896   0.301   2.301   5.959
19827TIP3    H280897   0.153   2.322   5.986
19828TIP3   OH280898   1.168   2.319   5.772
19828TIP3    H180899   1.077   2.300   5.794
19828TIP3    H280900   1.177   2.413   5.786
19829TIP3   OH280901   0.212   2.786   5.836
19829TIP3    H180902   0.269   2.785   5.913
19829TIP3    H280903   0.146   2.852   5.856
19830TIP3   OH280904   0.750   3.259   5.726
19830TIP3    H180905   0.833   3.235   5.686
19830TIP3    H280906   0.773   3.320   5.796
19831TIP3   OH280907   0.415   3.242   5.847
19831TIP3    H180908   0.396   3.258   5.939
19831TIP3    H280909   0.478   3.311   5.823
19832TIP3   OH280910   0.327   2.545   5.723
19832TIP3    H180911   0.334   2.623   5.778
19832TIP3    H280912   0.342   2.472   5.783
19833TIP3   OH280913   1.076   3.469   5.638
19833TIP3    H180914   1.061   3.376   5.652
19833TIP3    H280915   1.170   3.481   5.653
19834TIP3   OH280916   1.022   3.190   5.680
19834TIP3    H180917   1.041   3.169   5.771
19834TIP3    H280918   1.048   3.112   5.631
19835TIP3   OH280919   0.169   3.253   5.700
19835TIP3    H180920   0.242   3.243   5.762
19835TIP3    H280921   0.146   3.163   5.676
19836TIP3   OH280922   1.770   2.500   5.659
19836TIP3    H180923   1.734   2.568   5.716
19836TIP3    H280924   1.697   2.441   5.642
19837TIP3   OH280925   1.594   2.283   5.615
19837TIP3    H180926   1.641   2.243   5.689
19837TIP3    H280927   1.508   2.241   5.616
19838TIP3   OH280928   1.771   2.184   5.801
19838TIP3    H180929   1.801   2.097   5.826
19838TIP3    H280930   1.825   2.244   5.852
19839TIP3   OH280931   0.436   2.146   5.759
19839TIP3    H180932   0.398   2.080   5.816
19839TIP3    H280933   0.523   2.163   5.797
19840TIP3   OH280934   0.996   3.697   5.817
19840TIP3    H180935   1.071   3.713   5.874
19840TIP3    H280936   1.023   3.623   5.762
19841TIP3   OH280937   0.323   3.667   5.673
19841TIP3    H180938   0.297   3.688   5.763
19841TIP3    H280939   0.395   3.604   5.684
19842TIP3   OH280940   3.603   3.431   5.820
19842TIP3    H180941   3.600   3.402   5.911
19842TIP3    H280942   3.571   3.356   5.770
19843TIP3   OH280943   2.978   2.189   5.757
19843TIP3    H180944   2.953   2.252   5.824
19843TIP3    H280945   2.913   2.119   5.764
19844TIP3   OH280946   2.585   2.275   5.689
19844TIP3    H180947   2.555   2.249   5.777
19844TIP3    H280948   2.538   2.356   5.670
19845TIP3   OH280949   1.939   2.368   5.946
19845TIP3    H180950   1.995   2.409   5.880
19845TIP3    H280951   1.884   2.440   5.979
19846TIP3   OH280952   2.449   2.512   5.782
19846TIP3    H180953   2.400   2.529   5.702
19846TIP3    H280954   2.513   2.583   5.787
19847TIP3   OH280955   2.444   2.283   5.934
19847TIP3    H180956   2.440   2.371   5.897
19847TIP3    H280957   2.466   2.296   6.026
19848TIP3   OH280958   2.023   2.553   5.743
19848TIP3    H180959   1.984   2.611   5.809
19848TIP3    H280960   1.948   2.519   5.694
19849TIP3   OH280961   2.894   3.578   5.646
19849TIP3    H180962   2.808   3.584   5.688
19849TIP3    H280963   2.956   3.601   5.716
19850TIP3   OH280964   2.948   3.151   5.702
19850TIP3    H180965   3.009   3.128   5.772
19850TIP3    H280966   2.968   3.090   5.631
19851TIP3   OH280967   2.509   2.870   5.924
19851TIP3    H180968   2.537   2.823   6.003
19851TIP3    H280969   2.554   2.825   5.853
19852TIP3   OH280970   2.653   2.706   5.754
19852TIP3    H180971   2.675   2.730   5.664
19852TIP3    H280972   2.736   2.711   5.801
19853TIP3   OH280973   3.515   2.585   5.681
19853TIP3    H180974   3.497   2.563   5.590
19853TIP3    H280975   3.516   2.501   5.727
19854TIP3   OH280976   3.465   2.256   5.738
19854TIP3    H180977   3.556   2.227   5.738
19854TIP3    H280978   3.438   2.251   5.830
19855TIP3   OH280979   3.721   2.151   5.786
19855TIP3    H180980   3.710   2.079   5.848
19855TIP3    H280981   3.806   2.188   5.809
19856TIP3   OH280982   2.243   2.171   5.774
19856TIP3    H180983   2.171   2.161   5.836
19856TIP3    H280984   2.314   2.211   5.825
19857TIP3   OH280985   4.821   2.678   5.702
19857TIP3    H180986   4.850   2.620   5.773
19857TIP3    H280987   4.726   2.667   5.700
19858TIP3   OH280988   5.563   3.352   5.792
19858TIP3    H180989   5.547   3.438   5.754
19858TIP3    H280990   5.651   3.329   5.763
19859TIP3   OH280991   4.833   2.201   5.789
19859TIP3    H180992   4.851   2.241   5.874
19859TIP3    H280993   4.742   2.171   5.795
19860TIP3   OH280994   4.811   3.176   5.926
19860TIP3    H180995   4.806   3.271   5.940
19860TIP3    H280996   4.721   3.146   5.938
19861TIP3   OH280997   4.558   3.285   5.666
19861TIP3    H180998   4.571   3.200   5.623
19861TIP3    H280999   4.477   3.274   5.716
19862TIP3   OH281000   4.789   3.455   5.932
19862TIP3    H181001   4.706   3.480   5.972
19862TIP3    H281002   4.776   3.469   5.838
19863TIP3   OH281003   4.540   3.543   6.015
19863TIP3    H181004   4.449   3.514   6.013
19863TIP3    H281005   4.545   3.602   6.090
19864TIP3   OH281006   4.766   3.459   5.651
19864TIP3    H181007   4.688   3.405   5.657
19864TIP3    H281008   4.836   3.398   5.629
19865TIP3   OH281009   5.230   3.470   5.685
19865TIP3    H181010   5.189   3.464   5.772
19865TIP3    H281011   5.311   3.518   5.700
19866TIP3   OH281012   4.330   3.058   5.649
19866TIP3    H181013   4.305   3.106   5.728
19866TIP3    H281014   4.369   2.977   5.682
19867TIP3   OH281015   4.917   3.177   5.667
19867TIP3    H181016   4.875   3.173   5.753
19867TIP3    H281017   4.913   3.088   5.634
19868TIP3   OH281018   4.403   2.839   5.819
19868TIP3    H181019   4.363   2.890   5.890
19868TIP3    H281020   4.343   2.766   5.804
19869TIP3   OH281021   4.545   2.634   5.702
19869TIP3    H181022   4.461   2.589   5.698
19869TIP3    H281023   4.525   2.719   5.742
19870TIP3   OH281024   5.488   2.956   5.685
19870TIP3    H181025   5.456   2.904   5.611
19870TIP3    H281026   5.443   3.040   5.677
19871TIP3   OH281027   5.613   2.847   5.900
19871TIP3    H181028   5.563   2.887   5.829
19871TIP3    H281029   5.571   2.761   5.913
19872TIP3   OH281030   5.309   2.238   5.654
19872TIP3    H181031   5.354   2.211   5.733
19872TIP3    H281032   5.302   2.333   5.661
19873TIP3   OH281033   6.984   2.863   5.924
19873TIP3    H181034   7.050   2.861   5.855
19873TIP3    H281035   6.900   2.867   5.878
19874TIP3   OH281036   6.954   3.629   5.793
19874TIP3    H181037   7.007   3.557   5.758
19874TIP3    H281038   6.935   3.604   5.883
19875TIP3   OH281039   7.152   2.896   5.715
19875TIP3    H181040   7.121   2.882   5.626
19875TIP3    H281041   7.161   2.991   5.723
19876TIP3   OH281042   6.349   2.326   5.689
19876TIP3    H181043   6.320   2.312   5.779
19876TIP3    H281044   6.279   2.378   5.649
19877TIP3   OH281045   6.858   2.421   5.883
19877TIP3    H181046   6.835   2.449   5.795
19877TIP3    H281047   6.954   2.424   5.885
19878TIP3   OH281048   6.710   3.186   5.952
19878TIP3    H181049   6.654   3.263   5.941
19878TIP3    H281050   6.649   3.112   5.956
19879TIP3   OH281051   5.839   2.829   5.750
19879TIP3    H181052   5.897   2.779   5.808
19879TIP3    H281053   5.758   2.838   5.800
19880TIP3   OH281054   7.050   3.159   5.785
19880TIP3    H181055   7.018   3.133   5.872
19880TIP3    H281056   6.973   3.153   5.728
19881TIP3   OH281057   6.460   3.342   5.630
19881TIP3    H181058   6.468   3.253   5.597
19881TIP3    H281059   6.498   3.338   5.718
19882TIP3   OH281060   6.257   3.524   5.975
19882TIP3    H181061   6.301   3.587   5.918
19882TIP3    H281062   6.314   3.517   6.051
19883TIP3   OH281063   7.101   3.422   5.676
19883TIP3    H181064   7.121   3.338   5.717
19883TIP3    H281065   7.181   3.445   5.628
19884TIP3   OH281066   6.794   3.134   5.690
19884TIP3    H181067   6.763   3.173   5.771
19884TIP3    H281068   6.773   3.041   5.699
19885TIP3   OH281069   6.469   3.698   5.841
19885TIP3    H181070   6.534   3.739   5.898
19885TIP3    H281071   6.451   3.763   5.774
19886TIP3   OH281072   5.822   3.293   5.726
19886TIP3    H181073   5.915   3.291   5.752
19886TIP3    H281074   5.807   3.208   5.685
19887TIP3   OH281075   6.013   2.140   5.740
19887TIP3    H181076   6.069   2.082   5.688
19887TIP3    H281077   5.948   2.083   5.779
19888TIP3   OH281078   5.982   3.606   5.736
19888TIP3    H181079   5.995   3.701   5.740
19888TIP3    H281080   6.063   3.574   5.696
19889TIP3   OH281081   1.783   5.245   5.827
19889TIP3    H181082   1.786   5.339   5.847
19889TIP3    H281083   1.755   5.241   5.736
19890TIP3   OH281084   0.114   4.283   5.889
19890TIP3    H181085   0.205   4.265   5.913
19890TIP3    H281086   0.095   4.368   5.930
19891TIP3   OH281087   1.028   5.166   5.880
19891TIP3    H181088   1.064   5.171   5.968
19891TIP3    H281089   0.940   5.130   5.892
19892TIP3   OH281090   1.805   5.541   5.846
19892TIP3    H181091   1.810   5.599   5.770
19892TIP3    H281092   1.730   5.573   5.896
19893TIP3   OH281093   0.529   4.005   5.988
19893TIP3    H181094   0.520   4.090   6.031
19893TIP3    H281095   0.622   3.997   5.969
19894TIP3   OH281096   0.208   4.496   5.726
19894TIP3    H181097   0.196   4.538   5.811
19894TIP3    H281098   0.210   4.402   5.746
19895TIP3   OH281099   1.024   5.315   5.646
19895TIP3    H181100   1.014   5.274   5.732
19895TIP3    H281101   1.100   5.272   5.608
19896TIP3   OH281102   1.422   5.355   5.675
19896TIP3    H181103   1.415   5.412   5.752
19896TIP3    H281104   1.507   5.377   5.637
19897TIP3   OH281105   1.568   4.132   5.662
19897TIP3    H181106   1.653   4.136   5.707
19897TIP3    H281107   1.548   4.038   5.656
19898TIP3   OH281108   1.809   4.073   5.788
19898TIP3    H181109   1.826   3.995   5.736
19898TIP3    H281110   1.857   4.058   5.870
19899TIP3   OH281111   0.141   3.876   5.832
19899TIP3    H181112   0.215   3.924   5.795
19899TIP3    H281113   0.134   3.908   5.921
19900TIP3   OH281114   0.371   4.009   5.752
19900TIP3    H181115   0.437   3.961   5.701
19900TIP3    H281116   0.414   4.028   5.835
19901TIP3   OH281117   2.879   4.542   5.779
19901TIP3    H181118   2.960   4.491   5.788
19901TIP3    H281119   2.829   4.496   5.712
19902TIP3   OH281120   2.434   4.490   5.779
19902TIP3    H181121   2.342   4.463   5.768
19902TIP3    H281122   2.481   4.408   5.795
19903TIP3   OH281123   2.918   5.075   5.914
19903TIP3    H181124   2.858   5.149   5.907
19903TIP3    H281125   2.873   5.014   5.973
19904TIP3   OH281126   2.042   4.663   5.784
19904TIP3    H181127   2.064   4.730   5.849
19904TIP3    H281128   1.951   4.642   5.802
19905TIP3   OH281129   2.677   5.190   5.682
19905TIP3    H181130   2.673   5.106   5.637
19905TIP3    H281131   2.658   5.169   5.773
19906TIP3   OH281132   2.220   5.136   5.740
19906TIP3    H181133   2.269   5.191   5.801
19906TIP3    H281134   2.277   5.061   5.725
19907TIP3   OH281135   2.164   4.418   5.762
19907TIP3    H181136   2.119   4.502   5.775
19907TIP3    H281137   2.093   4.355   5.746
19908TIP3   OH281138   2.892   5.363   5.638
19908TIP3    H181139   2.825   5.296   5.655
19908TIP3    H281140   2.973   5.313   5.626
19909TIP3   OH281141   2.413   4.926   5.692
19909TIP3    H181142   2.389   4.834   5.681
19909TIP3    H281143   2.494   4.936   5.643
19910TIP3   OH281144   3.012   5.054   5.651
19910TIP3    H181145   2.985   5.050   5.743
19910TIP3    H281146   3.013   4.962   5.623
19911TIP3   OH281147   2.304   4.034   5.737
19911TIP3    H181148   2.333   3.960   5.684
19911TIP3    H281149   2.375   4.047   5.800
19912TIP3   OH281150   5.053   5.547   5.846
19912TIP3    H181151   4.990   5.495   5.895
19912TIP3    H281152   5.097   5.601   5.912
19913TIP3   OH281153   5.126   4.741   5.690
19913TIP3    H181154   5.128   4.751   5.594
19913TIP3    H281155   5.210   4.776   5.719
19914TIP3   OH281156   4.446   4.202   5.735
19914TIP3    H181157   4.421   4.203   5.828
19914TIP3    H281158   4.390   4.268   5.695
19915TIP3   OH281159   4.786   5.023   5.911
19915TIP3    H181160   4.747   5.096   5.960
19915TIP3    H281161   4.756   4.945   5.957
19916TIP3   OH281162   3.936   4.640   5.806
19916TIP3    H181163   3.982   4.558   5.821
19916TIP3    H281164   3.995   4.707   5.842
19917TIP3   OH281165   4.540   5.120   5.690
19917TIP3    H181166   4.601   5.077   5.630
19917TIP3    H281167   4.589   5.128   5.772
19918TIP3   OH281168   4.205   5.136   5.827
19918TIP3    H181169   4.277   5.146   5.889
19918TIP3    H281170   4.238   5.074   5.762
19919TIP3   OH281171   4.329   4.952   5.650
19919TIP3    H181172   4.357   4.876   5.701
19919TIP3    H281173   4.401   5.015   5.660
19920TIP3   OH281174   4.871   5.012   5.652
19920TIP3    H181175   4.864   5.033   5.745
19920TIP3    H281176   4.796   4.955   5.634
19921TIP3   OH281177   5.386   4.811   5.724
19921TIP3    H181178   5.447   4.820   5.651
19921TIP3    H281179   5.428   4.858   5.797
19922TIP3   OH281180   3.957   5.146   5.696
19922TIP3    H181181   4.024   5.135   5.763
19922TIP3    H281182   3.934   5.057   5.669
19923TIP3   OH281183   3.876   3.858   5.838
19923TIP3    H181184   3.957   3.885   5.881
19923TIP3    H281185   3.809   3.865   5.906
19924TIP3   OH281186   4.172   4.073   5.751
19924TIP3    H181187   4.242   4.008   5.758
19924TIP3    H281188   4.194   4.138   5.818
19925TIP3   OH281189   4.124   5.491   5.709
19925TIP3    H181190   4.057   5.479   5.776
19925TIP3    H281191   4.142   5.403   5.677
19926TIP3   OH281192   6.729   4.570   5.777
19926TIP3    H181193   6.781   4.590   5.855
19926TIP3    H281194   6.784   4.512   5.725
19927TIP3   OH281195   6.942   4.631   5.979
19927TIP3    H181196   6.932   4.631   6.074
19927TIP3    H281197   7.035   4.648   5.965
19928TIP3   OH281198   6.916   5.538   5.734
19928TIP3    H181199   6.946   5.452   5.706
19928TIP3    H281200   6.962   5.554   5.817
19929TIP3   OH281201   6.920   4.764   5.623
19929TIP3    H181202   6.969   4.754   5.541
19929TIP3    H281203   6.904   4.674   5.652
19930TIP3   OH281204   6.652   4.127   5.788
19930TIP3    H181205   6.599   4.157   5.862
19930TIP3    H281206   6.602   4.055   5.750
19931TIP3   OH281207   6.315   4.160   5.666
19931TIP3    H181208   6.271   4.171   5.751
19931TIP3    H281209   6.265   4.216   5.606
19932TIP3   OH281210   5.783   4.344   5.892
19932TIP3    H181211   5.824   4.363   5.977
19932TIP3    H281212   5.703   4.296   5.915
19933TIP3   OH281213   6.900   4.245   5.790
19933TIP3    H181214   6.812   4.208   5.793
19933TIP3    H281215   6.921   4.265   5.881
19934TIP3   OH281216   6.201   4.142   5.923
19934TIP3    H181217   6.182   4.227   5.963
19934TIP3    H281218   6.259   4.098   5.986
19935TIP3   OH281219   7.070   5.326   5.638
19935TIP3    H181220   7.110   5.323   5.724
19935TIP3    H281221   7.138   5.360   5.580
19936TIP3   OH281222   6.440   4.529   5.685
19936TIP3    H181223   6.456   4.592   5.614
19936TIP3    H281224   6.516   4.537   5.742
19937TIP3   OH281225   5.788   5.049   5.755
19937TIP3    H181226   5.836   5.006   5.826
19937TIP3    H281227   5.697   5.047   5.783
19938TIP3   OH281228   7.276   4.167   5.678
19938TIP3    H181229   7.336   4.200   5.745
19938TIP3    H281230   7.193   4.155   5.724
19939TIP3   OH281231   5.829   3.797   5.903
19939TIP3    H181232   5.835   3.868   5.838
19939TIP3    H281233   5.833   3.842   5.988
19940TIP3   OH281234   6.027   4.002   5.739
19940TIP3    H181235   6.083   3.949   5.682
19940TIP3    H281236   6.086   4.039   5.804
19941TIP3   OH281237   6.625   5.495   5.715
19941TIP3    H181238   6.707   5.522   5.758
19941TIP3    H281239   6.579   5.444   5.782
19942TIP3   OH281240   1.087   6.443   5.707
19942TIP3    H181241   1.087   6.468   5.799
19942TIP3    H281242   1.164   6.389   5.696
19943TIP3   OH281243   1.760   7.183   5.764
19943TIP3    H181244   1.729   7.199   5.854
19943TIP3    H281245   1.834   7.124   5.775
19944TIP3   OH281246   1.383   6.577   5.663
19944TIP3    H181247   1.388   6.591   5.569
19944TIP3    H281248   1.461   6.619   5.698
19945TIP3   OH281249   0.523   6.269   5.799
19945TIP3    H181250   0.502   6.297   5.710
19945TIP3    H281251   0.531   6.350   5.849
19946TIP3   OH281252   0.229   6.598   5.785
19946TIP3    H181253   0.233   6.559   5.873
19946TIP3    H281254   0.167   6.671   5.794
19947TIP3   OH281255   1.416   6.969   5.821
19947TIP3    H181256   1.415   6.896   5.883
19947TIP3    H281257   1.405   7.047   5.875
19948TIP3   OH281258   0.986   7.244   5.638
19948TIP3    H181259   0.946   7.299   5.705
19948TIP3    H281260   0.974   7.155   5.669
19949TIP3   OH281261   1.437   7.258   5.681
19949TIP3    H181262   1.429   7.232   5.773
19949TIP3    H281263   1.531   7.264   5.666
19950TIP3   OH281264   1.023   6.969   5.711
19950TIP3    H181265   0.977   6.941   5.791
19950TIP3    H281266   1.060   6.888   5.675
19951TIP3   OH281267   1.629   6.693   5.675
19951TIP3    H181268   1.657   6.669   5.587
19951TIP3    H281269   1.636   6.789   5.676
19952TIP3   OH281270   0.229   6.983   5.693
19952TIP3    H181271   0.177   7.025   5.761
19952TIP3    H281272   0.170   6.916   5.656
19953TIP3   OH281273   1.625   6.068   5.650
19953TIP3    H181274   1.690   6.102   5.712
19953TIP3    H281275   1.563   6.141   5.640
19954TIP3   OH281276   0.385   5.882   5.754
19954TIP3    H181277   0.429   5.818   5.698
19954TIP3    H281278   0.432   5.877   5.838
19955TIP3   OH281279   2.935   6.439   5.743
19955TIP3    H181280   2.898   6.464   5.827
19955TIP3    H281281   3.017   6.394   5.765
19956TIP3   OH281282   3.277   6.598   5.651
19956TIP3    H181283   3.290   6.606   5.556
19956TIP3    H281284   3.360   6.628   5.688
19957TIP3   OH281285   2.571   6.058   5.685
19957TIP3    H181286   2.532   6.036   5.770
19957TIP3    H281287   2.501   6.102   5.637
19958TIP3   OH281288   2.444   6.303   5.816
19958TIP3    H181289   2.382   6.295   5.744
19958TIP3    H281290   2.530   6.294   5.775
19959TIP3   OH281291   3.006   6.902   5.935
19959TIP3    H181292   2.993   6.975   5.995
19959TIP3    H281293   2.985   6.824   5.986
19960TIP3   OH281294   3.254   6.983   5.799
19960TIP3    H181295   3.301   6.936   5.867
19960TIP3    H281296   3.163   6.953   5.807
19961TIP3   OH281297   2.632   7.004   5.702
19961TIP3    H181298   2.654   6.937   5.637
19961TIP3    H281299   2.717   7.037   5.732
19962TIP3   OH281300   2.854   7.144   5.805
19962TIP3    H181301   2.826   7.156   5.896
19962TIP3    H281302   2.938   7.190   5.800
19963TIP3   OH281303   2.393   7.202   5.909
19963TIP3    H181304   2.427   7.220   5.821
19963TIP3    H281305   2.471   7.197   5.965
19964TIP3   OH281306   2.424   6.042   5.926
19964TIP3    H181307   2.424   6.138   5.923
19964TIP3    H281308   2.509   6.020   5.965
19965TIP3   OH281309   2.261   7.012   5.771
19965TIP3    H181310   2.291   7.077   5.835
19965TIP3    H281311   2.297   7.042   5.688
19966TIP3   OH281312   2.889   7.241   5.533
19966TIP3    H181313   2.876   7.189   5.612
19966TIP3    H281314   2.967   7.294   5.552
19967TIP3   OH281315   3.311   7.238   5.722
19967TIP3    H181316   3.292   7.156   5.768
19967TIP3    H281317   3.402   7.257   5.744
19968TIP3   OH281318   2.994   6.938   5.649
19968TIP3    H181319   2.970   6.939   5.742
19968TIP3    H281320   2.991   6.845   5.625
19969TIP3   OH281321   3.543   6.676   5.696
19969TIP3    H181322   3.556   6.652   5.604
19969TIP3    H281323   3.540   6.772   5.695
19970TIP3   OH281324   1.988   7.013   5.751
19970TIP3    H181325   2.077   7.000   5.782
19970TIP3    H281326   1.969   6.933   5.701
19971TIP3   OH281327   3.676   6.457   5.813
19971TIP3    H181328   3.627   6.532   5.778
19971TIP3    H281329   3.671   6.467   5.908
19972TIP3   OH281330   3.689   5.957   5.789
19972TIP3    H181331   3.717   5.882   5.736
19972TIP3    H281332   3.768   6.009   5.801
19973TIP3   OH281333   2.257   5.910   5.741
19973TIP3    H181334   2.306   5.839   5.699
19973TIP3    H281335   2.316   5.942   5.810
19974TIP3   OH281336   5.403   5.651   5.875
19974TIP3    H181337   5.328   5.659   5.934
19974TIP3    H281338   5.432   5.741   5.862
19975TIP3   OH281339   4.422   6.075   5.705
19975TIP3    H181340   4.363   6.044   5.774
19975TIP3    H281341   4.368   6.132   5.651
19976TIP3   OH281342   3.889   6.133   5.889
19976TIP3    H181343   3.951   6.075   5.934
19976TIP3    H281344   3.828   6.160   5.958
19977TIP3   OH281345   4.332   5.967   5.961
19977TIP3    H181346   4.322   6.048   6.011
19977TIP3    H281347   4.364   5.903   6.025
19978TIP3   OH281348   3.909   6.348   5.706
19978TIP3    H181349   3.823   6.384   5.729
19978TIP3    H281350   3.913   6.265   5.752
19979TIP3   OH281351   4.783   7.237   5.541
19979TIP3    H181352   4.769   7.156   5.590
19979TIP3    H281353   4.878   7.245   5.535
19980TIP3   OH281354   5.199   7.157   5.707
19980TIP3    H181355   5.218   7.141   5.799
19980TIP3    H281356   5.282   7.142   5.662
19981TIP3   OH281357   5.298   6.024   5.696
19981TIP3    H181358   5.367   5.980   5.746
19981TIP3    H281359   5.341   6.056   5.617
19982TIP3   OH281360   5.524   5.898   5.802
19982TIP3    H181361   5.561   5.843   5.733
19982TIP3    H281362   5.596   5.913   5.863
19983TIP3   OH281363   4.160   5.925   5.740
19983TIP3    H181364   4.192   5.846   5.697
19983TIP3    H281365   4.201   5.924   5.826
19984TIP3   OH281366   7.083   6.644   5.665
19984TIP3    H181367   6.993   6.673   5.684
19984TIP3    H281368   7.136   6.687   5.732
19985TIP3   OH281369   6.696   5.970   5.798
19985TIP3    H181370   6.666   5.948   5.886
19985TIP3    H281371   6.629   5.935   5.740
19986TIP3   OH281372   6.286   6.076   5.698
19986TIP3    H181373   6.228   6.024   5.754
19986TIP3    H281374   6.309   6.152   5.752
19987TIP3   OH281375   6.903   6.146   5.826
19987TIP3    H181376   6.825   6.092   5.817
19987TIP3    H281377   6.902   6.176   5.917
19988TIP3   OH281378   6.472   7.080   5.640
19988TIP3    H181379   6.514   6.995   5.648
19988TIP3    H281380   6.417   7.087   5.718
19989TIP3   OH281381   6.328   7.140   5.871
19989TIP3    H181382   6.299   7.109   5.956
19989TIP3    H281383   6.263   7.205   5.845
19990TIP3   OH281384   6.581   7.230   5.965
19990TIP3    H181385   6.501   7.188   5.933
19990TIP3    H281386   6.650   7.166   5.948
19991TIP3   OH281387   6.640   7.298   5.646
19991TIP3    H181388   6.588   7.219   5.661
19991TIP3    H281389   6.718   7.287   5.700
19992TIP3   OH281390   7.204   7.255   5.691
19992TIP3    H181391   7.156   7.209   5.760
19992TIP3    H281392   7.269   7.307   5.737
19993TIP3   OH281393   6.141   6.767   5.648
19993TIP3    H181394   6.143   6.744   5.741
19993TIP3    H281395   6.232   6.784   5.625
19994TIP3   OH281396   6.433   6.390   5.684
19994TIP3    H181397   6.440   6.458   5.617
19994TIP3    H281398   6.428   6.437   5.767
19995TIP3   OH281399   5.739   6.986   5.701
19995TIP3    H181400   5.730   6.960   5.793
19995TIP3    H281401   5.762   6.905   5.655
19996TIP3   OH281402   7.180   6.097   5.535
19996TIP3    H181403   7.160   6.185   5.503
19996TIP3    H281404   7.094   6.055   5.544
   7.30356   7.30356  16.00000
